/*--------------------------------*- C++ -*----------------------------------*\
  =========                 |
  \\      /  F ield         | OpenFOAM: The Open Source CFD Toolbox
   \\    /   O peration     | Website:  https://openfoam.org
    \\  /    A nd           | Version:  7
     \\/     M anipulation  |
\*---------------------------------------------------------------------------*/
FoamFile
{
    version     2.0;
    format      ascii;
    class       volScalarField;
    location    "1.8";
    object      p;
}
// * * * * * * * * * * * * * * * * * * * * * * * * * * * * * * * * * * * * * //

dimensions      [1 -1 -2 0 0 0 0];

internalField   nonuniform List<scalar> 8(0.9617950916 0.9581096888 1.033329496 0.9984138673 1.050667976 1.045037584 1.053993582 1.071949799);

boundaryField
{
    inlet
    {
        type            fixedValue;
        value           nonuniform 0();
    }
    outlet
    {
        type            zeroGradient;
    }
    bottom
    {
        type            slip;
    }
    top
    {
        type            slip;
    }
    obstacle
    {
        type            zeroGradient;
    }
    defaultFaces
    {
        type            empty;
    }
    procBoundary34to28
    {
        type            processor;
        value           nonuniform List<scalar> 2(0.9499481633 0.9732695741);
    }
    procBoundary34to33
    {
        type            processor;
        value           nonuniform List<scalar> 4(1.047001404 1.058394393 1.041867823 1.020794217);
    }
    procBoundary34to35
    {
        type            processor;
        value           nonuniform List<scalar> 4(0.9785272931 0.9995172497 1.02333527 1.057601436);
    }
}


// ************************************************************************* //
