/*--------------------------------*- C++ -*----------------------------------*\
  =========                 |
  \\      /  F ield         | OpenFOAM: The Open Source CFD Toolbox
   \\    /   O peration     | Website:  https://openfoam.org
    \\  /    A nd           | Version:  7
     \\/     M anipulation  |
\*---------------------------------------------------------------------------*/
FoamFile
{
    version     2.0;
    format      ascii;
    class       volScalarField;
    location    "1.8";
    object      rho;
}
// * * * * * * * * * * * * * * * * * * * * * * * * * * * * * * * * * * * * * //

dimensions      [1 -3 0 0 0 0 0];

internalField   nonuniform List<scalar> 8(1.352943275 1.34992919 1.43180847 1.395435833 1.450104856 1.444388664 1.453492994 1.471188499);

boundaryField
{
    inlet
    {
        type            calculated;
        value           nonuniform 0();
    }
    outlet
    {
        type            calculated;
        value           nonuniform 0();
    }
    bottom
    {
        type            calculated;
        value           nonuniform 0();
    }
    top
    {
        type            calculated;
        value           nonuniform List<scalar> 2(1.453492994 1.471188499);
    }
    obstacle
    {
        type            calculated;
        value           nonuniform 0();
    }
    defaultFaces
    {
        type            empty;
    }
    procBoundary34to28
    {
        type            processor;
        value           nonuniform List<scalar> 2(1.331063361 1.354089329);
    }
    procBoundary34to33
    {
        type            processor;
        value           nonuniform List<scalar> 4(1.44090768 1.457094648 1.441485574 1.420717669);
    }
    procBoundary34to35
    {
        type            processor;
        value           nonuniform List<scalar> 4(1.369893546 1.395574286 1.422537863 1.457203206);
    }
}


// ************************************************************************* //
