/*--------------------------------*- C++ -*----------------------------------*\
  =========                 |
  \\      /  F ield         | OpenFOAM: The Open Source CFD Toolbox
   \\    /   O peration     | Website:  https://openfoam.org
    \\  /    A nd           | Version:  7
     \\/     M anipulation  |
\*---------------------------------------------------------------------------*/
FoamFile
{
    version     2.0;
    format      ascii;
    class       volScalarField;
    location    "3.3";
    object      T;
}
// * * * * * * * * * * * * * * * * * * * * * * * * * * * * * * * * * * * * * //

dimensions      [0 0 0 1 0 0 0];

internalField   nonuniform List<scalar> 
2222
(
1.113839959
1.114483276
1.114619842
1.114537748
1.114501017
1.114414345
1.114160791
1.113531892
1.11223015
1.109838087
1.106220012
1.101275397
1.094811807
1.088142353
1.080255849
1
1
1
1
1
1
1
1
1.000000009
1.000000261
1.000005452
1.000086477
1.000691515
1.005240375
1.018301926
1.048236426
1.083640417
1.098484333
1.104962303
1.11163013
1.113984253
1.113953054
1.114379787
1.114622099
1.114576393
1.114501206
1.114381414
1.114164547
1.113628308
1.112447959
1.110233869
1.106668674
1.101910067
1.095535492
1.088265808
1.081031375
1.07202308
1
1
1
1
1
1
1
1.000000006
1.000000259
1.000005636
1.000070892
1.000811884
1.004319945
1.020183463
1.048267497
1.076690911
1.101919453
1.110629976
1.110986146
1.112546508
1.114145177
1.114612183
1.114655562
1.114606322
1.114521599
1.1144055
1.114203681
1.113743033
1.112684464
1.110640565
1.10719297
1.102400592
1.096331806
1.088677566
1.081227673
1.072974176
1.063306452
1
1
1
1
1
1
1.000000007
1.000000195
1.000004944
1.000078703
1.000662409
1.005047549
1.018050774
1.048221765
1.084028052
1.098053037
1.104873056
1.11215207
1.114039727
1.114016901
1.114336566
1.114541129
1.114646806
1.114612921
1.114518979
1.114314005
1.113873131
1.112901267
1.110999329
1.107752392
1.102920229
1.096993433
1.089479285
1.081203807
1.073468167
1.063802841
1.054959976
1
1
1
1
1
1.000000003
1.000000205
1.000004519
1.000064729
1.00075405
1.004192194
1.020034126
1.048398186
1.077072856
1.10222927
1.110909071
1.111237219
1.112801307
1.114288466
1.114545514
1.114522316
1.114522826
1.114571149
1.114564867
1.114449719
1.114075821
1.113183027
1.11136805
1.108295353
1.103547432
1.097482193
1.090332615
1.081462225
1.073341414
1.064939333
1.054564665
1.047035089
1
1
1
1
1.000000003
1.000000118
1.000004068
1.00006648
1.00061378
1.004733386
1.017724775
1.048635047
1.084766043
1.097730043
1.105082043
1.112959885
1.114289096
1.114298675
1.114415443
1.114493687
1.114588398
1.114663757
1.114671686
1.114593278
1.114282868
1.113472503
1.11176637
1.10880262
1.104270009
1.097950188
1.090880463
1.082321962
1.073023281
1.065233269
1.05537262
1.045211273
1.03868364
1
1
1
1.000000001
1.000000114
1.000002909
1.000054542
1.000661865
1.003943099
1.019373446
1.047843761
1.077640727
1.103119132
1.111680611
1.111942628
1.113302063
1.11456515
1.114635323
1.114559764
1.114527588
1.114648771
1.114792547
1.114753582
1.114521145
1.113805954
1.11222818
1.109324568
1.104945798
1.09866901
1.091128114
1.083233959
1.073331637
1.064347153
1.056170289
1.04505154
1.036655238
1.030256201
1
1
1.000000001
1.000000048
1.00000273
1.000048734
1.000535841
1.004289778
1.017183885
1.048283777
1.084447362
1.097205673
1.105926172
1.11383226
1.114687466
1.114583817
1.114599615
1.114667112
1.114788265
1.114796235
1.114840027
1.114864949
1.114727386
1.114122246
1.112662184
1.109883218
1.105502873
1.09956875
1.091626516
1.083433315
1.074357699
1.063527685
1.05544401
1.046587639
1.035246008
1.028054683
1.020433701
1
1
1.000000047
1.000001559
1.000044049
1.000550708
1.003641857
1.018468699
1.047061893
1.078300724
1.103996417
1.11165408
1.112284099
1.113561834
1.114741772
1.114997981
1.114921656
1.114893896
1.11498926
1.115031762
1.114987549
1.114860536
1.11437959
1.113064755
1.110465837
1.106102187
1.100234228
1.092637879
1.083355268
1.074771054
1.064467792
1.053976696
1.046304371
1.035801788
1.024847167
1.018740312
1.010331025
1
1.000000006
1.000001437
1.000032504
1.000482786
1.003909225
1.016902301
1.048048791
1.084396132
1.09756375
1.10698695
1.11410339
1.114757658
1.114682001
1.114775308
1.115123802
1.115273355
1.115242264
1.115235258
1.115170108
1.115005893
1.11456865
1.113390793
1.110939229
1.106794647
1.100694559
1.093437516
1.084116463
1.07432908
1.06542535
1.053853713
1.043931002
1.036063095
1.02458255
1.015544684
1.009720637
0.9997865223
1
1.000000318
1.000027813
1.000422875
1.003463338
1.017872029
1.047359038
1.080057578
1.105284529
1.112223541
1.112609585
1.113556904
1.11483496
1.115286305
1.115213291
1.1153285
1.115441917
1.115454471
1.115389747
1.115199529
1.114756811
1.113669711
1.111329065
1.107381109
1.101361896
1.093674597
1.085203659
1.074465533
1.064627976
1.054841918
1.04245636
1.033846398
1.025768652
1.013831673
1.005894129
0.9993924405
0.9881745277
1.00000003
1.000010842
1.000351102
1.003380598
1.016508007
1.047579341
1.08603017
1.098956441
1.108653836
1.114974953
1.114796871
1.114625142
1.114764199
1.115336083
1.115466987
1.115490829
1.115516598
1.115494056
1.115347359
1.114916895
1.11388524
1.111695746
1.107786112
1.102117563
1.094117184
1.085327628
1.07551019
1.063602812
1.054120725
1.043704002
1.031658654
1.023654698
1.014199117
1.001923866
0.9955573599
0.9891807857
0.9785851852
1.000002303
1.000213842
1.002932603
1.016580724
1.046944668
1.082025654
1.106618754
1.111694911
1.113324833
1.114278156
1.115236933
1.115229075
1.115211983
1.11538631
1.115515953
1.115527138
1.115494088
1.115377683
1.115002859
1.114035757
1.112002948
1.10821712
1.102572001
1.095026852
1.085157907
1.075633722
1.064434797
1.052462419
1.043358982
1.031638083
1.019832595
1.012469643
1.002524758
0.9918381564
0.9860981873
0.9786002309
0.9677089011
1.000082552
1.0023768
1.015493062
1.04703466
1.086968885
1.099167492
1.108806444
1.114149803
1.115212764
1.115152689
1.115342887
1.115576068
1.115599968
1.115546727
1.115485375
1.115386277
1.11527169
1.114965551
1.114129469
1.112245977
1.108740151
1.102982279
1.095624759
1.085905098
1.074878565
1.065048756
1.052383177
1.040674666
1.031505688
1.018837719
1.008689844
1.001901412
0.9911759487
0.9813336757
0.9756421495
0.9669381941
0.9569044605
1.001409147
1.015033433
1.045867319
1.083293546
1.10858031
1.111586468
1.11289466
1.114446434
1.115474423
1.115626415
1.115556769
1.11555172
1.115516149
1.115384223
1.115208947
1.11504839
1.11485998
1.114179875
1.112438578
1.10914267
1.103622812
1.095839465
1.086850659
1.075050092
1.063830808
1.053120591
1.038940557
1.028733477
1.01982525
1.006792821
0.9976898356
0.9901929533
0.9780650121
0.9698893908
0.9651283986
0.9565408435
0.9480560465
1.01197028
1.04776219
1.08716065
1.100355036
1.110898961
1.114657169
1.114079576
1.114173335
1.114908948
1.115238618
1.115260735
1.115262304
1.115240551
1.11511278
1.114949953
1.114807166
1.114201419
1.112631036
1.109473756
1.104307874
1.096375889
1.087010596
1.076132854
1.062618132
1.051945114
1.040181373
1.026153402
1.017252562
1.006888258
0.9929865341
0.985926221
0.978757429
0.9671615726
0.9602611291
0.9549409201
0.945030369
0.937519997
1.046272911
1.084721051
1.110515608
1.112879599
1.114687109
1.115329754
1.114963153
1.11456292
1.11468552
1.114820254
1.114893565
1.114939049
1.115002673
1.114939401
1.11488587
1.11438124
1.112973253
1.109992977
1.104936887
1.097350832
1.087072459
1.076424785
1.063311805
1.049916618
1.03985287
1.026056514
1.01280908
1.004876127
0.9930502727
0.9808054751
0.9752095188
0.9672044508
0.9554808892
0.9497798217
0.9439412272
0.9331920651
0.9272373602
1.085963659
1.101575532
1.112642398
1.115100816
1.114909453
1.114898397
1.114765309
1.114768967
1.114781528
1.114750281
1.114749047
1.114775557
1.114877218
1.114896224
1.114541063
1.113349651
1.110632351
1.105607644
1.098198099
1.08780436
1.076047923
1.064236336
1.049347246
1.037109986
1.026146031
1.010448276
1.000387615
0.9931811746
0.9799638462
0.96964439
0.9638916485
0.9534227649
0.942461329
0.9386332657
0.9328150463
0.9228950567
0.9186741629
1.1079525
1.112240997
1.116123801
1.11637672
1.115763406
1.114578889
1.114301529
1.114472584
1.11466986
1.114779161
1.114792686
1.114802252
1.114775245
1.114544193
1.113610891
1.111207826
1.106408104
1.09887371
1.088829815
1.07613187
1.06377572
1.049937491
1.03435641
1.023918299
1.011723166
0.9967167813
0.9886073745
0.9792892928
0.964095286
0.9574116976
0.9523794658
0.9409472157
0.9326888801
0.9290774223
0.9214987558
0.9117641737
0.9082242325
1.110142632
1.112372772
1.1154549
1.116388074
1.115984679
1.114846197
1.114163504
1.114175698
1.114457584
1.114791458
1.114824904
1.114757129
1.114552195
1.113790475
1.111654419
1.107187624
1.099681762
1.089636169
1.076835575
1.062772241
1.049755428
1.034125049
1.020585254
1.010551207
0.9955475446
0.9825322844
0.9758644963
0.9644384764
0.9511167018
0.9464972836
0.9401444222
0.9275136671
0.9222284241
0.9188157714
0.9098165542
0.9020215528
0.899366844
1.114314614
1.113366156
1.11381669
1.114698507
1.115161992
1.114988997
1.11452486
1.114309964
1.114321206
1.114500049
1.114684951
1.114588095
1.113988543
1.112074857
1.107886928
1.100580075
1.090287466
1.077589254
1.062408612
1.048588225
1.034550294
1.017903099
1.006285017
0.994704811
0.9782200679
0.9693967371
0.9631017539
0.950128861
0.9402371593
0.9358799865
0.9266641561
0.9144718653
0.9108773651
0.9066955461
0.8966801669
0.8915191691
0.8892674394
1.116027124
1.114967499
1.113902396
1.114081735
1.114422771
1.114876701
1.114829489
1.114628038
1.114442268
1.114478137
1.11450365
1.114111016
1.112463837
1.108537732
1.101470621
1.090895282
1.078131925
1.063004775
1.04701725
1.033230675
1.016742673
1.001008429
0.9917359795
0.979103805
0.9644305219
0.9573008958
0.9483457829
0.9333171686
0.9269606928
0.9229085528
0.9125200319
0.9044509337
0.9018724733
0.8961102434
0.8858890656
0.8826160602
0.8798123263
1.115078304
1.11484587
1.114527535
1.114344472
1.114472753
1.114735112
1.114952812
1.114911922
1.114740066
1.114540862
1.114082894
1.112601222
1.108963311
1.102219236
1.091676068
1.078252098
1.063504577
1.045962927
1.030070212
1.016092212
0.9988532302
0.9860746102
0.9764425417
0.9610003075
0.9492075557
0.943654402
0.9330720359
0.9202646942
0.9158155245
0.9101131466
0.8981507433
0.892954502
0.8907700438
0.8842310164
0.8762575668
0.8744582018
0.8711559883
1.114373858
1.114512721
1.11462751
1.1146331
1.114660017
1.114827081
1.11502573
1.115069136
1.114992492
1.114494431
1.113062403
1.109613817
1.102956775
1.092661082
1.078347528
1.06276769
1.045880972
1.027316704
1.013336602
0.9986654542
0.9808711528
0.9701415655
0.959276545
0.9431302937
0.9344563074
0.9287100496
0.9167749646
0.9081275567
0.9052032881
0.8986186998
0.887772602
0.883677253
0.8802728382
0.8716273164
0.8661957722
0.8643539283
0.859557609
1.114448496
1.114523916
1.114644148
1.114750243
1.114814349
1.114919831
1.115054424
1.115050314
1.114790708
1.11368502
1.110576168
1.103993998
1.09349914
1.079074495
1.061467969
1.04504125
1.026694789
1.008500335
0.9948922553
0.9777238746
0.9614114389
0.9533807201
0.9429436298
0.9293960972
0.9227126464
0.9152240687
0.9018938353
0.8946466687
0.8911636519
0.8833169636
0.8749271396
0.8724300725
0.8682737901
0.8595250087
0.8583504253
0.8575056539
0.8536048393
1.114722721
1.114772232
1.114832865
1.114851406
1.114893337
1.114959207
1.115038773
1.114935366
1.114164469
1.111513413
1.105365341
1.094444341
1.079879274
1.061731631
1.04263872
1.025331477
1.004729109
0.9878462555
0.975752405
0.9593627711
0.9459095552
0.9370529627
0.9238759373
0.9115826824
0.9069516517
0.9000050626
0.8892451438
0.884214851
0.8797063614
0.8698028992
0.8646810733
0.8632028629
0.8589148861
0.8537702948
0.8534689835
0.8521867562
0.8484893784
1.114823637
1.114936802
1.114992341
1.114972744
1.11497938
1.114985984
1.114944097
1.114415984
1.112195189
1.106527002
1.095877628
1.080326846
1.062442743
1.040996753
1.020895958
1.002949794
0.9825279628
0.9683108476
0.9562845063
0.9395035031
0.9292118211
0.9210892644
0.9070438841
0.8965757854
0.8913514436
0.8830641926
0.8738514883
0.871605547
0.8682850451
0.8609884476
0.8589220435
0.8571766393
0.8515653039
0.8486759901
0.8478605841
0.8454623034
0.8432043019
1.114891633
1.115015668
1.115075685
1.115074522
1.11505855
1.114988477
1.11455472
1.11269328
1.107408786
1.097210848
1.081190892
1.061502984
1.040569925
1.017039802
0.9990152308
0.9815241007
0.9614135765
0.9482438314
0.9343663722
0.9173724756
0.9087782528
0.9020052234
0.8908519324
0.885157175
0.8808475802
0.8720042619
0.8649740556
0.8626719901
0.8575621003
0.8517804512
0.8506172026
0.8485431182
0.8444515646
0.8440786299
0.843896837
0.8429899209
0.8423403043
1.115070036
1.115087403
1.115116996
1.11513407
1.115087607
1.114766195
1.11321812
1.108417887
1.098150515
1.082300998
1.060456851
1.038253412
1.015913746
0.9924408053
0.9749119355
0.9546200597
0.9362301352
0.9278199054
0.9168242959
0.9033231086
0.8948600031
0.8860904774
0.8741862723
0.8699473261
0.8665240285
0.8582086324
0.8548217286
0.8527220462
0.8472012384
0.8451070295
0.8455103821
0.8447898958
0.8434770461
0.843536913
0.8436430749
0.8430906638
0.8427955405
1.115178131
1.115182638
1.115191106
1.115168224
1.11498931
1.113790092
1.109530368
1.099331904
1.082643553
1.060878574
1.03486515
1.012534152
0.9876850875
0.965263176
0.9503292023
0.9314682382
0.915419636
0.9059560957
0.8940170958
0.884026834
0.8801118221
0.8722879477
0.8634794738
0.8598921271
0.8550226888
0.8478152029
0.847611802
0.8468808346
0.8446821078
0.8441991813
0.8446784859
0.844099027
0.8432567143
0.8433350822
0.8432824923
0.8428571584
0.8427430825
1.115261794
1.115253536
1.115244981
1.115184642
1.114323789
1.11056929
1.100898567
1.083120534
1.060116463
1.033089469
1.004734352
0.9816610302
0.9560103986
0.9383018458
0.9272870543
0.9114061329
0.8988985964
0.8888570894
0.8741947192
0.8648269704
0.8620819076
0.8555041469
0.851423789
0.8512212066
0.8483372354
0.8459586239
0.8462538095
0.8456327939
0.8439023164
0.8435394293
0.8435750007
0.8429739951
0.8424811177
0.8425527987
0.8425263851
0.8423008314
0.8426798021
1.115344118
1.115328811
1.11529832
1.114717582
1.111608967
1.10231472
1.084645872
1.057995738
1.030353645
0.9989027654
0.9737525152
0.9533806704
0.9291654793
0.9120661144
0.8981463487
0.87985372
0.8752862511
0.8713240017
0.8615069536
0.8582243503
0.8549402707
0.849118103
0.8473230554
0.8469650999
0.8444844659
0.8432376052
0.8435972562
0.8431366318
0.8423021852
0.8423440178
0.8423585791
0.8421720415
0.8420779696
0.84212417
0.8423053438
0.8438643875
0.8538964209
1.115405396
1.115389588
1.115049602
1.112689601
1.103947078
1.085994199
1.057236979
1.023669718
0.99444172
0.9611611866
0.9393881622
0.9186981491
0.9000973679
0.8920468153
0.8792026529
0.8646891624
0.8605764845
0.855781661
0.8488035694
0.8495107815
0.8480502082
0.8443196619
0.8442276974
0.8437824346
0.8422042878
0.8418572549
0.8420781201
0.8421813565
0.8421333086
0.8421909275
0.842290134
0.8422861432
0.8423519427
0.8432301259
0.8479326559
0.8659184011
0.9047765057
1.115461391
1.115325151
1.113710256
1.106149578
1.086578434
1.057525581
1.018171553
0.9860512571
0.9544377447
0.9247894693
0.9072429722
0.885023524
0.8699603689
0.8672086502
0.8580395135
0.8548701329
0.8537869399
0.8483263383
0.8435937774
0.8429536092
0.8420626315
0.8414603381
0.8418128639
0.8421023015
0.8419040082
0.8418663891
0.8420733072
0.842305813
0.8424542016
0.8426006683
0.8427311263
0.843054012
0.8450926991
0.8577376272
0.8866618408
0.9292490313
0.9705577638
1.115483928
1.114655213
1.1084098
1.088231471
1.055703341
1.01370593
0.9691550404
0.9401914358
0.9037901489
0.8941151212
0.8855676616
0.8702795441
0.8596154268
0.8519842304
0.8435865456
0.8427617583
0.8436827017
0.8420575049
0.8415227536
0.8419623116
0.8417056029
0.8413548956
0.8417084343
0.8423635141
0.8426133291
0.8427541649
0.8429872313
0.8430184931
0.8430476953
0.8431865036
0.8439676323
0.8504961664
0.8703460684
0.9173877697
0.9570771582
0.9863849353
0.9938448272
1.115485608
1.110971163
1.091494132
1.051371846
1.009610875
0.9585628709
0.9259745349
0.9019884067
0.8729366863
0.8614375081
0.8525245988
0.8492872124
0.8501625673
0.8483006824
0.8438258952
0.8420559011
0.8422464515
0.8419493437
0.8421304247
0.8430120306
0.8429322584
0.8426995516
0.8429405973
0.8433253464
0.8433884893
0.8433681106
0.843334367
0.8432961517
0.8433838492
0.8456062482
0.8570177161
0.895515634
0.9437638177
0.974456001
0.9957664968
1.007267754
1.005933692
1.114156233
1.094783563
1.047897719
0.9925209299
0.931101942
0.8956445172
0.8898418927
0.8739378064
0.8627996276
0.8543440706
0.8473939832
0.8423614195
0.8433520773
0.8449172338
0.8444537055
0.8439964191
0.8437955021
0.8435598191
0.8438236377
0.8447057939
0.8447459619
0.8445568391
0.8444076787
0.8441932275
0.8437385325
0.8433537459
0.8433120685
0.8437427442
0.8488061495
0.8748755953
0.9185953485
0.9595751781
0.9935709706
0.9972030906
1.001866285
1.008283725
1.009356899
1.1021709
1.04348463
0.9719456567
0.9161195255
0.8676687338
0.8490894386
0.8479558088
0.8444524528
0.8464150343
0.8481933418
0.8455858808
0.8437852401
0.8445006205
0.8459844489
0.8466693774
0.8468713429
0.8466411505
0.8458975359
0.8458671282
0.846454301
0.8464413461
0.8461061705
0.8452837047
0.8441697954
0.8437120248
0.8437242746
0.845245769
0.857058052
0.8941765892
0.9467637279
0.9864342795
0.9961208695
1.003594817
1.005514248
1.006338755
1.00868866
1.010515573
1.048865061
0.9071807765
0.8382223976
0.8303832115
0.8310487427
0.8291642079
0.826265859
0.8273282643
0.8307936359
0.834913082
0.837739167
0.8408307063
0.8443534729
0.8458770753
0.8463800297
0.8469831741
0.8472887186
0.8468555107
0.8463159873
0.8463317219
0.8461471951
0.8456090544
0.8449272784
0.8442451591
0.8445804567
0.8501562482
0.8734329851
0.9270369419
0.9776468063
0.9924439874
1.005293756
1.008665634
1.01073868
1.011466381
1.010619851
1.010860091
1.011653345
0.9096945227
0.9205713829
0.8534488015
0.8396254817
0.8319529577
0.8174146093
0.8152001471
0.8202024656
0.8319994002
0.8378648328
0.8416641655
0.8442840771
0.8466149847
0.846931307
0.8472913664
0.8478663178
0.8479872456
0.8475449298
0.8467802416
0.8461596353
0.8458321648
0.8451455929
0.8445951364
0.8445894847
0.8487430404
0.8682100894
0.9229024877
0.9871791343
1.011413177
1.010194296
1.012294826
1.013253074
1.014057041
1.013922396
1.013009406
1.012496965
0.9119467833
0.9192193025
0.8621070784
0.8443796214
0.8315399807
0.8163992504
0.8147052293
0.8208984706
0.8324496031
0.8385804209
0.8420670547
0.8447674093
0.846759122
0.8466736768
0.8471673916
0.8477512257
0.8478004937
0.8473001307
0.8466543279
0.8460750451
0.8457285183
0.8450113694
0.8446080131
0.8452625898
0.8522282862
0.8801208758
0.9390147559
0.9957372889
1.013870812
1.011149615
1.012798713
1.012885544
1.013858151
1.013647291
1.013061198
1.012835564
0.9176326947
0.9150031019
0.8685551759
0.8449812086
0.8305274876
0.8158057127
0.815006425
0.8214790163
0.8325575
0.8389634801
0.8424157692
0.8451279146
0.846811849
0.8464757862
0.8471075417
0.8476917401
0.8476823194
0.8471692196
0.8465652176
0.8460233858
0.8456319449
0.8448781491
0.8446119821
0.845843856
0.8559097994
0.8904286339
0.9523415539
0.9986172856
1.014261814
1.011189878
1.012571016
1.012345552
1.013452616
1.013207204
1.012795524
1.012719573
0.9209170975
0.9099545685
0.8728276586
0.8470048473
0.8305954197
0.8161639973
0.8151196958
0.8220800548
0.8326048726
0.8390619672
0.8429740976
0.8454912952
0.8467193406
0.8463363389
0.8470496992
0.8476339052
0.8475556146
0.8470264491
0.8464508484
0.845970241
0.8455508462
0.8448509324
0.844695677
0.8468233083
0.8594257147
0.9046693011
0.9717176922
1.002224575
1.013250678
1.01096877
1.012266998
1.011839989
1.013236862
1.012694012
1.012334669
1.012372657
0.9208814394
0.9054241623
0.8768716245
0.8494960359
0.8308828074
0.8163870608
0.8158578011
0.8227633017
0.8328859365
0.8392632993
0.8433436826
0.8456922614
0.8464294987
0.846165153
0.846948994
0.8475606521
0.8473730938
0.8468272059
0.8463351949
0.8459332029
0.8454503103
0.8448633077
0.8449407895
0.848827192
0.8667411082
0.9220088535
0.9833798358
1.006218857
1.012930318
1.010377143
1.011622542
1.011350489
1.012779061
1.012306293
1.012041299
1.012047217
0.9200074269
0.9017024341
0.8776496823
0.8514324747
0.8312830024
0.8169134362
0.816652648
0.8234900926
0.8335217356
0.8398706065
0.8436294579
0.8458411844
0.8460529811
0.8459043332
0.8467486908
0.8474147044
0.8471724572
0.8466495436
0.8462275562
0.8458621794
0.8454229263
0.844897968
0.8452130918
0.8506839345
0.8767923661
0.935864931
0.9870472215
1.009933428
1.012682603
1.00971549
1.01089892
1.010763988
1.01238969
1.011891603
1.011615704
1.011742899
0.9183705132
0.899295503
0.8786075757
0.8533095314
0.8318061798
0.8175652414
0.8177222993
0.8239099836
0.8337266131
0.8403816051
0.8439687152
0.8458044674
0.8457223458
0.8457381459
0.8466156365
0.8472765498
0.8470805743
0.8465709675
0.846144932
0.8458198513
0.8453913761
0.8449825411
0.8458652936
0.854153432
0.88611424
0.9455335864
0.9924585472
1.011593521
1.012274771
1.009632599
1.010726986
1.010512745
1.012028491
1.011566227
1.011346582
1.011520296
0.9164525256
0.8977009687
0.87948998
0.8550787199
0.8324377746
0.8185329869
0.8187845592
0.8243570592
0.8336696764
0.8404169653
0.8442992878
0.8456560859
0.8454800541
0.8456393831
0.8465605223
0.8471735805
0.8469815917
0.8464982905
0.8460562735
0.8457661701
0.8453587939
0.8450963148
0.8467794806
0.8591946804
0.8972161652
0.9578648298
1.000552315
1.012474611
1.01220623
1.009947756
1.010770849
1.010812133
1.011850022
1.011443567
1.011283417
1.011459434
0.9144419631
0.896496317
0.880227267
0.8568358937
0.8332152108
0.8196584154
0.8199292469
0.8253670978
0.8338030264
0.8403318814
0.8443473995
0.8454575646
0.8452662086
0.8454630868
0.8464495062
0.8470502133
0.8467989279
0.8463679729
0.845962027
0.8456893237
0.8453438588
0.8453725925
0.84829948
0.8637501157
0.9117277645
0.9765995199
1.00561656
1.012468459
1.012077289
1.010180783
1.010720142
1.010871945
1.011925424
1.011378785
1.011323288
1.011520797
0.9123811719
0.8954467473
0.8808030493
0.8586988482
0.8341842092
0.8208496227
0.8207531462
0.8262256727
0.8344576951
0.8404075924
0.8442483173
0.8451897163
0.8449433347
0.845158735
0.8461794052
0.8468220334
0.8465570965
0.8461669802
0.845869048
0.8456217023
0.8453321247
0.8457318116
0.8506130281
0.8727396027
0.930298685
0.9880302398
1.006790899
1.011927972
1.011904255
1.01038538
1.010798135
1.010846242
1.011905339
1.011256839
1.011205143
0.9104568548
0.8947706003
0.8812618606
0.8603935654
0.8356112169
0.8222858169
0.821623906
0.8264289929
0.8346546484
0.8407457658
0.8441258914
0.8448980263
0.8446436965
0.8450638357
0.845957729
0.8464334232
0.8463293542
0.8460247189
0.8457772813
0.8455755893
0.8452912218
0.8461701654
0.8530682921
0.8839836187
0.9460137637
0.9910683514
1.006448942
1.011548541
1.011666763
1.010485644
1.010719658
1.010771057
1.011906125
1.011206816
1.011110683
0.9087586505
0.894565526
0.8818848431
0.8622186688
0.8369286895
0.8236832016
0.8227170506
0.8266577581
0.8345286744
0.8408480515
0.8440487872
0.8445753464
0.8444562862
0.8450691999
0.845960822
0.8462150881
0.8461132108
0.8459410056
0.8456922686
0.8455777307
0.8454282534
0.8471042039
0.8574737594
0.8924141712
0.9540695067
0.9937685908
1.007171449
1.011621946
1.011389543
1.010281033
1.010409896
1.010575508
1.011862605
1.011175302
1.01111472
0.9071794399
0.894698761
0.8828122316
0.8639956205
0.8387655819
0.8249745832
0.823557356
0.8272464024
0.8344407849
0.8407608952
0.8438544403
0.8441738945
0.8441884873
0.8450355639
0.8460231468
0.846188621
0.8459771715
0.8458444556
0.8456365201
0.8456002318
0.845655552
0.8482967916
0.8630624257
0.9066499972
0.9637475771
1.000088423
1.009102402
1.012038271
1.011046176
1.009903974
1.010023206
1.01044522
1.011743646
1.011121365
1.01109759
0.9064140013
0.8952255201
0.8840212728
0.865652847
0.8401547478
0.8258720005
0.8240565592
0.8278516573
0.8344880397
0.8405273276
0.8435036241
0.8436600509
0.8436723348
0.8448409595
0.8460370475
0.8462173013
0.8459124637
0.8457185872
0.8456086396
0.8455784067
0.8460020053
0.8500329234
0.8692732354
0.9227139148
0.9797678739
1.006854453
1.01067019
1.012505409
1.010989685
1.009715035
1.009819064
1.010505989
1.011623986
1.010969275
1.010983388
0.9057333627
0.8960147633
0.8853504163
0.8673860614
0.8417367113
0.8268636373
0.8245497531
0.8280857816
0.8346251357
0.8402779183
0.8430960856
0.843152909
0.8432362876
0.844488385
0.8458673657
0.8461897659
0.8459344639
0.8456511118
0.8455791881
0.8456421072
0.846338066
0.8526135487
0.8802045065
0.9370977993
0.9935887948
1.008532699
1.011093869
1.01260295
1.011030657
1.009779147
1.009938127
1.010723236
1.011628523
1.010917184
1.010916929
0.9054321207
0.8968922338
0.8866773603
0.8686934772
0.8429849846
0.828012222
0.8252496855
0.8282391738
0.8345950552
0.8400761878
0.8427253958
0.8428677832
0.8431019131
0.8443496349
0.8455434357
0.8459761201
0.8459387945
0.8456383164
0.8455216574
0.8456529767
0.8469588202
0.8560151181
0.8912290039
0.9548779574
0.9988911626
1.009101029
1.01129291
1.012689669
1.011086635
1.010018289
1.010148035
1.011016739
1.011773372
1.011006326
1.011004756
0.905487426
0.8979739772
0.8880090212
0.8697986854
0.8439624606
0.8290420895
0.8262301387
0.8285040672
0.8343606342
0.8399815908
0.8424060214
0.8426726274
0.8430406259
0.8443413824
0.8454293879
0.8457193021
0.8458190098
0.8456343334
0.8454554115
0.8458518781
0.8484684321
0.8620880991
0.9027956258
0.9678467731
0.9972813181
1.008005055
1.011038267
1.012309004
1.011026136
1.010357878
1.010380694
1.01146993
1.012041667
1.011062368
1.011020769
0.9057973074
0.8992356867
0.8895797465
0.8708212554
0.8443975294
0.8295202155
0.826930897
0.8289229174
0.8340351327
0.839697213
0.842054314
0.8423742918
0.8428971088
0.8443709282
0.8454164509
0.8456253597
0.8456308637
0.8455932982
0.8453704498
0.845995126
0.8499894975
0.8688525542
0.919802994
0.9741401964
1.00011114
1.007435091
1.010213944
1.011751878
1.011086886
1.010541664
1.01064772
1.011957193
1.012227859
1.011424333
0.9063540344
0.9008204057
0.8915281332
0.8718787493
0.8449806562
0.8297439787
0.8270598467
0.8291151886
0.8338606427
0.8392159488
0.841595
0.8418707311
0.8426006202
0.8443083586
0.8454114493
0.8456261384
0.8455707421
0.8454736017
0.8454676628
0.8463293052
0.8521315526
0.8760667292
0.9329298672
0.9826260356
1.005623851
1.008032219
1.010168085
1.011763128
1.011224584
1.010710578
1.010780637
1.012173053
1.012389579
1.011704684
0.9072880216
0.9027267766
0.8935824789
0.8728676942
0.8456809534
0.8301866207
0.8270748996
0.829038557
0.8338901801
0.8386356987
0.8410779707
0.8415245023
0.8424416289
0.8440441986
0.845261048
0.8455851343
0.8455744092
0.845429281
0.8455505622
0.84692501
0.8556528689
0.8882800829
0.9446307546
0.9943663405
1.008848062
1.009849538
1.010352112
1.01189296
1.011230446
1.010831574
1.01099254
1.012427567
1.012579993
1.011940502
0.908841653
0.9050409299
0.8962487481
0.8734812692
0.8461512927
0.831190495
0.8273092641
0.8288438592
0.8336664249
0.8381423544
0.8406158943
0.8414119694
0.8424517103
0.8438878072
0.8449167905
0.8454375805
0.8455934945
0.8454980595
0.8457839227
0.8484400086
0.8608236095
0.9004933227
0.9640369406
1.002202242
1.009625713
1.01069695
1.010683088
1.011603376
1.010949157
1.010885352
1.011245018
1.012675144
1.012593482
1.012010893
0.9104244304
0.9072960355
0.8986560279
0.8740562766
0.846471569
0.8315581708
0.8278143465
0.8287640626
0.8332142996
0.8377380912
0.8401838638
0.8413351444
0.8425212249
0.8438459121
0.8447053493
0.8452576656
0.8456004355
0.8456350159
0.8460658254
0.8500659208
0.8675632993
0.9146830291
0.9800841071
1.004822318
1.009900631
1.011073689
1.011375344
1.011842571
1.010670301
1.010506882
1.011059188
1.012629257
1.012481094
1.011783794
0.9117103869
0.9091294342
0.9004697303
0.8740683002
0.8466556931
0.831537342
0.8278931696
0.8288981774
0.8327818524
0.8372968809
0.8396781217
0.8411339028
0.8425604505
0.8438650816
0.8446132853
0.8451827119
0.8455821919
0.8458316181
0.8465235619
0.8517145089
0.875291932
0.9353346633
0.9866491226
1.004850781
1.00866795
1.010749142
0.912665279
)
;

boundaryField
{
    inlet
    {
        type            fixedValue;
        value           nonuniform 0();
    }
    outlet
    {
        type            inletOutlet;
        inletValue      nonuniform 0();
        value           nonuniform 0();
    }
    bottom
    {
        type            slip;
    }
    top
    {
        type            slip;
    }
    obstacle
    {
        type            zeroGradient;
    }
    defaultFaces
    {
        type            empty;
    }
    procBoundary9to3
    {
        type            processor;
        value           nonuniform List<scalar> 
38
(
1.113809546
1.11373988
1.114106674
1.114500168
1.11460454
1.114607733
1.11449586
1.114163508
1.113413829
1.111932784
1.109383723
1.105690552
1.100478837
1.094419221
1.087721741
1
1
1
1
1
1
1
1
1
1.000000008
1.000000294
1.000006404
1.000075581
1.000861666
1.004448803
1.02037159
1.048153298
1.076246448
1.101241527
1.110730202
1.111025558
1.112364688
1.112364688
)
;
    }
    procBoundary9to4
    {
        type            processor;
        value           nonuniform List<scalar> 9(1.071653797 1.063985284 1.056154899 1.048326461 1.039450354 1.029831022 1.019678106 1.008718451 0.9996700801);
    }
    procBoundary9to8
    {
        type            processor;
        value           nonuniform List<scalar> 6(1 1 1 1 1 1);
    }
    procBoundary9to10
    {
        type            processor;
        value           nonuniform List<scalar> 
55
(
0.9899670981
0.9803305293
0.9720686237
0.9622188183
0.9525563324
0.9437891336
0.9335934752
0.923578617
0.91503326
0.9039585676
0.8941107077
0.8829017762
0.8725421558
0.8636766161
0.8531119981
0.8507342365
0.8474087126
0.8434191044
0.8426400633
0.8429592182
0.8427957358
0.8460844915
0.8791768469
0.9537211596
1.001010686
1.003790412
1.005536325
1.008957482
1.010775636
1.012213209
1.012927368
1.012927368
1.013374175
1.013315668
1.013001334
1.012691707
1.012438799
1.012265444
1.012315844
1.012434388
1.011444822
1.011444822
1.011334995
1.011281782
1.011284693
1.011253822
1.011221022
1.011266949
1.011287337
1.011308838
1.011308838
1.011586438
1.011872573
1.012061702
1.011935083
)
;
    }
    procBoundary9to14