/*--------------------------------*- C++ -*----------------------------------*\
  =========                 |
  \\      /  F ield         | OpenFOAM: The Open Source CFD Toolbox
   \\    /   O peration     | Website:  https://openfoam.org
    \\  /    A nd           | Version:  7
     \\/     M anipulation  |
\*---------------------------------------------------------------------------*/
FoamFile
{
    version     2.0;
    format      ascii;
    class       volScalarField;
    location    "4.5";
    object      p;
}
// * * * * * * * * * * * * * * * * * * * * * * * * * * * * * * * * * * * * * //

dimensions      [1 -1 -2 0 0 0 0];

internalField   nonuniform List<scalar> 
2222
(
2.01471015
1.909125472
1.816541225
1.735687756
1.64876393
1.576148682
1.521561778
1.466337312
1.399668155
1.34541321
1.303810013
1.262315233
1.214260054
1.174741309
1.141430953
1
1
1.000000096
1.000023991
1.002298749
1.070514566
1.510507631
2.50630022
2.801685455
2.801880325
2.806903719
2.818220637
2.827114913
2.800370896
2.747955435
2.68511461
2.604675583
2.510491782
2.409462345
2.282835691
2.153162901
2.051919111
1.955386973
1.850926245
1.760342396
1.682249286
1.599487631
1.528389031
1.475042674
1.422017066
1.358352159
1.305371
1.265461924
1.226236283
1.180560132
1.141757828
1.109081211
1
1.000000005
1.00000303
1.000454029
1.025271498
1.333210761
2.067724847
2.762075681
2.833814088
2.824272622
2.813524334
2.810360956
2.814797896
2.792547643
2.733856359
2.657026218
2.558882292
2.451987594
2.346389487
2.22065527
2.092054208
1.991044756
1.897000851
1.794941834
1.706705527
1.630396244
1.551009975
1.48074985
1.42889622
1.378298564
1.318191446
1.266714912
1.227929761
1.189893557
1.145353411
1.107614662
1.076298224
1
1.000000148
1.000064768
1.005246137
1.16332848
1.831095671
2.533777479
2.822833668
2.838955215
2.827054647
2.82091636
2.807742881
2.80152797
2.779731179
2.712535996
2.619825965
2.506164559
2.388550106
2.279841031
2.156907564
2.029667057
1.92902261
1.837358143
1.737511261
1.651121895
1.577122939
1.501411483
1.433124779
1.383090648
1.334865837
1.277976174
1.227958421
1.190494959
1.154181503
1.111834402
1.075321694
1.045233152
1
1.00000417
1.000926629
1.0393288
1.562246499
2.322107927
2.736186912
2.831001789
2.832948536
2.828881993
2.82348758
2.808700466
2.794790107
2.760239958
2.67925265
2.575608731
2.449866694
2.323242143
2.212912387
2.091787178
1.966008796
1.866586529
1.777489354
1.680796191
1.597220232
1.52532271
1.45322651
1.386185518
1.337786818
1.291812342
1.238583939
1.190394811
1.154043083
1.119027135
1.07800658
1.042794533
1.01411422
1.000000001
1.000091478
1.008893151
1.204998208
2.100279054
2.61924031
2.80363293
2.812501755
2.81654858
2.819460289
2.812419112
2.801476513
2.783396633
2.732003322
2.636429322
2.52319642
2.388203375
2.255023318
2.143111185
2.024462973
1.900977985
1.803219812
1.717154697
1.624002823
1.542684748
1.473401822
1.404868617
1.340081691
1.293604004
1.249858351
1.199389863
1.152392472
1.117291924
1.084029353
1.045787987
1.012406259
0.9850545516
1.000000168
1.001426702
1.060880834
1.648072801
2.508193182
2.738597012
2.812158813
2.80968687
2.811431891
2.815806264
2.80904922
2.793389753
2.763502113
2.693512501
2.584991423
2.464981027
2.322636878
2.183627232
2.071378432
1.955755021
1.835298781
1.740036216
1.656912186
1.567244847
1.48905252
1.422364822
1.357430631
1.294382963
1.249500022
1.207685975
1.160484267
1.115730513
1.082074681
1.050393873
1.013806558
0.9813427733
0.9546607663
1.000011003
1.014992431
1.274701759
2.26305873
2.729279857
2.767636254
2.783488913
2.789914428
2.804648008
2.813329988
2.80775759
2.78735422
2.73515408
2.64697644
2.527266264
2.401686768
2.254412689
2.1122901
1.999508165
1.886946924
1.769912688
1.6771708
1.59727818
1.511727812
1.435780791
1.371591842
1.31003845
1.249772034
1.206875635
1.167175558
1.122438978
1.078791186
1.046360986
1.01621334
0.9821399289
0.9516191552
0.9264644082
1.000407762
1.104898462
1.757229462
2.651895869
2.805863843
2.814720019
2.816857061
2.813708373
2.809292755
2.80570063
2.794199676
2.759472497
2.69712183
2.594844448
2.463753008
2.332854916
2.182450593
2.038393178
1.927140031
1.818921655
1.705902185
1.615887568
1.538558704
1.45599975
1.383145631
1.321894124
1.263907855
1.205672181
1.164131498
1.12609095
1.084157101
1.043108482
1.012338374
0.9836612699
0.9510763321
0.9209811464
0.8961171954
1.009211161
1.421328702
2.368360736
2.797244484
2.829284093
2.830011312
2.824514485
2.814837091
2.797897128
2.792707586
2.778358152
2.732517902
2.655985176
2.53741604
2.395140075
2.259435781
2.107258966
1.964224659
1.855115876
1.751136075
1.641939357
1.554576778
1.479966735
1.401253809
1.330688241
1.271901322
1.217015561
1.161830319
1.122541659
1.086909072
1.047744937
1.008004036
0.9784139161
0.9509223509
0.9201149167
0.8915009905
0.8678523299
1.117005787
1.965061369
2.752765639
2.804288169
2.804217119
2.812863259
2.813939813
2.810511789
2.798628008
2.78872237
2.761465445
2.699230585
2.607536416
2.473421332
2.320808677
2.181557759
2.029887842
1.888344123
1.782044949
1.682684033
1.577640956
1.493152093
1.421133173
1.345582119
1.278510295
1.223114923
1.171951645
1.119359451
1.081345914
1.047237458
1.010126888
0.9725996633
0.9443079774
0.917944346
0.8886767365
0.8608476165
0.8383723148
1.564755861
2.463407243
2.841367758
2.844974383
2.829773225
2.819032333
2.808623098
2.802428311
2.794331492
2.783382402
2.742076388
2.659492588
2.549501942
2.399109917
2.238970851
2.099660128
1.950827475
1.812811527
1.709376568
1.614039644
1.512905765
1.431642045
1.362979246
1.292123235
1.227833113
1.175202697
1.126878387
1.077085957
1.041247999
1.009523482
0.9755898796
0.9403033861
0.913128218
0.8876888561
0.8595222218
0.8326903478
0.8110569407
2.188282593
2.780262308
2.874054279
2.868169098
2.850603511
2.820216453
2.796707123
2.788137411
2.783586934
2.769270407
2.710585862
2.605989093
2.479136712
2.317432994
2.154394414
2.017017614
1.872685663
1.737963506
1.637127344
1.545965044
1.449581538
1.372047341
1.306705652
1.23921871
1.178219782
1.128825405
1.083982896
1.036989511
1.002320522
0.9717834438
0.9391036264
0.9048187866
0.8784340123
0.8542593659
0.8280400745
0.802744154
0.7826609579
2.653273525
2.860220011
2.869031694
2.863677883
2.841528639
2.809017211
2.788040973
2.780635167
2.775594772
2.747782033
2.666542097
2.542954383
2.404232335
2.234030242
2.068565958
1.933777899
1.793789959
1.663569755
1.566198758
1.479089017
1.387214361
1.313322065
1.251133375
1.187997237
1.12984064
1.083127699
1.040716234
0.9962457108
0.9639367349
0.935751182
0.9057638958
0.8737714863
0.8483333905
0.8248505022
0.7997924009
0.7754878685
0.7563728173
2.802034953
2.852348087
2.846314946
2.83907149
2.822908295
2.804692391
2.793362576
2.786327119
2.77314491
2.722130972
2.616329316
2.474776555
2.323536668
2.145806665
1.97990182
1.846879289
1.71220805
1.588039004
1.495373644
1.412823968
1.325618865
1.25494983
1.195878322
1.136047738
1.081148565
1.037692865
0.9982923568
0.9567116352
0.9253845617
0.8980507807
0.8695969851
0.8390775839
0.8149630652
0.7931358036
0.7700752427
0.7474190434
0.7299642006
2.832273655
2.820938052
2.820224506
2.818301795
2.813541191
2.810487684
2.80935045
2.807662479
2.771435356
2.69022444
2.557690314
2.395803533
2.234245127
2.051570445
1.885748492
1.757227133
1.629915568
1.512575843
1.425364683
1.347541161
1.264649521
1.197258641
1.141490987
1.085907448
1.034102252
0.993787693
0.9571163885
0.9184691163
0.8889405088
0.8631377539
0.8363597216
0.8075530143
0.7845013252
0.7638250511
0.7421932283
0.7206468318
0.70420401
2.821551972
2.816544246
2.817049967
2.814974976
2.813574839
2.816515629
2.82175792
2.80382676
2.746123894
2.64289486
2.484971
2.30578227
2.136515688
1.952653956
1.792157909
1.669024274
1.549291143
1.439021228
1.357214608
1.284313047
1.206067338
1.14120245
1.088287058
1.03583821
0.9872665023
0.9495123805
0.9150037214
0.8787932943
0.8503021921
0.826201414
0.8017815142
0.7750561045
0.7537755722
0.7349492422
0.7149986971
0.6947501848
0.679622784
2.811836188
2.81934671
2.819809031
2.816930953
2.816403453
2.818913016
2.813472743
2.781528245
2.702054198
2.576057516
2.39655466
2.206284818
2.036251827
1.856858389
1.702690288
1.585805305
1.473808641
1.369189578
1.291187891
1.222217361
1.147614415
1.086268875
1.037240745
0.9900094548
0.9456729158
0.9109755003
0.8785836429
0.8440807368
0.8163420398
0.7928715444
0.7695837499
0.7444262426
0.7244500345
0.7068380983
0.6883654494
0.6697834817
0.6557801719
2.814779545
2.823640058
2.821688174
2.820086906
2.819719847
2.815316125
2.798100072
2.744049245
2.638686621
2.491655096
2.296662288
2.10283479
1.93665474
1.764193761
1.619124333
1.507815626
1.400893796
1.300581601
1.22591397
1.160919616
1.091378384
1.03386319
0.9876544819
0.9426494962
0.9001549791
0.8672424724
0.8369767572
0.8051150406
0.7792915
0.757894626
0.7369349763
0.7139556884
0.6958008478
0.6798769173
0.6631213946
0.6458696424
0.6328448442
2.824991818
2.823623221
2.821681036
2.822091806
2.819902598
2.809151046
2.77637821
2.696945232
2.564279657
2.397477876
2.191331759
1.99737427
1.836584441
1.673040585
1.535844249
1.43006212
1.328991192
1.232902367
1.160969738
1.098833606
1.032832227
0.9801238499
0.9386696134
0.898746876
0.8604287235
0.8298687168
0.8011022588
0.7709391732
0.7460548831
0.7255383445
0.7058672701
0.6843302131
0.6674041201
0.6529075932
0.6376498404
0.6218151552
0.6100119573
2.828685993
2.821361912
2.821989041
2.822145308
2.817856254
2.799190951
2.748882044
2.640939727
2.480426498
2.2959934
2.081496815
1.889640372
1.734455415
1.578836837
1.450430291
1.35084755
1.254982104
1.163129749
1.095202417
1.036911583
0.9757243308
0.9265363711
0.8878325834
0.8512312324
0.8156742627
0.7881304281
0.7624298865
0.7350588213
0.7122817946
0.6937411013
0.6757702045
0.6556389457
0.6401526025
0.6270964593
0.6132215611
0.5985394003
0.5879866799
2.823382773
2.820610081
2.822688648
2.821777505
2.813248575
2.783162643
2.710817643
2.571725551
2.385160897
2.186228202
1.967259001
1.779320425
1.629687209
1.482045271
1.360914626
1.268623418
1.180807584
1.095713083
1.033139051
0.9791123508
0.9226859733
0.8774520476
0.8417268969
0.807864922
0.7750797661
0.7499672845
0.7264192196
0.7014081006
0.6801641349
0.6626084551
0.6456343439
0.6266935127
0.612588314
0.6009900875
0.588610536
0.5755315456
0.5661644674
2.818356653
2.821706099
2.8235224
2.820201306
2.805123535
2.758579249
2.658789183
2.486463373
2.277172903
2.068566601
1.848764978
1.666771648
1.524089874
1.384939309
1.272040398
1.18737745
1.106963915
1.028142902
0.9696347325
0.9183772771
0.8657587394
0.8238076881
0.7923666036
0.763074259
0.7339110356
0.7122001518
0.6918755626
0.6697349049
0.6504038675
0.6343656153
0.6187366735
0.6013949441
0.5883156325
0.5774345877
0.5660437502
0.5540822937
0.5455654832
2.818297745
2.823673298
2.823477135
2.816823884
2.792066092
2.722273271
2.589498049
2.384081497
2.15702172
1.943232165
1.727218656
1.554192588
1.419796258
1.289403824
1.183668229
1.10612681
1.034724979
0.9657679255
0.9152389648
0.8701158323
0.8217242044
0.781851814
0.7514645355
0.723903002
0.696851417
0.6771327749
0.658920618
0.6391044292
0.6211017145
0.6054566447
0.5901724058
0.5732456414
0.561353968
0.5521462972
0.5425243607
0.5322470247
0.5247886802
2.82246136
2.824805785
2.82216882
2.811264886
2.771229339
2.670282696
2.500750298
2.265108306
2.026066439
1.812391406
1.604102621
1.441408309
1.316940142
1.196467045
1.100718168
1.030995664
0.9654700968
0.9010353471
0.8543138007
0.8138629902
0.7708955708
0.7356328136
0.7090961092
0.684715084
0.6605787951
0.6434509817
0.6273705039
0.6097735628
0.5939521758
0.5806013916
0.5672759444
0.5524435785
0.5413701438
0.5325343685
0.5233575524
0.5132525166
0.506292144
2.824852062
2.824049993
2.819577249
2.801828767
2.738310152
2.598554935
2.391143811
2.13038699
1.886310515
1.678071614
1.480893846
1.331211477
1.217639292
1.106936305
1.020637268
0.9586179276
0.9008733384
0.8443660094
0.8026983862
0.7658900597
0.7272898506
0.6955800928
0.6708919803
0.6482466176
0.6261626519
0.6106079547
0.5962681509
0.5803769872
0.5650083432
0.5516895021
0.5388800445
0.5240392788
0.5140134999
0.5068074132
0.4992774766
0.4916234711
0.4863973845
2.824999872
2.822045017
2.815407888
2.78487846
2.687853651
2.502829023
2.259771798
1.982867067
1.740642547
1.54203968
1.358157839
1.222101536
1.119676094
1.019245302
0.9411123483
0.8836473613
0.8320589036
0.7818164156
0.7463775254
0.7157965926
0.6828927451
0.655756916
0.6342815265
0.6138019935
0.5936749932
0.5798819039
0.5669225485
0.5523162219
0.5389832213
0.5279207461
0.5166107666
0.5038894624
0.4952687686
0.4890549515
0.4827270934
0.4751335745
0.4692126523
2.822114278
2.820446276
2.808642989
2.755993359
2.613861883
2.380905472
2.109048679
1.823715719
1.589913592
1.40588671
1.237617185
1.117693795
1.028350873
0.9426173843
0.8745525933
0.8220509737
0.7737811275
0.7273323831
0.6958091636
0.6689450068
0.640030438
0.6163567573
0.5976250287
0.5792495722
0.5610263146
0.5479118862
0.5355017596
0.5224745753
0.5102062606
0.5006802495
0.4917072396
0.4806178865
0.4727352376
0.4668364984
0.4600167821
0.4525672662
0.4487659556
2.819797807
2.818747653
2.796410841
2.70896355
2.511076972
2.230900888
1.93956597
1.657242275
1.439298026
1.272640308
1.122605992
1.016022723
0.9324642851
0.8526548491
0.7916178515
0.7488267548
0.7097450094
0.6704358622
0.6454523331
0.623842067
0.5995373887
0.5794160908
0.5630662204
0.5466719649
0.5298851831
0.5188388762
0.508795274
0.4971266822
0.4854781951
0.4761028129
0.4669188189
0.4559920801
0.4499741184
0.4457819174
0.4414653345
0.4365649835
0.432848835
2.820386664
2.815306207
2.772250499
2.635097638
2.373826769
2.055966242
1.757921385
1.485469859
1.288383352
1.139191482
1.008952759
0.9227592444
0.854799249
0.7851959386
0.7298236726
0.6907271137
0.6553408076
0.620232049
0.598693642
0.5802608441
0.5596566347
0.5422680336
0.5281818882
0.5136996601
0.4987105628
0.4882598483
0.4784314942
0.467804949
0.4583212227
0.451564928
0.4451957817
0.4377073524
0.4328368178
0.428727672
0.4237413133
0.4175788185
0.4140774125
2.821560638
2.808527141
2.729727997
2.526619153
2.201193543
1.858528523
1.564063646
1.313284178
1.144480863
1.013281039
0.8972350445
0.8210504361
0.7642173666
0.7060470651
0.6609101146
0.6307538588
0.602370387
0.5728967159
0.555993369
0.5409159452
0.523082486
0.5079069074
0.496273276
0.4844471104
0.4722018361
0.4640928518
0.4561473743
0.446773842
0.437601579
0.4309902632
0.4248998535
0.4169775883
0.4125214721
0.4092466768
0.4054732444
0.4014897262
0.3987844683
2.821909018
2.792205969
2.656396051
2.373080207
1.989761694
1.64639896
1.368752241
1.143941392
1.004699003
0.9014269133
0.806127695
0.7404212965
0.689284902
0.6384309185
0.6011847989
0.5762578159
0.5521490005
0.5270336622
0.5136598857
0.5017196403
0.4871930027
0.4744078046
0.4639164404
0.4529057343
0.4409367232
0.4336973325
0.4277601858
0.4204125872
0.4131870237
0.4082839207
0.4033644689
0.3970848265
0.3940083608
0.391579299
0.3885019769
0.3838164296
0.3812502641
2.821162151
2.758984634
2.537857148
2.168712447
1.750047649
1.420101878
1.17396032
0.9801447542
0.8554824466
0.7702615755
0.69760321
0.6516241941
0.6147286235
0.5746067918
0.5462526001
0.5274604837
0.5075303266
0.4857139506
0.4758228667
0.4666997024
0.4548676334
0.4442209856
0.4368326746
0.4282644506
0.4183281834
0.4134763147
0.408623408
0.4017068085
0.3948402499
0.390259887
0.3859513875
0.3801627645
0.3767685224
0.3748666419
0.3724505991
0.3692087823
0.3681448751
2.814327552
2.692063567
2.35694832
1.908915186
1.483990811
1.187057119
0.9948327494
0.8515586961
0.7522513528
0.6758454772
0.6126684617
0.5770432184
0.5487480962
0.5160305339
0.493510177
0.4799203565
0.4637246204
0.4447987404
0.4384710583
0.4321768684
0.4221817458
0.4126434216
0.405489998
0.3975485637
0.3883582264
0.3852918367
0.3827584866
0.3785369202
0.3742073769
0.3713854946
0.3678247331
0.3627656035
0.359761506
0.3575611882
0.3549201292
0.352053108
0.3509034262
2.798088052
2.567319443
2.092263595
1.601685538
1.216632733
0.9652922557
0.7948321891
0.6790950316
0.620015452
0.5746319687
0.5288316039
0.5090283027
0.4913003782
0.4660222252
0.4491854875
0.4397974312
0.4255810326
0.408688326
0.4060726915
0.4024298391
0.3953498322
0.3888957961
0.3843854132
0.3772739192
0.3677318001
0.3649815003
0.3627415648
0.3587119861
0.3551964815
0.3528862327
0.3496007784
0.3447800282
0.3420163185
0.3407450319
0.3388240795
0.3374149557
0.3376525818
2.755018089
2.343492754
1.744760764
1.239924653
0.943793194
0.7875730671
0.6620261186
0.5688425415
0.5302010839
0.4923677474
0.4531154731
0.4455761934
0.4357313714
0.415528228
0.4044045918
0.3985548747
0.3873907787
0.3722016253
0.3691577357
0.3663412911
0.3602004168
0.3550259834
0.3528183185
0.3482446365
0.3416652182
0.3405546672
0.3396980187
0.3363181721
0.3348275687
0.3346087261
0.3328870475
0.3285373138
0.3251205391
0.3234543338
0.3209941141
0.3192558079
0.3194151501
2.639411104
1.960137465
1.327139212
0.8899891927
0.6501014781
0.5885032078
0.5173737628
0.4675757664
0.4518063229
0.4187614356
0.3913020102
0.3938016191
0.3898362659
0.3715956279
0.365815494
0.3638702088
0.3561217901
0.3448177704
0.3442323432
0.3428191355
0.337331441
0.3346997803
0.3331675578
0.3298286719
0.3245824581
0.3211860641
0.3190534836
0.3160140678
0.3155479022
0.3157936584
0.3146653559
0.3118584051
0.3103147883
0.3087264134
0.3066670468
0.3054184701
0.305748013
2.354412469
1.332779182
0.8838947115
0.6442064078
0.4932897754
0.4439448117
0.3894247818
0.3761873909
0.3709980532
0.3505914072
0.334981651
0.3358848672
0.3331337825
0.3210139972
0.3205793647
0.320870618
0.3156141228
0.3057410962
0.30323372
0.3024594897
0.2987156515
0.2990452956
0.3014185272
0.3002912557
0.2973527635
0.2979962849
0.2979425921
0.2970591345
0.2971275235
0.2983948717
0.298161247
0.2968804761
0.2965381659
0.2952149232
0.2932026432
0.2917318147
0.2913121835
1.555315836
0.6934985457
0.3698102588
0.3562379416
0.3553926039
0.3362606829
0.3051247315
0.301392479
0.3022600037
0.2935763736
0.2894073257
0.2905967257
0.2890580361
0.2842116312
0.285497337
0.2853529978
0.2878325926
0.291173844
0.2933071408
0.2930249579
0.2906119956
0.2889074757
0.2888529695
0.2883198592
0.2874353538
0.2869995099
0.2862086369
0.2850395357
0.2854421039
0.2870235474
0.2871509596
0.2865706076
0.2862541045
0.2855494289
0.2838736681
0.2837153925
0.2839368874
0.3163855633
0.3483347038
0.2902268326
0.2937975608
0.3121880508
0.3030887725
0.278183972
0.2770059246
0.2810338469
0.2767047064
0.2758943145
0.2776289597
0.2758443062
0.2722672856
0.2733879165
0.2759438639
0.2735417911
0.2732963361
0.2761546343
0.27626475
0.2754158197
0.2743242562
0.2757829748
0.2761703106
0.276074382
0.2757841011
0.274488671
0.2748271187
0.2756563238
0.2770063078
0.2773252485
0.2764730869
0.2762443942
0.2756822077
0.274619369
0.2749926735
0.1968789274
0.2626958336
0.2603240685
0.2693426478
0.2979375347
0.2868572177
0.2665077668
0.2698887075
0.2747042212
0.2728544355
0.2722318059
0.2738584344
0.2719329418
0.2690756946
0.270656211
0.2746198923
0.273107754
0.2727747429
0.2740604492
0.2737787516
0.2723822189
0.2718614638
0.2728995843
0.2726231712
0.2727170466
0.2725047938
0.2724152473
0.2734010277
0.2731670554
0.2741559651
0.2746379484
0.2736754962
0.2732125952
0.2718494208
0.2716844176
0.2716456174
0.14536439
0.189649516
0.2165701993
0.2555843213
0.2820350109
0.2698839107
0.2546455982
0.2560857129
0.2629031741
0.2628958524
0.2619052695
0.2638622846
0.2641832612
0.2632699058
0.2666312938
0.2718618699
0.2696629661
0.2698116315
0.2715413764
0.2708097878
0.2677352287
0.2680014685
0.2695053953
0.2698437546
0.2702251936
0.2700974144
0.2705128122
0.2715208447
0.2718990822
0.2728025854
0.2721121918
0.2705657711
0.2695014072
0.26797007
0.2677564021
0.267618866
0.1329371104
0.1615085161
0.18611046
0.2258792325
0.2625255368
0.254422124
0.2475422578
0.2503396522
0.2532769652
0.2535028953
0.2565823936
0.2581577507
0.2573210949
0.2590520825
0.2623976873
0.2677436642
0.2642606215
0.2644673074
0.2667252689
0.2651360674
0.2629144293
0.2649883055
0.2672009579
0.2676192653
0.2678206773
0.2678614896
0.2684884333
0.2694114095
0.2701388719
0.2707696836
0.2687495213
0.2674723004
0.2668327026
0.2670683103
0.2657831641
0.2667954227
0.1301376543
0.1587982475
0.1849989485
0.1992903879
0.2412291221
0.2345240907
0.2356709314
0.2450020978
0.2486330429
0.2498204192
0.2519754137
0.2523232731
0.2524350244
0.2502641313
0.2535139336
0.2598873071
0.2564089794
0.2566301229
0.2585055104
0.259243036
0.2609918017
0.2630728541
0.2648006343
0.2649488968
0.2647859197
0.2651651497
0.2649558464
0.2644360273
0.2663916499
0.2669258316
0.2656108756
0.264880021
0.2648524714
0.2655831766
0.2639494055
0.2653101761
0.1298143255
0.158917755
0.1783070647
0.1943616379
0.2318992416
0.2203766814
0.220419409
0.2340781951
0.2412962956
0.2439766046
0.2423581159
0.242432785
0.2424957174
0.2426490974
0.2497494261
0.2539373664
0.2531021864
0.2544514531
0.2558718044
0.2572574742
0.2583745806
0.2592703287
0.2600316376
0.2597144446
0.2592192204
0.2595845695
0.2591930641
0.260653936
0.2620023034
0.2626154078
0.2636593567
0.263308538
0.2635681368
0.263699837
0.2627689071
0.2640337195
0.1344597555
0.164171751
0.1628153189
0.1937359317
0.2246962354
0.2146457059
0.2138914038
0.2206239514
0.2284034916
0.2321802549
0.2305454814
0.2337241766
0.2362174232
0.2407086997
0.2460193323
0.2509816284
0.2504533974
0.2523732437
0.2537226268
0.2540681981
0.2523934659
0.2525267143
0.2535459489
0.2544727592
0.2544462383
0.2559919545
0.2575438298
0.2589778418
0.2595672768
0.260950549
0.2619928489
0.2615513583
0.2613567886
0.2599106382
0.2611063687
0.261338473
0.1510629167
0.1659774491
0.1462127926
0.1899169724
0.2137185451
0.2079328054
0.2110869932
0.2165725616
0.2210965043
0.2230127925
0.2271412954
0.2296806624
0.233262739
0.2374093503
0.2432306965
0.2466430224
0.2455102261
0.2481714349
0.2499461938
0.2479254669
0.2472102902
0.2498018252
0.2509666311
0.2527288956
0.2533902112
0.2547116411
0.2559225796
0.2570832484
0.2582963721
0.259554123
0.259039043
0.2579005952
0.2569759727
0.2554618919
0.2575287066
0.2569486759
0.1600324923
0.1647524262
0.1417375034
0.1745040694
0.1945116595
0.19574323
0.208813406
0.2160300012
0.218671934
0.2202119125
0.2249729689
0.2270764795
0.2291806363
0.2321349843
0.2370623887
0.2385335768
0.2361217712
0.2402324064
0.2426605829
0.2427469298
0.2456932967
0.2480795949
0.2495888076
0.2515940917
0.251980509
0.2530107278
0.2537016919
0.2540753007
0.2555155488
0.2564683787
0.2538196529
0.2530946529
0.2530293984
0.2542819959
0.2536018883
0.2556690234
0.158590527
0.1610415934
0.1412917061
0.1567082949
0.178500593
0.1839712888
0.2029181044
0.2140455904
0.2158635601
0.2177835523
0.2207400187
0.2221243921
0.22373824
0.2230813953
0.2281069799
0.2314337077
0.2311076267
0.2352127426
0.2377812257
0.2409126678
0.244024862
0.246080056
0.2474082498
0.2489227581
0.2490466605
0.2499599349
0.2493490646
0.2484840613
0.2505742919
0.2513923016
0.2501816872
0.250672737
0.2517224206
0.2532175057
0.2517261896
0.1527334812
0.1496773681
0.1426407179
0.1537593801
0.174796897
0.1803854859
0.1925354251
0.2068505135
0.2095719773
0.2131557811
0.2107470518
0.2128391459
0.2146458134
0.2177697899
0.226360759
0.2294179586
0.2300621229
0.234128741
0.236762728
0.2390721085
0.2411082097
0.2416512183
0.2420776501
0.2428782001
0.2433917952
0.2440635675
0.2441118081
0.2461903746
0.247743877
0.2485659506
0.2490467307
0.249941421
0.2509991935
0.2515170732
0.2511829288
0.146488324
0.1442773648
0.147221697
0.1531446838
0.174290679
0.1795640508
0.1874145452
0.1943467277
0.1976652984
0.2033338941
0.2012458035
0.205666394
0.2104794307
0.217116639
0.2239589975
0.2281714048
0.2289675252
0.2327066596
0.2350831073
0.2350710418
0.234448251
0.2341346181
0.2366601837
0.2382033721
0.239296216
0.2407058578
0.2429254865
0.245127315
0.2464683302
0.2475156388
0.2482976116
0.2490430411
0.2493961422
0.2476878818
0.2500659635
0.1454311803
0.1438699457
0.1476127185
0.1534894841
0.1713442039
0.1800136928
0.186638476
0.1891071305
0.1912558393
0.1939050426
0.1992546296
0.203430216
0.2094590764
0.2154820744
0.2217692264
0.2252506045
0.2249601174
0.2283091548
0.2304164414
0.2278561182
0.2287230378
0.2316326963
0.2348838516
0.2367855895
0.2383095907
0.2399349629
0.2418777768
0.2437936617
0.2454069358
0.2464780941
0.2466847425
0.2466396799
0.245629463
0.2438136507
0.2468703648
0.1455637501
0.1435595488
0.1449789803
0.1516656415
0.1651040972
0.1772966078
0.1868829057
0.1882014998
0.1899712681
0.1913552795
0.1985548281
0.2020076156
0.2067926563
0.2117053438
0.2166752266
0.2184272975
0.2180482561
0.2207544639
0.2224441636
0.223664125
0.2271091459
0.2304769177
0.2338988266
0.2359206524
0.237450136
0.2388197967
0.2398724288
0.2412292727
0.2430635479
0.2439249592
0.2428863009
0.2417488316
0.2408295978
0.24287087
0.2429938609
0.1485565628
0.1436615889
0.1371758998
0.148243678
0.1568789411
0.1709517557
0.1842089313
0.1884540379
0.1890714188
0.1900604403
0.1964092491
0.1997992073
0.2022850248
0.2061068999
0.2077557468
0.2117912322
0.2152222642
0.2173569156
0.2190667876
0.2224124491
0.2260725341
0.2294925163
0.2324866839
0.2337777096
0.2350175092
0.2361204342
0.2355720002
0.2359956587
0.2380043669
0.2387730791
0.2376951648
0.23814467
0.2393620236
0.2420355438
0.2410951908
0.1527122969
0.1454649718
0.1329096811
0.1443581642
0.1548938009
0.1635833221
0.1772761807
0.1855140873
0.1864947082
0.1880185275
0.1905907577
0.1948731002
0.1962525411
0.2002114388
0.2048688827
0.2099070733
0.2137564034
0.2158777455
0.2174684465
0.2205684116
0.2241309424
0.2267701632
0.2285526964
0.2285559315
0.2296350329
0.2306372011
0.2304523098
0.2318185336
0.2338320464
0.235189159
0.235576638
0.2370858802
0.2387683795
0.2401964399
0.2406057491
0.1527748668
0.148449706
0.1329256165
0.143751453
0.1548096911
0.1616808624
0.1683620959
0.1769170658
0.1801481081
0.1834337634
0.1821003453
0.187623277
0.1918636598
0.1990139095
0.2043031997
0.2082317072
0.2124269559
0.2143910217
0.2151304124
0.2167803794
0.2194729487
0.2208930289
0.2224005608
0.2235820967
0.2251022281
0.2269378812
0.228884273
0.2307940237
0.2326916031
0.2340934407
0.2349592755
0.2366538648
0.2377566915
0.2366506683
0.2395685496
0.150270702
0.1492849551
0.1334524847
0.1438316044
0.1552340639
0.1614344638
0.1656279649
0.167856011
0.1702296349
0.1756054299
0.1795339469
0.1847146287
0.191184096
0.1983562097
0.2027364326
0.2058317103
0.2095273961
0.2112063077
0.2109477586
0.2109966166
0.2141411116
0.2175098872
0.2205701746
0.2221858884
0.2238140222
0.2260378122
0.2283243518
0.2304549688
0.2322162624
0.2336411165
0.2344418954
0.2354315081
0.2349613802
0.2331544946
0.1430393725
0.1496460661
0.13589535
0.1447284682
0.1576506126
0.1628547894
0.1654966786
0.1655927413
0.1663804323
0.1721370796
0.1791628736
0.1838096802
0.1904704713
0.196156651
0.1989218592
0.2009056091
0.2028311237
0.205206155
0.2057749646
0.20854831
0.2126217152
0.2168725264
0.2198635664
0.2216473403
0.2234096337
0.2252740068
0.2273896061
0.2295052036
0.2314954707
0.232568126
0.2324437758
0.232169583
0.2302511208
0.2322197307
0.1396609168
0.148713064
0.1418504583
0.1454407064
0.1584308388
0.1623692422
0.1656483389
0.165124549
0.165423685
0.1713416
0.1785593516
0.1829647178
0.1871061015
0.1916875555
0.1912552596
0.1925421897
0.1968852866
0.2004106593
0.2038836943
0.2079096948
0.2122687676
0.2163661035
0.2189485439
0.2207752907
0.2222019228
0.2234159136
0.2250608795
0.2269256164
0.2294660031
0.2295572905
0.2277364311
0.2272817284
0.2283532174
0.2317291371
0.1407283938
0.143236623
0.1444823398
0.1458891925
0.1577702281
0.1593891664
0.1636783346
0.1646716362
0.1656793282
0.1704197517
0.1764570321
0.1807802844
0.1822424303
0.184917371
0.1864560855
0.1900509592
0.1953801032
0.1991250408
0.2034321872
0.2077583177
0.211518524
0.2146881111
0.2165523895
0.2181366768
0.2189561889
0.2192418383
0.2203479608
0.2219048801
0.2248393505
0.2241946122
0.2242877058
0.2255496771
0.2278755122
0.2304043653
0.1492211541
0.1387414154
0.1443701416
0.1455617068
0.1543267187
0.1530165839
0.1592771759
0.1621162765
0.1654962686
0.1681018768
0.171509529
0.1755863217
0.1773987974
0.182150596
0.1857560368
0.1890490574
0.1939883599
0.1984604189
0.2026685535
0.2060526117
0.2090773558
0.2105831591
0.2110671271
0.2123975556
0.2131958226
0.2143248437
0.2164873446
0.2186834373
0.2206423911
0.2216732961
0.2235118734
0.224914926
0.2271013608
0.2272922154
0.159935116
0.1381975553
0.1406128609
0.145478056
0.1515205301
0.1500873087
0.152803205
0.1569985901
0.163134433
0.1634422855
0.1659212791
0.1702360169
0.1756178447
0.1816643249
0.1852766816
0.1873810038
0.1920647852
0.1969889359
0.1999242436
0.2020452068
0.2041435565
0.2048668184
0.2065156647
0.2083359023
0.2101821469
0.2126959354
0.2154932023
)
;

boundaryField
{
    inlet
    {
        type            fixedValue;
        value           nonuniform 0();
    }
    outlet
    {
        type            zeroGradient;
    }
    bottom
    {
        type            slip;
    }
    top
    {
        type            slip;
    }
    obstacle
    {
        type            zeroGradient;
    }
    defaultFaces
    {
        type            empty;
    }
    procBoundary9to3
    {
        type            processor;
        value           nonuniform List<scalar> 
38
(
2.071772048
1.965646981
1.871942467
1.789161253
1.697897316
1.6240954
1.568022213
1.510153625
1.440558999
1.385514017
1.342755143
1.299554448
1.249433873
1.208572813
1.174118108
1
1
1.000000002
1.000000925
1.000134974
1.008563819
1.152117171
1.957438339
2.700879581
2.76086775
2.799062057
2.827788387
2.833530987
2.802096327
2.759234477
2.712732762
2.646197507
2.563811086
2.468883523
2.342244142
2.213661186
2.113274265
2.113274265
)
;
    }
    procBoundary9to4
    {
        type            processor;
        value           nonuniform List<scalar> 9(1.108170903 1.076913946 1.046646913 1.017122757 0.9877791541 0.9599182852 0.9301422496 0.9032726498 0.8735937008);
    }
    procBoundary9to8
    {
        type            processor;
        value           nonuniform List<scalar> 8(1 1 1 1 1 1 1 0.9999999407);
    }
    procBoundary9to10
    {
        type            processor;
        value           nonuniform List<scalar> 
55
(
0.8464375558
0.8185779059
0.7920377326
0.7652875151
0.7399829432