/*--------------------------------*- C++ -*----------------------------------*\
  =========                 |
  \\      /  F ield         | OpenFOAM: The Open Source CFD Toolbox
   \\    /   O peration     | Website:  https://openfoam.org
    \\  /    A nd           | Version:  7
     \\/     M anipulation  |
\*---------------------------------------------------------------------------*/
FoamFile
{
    version     2.0;
    format      ascii;
    class       volScalarField;
    location    "0.5";
    object      p;
}
// * * * * * * * * * * * * * * * * * * * * * * * * * * * * * * * * * * * * * //

dimensions      [1 -1 -2 0 0 0 0];

internalField   nonuniform List<scalar> 5(1.000000132 1.000001091 1.000792717 1.002333728 1.005751999);

boundaryField
{
    inlet
    {
        type            fixedValue;
        value           nonuniform 0();
    }
    outlet
    {
        type            zeroGradient;
    }
    bottom
    {
        type            slip;
    }
    top
    {
        type            slip;
    }
    obstacle
    {
        type            zeroGradient;
    }
    defaultFaces
    {
        type            empty;
    }
    procBoundary8to1
    {
        type            processor;
        value           uniform 0.9999999694;
    }
    procBoundary8to2
    {
        type            processor;
        value           nonuniform List<scalar> 5(0.9999999931 0.9999999928 1.000034091 1.000034091 1.000034971);
    }
    procBoundary8to9
    {
        type            processor;
        value           uniform 1.057937329;
    }
    procBoundary8to14
    {
        type            processor;
        value           nonuniform List<scalar> 5(1.000159598 1.000159598 1.0279937 1.047662076 1.095764237);
    }
}


// ************************************************************************* //
