/*--------------------------------*- C++ -*----------------------------------*\
  =========                 |
  \\      /  F ield         | OpenFOAM: The Open Source CFD Toolbox
   \\    /   O peration     | Website:  https://openfoam.org
    \\  /    A nd           | Version:  7
     \\/     M anipulation  |
\*---------------------------------------------------------------------------*/
FoamFile
{
    version     2.0;
    format      ascii;
    class       volScalarField;
    location    "4.3";
    object      p;
}
// * * * * * * * * * * * * * * * * * * * * * * * * * * * * * * * * * * * * * //

dimensions      [1 -1 -2 0 0 0 0];

internalField   nonuniform List<scalar> 
558
(
1.427327781
1.446347322
1.445181284
1.445876103
1.439862755
1.419513644
1.383886011
1.336818223
1
1
1.000000004
1.000000241
1.000015897
1.000235
1.00306885
1.018766388
1.078422097
1.200142137
1.345487707
1.396079769
1.431556118
1.450835226
1.447154167
1.436820068
1.415340462
1.38049816
1
1
1
1.000000005
1.000000593
1.000013495
1.000321983
1.002946884
1.019355773
1.080321155
1.199344642
1.327137948
1.420917284
1.444564953
1.442375249
1.441945688
1.434896034
1.413638877
1
1
1
1
1.000000013
1.000000502
1.000021884
1.000292692
1.003262812
1.019730911
1.07973482
1.202540085
1.344553191
1.39350624
1.426402183
1.446030902
1.443673919
1.433379493
1
1
1
1
1
1.000000013
1.000000968
1.000019176
1.000363362
1.003288405
1.020069091
1.082803886
1.202136394
1.323262583
1.416151946
1.439535469
1.438218156
1.43848811
1
1
1
1
1
1
1.000000028
1.000000839
1.000027935
1.00035302
1.003472023
1.020999627
1.080660011
1.205530246
1.345438986
1.390455368
1.421449097
1.4407235
1
1
1
1
1
1
1.000000001
1.000000025
1.00000141
1.00002567
1.000399054
1.003617367
1.020750014
1.086276528
1.205603577
1.320556486
1.413356893
1.434824432
1
1
1
1
1
1
1
1.000000001
1.000000046
1.00000121
1.000032821
1.000407959
1.003671157
1.022751144
1.082103516
1.207326565
1.349382406
1.388956464
1
1
1
1
1
1
1
1
1.000000001
1.000000039
1.000001793
1.000031956
1.000432944
1.003981463
1.0213862
1.089524872
1.209019964
1.317299068
1
1
1
1
1
1
1
1
1
1.000000001
1.000000065
1.000001598
1.000036453
1.000458477
1.003772429
1.024538853
1.08319143
1.206842844
1
1
1
1
1
1
1
1
1
1
1.000000001
1.000000053
1.000002044
1.000036772
1.000450027
1.004328479
1.021674294
1.091446226
1
1
1
1
1
1
1
1
1
1
1
1.000000001
1.000000078
1.000001899
1.00003776
1.000499896
1.003767828
1.025822122
1
1
1
1
1
1
1
1
1
1
1
1
1.000000002
1.000000064
1.000002133
1.000039717
1.000450148
1.004636029
1
1
1
1
1
1
1
1
1
1
1
1
1
1.000000001
1.000000083
1.000002103
1.000037596
1.000539593
1
1
1
1
1
1
1
1
1
1
1
1
1
1
1.000000002
1.000000074
1.000002149
1.000041973
1
1
1
1
1
1
1
1
1
1
1
1
1
1
1
1.000000002
1.000000085
1.000002234
1
1
1
1
1
1
1
1
1
1
1
1
1
1
1
1
1.000000002
1.000000082
1
1
1
1
1
1
1
1
1
1
1
1
1
1
1
1
1
1.000000002
1
1
1
1
1
1
1
1
1
1
1
1
1
1
1
1
1
1
1
1
1
1
1
1
1
1
1
1
1
1
1
1
1
1
1
1
1
1
1
1
1
1
1
1
1
1
1
1
1
1
1
1
1
1
1
1
1
1
1
1
1
1
1
1
1
1
1
1
1
1
1
1
1
1
1
1
1
1
1
1
1
1
1
1
1
1
1
1
1
1
1
1
1
1
1
1
1
1
1
1
1
1
1
1
1
1
1
1
1
1
1
1
1
1
1
1
1
1
1
1
1
1
1
1
1
1
1
1
1
1
1
1
1
1
1
1
1
1
1
1
1
1
1
1
1
1
1
1
1
1
1
1
1
1
1
1
1
1
1
1
1
1
1
1
1
1
1
1
1
1
1
1
1
1
1
1
1
1
1
1
1
1
1
1
1
1
1
1
1
1
1
1
1
1
1
1
1
1
1
1
1
1
1
1
1
1
1
1
1
1
1
1
1
1
1
1
1
1
1
1
1
1
1
1
1
1
1
1
1
1
1
1
1
1
1
1
1
1
1
1
1
1
1
1
)
;

boundaryField
{
    inlet
    {
        type            fixedValue;
        value           nonuniform 0();
    }
    outlet
    {
        type            zeroGradient;
    }
    bottom
    {
        type            slip;
    }
    top
    {
        type            slip;
    }
    obstacle
    {
        type            zeroGradient;
    }
    defaultFaces
    {
        type            empty;
    }
    procBoundary33to26
    {
        type            processor;
        value           nonuniform List<scalar> 
13
(
1
1
1
1
1
1
1
1
1
1
1
1
1
)
;
    }
    procBoundary33to27
    {
        type            processor;
        value           nonuniform List<scalar> 
19
(
1.433228488
1.452319441
1.449636894
1.44172437
1.422348364
1.388067369
1.339850348
1.285877219
1
1
1.000000243
1.000007541
1.000264467
1.002546118
1.018949002
1.078226211
1.197881117
1.331826937
1.331826937
)
;
    }
    procBoundary33to32
    {
        type            processor;
        value           nonuniform List<scalar> 
17
(
1
1
1
1
1
1
1
1
1
1
1
1
1
1
1
1
1
)
;
    }
    procBoundary33to34
    {
        type            processor;
        value           nonuniform List<scalar> 
32
(
1.285005641
1.334391169
1.377328444
1.410722749
1.430740493
1.439005942
1.43256583
1.415826092
1.40994755
1.350876089
1.211262627
1.08429718
1.021941465
1.003769715
1.000442555
1.000036381
1.00000213
1.000000088
1.000000003
1
1
1
1
1
1
1
1
1
1
1
1
1
)
;
    }
}


// ************************************************************************* //
