/*--------------------------------*- C++ -*----------------------------------*\
  =========                 |
  \\      /  F ield         | OpenFOAM: The Open Source CFD Toolbox
   \\    /   O peration     | Website:  https://openfoam.org
    \\  /    A nd           | Version:  7
     \\/     M anipulation  |
\*---------------------------------------------------------------------------*/
FoamFile
{
    version     2.0;
    format      ascii;
    class       volVectorField;
    location    "2";
    object      U;
}
// * * * * * * * * * * * * * * * * * * * * * * * * * * * * * * * * * * * * * //

dimensions      [0 1 -1 0 0 0 0];

internalField   nonuniform List<vector> 
2225
(
(2.465317886 0.548825527 0)
(2.447640777 0.5397416777 0)
(2.431208402 0.5287722823 0)
(2.419516383 0.5142410519 0)
(2.406340469 0.5059570668 0)
(2.39410101 0.494241924 0)
(2.37938456 0.487977942 0)
(2.366004655 0.4797937889 0)
(2.353070341 0.4742143211 0)
(2.342261666 0.4702329706 0)
(2.335045962 0.4631131196 0)
(2.331472593 0.4570482635 0)
(2.330163178 0.4534849746 0)
(2.33348764 0.4465604868 0)
(2.335713383 0.4396242224 0)
(2.345085109 0.4269614173 0)
(2.48923499 0.6688533857 0)
(2.468809353 0.6793490992 0)
(2.471901819 0.6656799411 0)
(2.49042312 0.6445882841 0)
(2.506747777 0.6275271474 0)
(2.513572133 0.611887169 0)
(2.516070997 0.6016966939 0)
(2.51205597 0.6028389795 0)
(2.49526268 0.6191840513 0)
(2.477551937 0.6283134932 0)
(2.481113258 0.6147678236 0)
(2.495946026 0.5915450383 0)
(2.503534219 0.5734404784 0)
(2.506972609 0.562313597 0)
(2.505576604 0.5604926684 0)
(2.499184816 0.5601364378 0)
(2.48457054 0.560987064 0)
(2.470467028 0.5523153309 0)
(2.460815292 0.5403372664 0)
(2.456579586 0.5251357624 0)
(2.449398183 0.5173343659 0)
(2.440460815 0.5075637134 0)
(2.427016987 0.50167726 0)
(2.412687008 0.4928057963 0)
(2.396181766 0.4881047707 0)
(2.381123203 0.4789278284 0)
(2.367802627 0.470715283 0)
(2.357730676 0.45848733 0)
(2.349869529 0.4513056229 0)
(2.347034008 0.4431669905 0)
(2.345430848 0.4383989027 0)
(2.347947981 0.4292303108 0)
(2.478704901 0.6880868677 0)
(2.471677186 0.6809778376 0)
(2.489523674 0.658628009 0)
(2.507535556 0.6435754136 0)
(2.522382317 0.6279703787 0)
(2.526510785 0.6153518465 0)
(2.526919019 0.6072173212 0)
(2.514796936 0.6168593352 0)
(2.491880776 0.6353127508 0)
(2.48022214 0.6342977758 0)
(2.494465909 0.6144032125 0)
(2.509889916 0.5913911523 0)
(2.516821277 0.5754513115 0)
(2.519406508 0.5666604894 0)
(2.517030727 0.5667368522 0)
(2.508253261 0.5710390154 0)
(2.493128223 0.5739599025 0)
(2.485055559 0.563075406 0)
(2.484300737 0.5472026056 0)
(2.486677626 0.5325694655 0)
(2.484947985 0.525838118 0)
(2.479743089 0.5185816852 0)
(2.469047913 0.5136524879 0)
(2.455767735 0.5061994279 0)
(2.439618635 0.5002303542 0)
(2.423857804 0.4925850949 0)
(2.409423767 0.4827752427 0)
(2.396244655 0.4724974183 0)
(2.383859244 0.4657921396 0)
(2.375323938 0.4564809822 0)
(2.367953049 0.45209672 0)
(2.361523483 0.4395988353 0)
(2.468223018 0.6965479534 0)
(2.48077248 0.6772772746 0)
(2.503397169 0.660788403 0)
(2.523409233 0.6452223687 0)
(2.533084974 0.6288807656 0)
(2.536979732 0.6170472317 0)
(2.529881926 0.6180682974 0)
(2.50902702 0.6362876114 0)
(2.488642255 0.6486466028 0)
(2.489792386 0.6357879509 0)
(2.509775024 0.6137590595 0)
(2.52322975 0.5913966162 0)
(2.528449461 0.5780061871 0)
(2.529139864 0.5711843715 0)
(2.523748156 0.5747731174 0)
(2.510479709 0.5832981628 0)
(2.49640958 0.585195684 0)
(2.49730919 0.5694945209 0)
(2.504086716 0.5513009356 0)
(2.51013519 0.5382936944 0)
(2.511678088 0.533280117 0)
(2.509207108 0.5282672907 0)
(2.500616748 0.5251775721 0)
(2.488967553 0.5190585016 0)
(2.475082673 0.5135851871 0)
(2.462867387 0.5049852763 0)
(2.451828135 0.4946643718 0)
(2.440733704 0.4833909342 0)
(2.428591447 0.4737143897 0)
(2.416998088 0.4647589376 0)
(2.405749467 0.4575642181 0)
(2.390576081 0.4428878375 0)
(2.468574519 0.6959201644 0)
(2.491043037 0.6799095684 0)
(2.519595778 0.6617899413 0)
(2.533824376 0.6451952346 0)
(2.543287757 0.6308252193 0)
(2.541007287 0.6249401236 0)
(2.524739701 0.6347930882 0)
(2.501774783 0.6537837909 0)
(2.491898072 0.654014071 0)
(2.505545984 0.6338325295 0)
(2.525258004 0.6116466969 0)
(2.535284215 0.5924066057 0)
(2.538274676 0.5815313771 0)
(2.536327365 0.5774521516 0)
(2.525713673 0.5859200349 0)
(2.508234772 0.5967262613 0)
(2.500145478 0.5927113808 0)
(2.510679303 0.5720002925 0)
(2.521495163 0.553205658 0)
(2.528326131 0.5419354438 0)
(2.531041967 0.5386969301 0)
(2.52926676 0.5364612179 0)
(2.521207763 0.5353033602 0)
(2.51088236 0.5305691471 0)
(2.501084232 0.5238880941 0)
(2.494748298 0.5142474213 0)
(2.489519914 0.5036138468 0)
(2.482749344 0.493135177 0)
(2.47320783 0.4840747544 0)
(2.461792642 0.4759384335 0)
(2.449228618 0.4698999232 0)
(2.428937347 0.4568654884 0)
(2.473190201 0.6940658281 0)
(2.51167055 0.6703322633 0)
(2.533299689 0.6522230959 0)
(2.546352491 0.6441738828 0)
(2.548888285 0.6383479966 0)
(2.536621865 0.6381546465 0)
(2.514458462 0.6543396719 0)
(2.4981503 0.665241362 0)
(2.502356902 0.6522796893 0)
(2.522875761 0.6302765992 0)
(2.53927322 0.6095306371 0)
(2.545039073 0.5941503051 0)
(2.546432978 0.5842833739 0)
(2.540625193 0.585662415 0)
(2.523890427 0.5994683851 0)
(2.506480407 0.607404248 0)
(2.508594794 0.5943521678 0)
(2.525693902 0.5716518551 0)
(2.536306974 0.5546052039 0)
(2.542402772 0.5460532787 0)
(2.544272454 0.5447741513 0)
(2.540922539 0.5454473664 0)
(2.531863952 0.5460380219 0)
(2.523304846 0.5415492673 0)
(2.519277294 0.5325169357 0)
(2.519606802 0.5214606469 0)
(2.519955884 0.5111073921 0)
(2.517264954 0.5019935549 0)
(2.510834241 0.4935597124 0)
(2.501077589 0.4872051075 0)
(2.48979159 0.4815481203 0)
(2.470555025 0.4676234867 0)
(2.493610745 0.6824296625 0)
(2.530537187 0.6546455535 0)
(2.548327905 0.6474434433 0)
(2.55527156 0.6463933603 0)
(2.546821725 0.6462573163 0)
(2.524784425 0.6568750109 0)
(2.502754587 0.6700462121 0)
(2.499694224 0.6649044862 0)
(2.518020574 0.6455564222 0)
(2.537419933 0.6274646442 0)
(2.549387932 0.6097987959 0)
(2.553115873 0.5957817855 0)
(2.551887978 0.5886019876 0)
(2.539248153 0.5981018225 0)
(2.51922775 0.6137900288 0)
(2.509072592 0.6127510625 0)
(2.522470462 0.5928633359 0)
(2.540441417 0.5708138954 0)
(2.549254703 0.55615502 0)
(2.553729529 0.5498294821 0)
(2.553346554 0.550735784 0)
(2.54646446 0.5550818138 0)
(2.536096803 0.5565437297 0)
(2.531336621 0.549907165 0)
(2.534235056 0.5370779851 0)
(2.539847153 0.5249619418 0)
(2.543710223 0.5155413039 0)
(2.543153019 0.5086224557 0)
(2.538641376 0.5015831624 0)
(2.530507717 0.49694449 0)
(2.521722933 0.4915957526 0)
(2.507603667 0.4784225244 0)
(2.526088546 0.659992813 0)
(2.543019998 0.644986136 0)
(2.556268836 0.6448113307 0)
(2.55634318 0.6495156166 0)
(2.536969143 0.6619497698 0)
(2.508283631 0.6757793214 0)
(2.496147173 0.6730973082 0)
(2.510000731 0.6584118365 0)
(2.531604651 0.6439665905 0)
(2.548851599 0.6273251033 0)
(2.55683853 0.6104871884 0)
(2.560119389 0.5963752135 0)
(2.552893634 0.5970163867 0)
(2.534430987 0.6131655776 0)
(2.517674223 0.6232387772 0)
(2.518364878 0.6113520701 0)
(2.538920959 0.5899480177 0)
(2.553903381 0.5700312341 0)
(2.560411479 0.5588466481 0)
(2.562555018 0.5546247534 0)
(2.558407589 0.5592764422 0)
(2.546818214 0.5668751393 0)
(2.537734236 0.5662859814 0)
(2.539469694 0.5552986189 0)
(2.548125233 0.5400268906 0)
(2.556343426 0.5280189345 0)
(2.561031069 0.5204266062 0)
(2.560638999 0.5155325634 0)
(2.556491355 0.5098549938 0)
(2.548992415 0.5068992363 0)
(2.543438459 0.500898039 0)
(2.536865036 0.4872871015 0)
(2.539241739 0.6454836944 0)
(2.548855586 0.6404391567 0)
(2.557887644 0.6458065278 0)
(2.546624167 0.661953395 0)
(2.514707937 0.6804586121 0)
(2.492735998 0.6810740544 0)
(2.498928669 0.6684010721 0)
(2.521374274 0.6562592211 0)
(2.544007216 0.6413965707 0)
(2.555669121 0.6249221388 0)
(2.563945966 0.6085961107 0)
(2.562535035 0.6017079766 0)
(2.548164248 0.6106699923 0)
(2.528335529 0.6272050932 0)
(2.521110961 0.6264242898 0)
(2.533986656 0.6073739849 0)
(2.554259165 0.5879499063 0)
(2.565312968 0.5714530186 0)
(2.56955991 0.5625860039 0)
(2.568855915 0.561001515 0)
(2.559523665 0.5702970143 0)
(2.544875333 0.5786091257 0)
(2.541443288 0.5729219024 0)
(2.550370166 0.5574646826 0)
(2.561831574 0.5410788683 0)
(2.569960588 0.5298283518 0)
(2.573714653 0.5241137711 0)
(2.571602076 0.521717193 0)
(2.566261496 0.5181627751 0)
(2.559281467 0.5155933538 0)
(2.557873584 0.5077624068 0)
(2.558943541 0.4935537087 0)
(2.5510441 0.6388546777 0)
(2.553928377 0.6380185666 0)
(2.552871155 0.6530842433 0)
(2.521658279 0.67871395 0)
(2.488279599 0.6876918529 0)
(2.487504759 0.6791904998 0)
(2.506256178 0.6659382978 0)
(2.533736452 0.6484093459 0)
(2.55049886 0.6309322513 0)
(2.562579314 0.6188099468 0)
(2.565770255 0.6114587496 0)
(2.556686824 0.611867327 0)
(2.537518294 0.6273423946 0)
(2.524331186 0.6358501334 0)
(2.530604455 0.6238806245 0)
(2.550714209 0.6054544776 0)
(2.567160664 0.588148492 0)
(2.573739624 0.5753472963 0)
(2.575975702 0.5673081109 0)
(2.570951775 0.5710833779 0)
(2.556073483 0.5844810039 0)
(2.543708427 0.5886891503 0)
(2.549893157 0.5761589427 0)
(2.56353868 0.5581111071 0)
(2.574527484 0.542186009 0)
(2.580916599 0.5330176506 0)
(2.581847636 0.5299589062 0)
(2.576790887 0.5296250768 0)
(2.569962484 0.5274586087 0)
(2.565006386 0.5231613274 0)
(2.568563076 0.5129027432 0)
(2.575590677 0.4983498582 0)
(2.562758598 0.6211625085 0)
(2.554267918 0.6353384978 0)
(2.534531763 0.6647925097 0)
(2.492366532 0.6930631287 0)
(2.479302452 0.6913019289 0)
(2.487715847 0.677040413 0)
(2.52002557 0.6579215646 0)
(2.54297248 0.6376660614 0)
(2.559518122 0.6260833355 0)
(2.565885477 0.6207435456 0)
(2.561840956 0.6183305406 0)
(2.544662761 0.6267680729 0)
(2.527300039 0.6408067296 0)
(2.526734371 0.637315731 0)
(2.544728064 0.6207583265 0)
(2.563681024 0.6054968597 0)
(2.57526314 0.5901333799 0)
(2.579392835 0.5790077901 0)
(2.578177566 0.575182595 0)
(2.567002718 0.5860757373 0)
(2.550648823 0.5984247055 0)
(2.54762403 0.5942197911 0)
(2.562679472 0.5766669474 0)
(2.576925193 0.5575051829 0)
(2.586083452 0.5431372321 0)
(2.589634674 0.5363458733 0)
(2.586710228 0.5357649988 0)
(2.578232318 0.5378857561 0)
(2.570902269 0.5358986958 0)
(2.570649022 0.5275434422 0)
(2.578643882 0.5153451639 0)
(2.588616215 0.5017138802 0)
(2.650624674 0.5175367177 0)
(2.536206641 0.6397731736 0)
(2.496535439 0.6958632435 0)
(2.478773271 0.709385731 0)
(2.471256255 0.6932726792 0)
(2.49599615 0.6686537968 0)
(2.534612273 0.6435359043 0)
(2.553754061 0.6328123651 0)
(2.565786687 0.6282261694 0)
(2.56444018 0.6266152509 0)
(2.548835426 0.6296869482 0)
(2.530458215 0.6430984864 0)
(2.523719029 0.6460315429 0)
(2.535814223 0.6346015733 0)
(2.556146391 0.62024262 0)
(2.572322625 0.6049938481 0)
(2.578892564 0.5928030494 0)
(2.58134317 0.5846725045 0)
(2.574936186 0.5880370605 0)
(2.559934999 0.6024702176 0)
(2.5487083 0.6078019407 0)
(2.557805629 0.5955667342 0)
(2.576794816 0.5752224956 0)
(2.589191518 0.5568156948 0)
(2.595504719 0.5450066943 0)
(2.595051462 0.5406260968 0)
(2.587110086 0.5442132793 0)
(2.576015073 0.5478175827 0)
(2.57214818 0.5422208758 0)
(2.578589541 0.5289436437 0)
(2.589095237 0.516244999 0)
(2.598856688 0.5049652619 0)
(2.816840431 0.280828526 0)
(2.570325874 0.5690121581 0)
(2.487794426 0.720865293 0)
(2.463988631 0.7191934231 0)
(2.472231705 0.6908772326 0)
(2.521514288 0.6556357137 0)
(2.54625225 0.6356438914 0)
(2.563498859 0.6315408095 0)
(2.566789268 0.6326016045 0)
(2.553836406 0.6367025118 0)
(2.534666048 0.6470611113 0)
(2.521106254 0.6528248662 0)
(2.526900692 0.6449268414 0)
(2.546248771 0.6327510593 0)
(2.564306083 0.6205269913 0)
(2.575345343 0.607333751 0)
(2.581412153 0.5968440044 0)
(2.580593467 0.5921885895 0)
(2.569307942 0.6020645555 0)
(2.554463827 0.6149561968 0)
(2.553194454 0.6111387809 0)
(2.571665671 0.593723071 0)
(2.589471414 0.5726719713 0)
(2.598603973 0.5565909434 0)
(2.601175315 0.5466389977 0)
(2.595902635 0.5465436433 0)
(2.583736645 0.554041994 0)
(2.573825669 0.5554405574 0)
(2.577087523 0.5444023749 0)
(2.588930257 0.5280490073 0)
(2.599546229 0.5166183441 0)
(2.606971055 0.5084558868 0)
(3.022811017 -0.130540214 0)
(2.720115661 0.3560228529 0)
(2.502600622 0.6953684089 0)
(2.479268999 0.7156319453 0)
(2.503060764 0.6755416099 0)
(2.542312532 0.6396099602 0)
(2.555975629 0.6308000812 0)
(2.566858863 0.6328211574 0)
(2.56096572 0.6425567683 0)
(2.539302134 0.6571021767 0)
(2.518021351 0.6635112514 0)
(2.517800355 0.6557219833 0)
(2.533885667 0.6442815715 0)
(2.552901284 0.6341578379 0)
(2.568881192 0.6226033171 0)
(2.577445371 0.6121291495 0)
(2.581697583 0.6025484594 0)
(2.575158189 0.602996856 0)
(2.561783399 0.6162863818 0)
(2.552763242 0.6206898542 0)
(2.56319413 0.6084618727 0)
(2.5843472 0.589742219 0)
(2.597928918 0.5706862834 0)
(2.603320404 0.5568568836 0)
(2.601266646 0.5505046779 0)
(2.591204416 0.5563171482 0)
(2.578016903 0.5641489741 0)
(2.574757888 0.5595094483 0)
(2.586639019 0.5439175222 0)
(2.60007867 0.5269237732 0)
(2.609206257 0.517954272 0)
(2.613169359 0.512905285 0)
(3.078420934 -0.2798464734 0)
(2.969995524 -0.0226886389 0)
(2.618820111 0.5257403974 0)
(2.520843622 0.7131741368 0)
(2.527691781 0.661065331 0)
(2.551054651 0.6286239771 0)
(2.561844454 0.6258385948 0)
(2.567382932 0.6387386611 0)
(2.54506481 0.6639813344 0)
(2.515683135 0.6743037274 0)
(2.508586168 0.6669033503 0)
(2.520428939 0.6557602719 0)
(2.540530409 0.6445116241 0)
(2.558546421 0.633291887 0)
(2.57244607 0.6233553322 0)
(2.579038739 0.6145598334 0)
(2.576984248 0.6097564671 0)
(2.565916966 0.6174497168 0)
(2.55379329 0.6248169056 0)
(2.55549947 0.6188263079 0)
(2.574848191 0.6039649122 0)
(2.592372675 0.585682714 0)
(2.601395408 0.5693944439 0)
(2.603277979 0.5583819926 0)
(2.596868004 0.5578290064 0)
(2.584573847 0.5671168734 0)
(2.575248943 0.5702641499 0)
(2.581317109 0.559030637 0)
(2.598428716 0.5425810854 0)
(2.61019961 0.5267021176 0)
(2.616914401 0.5211919776 0)
(2.616849819 0.5189073258 0)
(3.083674849 -0.2958776902 0)
(3.070599444 -0.252017787 0)
(2.878679531 0.1466213042 0)
(2.621631499 0.6145012405 0)
(2.576715137 0.6261425807 0)
(2.565915004 0.620020687 0)
(2.566482288 0.6249746425 0)
(2.557169617 0.6536183961 0)
(2.519226786 0.6792534578 0)
(2.497683779 0.6782241084 0)
(2.504672725 0.6683086732 0)
(2.52604842 0.6545101932 0)
(2.547891193 0.6393824964 0)
(2.565051172 0.6296687174 0)
(2.575264683 0.6214698552 0)
(2.577079647 0.6153213992 0)
(2.568181484 0.6184823193 0)
(2.555652784 0.6272280246 0)
(2.550678716 0.6262552364 0)
(2.563280693 0.6147074657 0)
(2.582841265 0.5991321727 0)
(2.595143179 0.5824720507 0)
(2.601039812 0.5691107394 0)
(2.599267625 0.5627418251 0)
(2.589801062 0.5683740938 0)
(2.578864415 0.5761984241 0)
(2.577314854 0.5714400563 0)
(2.592329745 0.5575111482 0)
(2.608775329 0.5418931561 0)
(2.6177391 0.5290956667 0)
(2.621238347 0.5277968506 0)
(2.61749563 0.5272753549 0)
(3.083103797 -0.2943488745 0)
(3.082457371 -0.2932876928 0)
(3.056280145 -0.2060260446 0)
(2.839198636 0.2631788835 0)
(2.671920595 0.5408294562 0)
(2.568120809 0.6190011982 0)
(2.561326199 0.6334217887 0)
(2.531848917 0.6719471939 0)
(2.498516673 0.6915310802 0)
(2.492485779 0.6822532471 0)
(2.506744146 0.6654146651 0)
(2.53868297 0.6453791971 0)
(2.556605223 0.6333599171 0)
(2.569847042 0.6262254424 0)
(2.574416534 0.6207471219 0)
(2.568670232 0.6192995603 0)
(2.555135544 0.6276266184 0)
(2.546420892 0.6302965358 0)
(2.552593522 0.6224550789 0)
(2.570927424 0.6104895617 0)
(2.586224019 0.5946939779 0)
(2.594925398 0.5807427313 0)
(2.598535609 0.5708934326 0)
(2.593719765 0.570023228 0)
(2.582764193 0.5791822301 0)
(2.576640414 0.5811282984 0)
(2.584805021 0.569888014 0)
(2.60310685 0.557282314 0)
(2.615913377 0.5430566978 0)
(2.622614262 0.5330106531 0)
(2.622742612 0.5357588961 0)
(2.616920093 0.5359953958 0)
(3.083663055 -0.293074088 0)
(3.082955144 -0.2933853912 0)
(3.081669959 -0.2886434717 0)
(3.045215817 -0.1806278952 0)
(2.834690732 0.2749090375 0)
(2.655408323 0.5218370185 0)
(2.541933384 0.6365215753 0)
(2.500643471 0.7016857708 0)
(2.487603304 0.7009720327 0)
(2.488638169 0.6792614247 0)
(2.522455829 0.6491147011 0)
(2.543794667 0.6321808098 0)
(2.563560746 0.626764111 0)
(2.572328829 0.6243197739 0)
(2.568781779 0.6240577084 0)
(2.554798719 0.6290294645 0)
(2.541722036 0.633632685 0)
(2.542200513 0.6279305017 0)
(2.557846513 0.6179335765 0)
(2.575757466 0.6055559197 0)
(2.586766948 0.5919744023 0)
(2.593647735 0.581388717 0)
(2.59408995 0.5755889415 0)
(2.585661755 0.5807460572 0)
(2.576312588 0.5877012978 0)
(2.579003877 0.5814723868 0)
(2.59464943 0.5697713129 0)
(2.610744795 0.5568418416 0)
(2.619586957 0.5450961093 0)
(2.623598129 0.5387243444 0)
(2.61887692 0.5468189408 0)
(2.614121197 0.545949151 0)
(3.081631068 -0.2848148452 0)
(3.081750136 -0.287831373 0)
(3.081617361 -0.2897040517 0)
(3.080095301 -0.2847195434 0)
(3.037114096 -0.1670183428 0)
(2.795526319 0.3092434696 0)
(2.567575619 0.5843820919 0)
(2.503305207 0.7068461286 0)
(2.485474582 0.6972682024 0)
(2.509911787 0.6681338584 0)
(2.544057451 0.6327930933 0)
(2.560496868 0.6221223812 0)
(2.571511713 0.6219142557 0)
(2.566932736 0.6252992048 0)
(2.552605597 0.6318711742 0)
(2.537222106 0.6383017664 0)
(2.532624583 0.6353614734 0)
(2.543933581 0.6252129616 0)
(2.562598594 0.6156528324 0)
(2.578139553 0.6017813603 0)
(2.586478646 0.5911638749 0)
(2.590777923 0.5842944561 0)
(2.586477734 0.5837178149 0)
(2.57645463 0.5919900262 0)
(2.574051458 0.5916615613 0)
(2.585780531 0.5809821234 0)
(2.601698033 0.5705947445 0)
(2.613714079 0.5577442406 0)
(2.619430596 0.5494941829 0)
(2.619031994 0.5486840562 0)
(2.610092011 0.5587799713 0)
(2.612574824 0.5531941774 0)
(3.079485003 -0.2808348189 0)
(3.081073354 -0.2826638734 0)
(3.082100586 -0.2892721597 0)
(3.081782783 -0.2889908117 0)
(3.078850589 -0.2789918607 0)
(3.007263362 -0.1005506574 0)
(2.709304646 0.376287311 0)
(2.508117966 0.7036108432 0)
(2.492627857 0.6972181676 0)
(2.530090323 0.650706789 0)
(2.551382136 0.6227203659 0)
(2.5684201 0.6179153024 0)
(2.575304423 0.6266369138 0)
(2.558671666 0.6386288265 0)
(2.535410453 0.6457294747 0)
(2.526485212 0.6439112884 0)
(2.530875408 0.6340859698 0)
(2.548196211 0.6232991502 0)
(2.567337517 0.6112314079 0)
(2.578890283 0.5995518171 0)
(2.584945413 0.5935288712 0)
(2.585965789 0.5896967205 0)
(2.577863531 0.5948773266 0)
(2.570234867 0.5993520327 0)
(2.576101705 0.5921203912 0)
(2.591191902 0.5827560595 0)
(2.605613982 0.5715043918 0)
(2.613519812 0.5608810177 0)
(2.6176874 0.5544114564 0)
(2.61482436 0.5589185075 0)
(2.605577478 0.5669117374 0)
(2.614487876 0.5559384603 0)
(3.078485127 -0.276581122 0)
(3.07943472 -0.2776826593 0)
(3.080819408 -0.2791339102 0)
(3.080683077 -0.2833813536 0)
(3.080555076 -0.2844454843 0)
(3.074131843 -0.2648209006 0)
(2.938815958 0.02656461628 0)
(2.624639014 0.5387534501 0)
(2.5554859 0.6616642569 0)
(2.558291788 0.6294083571 0)
(2.565489238 0.6177915274 0)
(2.575460225 0.6169990132 0)
(2.569904064 0.6362865363 0)
(2.53836159 0.6521611166 0)
(2.519321017 0.6519775835 0)
(2.522602054 0.6456907099 0)
(2.532796584 0.6303656071 0)
(2.554792081 0.6168006401 0)
(2.571241849 0.6067719729 0)
(2.579580812 0.6011227507 0)
(2.581825786 0.5970964591 0)
(2.575475313 0.598808176 0)
(2.566648418 0.605204803 0)
(2.567156937 0.60264733 0)
(2.579612012 0.5934572847 0)
(2.594152964 0.5843749498 0)
(2.60536791 0.5730425348 0)
(2.61148426 0.564727708 0)
(2.612304984 0.5619387611 0)
(2.605833452 0.5699788135 0)
(2.60226432 0.5723222725 0)
(2.617462516 0.5559814592 0)
(3.075225465 -0.2623680104 0)
(3.076100879 -0.2686354715 0)
(3.077533566 -0.2695837783 0)
(3.079442508 -0.2753461032 0)
(3.080417007 -0.282864253 0)
(3.079897501 -0.2817993836 0)
(3.063653958 -0.2319387528 0)
(2.8540271 0.1875430081 0)
(2.660193701 0.5655280342 0)
(2.591002832 0.6143254894 0)
(2.572363642 0.6079894883 0)
(2.569856676 0.6125681198 0)
(2.550276282 0.6449524008 0)
(2.518225525 0.6641592247 0)
(2.513559595 0.6594512245 0)
(2.523389465 0.6433329569 0)
(2.543753518 0.6227365708 0)
(2.562148807 0.6102732042 0)
(2.575823323 0.6050822629 0)
(2.579344364 0.6038611758 0)
(2.574162187 0.6048395363 0)
(2.563678248 0.6105480765 0)
(2.559543542 0.6109752396 0)
(2.567752252 0.6033190389 0)
(2.58171894 0.5946122971 0)
(2.594484613 0.5845908569 0)
(2.603125693 0.5753737522 0)
(2.607903253 0.568950387 0)
(2.606497271 0.570402244 0)
(2.598169101 0.5772119091 0)
(2.601990328 0.5725539902 0)
(2.619454741 0.553610795 0)
(3.074648558 -0.2540164873 0)
(3.075644559 -0.2625380941 0)
(3.075755717 -0.2668009478 0)
(3.077764008 -0.2679557532 0)
(3.079491545 -0.2737416833 0)
(3.079521525 -0.278830278 0)
(3.078683402 -0.2763115951 0)
(3.048481997 -0.1865347188 0)
(2.84920796 0.2570925546 0)
(2.664509579 0.5531359197 0)
(2.576128507 0.5920245734 0)
(2.561783265 0.6086104918 0)
(2.535708116 0.6580229323 0)
(2.515293481 0.6754686208 0)
(2.513055792 0.6669107661 0)
(2.533884819 0.6437374777 0)
(2.555195323 0.6188494432 0)
(2.571107483 0.6083498375 0)
(2.579934342 0.6075559985 0)
(2.577769556 0.6094682388 0)
(2.56470677 0.6154807379 0)
(2.55453114 0.6186708777 0)
(2.557689473 0.6125888028 0)
(2.570401838 0.6039200211 0)
(2.582634657 0.5948535873 0)
(2.593066304 0.5859402058 0)
(2.600597708 0.5776099765 0)
(2.602310931 0.5735314527 0)
(2.598133586 0.5781514357 0)
(2.592282739 0.579912589 0)
(2.603164034 0.5702710107 0)
(2.619611016 0.5513613723 0)
(3.07145275 -0.2394192371 0)
(3.071675523 -0.2452169026 0)
(3.072805219 -0.2543148739 0)
(3.073962484 -0.2561800045 0)
(3.075364267 -0.2590177927 0)
(3.077152121 -0.2674878637 0)
(3.077898979 -0.2723892915 0)
(3.076998579 -0.2678970744 0)
(3.041615793 -0.1658647939 0)
(2.820778952 0.2946005865 0)
(2.633554201 0.5146641288 0)
(2.552705863 0.6186566676 0)
(2.519482879 0.6857820258 0)
(2.509741755 0.6837757115 0)
(2.512100573 0.660313804 0)
(2.544047247 0.6296194134 0)
(2.560137107 0.6148221694 0)
(2.576015156 0.6105715064 0)
(2.578956119 0.6127116637 0)
(2.567178941 0.6200823254 0)
(2.552866388 0.6260283269 0)
(2.549576356 0.6209873675 0)
(2.560282016 0.6120213484 0)
(2.573206867 0.6029964565 0)
(2.583233092 0.5952915294 0)
(2.592910776 0.5871537409 0)
(2.597721733 0.5798886551 0)
(2.595142283 0.5789600595 0)
(2.589101827 0.5829502238 0)
(2.588551221 0.5785892025 0)
(2.60506553 0.5664880869 0)
(2.618138858 0.5503827426 0)
(3.068280107 -0.2320848137 0)
(3.069926998 -0.2347456574 0)
(3.072078653 -0.2446541556 0)
(3.072236343 -0.2511926235 0)
(3.073673165 -0.2549572508 0)
(3.075880936 -0.2585298654 0)
(3.077128767 -0.2671866243 0)
(3.077607059 -0.2703155061 0)
(3.075602728 -0.2633829462 0)
(3.020406176 -0.1252745845 0)
(2.792015772 0.3090075149 0)
(2.551351568 0.6089266155 0)
(2.513572239 0.6884881533 0)
(2.505850136 0.6730039703 0)
(2.535012703 0.6443544266 0)
(2.55270459 0.6204577702 0)
(2.569162899 0.6129631822 0)
(2.577338809 0.6143351741 0)
(2.569782436 0.6218503897 0)
(2.552594943 0.6320287248 0)
(2.543291997 0.6311202054 0)
(2.550591743 0.6210717923 0)
(2.564596057 0.6113258905 0)
(2.575320062 0.6020771529 0)
(2.585076827 0.5947356406 0)
(2.592118631 0.5879895835 0)
(2.591712345 0.5833724618 0)
(2.585659255 0.5849437949 0)
(2.581134072 0.5848800197 0)
(2.589629056 0.5764423005 0)
(2.606109925 0.5630211889 0)
(2.615431822 0.5508580527 0)
(3.06582659 -0.224428706 0)
(3.067702882 -0.2269638743 0)
(3.068850698 -0.2294074463 0)
(3.070265498 -0.2388867651 0)
(3.070861326 -0.2442267758 0)
(3.071842982 -0.2439817453 0)
(3.073681423 -0.2514080998 0)
(3.074019966 -0.2568278635 0)
(3.075327751 -0.26167714 0)
(3.071749604 -0.2515019999 0)
(2.99661246 -0.05887035276 0)
(2.666226964 0.4342472748 0)
(2.555087614 0.6257296577 0)
(2.542762226 0.6514764621 0)
(2.552152687 0.6391847043 0)
(2.563701422 0.6181147196 0)
(2.572513734 0.6090668844 0)
(2.573621144 0.6169144291 0)
(2.557461138 0.6330317549 0)
(2.540975342 0.6402606225 0)
(2.542104808 0.6322803931 0)
(2.555308659 0.6222681981 0)
(2.569106322 0.6094736024 0)
(2.578324697 0.5996288034 0)
(2.586243189 0.5932585612 0)
(2.588560616 0.5893995765 0)
(2.583600019 0.5891785525 0)
(2.578666127 0.590308915 0)
(2.579308054 0.5848822409 0)
(2.593272857 0.5743720817 0)
(2.60580956 0.5612428562 0)
(2.612234502 0.5523600324 0)
(3.062612528 -0.2099141458 0)
(3.063860079 -0.2165465176 0)
(3.065766825 -0.2183386059 0)
(3.066970239 -0.2240012435 0)
(3.068849114 -0.2343031426 0)
(3.069458827 -0.2385043976 0)
(3.07191504 -0.2428930503 0)
(3.073205508 -0.2486017367 0)
(3.073517954 -0.2603164442 0)
(3.075599867 -0.258076482 0)
(3.066082435 -0.2320188381 0)
(2.911724303 0.06427473026 0)
(2.657169078 0.5035987387 0)
(2.573982656 0.6933783625 0)
(2.559566913 0.6439110327 0)
(2.565826932 0.6117644568 0)
(2.568137773 0.6104246026 0)
(2.563378666 0.6266514106 0)
(2.546388073 0.6451167558 0)
(2.53863666 0.6443258684 0)
(2.547269232 0.6334164599 0)
(2.561947221 0.6202272604 0)
(2.572722017 0.6064182383 0)
(2.581725984 0.5979054205 0)
(2.585652105 0.5944169098 0)
(2.582604744 0.5939487847 0)
(2.576027187 0.595519862 0)
(2.574431538 0.5931069382 0)
(2.580761036 0.583499579 0)
(2.596109522 0.5716094186 0)
(2.604533673 0.5611009639 0)
(2.608653562 0.5549386915 0)
(3.060753791 -0.1983716247 0)
(3.062169796 -0.2076795636 0)
(3.063110179 -0.212695626 0)
(3.065085543 -0.2145471544 0)
(3.06691624 -0.221990098 0)
(3.067672132 -0.2304413245 0)
(3.068848251 -0.2325807516 0)
(3.070323894 -0.2349321221 0)
(3.071638973 -0.2435771981 0)
(3.072690659 -0.2496384955 0)
(3.072479939 -0.2495253585 0)
(3.051555258 -0.1912332034 0)
(2.865932376 0.1963298392 0)
(2.698194716 0.5539397499 0)
(2.602464307 0.6135976001 0)
(2.572614761 0.604497508 0)
(2.566868435 0.615131195 0)
(2.556004877 0.6409978002 0)
(2.539933813 0.6520376326 0)
(2.541776246 0.6454739859 0)
(2.55285659 0.6366394343 0)
(2.566366318 0.6189663668 0)
(2.576495013 0.6039352454 0)
(2.582575008 0.5977820207 0)
(2.58069412 0.5978121796 0)
(2.573221566 0.6010399267 0)
(2.570168193 0.5999862772 0)
(2.573940309 0.5924405496 0)
(2.585055307 0.5814440617 0)
(2.597466369 0.5691962409 0)
(2.603159641 0.5625139561 0)
(2.604552087 0.5587144745 0)
(3.057507159 -0.1847241648 0)
(3.058666778 -0.1924418039 0)
(3.060076537 -0.2011646599 0)
(3.061728623 -0.2048175755 0)
(3.062698733 -0.2062226498 0)
(3.064478093 -0.2153067132 0)
(3.065701273 -0.2236171283 0)
(3.067123436 -0.2253991361 0)
(3.069635684 -0.2319779312 0)
(3.070582952 -0.2393637118 0)
(3.071974598 -0.2484397174 0)
(3.071253114 -0.2445005445 0)
(3.038056445 -0.1508361483 0)
(2.852029189 0.2656671121 0)
(2.699172699 0.5357766827 0)
(2.562467839 0.6202815968 0)
(2.554552303 0.6308660983 0)
(2.542804862 0.6486885169 0)
(2.538659302 0.6518583743 0)
(2.544386242 0.6455093703 0)
(2.557948372 0.63029206 0)
(2.56892352 0.6119546623 0)
(2.578105201 0.6009258618 0)
(2.580693668 0.5996179064 0)
(2.574579863 0.6044865966 0)
(2.566863691 0.6071685825 0)
(2.568644254 0.602173273 0)
(2.577790005 0.592443702 0)
(2.588773086 0.5809577739 0)
(2.597420656 0.5691482645 0)
(2.601096443 0.5657432458 0)
(2.59984104 0.5638787021 0)
(3.054807995 -0.1771534219 0)
(3.056188332 -0.1804539759 0)
(3.058297543 -0.1901240285 0)
(3.059154042 -0.1974981391 0)
(3.060732045 -0.2003812608 0)
(3.062766963 -0.2047751423 0)
(3.064378088 -0.2139345697 0)
(3.064819284 -0.2194097345 0)
(3.066812302 -0.2217644976 0)
(3.06836819 -0.2270524459 0)
(3.069652118 -0.2368266945 0)
(3.070630983 -0.2382188573 0)
(3.069034046 -0.2334360077 0)
(3.041361067 -0.1381513972 0)
(2.787512147 0.383911933 0)
(2.656262931 0.5426981805 0)
(2.57034263 0.6018517683 0)
(2.552182794 0.635770295 0)
(2.544050297 0.6501040461 0)
(2.55113704 0.6468841304 0)
(2.562231777 0.6314373219 0)
(2.570640003 0.6111449505 0)
(2.576250139 0.6015061718 0)
(2.57558135 0.604785352 0)
(2.568252611 0.6118620319 0)
(2.564588075 0.6104616384 0)
(2.570937807 0.6026557727 0)
(2.58143165 0.5930582232 0)
(2.589619184 0.5821778251 0)
(2.596678053 0.5710252084 0)
(2.597364647 0.5718190775 0)
(2.594769683 0.5702905143 0)
(3.052006531 -0.170245639 0)
(3.053907515 -0.1726142668 0)
(3.054937787 -0.1762324697 0)
(3.056816138 -0.1857593625 0)
(3.057751676 -0.1918899164 0)
(3.059460788 -0.1930279645 0)
(3.060254543 -0.1977152544 0)
(3.062106872 -0.2076680833 0)
(3.063215548 -0.2116097268 0)
(3.064712887 -0.2138175882 0)
(3.06698557 -0.2228104128 0)
(3.067507467 -0.2288018653 0)
(3.069550783 -0.2365481963 0)
(3.068308174 -0.2295280515 0)
(2.993351381 -0.06117751702 0)
(2.805607025 0.3209096746 0)
(2.620174842 0.5528591829 0)
(2.562259437 0.6632623115 0)
(2.550056757 0.6633357943 0)
(2.54870796 0.6469891868 0)
(2.564097786 0.6207602243 0)
(2.570269191 0.6062671983 0)
(2.575271763 0.6026904236 0)
(2.571759586 0.6115175803 0)
(2.565147934 0.6162041486 0)
(2.565821919 0.6096221019 0)
(2.574431427 0.6020903554 0)
(2.583127219 0.5922370932 0)
(2.589979113 0.5832882444 0)
(2.595616781 0.5749663692 0)
(2.591690991 0.5800721183 0)
(2.590730222 0.5767281128 0)
(3.048913046 -0.1578170357 0)
(3.050442226 -0.1638185317 0)
(3.052298036 -0.1658593632 0)
(3.053490043 -0.171962084 0)
(3.055569094 -0.1817985107 0)
(3.056578293 -0.1868289759 0)
(3.058398938 -0.1889242429 0)
(3.060402016 -0.196539001 0)
(3.061331819 -0.2046569236 0)
(3.062503232 -0.2082355549 0)
(3.064546188 -0.211583768 0)
(3.066060217 -0.2196241145 0)
(3.067297686 -0.2271547041 0)
(3.068328298 -0.2280063417 0)
(3.060916149 -0.2097965662 0)
(3.001942131 -0.03870392599 0)
(2.719555306 0.43255674 0)
(2.575946814 0.6595108678 0)
(2.55592649 0.6478600097 0)
(2.562788287 0.6263000658 0)
(2.569607513 0.6193755045 0)
(2.577489427 0.6076653304 0)
(2.576391103 0.6101669723 0)
(2.568676425 0.6199485146 0)
(2.564013694 0.6192636671 0)
(2.568183825 0.6102766369 0)
(2.576954704 0.6018038893 0)
(2.583368009 0.5932552337 0)
(2.590025166 0.5854040774 0)
(2.592597344 0.581509762 0)
(2.585300405 0.5884636823 0)
(2.58909976 0.5816777271 0)
(3.046803069 -0.1469921944 0)
(3.04845809 -0.156023456 0)
(3.049680867 -0.1607659353 0)
(3.051356015 -0.1625236372 0)