/*--------------------------------*- C++ -*----------------------------------*\
  =========                 |
  \\      /  F ield         | OpenFOAM: The Open Source CFD Toolbox
   \\    /   O peration     | Website:  https://openfoam.org
    \\  /    A nd           | Version:  7
     \\/     M anipulation  |
\*---------------------------------------------------------------------------*/
FoamFile
{
    version     2.0;
    format      ascii;
    class       volVectorField;
    location    "0.6";
    object      U;
}
// * * * * * * * * * * * * * * * * * * * * * * * * * * * * * * * * * * * * * //

dimensions      [0 1 -1 0 0 0 0];

internalField   nonuniform List<vector> 
2222
(
(3 6.264364097e-15 0)
(3 5.208631735e-15 0)
(3 3.446710916e-15 0)
(3 3.943688017e-15 0)
(3 6.11413942e-15 0)
(3 7.728495356e-15 0)
(3 7.440595342e-15 0)
(3 5.955008398e-15 0)
(3 4.674151211e-15 0)
(3 3.130556323e-15 0)
(3 2.232102584e-15 0)
(3 -1.515007364e-15 0)
(3 -6.255254691e-15 0)
(3 -1.378234366e-14 0)
(3 -1.849014393e-14 0)
(3 -1.846193475e-14 0)
(3 -1.739009489e-14 0)
(3 -1.607343889e-14 0)
(3 -1.55459214e-14 0)
(3 -1.433601985e-14 0)
(3 -1.326497576e-14 0)
(3 -1.233572794e-14 0)
(3 -1.07948089e-14 0)
(3 -1.040649401e-14 0)
(3 -1.147622203e-14 0)
(3 -1.332122676e-14 0)
(3 -1.54927714e-14 0)
(3 -1.632343391e-14 0)
(3 -1.533695533e-14 0)
(3 -1.352219158e-14 0)
(3 -1.18262323e-14 0)
(3 -1.207947033e-14 0)
(3 -8.257623351e-15 0)
(3 -5.444809605e-15 0)
(3 -2.828666726e-15 0)
(3 -3.625332254e-17 0)
(3 3.689078321e-15 0)
(3 4.276840122e-15 0)
(3 5.927115809e-15 0)
(3 9.211623388e-15 0)
(3 1.247694166e-14 0)
(3 1.351438448e-14 0)
(3 1.502143742e-14 0)
(3 1.502423689e-14 0)
(3 1.55620507e-14 0)
(3 1.679881776e-14 0)
(3 1.836224575e-14 0)
(3 1.941496675e-14 0)
(3 2.04163356e-14 0)
(3 1.997817358e-14 0)
(3 1.72674021e-14 0)
(3 1.636562268e-14 0)
(3 1.562261865e-14 0)
(3 1.039162134e-14 0)
(3 6.089213157e-15 0)
(3 5.197029807e-15 0)
(3 5.287534688e-15 0)
(3 5.794802668e-15 0)
(3 6.024793034e-15 0)
(3 4.860625654e-15 0)
(3 4.085431897e-15 0)
(3 2.400657926e-15 0)
(3 7.844594855e-16 0)
(3 9.970162539e-16 0)
(3 4.928742285e-16 0)
(3 -2.803636002e-15 0)
(3 -4.901529316e-15 0)
(3 -9.06402035e-15 0)
(3 -1.007502282e-14 0)
(3 -9.971128099e-15 0)
(3 -9.808798347e-15 0)
(3 -7.792358709e-15 0)
(3 -7.229054728e-15 0)
(3 -7.543493416e-15 0)
(3 -6.945550175e-15 0)
(3 -6.970331683e-15 0)
(3 -7.796510349e-15 0)
(3 -7.97460204e-15 0)
(3 -7.366699092e-15 0)
(3 -7.135400683e-15 0)
(3 -7.336317113e-15 0)
(3 -7.473786215e-15 0)
(3 -7.911633885e-15 0)
(3 -7.840426835e-15 0)
(3 -7.399454234e-15 0)
(3 -6.754764845e-15 0)
(3 -5.474094943e-15 0)
(3 -2.948603312e-15 0)
(3 -1.068596985e-15 0)
(3 2.957320976e-15 0)
(3 6.796473957e-15 0)
(3 9.853880349e-15 0)
(3 1.054414806e-14 0)
(3 1.068229475e-14 0)
(3 1.122907326e-14 0)
(3 1.161485129e-14 0)
(3 1.24331233e-14 0)
(3 1.385372478e-14 0)
(3 1.368348263e-14 0)
(3 1.24331277e-14 0)
(3 1.272993423e-14 0)
(3 1.19398119e-14 0)
(3 1.178365275e-14 0)
(3 1.174740072e-14 0)
(3 9.98147896e-15 0)
(3 5.661162606e-15 0)
(3 1.860972198e-15 0)
(3 2.433776405e-15 0)
(3 2.892256903e-15 0)
(3 1.775616015e-15 0)
(3 -1.182092907e-15 0)
(3 -2.403093488e-15 0)
(3 -4.130812275e-15 0)
(3 -3.401276932e-15 0)
(3 -3.995900148e-15 0)
(3 -3.466412833e-15 0)
(3 -3.515837809e-15 0)
(3 -2.942822267e-15 0)
(3 -2.341032108e-15 0)
(3 -3.304482306e-15 0)
(3 -3.811376791e-15 0)
(3 -5.069559147e-15 0)
(3 1.021513304e-14 0)
(3 1.122141539e-14 0)
(3 1.150335265e-14 0)
(3 1.03105347e-14 0)
(3 8.832961298e-15 0)
(3 8.808431725e-15 0)
(3 8.082949578e-15 0)
(3 6.728570693e-15 0)
(3 -9.561543192e-18 0)
(3 -5.557744215e-15 0)
(3 -7.262720332e-15 0)
(3 -6.682980279e-15 0)
(3 -3.827954054e-15 0)
(3 -1.18225079e-15 0)
(3 6.57843063e-16 0)
(3 1.62207837e-15 0)
(3 1.756586252e-15 0)
(3 3.105322483e-15 0)
(3 3.708215508e-15 0)
(3 3.563007604e-15 0)
(3 2.505502817e-15 0)
(3 6.392102844e-16 0)
(3 -5.212402851e-16 0)
(3 -6.974609075e-16 0)
(3 -3.272542928e-16 0)
(3 2.165581942e-16 0)
(3 -1.583012989e-15 0)
(3 -2.204124428e-15 0)
(3 -2.414062683e-15 0)
(3 -1.084168914e-15 0)
(3 8.178185535e-16 0)
(3 4.28582026e-15 0)
(3 5.471655101e-15 0)
(3 5.739660251e-15 0)
(3 7.202740778e-15 0)
(3 8.088133574e-15 0)
(3 9.574671715e-15 0)
(3 1.312087656e-14 0)
(3 1.609512806e-14 0)
(3 1.627359957e-14 0)
(3 1.469253191e-14 0)
(3 1.117110951e-14 0)
(3 9.422489091e-15 0)
(3 9.940731907e-15 0)
(3 9.176100869e-15 0)
(3 7.025302778e-15 0)
(3 5.52819539e-15 0)
(3 5.730492824e-15 0)
(3 6.593115223e-15 0)
(3 7.381319659e-15 0)
(3 5.653293176e-15 0)
(3 2.856097434e-15 0)
(3 4.77486261e-16 0)
(3 -2.327498406e-15 0)
(3 -5.217966224e-15 0)
(3 -5.420624685e-15 0)
(3 -4.848253738e-15 0)
(3 -6.099220168e-15 0)
(3 -5.00168337e-15 0)
(3 -1.096128736e-15 0)
(3 -1.272050556e-15 0)
(3 -1.835931885e-15 0)
(3 -1.747652263e-15 0)
(3 -6.276171333e-16 0)
(3 2.47278366e-16 0)
(3 2.519506539e-16 0)
(3 -1.531965643e-15 0)
(3 7.056852057e-15 0)
(3 8.73631224e-15 0)
(3 7.484479973e-15 0)
(3 7.954227949e-15 0)
(3 8.206717899e-15 0)
(3 6.364068884e-15 0)
(3 2.197918176e-15 0)
(3 9.131552433e-16 0)
(3 7.226779658e-16 0)
(3 -7.586757276e-16 0)
(3 -2.917329735e-15 0)
(3 -3.931482719e-15 0)
(3 -2.694035988e-15 0)
(3 -1.044298434e-15 0)
(3 -3.897676876e-16 0)
(3 3.584169337e-16 0)
(3 9.549745802e-17 0)
(3 -2.097550878e-16 0)
(3 -1.196815332e-15 0)
(3 -9.552588655e-16 0)
(3 2.146427473e-16 0)
(3 6.453873828e-16 0)
(3 -7.947434681e-17 0)
(3 7.583919013e-16 0)
(3 3.657789095e-15 0)
(3 2.880777697e-15 0)
(3 -1.166950027e-15 0)
(3 -3.164625347e-15 0)
(3 -2.041891266e-15 0)
(3 1.00814626e-15 0)
(3 6.068612394e-15 0)
(3 7.837459228e-15 0)
(3 7.503493657e-15 0)
(3 7.957404582e-15 0)
(3 7.962241153e-15 0)
(3 7.565913304e-15 0)
(3 7.144216816e-15 0)
(3 8.044709301e-15 0)
(3 9.114244188e-15 0)
(3 9.427564456e-15 0)
(3 9.77090137e-15 0)
(3 6.122973045e-15 0)
(3 2.589488655e-15 0)
(3 2.503892577e-15 0)
(3 1.782675835e-15 0)
(3 -1.096721327e-15 0)
(3 -2.361343286e-15 0)
(3 -2.581969693e-15 0)
(3 -1.697275035e-15 0)
(3 -8.854891877e-16 0)
(3 -7.699975828e-16 0)
(3 -1.50022929e-15 0)
(3 -3.659988523e-15 0)
(3 -6.666464687e-15 0)
(3 -7.640502139e-15 0)
(3 -6.891398543e-15 0)
(3 -5.916455088e-15 0)
(3 -4.00261319e-15 0)
(3 -1.147392224e-15 0)
(3 4.866907865e-16 0)
(3 7.332735081e-16 0)
(3 -6.898678787e-17 0)
(3 -1.909064701e-15 0)
(3 -1.939149328e-15 0)
(3 1.821316817e-15 0)
(3 2.641297821e-15 0)
(3 2.268259918e-15 0)
(3 3.541242472e-15 0)
(3 5.015823928e-15 0)
(3 6.004769461e-15 0)
(3 5.916952956e-15 0)
(3 4.168359531e-15 0)
(3 7.892028146e-16 0)
(3 5.397611881e-16 0)
(3 5.041237313e-16 0)
(3 1.620498745e-15 0)
(3 3.025599625e-15 0)
(3 3.499065309e-15 0)
(3 2.912054608e-15 0)
(3 2.548930804e-15 0)
(3 3.713826491e-15 0)
(3 5.229973992e-15 0)
(3 4.86054543e-15 0)
(3 3.777338591e-15 0)
(3 1.267815294e-15 0)
(3 -1.202201872e-15 0)
(3 -2.702977204e-15 0)
(3 2.968193838e-16 0)
(3 3.826763741e-15 0)
(3 5.380567629e-15 0)
(3 3.635820106e-15 0)
(3 6.180887842e-17 0)
(3 -2.423362146e-15 0)
(3 6.668473247e-17 0)
(3 4.239012622e-15 0)
(3 7.40300787e-15 0)
(3 7.617092374e-15 0)
(3 3.615891198e-15 0)
(3 1.784674549e-15 0)
(3 3.310297717e-15 0)
(3 3.893323826e-15 0)
(3 5.274993844e-15 0)
(3 4.612127912e-15 0)
(3 2.297022635e-15 0)
(3 -2.593445719e-15 0)
(3 -4.061251151e-15 0)
(3 -3.21662209e-15 0)
(3 -1.47204493e-15 0)
(3 -1.880507948e-15 0)
(3 -2.072529957e-15 0)
(3 -2.062990104e-15 0)
(3 -1.370576057e-15 0)
(3 -1.667865639e-15 0)
(3 -2.322252689e-15 0)
(3 -4.759690862e-15 0)
(3 -5.156798918e-15 0)
(3 -6.777345547e-15 0)
(3 -6.594592751e-15 0)
(3 -7.049712841e-15 0)
(3 -8.046971061e-15 0)
(3 -9.338282287e-15 0)
(3 -9.174779598e-15 0)
(3 -6.625437656e-15 0)
(3 -1.973481339e-15 0)
(3 -4.589159057e-16 0)
(3 2.462693028e-15 0)
(3 2.385928396e-15 0)
(3 2.044638928e-15 0)
(3 2.412514062e-15 0)
(3 3.466789938e-15 0)
(3 3.319506601e-15 0)
(3 1.716806396e-15 0)
(3 1.117603074e-15 0)
(3 3.23870482e-16 0)
(3 3.612164792e-15 0)
(3 2.027989905e-15 0)
(3 1.55716452e-15 0)
(3 -1.757652649e-15 0)
(3 -3.535987905e-15 0)
(3 -4.029834931e-15 0)
(3 -3.871349764e-15 0)
(3 -2.163630301e-15 0)
(3 -1.620796347e-16 0)
(3 2.061927237e-15 0)
(3 3.121341845e-15 0)
(3 5.446937553e-15 0)
(3 7.89397553e-15 0)
(3 9.133543858e-15 0)
(3 8.504430116e-15 0)
(3 8.108434128e-15 0)
(3 7.966246073e-15 0)
(3 8.122799709e-15 0)
(3 1.101343279e-14 0)
(3 1.221613353e-14 0)
(3 1.207655846e-14 0)
(3 1.269248422e-14 0)
(3 1.205210954e-14 0)
(3 9.029325559e-15 0)
(3 6.573069417e-15 0)
(3 7.395181055e-15 0)
(3 9.750840577e-15 0)
(3 1.068461266e-14 0)
(3 1.065207014e-14 0)
(3 6.239021914e-15 0)
(3 3.911267433e-15 0)
(3 2.954555127e-15 0)
(3 1.581435542e-15 0)
(3 9.31851641e-16 0)
(3 6.741244049e-16 0)
(3 -3.039659286e-16 0)
(3 -3.142142455e-15 0)
(3 -4.456580167e-15 0)
(3 -4.114712056e-15 0)
(3 -3.976077968e-15 0)
(3 -4.485674875e-15 0)
(3 -5.432675246e-15 0)
(3 -6.908841918e-15 0)
(3 -7.072539689e-15 0)
(3 -5.377971722e-15 0)
(3 -3.650770717e-15 0)
(3 -3.410104148e-15 0)
(3 -4.743209678e-15 0)
(3 -6.097373904e-15 0)
(3 -7.55046324e-15 0)
(3 -7.041096907e-15 0)
(3 -6.587815785e-15 0)
(3 -5.945101178e-15 0)
(3 -6.378295699e-15 0)
(3 -7.665564864e-15 0)
(3 -6.312371024e-15 0)
(3 -2.285462731e-16 0)
(3 5.269715978e-15 0)
(3 7.650677407e-15 0)
(3 7.620086932e-15 0)
(3 6.343982953e-15 0)
(3 7.604415162e-15 0)
(3 9.18040343e-15 0)
(3 9.492046122e-15 0)
(3 5.928474741e-15 0)
(3 3.196022516e-15 0)
(3 2.199260892e-15 0)
(3 8.418824006e-15 0)
(3 3.057023371e-15 0)
(3 -2.407793319e-15 0)
(3 -6.746868859e-15 0)
(3 -6.910529807e-15 0)
(3 -5.923649231e-15 0)
(3 -5.528750701e-15 0)
(3 -2.376431856e-15 0)
(3 6.188288477e-16 0)
(3 1.16076797e-15 0)
(3 3.185749414e-15 0)
(3 5.370674072e-15 0)
(3 6.408884946e-15 0)
(3 6.077320743e-15 0)
(3 4.241004765e-15 0)
(3 4.545551288e-15 0)
(3 8.928277535e-15 0)
(3 1.506079285e-14 0)
(3 1.713453433e-14 0)
(3 1.817302082e-14 0)
(3 1.87518286e-14 0)
(3 1.854873254e-14 0)
(3 1.818952294e-14 0)
(3 1.720975556e-14 0)
(3 1.700377753e-14 0)
(3 1.700493013e-14 0)
(3 1.803966471e-14 0)
(3 1.719921651e-14 0)
(3 1.45503826e-14 0)
(3 1.051454765e-14 0)
(3 8.827704486e-15 0)
(3 7.986231719e-15 0)
(3 5.995017659e-15 0)
(3 2.201452898e-15 0)
(3 -1.149362546e-16 0)
(3 -4.403037179e-15 0)
(3 -6.140566833e-15 0)
(3 -6.56045092e-15 0)
(3 -7.105247814e-15 0)
(3 -5.21593655e-15 0)
(3 -4.693177008e-15 0)
(3 -5.419700726e-15 0)
(3 -7.383549397e-15 0)
(3 -8.877184283e-15 0)
(3 -8.263254078e-15 0)
(3 -6.133500311e-15 0)
(3 -6.62127419e-15 0)
(3 -8.32477727e-15 0)
(3 -9.41432506e-15 0)
(3 -8.704102329e-15 0)
(3 -7.704972476e-15 0)
(3 -6.833958175e-15 0)
(3 -6.233466845e-15 0)
(3 -5.626484063e-15 0)
(3 -5.67316912e-15 0)
(3 -6.768253823e-15 0)
(3 1.337050176e-15 0)
(3 6.139134331e-15 0)
(3 1.012192634e-14 0)
(3 1.305873262e-14 0)
(3 1.320154838e-14 0)
(3 1.564815969e-14 0)
(3 1.45348202e-14 0)
(3 1.337330739e-14 0)
(3 1.130252159e-14 0)
(3 8.665912284e-15 0)
(3 6.19844147e-15 0)
(3 3.493203296e-15 0)
(3 1.708118688e-15 0)
(3 -2.212653896e-15 0)
(3 -3.857837808e-15 0)
(3 -4.135622641e-15 0)
(3 -4.646740696e-15 0)
(3 -6.149459547e-15 0)
(3 -6.947315661e-15 0)
(3 -5.317470263e-15 0)
(3 -1.471081989e-15 0)
(3 4.359727997e-15 0)
(3 6.191410613e-15 0)
(3 4.636470204e-15 0)
(3 2.080190361e-15 0)
(3 2.459725244e-15 0)
(3 2.205432276e-15 0)
(3 5.007177276e-15 0)
(3 7.027113438e-15 0)
(3 7.029673606e-15 0)
(3 6.664798377e-15 0)
(3 6.43780719e-15 0)
(3 6.380347915e-15 0)
(3 8.792585774e-15 0)
(3 9.777147421e-15 0)
(3 1.070795751e-14 0)
(3 1.126974477e-14 0)
(3 1.165316647e-14 0)
(3 1.168692891e-14 0)
(3 1.025019858e-14 0)
(3 8.399962424e-15 0)
(3 7.487506298e-15 0)
(3 7.073355171e-15 0)
(3 6.495397297e-15 0)
(3 4.794926185e-15 0)
(3 1.814741888e-15 0)
(3 -2.087232815e-15 0)
(3 -2.670344768e-15 0)
(3 -3.270972734e-15 0)
(3 -4.712299715e-15 0)
(3 -6.609700362e-15 0)
(3 -7.824194819e-15 0)
(3 -9.138553965e-15 0)
(3 -9.902195241e-15 0)
(3 -1.142329379e-14 0)
(3 -1.157649768e-14 0)
(3 -1.15163769e-14 0)
(3 -1.189465846e-14 0)
(3 -1.172465696e-14 0)
(3 -1.152057415e-14 0)
(3 -1.062496871e-14 0)
(3 -9.488332734e-15 0)
(3 -8.436554528e-15 0)
(3 -5.719346276e-15 0)
(3 -2.57227555e-15 0)
(3 -7.481576147e-17 0)
(3 -9.416971959e-16 0)
(3 3.148933768e-15 0)
(3 6.985430299e-15 0)
(3 1.019578406e-14 0)
(3 1.139208344e-14 0)
(3 1.253310736e-14 0)
(3 1.389893137e-14 0)
(3 1.391475954e-14 0)
(3 1.230938057e-14 0)
(3 1.071223999e-14 0)
(3 9.479205817e-15 0)
(3 6.183430501e-15 0)
(3 -1.412223436e-15 0)
(3 -4.932016569e-15 0)
(3 -9.318553877e-15 0)
(3 -1.011305894e-14 0)
(3 -1.094138322e-14 0)
(3 -1.042730151e-14 0)
(3 -1.11874405e-14 0)
(3 -1.151653627e-14 0)
(3 -1.146291219e-14 0)
(3 -8.815259425e-15 0)
(3 -5.629667993e-15 0)
(3 -2.849940579e-15 0)
(3 -3.201835701e-15 0)
(3 -2.839257946e-15 0)
(3 -2.517697141e-16 0)
(3 -4.336125711e-16 0)
(3 -1.707026234e-15 0)
(3 -3.440724315e-15 0)
(3 -3.234926863e-15 0)
(3 -4.514907411e-15 0)
(3 -4.55357282e-15 0)
(3 -3.75812772e-15 0)
(3 -2.005862648e-15 0)
(3 3.070311728e-16 0)
(3 4.360729371e-15 0)
(3 7.42112281e-15 0)
(3 8.066345314e-15 0)
(3 8.82511205e-15 0)
(3 9.323509359e-15 0)
(3 7.988144765e-15 0)
(3 6.276986419e-15 0)
(3 5.26049992e-15 0)
(3 4.130971738e-15 0)
(3 2.816780567e-15 0)
(3 1.784606877e-15 0)
(3 2.488057026e-16 0)
(3 -1.835581691e-16 0)
(3 -5.372238085e-16 0)
(3 -3.600067669e-15 0)
(3 -5.206291536e-15 0)
(3 -7.047824447e-15 0)
(3 -8.521423161e-15 0)
(3 -9.684184591e-15 0)
(3 -1.172256285e-14 0)
(3 -1.149501793e-14 0)
(3 -1.174961888e-14 0)
(3 -1.035756026e-14 0)
(3 -1.007471657e-14 0)
(3 -1.101018325e-14 0)
(3 -1.232993085e-14 0)
(3 -1.228111639e-14 0)
(3 -9.652560196e-15 0)
(3 -4.289501796e-15 0)
(3 -2.701491636e-15 0)
(3 7.726194545e-16 0)
(3 6.533139742e-15 0)
(3 1.17647911e-14 0)
(3 1.27590032e-14 0)
(3 1.325535936e-14 0)
(3 1.336666176e-14 0)
(3 1.35803331e-14 0)
(3 1.399206625e-14 0)
(3 1.471660329e-14 0)
(3 1.652427525e-14 0)
(3 1.284021242e-14 0)
(3 1.102568416e-14 0)
(3 9.052374799e-15 0)
(3 -1.133750943e-14 0)
(3 -1.348903542e-14 0)
(3 -1.46829686e-14 0)
(3 -1.591036625e-14 0)
(3 -1.568476504e-14 0)
(3 -1.527896064e-14 0)
(3 -1.482432923e-14 0)
(3 -1.544525789e-14 0)
(3 -1.617143965e-14 0)
(3 -1.59982658e-14 0)
(3 -1.461671424e-14 0)
(3 -1.620566802e-14 0)
(3 -1.668328657e-14 0)
(3 -1.727787652e-14 0)
(3 -1.159200361e-14 0)
(3 -8.716354207e-15 0)
(3 -9.529631524e-15 0)
(3 -1.04075467e-14 0)
(3 -9.622252296e-15 0)
(3 -7.248317707e-15 0)
(3 -5.599263283e-15 0)
(3 -4.233888034e-15 0)
(3 -3.089048482e-15 0)
(3 -1.514360821e-15 0)
(3 1.048482622e-15 0)
(3 3.609553426e-15 0)
(3 4.904960656e-15 0)
(3 5.015039086e-15 0)
(3 4.249780187e-15 0)
(3 4.713645829e-15 0)
(3 4.691375089e-15 0)
(3 4.160840705e-15 0)
(3 2.64502522e-15 0)
(3 1.085061292e-15 0)
(3 -1.905427987e-16 0)
(3 -1.407455934e-15 0)
(3 -1.960414313e-15 0)
(3 -2.545404403e-15 0)
(3 -3.317597149e-15 0)
(3 -4.935898954e-15 0)
(3 -6.117646903e-15 0)
(3 -5.585255204e-15 0)
(3 -6.439749478e-15 0)
(3 -7.615738987e-15 0)
(3 -6.59997534e-15 0)
(3 -4.043322964e-15 0)
(3 -5.739880842e-16 0)
(3 -1.268024192e-15 0)
(3 -1.823606744e-15 0)
(3 -3.196651131e-15 0)
(3 -1.94692458e-15 0)
(3 -7.87823268e-16 0)
(3 1.329517265e-15 0)
(3 3.964427633e-15 0)
(3 7.696820869e-15 0)
(3 1.332155213e-14 0)
(3 1.554647437e-14 0)
(3 1.728049621e-14 0)
(3 1.719592681e-14 0)
(3 1.706982419e-14 0)
(3 1.598855839e-14 0)
(3 1.388096886e-14 0)
(3 1.194755596e-14 0)
(3 1.501451112e-14 0)
(3 1.658621229e-14 0)
(3 1.473564239e-14 0)
(3 1.385830776e-14 0)
(3 -1.509030219e-14 0)
(3 -1.499632723e-14 0)
(3 -1.418229897e-14 0)
(3 -1.489093011e-14 0)
(3 -1.737447499e-14 0)
(3 -1.856398672e-14 0)
(3 -1.763485542e-14 0)
(3 -1.888720497e-14 0)
(3 -1.862426937e-14 0)
(3 -1.887898628e-14 0)
(3 -2.196409094e-14 0)
(3 -2.363974387e-14 0)
(3 -2.260417988e-14 0)
(3 -2.086068888e-14 0)
(3 -2.036841026e-14 0)
(3 -1.85941661e-14 0)
(3 -1.817544021e-14 0)
(3 -1.748884114e-14 0)
(3 -1.621747807e-14 0)
(3 -1.60919648e-14 0)
(3 -1.834481345e-14 0)
(3 -1.869835459e-14 0)
(3 -1.686008869e-14 0)
(3 -1.587950624e-14 0)
(3 -1.339570814e-14 0)
(3 -8.789695967e-15 0)
(3 -3.947530981e-15 0)
(3 -2.80050418e-15 0)
(3 -3.350060521e-15 0)
(3 -2.927654616e-15 0)
(3 -2.891174907e-16 0)
(3 8.915208894e-17 0)
(3 -3.917422687e-16 0)
(3 -8.30321493e-16 0)
(3 -1.411999611e-15 0)
(3 -2.276859469e-15 0)
(3 -2.016507631e-15 0)
(3 -2.417768713e-15 0)
(3 -1.716343188e-15 0)
(3 -3.337225774e-15 0)
(3 -5.183024457e-15 0)
(3 -3.173155567e-15 0)
(3 5.510615163e-17 0)
(3 1.740071879e-15 0)
(3 1.106860252e-15 0)
(3 3.732543529e-15 0)
(3 4.94000031e-15 0)
(3 6.413453569e-15 0)
(3 9.554570224e-15 0)
(3 1.191960094e-14 0)
(3 1.304280471e-14 0)
(3 1.334474343e-14 0)
(3 1.333204302e-14 0)
(3 1.395327735e-14 0)
(3 1.73389162e-14 0)
(3 1.860952905e-14 0)
(3 1.880804146e-14 0)
(3 1.750904905e-14 0)
(3 1.481608437e-14 0)
(3 1.281462381e-14 0)
(3 1.148503273e-14 0)
(3 9.766323277e-15 0)
(3 9.149647795e-15 0)
(3 8.201339257e-15 0)
(3 1.296754352e-14 0)
(3 1.535130166e-14 0)
(3 1.169456543e-14 0)
(3 -8.116497905e-15 0)
(3 -8.071255879e-15 0)
(3 -8.006037849e-15 0)
(3 -8.230113781e-15 0)
(3 -1.120591656e-14 0)
(3 -1.496758832e-14 0)
(3 -1.755892215e-14 0)
(3 -1.90512037e-14 0)
(3 -1.969108055e-14 0)
(3 -2.210067385e-14 0)
(3 -2.401146104e-14 0)
(3 -2.765375901e-14 0)
(3 -2.857285159e-14 0)
(3 -2.619641847e-14 0)
(3 -2.461331841e-14 0)
(3 -2.41180492e-14 0)
(3 -2.42883696e-14 0)
(3 -2.741776135e-14 0)
(3 -3.055502243e-14 0)
(3 -2.981659565e-14 0)
(3 -2.750734352e-14 0)
(3 -2.584881873e-14 0)
(3 -2.461080727e-14 0)
(3 -2.362812565e-14 0)
(3 -2.202019799e-14 0)
(3 -1.948185346e-14 0)
(3 -1.481664652e-14 0)
(3 -1.145626274e-14 0)
(3 -1.055788329e-14 0)
(3 -8.405733265e-15 0)
(3 -5.602760942e-15 0)
(3 -4.259742286e-15 0)
(3 -3.532199506e-15 0)
(3 -2.160589373e-15 0)
(3 -1.307719956e-16 0)
(3 3.255128273e-15 0)
(3 4.913257604e-15 0)
(3 6.33823595e-15 0)
(3 9.62722386e-15 0)
(3 1.017938525e-14 0)
(3 1.129741831e-14 0)
(3 1.378814173e-14 0)
(3 1.597312312e-14 0)
(3 1.685767965e-14 0)
(3 1.726042329e-14 0)
(3 1.626087814e-14 0)
(3 1.629102524e-14 0)
(3 1.761310137e-14 0)
(3 1.809907558e-14 0)
(3 1.848369e-14 0)
(3 1.742089352e-14 0)
(3 1.742491329e-14 0)
(3 1.824644142e-14 0)
(3 1.808137448e-14 0)
(3 1.717754211e-14 0)
(3 1.747436721e-14 0)
(3 1.668495845e-14 0)
(3 1.510599415e-14 0)
(3 1.462548061e-14 0)
(3 1.34868391e-14 0)
(3 1.198883657e-14 0)
(3 1.059489932e-14 0)
(3 8.850892227e-15 0)
(3 9.023226448e-15 0)
(3 9.614855255e-15 0)
(3 9.615215535e-15 0)
(3 7.85468594e-15 0)
(3 5.588914184e-15 0)
(3 4.232282559e-15 0)
(3 3.78004155e-16 0)
(3 -1.349923475e-15 0)
(3 -3.821311896e-15 0)
(3 -8.93161345e-15 0)
(3 -1.263583278e-14 0)
(3 -1.474798268e-14 0)
(3 -1.733792641e-14 0)
(3 -1.833536585e-14 0)
(3 -2.004986049e-14 0)
(3 -2.016278434e-14 0)
(3 -2.010650221e-14 0)
(3 -1.970264771e-14 0)
(3 -1.924911038e-14 0)
(3 -1.99863929e-14 0)
(3 -2.241071121e-14 0)
(3 -2.508792515e-14 0)
(3 -2.56695994e-14 0)
(3 -2.57145552e-14 0)
(3 -2.670680767e-14 0)
(3 -2.701892147e-14 0)
(3 -2.623175376e-14 0)
(3 -2.718066521e-14 0)
(3 -2.783009097e-14 0)
(3 -2.560779952e-14 0)
(3 -2.197283481e-14 0)
(3 -1.595924259e-14 0)
(3 -4.768144905e-15 0)
(3 1.920758968e-15 0)
(3 3.954634617e-15 0)
(3 7.511522088e-15 0)
(3 1.016073849e-14 0)
(3 9.721690321e-15 0)
(3 9.821936947e-15 0)
(3 1.096636081e-14 0)
(3 1.375764045e-14 0)
(3 1.470130247e-14 0)
(3 1.438573029e-14 0)
(3 1.411386541e-14 0)
(3 1.507907481e-14 0)
(3 1.564978244e-14 0)
(3 1.620793734e-14 0)
(3 1.71984659e-14 0)
(3 1.779454633e-14 0)
(3 1.870257913e-14 0)
(3 1.945442361e-14 0)
(3 1.957594643e-14 0)
(3 1.906000219e-14 0)
(3 1.585961615e-14 0)
(3 1.676418822e-14 0)
(3 1.885585384e-14 0)
(3 1.961647906e-14 0)
(3 1.913516498e-14 0)
(3 1.681876275e-14 0)
(3 1.561831228e-14 0)
(3 1.51243527e-14 0)
(3 1.50264366e-14 0)
(3 1.516478405e-14 0)
(3 1.555678684e-14 0)
(3 1.582242681e-14 0)
(3 1.352537628e-14 0)
(3 1.042825926e-14 0)
(3 8.231584608e-15 0)
(3 7.928319142e-15 0)
(3 8.109047465e-15 0)
(3 7.411883233e-15 0)
(3 1.233276495e-14 0)
(3 1.043487116e-14 0)
(3 5.676196555e-15 0)
(3 1.473740318e-15 0)
(3 8.956023131e-17 0)
(3 -7.254356149e-16 0)
(3 -4.389310654e-15 0)
(3 -5.567554918e-15 0)
(3 -7.461335436e-15 0)
(3 -6.736017763e-15 0)
(3 -6.976443862e-15 0)
(3 -7.434428737e-15 0)
(3 -8.414036498e-15 0)
(3 -1.290330277e-14 0)
(3 -1.452679217e-14 0)
(3 -1.517438123e-14 0)
(3 -1.479959782e-14 0)
(3 -1.44780006e-14 0)
(3 -1.456183455e-14 0)
(3 -1.596083114e-14 0)
(3 -1.690401236e-14 0)
(3 -1.755964245e-14 0)
(3 -1.757607949e-14 0)
(3 -1.79580379e-14 0)
(3 -1.859009916e-14 0)
(3 -1.835195409e-14 0)
(3 -1.862524907e-14 0)
(3 -1.625585937e-14 0)
(3 -1.049293833e-14 0)
(3 -5.175554881e-15 0)
(3 1.279141795e-15 0)
(3 4.301161623e-15 0)
(3 5.00729605e-15 0)
(3 8.502380753e-15 0)
(3 1.448657484e-14 0)
(3 1.813581441e-14 0)
(3 2.010947795e-14 0)
(3 2.070499676e-14 0)
(3 2.064857642e-14 0)
(3 2.017174726e-14 0)
(3 1.898916665e-14 0)
(3 1.73122074e-14 0)
(3 1.598669429e-14 0)
(3 1.6433211e-14 0)
(3 1.547203865e-14 0)
(3 1.580707117e-14 0)
(3 1.573289182e-14 0)
(3 1.38785594e-14 0)
(3 1.164340228e-14 0)
(3 1.210313977e-14 0)
(3 1.205996733e-14 0)
(3 1.254376341e-14 0)
(3 9.965238782e-15 0)
(3 5.615032637e-15 0)
(3 5.619751211e-15 0)
(3 4.453694689e-15 0)
(3 4.100828694e-15 0)
(3 6.598697044e-15 0)
(3 8.665627956e-15 0)
(3 8.803838193e-15 0)
(3 7.900009016e-15 0)
(3 7.543088778e-15 0)
(3 8.40880381e-15 0)
(3 8.271806719e-15 0)
(3 7.922095146e-15 0)
(3 8.173562533e-15 0)
(3 7.954385654e-15 0)
(3 9.450277017e-15 0)
(3 9.291004497e-15 0)
(3 7.030965016e-15 0)
(3 5.961121825e-15 0)
(3 3.5552845e-15 0)
(3 2.10365279e-15 0)
(3 1.577576665e-15 0)
(3 1.525011191e-15 0)
(3 -1.093676465e-15 0)
(3 -1.840420678e-15 0)
(3 -4.850371556e-16 0)
(3 -1.000166875e-15 0)
(3 -4.102461767e-15 0)
(3 -8.161092255e-15 0)
(3 -1.126362478e-14 0)
(3 -1.196960014e-14 0)
(3 -8.894307522e-15 0)
(3 -4.523361053e-15 0)
(3 -3.900049917e-15 0)
(3 -4.601689597e-15 0)
(3 -7.548973553e-15 0)
(3 -9.189764866e-15 0)
(3 -1.051225454e-14 0)
(3 -1.087914328e-14 0)
(3 -1.15103542e-14 0)
(3 -6.710827158e-15 0)
(3 -4.890457198e-15 0)
(3 -5.670728129e-15 0)
(3 -4.055630523e-15 0)
(3 1.362064761e-15 0)
(3 5.804664859e-15 0)
(3 5.420643614e-15 0)
(3 8.205991744e-15 0)
(3 1.305226702e-14 0)
(3 1.9261016e-14 0)
(3 2.300463346e-14 0)
(3 2.150405938e-14 0)
(3 1.941614268e-14 0)
(3 1.93795695e-14 0)
(3 1.946903308e-14 0)
(3 1.981137934e-14 0)
(3 1.826288635e-14 0)
(3 1.762675663e-14 0)
(3 1.715764307e-14 0)
(3 1.590229583e-14 0)
(3 1.447488513e-14 0)
(3 1.41333331e-14 0)
(3 9.941638407e-15 0)
(3 6.611082595e-15 0)
(3 6.588157211e-15 0)
(3 5.692883167e-15 0)
(3 5.130962343e-15 0)
(3 5.662148688e-16 0)
(3 -1.6934974e-15 0)
(3 -4.0901795e-15 0)
(3 -4.87860009e-15 0)
(3 -3.965367124e-15 0)
(3 -3.824723855e-15 0)
(3 -1.888862474e-15 0)
(3 1.603059767e-15 0)
(3 2.324447291e-15 0)
(3 4.162530061e-15 0)
(3 7.013431843e-15 0)
(3 7.750134778e-15 0)
(3 7.640819111e-15 0)
(3 7.548520162e-15 0)
(3 7.450656168e-15 0)
(3 6.92066545e-15 0)
(3 6.251220879e-15 0)
(3 7.474642401e-15 0)
(3 7.981393374e-15 0)
(3 7.767302288e-15 0)
(3 9.376632319e-15 0)
(3 1.139857902e-14 0)
(3 1.003953356e-14 0)
(3 9.546153371e-15 0)
(3 6.683107667e-15 0)
(3 5.459234881e-15 0)
(3 5.916170956e-15 0)
(3 5.260720696e-15 0)
(3 4.479114344e-15 0)
(3 1.605041867e-15 0)
(3 5.451584867e-16 0)
(3 9.73396089e-16 0)
(3 3.010001775e-15 0)
(3 5.279300539e-15 0)
(3 5.124136151e-15 0)
(3 2.978172941e-15 0)
(3 2.881398338e-16 0)
(3 5.542890703e-16 0)
(3 1.742101193e-15 0)
(3 1.480248976e-15 0)
(3 2.747655448e-15 0)
(3 3.319513456e-15 0)
(3 5.1604228e-15 0)
(3 7.891775011e-15 0)
(3 9.668766211e-15 0)
(3 9.310351456e-15 0)
(3 1.007945652e-14 0)
(3 1.387717961e-14 0)
(3 1.703404437e-14 0)
(3 1.797437127e-14 0)
(3 1.997488211e-14 0)
(3 2.043487914e-14 0)
(3 2.011837657e-14 0)
(3 1.879504648e-14 0)
(3 1.759259116e-14 0)
(3 1.619267365e-14 0)
(3 1.512197864e-14 0)
(3 1.489199315e-14 0)
(3 1.272084173e-14 0)
(3 7.965654781e-15 0)
(3 3.902720955e-15 0)
(3 3.569541691e-15 0)
(3 1.562262541e-15 0)
(3 1.197959098e-15 0)
(3 2.108788743e-16 0)
(3 -1.751140863e-16 0)
(3 -1.339110721e-15 0)
(3 -3.570977559e-15 0)
(3 -5.05160843e-15 0)
(3 -6.787853516e-15 0)
(3 -7.683893164e-15 0)
(3 -5.709905649e-15 0)
(3 -5.688647428e-15 0)
(3 -5.236665545e-15 0)
(3 -2.278529774e-15 0)
(3 2.607639289e-15 0)
(3 4.065723609e-15 0)
(3 3.812284336e-15 0)
(3 3.554016223e-15 0)
(3 4.688043048e-15 0)
(3 5.51126324e-15 0)
(3 7.40679483e-15 0)
(3 1.109735106e-14 0)
(3 1.224755654e-14 0)
(3 1.293827121e-14 0)
(3 1.410250573e-14 0)
(3 1.339306352e-14 0)
(3 1.455804781e-14 0)
(3 1.535362345e-14 0)
(3 1.557380932e-14 0)
(3 1.62764562e-14 0)
(3 1.559493669e-14 0)
(3 1.472910898e-14 0)
(3 1.52021532e-14 0)
(3 1.429873284e-14 0)
(3 1.43742661e-14 0)
(3 1.411515858e-14 0)
(3 1.224343617e-14 0)
(3 8.760918172e-15 0)
(3 7.363422623e-15 0)
(3 9.688608793e-15 0)
(3 1.17358627e-14 0)
(3 1.21285884e-14 0)
(3 1.203830224e-14 0)
(3 1.185485402e-14 0)
(3 1.168769602e-14 0)
(3 1.170727909e-14 0)
(3 1.161122103e-14 0)
(3 1.392700517e-14 0)
(3 1.679630713e-14 0)
(3 1.73735264e-14 0)
(3 1.276705852e-14 0)
(3 9.574531112e-15 0)
(3 8.88296042e-15 0)
(3 1.007658155e-14 0)
(3 1.522403082e-14 0)
(3 1.590756988e-14 0)
(3 1.583935195e-14 0)
(3 1.571888436e-14 0)
(3 1.507994582e-14 0)
(3 1.477314972e-14 0)
(3 1.43897062e-14 0)
(3 1.378609339e-14 0)
(3 1.25452289e-14 0)
(3 1.015840941e-14 0)
(3 8.79508296e-15 0)
(3 3.31266326e-15 0)
(3 -7.43571883e-16 0)
(3 -1.484938471e-15 0)
(3 -1.788490313e-15 0)
(3 -1.966499287e-15 0)
(3 -3.195672946e-15 0)
(3 -5.605866679e-15 0)
(3 -7.005769494e-15 0)
(3 -7.543447642e-15 0)
(3 -8.661731734e-15 0)
(3 -9.100041629e-15 0)
(3 -8.424954343e-15 0)
(3 -7.07677354e-15 0)
(3 -5.25003281e-15 0)
(3 -4.058740434e-15 0)
(3 -3.972758186e-15 0)
(3 -3.664900679e-15 0)
(3 -2.729142645e-15 0)
(3 -2.166383061e-15 0)
(3 -1.959448141e-15 0)
(3 -9.663217582e-16 0)
(3 -1.395671372e-15 0)
(3 2.556868976e-15 0)
(3 1.672133005e-14 0)
(3 1.667029143e-14 0)
(3 1.523306577e-14 0)
(3 1.418478371e-14 0)
(3 1.379970527e-14 0)
(3 1.331165176e-14 0)
(3 1.260282762e-14 0)
(3 1.376740742e-14 0)
(3 1.430161927e-14 0)
(3 1.578547634e-14 0)
(3 1.574098781e-14 0)
(3 1.540326949e-14 0)
(3 1.487731818e-14 0)
(3 1.543061523e-14 0)
(3 1.593547974e-14 0)
(3 1.506955426e-14 0)
(3 1.306639995e-14 0)
(3 1.315048133e-14 0)
(3 1.404945882e-14 0)
(3 1.542371265e-14 0)
(3 1.75968787e-14 0)
(3 1.822179416e-14 0)
(3 1.819207285e-14 0)
(3 1.97417779e-14 0)
(3 2.166109744e-14 0)
(3 2.097562078e-14 0)
(3 2.005198412e-14 0)
(3 1.79727006e-14 0)
(3 1.536064133e-14 0)
(3 1.393056054e-14 0)
(3 1.265007881e-14 0)
(3 1.193265314e-14 0)
(3 1.188382679e-14 0)
(3 1.343937777e-14 0)
(3 1.580230339e-14 0)
(3 1.683311224e-14 0)
(3 1.675359996e-14 0)
(3 1.548261471e-14 0)
(3 1.429792207e-14 0)
(3 1.274278342e-14 0)
(3 1.222891435e-14 0)
(3 1.048335655e-14 0)
(3 8.004669267e-15 0)
(3 4.262367245e-15 0)
(3 2.514641368e-15 0)
(3 1.590022276e-15 0)
(3 2.385376672e-16 0)
(3 -2.00947918e-15 0)
(3 -2.532315012e-15 0)
(3 -3.06863133e-15 0)
(3 -4.526176749e-15 0)
(3 -5.36981743e-15 0)
(3 -6.252118538e-15 0)
(3 -6.490870961e-15 0)
(3 -7.247417732e-15 0)
(3 -7.505072155e-15 0)
(3 -7.836252289e-15 0)
(3 -7.700946953e-15 0)
(3 -7.804335332e-15 0)
(3 -7.202550752e-15 0)
(3 -5.147472099e-15 0)
(3 -5.356050553e-15 0)
(3 -4.458663055e-15 0)
(3 -4.000158726e-15 0)
(3 -6.088016372e-15 0)
(3 -4.722121646e-15 0)
(3 7.152503013e-16 0)
(3 1.592854708e-14 0)
(3 1.784713867e-14 0)
(3 1.797626831e-14 0)
(3 1.642819814e-14 0)
(3 1.559687453e-14 0)
(3 1.348057688e-14 0)
(3 1.180525249e-14 0)
(3 1.075445087e-14 0)
(3 9.270641085e-15 0)
(3 8.933800205e-15 0)
(3 9.540683571e-15 0)
(3 1.106394668e-14 0)
(3 1.248337019e-14 0)
(3 1.395152347e-14 0)
(3 1.440815046e-14 0)
(3 1.551559243e-14 0)
(3 1.525897699e-14 0)
(3 1.478294555e-14 0)
(3 1.487487786e-14 0)
(3 1.512886811e-14 0)
(3 1.742052583e-14 0)
(3 1.849910532e-14 0)
(3 2.110731958e-14 0)
(3 2.116914187e-14 0)
(3 2.033055059e-14 0)
(3 2.037278238e-14 0)
(3 1.913084903e-14 0)
(3 1.708434254e-14 0)
(3 1.584438231e-14 0)
(3 1.523036674e-14 0)
(3 1.360571368e-14 0)
(3 1.211955687e-14 0)
(3 7.711932836e-15 0)
(3 5.977041552e-15 0)
(3 5.942345132e-15 0)
(3 1.057653347e-14 0)
(3 1.398951282e-14 0)
(3 1.607007936e-14 0)
(3 1.624362975e-14 0)
(3 1.387537287e-14 0)
(3 9.117090002e-15 0)
(3 4.920428631e-15 0)
(3 4.419937308e-15 0)
(3 4.415315528e-15 0)
(3 5.066785744e-15 0)
(3 4.518706913e-15 0)
(3 3.107621086e-15 0)
(3 1.570418879e-15 0)
(3 3.462293935e-15 0)
(3 3.327398934e-15 0)
(3 2.292469168e-15 0)
(3 8.030924457e-16 0)
(3 -1.613114239e-15 0)
(3 -3.320065999e-15 0)
(3 -3.265905151e-15 0)
(3 -3.184523192e-15 0)
(3 -3.425769483e-15 0)
(3 -4.186746181e-15 0)
(3 -4.620150669e-15 0)
(3 -4.673953378e-15 0)
(3 -3.538690466e-15 0)
(3 -2.864101451e-15 0)
(3 -4.364978042e-15 0)
(3 -6.449199407e-15 0)
(3 -6.937669399e-15 0)
(3 -4.190293254e-15 0)
(3 -7.745158788e-16 0)
(3 4.959982131e-15 0)
(3 8.016850625e-15 0)
(3 8.002924396e-15 0)
(3 1.048497194e-14 0)
(3 1.067503213e-14 0)
(3 1.023884712e-14 0)
(3 9.46398324e-15 0)
(3 6.082256687e-15 0)
(3 3.146258046e-15 0)
(3 2.606923754e-15 0)
(3 2.828438193e-15 0)
(3 4.551473095e-15 0)
(3 7.098476304e-15 0)
(3 5.655887311e-15 0)
(3 8.473724799e-15 0)
(3 9.029642867e-15 0)
(3 1.072375104e-14 0)
(3 1.203122085e-14 0)
(3 1.138721034e-14 0)
(3 1.150750973e-14 0)
(3 1.259009619e-14 0)
(3 1.383010212e-14 0)
(3 1.466969068e-14 0)
(3 1.484089832e-14 0)
(3 1.556156366e-14 0)
(3 1.53078057e-14 0)
(3 1.589019378e-14 0)
(3 1.508983716e-14 0)
(3 1.517048336e-14 0)
(3 1.427696985e-14 0)
(3 1.328121545e-14 0)
(3 1.405365493e-14 0)
(3 1.646464857e-14 0)
(3 1.404070951e-14 0)
(3 1.100804703e-14 0)
(3 9.796605532e-15 0)
(3 1.269377991e-14 0)
(3 1.282812835e-14 0)
(3 9.285321374e-15 0)
(3 4.685529867e-15 0)
(3 4.312742457e-15 0)
(3 3.575702586e-15 0)
(3 4.094177115e-15 0)
(3 5.418748924e-15 0)
(3 6.607617145e-15 0)
(3 7.394315201e-15 0)
(3 7.770982134e-15 0)
(3 5.884447938e-15 0)
(3 4.021588705e-15 0)
(3 3.139821942e-15 0)
(3 3.378740259e-15 0)
(3 3.251843483e-15 0)
(3 2.623892868e-15 0)