/*--------------------------------*- C++ -*----------------------------------*\
  =========                 |
  \\      /  F ield         | OpenFOAM: The Open Source CFD Toolbox
   \\    /   O peration     | Website:  https://openfoam.org
    \\  /    A nd           | Version:  7
     \\/     M anipulation  |
\*---------------------------------------------------------------------------*/
FoamFile
{
    version     2.0;
    format      ascii;
    class       volVectorField;
    location    "3.3";
    object      U;
}
// * * * * * * * * * * * * * * * * * * * * * * * * * * * * * * * * * * * * * //

dimensions      [0 1 -1 0 0 0 0];

internalField   nonuniform List<vector> 
555
(
(3 -9.032425285e-15 0)
(3 -8.618705135e-15 0)
(3 -7.491425933e-15 0)
(3 -4.856237282e-15 0)
(3 -3.47534369e-15 0)
(3 -9.939722571e-16 0)
(3 1.277262776e-16 0)
(3 -1.784128641e-15 0)
(3 -3.382285368e-15 0)
(3 -4.137919561e-15 0)
(3 -5.147139581e-15 0)
(3 -7.122038829e-15 0)
(3 -6.802398343e-15 0)
(3 -6.384014576e-15 0)
(3 -7.454744853e-15 0)
(3 -1.000498698e-14 0)
(3 -8.566545267e-15 0)
(3 -8.469007977e-15 0)
(3 -1.524587566e-15 0)
(3 -2.308059283e-15 0)
(3 1.126599473e-15 0)
(3 2.700035009e-15 0)
(3 1.812965093e-15 0)
(3 2.338709138e-15 0)
(3 4.923907991e-15 0)
(3 5.69298303e-15 0)
(3 5.330033218e-15 0)
(3 2.497755622e-15 0)
(3 1.337767602e-15 0)
(3 -9.941259513e-16 0)
(3 -3.542182018e-15 0)
(3 -4.605355163e-15 0)
(3 -5.732833688e-15 0)
(3 -6.98306721e-15 0)
(3 -5.907141629e-15 0)
(3 -5.198948049e-15 0)
(3 -4.635037654e-15 0)
(3 -5.878031889e-15 0)
(3 -4.568379063e-15 0)
(3 -4.197588326e-15 0)
(3 -4.636776313e-15 0)
(3 -4.715063706e-15 0)
(3 -4.109263336e-15 0)
(3 -3.77640581e-15 0)
(3 -5.976834535e-15 0)
(3 -4.968633013e-15 0)
(3 -7.713347777e-16 0)
(3 2.343480817e-15 0)
(3 2.722887407e-15 0)
(3 2.454656169e-15 0)
(3 1.739908045e-15 0)
(3 -1.771712378e-15 0)
(3 1.963629601e-16 0)
(3 1.059683623e-15 0)
(3 2.295651163e-15 0)
(3 -4.734665667e-16 0)
(3 -1.746468455e-15 0)
(3 -2.362740734e-15 0)
(3 -2.554134785e-15 0)
(3 1.394313715e-15 0)
(3 1.99933214e-15 0)
(3 2.502530118e-15 0)
(3 8.327571702e-16 0)
(3 -1.190682094e-15 0)
(3 -1.202217937e-15 0)
(3 2.11098745e-16 0)
(3 1.091150757e-16 0)
(3 -7.690986066e-16 0)
(3 -9.865424874e-16 0)
(3 -1.564555605e-15 0)
(3 -5.435680816e-15 0)
(3 -9.029179987e-15 0)
(3 -1.541153086e-14 0)
(3 -1.558451173e-14 0)
(3 -1.35823754e-14 0)
(3 -1.213493891e-14 0)
(3 -8.129545872e-15 0)
(3 -6.550895562e-15 0)
(3 -4.489735517e-15 0)
(3 -1.883744379e-15 0)
(3 3.838907884e-15 0)
(3 7.195138535e-15 0)
(3 6.105282893e-15 0)
(3 2.848972476e-15 0)
(3 1.507747756e-15 0)
(3 6.113938527e-15 0)
(3 4.633592509e-15 0)
(3 2.984557572e-15 0)
(3 3.841969353e-15 0)
(3 2.687647369e-15 0)
(3 -1.162523643e-15 0)
(3 -1.402052541e-15 0)
(3 -1.618921489e-15 0)
(3 -1.04330185e-15 0)
(3 4.561551791e-16 0)
(3 9.281048877e-16 0)
(3 1.547755316e-15 0)
(3 2.581282405e-15 0)
(3 2.921359507e-15 0)
(3 3.466212186e-15 0)
(3 -1.493462802e-17 0)
(3 -2.607720315e-15 0)
(3 -5.355209293e-15 0)
(3 -9.440814341e-15 0)
(3 -1.775055125e-14 0)
(3 -2.395848419e-14 0)
(3 -2.394367325e-14 0)
(3 -2.126376757e-14 0)
(3 -1.815460527e-14 0)
(3 -1.376679519e-14 0)
(3 -9.277855874e-15 0)
(3 -6.632515212e-15 0)
(3 -4.730961733e-15 0)
(3 -1.892593642e-15 0)
(3 -4.508519823e-15 0)
(3 -7.300158588e-15 0)
(3 -8.03851612e-15 0)
(3 8.933204208e-16 0)
(3 2.650699323e-15 0)
(3 5.120488118e-15 0)
(3 5.746128453e-15 0)
(3 6.396704154e-15 0)
(3 7.115882869e-15 0)
(3 6.866954669e-15 0)
(3 6.280504273e-15 0)
(3 4.73001746e-15 0)
(3 4.367442093e-15 0)
(3 3.508692113e-15 0)
(3 3.008538848e-15 0)
(3 3.718332088e-15 0)
(3 2.726348155e-15 0)
(3 1.036855696e-15 0)
(3 -8.144576342e-17 0)
(3 -5.507624372e-15 0)
(3 -8.762988111e-15 0)
(3 -1.389809209e-14 0)
(3 -1.503815913e-14 0)
(3 -1.830254787e-14 0)
(3 -1.850399933e-14 0)
(3 -1.964411541e-14 0)
(3 -1.800308338e-14 0)
(3 -1.849215072e-14 0)
(3 -1.677450977e-14 0)
(3 -1.470245236e-14 0)
(3 -1.262264806e-14 0)
(3 -1.141457975e-14 0)
(3 -1.188822232e-14 0)
(3 -1.076432967e-14 0)
(3 -1.105512179e-14 0)
(3 -8.315208444e-15 0)
(3 2.810698984e-16 0)
(3 1.471743286e-15 0)
(3 3.251883428e-15 0)
(3 3.180696899e-15 0)
(3 4.076449762e-15 0)
(3 4.825865603e-15 0)
(3 5.380973039e-15 0)
(3 5.769891966e-15 0)
(3 5.79099619e-15 0)
(3 5.25917449e-15 0)
(3 6.043381452e-15 0)
(3 4.868868891e-15 0)
(3 4.285683008e-15 0)
(3 1.899192299e-15 0)
(3 -1.457926862e-15 0)
(3 -6.475328687e-15 0)
(3 -4.90305525e-15 0)
(3 -4.385218847e-15 0)
(3 -4.752505951e-15 0)
(3 -3.319811313e-15 0)
(3 -2.973121794e-15 0)
(3 -4.942833042e-15 0)
(3 -7.664962207e-15 0)
(3 -9.860799777e-15 0)
(3 -1.380943672e-14 0)
(3 -1.826431412e-14 0)
(3 -1.927512073e-14 0)
(3 -1.709734416e-14 0)
(3 -1.555995971e-14 0)
(3 -1.393694406e-14 0)
(3 -1.108967507e-14 0)
(3 -5.212138534e-15 0)
(3 4.378752614e-16 0)
(3 1.148005182e-15 0)
(3 2.001402374e-15 0)
(3 1.080999057e-15 0)
(3 -1.065478906e-15 0)
(3 -1.201768274e-15 0)
(3 -9.01127567e-16 0)
(3 -1.152964445e-15 0)
(3 -1.006961912e-15 0)
(3 -7.41776621e-17 0)
(3 3.024060634e-15 0)
(3 4.41605004e-15 0)
(3 2.815626137e-15 0)
(3 2.215415355e-15 0)
(3 1.876952454e-15 0)
(3 -3.227437956e-17 0)
(3 -4.072598973e-16 0)
(3 1.338307369e-15 0)
(3 1.487145019e-15 0)
(3 2.239337068e-15 0)
(3 2.417405651e-15 0)
(3 1.576053673e-15 0)
(3 2.837313008e-16 0)
(3 -2.733761121e-16 0)
(3 -3.812257811e-16 0)
(3 -1.908356472e-15 0)
(3 -4.085039123e-15 0)
(3 -5.002749495e-15 0)
(3 -6.557457382e-15 0)
(3 -5.789512978e-15 0)
(3 -4.612976093e-15 0)
(3 -4.028238081e-15 0)
(3 -3.236815478e-15 0)
(3 -2.660268786e-15 0)
(3 -1.496693911e-16 0)
(3 -2.275273119e-15 0)
(3 -3.097549854e-15 0)
(3 -1.466692485e-15 0)
(3 -1.470586573e-15 0)
(3 -1.307981039e-15 0)
(3 -2.431114384e-15 0)
(3 -2.634244952e-15 0)
(3 -2.393540001e-15 0)
(3 -2.753771518e-16 0)
(3 1.866550703e-15 0)
(3 3.281333037e-15 0)
(3 1.707899013e-15 0)
(3 -4.354418721e-16 0)
(3 -4.98827505e-17 0)
(3 6.629195146e-16 0)
(3 -2.05579713e-16 0)
(3 -1.219660239e-15 0)
(3 -2.01342272e-15 0)
(3 -3.526020086e-15 0)
(3 -4.191514919e-15 0)
(3 -6.313014385e-16 0)
(3 2.413838529e-15 0)
(3 8.696851288e-16 0)
(3 6.199787173e-15 0)
(3 8.265682177e-15 0)
(3 6.698338895e-15 0)
(3 6.714584709e-15 0)
(3 6.834232675e-15 0)
(3 6.131261715e-15 0)
(3 5.62523877e-15 0)
(3 5.337595144e-15 0)
(3 3.44888363e-15 0)
(3 1.281441275e-17 0)
(3 -7.256330211e-16 0)
(3 -4.047391346e-16 0)
(3 8.609581043e-16 0)
(3 1.01016075e-15 0)
(3 1.844114323e-15 0)
(3 1.606083994e-15 0)
(3 2.393515765e-15 0)
(3 1.794657272e-15 0)
(3 1.383600103e-15 0)
(3 -3.527782519e-15 0)
(3 -2.168492472e-15 0)
(3 -2.794078178e-15 0)
(3 -5.259443316e-15 0)
(3 -4.877911533e-15 0)
(3 -5.392230511e-15 0)
(3 -7.084240892e-15 0)
(3 -7.688674374e-15 0)
(3 -7.593901421e-15 0)
(3 -7.091973923e-15 0)
(3 -5.769629517e-15 0)
(3 -3.461938952e-15 0)
(3 -8.085985368e-16 0)
(3 1.688632923e-15 0)
(3 6.793796569e-15 0)
(3 1.287896153e-14 0)
(3 1.354955726e-14 0)
(3 1.251784255e-14 0)
(3 1.117753479e-14 0)
(3 8.496421454e-15 0)
(3 7.9772046e-15 0)
(3 7.785133585e-15 0)
(3 7.023056282e-15 0)
(3 1.042586724e-16 0)
(3 6.040698711e-16 0)
(3 1.285349451e-15 0)
(3 3.699904416e-15 0)
(3 3.964701764e-15 0)
(3 4.595726357e-15 0)
(3 6.730174997e-15 0)
(3 5.194864134e-15 0)
(3 4.094140142e-15 0)
(3 5.101392848e-16 0)
(3 -3.974968677e-15 0)
(3 -5.884459967e-15 0)
(3 -7.420149493e-15 0)
(3 -7.177463556e-15 0)
(3 -6.733186635e-15 0)
(3 -5.349192793e-15 0)
(3 -4.897206561e-15 0)
(3 -3.728210047e-15 0)
(3 -4.196959951e-15 0)
(3 -2.905190624e-15 0)
(3 -1.009977934e-15 0)
(3 2.594583031e-16 0)
(3 5.856374173e-16 0)
(3 2.772945457e-15 0)
(3 1.485344882e-15 0)
(3 2.77801068e-15 0)
(3 5.258794433e-15 0)
(3 4.626653128e-15 0)
(3 3.605978447e-15 0)
(3 1.880033612e-15 0)
(3 2.158854382e-15 0)
(3 2.101408569e-15 0)
(3 -5.066337782e-18 0)
(3 -1.19688903e-15 0)
(3 -3.168258417e-15 0)
(3 -1.79316887e-15 0)
(3 -3.723661086e-16 0)
(3 7.393318801e-16 0)
(3 -2.637031649e-16 0)
(3 1.62516017e-15 0)
(3 -5.194407308e-16 0)
(3 -4.074321446e-15 0)
(3 -6.053055961e-15 0)
(3 -4.525318132e-15 0)
(3 -7.049925192e-15 0)
(3 -5.89478623e-15 0)
(3 -4.136745608e-15 0)
(3 -1.52385673e-15 0)
(3 -1.457175105e-17 0)
(3 2.742395173e-15 0)
(3 3.582507879e-15 0)
(3 1.983449964e-15 0)
(3 1.633807775e-15 0)
(3 3.988728777e-15 0)
(3 5.142793362e-15 0)
(3 4.474383852e-15 0)
(3 3.83652498e-15 0)
(3 4.005130962e-15 0)
(3 1.188600455e-15 0)
(3 -1.771259412e-16 0)
(3 7.325296939e-16 0)
(3 4.306993052e-16 0)
(3 9.600369784e-16 0)
(3 1.352056417e-16 0)
(3 6.660715533e-16 0)
(3 5.489356662e-16 0)
(3 -3.785165006e-16 0)
(3 -1.00189377e-15 0)
(3 -3.173446853e-15 0)
(3 -4.805556395e-15 0)
(3 -6.461839831e-15 0)
(3 -1.042058948e-14 0)
(3 -1.102468162e-14 0)
(3 -1.066721358e-14 0)
(3 -1.118051354e-14 0)
(3 -1.003058211e-14 0)
(3 -9.069284482e-15 0)
(3 -9.185054701e-15 0)
(3 -7.196457762e-15 0)
(3 -5.195181771e-15 0)
(3 -5.14580541e-15 0)
(3 -3.366053094e-15 0)
(3 -1.355003855e-15 0)
(3 5.017927672e-17 0)
(3 1.634970074e-15 0)
(3 2.64385276e-15 0)
(3 2.849580441e-15 0)
(3 1.112631108e-15 0)
(3 2.043829529e-15 0)
(3 6.399338857e-15 0)
(3 7.719516912e-15 0)
(3 8.898657299e-15 0)
(3 8.196017025e-15 0)
(3 4.916919021e-15 0)
(3 3.057913405e-15 0)
(3 2.802964949e-15 0)
(3 3.624318098e-15 0)
(3 5.356466728e-15 0)
(3 4.531013586e-15 0)
(3 8.75646779e-16 0)
(3 1.156189835e-15 0)
(3 -1.294544215e-15 0)
(3 -3.121456713e-15 0)
(3 -5.091252749e-15 0)
(3 -9.145100456e-15 0)
(3 -1.054591236e-14 0)
(3 -9.615556028e-15 0)
(3 -8.843180323e-15 0)
(3 -7.19806763e-15 0)
(3 -6.058988291e-15 0)
(3 -4.535039552e-15 0)
(3 -5.237152325e-15 0)
(3 -5.133094594e-15 0)
(3 -4.674698378e-15 0)
(3 -5.30279446e-15 0)
(3 -5.444627339e-15 0)
(3 -5.992381158e-15 0)
(3 -2.168373781e-15 0)
(3 -3.958049671e-16 0)
(3 -2.905359681e-15 0)
(3 -2.747554481e-15 0)
(3 -2.016406022e-15 0)
(3 -9.831833634e-16 0)
(3 1.627242219e-16 0)
(3 4.892772183e-15 0)
(3 7.161131614e-15 0)
(3 4.989686968e-15 0)
(3 1.586735427e-15 0)
(3 9.814772484e-16 0)
(3 1.542439278e-15 0)
(3 -7.502359659e-16 0)
(3 -1.676912802e-15 0)
(3 3.75241595e-16 0)
(3 2.410164702e-16 0)
(3 1.119844057e-15 0)
(3 -7.001572639e-16 0)
(3 -1.652955518e-15 0)
(3 -1.496604836e-15 0)
(3 -1.210694332e-15 0)
(3 -1.352691759e-15 0)
(3 -1.428815067e-15 0)
(3 -8.546010242e-17 0)
(3 8.584628918e-16 0)
(3 2.802947279e-15 0)
(3 3.404498978e-15 0)
(3 2.658342688e-15 0)
(3 2.676972809e-15 0)
(3 1.126790814e-15 0)
(3 6.350576321e-16 0)
(3 -1.51834829e-15 0)
(3 -3.036622732e-15 0)
(3 -4.974311606e-15 0)
(3 -5.636241733e-15 0)
(3 -4.249330049e-15 0)
(3 -3.065031558e-15 0)
(3 -5.367627517e-15 0)
(3 -6.686698585e-15 0)
(3 -4.602929275e-15 0)
(3 -3.284562825e-15 0)
(3 8.425461279e-16 0)
(3 6.283801019e-16 0)
(3 -3.821232057e-16 0)
(3 -2.134456092e-15 0)
(3 -7.606157334e-15 0)
(3 -1.057839758e-14 0)
(3 -7.940341743e-19 0)
(3 1.693979674e-15 0)
(3 2.651700418e-15 0)
(3 2.265575214e-15 0)
(3 4.554594966e-15 0)
(3 6.832509012e-15 0)
(3 5.871378999e-15 0)
(3 4.919529073e-15 0)
(3 4.69431973e-15 0)
(3 6.390747985e-15 0)
(3 6.340857385e-15 0)
(3 7.025995443e-15 0)
(3 9.557189481e-15 0)
(3 9.221336893e-15 0)
(3 9.194550274e-15 0)
(3 9.598023038e-15 0)
(3 9.224006151e-15 0)
(3 7.764533404e-15 0)
(3 3.604861232e-15 0)
(3 -1.075167158e-15 0)
(3 -8.84354739e-16 0)
(3 3.94041303e-16 0)
(3 -1.795615079e-15 0)
(3 -5.171164612e-15 0)
(3 -8.650201561e-15 0)
(3 -9.205193722e-15 0)
(3 -9.56293475e-15 0)
(3 -9.181115645e-15 0)
(3 -4.345114573e-15 0)
(3 -7.412945224e-16 0)
(3 6.050753746e-16 0)
(3 2.369655457e-16 0)
(3 1.5163563e-15 0)
(3 3.022450735e-16 0)
(3 1.877556665e-15 0)
(3 2.608661462e-15 0)
(3 2.976374417e-15 0)
(3 4.08048243e-15 0)
(3 6.350419475e-15 0)
(3 6.830374991e-15 0)
(3 4.627635995e-15 0)
(3 7.463159989e-15 0)
(3 8.46111235e-15 0)
(3 7.314292889e-15 0)
(3 7.585493195e-15 0)
(3 6.804293605e-15 0)
(3 6.22470135e-15 0)
(3 7.22455185e-15 0)
(3 9.544911618e-15 0)
(3 9.120218051e-15 0)
(3 6.98783859e-15 0)
(3 4.782128522e-15 0)
(3 4.039808008e-15 0)
(3 1.914215159e-15 0)
(3 1.017390344e-15 0)
(3 -3.598304938e-15 0)
(3 -5.666184193e-15 0)
(3 -8.582747109e-15 0)
(3 -1.06750773e-14 0)
(3 -1.22747536e-14 0)
(3 -1.219743657e-14 0)
(3 -1.236483122e-14 0)
(3 -1.28425731e-14 0)
(3 -1.121727885e-14 0)
(3 -5.703984947e-15 0)
(3 -3.509832555e-15 0)
(3 -5.2818103e-16 0)
(3 -3.464693983e-15 0)
(3 -3.023514612e-15 0)
(3 -2.214370804e-15 0)
(3 -7.232766169e-16 0)
(3 1.924826218e-15 0)
(3 4.046991277e-15 0)
(3 4.30033567e-15 0)
(3 4.651941258e-15 0)
(3 3.391672153e-15 0)
(3 1.852407954e-15 0)
(3 3.244489786e-15 0)
(3 3.123997185e-15 0)
(3 3.685115739e-15 0)
(3 4.609457774e-15 0)
(3 3.157291898e-15 0)
(3 2.957211163e-15 0)
(3 -7.728907858e-18 0)
(3 -8.585633421e-17 0)
(3 1.903272198e-15 0)
(3 -1.022558329e-15 0)
(3 -8.0253066e-15 0)
(3 -1.047521854e-14 0)
(3 -1.107024917e-14 0)
(3 -1.070243831e-14 0)
(3 -8.63688142e-15 0)
(3 -7.579416651e-15 0)
(3 -6.10577094e-15 0)
(3 -5.98884323e-15 0)
(3 -7.129490644e-15 0)
(3 -4.444526421e-15 0)
(3 -1.333067857e-15 0)
(3 1.094994546e-15 0)
(3 -6.26971301e-16 0)
(3 -3.011191448e-15 0)
(3 -2.906463098e-15 0)
(3 -2.552666312e-15 0)
(3 -2.445206862e-15 0)
(3 -2.723290214e-15 0)
(3 -1.102943622e-15 0)
(3 2.579048847e-15 0)
(3 2.390596548e-15 0)
)
;

boundaryField
{
    inlet
    {
        type            fixedValue;
        value           uniform (3 0 0);
    }
    outlet
    {
        type            inletOutlet;
        inletValue      nonuniform 0();
        value           nonuniform 0();
    }
    bottom
    {
        type            slip;
    }
    top
    {
        type            slip;
    }
    obstacle
    {
        type            slip;
    }
    defaultFaces
    {
        type            empty;
    }
    procBoundary18to12
    {
        type            processor;
        value           nonuniform List<vector> 
34
(
(3 2.289994109e-15 0)
(3 -3.358794602e-16 0)
(3 -1.563898676e-15 0)
(3 -2.284924323e-15 0)
(3 -1.382627162e-15 0)
(3 -1.487643047e-16 0)
(3 -1.124174723e-15 0)
(3 -3.170935309e-15 0)
(3 -5.357419408e-15 0)
(3 -7.801323339e-15 0)
(3 -9.087334008e-15 0)
(3 -1.041915854e-14 0)
(3 -8.834433604e-15 0)
(3 -6.764991812e-15 0)
(3 -7.206391209e-15 0)
(3 -9.595109606e-15 0)
(3 -9.939908142e-15 0)
(3 -1.066833516e-14 0)
(3 -8.06869598e-16 0)
(3 -4.526937115e-16 0)
(3 2.125740904e-16 0)
(3 5.81242593e-17 0)
(3 1.671361058e-15 0)
(3 3.922079697e-15 0)
(3 8.757807911e-15 0)
(3 8.818256487e-15 0)
(3 6.672067716e-15 0)
(3 3.251402336e-15 0)
(3 1.597832642e-15 0)
(3 3.777459402e-16 0)
(3 -1.015081979e-15 0)
(3 -3.574508025e-15 0)
(3 -7.150129592e-15 0)
(3 -7.150129592e-15 0)
)
;
    }
    procBoundary18to19
    {
        type            processor;
        value           nonuniform List<vector> 
17
(
(3 -9.582489488e-15 0)
(3 8.014978982e-16 0)
(3 3.750197994e-16 0)
(3 -6.503783249e-15 0)
(3 -4.849965842e-15 0)
(3 -8.819556054e-17 0)
(3 -4.06232569e-16 0)
(3 2.343969351e-15 0)
(3 2.314508928e-15 0)
(3 -3.82577527e-15 0)
(3 -8.418825091e-16 0)
(3 1.145175629e-15 0)
(3 -2.120785273e-15 0)
(3 -8.559115762e-15 0)
(3 3.355669378e-15 0)
(3 -2.357917606e-15 0)
(3 2.55483704e-15 0)
)
;
    }
    procBoundary18to24
    {
        type            processor;
        value           nonuniform List<vector> 
34
(
(3 1.237483599e-15 0)
(3 1.933916264e-15 0)
(3 3.082983659e-15 0)
(3 5.264964113e-15 0)
(3 5.527246752e-15 0)
(3 4.075825811e-15 0)
(3 3.405455461e-15 0)
(3 -1.480926603e-16 0)
(3 -1.567459778e-15 0)
(3 -2.568934297e-15 0)
(3 -4.37281316e-15 0)
(3 -4.884892315e-15 0)
(3 -4.904906637e-15 0)
(3 -4.970854702e-15 0)
(3 -6.638101814e-15 0)
(3 -5.187917142e-15 0)
(3 -4.995047835e-15 0)
(3 -2.226402365e-15 0)
(3 4.487715582e-17 0)
(3 2.358886906e-15 0)
(3 3.70223042e-15 0)
(3 3.793219476e-15 0)
(3 3.672159618e-15 0)
(3 4.053594662e-15 0)
(3 6.882885071e-16 0)
(3 1.850905533e-15 0)
(3 8.268553737e-16 0)
(3 -1.531910949e-15 0)
(3 -1.378277887e-15 0)
(3 -2.781756133e-15 0)
(3 -3.198299866e-15 0)
(3 -1.092597491e-15 0)
(3 1.237483599e-15 0)
(3 8.33338181e-16 0)
)
;
    }
}


// ************************************************************************* //
