/*--------------------------------*- C++ -*----------------------------------*\
  =========                 |
  \\      /  F ield         | OpenFOAM: The Open Source CFD Toolbox
   \\    /   O peration     | Website:  https://openfoam.org
    \\  /    A nd           | Version:  7
     \\/     M anipulation  |
\*---------------------------------------------------------------------------*/
FoamFile
{
    version     2.0;
    format      ascii;
    class       volScalarField;
    location    "2.2";
    object      p;
}
// * * * * * * * * * * * * * * * * * * * * * * * * * * * * * * * * * * * * * //

dimensions      [1 -1 -2 0 0 0 0];

internalField   nonuniform List<scalar> 
22
(
1
1
1.000000634
1.000036301
1.000000001
1.00001962
1.00055664
1.000000302
1.000358553
1.005329485
1.03423808
1.000023924
1.004036617
1.031054988
1.089832292
1.000879107
1.026499898
1.101356993
1.14417805
1.014065036
1.096274718
1.173806699
)
;

boundaryField
{
    inlet
    {
        type            fixedValue;
        value           nonuniform 0();
    }
    outlet
    {
        type            zeroGradient;
    }
    bottom
    {
        type            slip;
    }
    top
    {
        type            slip;
    }
    obstacle
    {
        type            zeroGradient;
    }
    defaultFaces
    {
        type            empty;
    }
    procBoundary3to2
    {
        type            processor;
        value           nonuniform List<scalar> 5(1 0.9999999997 0.9999999997 0.999999999 0.9999999986);
    }
    procBoundary3to4
    {
        type            processor;
        value           nonuniform List<scalar> 6(1.000954713 1.007563748 1.007563748 1.092568025 1.141010562 1.143881917);
    }
    procBoundary3to8
    {
        type            processor;
        value           nonuniform List<scalar> 2(1.00000016 1.000085505);
    }
    procBoundary3to9
    {
        type            processor;
        value           nonuniform List<scalar> 5(1.168626491 1.093518921 1.185316267 1.168626491 1.180631199);
    }
}


// ************************************************************************* //
