/*--------------------------------*- C++ -*----------------------------------*\
  =========                 |
  \\      /  F ield         | OpenFOAM: The Open Source CFD Toolbox
   \\    /   O peration     | Website:  https://openfoam.org
    \\  /    A nd           | Version:  7
     \\/     M anipulation  |
\*---------------------------------------------------------------------------*/
FoamFile
{
    version     2.0;
    format      ascii;
    class       volVectorField;
    location    "1.9";
    object      U;
}
// * * * * * * * * * * * * * * * * * * * * * * * * * * * * * * * * * * * * * //

dimensions      [0 1 -1 0 0 0 0];

internalField   nonuniform List<vector> 
22
(
(3 9.787383398e-16 0)
(3 1.573821824e-16 0)
(3 1.040691042e-15 0)
(3 1.395364817e-15 0)
(3 -2.927903728e-15 0)
(3 -3.041872214e-15 0)
(3 -1.304055637e-15 0)
(3 -2.01680895e-15 0)
(3 -2.87173659e-15 0)
(3 -1.141216069e-15 0)
(3 -2.900687085e-16 0)
(3 -1.787347025e-15 0)
(3.000000021 2.42327524e-08 0)
(2.999992708 -1.178331339e-05 0)
(2.999943133 -9.526012574e-05 0)
(2.999781343 -0.0004004283285 0)
(2.998600709 -0.002183793638 0)
(2.995398354 -0.007675416399 0)
(2.989855402 -0.01881328893 0)
(2.987555601 0.0003442784817 0)
(2.973399271 -0.01244616709 0)
(2.960851477 -0.01191070047 0)
)
;

boundaryField
{
    inlet
    {
        type            fixedValue;
        value           nonuniform 0();
    }
    outlet
    {
        type            inletOutlet;
        inletValue      nonuniform 0();
        value           nonuniform 0();
    }
    bottom
    {
        type            slip;
    }
    top
    {
        type            slip;
    }
    obstacle
    {
        type            slip;
    }
    defaultFaces
    {
        type            empty;
    }
    procBoundary13to6
    {
        type            processor;
        value           uniform (3 -8.593263e-16 0);
    }
    procBoundary13to7
    {
        type            processor;
        value           nonuniform List<vector> 8((3 5.859790008e-15 0) (3 6.545840888e-15 0) (3 6.717208915e-15 0) (3 5.892167031e-15 0) (3.000000002 2.560937622e-09 0) (2.999999947 -1.263663473e-07 0) (2.999999947 -1.263663473e-07 0) (2.99999956 -5.961053054e-07 0));
    }
    procBoundary13to12
    {
        type            processor;
        value           nonuniform List<vector> 4((3 -9.29478254e-17 0) (3 -9.29478254e-17 0) (3 2.397677842e-16 0) (3 -9.526771221e-16 0));
    }
    procBoundary13to14
    {
        type            processor;
        value           nonuniform List<vector> 2((2.999341876 -0.001284869845 0) (2.982444739 -0.03478945464 0));
    }
    procBoundary13to19
    {
        type            processor;
        value           nonuniform List<vector> 5((3 -1.427437846e-15 0) (3 1.148011289e-15 0) (3 -1.427437846e-15 0) (3 9.392834693e-16 0) (3 -1.427437846e-15 0));
    }
    procBoundary13to20
    {
        type            processor;
        value           uniform (2.946388572 -0.03522019551 0);
    }
}


// ************************************************************************* //
