/*--------------------------------*- C++ -*----------------------------------*\
  =========                 |
  \\      /  F ield         | OpenFOAM: The Open Source CFD Toolbox
   \\    /   O peration     | Website:  https://openfoam.org
    \\  /    A nd           | Version:  7
     \\/     M anipulation  |
\*---------------------------------------------------------------------------*/
FoamFile
{
    version     2.0;
    format      ascii;
    class       volVectorField;
    location    "0.2";
    object      U;
}
// * * * * * * * * * * * * * * * * * * * * * * * * * * * * * * * * * * * * * //

dimensions      [0 1 -1 0 0 0 0];

internalField   nonuniform List<vector> 5((2.857100711 0.09783500121 0) (2.803136154 0.03318396446 0) (2.802194686 -0.03314273073 0) (2.857928488 -0.09699518484 0) (2.923672796 -0.1534848181 0));

boundaryField
{
    inlet
    {
        type            fixedValue;
        value           nonuniform 0();
    }
    outlet
    {
        type            inletOutlet;
        inletValue      nonuniform 0();
        value           nonuniform 0();
    }
    bottom
    {
        type            slip;
    }
    top
    {
        type            slip;
    }
    obstacle
    {
        type            slip;
    }
    defaultFaces
    {
        type            empty;
    }
    procBoundary21to15
    {
        type            processor;
        value           uniform (2.923367797 0.1536329774 0);
    }
    procBoundary21to16
    {
        type            processor;
        value           nonuniform List<vector> 3((2.941051717 0.0391372106 0) (2.902908453 0.02354521604 0) (2.904872551 -0.02775437558 0));
    }
    procBoundary21to22
    {
        type            processor;
        value           nonuniform List<vector> 2((2.939339754 -0.03152749192 0) (3.003802207 -0.05769962113 0));
    }
    procBoundary21to27
    {
        type            processor;
        value           uniform (2.96399992 -0.2081485839 0);
    }
}


// ************************************************************************* //
