/*--------------------------------*- C++ -*----------------------------------*\
  =========                 |
  \\      /  F ield         | OpenFOAM: The Open Source CFD Toolbox
   \\    /   O peration     | Website:  https://openfoam.org
    \\  /    A nd           | Version:  7
     \\/     M anipulation  |
\*---------------------------------------------------------------------------*/
FoamFile
{
    version     2.0;
    format      ascii;
    class       volScalarField;
    location    "1.2";
    object      T;
}
// * * * * * * * * * * * * * * * * * * * * * * * * * * * * * * * * * * * * * //

dimensions      [0 0 0 1 0 0 0];

internalField   nonuniform List<scalar> 5(1.023803438 0.9897488479 1.032218822 1.004338282 1.040729016);

boundaryField
{
    inlet
    {
        type            fixedValue;
        value           nonuniform 0();
    }
    outlet
    {
        type            inletOutlet;
        inletValue      nonuniform 0();
        value           nonuniform 0();
    }
    bottom
    {
        type            slip;
    }
    top
    {
        type            slip;
    }
    obstacle
    {
        type            zeroGradient;
    }
    defaultFaces
    {
        type            empty;
    }
    procBoundary10to4
    {
        type            processor;
        value           uniform 0.9988747183;
    }
    procBoundary10to15
    {
        type            processor;
        value           nonuniform List<scalar> 4(0.9772700009 0.9772700009 0.9584564362 0.9674626171);
    }
    procBoundary10to16
    {
        type            processor;
        value           nonuniform List<scalar> 2(1.016935693 1.045957157);
    }
    procBoundary10to17
    {
        type            processor;
        value           nonuniform List<scalar> 3(1.028772512 1.032451548 1.035603951);
    }
}


// ************************************************************************* //
