/*--------------------------------*- C++ -*----------------------------------*\
  =========                 |
  \\      /  F ield         | OpenFOAM: The Open Source CFD Toolbox
   \\    /   O peration     | Website:  https://openfoam.org
    \\  /    A nd           | Version:  7
     \\/     M anipulation  |
\*---------------------------------------------------------------------------*/
FoamFile
{
    version     2.0;
    format      ascii;
    class       volScalarField;
    location    "2.7";
    object      T;
}
// * * * * * * * * * * * * * * * * * * * * * * * * * * * * * * * * * * * * * //

dimensions      [0 0 0 1 0 0 0];

internalField   nonuniform List<scalar> 
555
(
1
1
1
1
1
1
1
1
1
1
1
1
1.000000001
1.000000025
1.000000663
1.000011573
1
1
1
1
1
1
1
1
1
1
1
1.000000001
1.000000027
1.000000698
1.000012025
1.000149164
1
1
1
1
1
1
1
1
1
1
1.000000001
1.000000028
1.000000655
1.000012388
1.000149404
1.001190707
1
1
1
1
1
1
1
1
1
1.000000001
1.000000026
1.000000732
1.000011482
1.00015539
1.00123447
1.006526968
1
1
1
1
1
1
1
1
1.000000001
1.000000028
1.000000627
1.00001311
1.000139559
1.001304893
1.006706002
1.022899148
1
1
1
1
1
1
1
1.000000001
1.000000026
1.000000731
1.000010767
1.000165119
1.001138501
1.007301529
1.02294086
1.051683146
1
1
1
1
1
1
1.000000001
1.000000026
1.000000627
1.000013411
1.00013237
1.001395951
1.006294769
1.025009227
1.052320617
1.080736107
1
1
1
1
1
1.000000001
1.000000027
1.000000711
1.000010735
1.000168587
1.001116562
1.007633692
1.022855326
1.053244351
1.081752454
1.100470573
1
1
1
1
1.000000001
1.000000026
1.000000662
1.00001323
1.000131601
1.001408803
1.006324619
1.025631982
1.054589675
1.078537247
1.095290208
1.104009753
1
1
1
1.000000001
1.000000028
1.000000696
1.000011228
1.00016712
1.001113774
1.007629436
1.023300379
1.053943596
1.085427244
1.099056706
1.100949684
1.102973662
1
1
1.000000001
1.000000025
1.000000688
1.00001273
1.000133221
1.001396451
1.006337715
1.025739037
1.055654532
1.079041599
1.098123803
1.104638987
1.104308342
1.103658113
1
1.000000001
1.000000029
1.000000665
1.000011618
1.00015897
1.001104483
1.007560016
1.023496963
1.054399656
1.087406478
1.09839338
1.101289985
1.10432792
1.104428438
1.102213613
1.000000001
1.000000023
1.000000694
1.000012088
1.000135735
1.001343098
1.006273664
1.025676271
1.056173778
1.07985421
1.099865234
1.105292589
1.104851916
1.104463805
1.102419427
1.097359483
1.000000028
1.000000624
1.000011798
1.000149201
1.001115372
1.00738981
1.023385093
1.054804616
1.088814901
1.098117435
1.101719341
1.105262081
1.105181316
1.103006862
1.097682519
1.0902976
1.000000678
1.000011347
1.000136633
1.001271322
1.006259235
1.025523287
1.056196859
1.080700409
1.101308764
1.106037714
1.105288139
1.105077419
1.103076454
1.098074457
1.09060549
1.082085704
1.000011511
1.000138286
1.001122438
1.00707641
1.023171321
1.055267201
1.089603895
1.098023425
1.102653268
1.106445909
1.106232944
1.103800248
1.098344552
1.090900524
1.08253373
1.07262777
1.000133331
1.001192763
1.00622538
1.025082146
1.055571725
1.081526432
1.102546188
1.106900802
1.106135073
1.1061713
1.104233992
1.09902418
1.091437435
1.082533713
1.072879922
1.063296734
1.001115794
1.006744373
1.023035454
1.055506263
1.089303643
1.098150346
1.103878879
1.107785678
1.107473654
1.104880346
1.099473275
1.091817562
1.08299684
1.073181583
1.063019025
1.054999997
1.006212264
1.024664095
1.055101291
1.082423814
1.10356072
1.107806306
1.10720152
1.107391128
1.105458056
1.100270894
1.092259592
1.0831788
1.073351688
1.063251344
1.054406263
1.045783497
1.023085152
1.055719261
1.089007791
1.09883016
1.105267679
1.10896118
1.108577893
1.105982594
1.100657001
1.092748486
1.083610694
1.073501523
1.063215227
1.053987407
1.045072596
1.034995734
1.054923871
1.083323582
1.104551503
1.108889784
1.10846574
1.108518359
1.106508065
1.101116548
1.093149023
1.083648939
1.073482217
1.063570766
1.053560961
1.044684099
1.034436256
1.024069536
1.088948585
1.09978191
1.106638585
1.110234373
1.109764736
1.107101665
1.101558755
1.09368691
1.083887785
1.073726041
1.063272383
1.053438237
1.043713122
1.033556253
1.023637824
1.014421255
1.105519956
1.110003029
1.109696357
1.109736243
1.107617057
1.102173169
1.093952104
1.084295128
1.073798462
1.063312543
1.053150963
1.042625334
1.032748966
1.022610649
1.013247302
1.004828095
1.107722712
1.111370107
1.110948237
1.108267249
1.102714829
1.094539991
1.084751644
1.074031417
1.063057865
1.052771919
1.041787777
1.031350555
1.021855216
1.011768934
1.002634276
0.9939731915
1.110638493
1.110797704
1.108810667
1.103423607
1.095002915
1.085280229
1.074110484
1.063207687
1.052344319
1.041209564
1.030107145
1.020053209
1.010814328
0.9999113076
0.9915273821
0.9829881639
1.111868257
1.109354843
1.103866195
1.095791453
1.085628598
1.074557886
1.062999428
1.051792248
1.040851055
1.028326433
1.018451834
1.008822096
0.9980496018
0.9884408192
0.9805046703
0.9717134855
1.109849151
1.104572887
1.096300933
1.086155281
1.075075008
1.062823149
1.051344941
1.039927517
1.027550154
1.016130556
1.006877394
0.9964072209
0.985481383
0.9779036682
0.9694584337
0.9595035991
1.105190521
1.09698373
1.086741011
1.075447331
1.062784972
1.050518391
1.039147604
1.026683902
1.01421603
1.004227967
0.9945307603
0.9828067486
0.974119896
0.966684507
0.9564841575
0.9487457322
1.097667853
1.087445717
1.075663613
1.062987284
1.049954992
1.037941463
1.026182445
1.011899168
1.001581013
0.9922133907
0.980697763
0.9704784768
0.9628173335
0.9542373014
0.9440262434
0.9388179591
1.088035277
1.07601228
1.063322466
1.049325175
1.036842911
1.024452894
1.010646789
0.9983654937
0.9891931804
0.9787217376
0.9662548857
0.9587912077
0.9516418731
0.9417145821
0.9345254785
0.9288093039
1.076564941
1.063229656
1.04927708
1.035057641
1.022644806
1.009636746
0.9955838314
0.9858936188
0.9761771409
0.96339603
0.9538327298
0.947178071
0.938175741
0.9291999731
0.9239134493
0.9178035219
1.063204837
1.048439293
1.033770845
1.020581996
1.00819505
0.9932118343
0.9815285217
0.9722138917
0.9605287431
0.9495399218
0.9428186642
0.935734632
0.9249644646
0.9178803679
0.9118742325
0.9031158025
1.047698902
1.032206347
1.018902701
1.005773124
0.9910075665
0.9772879109
0.9679400004
0.9580014014
0.9445732679
0.9364751121
0.9302847329
0.9210702469
0.9135090045
0.9078451049
0.9006611964
0.8911886144
1.030972811
1.016282852
1.002425951
0.9878427953
0.9725198628
0.9629925135
0.9544199894
0.9423231608
0.9316812875
0.9250376749
0.9168318565
0.9065264445
0.8999512277
0.8939460512
0.8847086866
0.8781216096
1.013694045
0.9986650557
0.9845119222
0.9696545824
0.9580259238
0.9490210333
0.9374554925
0.9241811815
0.9175982455
0.9124302632
0.9027848385
)
;

boundaryField
{
    inlet
    {
        type            fixedValue;
        value           nonuniform 0();
    }
    outlet
    {
        type            inletOutlet;
        inletValue      nonuniform 0();
        value           nonuniform 0();
    }
    bottom
    {
        type            slip;
    }
    top
    {
        type            slip;
    }
    obstacle
    {
        type            zeroGradient;
    }
    defaultFaces
    {
        type            empty;
    }
    procBoundary4to3
    {
        type            processor;
        value           nonuniform List<scalar> 
30
(
1
1
1
1
1
1
1
1
1
1
1
1
1
1.000000001
1.000000021
1.000000562
1.000010318
1.000127917
1.001135438
1.006530602
1.02440808
1.055714015
1.083796502
1.100501199
1.110909598
1.112254336
1.111776821
1.110484702
1.106085627
1.098697621
)
;
    }
    procBoundary4to5
    {
        type            processor;
        value           nonuniform List<scalar> 
34
(
1.000153533
1.001253364
1.006785993
1.023273188
1.051430694
1.080058071
1.091951363
1.100044139
1.103678289
1.103503118
1.101654339
1.096957606
1.089890101
1.081862481
1.072601145
1.063543214
1.055505987
1.046270182
1.035388099
1.025051116
1.016551588
1.007245859
0.9962918275
0.9848641384
0.9730957964
0.9625355094
0.9526307482
0.9431715963
0.9331108054
0.9204899051
0.9081930032
0.8954249492
0.8851002759
0.8751991586
)
;
    }
    procBoundary4to9
    {
        type            processor;
        value           nonuniform List<scalar> 5(1.088601195 1.076844319 1.062950878 1.046609408 1.029107036);
    }
    procBoundary4to10
    {
        type            processor;
        value           nonuniform List<scalar> 
17
(
0.8957187668
0.8892691795
0.8813318403
0.8760729452
0.8736358595
0.9944364278
0.9796066679
0.9657180579
0.9522997894
0.9436738547
0.9342179545
0.9195505316
0.9103318116
0.9047215602
0.895716172
0.8957187668
0.887027604
)
;
    }
}


// ************************************************************************* //
