/*--------------------------------*- C++ -*----------------------------------*\
  =========                 |
  \\      /  F ield         | OpenFOAM: The Open Source CFD Toolbox
   \\    /   O peration     | Website:  https://openfoam.org
    \\  /    A nd           | Version:  7
     \\/     M anipulation  |
\*---------------------------------------------------------------------------*/
FoamFile
{
    version     2.0;
    format      ascii;
    class       volScalarField;
    location    "4";
    object      T;
}
// * * * * * * * * * * * * * * * * * * * * * * * * * * * * * * * * * * * * * //

dimensions      [0 0 0 1 0 0 0];

internalField   nonuniform List<scalar> 5(1.049108478 1.014739311 1.046780826 1.005316637 1.041520202);

boundaryField
{
    inlet
    {
        type            fixedValue;
        value           nonuniform 0();
    }
    outlet
    {
        type            inletOutlet;
        inletValue      nonuniform 0();
        value           nonuniform 0();
    }
    bottom
    {
        type            slip;
    }
    top
    {
        type            slip;
    }
    obstacle
    {
        type            zeroGradient;
    }
    defaultFaces
    {
        type            empty;
    }
    procBoundary22to16
    {
        type            processor;
        value           nonuniform List<scalar> 3(1.05024088 1.027522048 1.027522048);
    }
    procBoundary22to21
    {
        type            processor;
        value           nonuniform List<scalar> 2(0.9745402575 0.9668497479);
    }
    procBoundary22to28
    {
        type            processor;
        value           nonuniform List<scalar> 2(0.9914223978 1.032989364);
    }
    procBoundary22to29
    {
        type            processor;
        value           nonuniform List<scalar> 3(1.038342195 1.038151505 1.03543407);
    }
}


// ************************************************************************* //
