/*--------------------------------*- C++ -*----------------------------------*\
  =========                 |
  \\      /  F ield         | OpenFOAM: The Open Source CFD Toolbox
   \\    /   O peration     | Website:  https://openfoam.org
    \\  /    A nd           | Version:  7
     \\/     M anipulation  |
\*---------------------------------------------------------------------------*/
FoamFile
{
    version     2.0;
    format      ascii;
    class       volScalarField;
    location    "0.6";
    object      T;
}
// * * * * * * * * * * * * * * * * * * * * * * * * * * * * * * * * * * * * * //

dimensions      [0 0 0 1 0 0 0];

internalField   nonuniform List<scalar> 
2222
(
1.00128834
1.000841739
1.013097233
1.01314859
1.01321209
1.012964067
1.012668045
1.012117158
1.011495852
1.010653635
1.009715699
1.008402265
1.006899886
1.006159623
1.005873706
1.004932975
1.004200113
1.003704726
1.003545382
1.003796074
1.003780421
1.003392715
1.002985102
1.002610797
1.002185742
1.001697558
1.001522976
1.00147001
1.001322944
1.00085552
1.013527326
1.013431662
1.013331851
1.013207019
1.013066599
1.0130046
1.013143875
1.013144145
1.013146389
1.013013059
1.012756803
1.012152938
1.011303141
1.010407915
1.00935648
1.008213107
1.007294194
1.006852899
1.005972473
1.004836479
1.004089916
1.003882588
1.004044267
1.004102608
1.003767967
1.003236216
1.002753085
1.00239562
1.002059339
1.001800173
1.001649373
1.001563553
1.001393224
1.00089127
1.013252663
1.013121574
1.012995496
1.012932878
1.012948993
1.012839126
1.012930518
1.013113629
1.012928466
1.012893958
1.012510036
1.012003007
1.011163995
1.010204726
1.009091258
1.008215778
1.007791749
1.007202728
1.005864214
1.004774217
1.004263802
1.004303224
1.004385557
1.004038234
1.003628048
1.003181408
1.002641929
1.002238671
1.001985161
1.001933845
1.001904788
1.001794203
1.001550768
1.000950666
1.013056959
1.013112281
1.012926173
1.012800518
1.012790968
1.012775145
1.012765859
1.012912008
1.012659935
1.012633003
1.012141983
1.011685761
1.011010083
1.010131017
1.009337091
1.008875862
1.008272767
1.007047101
1.005713466
1.004816535
1.004644161
1.00462502
1.004346406
1.003930023
1.003474906
1.003053238
1.002673853
1.002406776
1.002266167
1.002071456
1.001947142
1.001888972
1.001603859
1.001050033
1.013047269
1.013021915
1.012923791
1.012755236
1.012632179
1.012787719
1.012769408
1.012595687
1.012660109
1.012264442
1.012019486
1.011462377
1.010966754
1.010240362
1.009694694
1.00931051
1.008462724
1.006849853
1.005642761
1.005077601
1.004979642
1.004701555
1.004238006
1.003858078
1.003468641
1.003060661
1.002829527
1.002748871
1.002593657
1.002245392
1.001920799
1.001786892
1.001471386
1.001077789
1.012758202
1.012749852
1.012647792
1.012523367
1.012477754
1.012497948
1.012476308
1.012386843
1.012402614
1.012121818
1.011930127
1.011655585
1.011194658
1.010469088
1.009906854
1.009214561
1.008226363
1.006907308
1.005635662
1.005270816
1.005023808
1.004617693
1.004202897
1.003890161
1.003619718
1.003309545
1.003082857
1.002926019
1.002675886
1.002402382
1.002024044
1.001597249
1.0013584
1.001078575
1.012541086
1.01249157
1.012407013
1.012346101
1.012401186
1.012267572
1.01226711
1.012391718
1.012245431
1.01218623
1.012046195
1.011954981
1.011515758
1.010806036
1.01003738
1.009104686
1.007923007
1.006639233
1.005744304
1.005466584
1.005035018
1.004539019
1.004264331
1.003974003
1.003692339
1.003497981
1.003289852
1.002947477
1.002547596
1.002210777
1.00196522
1.001524237
1.001428799
1.001221716
1.012650672
1.012687888
1.012684327
1.012726634
1.012750942
1.012766383
1.012721875
1.01258932
1.012416671
1.012427209
1.012045585
1.011512271
1.010914409
1.010178099
1.009197907
1.00768868
1.006457202
1.006181325
1.005717761
1.005158874
1.004694188
1.004310683
1.003942182
1.003619189
1.003486902
1.003336375
1.002999621
1.002454019
1.001965337
1.00171637
1.001535641
1.001526661
1.001315215
1.013018938
1.013154889
1.013270884
1.013313688
1.013293428
1.01333962
1.013268262
1.013009997
1.012929854
1.012620721
1.01202373
1.011327552
1.010654188
1.009900315
1.00895196
1.007822457
1.007062783
1.006521268
1.005834445
1.005208921
1.004798308
1.00423609
1.003798128
1.003554226
1.003377249
1.003161726
1.002808108
1.002367502
1.001883499
1.001481603
1.001558304
1.001717415
1.001178141
1.013518107
1.013470389
1.013489117
1.0134369
1.013480724
1.013470943
1.013410907
1.013271063
1.013042929
1.012611335
1.01205514
1.011215841
1.010409468
1.009656149
1.00876236
1.008092805
1.007563536
1.006558219
1.005706619
1.005139925
1.004613693
1.004112113
1.00369523
1.003556094
1.003344381
1.002895656
1.002473006
1.002090547
1.001781461
1.001678354
1.001882239
1.001830145
1.000998858
1.01355724
1.013457647
1.01335284
1.013334572
1.01342731
1.013415878
1.013299326
1.013226897
1.012841689
1.012395334
1.011786701
1.011208777
1.010632926
1.009983561
1.009212063
1.008508429
1.007502426
1.006524932
1.005573067
1.00504665
1.004349752
1.00395067
1.003704493
1.003596558
1.003392598
1.002861208
1.002237272
1.001902201
1.001844034
1.002078591
1.002097011
1.001697856
1.000949981
1.013388843
1.013216135
1.013147938
1.013268269
1.013267648
1.013201183
1.013121968
1.01296281
1.012553164
1.01209097
1.011576972
1.011272954
1.010934226
1.010311289
1.00954747
1.00862041
1.007406117
1.0064644
1.005628752
1.004866211
1.004273975
1.003882644
1.003814684
1.003578107
1.00319847
1.002755965
1.00233576
1.002147985
1.002246603
1.002297731
1.001971602
1.001447482
1.000803134
1.013146535
1.012897718
1.012937297
1.013039435
1.013029097
1.012879943
1.012812706
1.012595058
1.012361539
1.011881836
1.011685992
1.011567031
1.011081156
1.010279597
1.009424356
1.008442575
1.007354963
1.006240646
1.005395835
1.00457754
1.004172107
1.004006676
1.00393441
1.00357728
1.003024732
1.002703195
1.002629422
1.002639636
1.002520849
1.002183229
1.001758999
1.001288661
1.000713755
1.012810586
1.012719529
1.012774208
1.012765983
1.012759331
1.012553771
1.012485569
1.012354912
1.012223778
1.012016225
1.012004554
1.01180186
1.011135315
1.01021987
1.009219492
1.008195516
1.007107718
1.00588805
1.005058042
1.00442921
1.004130576
1.004152006
1.003974615
1.003640808
1.003279327
1.003075812
1.002972106
1.002805565
1.002514848
1.002070155
1.001592383
1.001253209
1.000998252
1.012645228
1.012594466
1.012616674
1.0125064
1.012429994
1.012348881
1.01222252
1.012209931
1.012090269
1.012189251
1.012204807
1.011833925
1.011159413
1.010287025
1.009179822
1.007917145
1.00678804
1.005603116
1.00481415
1.004437284
1.004349887
1.004197557
1.003892747
1.003645219
1.003502268
1.003299364
1.002995592
1.00268196
1.002323397
1.001926553
1.001516228
1.001370384
1.001230606
1.012469441
1.012567589
1.012534375
1.012461112
1.012293705
1.012294981
1.012227852
1.012200809
1.012347399
1.01237208
1.01213445
1.011648749
1.010951257
1.010083667
1.009019143
1.007738809
1.006507229
1.005643099
1.004983102
1.004722245
1.004577826
1.004203505
1.003826788
1.003660405
1.003483844
1.003235453
1.002936368
1.00249771
1.002046475
1.001683317
1.001506705
1.001568078
1.001129742
1.012414935
1.012581367
1.012575144
1.012394589
1.012261261
1.012265407
1.012421904
1.012486428
1.012545378
1.012332989
1.011958062
1.011395322
1.010623873
1.009757823
1.008703903
1.00765183
1.006563701
1.005736661
1.005365696
1.005089179
1.004634738
1.004186165
1.003896112
1.003695781
1.003404852
1.003076592
1.002764983
1.002256909
1.001765041
1.001494064
1.001586655
1.001580594
1.000974387
1.01269717
1.012726529
1.012559878
1.012339135
1.012406767
1.012651063
1.012797172
1.012605624
1.01240826
1.012133297
1.011802408
1.011117113
1.010363122
1.009517954
1.008493118
1.007532543
1.006818713
1.006365052
1.005813487
1.005179477
1.00456857
1.004143937
1.003937202
1.003718326
1.003377408
1.002911535
1.00243593
1.00201821
1.001733296
1.001607592
1.001694144
1.001481019
1.000827105
1.013023035
1.012836228
1.012661508
1.012683204
1.012807309
1.012883174
1.012790847
1.012558121
1.01221659
1.011824805
1.011475119
1.011027898
1.010403487
1.009615753
1.008714669
1.008059739
1.007514267
1.006720383
1.00584816
1.005129982
1.004517686
1.004166656
1.003907259
1.003597821
1.003238932
1.002750487
1.002200394
1.001894285
1.001752761
1.001850836
1.001731656
1.001324273
1.000713646
1.013068516
1.012867076
1.012849521
1.012943889
1.012916384
1.012771493
1.012604904
1.012418666
1.012007381
1.011596936
1.011290611
1.010888931
1.010460697
1.0098977
1.009301476
1.008689863
1.007734477
1.006703553
1.005725565
1.004985769
1.004494222
1.00415826
1.003817377
1.003436599
1.002998069
1.002621546
1.002232457
1.002006055
1.002049525
1.001990606
1.001634075
1.001230526
1.000685424
1.012994923
1.012899467
1.012902867
1.01288521
1.01279585
1.012605547
1.012363545
1.012170005
1.01199567
1.011636803
1.011429988
1.01126281
1.01097249
1.010436304
1.009679983
1.008743654
1.007735861
1.006572183
1.00553976
1.004819841
1.004380916
1.004046139
1.003730791
1.003251036
1.002815685
1.002492265
1.002378137
1.002381992
1.002242142
1.00191396
1.001493046
1.001196351
1.000827826
1.012904255
1.012855053
1.012826629
1.012739003
1.012635881
1.012403392
1.012161367
1.012077002
1.011959637
1.011821387
1.011871717
1.01176145
1.011246134
1.010492755
1.009645302
1.008661934
1.007627949
1.00638803
1.005281554
1.004621064
1.004223825
1.003883319
1.003543448
1.003216168
1.002856109
1.002670017
1.002741568
1.002576356
1.002216275
1.001818088
1.001335417
1.001173379
1.000884131
1.012800279
1.012752445
1.012708605
1.012592567
1.0123478
1.012219927
1.012169367
1.012186115
1.012318021
1.012324411
1.012155808
1.011781826
1.011248243
1.010470965
1.009583648
1.008546597
1.007406512
1.006112787
1.005006992
1.004464749
1.004076502
1.003738911
1.003437299
1.003169683
1.003051908
1.003079863
1.00286321
1.002516172
1.002127061
1.001664868
1.001319867
1.001162677
1.000842858
1.012625557
1.012513639
1.012359207
1.012202993
1.012141373
1.012250348
1.012624941
1.012770454
1.012488273
1.012121296
1.011719313
1.011183012
1.010402062
1.00949246
1.008417945
1.00706973
1.005605014
1.004820195
1.004441012
1.004098019
1.003771063
1.003501015
1.003394538
1.003440227
1.003246399
1.002863501
1.002407377
1.001921933
1.001376664
1.001269766
1.001183513
1.000800634
1.012408723
1.012366674
1.012327322
1.012274695
1.012399463
1.012759271
1.012946895
1.012833899
1.012495456
1.012069957
1.011627686
1.011006986
1.010172271
1.009207657
1.008014734
1.006652955
1.005502936
1.0047923
1.004391985
1.004147626
1.003905071
1.003798208
1.003753082
1.00353173
1.00321264
1.002811596
1.002277611
1.001626663
1.001305551
1.001216991
1.001247053
1.000770366
1.012408844
1.012425028
1.01230858
1.012476067
1.012937727
1.013083716
1.012979633
1.012848634
1.012498592
1.012033989
1.011436582
1.010709007
1.009850053
1.008971692
1.00784304
1.006625788
1.005543941
1.004977714
1.004709165
1.004457869
1.004233129
1.00405279
1.003835648
1.003533108
1.003116773
1.002606775
1.001879161
1.001474919
1.001353538
1.001373442
1.001314179
1.000723349
1.012500762
1.012478483
1.012624782
1.012890253
1.013007179
1.013083725
1.012987087
1.012771062
1.012388166
1.01177795
1.011125566
1.010437958
1.009732376
1.008932491
1.007897369
1.006737569
1.005873847
1.005545536
1.005216103
1.004721109
1.004341851
1.004063545
1.003833622
1.0035301
1.003034261
1.002229608
1.001689096
1.001441632
1.001434253
1.001548889
1.001305625
1.000663707
1.01275409
1.012793772
1.013045579
1.013120211
1.013122849
1.013025792
1.012943864
1.012591659
1.012120074
1.011582744
1.011041687
1.010465755
1.009782661
1.008982826
1.008013988
1.007200989
1.006695174
1.006050285
1.00525569
1.004727054
1.004314589
1.004006369
1.003735429
1.003351449
1.002680518
1.002031992
1.00170436
1.001541643
1.001672755
1.001548404
1.001263638
1.000561148
1.012893338
1.013068681
1.013104328
1.013195981
1.01320435
1.013066578
1.012707833
1.012192848
1.011901452
1.011603907
1.011135459
1.010570278
1.009928714
1.009193297
1.008487266
1.007897149
1.007078616
1.006156545
1.005344116
1.004755901
1.004313744
1.003976098
1.003603732
1.002997668
1.002354829
1.002019604
1.001775995
1.001823659
1.001782296
1.001462606
1.001109351
1.000440656
1.013134302
1.013170148
1.013054534
1.013045486
1.012990949
1.012733928
1.012272385
1.012005405
1.011922362
1.011700382
1.01129157
1.010851921
1.010349681
1.009650397
1.008901676
1.008037492
1.007077406
1.006166825
1.005372282
1.004669094
1.004190656
1.003759309
1.00323242
1.002733734
1.002342531
1.002012143
1.002019323
1.002047926
1.001762479
1.001346516
1.000852619
1.000366039
1.013270977
1.013095714
1.013113585
1.012937211
1.012600394
1.012194483
1.012067743
1.012055866
1.012031881
1.011893961
1.011631528
1.011240077
1.010550641
1.009760146
1.008948763
1.007987584
1.007083082
1.006062494
1.005159347
1.004428227
1.003862343
1.003396799
1.00300323
1.00268337
1.00236185
1.002227998
1.002316669
1.00202193
1.001637374
1.001050871
1.000675783
1.000313948
1.013159234
1.013034112
1.012830438
1.012458029
1.012132035
1.01202758
1.012070018
1.012143572
1.012235092
1.012262829
1.01189077
1.011305412
1.010558334
1.009764611
1.008958563
1.00806445
1.007118912
1.005970392
1.004725748
1.003934919
1.003517164
1.003227903
1.002973749
1.00265683
1.002454565
1.002591565
1.002373318
1.001934247
1.001356881
1.000836533
1.00062304
1.000298509
1.012805263
1.012545706
1.012255225
1.012073042
1.012055582
1.012081208
1.012139689
1.012292598
1.012552088
1.012371762
1.011942797
1.011294456
1.01048633
1.009682105
1.008870138
1.008064755
1.006804554
1.005224981
1.004050547
1.003646092
1.003411065
1.003187278
1.002942443
1.002726725
1.002765207
1.002683117
1.002303328
1.001695543
1.001031819
1.000765099
1.000577397
1.000330754
1.012176692
1.012072722
1.011973825
1.011957122
1.012028449
1.012121836
1.012288237
1.01257791
1.012580033
1.012331554
1.011830499
1.011147711
1.010385214
1.009620728
1.008766317
1.007753364
1.006057148
1.004390124
1.003761068
1.003526696
1.003347473
1.003141866
1.00296899
1.002974127
1.00294433
1.002588851
1.00208368
1.0012886
1.000891299
1.000712631
1.000621363
1.000278858
1.011925771
1.01190458
1.0119206
1.011924007
1.011980951
1.01217759
1.01251459
1.012633873
1.012505576
1.012158324
1.011605657
1.010968866
1.010289328
1.009533605
1.008672923
1.007093719
1.005169608
1.004153746
1.003680992
1.003423877
1.003257762
1.003163749
1.003174909
1.003132224
1.002846656
1.002459034
1.001695727
1.001011586
1.000804728
1.000725122
1.000687071
1.000130748
1.011755062
1.01179614
1.011828633
1.011890543
1.012068417
1.012415738
1.012638915
1.012563709
1.012356242
1.011930783
1.011417048
1.010857069
1.01017744
1.009360423
1.008206761
1.006324296
1.004809496
1.004084766
1.003626379
1.003412658
1.003350916
1.003371697
1.003287062
1.00304155
1.002661187
1.002097935
1.001232485
1.000895084
1.00075217
1.000803427
1.000606927
0.9999222387
1.011607257
1.011678082
1.011744408
1.011945502
1.012286533
1.012584226
1.012602742
1.012447051
1.012166843
1.01175945
1.011280613
1.010719081
1.010019778
1.00910378
1.007637199
1.00606625
1.004675082
1.003916509
1.003643926
1.003607653
1.003596936
1.003414709
1.003130457
1.002826412
1.0024036
1.001544278
1.001041539
1.000825748
1.000752155
1.000762224
1.000494619
0.9996875349
1.011661107
1.011759927
1.01197831
1.012256452
1.012389673
1.012440361
1.012364808
1.01222376
1.011948638
1.011557515
1.011113359
1.010550747
1.009772737
1.008727939
1.007401706
1.00591356
1.004764155
1.004219343
1.004100726
1.003919245
1.003570439
1.003244015
1.002926018
1.002542583
1.001851584
1.001201887
1.00093398
1.000783464
1.000782688
1.000665986
1.000342246
0.9995675402
1.012161227
1.012227801
1.012268697
1.01225114
1.01223823
1.012178136
1.012054398
1.011859871
1.011634084
1.011331936
1.010947906
1.010360624
1.009546446
1.008580018
1.00740914
1.006194223
1.005499937
1.005014662
1.004431234
1.003881281
1.003436762
1.003020109
1.002603632
1.002074768
1.00148062
1.001103341
1.000989242
1.000953032
1.000765452
1.000554372
1.000223719
0.9995727906
1.011592197
1.011545489
1.011475391
1.011400052
1.011371746
1.011379403
1.011430044
1.011422393
1.011341398
1.011155214
1.010820748
1.010309776
1.009614711
1.008792655
1.007862835
1.006773724
1.005584598
1.004519835
1.003742751
1.003225051
1.002865981
1.002574332
1.002278998
1.001963742
1.001633369
1.001314308
1.000993648
1.000683306
1.000435055
1.000223074
1.000013366
0.9994650066
1.01101891
1.011026743
1.011024339
1.010983038
1.010935982
1.010934168
1.010933416
1.010898167
1.010786537
1.010597964
1.01030053
1.009840303
1.009173389
1.008337266
1.00738863
1.006275828
1.005062896
1.004004333
1.003291742
1.002831303
1.002476238
1.002176086
1.001874897
1.001540971
1.001168176
1.000798529
1.00044419
1.000137823
0.999887051
0.9996836806
0.9994922523
0.9989727783
1.010235598
1.0102543
1.010258586
1.010221272
1.010152012
1.01012438
1.010097842
1.010039462
1.009942452
1.009794524
1.009543996
1.009131002
1.008498392
1.007670637
1.006719174
1.00561397
1.004435177
1.0033974
1.002675884
1.002229153
1.001871778
1.001547721
1.001217564
1.000856873
1.000465782
1.000094562
0.9997564657
0.9994879137
0.9992524956
0.9990499075
0.9988655278
0.998361212
1.009343737
1.009388613
1.009408975
1.009397223
1.009382185
1.009384067
1.009366159
1.009321126
1.009247506
1.009119763
1.008890473
1.008500929
1.007889478
1.007063306
1.006085883
1.004956017
1.003787317
1.002765102
1.002030784
1.001608682
1.001288785
1.000979815
1.000636822
1.000253415
0.9998518453
0.999480686
0.9991403759
0.998874748
0.9986297406
0.9984064192
0.9982127968
0.9977133014
1.008676528
1.008751605
1.008810279
1.008841369
1.008867573
1.008892726
1.008882381
1.008849607
1.008789508
1.008664072
1.008425911
1.008024742
1.007399613
1.006551136
1.005548502
1.004398092
1.003228847
1.002216931
1.001475775
1.001059794
1.00074677
1.000433388
1.000080384
0.99970333
0.9993172013
0.998960955
0.9986374601
0.9983826196
0.9981274261
0.9978810443
0.9976712996
0.9971644251
1.008366809
1.008463931
1.008554701
1.008589428
1.008593034
1.008573895
1.008534939
1.008504388
1.008444799
1.008317854
1.008078348
1.007672931
1.007043251
1.006190288
1.005182089
1.004038314
1.002892828
1.001887278
1.00109995
1.000640027
1.000328955
1.000023011
0.9996821802
0.9993159256
0.9989438014
0.9986108224
0.9983266407
0.9980846352
0.9978170913
0.9975498766
0.9973260639
0.9968230012
1.008278493
1.008381604
1.008395497
1.008401499
1.008389639
1.008344152
1.008301055
1.008281555
1.008231804
1.008102
1.007857765
1.007451481
1.006824513
1.005973546
1.004957903
1.003808434
1.002681
1.001680149
1.000846037
1.000376028
1.000077548
0.9997879663
0.9994671456
0.9991061955
0.998746294
0.9984181085
0.998142158
0.9978819329
0.997574248
0.9972740939
0.9970363371
0.9965448024
1.008246686
1.008304463
1.008300718
1.00829574
1.008266255
1.008174213
1.008134896
1.008132691
1.008095742
1.007970751
1.007728697
1.007326383
1.00669614
1.005832653
1.004805841
1.003661302
1.002547336
1.00154977
1.000671648
1.000165693
0.9998999574
0.9996463741
0.9993463267
0.998995934
0.9986628282
0.9983256302
0.9980222943
0.9977436926
0.997407215
0.9970711404
0.9968241358
0.9963589486
1.00812845
1.008168362
1.00818021
1.008173768
1.008135574
1.008027652
1.008002437
1.008016003
1.007998211
1.007906877
1.007676443
1.007263888
1.006629013
1.005753677
1.00470997
1.003563644
1.002456695
1.001459853
1.000552269
0.9999968586
0.9997599799
0.9995440718
0.9992623837
0.9989322307
0.9986267828
0.9982894343
0.9979508129
0.9976405389
0.9973143483
0.9970074883
0.9967853885
0.9962837818
1.008039813
1.008063238
1.008073729
1.008070201
1.008034545
1.007953669
1.007935276
1.007943363
1.007920181
1.007824919
1.007601268
1.007199434
1.006574585
1.005702928
1.004667852
1.003549114
1.002457142
1.001441821
1.000474666
0.999881493
0.999654861
0.9994725028
0.9992317548
0.9989290815
0.998619944
0.9982809467
0.997919323
0.9975851858
0.9972496233
0.9969187165
0.996682328
0.9961827344
1.008043656
1.008032549
1.008003579
1.007978701
1.007933234
1.007876172
1.007878563
1.007900678
1.007884729
1.007789135
1.007557016
1.007146084
1.006515338
1.00565087
1.004644714
1.003555624
1.002457125
1.001430343
1.000445635
0.9997958376
0.9995804129
0.9994094929
0.9991804231
0.9988861461
0.998586992
0.9982590018
0.9979006305
0.9975621799
0.9972287272
0.9968698579
0.9965737525
0.9960540716
1.008114098
1.008089105
1.008024621
1.0079615
1.007872643
1.007849919
1.00787185
1.00790076
1.007894157
1.0077921
1.00754383
1.007114274
1.006466944
1.005597644
1.004608748
1.003551376
1.002461238
1.001431146
1.000454587
0.9997732601
0.9995399253
0.9993727313
0.9991472811
0.9988527475
0.9985541586
0.9982342926
0.997879823
0.9975419512
0.9971994441
0.9968575762
0.9965937328
0.9960688348
1.007995174
1.007992083
1.00797306
1.007939509
1.0078909
1.007880741
1.007879961
1.007879402
1.00787047
1.007768489
1.00751015
1.007076781
1.006444078
1.005573089
1.004586442
1.003554394
1.002487332
1.001474495
1.000492858
0.9997645494
0.9995171419
0.9993561322
0.9991351468
0.9988413363
0.9985391521
0.9982122543
0.9978382934
0.9974931414
0.9971649942
0.9968315459
0.9965480814
0.9959918932
1.007732753
1.007805907
1.00784811
1.007861555
1.007874271
1.007864596
1.007834096
1.007801659
1.007777727
1.007674702
1.007419208
1.007012095
1.006434171
1.00560793
1.004629612
1.003609365
1.002559537
1.00155224
1.000562506
0.9997837498
0.9995035905
0.9993486622
0.9991357717
0.9988429489
0.998535368
0.9981977296
0.9977977388
0.9974359113
0.9971094204
0.9967817399
0.9964776539
0.9958861541
1.00741771
1.00755179
1.007663535
1.007750759
1.007762179
1.007711262
1.007644878
1.007620638
1.007604861
1.007530018
1.00730979
1.006951908
1.006422832
1.005646434
1.004690275
1.003668975
1.002608295
1.001595003
1.000623866
0.9997842484
0.9994957787
0.9993544968
0.9991443171
0.9988484683
0.998532404
0.9981785384
0.9977619006
0.9973780145
0.9970373899
0.9967067355
0.9964046993
0.9958122364
1.007425951
1.007473454
1.007545706
1.007608566
1.0075655
1.007543232
1.007548949
1.007558776
1.007541447
1.007469445
1.007277859
1.006933298
1.00641021
1.005649283
1.004710071
1.003701651
1.002634497
1.001616795
1.000689054
0.999829654
0.9994806807
0.9993487507
0.9991438772
0.9988334398
0.9984936622
0.9981191418
0.9977025141
0.9973171087
0.9969764386
0.996650515
0.9963453997
0.9957410496
1.00778457
1.007716065
1.007637286
1.007493701
1.00745336
1.007473007
1.00753995
1.007644442
1.007630827
1.007544396
1.00732885
1.006961583
1.006437572
1.005684414
1.004735587
1.003723718
1.002652725
1.001643506
1.000764102
0.999921335
0.9994750253
0.9993258067
0.9991196565
0.9987915636
0.9984280092
0.998033636
0.9976228466
0.9972497022
0.9969197596
0.9965966277
0.99628715
0.9957012969
1.007905419
1.007791158
1.007602414
1.007456409
1.007486557
1.007526969
1.007596153
1.00769277
1.007684277
1.007598254
1.007371808
1.006983219
1.006484559
1.005773022
1.004832232
1.003794378
1.002703885
1.001711148
1.000872352
0.9999748041
0.9994631075
0.9992929322
0.9990752413
0.9987437455
0.9983591958
0.9979400714
0.9975299029
0.997174037
0.996863823
0.9965519592
0.9962492238
0.9956840934
1.007108242
1.007287769
1.00745344
1.007515759
1.007521333
1.007505566
1.007540984
1.007576958
1.007574734
1.007503192
1.007272081
1.006954203
1.006525567
1.005892322
1.004993999
1.003922894
1.002793159
1.001823837
1.001007533
1.000095597
0.9995249992
0.999317757
0.9990789808
0.9987221482
0.998302194
0.997858757
0.997449786
0.9971054217
0.9968101573
0.9965118297
0.9962264241
0.9956780663
1.00654171
1.007069855
1.007464165
1.007532729
1.007488682
1.007301888
1.007212336
1.007208389
1.007245506
1.007249977
1.007102656
1.006873646
1.00654452
1.005968218
1.005095683
1.004013078
1.002868829
1.001942023
1.0011255
1.000179367
0.9995230358
0.999300884
0.9990501301
0.9986882723
0.9982612541
0.9978283548
0.9974300039
0.997084713
0.9967906256
0.9964918176
0.9962144043
0.9956662874
1.007280446
1.007763502
1.007640137
1.007488587
1.007245856
1.007057974
1.006996383
1.007036476
1.007121038
1.007168596
1.007044581
1.00678506
1.006452627
1.005918004
1.005043188
1.003954482
1.002879758
1.002029661
1.001200889
1.000216374
0.9995669543
0.9993072441
0.9990180128
0.9986327678
0.9981928945
0.9977717544
0.9974126069
0.9970910825
0.9967988228
0.9964886169
0.9962031465
0.9956410872
1.008871994
1.008416824
1.007793274
1.00730099
1.007131671
1.007058163
1.007208542
1.007411603
1.007491766
1.007385689
1.007077183
1.00663945
1.006222405
1.00571269
1.004912012
1.003881594
1.002877705
1.002057311
1.001228302
1.000192859
0.9995286472
0.9992547863
0.9989508705
0.998553863
0.9981164864
0.9977112019
0.9973775981
0.9970798366
0.996796255
0.9964792618
0.9961848194
0.9956096704
1.008327595
1.007095035
1.00714536
1.007381639
1.007452272
1.007511652
1.00763137
1.007739154
1.007669248
1.007449017
1.007014423
1.006534462
1.006091498
1.005607113
1.004877912
1.003879895
1.002887064
1.002035596
1.001219802
1.000176037
0.9994560098
0.9991714122
0.9988493936
0.998452003
0.998029294
0.997640126
0.9973288321
0.997038121
0.9967507711
0.9964129155
0.996137164
0.9955917091
1.003096061
1.004365539
1.006485999
1.00784415
1.007677766
1.007586409
1.007488272
1.007387366
1.007366726
1.007229439
1.006892364
1.0065104
1.006169866
1.005760923
1.00508904
1.004078933
1.002959203
1.001989816
1.001196016
1.00027415
0.9995698939
0.9991693087
0.998758475
0.9983306173
0.9979114353
0.9975042082
0.9971972486
0.9969097758
0.996625776
0.9962735286
0.9960268249
0.9955538523
0.9956670579
1.004899731
1.007824871
1.007557718
1.007280508
1.006835923
1.005911552
1.005909768
1.006438013
1.006825293
1.006783263
1.006583296
1.006144802
1.00565045
1.004978284
1.004013572
1.002911304
1.001939191
1.00117893
1.000404455
0.9996885774
0.9992040671
0.9987471727
0.9982793357
0.9977899009
0.9973526383
0.9970465362
0.9967814616
0.9965074714
0.9961515896
0.9958841711
0.9954414686
0.980700348
1.002844647
1.004762796
1.003527949
1.005157826
1.005082113
1.004578472
1.005167965
1.006360545
1.00692201
1.006831877
1.00645569
1.00580379
1.00520329
1.004589354
1.003714888
1.002746974
1.001917096
1.001163791
1.000374135
0.9996192353
0.999053111
0.998582145
0.9981210597
0.9977107382
0.9973205059
0.997015418
0.9967757055
0.9964898002
0.9960646887
0.9957396778
0.9952832947
0.9219129228
0.9639156135
0.9810155357
0.9937235002
1.005664202
1.004753328
1.005242188
1.006613782
1.00744418
1.007160958
1.006733451
1.005940315
1.00497771
1.004378438
1.003987688
1.003393124
1.002680846
1.00188571
1.001091497
1.000131238
0.9992908927
0.9987469198
0.9982911685
0.9978751255
0.9975648223
0.9972918708
0.9970711114
0.9968454164
0.9965462921
0.9960676967
0.995608714
0.9950927581
0.8708431427
0.897604475
0.9413523463
0.9794023072
0.9993502843
1.001635255
1.005544037
1.007604702
1.007246837
1.006522229
1.006043362
1.005234503
1.004370473
1.004068597
1.003881021
1.003532437
1.002797964
1.001824993
1.00079673
0.9998233141
0.9989531717
0.9984208112
0.9980198887
0.9976768531
0.9974058333
0.9971420336
0.9969370151
0.9967249957
0.9964291867
0.9959785118
0.9955045534
0.9949339782
0.8587867675
0.8625609482
0.8823888333
0.9158553342
0.9537979674
0.9782733343
1.001338336
1.003871518
1.002791274
1.004414091
1.005054956
1.004878411
1.004803319
1.004658535
1.004360179
1.003783156
1.002839187
1.001664231
1.000599408
0.9996642537
0.9988249951
0.9983787374
0.9980198415
0.997639499
0.9972485302
0.9968841807
0.9966751732
0.9964710874
0.9961701998
0.995755968
0.9953368592
0.9948204201
0.8586435152
0.8586074427
0.8600974049
0.8690891527
0.8955280362
0.9383180281
0.9757095796
0.9862409706
0.994600383
1.005031942
1.005283899
1.004906718
1.004662228
1.004521983
1.004350633
1.00389164
1.00290828
1.001660957
1.000592222
0.9997769254
)
;

boundaryField
{
    inlet
    {
        type            fixedValue;
        value           nonuniform 0();
    }
    outlet
    {
        type            inletOutlet;
        inletValue      uniform 1;
        value           nonuniform List<scalar> 
69
(
0.999460997
0.9989675532
0.9983564065
0.9977085582
0.9971602017
0.9968185098
0.9965401818
0.9963541908
0.9962780736
0.9961772154
0.9960487362
0.9960630346
0.9959857354
0.9958796006
0.9958057939
0.9957340654
0.9956947373
0.9956782782
0.9956728641
0.9956612082
0.9956357653
0.9956036273
0.9955856595
0.9955497089
0.99543826
0.9952804808
0.9950894982
0.9949289101
0.9948159253
1.000815555
1.000853696
1.000901758
1.000944446
1.001050038
1.001097652
1.001088403
1.001219919
1.001327037
1.001166634
1.000943514
1.000877919
1.00079167
1.000764796
1.001062706
1.001251304
1.001114334
1.000916438
1.000786721
1.000700114
1.000714213
1.000866631
1.000882553
1.000832682
1.000793191
1.000757967
1.000709164
1.00064662
1.000539048
1.000425938
1.0003693
1.000324211
1.00033019
1.000358529
1.000274507
1.000111529
0.9998842046
0.9996517422
0.9995558505
0.9995738865
)
;
    }
    bottom
    {
        type            slip;
    }
    top
    {
        type            slip;
    }
    obstacle
    {
        type            zeroGradient;
    }
    defaultFaces
    {
        type            empty;
    }
    procBoundary29to23
    {
        type            processor;
        value           nonuniform List<scalar> 
36
(
1.001287114
1.000871183
1.012710934
1.01278107
1.012715409
1.012588876
1.01237783
1.012101563
1.011586783
1.010777456
1.009892607
1.008438633
1.007120478
1.006052707
1.005557588
1.005067775
1.004422854
1.00376634
1.003405025
1.003321002
1.003509116
1.003469266
1.003131559
1.002614106
1.002127703
1.001785182
1.001566906
1.001437402
1.001437402
1.013716959
1.013636681
1.013541018
1.01341048
1.0130863
1.01302891
1.01302891
)
;
    }
    procBoundary29to28
    {
        type            processor;
        value           nonuniform List<scalar> 
69
(
1.013467775
1.013273299
1.013024919
1.012997004
1.012725491
1.012537758
1.012642301
1.012642301
1.01294482
1.01350753
1.013670036
1.013513976
1.013244045
1.012908637
1.012765405
1.012445661
1.012189131
1.012405679
1.012939648
1.013216323
1.013157154
1.013058801
1.012938981
1.012631881
1.012631881
1.012403147
1.012392381
1.012475375
1.012671982
1.012955802
1.013207648
1.013333194
1.013247248
1.013003097
1.012297891
1.011886196
1.011712746
1.011576449
1.011599168
1.012098534
1.01162385
1.010979819
1.010189403
1.009312568
1.008634592