/*--------------------------------*- C++ -*----------------------------------*\
  =========                 |
  \\      /  F ield         | OpenFOAM: The Open Source CFD Toolbox
   \\    /   O peration     | Website:  https://openfoam.org
    \\  /    A nd           | Version:  7
     \\/     M anipulation  |
\*---------------------------------------------------------------------------*/
FoamFile
{
    version     2.0;
    format      ascii;
    class       volScalarField;
    location    "1.3";
    object      p;
}
// * * * * * * * * * * * * * * * * * * * * * * * * * * * * * * * * * * * * * //

dimensions      [1 -1 -2 0 0 0 0];

internalField   nonuniform List<scalar> 
2222
(
1.000181174
0.9997432192
0.9984540705
0.9988596002
0.9987673889
0.9985425193
0.9977805708
0.9966740751
0.9977198944
0.9997938988
1.000896855
1.000722408
1.000006451
0.9988032742
0.9976940257
0.9975100292
0.9980122757
0.9987600482
0.9988159874
0.9984804166
0.9984717921
0.998763546
0.999024631
0.9991129716
0.9991999706
0.9994026328
1.000057786
1.000039804
0.9997665408
0.9998744088
0.9991283124
0.9982305726
0.9974531424
0.9967777059
0.9966428195
0.9972263384
0.9980726138
0.9977447254
0.9975435772
0.9973988616
0.9970907736
0.9972945123
0.9994426297
1.000630999
1.000278742
0.9998295107
0.9988197018
0.9982400626
0.9972580005
0.9975223307
0.9986026931
0.9987906763
0.9983153509
0.9981336855
0.9983603534
0.998715639
0.9991310479
0.9993724852
0.9995737678
0.999860655
0.9999971016
0.9997811129
0.9991515548
0.9995094453
0.9983080377
0.996865929
0.9960371354
0.9970083547
0.9965568852
0.9967780624
0.9972125836
0.9972104167
0.9969470568
0.9964597453
0.9964700024
0.9984050112
1.000180673
0.999986281
0.9993440066
0.9983132345
0.9972011949
0.9969873092
0.9970971723
0.9982376198
0.9988383574
0.9985452566
0.998001179
0.9980592236
0.9984449144
0.9989697131
0.9990993614
0.9990933514
0.9993098975
0.9998064254
0.9994649951
0.999426303
0.999186531
0.9989579665
0.9972827294
0.9970185925
0.9964225778
0.9959322895
0.9964060149
0.9968299586
0.9966764298
0.9971492942
0.9971920754
0.9972313699
0.9982090941
0.9998267996
0.9999445674
0.9990795151
0.9982728902
0.9968321347
0.9968148939
0.9961588521
0.9970682719
0.9987541018
0.9987681063
0.9982775181
0.9981997975
0.9985415149
0.9989429506
0.9991377332
0.9989386916
0.9986139099
0.9988732488
0.9992254981
0.999025514
0.9986859111
0.9986079435
0.9984456365
0.9960264371
0.9956424557
0.9955098353
0.9950271435
0.9964357349
0.9972450613
0.9976553439
0.9976677208
0.9979094246
0.9986623852
0.9999690221
1.000250398
0.9994641633
0.9980930835
0.9972724204
0.9969912342
0.9961497534
0.9964458285
0.9979960483
0.9985115554
0.9982417638
0.9980118104
0.9983057859
0.9988044448
0.9991060572
0.9986349821
0.9984351672
0.9983902177
0.9985481478
0.9985763261
0.9984022718
0.9978267978
0.9976294091
0.9976345416
0.9948597662
0.9943799104
0.9947173278
0.9965320635
0.9984136472
0.9991386431
0.9990785482
0.9994464784
0.9998777604
1.000302327
1.00004843
0.9994971187
0.998596198
0.9972567759
0.9960494917
0.9959010058
0.9957332351
0.9975341952
0.9989471849
0.9983707971
0.9978442895
0.9978810592
0.9982726478
0.9983901491
0.9983817065
0.9981728213
0.9980804441
0.9985625834
0.9983896746
0.9980562486
0.9975305786
0.997234176
0.9968658856
0.9970633279
0.995208209
0.9954427088
0.9969939584
0.9993059344
1.000089955
1.000096441
1.000240776
1.000574965
1.000667024
1.000604285
0.9998692526
0.9983340356
0.9974123326
0.9961214404
0.9950660805
0.9949532658
0.9967403045
0.9989765512
0.9992855858
0.9986545964
0.9982068699
0.9983152334
0.998390876
0.9981935417
0.9978705068
0.9983366873
0.998806359
0.9989992325
0.9987462694
0.9979639493
0.9969976047
0.997022059
0.9973485615
0.9978201943
0.998319233
0.9999149094
1.000385509
1.00040935
0.9999708898
1.000428766
1.000373119
1.000318535
0.9998732365
0.999165261
0.9975443481
0.9959375997
0.9950960785
0.9955270442
0.9967696175
0.9994052655
0.9998837441
0.9991684786
0.9987572414
0.9987707658
0.9987230575
0.9985054238
0.9983304422
0.9984488592
0.9987229676
0.9992839003
0.9989849119
0.9989229035
0.9979150166
0.9973614891
0.9976639532
0.9987157726
0.9994824961
1.00062239
1.000425728
0.9997743917
0.9996523874
0.9997986948
0.9997356164
0.9996295499
0.9994951288
0.9987137558
0.9980153736
0.9973473811
0.995598426
0.9955216738
0.9964867913
0.9993908111
1.000400696
1.000188977
0.9992788161
0.9989803335
0.9990227953
0.9987737211
0.9983941444
0.9983201026
0.9988190046
0.9994726058
0.9992951793
0.998743057
0.9981589
0.9976384259
0.9978006367
0.9991982741
1.000253077
1.000313943
1.000496058
0.9998844154
0.9989577545
0.9985634163
0.9989959786
0.998733266
0.998788924
0.9983767546
0.9976070853
0.9968197365
0.996093798
0.9955466394
0.9962443958
0.9991772881
1.000422814
1.00002056
0.9995393412
0.9994298792
0.9993178186
0.9992036854
0.9989391198
0.9988649667
0.9990424577
0.9993273787
0.9997665455
0.9992004629
0.9986773299
0.9974820433
0.9979321219
0.9995049219
1.000215646
1.000402362
1.000190116
0.9997603657
0.9990232988
0.9982087094
0.9975394932
0.9978109834
0.9976723962
0.9980048977
0.9978473638
0.9976664201
0.9963075135
0.9951517616
0.99560218
0.9985716355
1.000566683
1.0005328
0.9996396482
0.9988155827
0.9988863535
0.9991249285
0.9992465927
0.9992250866
0.9992451806
0.9995218404
0.9995621925
0.9992094992
0.9988309525
0.998135845
0.9980380559
0.9989416433
1.000404135
1.000424868
0.9999215371
0.9998460543
0.9988150265
0.9978511513
0.9971444346
0.9972989445
0.9967405893
0.9976135752
0.996996205
0.9968201396
0.996665371
0.996284329
0.9961158491
0.9981497337
1.000331227
1.000557996
1.000004413
0.9995270398
0.9988491761
0.998300855
0.998458928
0.9985033253
0.9985466544
0.9987711922
0.9990494334
0.9990551456
0.9983519117
0.9980271892
0.9977477919
0.9987596972
0.9999346333
0.9999731891
0.9998265487
0.9993712217
0.9991455212
0.997473086
0.9958910798
0.9954634567
0.9961879677
0.9965621221
0.9967328974
0.9963865912
0.9963462715
0.9959614475
0.9964111227
0.9983573713
1.000584288
1.000700904
0.9998800162
0.9991741649
0.9987503742
0.9986816746
0.9984228497
0.997658717
0.9974833147
0.9976548894
0.9980723536
0.9982902011
0.9982347143
0.9979229386
0.9973903149
0.9980122054
0.9994212772
0.9998622676
0.999288204
0.9987088738
0.9985565249
0.9979530106
0.9950468304
0.9942088938
0.9946537763
0.9953217477
0.9964060568
0.996145106
0.9965377597
0.9965641036
0.9972881521
0.9989064528
1.000598441
1.00057818
1.000054186
0.9988400083
0.9980958697
0.9979477205
0.9980058313
0.998008232
0.9977120015
0.9970983728
0.9971977955
0.9977876672
0.9978473061
0.9976856045
0.9977428616
0.9980890248
0.999128356
0.9996922193
0.9994010341
0.9988478463
0.9977848573
0.997598196
0.9971610492
0.9939150302
0.9942948116
0.9951070488
0.9960469929
0.996573866
0.9971355228
0.9976263403
0.9985358285
0.9999786417
1.000969713
1.000842913
1.000096848
0.9989408882
0.9979753462
0.9973657679
0.9971041243
0.9970548043
0.9971036686
0.9971222911
0.9971821255
0.9975516591
0.9979640338
0.9979595643
0.9979065135
0.998179308
0.9991951197
0.9998810397
0.9997043416
0.9989518737
0.998319582
0.9977817386
0.9969151271
0.9972826406
0.9932152039
0.9940933632
0.9960529309
0.9980544286
0.9990204245
0.9994985913
1.000073069
1.000795334
1.001100602
1.001057174
1.000556359
0.9995407718
0.9978918334
0.9971500362
0.9971781266
0.996858923
0.9965625261
0.9964293871
0.9966974599
0.9976971136
0.9982702932
0.9983690358
0.9984133153
0.998652661
0.9994644282
0.9999271068
0.9997380002
0.9991026128
0.9984204056
0.9975240764
0.9973575775
0.9971998318
0.9982015889
0.9941830722
0.9963997039
0.9992297829
1.000493548
1.000741668
1.000724215
1.000900754
1.000969036
1.00087946
1.000459405
0.999816081
0.9986014473
0.997221865
0.9961314447
0.996295722
0.9965334236
0.9967125445
0.9971383848
0.998302004
0.9993996606
0.9995006179
0.9992667511
0.9990687993
0.9993910649
0.9998420958
0.9999014084
0.9992769087
0.9982242185
0.9974388505
0.9969943715
0.9970585632
0.998255662
0.9999825248
0.9970398916
1.000118148
1.001041703
1.000787875
1.000521223
1.000549986
1.000603052
1.000503521
1.000357789
0.9997250572
0.9985474335
0.9969373335
0.9961512559
0.9956324283
0.9956231733
0.9962339341
0.997269611
0.9988471396
0.999964917
1.000024535
0.9998553078
0.9995552753
0.9993678037
0.9994884954
0.9995254192
0.9993508094
0.998823287
0.9976811382
0.9969210795
0.9971643745
0.9982413655
0.9998887914
1.000457637
1.000891761
1.001228418
1.001141346
1.000517133
0.9999578833
1.000098893
1.000005401
0.9999087548
0.9996308989
0.9987734565
0.996943206
0.9960294727
0.9955554302
0.9957158254
0.9963331631
0.9976851838
0.9992389352
0.9999524359
0.9998190169
0.9996450329
0.9994574348
0.9992588448
0.9993225402
0.9992764793
0.9990165157
0.9984561481
0.9978245038
0.9973507093
0.9972455012
0.9981530009
0.999771761
1.000182562
1.000219424
1.001700178
1.001130373
1.000607111
0.9999618884
0.9993510903
0.9993869175
0.9992045887
0.9990456457
0.9981152409
0.9971300067
0.9967112531
0.9962520672
0.9960773398
0.9968079135
0.9985070626
0.999686125
0.9999533185
0.9998101498
0.9993638527
0.9989440611
0.9987175807
0.9987604382
0.9988758086
0.9988004532
0.9984732564
0.9975766684
0.9972670451
0.9973952805
0.9982310222
0.9995742087
0.9999948637
1.000032297
0.999765238
1.001269304
1.00054385
0.9995738437
0.99886928
0.9984354612
0.9982079679
0.9979825878
0.9977687332
0.9971604038
0.9965998165
0.9964138385
0.9967249447
0.9977101911
0.999165889
0.9999962778
1.000105303
0.999917209
0.9995022046
0.998922042
0.9982589402
0.9980239843
0.9981735253
0.9982137366
0.9980541504
0.9975747162
0.9975653973
0.9976921174
0.9986446473
0.9996773325
0.9998228725
0.9996581836
0.9995723691
0.9990455688
1.000660462
0.9993174994
0.9979263326
0.9968053337
0.9970017841
0.9974042681
0.9976883181
0.9973552951
0.9973107601
0.9969067511
0.9974081783
0.9986230986
0.9996299054
0.9997925371
0.9997928355
0.9997919686
0.99951855
0.9990316975
0.9982889648
0.9978493179
0.9977928005
0.9975856457
0.9974470206
0.9973397925
0.9972003209
0.9976401193
0.9989397894
0.9997670591
0.9998048684
0.999593341
0.9992144662
0.9986346838
0.9979281879
0.9998227213
0.9969521317
0.9951849607
0.9956555713
0.9966328805
0.9974822854
0.9976123536
0.9976299635
0.9976029001
0.9983352623
0.9993110987
0.9996624958
0.9996722271
0.9995607347
0.9994387663
0.9992365502
0.9987739559
0.9979486955
0.9973068618
0.9973217469
0.9974785655
0.997543671
0.9973281952
0.99716988
0.9975136526
0.9988606073
0.9997455117
0.9997340808
0.9995323437
0.9992540242
0.9986313423
0.9977347785
0.9976161373
0.9944900939
0.9944761757
0.995740706
0.996983371
0.99761904
0.9981429423
0.9986205773
0.9991454327
0.9998574501
0.9999308576
0.9997499955
0.9994320363
0.9992436825
0.9989601034
0.9983652172
0.9975623569
0.9970244921
0.9969446204
0.9970137349
0.9972177475
0.9974252429
0.9973827311
0.997584843
0.9986372288
0.9995990339
0.9995826906
0.9994673407
0.9991736537
0.9984721418
0.9979316425
0.9977195867
0.997893754
0.994265157
0.9945098151
0.9961679366
0.9980368501
0.9989537208
0.9994350594
0.9997849355
0.9999620297
0.9999231575
0.9998273318
0.9995983891
0.9991472946
0.9985492655
0.9977099182
0.9971156238
0.9968771602
0.9969974354
0.9970800676
0.9974215216
0.9978393784
0.9981364004
0.9982829498
0.9988478094
0.9994010669
0.9994829089
0.9993375946
0.9989164077
0.9983151458
0.9978967116
0.9977020759
0.997872088
0.9987258084
0.9947271454
0.9954594642
0.9982394639
0.9994806229
0.9998877142
0.9999307616
0.9998852203
1.000003141
0.9996980335
0.9994083416
0.9989247811
0.998159715
0.9969594826
0.9964231807
0.9965658308
0.9969891807
0.9972239873
0.9978777892
0.9987538182
0.9991759629
0.9992986087
0.9993536744
0.9994435959
0.999411407
0.9993356647
0.9988834297
0.9980875131
0.9979279539
0.9978848906
0.9980058405
0.9986785436
0.9991675396
0.9963729435
0.9983712092
0.9997228883
0.9998010414
1.000025848
1.000046316
0.9999133157
0.9997875542
0.9994292008
0.9986238095
0.9975409452
0.9967840055
0.9963946312
0.9964109418
0.9965442804
0.9970352389
0.9983167629
0.9993798698
0.999601645
0.9996512025
0.9996106837
0.9995457728
0.99947179
0.9993902296
0.9989750105
0.9980624989
0.9978882185
0.9980143116
0.9981939789
0.9986819781
0.9990107417
0.999117619
0.9991859278
0.999601248
1.000053002
1.000033576
0.9996652092
0.9995721985
0.9994523434
0.9990029411
0.9982388717
0.9973864424
0.9969175403
0.9965612226
0.9965525236
0.9966522444
0.9970976699
0.9982044681
0.9990515007
0.9994855481
0.9996407305
0.9996772386
0.9996394754
0.9995876311
0.9994848415
0.9990658235
0.9980994212
0.9977340021
0.9979715118
0.9985385366
0.9988167825
0.9988978215
0.9989930556
0.9989823302
1.000064049
0.999850652
0.9996946464
0.9993658187
0.9990786244
0.9988000953
0.9983882163
0.9979059818
0.9973851052
0.9970079548
0.9969611798
0.9968584549
0.9968608907
0.9974895954
0.9987263041
0.9994185581
0.9994959509
0.9994207399
0.9993753703
0.9993838897
0.9993467875
0.9993221581
0.9989738992
0.9981050684
0.9976132852
0.9977869056
0.9984767566
0.9989420772
0.9989422815
0.9988528549
0.9987910696
0.9985664352
1.000212837
0.9997461646
0.9990938531
0.9983418619
0.9979894661
0.9979984032
0.9978240583
0.997742878
0.9974875611
0.997312091
0.9972082225
0.9974360625
0.9978403383
0.9988558541
0.9994093373
0.9996835367
0.999742006
0.999561016
0.9992320514
0.9990774793
0.9988588461
0.9986362788
0.9980232254
0.9976360725
0.9976847148
0.9980828178
0.9987842124
0.9989132073
0.9988739391
0.9986475769
0.9984542722
0.9983698002
1.000151532
0.9993921705
0.9982900124
0.9978187472
0.9976526907
0.9978428284
0.9980100794
0.9980052902
0.9978734829
0.9978981793
0.9980901823
0.9987051014
0.9993278981
0.9991640756
0.9992844086
0.9993479758
0.9991813813
0.9986646465
0.9981923453
0.997996408
0.9978368246
0.9977715971
0.9976941643
0.9977493089
0.9978823889
0.9987718952
0.998832708
0.9988075798
0.9986499851
0.9984037785
0.9984170696
0.9984487424
1.00010451
0.9990347793
0.9982081003
0.9978799389
0.997945981
0.9981710261
0.9983849743
0.9984306318
0.9986422053
0.9991856761
0.9994671704
0.9996651852
0.9996919084
0.9995733364
0.9993373333
0.9988541504
0.9979770013
0.9973147722
0.9971640654
0.9972834981
0.9974411315
0.9976883382
0.9978378697
0.9979704963
0.9986515355
0.9989538984
0.9987933082
0.9985795706
0.9984660892
0.9984257195
0.9985153469
0.9987006355
0.9999219094
0.999031041
0.9985360855
0.9982862527
0.9983704632
0.9987379369
0.9991614163
0.9996430394
0.9996591804
0.999573475
0.9999350723
0.9999414049
0.9994566458
0.9989040933
0.9980834999
0.9972604994
0.9967152314
0.9967871807
0.9970671519
0.9973347983
0.9975705436
0.9978366279
0.9981034629
0.9987548025
0.9993199709
0.9990940143
0.9987484776
0.9985356599
0.9985111537
0.9985184906
0.9987641033
0.9989706198
0.9998921571
0.999361654
0.9990215952
0.9990169029
0.9991126522
0.999561703
0.9999757414
1.000217568
1.000255576
1.000103132
0.9998080599
0.9996411451
0.9987431055
0.9974265227
0.9966898444
0.9965030356
0.9965796397
0.9967952557
0.9971847729
0.9974895688
0.9977731946
0.9981260828
0.9987624766
0.9994503872
0.9993788729
0.9991494216
0.998824765
0.9986322326
0.9986016514
0.9988060855
0.9989681228
0.9988267598
1.000215747
0.9998689777
0.9995171551
0.9997046464
0.999689011
0.9995040059
0.9998884281
1.000049734
1.000307029
1.000246138
0.99982972
0.9986685995
0.9971944974
0.9964293224
0.9964665304
0.9965886831
0.9967585204
0.9969499568
0.997293018
0.9977091293
0.9982375289
0.9988825733
0.9993858814
0.9995056026
0.9993916614
0.9991084258
0.9988812566
0.9988135444
0.9989007064
0.9988365362
0.9989434409
0.9986548183
1.000310229
0.9999597363
0.9996829562
0.9998282178
0.9998414827
0.9993670771
0.9996101588
0.9998296838
0.9997864557
0.9996256477
0.9986457533
0.997034638
0.9964476816
0.9963999799
0.9965614746
0.9967849948
0.9970897371
0.9975065132
0.9979933003
0.998554675
0.9991477489
0.9994624184
0.9994327502
0.9993976976
0.9993117328
0.9990609153
0.9989126697
0.9989070789
0.9989744144
0.9987743083
0.9985416437
0.9979855186
0.9999218161
0.9997714832
0.9996023687
0.9995878629
0.9993080819
0.9984881788
0.9987539642
0.998932089
0.9988585632
0.9982928822
0.9970806742
0.9964525525
0.9964314013
0.9965299847
0.9967113295
0.9971846636
0.9978920203
0.9986298971
0.9992076833
0.9996341939
0.999665213
0.9994546379
0.9993136939
0.9991312649
0.9989814387
0.9989649251
0.9988898781
0.9988209286
0.9988263282
0.9984779268
0.9978918505
0.9974122363
0.9990195546
0.9989920558
0.9986480534
0.9982177015
0.9979591305
0.9978344955
0.9980955758
0.998107053
0.9977683716
0.9970677004
0.9966708019
0.9965505354
0.9964199331
0.996781418
0.9975563525
0.9985158434
0.9994059255
0.9998381453
0.9998852633
0.9997997997
0.9995796397
0.9993422831
0.9990277495
0.9987748553
0.9987021918
0.9985921312
0.9985179705
0.9984241207
0.9983028785
0.9978648655
0.997607259
0.9974941754
0.997124572
0.9973291386
0.9972024492
0.9972298869
0.9976451822
0.9980180019
0.9981357073
0.9980056197
0.997551792
0.9969710042
0.9966545881
0.9968816461
0.9974494932
0.9983328412
0.9991078588
0.999535428
0.9997765785
0.999878496
0.9997852389
0.9994943874
0.9990395891
0.9985991266
0.9983314121
0.9982049594
0.9980731548
0.9979014968
0.9978352792
0.9978349058
0.9978735575
0.9978225514
0.9977260352
0.9977073141
0.9984557773
0.9984198355
0.9982577082
0.9982542309
0.9983572657
0.9985698003
0.9986050156
0.9985497939
0.9984683411
0.9983712997
0.9982833879
0.9981416263
0.99796279
0.9978892523
0.9979149232
0.9979580558
0.9980288783
0.9981516513
0.9982690158
0.9983443495
0.9983665141
0.9983893937
0.9984388012
0.9984405003
0.9983843279
0.9983426391
0.9983644017
0.9983993965
0.998429565
0.9984471969
0.9983785608
0.9984294863
0.998477984
0.9983716803
0.9983696004
0.9984349343
0.9985116415
0.9985613427
0.998579257
0.9985007761
0.9983807042
0.9982551492
0.9981291223
0.9979665226
0.9978511903
0.9978794353
0.9979581052
0.9980409287
0.9981632005
0.9983424962
0.9984859668
0.998574201
0.9986202576
0.9985927541
0.9985773589
0.9985992784
0.9985423476
0.998466811
0.9984369401
0.9984192813
0.9984082093
0.9984169034
0.9983896289
0.9983638744
0.9982964238
0.998214161
0.998227485
0.9983291162
0.9984718288
0.9985743567
0.9985621217
0.9984174905
0.9982642612
0.9981430918
0.9979988963
0.9978413796
0.9977880273
0.9978015133
0.9978355605
0.9979082946
0.9980267887
0.9982056187
0.9983720247
0.9984497783
0.998486686
0.9984762524
0.9984808967
0.9984782137
0.9983834469
0.9982956237
0.9982709899
0.9982621854
0.9982749239
0.9983071093
0.9982800028
0.9982346453
0.9987146793
0.9986971984
0.9986787257
0.998672125
0.9986850628
0.9987024373
0.9986669375
0.9985817298
0.998464881
0.9983067055
0.9980770013
0.9978707155
0.9977759145
0.9977067202
0.9976996041
0.9977630002
0.9978973211
0.9981263375
0.9983636531
0.9984513385
0.99848827
0.9984999501
0.9985185389
0.9984709046
0.9983678903
0.9983043029
0.9982772142
0.9982738641
0.9982763072
0.998282179
0.998231085
0.9981491894
0.9991251124
0.998948229
0.9987858852
0.9987027071
0.9986621309
0.9986249338
0.998606995
0.9986218161
0.9985488804
0.9983748057
0.9981177958
0.9978600559
0.9976757538
0.9975623577
0.997552689
0.9976235658
0.9977748606
0.9980722944
0.9983970279
0.99849438
0.9985348838
0.9985789588
0.9986070603
0.9985512482
0.9984768203
0.9984251299
0.998379338
0.9983599569
0.9983287446
0.998280331
0.9982316073
0.998127893
0.9991226029
0.9988510211
0.9986578221
0.9985485925
0.998461178
0.9983916978
0.998420162
0.998471832
0.998464892
0.998396919
0.9982427974
0.9979948675
0.9977585635
0.99764168
0.997640048
0.9977073963
0.9978697659
0.998171743
0.9984958009
0.9985950116
0.9986474001
0.9986785023
0.9986565028
0.9985362734
0.9984783715
0.9984400316
0.9984168704
0.998386057
0.9983550992
0.9982996357
0.9982570548
0.9981442278
0.9989461532
0.9986460993
0.9984221469
0.9982774388
0.9981740795
0.9981537532
0.9982753956
0.9984298589
0.998490181
0.9984914577
0.9984283754
0.9982354298
0.9979005837
0.9977722629
0.9977568168
0.9977865986
0.9979116809
0.9982229965
0.998548483
0.9986415794
0.9986892045
0.9986812646
0.9986068359
0.9984448535
0.9983874277
0.9983776762
0.9983778044
0.9983629869
0.9983936238
0.9983792558
0.9983369598
0.9982058826
0.9986849302
0.9984208975
0.9981602302
0.9980437197
0.9980634278
0.9981147529
0.9983019952
0.9985331568
0.9986676513
0.9987089181
0.9986427429
0.9984306449
0.9980351793
0.9977976155
0.9977451136
0.9977556728
0.9978825541
0.9982333574
0.9985690885
0.9986657233
0.9986924495
0.9986689551
0.9985378572
0.9984069521
0.9983650226
0.9983728063
0.9983848921
0.9984250677
0.998523048
0.9985243287
0.99847966
0.9983402477
0.9984971532
0.9982633261
0.9980351644
0.9980186312
0.9980953333
0.9982649697
0.9984979672
0.9987343763
0.9988691249
0.9988662741
0.9987389066
0.9984793188
0.9980852521
0.9977847116
0.9976980874
0.9977075501
0.9978397369
0.9981812092
0.9985314864
0.9986615702
0.9986872318
0.9986350275
0.9984716044
0.9983860832
0.9983606742
0.9983819439
0.9984157122
0.998519858
0.9986740072
0.9986857533
0.9986433786
0.9985038583
0.9984791793
0.9982470029
0.9980401852
0.9980986802
0.9982596814
0.9984615097
0.9986768471
0.9988885153
0.9989976731
0.9989541201
0.9987630282
0.9984554324
0.9980685459
0.9977639347
0.9976408453
0.9976436345
0.9977721088
0.9981354876
0.9984685467
0.9986191606
0.9986383434
0.9985698873
0.9983882268
0.9983075744
0.9982965862
0.9983233589
0.9983865145
0.9985507303
0.998777443
0.9988346579
0.9988084378
0.9986892566
0.9982456103
0.9981874188
0.9981260622
0.9981004656
0.9982490576
0.998405719
0.9985736683
0.9988157521
0.999002628
0.9989572574
0.9987998417
0.9985331195
0.9981217718
0.9977838515
0.9976077774
0.9975959302
0.9977076075
0.9980446494
0.9983692464
0.9985245425
0.998544691
0.998468851
0.9982755585
0.998194538
0.9981836554
0.9982116227
0.9983056988
0.9985182256
0.9987992953
0.9989394969
0.9989364123
0.9988443839
0.9978856216
0.9979606369
0.9979722886
0.9979394786
0.9979829844
0.9981410685
0.9983475629
0.9986447919
0.998857113
0.9988412183
0.9987556145
0.998551686
0.998184785
0.9978384951
0.9976520288
0.99762515
0.9977174086
0.9980461242
0.998330124
0.9984491997
0.9984654943
0.998398111
0.9981815282
0.9980668499
0.9980588729
0.9980879003
0.9982003013
0.9984453688
0.9987678192
0.9989999489
0.9990468623
0.9989736729
0.9975112868
0.9975221113
0.9974342266
0.9974792299
0.9976585853
0.9979199541
0.9981903125
0.9984579261
0.9986720868
0.9987185839
0.9986401375
0.9984366052
0.9981304139
0.9978488235
0.9977646534
0.9977540996
0.9978394651
0.9981431655
0.9983708053
0.9984409466
0.9984387164
0.9983632961
0.9981381742
0.997973643
0.9979612641
0.9979863133
0.99811234
0.9983931824
0.9987313319
0.998991573
0.9990981261
0.9990423089
0.9974720196
0.9970924498
0.9970621014
0.9972171767
0.9975052826
0.9979538807
0.9983542649
0.9985570331
0.9986928387
0.9986688129
0.9985329795
0.9983158298
0.9980088709
0.9978225037
0.9978099333
0.9978256125
0.9979375002
0.9982407325
0.9984203011
0.9984290572
0.9984082178
0.9983069771
0.9980804645
0.9979286768
0.9979222455
0.9979613293
0.9981101682
0.9984150046
0.998739397
0.9989791285
0.9991107386
0.9990669627
0.9974720737
0.9969914587
0.9969520685
0.9971724059
0.9976330491
0.9982529744
0.9986298282
0.998812054
0.9988862272
0.9987670728
0.9985611073
0.9982987264
0.9980211802
0.9979028181
0.9979009778
0.9979561537
0.99811017
0.9984050442
0.9985236494
0.9985176626
0.9984390267
0.9982738319
0.9980399539
0.9979300006
0.9979321901
0.9979780166
0.998123807
0.9984014544
0.9986933564
0.9989084137
0.9990440863
0.9990212713
0.997432395
0.9972285164
0.9971203253
0.9972207507
0.9976433157
0.9981867807
0.998630539
0.9989418413
0.9989820467
0.9989198914
0.9988062937
0.9985319663
0.9982908324
0.99819289
0.9981506758
0.9981446062
0.9982652804
0.9985377751
0.9986248942
0.9985927567
0.9984946587
0.9983196524
0.998065855
0.9979672634
0.9979643529
0.9979984113
0.998114515
0.9983408128
0.9985934594
0.9987879148
0.9989244716
0.9989261785
0.997632476
0.997465618
0.997102949
0.9966077666
0.99669389
0.9970642227
0.9978026763
0.9986069561
0.9989353378
0.9990084524
0.9989525969
0.9987442077
0.9985194252
0.9984319183
0.998369739
0.9983220008
0.9984401761
0.9986984694
0.9987641576
0.9987081688
0.9985591723
0.9983459425
0.9981245165
0.9980132505
0.9980006394
0.9980048918
0.9980625587
0.9982567858
0.9984951415
0.9986710706
0.9987400394
0.9987319244
0.9980055417
0.9975595142
0.9965242318
0.9959637404
0.9960109251
0.9964853187
0.9973882929
0.9983860161
0.9988353489
0.9988366147
0.9987342552
0.9985716696
0.9985236955
0.9985455796
0.998523978
0.9985184795
0.9986221515
0.9988346381
0.9988927301
0.9988211961
0.9986289715
0.9984500761
0.9982404213
0.9980865484
0.9980446073
0.9980237493
0.9980484786
0.9982318814
0.9984557043
0.9985595492
0.99858091
0.9985566927
0.9983141863
0.9972397402
0.9961744272
0.9959500044
0.9962388474
0.9970407693
0.9978551027
0.9985768686
0.9986003066
0.9983484863
0.9979838466
0.9978063167
0.997962573
0.9982432471
0.99842927
0.998592345
0.9987139475
0.9988776524
0.9989122473
0.998821881
0.9986478951
0.9984993609
0.9983294415
0.9981504074
0.9980760949
0.9980432226
0.9981034209
0.9983147533
0.9984163472
0.9984573039
0.998475255
0.9984685048
0.9984010572
0.9972905405
0.9971121897
0.9971554096
0.9975674741
0.9980299168
0.9983326568
0.9983955972
0.9981599757
0.9977639837
0.9974455533
0.9974864982
0.9978030833
0.9980900795
0.9982573984
0.9984415746
0.9986581526
0.9988320456
0.9988352686
0.9987383075
0.9985858208
0.9984913187
0.9984123248
0.9982333013
0.9981170954
0.9980976001
0.9982119089
0.9983516474
0.9983677788
0.9983714886
0.9983967156
0.9983913409
0.9988262757
0.9987669172
0.9980737066
0.9975738715
0.9975420391
0.9977302689
0.9979877495
0.9978184706
0.997559097
0.9974448346
0.9974250423
0.9976803057
0.9979923596
0.9981193502
0.9982051371
0.9983844351
0.998656901
0.9988372776
0.998905302
0.9987966461
0.9986238406
0.998521589
0.9984836745
0.9983115886
0.9981760781
0.99815818
0.9982655672
0.9983185034
0.9983079875
0.998305372
0.9983125091
0.9983009267
1.000360193
0.9993044319
0.9980725853
0.996421891
0.9955144596
0.9956390301
0.9963672173
0.9967189393
0.9970396067
0.9972860982
0.9975311513
0.9978270459
0.9980011046
0.9980412805
0.9981166337
0.9982976687
0.9986306811
0.9989540309
0.9991329621
0.9990801539
0.9988609344
0.9986780987
0.9985379171
0.9983583123
0.9982644587
0.9982584515
0.9983260415
0.9983344156
0.9983060955
0.9982778397
0.9982327083
0.9982011607
0.9996711157
0.9973365625
0.9955838473
0.9932170935
0.9931072495
0.9937887055
0.9953768193
0.996508718
0.9969129337
0.9969998813
0.9970185811
0.997123675
0.9972979629
0.9975713909
0.9979393635
0.9982507163
0.9985882253
0.9988635035
0.9989066868
0.9988365947
0.9986996198
0.9986069773
0.9984871562
0.9983994326
0.9984430423
0.9985085831
0.9985902598
0.9985675797
0.9984422735
0.9982736245
0.9981582206
0.9981145905
0.9843610489
0.990443927
0.9920054978
0.991655406
0.992603555
0.9958464258
0.9976944874
0.9974240428
0.9967088439
0.9954836795
0.9950177829
0.9952660391
0.9959636552
0.9969368323
0.9976695295
0.9980093204
0.9981631687
0.998193331
0.9980724439
0.9980370662
0.9982150123
0.9983830828
0.9984705173
0.9986210572
0.9987303415
0.9987716814
0.9988080532
0.9987481315
0.9985874148
0.9983854554
0.9981684302
0.9980916431
0.9569600177
0.9962054708
0.9945897462
0.9958887664
0.9982662673
1.000554309
1.000096382
0.9985565531
0.9957638999
0.9941727858
0.9941664826
0.9946582857
0.9956093454
0.9967450867
0.9974009686
0.9974663841
0.9975185834
0.9974699083
0.9974332798
0.9975324093
0.9978177541
0.998093786
0.9983820924
0.998612234
0.9987142924
0.9987499474
0.9987954395
0.9987346938
0.9985644914
0.9984269653
0.9982462529
0.9981806496
0.9175872724
0.9779443299
0.9824360569
0.9916200717
0.9984782329
0.9997915711
0.9991677751
0.9979076457
0.9953728142
0.9950862016
0.9960013548
0.9966737227
0.9971120075
0.9971587985
0.9972052345
0.9971788612
0.9972261567
0.9973418239
0.9975475969
0.9977084905
0.9977881567
0.9978894762
0.998115553
0.998324212
0.9984438851
0.9985328659
0.998632953
0.9986082235
0.9984889613
0.9984344884
0.998309927
0.9982680938
0.7330136992
0.8444041068
0.9078304226
0.9711591548
0.9841339635
0.9859493756
0.992807036
0.9958803148
0.9963421659
0.9968511743
0.997539852
0.9977170386
0.9974660056
0.9972705391
0.9970979038
0.9974016623
0.9979233369
0.9983156219
0.9985075396
0.9985114216
0.9983280175
0.9979424276
0.9978842436
0.9980756991
0.9982370827
0.9983647312
0.998493635
0.9985014276
0.9984170939
0.9983689464
0.9982422059
0.9982522234
0.6058952316
0.6766133923
0.7977050126
0.9137325231
0.9422973939
0.9655090117
0.9956300622
0.9975321655
0.9958247744
0.9961185902
0.9959945435
0.9965840914
0.9971265612
0.9970802902
0.9973498185
0.9980488875
0.9982779781
0.998425917
0.9984206126
0.9984095034
0.9982769295
0.9979836463
0.9978373192
0.997990126
0.9983555993
0.9986778833
0.9987474628
0.9986559594
0.9984481539
0.9982414556
0.9981629617
0.9983451222
0.5801332637
0.5900455041
0.6386039786
0.7283850721
0.8437342545
0.931100592
0.9859023397
0.9858678331
0.9878985106
0.9886133827
0.987216102
0.9919067177
0.996688821
0.9976570645
0.9981683899
0.9982571898
0.9975408983
0.9967636368
0.9966485415
0.9970728781
0.9977216815
0.9980775699
0.99817092
0.9983206975
0.9986936381
0.9988419744
0.9988222274
0.9987329464
0.9984618384
0.9982039941
0.9983303288
0.9986719371
0.5836204626
0.5826021921
0.5859280394
0.6069871663
0.6770621241
0.7696791387
0.8828709507
0.9264970859
0.9701498532
0.9779851663
0.9825798573
0.9922726414
0.9992315186
0.9988299309
0.9981971264
0.9972818916
0.9955224694
0.994863933
0.9952340472
0.9963655352
)
;

boundaryField
{
    inlet
    {
        type            fixedValue;
        value           nonuniform 0();
    }
    outlet
    {
        type            zeroGradient;
    }
    bottom
    {
        type            slip;
    }
    top
    {
        type            slip;
    }
    obstacle
    {
        type            zeroGradient;
    }
    defaultFaces
    {
        type            empty;
    }
    procBoundary29to23
    {
        type            processor;
        value           nonuniform List<scalar> 
36
(
0.9991051733
0.9990275216
0.9992145375
0.9996270505
0.9996951433
0.9991230852
0.9977167393
0.9971143785
0.9964376646
0.9975655189
0.9997773343
1.000758627
1.000729464
0.9998031638
0.9989246506
0.9978645084
0.9977981019
0.9984597649
0.9989541418