/*--------------------------------*- C++ -*----------------------------------*\
  =========                 |
  \\      /  F ield         | OpenFOAM: The Open Source CFD Toolbox
   \\    /   O peration     | Website:  https://openfoam.org
    \\  /    A nd           | Version:  7
     \\/     M anipulation  |
\*---------------------------------------------------------------------------*/
FoamFile
{
    version     2.0;
    format      ascii;
    class       volScalarField;
    location    "4.5";
    object      p;
}
// * * * * * * * * * * * * * * * * * * * * * * * * * * * * * * * * * * * * * //

dimensions      [1 -1 -2 0 0 0 0];

internalField   nonuniform List<scalar> 
555
(
0.9964597962
0.9981198253
0.9989595123
0.9999011689
1.000324366
0.9984705412
0.997565083
0.9970670821
0.9968632742
0.9963816421
0.9959356871
0.9954096909
0.994605722
0.9945107971
0.994852585
0.995791617
0.9973143829
0.9992142168
1.000450516
1.001321615
1.002104599
1.002268603
0.9974162631
0.9975401243
0.9973586461
0.9973080004
0.9970747235
0.9966969133
0.9960706767
0.9950465652
0.9947492533
0.9954120235
0.9970311203
0.9996476347
1.001418466
1.002404525
1.003246697
1.004008808
1.002982925
0.9974167494
0.998233241
0.9982896031
0.9983234832
0.9982464789
0.9978721095
0.9970567423
0.9961304943
0.9960175824
0.9971235707
0.9997351819
1.001882573
1.002917523
1.003447083
1.004159194
1.004593842
1.002884811
0.9978723909
0.9993012912
0.9999213752
1.000237519
1.00053093
1.000389082
0.9993383701
0.9983692518
0.9979900268
0.9987150511
0.9994657302
1.001021695
1.002377427
1.003132384
1.00348835
1.002887191
0.9992288944
0.9986175438
1.00103158
1.001864945
1.002384937
1.00283851
1.002804345
1.00195908
1.001163639
1.000645155
1.00036193
1.000219464
1.000141838
1.000713606
1.001223491
1.00096747
0.9981737025
0.9962575474
0.9999182181
1.001955755
1.00278884
1.00313347
1.00347113
1.003359946
1.002849249
1.00255488
1.00212469
1.001181181
1.000025522
0.9989502375
0.9988715089
0.9986402696
0.9967199165
0.9943652281
0.99488201
1.002456087
1.003213017
1.003257911
1.002889744
1.002220246
1.002531505
1.002683193
1.002363344
1.001269297
0.9985336558
0.9964673034
0.9956644221
0.9948525172
0.9935769707
0.9935410223
0.9949048926
1.000437516
1.00020584
0.9998884737
0.9994845813
0.9991229284
0.9994802548
1.000135433
0.9995783945
0.9977481116
0.9956871505
0.9944493702
0.9938220822
0.9938647177
0.993861973
0.9940872944
0.9958754872
0.9974131875
0.9977521689
0.997833131
0.9975277671
0.9975951407
0.9975563127
0.9973556733
0.9967495534
0.9960212593
0.9961583654
0.9960271256
0.9951890353
0.9949111512
0.9952537779
0.9957936591
0.9984152151
0.9965324283
0.9969274848
0.9970490337
0.9968091862
0.9970208962
0.9972075729
0.9965657401
0.9958968674
0.9955683767
0.9960831402
0.9970706161
0.9972477741
0.99716251
0.9982728992
0.9998982552
1.001803044
0.996342085
0.9966140979
0.99688733
0.9970347606
0.997274794
0.9970595449
0.9962081384
0.9951961067
0.995289395
0.996488209
0.997090113
0.9979269292
0.9988878421
1.001027064
1.004220717
1.005059331
0.9965164471
0.997188883
0.9976754741
0.9981990284
0.9982633622
0.9975360789
0.9960531255
0.9948950273
0.9950153904
0.9955760003
0.9965706581
0.9980565812
1.000553429
1.003814591
1.005936417
1.005247154
0.9981219385
0.99900836
0.999725686
0.9995921145
0.9994398734
0.9978818219
0.9961676397
0.9951252917
0.9947991405
0.9951212738
0.996834335
0.9997276159
1.002926213
1.004622669
1.005351711
1.004068973
1.000712734
1.000807475
1.001019458
1.001074508
1.000273108
0.9985598156
0.997559661
0.9968059281
0.9960211626
0.9957769791
0.9980382967
1.000831624
1.00202678
1.002627312
1.002482802
1.00011117
1.003015356
1.003027612
1.001869106
1.001609754
1.000201645
0.9987646542
0.9986315983
0.9985176586
0.998379034
0.9988107029
0.9997036496
1.000758029
1.000933729
1.000330914
0.9986217854
0.9963369829
1.003961458
1.004029918
1.002675624
1.000612375
0.9991328956
0.9987323542
0.9990734094
0.9996271196
1.000397201
1.001242289
1.001110335
0.9998200081
0.9993918327
0.9977491735
0.9941166567
0.9934232626
1.002959592
1.002730508
1.001113223
0.9989522789
0.9982790014
0.9989565075
1.000112425
1.001194545
1.002108658
1.002219937
1.001339351
0.999495325
0.9967143965
0.9938064343
0.991967238
0.9919768837
1.001088434
1.000156731
0.9984528809
0.9974234866
0.9981775805
1.000283963
1.001016757
1.001406199
1.0013965
1.000888847
0.9997613398
0.9986505164
0.9967612831
0.9941626268
0.9924038313
0.9931068391
0.9985488928
0.9978998301
0.9972889929
0.9970751134
0.998524372
1.000042268
1.000117025
0.9999951571
0.9996119592
0.9986819484
0.9975424159
0.996845635
0.9962472444
0.9956585045
0.9957932362
0.998177415
0.997692892
0.9979495178
0.9982111732
0.9985629326
0.9989188397
0.9989273178
0.9986824645
0.9982709027
0.997752566
0.9974173535
0.9975763721
0.9980897295
0.9987549796
0.9993284591
0.9998550744
0.9999875242
0.997629648
0.9977285105
0.9978947617
0.9982174946
0.9986866562
0.9990987947
0.9991342455
0.99900717
0.998674128
0.9982603862
0.9979413263
0.9979995168
0.9982290998
0.9983487538
0.9983919419
0.9985388995
0.9968875647
0.9974462105
0.9978741856
0.9983984949
0.999013911
0.9994474429
0.9996414936
0.99952088
0.9990910294
0.9984693551
0.9977957663
0.9976346651
0.9979105633
0.9981376512
0.9982833323
0.9985069491
0.9965962594
0.9978130964
0.9986168116
0.9991435294
0.9995014036
0.999469496
0.9992069291
0.9988704477
0.998423839
0.997871254
0.997406976
0.9974258727
0.9978953567
0.9985230577
0.9987648518
0.9989513177
0.9959104197
0.9980330742
0.9989197017
0.9988980327
0.9989231504
0.9987941768
0.9986337736
0.9985403708
0.9981529472
0.9977444944
0.9975520769
0.9976212217
0.9983286771
0.9990213822
0.9991441661
0.99908968
0.998584368
0.9990255713
0.9986202317
0.9981756433
0.9975839549
0.9974440364
0.997626647
0.9980125938
0.9982465511
0.9981752747
0.9980525224
0.998146156
0.998700592
0.9989248158
0.9990285391
0.9988766246
0.9989915267
0.9986775613
0.9977774177
0.99746779
0.9968266153
0.9970539453
0.9978567895
0.9986674233
0.9987048333
0.9981839998
0.9979407432
0.9979960632
0.998492735
0.998796497
0.9990263767
0.9989163305
0.9961339246
0.9959801064
0.996272452
0.9968545559
0.9980982811
0.9990348417
0.9994589476
0.9995226523
0.9990655779
0.9979638876
0.9978033924
0.9979686171
0.9984554147
0.9989174336
0.9993374097
0.9993249958
0.9914377591
0.9943117971
0.9964681095
0.998108853
0.9988780647
0.999193626
0.9991170565
0.9991176128
0.9984196921
0.9976344564
0.9977103133
0.9983824518
0.9992369212
0.9997435413
0.9998229356
0.9997158989
0.990640159
0.9952687763
0.9968664146
0.9975699037
0.9974107137
0.9963646543
0.9960396236
0.9968147128
0.9973881983
0.9980447498
0.9985833877
0.9992364697
0.9996557688
0.9998968039
0.9999945782
0.9997629495
0.9969257533
0.9950147359
0.9941082971
0.9944314318
0.9936221199
0.9924770356
0.9933381681
0.9952488616
0.9972537529
0.9982164005
0.9986388603
0.998856696
0.9991353255
0.9994885615
0.9997592759
0.9996462512
0.9875415204
0.9787682045
0.9852113589
0.9902049475
0.9911762098
0.992422372
0.9948576636
0.9967391088
0.9975825742
0.9980994438
0.9980426147
0.9980191152
0.998116921
0.9985067691
0.9992606118
0.9994404503
0.9098814021
0.9429287145
0.985386917
0.9907437903
0.9952497541
0.9987002643
1.000303002
0.9991644367
0.9976649867
0.9967532423
0.9967336918
0.9972754506
0.9980491632
0.9985371365
0.9990912782
0.9992484897
0.7747753455
0.8883912768
0.9639146339
0.9764922109
0.9898578307
0.9983121101
0.9983283491
0.9965318731
0.9955494511
0.9955387506
0.9968438709
0.9990367168
1.000279273
1.000563759
1.000429886
0.9992763632
0.6489700877
0.7249046965
0.8248887716
0.8916495486
0.9602754433
0.9824077847
0.9812673346
0.9888919789
0.9941692115
0.9963318099
0.9983160202
0.9996308934
0.9999554543
1.000118123
0.9999461111
0.9988988025
)
;

boundaryField
{
    inlet
    {
        type            fixedValue;
        value           nonuniform 0();
    }
    outlet
    {
        type            zeroGradient;
    }
    bottom
    {
        type            slip;
    }
    top
    {
        type            slip;
    }
    obstacle
    {
        type            zeroGradient;
    }
    defaultFaces
    {
        type            empty;
    }
    procBoundary29to23
    {
        type            processor;
        value           nonuniform List<scalar> 
18
(
0.9943673366
0.9963369691
0.997576779
0.9983708067
0.998880741
0.9997428429
0.9993045272
0.9982786318
0.9975955051
0.9968057774
0.9964052787
0.9961865538
0.9954777411
0.9947527038
0.994478635
0.9944831069
0.9948459173
0.9948459173
)
;
    }
    procBoundary29to28
    {
        type            processor;
        value           nonuniform List<scalar> 
34
(
0.9995952478
0.998699979
0.9965972637
0.9957462782
0.9961345859
0.9973069354
1.000447916
1.000447916
1.0003115
0.9979333068
0.9967197945
0.9965236514
0.9965549926
0.9972526896
0.9993252206
1.001205262
1.001786833
1.001603068
1.000527409
0.9990760177
0.9974861814
0.9973804317
0.9964919033
0.9955361278
0.9942376236
0.9972618997
0.9988290877
0.9962081852
0.987533817
0.9856613639
0.991018029
0.963673402
0.8328619663
0.6731785349
)
;
    }
    procBoundary29to34
    {
        type            processor;
        value           uniform 0.6181650721;
    }
    procBoundary29to35
    {
        type            processor;
        value           nonuniform List<scalar> 
16
(
0.6183205062
0.6310288569
0.6771433032
0.7779783542
0.8846271575
0.9307899363
0.9567391387
0.9915632532
0.9963964577
0.9964049902
0.9966875961
0.9963444363
0.9958667196
0.9967933197
0.998117754
0.9989821218
)
;
    }
}


// ************************************************************************* //
