/*--------------------------------*- C++ -*----------------------------------*\
  =========                 |
  \\      /  F ield         | OpenFOAM: The Open Source CFD Toolbox
   \\    /   O peration     | Website:  https://openfoam.org
    \\  /    A nd           | Version:  7
     \\/     M anipulation  |
\*---------------------------------------------------------------------------*/
FoamFile
{
    version     2.0;
    format      ascii;
    class       volVectorField;
    location    "1.3";
    object      U;
}
// * * * * * * * * * * * * * * * * * * * * * * * * * * * * * * * * * * * * * //

dimensions      [0 1 -1 0 0 0 0];

internalField   nonuniform List<vector> 
2222
(
(2.430522993 0.5952512632 0)
(2.436228542 0.5839756378 0)
(2.447504523 0.5772989476 0)
(2.464917848 0.577067847 0)
(2.481638596 0.57167272 0)
(2.495221908 0.5623386875 0)
(2.507759345 0.552354115 0)
(2.518503705 0.5438446325 0)
(2.526111605 0.5361756884 0)
(2.531434325 0.5287818091 0)
(2.538179799 0.520867412 0)
(2.542859232 0.5128060375 0)
(2.546033179 0.502613971 0)
(2.550716334 0.4888089163 0)
(2.554458691 0.4790051612 0)
(2.558335639 0.4765134003 0)
(2.564686991 0.4769806426 0)
(2.678133562 0.02548184813 0)
(2.676032078 0.02340179854 0)
(2.675694103 0.02202224999 0)
(2.674533738 0.01849478178 0)
(2.516830915 0.2528327658 0)
(2.087087863 0.6215945861 0)
(2.112863727 0.6565544516 0)
(2.180725357 0.6596678506 0)
(2.227628167 0.6634121133 0)
(2.254249874 0.656081868 0)
(2.267825929 0.6502118803 0)
(2.278859886 0.6434519011 0)
(2.292221927 0.6415978311 0)
(2.317746004 0.6439871947 0)
(2.348966608 0.6473882414 0)
(2.377070629 0.6328742356 0)
(2.39722232 0.6198992182 0)
(2.411595061 0.6164129404 0)
(2.423225564 0.6187972566 0)
(2.426621275 0.6197368938 0)
(2.424436827 0.6135931808 0)
(2.423214846 0.6063434099 0)
(2.428203045 0.5975448951 0)
(2.435492782 0.5857831114 0)
(2.445726513 0.5796646193 0)
(2.464185309 0.5773016383 0)
(2.481202224 0.5710272231 0)
(2.494781238 0.5611999365 0)
(2.50675258 0.5510012394 0)
(2.516108529 0.5427321684 0)
(2.523487414 0.5358271421 0)
(2.529194685 0.5287668932 0)
(2.535806473 0.5212147431 0)
(2.540595488 0.5128302097 0)
(2.544219185 0.5013931648 0)
(2.550152556 0.488938789 0)
(2.554522067 0.4823526343 0)
(2.559434253 0.4830424418 0)
(2.565522169 0.4795287795 0)
(2.69324239 0.02519159023 0)
(2.691160348 0.02471108871 0)
(2.691464094 0.02067315752 0)
(2.589270689 0.1931981683 0)
(2.092718542 0.5962202871 0)
(2.091173131 0.6581731075 0)
(2.166312902 0.6592606039 0)
(2.216465412 0.6559681243 0)
(2.24933202 0.6492869057 0)
(2.267729865 0.647763127 0)
(2.282207901 0.6443810222 0)
(2.291933077 0.6443501765 0)
(2.313987853 0.6464675423 0)
(2.341469061 0.6441667691 0)
(2.369879762 0.6273829267 0)
(2.389659216 0.61772183 0)
(2.404949175 0.6168806284 0)
(2.416293837 0.6200850454 0)
(2.422397494 0.6204328175 0)
(2.421972549 0.6139603156 0)
(2.421102265 0.6064288254 0)
(2.426211023 0.5992687818 0)
(2.435143901 0.5875443481 0)
(2.444332622 0.5797276176 0)
(2.463561915 0.5761428787 0)
(2.480925708 0.5696641646 0)
(2.493928677 0.559507999 0)
(2.5050099 0.5494781046 0)
(2.513700057 0.5416788063 0)
(2.520889671 0.5350719359 0)
(2.526773254 0.528202762 0)
(2.533206676 0.5208499682 0)
(2.538552121 0.5119464706 0)
(2.542593414 0.5008712297 0)
(2.549822055 0.490301767 0)
(2.554443882 0.4883101349 0)
(2.559699543 0.4868584841 0)
(2.566077126 0.480122551 0)
(2.703291245 0.02642872565 0)
(2.70145716 0.02716941874 0)
(2.700985653 0.02253994675 0)
(2.654563057 0.1337160831 0)
(2.148600407 0.5273934212 0)
(2.075387082 0.6391536539 0)
(2.148903283 0.6629630998 0)
(2.201813251 0.6554685225 0)
(2.241576567 0.6472612945 0)
(2.266195614 0.6457892776 0)
(2.284282191 0.6436011847 0)
(2.291859287 0.6448414193 0)
(2.310916917 0.6468493571 0)
(2.334785297 0.6380834469 0)
(2.362793446 0.6252756006 0)
(2.381750567 0.6183814007 0)
(2.396608499 0.6189936837 0)
(2.409259885 0.6216400443 0)
(2.418204169 0.6199117029 0)
(2.420465659 0.6126983386 0)
(2.420565004 0.6057173329 0)
(2.425878449 0.5997572434 0)
(2.434870134 0.5882947986 0)
(2.443737814 0.5791667277 0)
(2.4631123 0.5746012217 0)
(2.4805904 0.5679549798 0)
(2.493274864 0.5575548768 0)
(2.503441356 0.5479292158 0)
(2.511358009 0.540761425 0)
(2.518267311 0.5344728807 0)
(2.52425523 0.5277595353 0)
(2.530684757 0.5206223881 0)
(2.536710105 0.5117604555 0)
(2.541484574 0.5012657858 0)
(2.54893118 0.4945191084 0)
(2.554474313 0.4915684671 0)
(2.559977703 0.4876390779 0)
(2.566612389 0.4803027953 0)
(2.712139836 0.02800894839 0)
(2.711000394 0.02991518063 0)
(2.710443778 0.02518795517 0)
(2.692433791 0.0981364715 0)
(2.191459428 0.4999986944 0)
(2.050371806 0.6349489074 0)
(2.128372978 0.6610021588 0)
(2.186023797 0.6509073505 0)
(2.231638679 0.6451296599 0)
(2.26311023 0.6446673023 0)
(2.285262194 0.642874559 0)
(2.292449023 0.6443557173 0)
(2.307966549 0.645019574 0)
(2.33013095 0.6342166825 0)
(2.355417491 0.6253297941 0)
(2.374237072 0.6200562466 0)
(2.389577195 0.6219741547 0)
(2.403535519 0.6211025372 0)
(2.413898686 0.6169413772 0)
(2.419045299 0.6105181533 0)
(2.420367026 0.605704246 0)
(2.426910345 0.6004918789 0)
(2.435524232 0.5891995191 0)
(2.443670501 0.5780563754 0)
(2.463234368 0.57239394 0)
(2.480887984 0.565706446 0)
(2.493287861 0.5555887765 0)
(2.50240766 0.5465908822 0)
(2.509352597 0.5397989167 0)
(2.515624989 0.5338250602 0)
(2.52154496 0.5273666346 0)
(2.528034604 0.5205958006 0)
(2.534718137 0.5121630275 0)
(2.539906237 0.5026042126 0)
(2.547799378 0.4977517489 0)
(2.554201456 0.4918092936 0)
(2.560013632 0.487529724 0)
(2.566969764 0.4810130468 0)
(2.725759562 0.02675045776 0)
(2.724109295 0.02954747919 0)
(2.724095363 0.02858841529 0)
(2.720418389 0.07209809787 0)
(2.273325342 0.4447983803 0)
(2.045374238 0.6067557259 0)
(2.107706438 0.6513798183 0)
(2.166501136 0.6457265771 0)
(2.218187852 0.6440086599 0)
(2.25746626 0.6455538049 0)
(2.28577511 0.6429797323 0)
(2.292941644 0.6435931194 0)
(2.306991043 0.641708993 0)
(2.326727404 0.6335346213 0)
(2.348170295 0.626098087 0)
(2.367955469 0.6231255581 0)
(2.384285163 0.6228494909 0)
(2.396969081 0.6187762226 0)
(2.409187372 0.6129694153 0)
(2.417037147 0.6095554684 0)
(2.420243347 0.6058027831 0)
(2.427879623 0.6010282557 0)
(2.436875499 0.5899691287 0)
(2.444209726 0.5775117164 0)
(2.463801963 0.5708896286 0)
(2.481465419 0.5642694777 0)
(2.493244152 0.5546985783 0)
(2.501353131 0.5459950904 0)
(2.507342378 0.5390641784 0)
(2.512936041 0.5334138846 0)
(2.51862142 0.5272852847 0)
(2.525101002 0.5208383584 0)
(2.532000433 0.5130236014 0)
(2.537770434 0.5053114398 0)
(2.546626093 0.498156538 0)
(2.553551489 0.4914785308 0)
(2.559558627 0.487683491 0)
(2.567347141 0.4821159868 0)
(2.748155674 0.02997215946 0)
(2.744773333 0.0318081977 0)
(2.743776748 0.03081722254 0)
(2.746332003 0.05251449036 0)
(2.363310274 0.4024601248 0)
(2.042532495 0.5957551505 0)
(2.082092066 0.6433666832 0)
(2.142862355 0.6352618629 0)
(2.200466202 0.6383769156 0)
(2.248115144 0.644784654 0)
(2.283922176 0.6444496528 0)
(2.292866636 0.6420567255 0)
(2.306585267 0.6404467275 0)
(2.322422694 0.6337501994 0)
(2.342180012 0.6276439809 0)
(2.362479413 0.6243108158 0)
(2.377534757 0.6206677661 0)
(2.390157579 0.6135895217 0)
(2.40387281 0.6106932296 0)
(2.414562274 0.6098673416 0)
(2.419956023 0.6061998689 0)
(2.428869161 0.6016555583 0)
(2.439051376 0.5909701112 0)
(2.445894399 0.5777597766 0)
(2.464754773 0.5701904339 0)
(2.482061294 0.5639061386 0)
(2.493167443 0.5548515846 0)
(2.500316532 0.5457483201 0)
(2.505294171 0.5386846552 0)
(2.510253604 0.5333728002 0)
(2.515428766 0.5275562149 0)
(2.521672848 0.5214592297 0)
(2.528775942 0.5140893659 0)
(2.536008269 0.5059255511 0)
(2.544879861 0.4981119277 0)
(2.552632289 0.4913117807 0)
(2.559108017 0.4883687194 0)
(2.56791272 0.483695273 0)
(2.78427636 0.02682929538 0)
(2.778751264 0.03114803757 0)
(2.776557864 0.03313277815 0)
(2.774239379 0.03992967427 0)
(2.513198099 0.3455555162 0)
(2.064886923 0.5842327268 0)
(2.05792896 0.6260086878 0)
(2.116356637 0.6268925088 0)
(2.178823984 0.6376173684 0)
(2.234442934 0.6448504569 0)
(2.277755954 0.6457901428 0)
(2.292940581 0.6427049696 0)
(2.306662541 0.641084139 0)
(2.320044521 0.6358603226 0)
(2.337402386 0.628943723 0)
(2.356481818 0.6224593643 0)
(2.369806235 0.6144320146 0)
(2.382488298 0.6096738142 0)
(2.398882221 0.6107056414 0)
(2.411050931 0.6109143334 0)
(2.419032309 0.6073251765 0)
(2.430054155 0.6024090964 0)
(2.442139809 0.5922221081 0)
(2.448926453 0.5775005984 0)
(2.466543094 0.5699882842 0)
(2.482944175 0.5640740033 0)
(2.493143806 0.5549741194 0)
(2.499087036 0.5453634641 0)
(2.503299414 0.5385735618 0)
(2.507591336 0.5335473204 0)
(2.51199438 0.5281275287 0)
(2.517949032 0.5221695244 0)
(2.525623484 0.5145131563 0)
(2.533561349 0.5053935587 0)
(2.543175319 0.4979340098 0)
(2.551729983 0.4919086125 0)
(2.5589021 0.4894019415 0)
(2.56824419 0.4861087145 0)
(2.830949032 0.02857043426 0)
(2.825514692 0.03188082646 0)
(2.823964652 0.0290596905 0)
(2.815516911 0.04044395901 0)
(2.619640727 0.2820762104 0)
(2.124795536 0.545886013 0)
(2.036258601 0.6190369596 0)
(2.090786623 0.6233870886 0)
(2.155035769 0.6324303574 0)
(2.218571478 0.639415871 0)
(2.268488349 0.6444748315 0)
(2.292213062 0.6446235936 0)
(2.307022571 0.6430311625 0)
(2.319577475 0.6388072436 0)
(2.333527367 0.6283688351 0)
(2.348598802 0.6169906927 0)
(2.362771102 0.609767747 0)
(2.376533382 0.6091640585 0)
(2.392575314 0.6119041444 0)
(2.406307978 0.6117726562 0)
(2.417971897 0.6079238737 0)
(2.431067007 0.6024655139 0)
(2.444981311 0.592670363 0)
(2.452538244 0.5768903478 0)
(2.468701243 0.5698363035 0)
(2.483418636 0.5635325217 0)
(2.492866859 0.5545676471 0)
(2.498067849 0.5451426376 0)
(2.501252514 0.5384847306 0)
(2.504729787 0.5337349124 0)
(2.508273472 0.5285455883 0)
(2.514050474 0.5223829418 0)
(2.52221204 0.5139365036 0)
(2.531080971 0.5038977647 0)
(2.541658853 0.4982147441 0)
(2.551032833 0.4931688833 0)
(2.55857618 0.4914976057 0)
(2.568279255 0.4877360911 0)
(2.879220141 0.0240784394 0)
(2.874850623 0.02524500546 0)
(2.872748938 0.0278944916 0)
(2.86610983 0.03117016893 0)
(2.752239316 0.2235588636 0)
(2.229741131 0.5222729134 0)
(2.037208271 0.6123265021 0)
(2.068314755 0.6259516286 0)
(2.1288029 0.6307675129 0)
(2.19838036 0.6342802169 0)
(2.256997094 0.6424600301 0)
(2.289791985 0.646322406 0)
(2.307190664 0.6461374023 0)
(2.318970476 0.6398286574 0)
(2.328289144 0.626620858 0)
(2.342879393 0.6120070092 0)
(2.356358238 0.6088719949 0)
(2.370532582 0.610711404 0)
(2.38502624 0.6134861209 0)
(2.40027551 0.6122030518 0)
(2.415339356 0.608216471 0)
(2.43199912 0.6021988607 0)
(2.448273036 0.5924067668 0)
(2.45712337 0.576899538 0)
(2.470913403 0.5692567716 0)
(2.483629009 0.5625689814 0)
(2.492414854 0.5542762617 0)
(2.496641011 0.545066064 0)
(2.498682003 0.5385092877 0)
(2.501201629 0.5337752972 0)
(2.504222046 0.5283775936 0)
(2.510083055 0.5213359587 0)
(2.519158298 0.5117872781 0)
(2.528759823 0.503363307 0)
(2.540353004 0.4991997982 0)
(2.550694128 0.4952573774 0)
(2.558168151 0.4943508569 0)
(2.56822441 0.4884995085 0)
(2.920386349 0.02802165567 0)
(2.917306837 0.02791697534 0)
(2.91572773 0.02653174351 0)
(2.912678194 0.03239923175 0)
(2.878951975 0.1648362814 0)
(2.34662504 0.4927055147 0)
(2.052583994 0.615537733 0)
(2.050132972 0.628848001 0)
(2.104198434 0.6216407913 0)
(2.175997796 0.6249904164 0)
(2.243804921 0.6382491018 0)
(2.285769808 0.6466810395 0)
(2.307040438 0.6472825624 0)
(2.317289081 0.6398218785 0)
(2.325150741 0.6225185556 0)
(2.337670586 0.6110953854 0)
(2.350147473 0.6100923139 0)
(2.363040729 0.6135892013 0)
(2.376902902 0.6138137913 0)
(2.392657818 0.6111905812 0)
(2.411473354 0.6071192503 0)
(2.432174787 0.6010136521 0)
(2.451055985 0.5916077913 0)
(2.461783984 0.5776073882 0)
(2.472834148 0.5680218105 0)
(2.483714155 0.5615419297 0)
(2.491481899 0.5537885234 0)
(2.494693643 0.5449545036 0)
(2.495595162 0.5386225738 0)
(2.497283006 0.5334739758 0)
(2.500059849 0.5272489846 0)
(2.506120885 0.5188827873 0)
(2.516043259 0.5100987038 0)
(2.526731011 0.5040696923 0)
(2.539435062 0.500715538 0)
(2.550120575 0.498325898 0)
(2.557752601 0.4966342272 0)
(2.568001948 0.4890620372 0)
(2.947495504 0.02648267571 0)
(2.946454757 0.02573709037 0)
(2.945745396 0.02445412883 0)
(2.944821788 0.02532750941 0)
(2.943440636 0.1099424834 0)
(2.502622676 0.4740221729 0)
(2.097359757 0.6254396281 0)
(2.04434343 0.6302615539 0)
(2.079113401 0.6153071697 0)
(2.150441158 0.6189520393 0)
(2.22789297 0.6357882026 0)
(2.279430591 0.647698408 0)
(2.304495944 0.6473645398 0)
(2.315445484 0.6370911561 0)
(2.323436898 0.6186940296 0)
(2.332971411 0.6122752787 0)
(2.343886666 0.6132319853 0)
(2.355497951 0.6147550485 0)
(2.367442553 0.6121021501 0)
(2.384508636 0.6082616787 0)
(2.406680608 0.6047391802 0)
(2.431227214 0.5986758691 0)
(2.453428512 0.5908300442 0)
(2.464881612 0.5776788093 0)
(2.474337761 0.5668293276 0)
(2.483804218 0.5602781127 0)
(2.490402142 0.5530263638 0)
(2.492589228 0.5453067465 0)
(2.492051063 0.5393353661 0)
(2.49264108 0.5335218448 0)
(2.495177664 0.5260073048 0)
(2.501926551 0.516859873 0)
(2.513170816 0.5103740745 0)
(2.524774504 0.5053696768 0)
(2.538579151 0.502813593 0)
(2.549754579 0.5007552954 0)
(2.557582786 0.4981894768 0)
(2.567640402 0.4899610724 0)
(2.956142924 0.02639819567 0)
(2.957308328 0.0251176606 0)
(2.957624788 0.02313268247 0)
(2.957250768 0.0245704949 0)
(2.950361409 0.07804254094 0)
(2.663009053 0.4276886515 0)
(2.157622447 0.6255838657 0)
(2.055195843 0.6223694766 0)
(2.061187633 0.60354404 0)
(2.124938425 0.6109536035 0)
(2.208891249 0.6334797261 0)
(2.269921914 0.6479302775 0)
(2.298332497 0.6447991776 0)
(2.312900468 0.6314454784 0)
(2.320960564 0.6183127847 0)
(2.32867007 0.6152210201 0)
(2.337070156 0.6160808554 0)
(2.346533308 0.614012555 0)
(2.358204142 0.6091675351 0)
(2.375889559 0.6062783347 0)
(2.401029429 0.603055217 0)
(2.429368696 0.5967819978 0)
(2.455227053 0.5901642693 0)
(2.468184331 0.5772924471 0)
(2.476269799 0.5657637649 0)
(2.483985655 0.5585958289 0)
(2.488932296 0.5527282394 0)
(2.489973545 0.5461733278 0)
(2.487914438 0.5405898457 0)
(2.487376927 0.5339910966 0)
(2.489831997 0.5253051866 0)
(2.498130622 0.5166477847 0)
(2.51033277 0.5115525908 0)
(2.523188537 0.5071230268 0)
(2.537718667 0.5057468511 0)
(2.54912056 0.5028246079 0)
(2.55715885 0.4997463951 0)
(2.567017362 0.491346587 0)
(2.947879083 0.02706075918 0)
(2.950335181 0.0250706809 0)
(2.951638466 0.02251902644 0)
(2.951865198 0.02160817613 0)
(2.943022474 0.05673775241 0)
(2.830319632 0.3839538419 0)
(2.250413373 0.622293529 0)
(2.080024984 0.6144603336 0)
(2.053747498 0.5966335804 0)
(2.10137157 0.6048295816 0)
(2.186031471 0.6328351295 0)
(2.255436057 0.647217666 0)
(2.289370513 0.6394442805 0)
(2.308353264 0.6276634888 0)
(2.317596917 0.6202437079 0)
(2.323313838 0.6187931244 0)
(2.329809426 0.6169060495 0)
(2.337517502 0.6126621564 0)
(2.349527171 0.6096173479 0)
(2.368284277 0.6077872682 0)
(2.395012006 0.6036126922 0)
(2.426657426 0.5963583309 0)
(2.45605298 0.5899048395 0)
(2.471592284 0.5772617389 0)
(2.478498716 0.5646644299 0)
(2.483949721 0.5574605797 0)
(2.487023575 0.5530564555 0)
(2.48651318 0.5474419356 0)
(2.482899997 0.5419794873 0)
(2.48168105 0.5342376954 0)
(2.484586135 0.5247306297 0)
(2.494605896 0.517420663 0)
(2.507289032 0.5133572449 0)
(2.521899693 0.5100614999 0)
(2.535920001 0.5087509957 0)
(2.547855815 0.5049314685 0)
(2.555773159 0.5017232936 0)
(2.565682396 0.4928202646 0)
(2.93081547 0.02301927041 0)
(2.932895585 0.0210933356 0)
(2.933646912 0.02118559825 0)
(2.923859283 0.04300210452 0)
(2.953764557 0.3031090596 0)
(2.36852134 0.6033450613 0)
(2.102612942 0.6181744882 0)
(2.05986395 0.6048191931 0)
(2.08373288 0.6070796199 0)
(2.160451569 0.6306708228 0)
(2.235381028 0.641691347 0)
(2.278064665 0.6332941682 0)
(2.301877566 0.6271785253 0)
(2.312636693 0.6230506462 0)
(2.317598394 0.6208392258 0)
(2.321786833 0.6168728992 0)
(2.329750026 0.6132521315 0)
(2.342438846 0.6124075216 0)
(2.360884918 0.610882143 0)
(2.388486339 0.6044607028 0)
(2.423243809 0.5961097104 0)
(2.455659511 0.5893712993 0)
(2.474039513 0.576877742 0)
(2.480864156 0.5637847243 0)
(2.483709274 0.5573927354 0)
(2.484625461 0.5536623586 0)
(2.482257085 0.5489300696 0)
(2.477341463 0.5428308357 0)
(2.475778107 0.5336286091 0)
(2.479808302 0.5242982687 0)
(2.490294622 0.5189874211 0)
(2.504379274 0.5162234128 0)
(2.519632507 0.5134401148 0)
(2.534300975 0.5104879731 0)
(2.546510494 0.5065635155 0)
(2.554191546 0.5034670824 0)
(2.564204604 0.4937289235 0)
(2.904877608 0.02256247278 0)
(2.906759705 0.02225233893 0)
(2.907701195 0.02182390834 0)
(2.903306918 0.03590186666 0)
(2.996690823 0.2102242779 0)
(2.497293495 0.5786510894 0)
(2.142277452 0.6201319601 0)
(2.072166769 0.6165682942 0)
(2.074427719 0.61795058 0)
(2.134148605 0.629325654 0)
(2.210285444 0.6332191459 0)
(2.263274675 0.6286952194 0)
(2.292538595 0.6285236434 0)
(2.306096854 0.6260755674 0)
(2.311155142 0.6213265318 0)
(2.315348003 0.6166182848 0)
(2.322579984 0.6144783383 0)
(2.334776194 0.6144182284 0)
(2.353640843 0.612314643 0)
(2.382024464 0.6044281246 0)
(2.419040702 0.595888467 0)
(2.453618455 0.5885780549 0)
(2.475028318 0.5760693824 0)
(2.482496695 0.5638621185 0)
(2.4830963 0.5578670158 0)
(2.481678955 0.5545476256 0)
(2.477399942 0.5503725516 0)
(2.471558226 0.5425893484 0)
(2.470137327 0.5321824454 0)
(2.475443138 0.5245765966 0)
(2.48607133 0.5209504523 0)
(2.502084772 0.5190544929 0)
(2.517669428 0.5147839683 0)
(2.532856064 0.5112100198 0)
(2.545010921 0.5074851116 0)
(2.552689663 0.50440781 0)
(2.562748965 0.4937607473 0)
(2.877756718 0.02336792619 0)
(2.879563587 0.02357260125 0)
(2.880276694 0.02404501834 0)
(2.878743569 0.03105721604 0)
(2.95010581 0.1563862803 0)
(2.612623421 0.5709358551 0)
(2.219825679 0.6314840757 0)
(2.091387232 0.6246438139 0)
(2.079039334 0.6225002193 0)
(2.112976411 0.6224192058 0)
(2.18271778 0.6221998346 0)
(2.244449334 0.6248727828 0)
(2.280761017 0.6306265578 0)
(2.298137598 0.6285514494 0)
(2.304650283 0.6206796237 0)
(2.309315323 0.6157434084 0)
(2.315926715 0.6144229933 0)
(2.328571605 0.6136789192 0)
(2.347509855 0.6095887908 0)
(2.376789185 0.6019634738 0)
(2.414205735 0.5944245806 0)
(2.449683332 0.586398439 0)
(2.473887126 0.5749518755 0)
(2.482082884 0.5643596497 0)
(2.481450593 0.5585817351 0)
(2.477984251 0.5558698111 0)
(2.47203936 0.5514437899 0)
(2.465798728 0.541168704 0)
(2.465047675 0.5314010307 0)
(2.471127862 0.5257225758 0)
(2.48250431 0.5224174984 0)
(2.500511908 0.5194125102 0)
(2.516570687 0.5144238639 0)
(2.531237166 0.5114222747 0)
(2.543475268 0.5076927647 0)
(2.551176175 0.504472643 0)
(2.560965535 0.4929906841 0)
(2.856394779 0.02503472094 0)
(2.857323592 0.02443507221 0)
(2.858065503 0.02525081463 0)
(2.857981514 0.02977692688 0)
(2.877515987 0.1090814831 0)
(2.704935534 0.5255351714 0)
(2.310314756 0.6561615631 0)
(2.121363413 0.6303351221 0)
(2.088728482 0.6194389724 0)
(2.102197925 0.6059845455 0)
(2.156166515 0.6086702061 0)
(2.221833785 0.6214202627 0)
(2.266291603 0.6322172547 0)
(2.288056426 0.6293296863 0)
(2.297523925 0.6190481803 0)
(2.303483083 0.6134102418 0)
(2.310906794 0.6118776407 0)
(2.323872758 0.609353856 0)
(2.343384776 0.6037765258 0)
(2.371973065 0.5966055642 0)
(2.408206443 0.5899204778 0)
(2.443281807 0.58170447 0)
(2.469332282 0.5738772986 0)
(2.478520803 0.5653605325 0)
(2.477642776 0.5598316493 0)
(2.473227113 0.5575057257 0)
(2.466149485 0.5516428557 0)
(2.460219281 0.5395765345 0)
(2.46107736 0.5322554371 0)
(2.467302622 0.5276962148 0)
(2.479928658 0.5227385456 0)
(2.499494941 0.5187002329 0)
(2.516006646 0.5136477513 0)
(2.530144879 0.5107410989 0)
(2.542174855 0.5071300347 0)
(2.549599705 0.5038520127 0)
(2.558997026 0.4925732083 0)
(2.840638225 0.0259254509 0)
(2.841374327 0.02591835756 0)
(2.841966225 0.02629493989 0)
(2.841984307 0.02877015742 0)
(2.832620027 0.0816376951 0)
(2.762595227 0.4543055281 0)
(2.387920616 0.6707714093 0)
(2.160209089 0.6398734189 0)
(2.099037286 0.6165195509 0)
(2.098713367 0.5997677629 0)
(2.13346592 0.5977571762 0)
(2.196207241 0.618836965 0)
(2.248712252 0.6319698446 0)
(2.27606963 0.6269786247 0)
(2.290121293 0.6165013913 0)
(2.298399272 0.6114907726 0)
(2.307577554 0.6092849165 0)
(2.320662504 0.606309204 0)
(2.340011131 0.602058009 0)
(2.367017651 0.5937184251 0)
(2.401046825 0.5847850316 0)
(2.434436564 0.5787893939 0)
(2.461211324 0.5741649184 0)
(2.471658861 0.5670765584 0)
(2.471575745 0.5617149003 0)
(2.467236036 0.5587424565 0)
(2.460164681 0.5504513668 0)
(2.455557047 0.5396182981 0)
(2.457702839 0.5346241824 0)
(2.464080753 0.5296374433 0)
(2.478212956 0.5222193008 0)
(2.49854903 0.517379745 0)
(2.514914349 0.5121711137 0)
(2.529636532 0.5092913845 0)
(2.541457354 0.5056481037 0)
(2.548483479 0.5028106022 0)
(2.557568374 0.4927033436 0)
(2.827961691 0.02795963898 0)
(2.829710643 0.02889814485 0)
(2.829249986 0.02788240303 0)
(2.828616251 0.02830976483 0)
(2.815401074 0.06009782305 0)
(2.818941272 0.3752297996 0)
(2.441018008 0.6526663463 0)
(2.206660989 0.6463000178 0)
(2.108734622 0.6198934244 0)
(2.1015437 0.6073067689 0)
(2.116147511 0.6021983245 0)
(2.170126992 0.6180926098 0)
(2.227910546 0.6278727015 0)
(2.263138297 0.6216871392 0)
(2.283059409 0.6144759925 0)
(2.294837848 0.6116211359 0)
(2.305675813 0.6093257965 0)
(2.318709463 0.6066887015 0)
(2.337863876 0.6029539674 0)
(2.364082964 0.5940433014 0)
(2.395885565 0.5844375674 0)
(2.426597481 0.579565438 0)
(2.45112173 0.5748545291 0)
(2.462078779 0.5685623122 0)
(2.463738772 0.563428128 0)
(2.460489672 0.5584759233 0)
(2.45476496 0.5486326221 0)
(2.452294008 0.5416015357 0)
(2.454235069 0.5374028158 0)
(2.462011283 0.5300556521 0)
(2.476959601 0.5213344228 0)
(2.497610928 0.5155449611 0)
(2.51413953 0.5103589165 0)
(2.528279008 0.5072188283 0)
(2.540281173 0.5038415304 0)
(2.54724606 0.501937903 0)
(2.555755982 0.4930696957 0)
(2.816533539 0.03063118396 0)
(2.817088449 0.03069233738 0)
(2.816310936 0.02861698304 0)
(2.816023974 0.02730659729 0)
(2.805825191 0.04623088665 0)
(2.83893976 0.299295146 0)
(2.48722549 0.6243877829 0)
(2.26857333 0.6522028491 0)
(2.135902304 0.6250685326 0)
(2.105104683 0.6191902845 0)
(2.10919428 0.6140933688 0)
(2.147052875 0.6187471291 0)
(2.204653346 0.6209273992 0)
(2.248896128 0.6163715342 0)
(2.276266936 0.6142347093 0)
(2.29185717 0.6128330547 0)
(2.304326129 0.6102713095 0)
(2.317068773 0.6081241896 0)
(2.335207135 0.6048341472 0)
(2.360479505 0.5950341256 0)
(2.390546162 0.5858585086 0)
(2.419239211 0.5797340138 0)
(2.440182043 0.5745320644 0)
(2.451123871 0.5694895449 0)
(2.454954256 0.5640195398 0)
(2.453913963 0.5561893452 0)
(2.450530192 0.5485277762 0)
(2.449532952 0.5442828106 0)
(2.451219838 0.5389439733 0)
(2.459732621 0.5298185852 0)
(2.475878838 0.5201779532 0)
(2.497003996 0.5136435449 0)
(2.513212852 0.5084878614 0)
(2.527245498 0.5052932351 0)
(2.538741146 0.5023522695 0)
(2.545047838 0.5013082882 0)
(2.553633301 0.4935695421 0)
(2.800500138 0.03057404574 0)
(2.800919677 0.03101615091 0)
(2.800933197 0.02957713541 0)
(2.801171604 0.02698787038 0)
(2.794625433 0.03698788397 0)
(2.808805409 0.2218376021 0)
(2.543575003 0.5917806509 0)
(2.338082645 0.6557616086 0)
(2.179796148 0.6410889504 0)
(2.11380285 0.6345636158 0)
(2.106013962 0.6261689734 0)
(2.129247837 0.6186286994 0)
(2.180829 0.613181734 0)
(2.233448571 0.6126613355 0)
(2.269516971 0.6157568878 0)
(2.28967836 0.6150015889 0)
(2.304031983 0.6125238762 0)
(2.315950428 0.6111024436 0)
(2.333278972 0.6062844375 0)
(2.357314604 0.5957276749 0)
(2.385804084 0.5858456222 0)
(2.412223843 0.5780707798 0)
(2.429832589 0.5742506986 0)
(2.440442493 0.5699838923 0)
(2.446376576 0.5625813824 0)
(2.448009472 0.5540887818 0)
(2.447597629 0.5501802124 0)
(2.446898048 0.5465066241 0)
(2.448994704 0.5390085046 0)
(2.458316796 0.5288429497 0)
(2.475406117 0.5189654306 0)
(2.496793469 0.5124919193 0)
(2.512356105 0.5070298954 0)
(2.526136144 0.5035792966 0)
(2.536975592 0.5011123692 0)
(2.542848948 0.5008503467 0)
(2.551543861 0.4939279631 0)
(2.780226803 0.03038242217 0)
(2.781197866 0.03092112167 0)
(2.782572624 0.02824890393 0)
(2.78330557 0.02543654264 0)
(2.779819079 0.03093983468 0)
(2.764699181 0.1601413874 0)
(2.58818934 0.5322405226 0)
(2.375471609 0.6691073531 0)
(2.230285576 0.6625836642 0)
(2.128787323 0.6450646412 0)
(2.112164183 0.6298105433 0)
(2.120443457 0.6114266789 0)
(2.159619274 0.6032558747 0)
(2.217182381 0.6092120403 0)
(2.26104628 0.6178378979 0)
(2.287826988 0.6184289567 0)
(2.303902796 0.6162768627 0)
(2.315277916 0.612711608 0)
(2.332273451 0.605864974 0)
(2.355009155 0.5946232855 0)
(2.381568741 0.5832826506 0)
(2.406279939 0.5765056445 0)
(2.420868915 0.5746251686 0)
(2.431296125 0.5694678126 0)
(2.438679857 0.5599801135 0)
(2.442940549 0.5546454831 0)
(2.445040398 0.5519481856 0)
(2.445409208 0.5472276159 0)
(2.448163102 0.5376289749 0)
(2.45773795 0.5285914084 0)
(2.475779945 0.5185140522 0)
(2.496862602 0.5115579112 0)
(2.511748697 0.5057220662 0)
(2.525298561 0.5023002162 0)
(2.535585167 0.5004398245 0)
(2.541053066 0.5005424027 0)
(2.5497857 0.4935952884 0)
(2.760190853 0.02838192048 0)
(2.761954685 0.02872974471 0)
(2.763224182 0.0266963394 0)
(2.764460269 0.02469416267 0)
(2.762955474 0.02788866676 0)
(2.735970463 0.1173001869 0)
(2.615335074 0.4783947015 0)
(2.378533971 0.6779079648 0)
(2.275423404 0.6887265862 0)
(2.154442757 0.6517863878 0)
(2.120383302 0.6232277365 0)
(2.119664737 0.596844023 0)
(2.14446055 0.5927147256 0)
(2.200357497 0.6066137814 0)
(2.251972243 0.6182856493 0)
(2.285815276 0.6202434477 0)
(2.303275382 0.6178961113 0)
(2.314885507 0.61245852 0)
(2.33087786 0.6027913728 0)
(2.351739137 0.5906378734 0)
(2.37769466 0.5787206376 0)
(2.400986665 0.5762837939 0)
(2.412835158 0.5746040052 0)
(2.424017743 0.5673328437 0)
(2.43176699 0.5596635714 0)
(2.43853946 0.5564472624 0)
(2.44256371 0.5531307202 0)
(2.444757009 0.5459367574 0)
(2.447805988 0.5371233558 0)
(2.458384315 0.5286010781 0)
(2.477149092 0.5183638627 0)
(2.497341309 0.5113085059 0)
(2.511502882 0.5054335091 0)
(2.524601559 0.5021772186 0)
(2.534468217 0.5002024809 0)
(2.539388081 0.4997601163 0)
(2.547611687 0.4927285991 0)
(2.745082464 0.0271989197 0)
(2.746322483 0.02582001716 0)
(2.746954292 0.02384261305 0)
(2.747897212 0.02353632245 0)
(2.747504865 0.02658536106 0)
(2.723508138 0.087292686 0)
(2.635727558 0.4288769356 0)
(2.380540687 0.6618404289 0)
(2.309739247 0.7026528379 0)
(2.188772405 0.6580866732 0)
(2.131040981 0.6132193142 0)
(2.124082539 0.5923081244 0)
(2.136784588 0.5882688563 0)
(2.183866729 0.6061963482 0)
(2.239654641 0.6178809572 0)
(2.280453446 0.6207020205 0)
(2.301293611 0.6170531507 0)
(2.314306857 0.6077906364 0)
(2.329921193 0.596546529 0)
(2.349758247 0.5848854929 0)
(2.374987247 0.5762695012 0)
(2.39461218 0.5759009714 0)
(2.406242432 0.5729631379 0)
(2.417628134 0.56553244 0)
(2.425967989 0.5614355195 0)
(2.434239014 0.5581247157 0)
(2.439966292 0.5531446002 0)
(2.444003748 0.5436322439 0)
(2.448106262 0.537915485 0)
(2.45993118 0.5285966195 0)
(2.479252593 0.5183282262 0)
(2.498232447 0.5121391221 0)
(2.511567602 0.5064270476 0)
(2.523883299 0.5024107239 0)
(2.533104107 0.4993186374 0)
(2.537761486 0.4987035218 0)
(2.545007667 0.4910042412 0)
(2.735645821 0.02335208578 0)
(2.736142765 0.02191597554 0)
(2.736467051 0.02172402534 0)
(2.736861928 0.02309374258 0)
(2.736457053 0.0264405489 0)
(2.719377828 0.06711668556 0)
(2.6499837 0.3578681837 0)
(2.397243603 0.6308900653 0)
(2.34110384 0.6990532949 0)
(2.229492324 0.6661112723 0)
(2.139773645 0.6131223291 0)
(2.130086336 0.5951482835 0)
(2.134385873 0.5933335737 0)
(2.169871207 0.6072636791 0)
(2.224095772 0.6143577584 0)
(2.271199398 0.6172276084 0)
(2.297243439 0.6108095818 0)
(2.313273649 0.6004522194 0)
(2.329227018 0.5927573522 0)
(2.348736135 0.5824618531 0)
(2.371592458 0.5762435046 0)
(2.387521499 0.5744652514 0)
(2.400863216 0.5696156971 0)
(2.411902282 0.565777579 0)
(2.421205569 0.563251665 0)
(2.429541987 0.5590028066 0)
(2.437221757 0.5511034052 0)
(2.44263894 0.5425681677 0)
(2.449298503 0.5384305266 0)
(2.462606274 0.5283193036 0)
(2.482263506 0.5188759877 0)
(2.498897299 0.5145033629 0)
(2.511824106 0.5080396628 0)
(2.523029412 0.5023489112 0)
(2.531661324 0.4983869981 0)
(2.53583592 0.4973207431 0)
(2.542077385 0.4891492989 0)
(2.730561817 0.0203132014 0)
(2.731142738 0.02121204881 0)
(2.731218886 0.02364572024 0)
(2.73058464 0.02718797026 0)
(2.71961778 0.05304134663 0)
(2.64577709 0.2926992737 0)
(2.41505257 0.58962561 0)
(2.360539181 0.676710724 0)
(2.270341764 0.6658229581 0)
(2.165375895 0.6177186066 0)
(2.136393727 0.602659037 0)
(2.13647586 0.6029246392 0)
(2.159357257 0.6084240269 0)
(2.206250631 0.6076087456 0)
(2.257075685 0.6090447265 0)
(2.291356832 0.603914173 0)
(2.31108943 0.5982613676 0)
(2.328744818 0.5921519001 0)
(2.347001452 0.5825728932 0)
(2.36813443 0.5767499147 0)
(2.382676828 0.5714994122 0)
(2.396258131 0.5677055266 0)
(2.40713458 0.5667581027 0)
(2.416143083 0.5643356623 0)
(2.425006978 0.5579305429 0)
(2.433875649 0.5474879346 0)
(2.44074999 0.5425349792 0)
(2.45100791 0.5386690708 0)
(2.466079839 0.5285109003 0)
(2.486360908 0.5209164957 0)
(2.498537409 0.5162213143 0)
(2.511958166 0.5095042995 0)
(2.522427362 0.5026866076 0)
(2.529789054 0.4977676727 0)
(2.533014528 0.4950301654 0)
(2.539081149 0.4886015004 0)
(2.728457236 0.02154796679 0)
(2.729132532 0.02349674134 0)
(2.72952359 0.0250950976 0)
(2.728836795 0.02855942217 0)
(2.721834923 0.04481384469 0)
(2.650396356 0.2226318308 0)
(2.432382632 0.5424877527 0)
(2.357324683 0.6661818957 0)
(2.305699541 0.6637476173 0)
(2.205801024 0.6292993095 0)
(2.147648824 0.615246228 0)
(2.142114809 0.6144299949 0)
(2.151657581 0.6109383806 0)
(2.186746273 0.6013234758 0)
(2.239128571 0.601596659 0)
(2.282591503 0.6018279616 0)
(2.308147576 0.5985636853 0)
(2.327852451 0.5927129203 0)
(2.346123228 0.5841950674 0)
(2.36525347 0.5754652866 0)
(2.380595244 0.5686995701 0)
(2.392248669 0.5677061722 0)