/*--------------------------------*- C++ -*----------------------------------*\
  =========                 |
  \\      /  F ield         | OpenFOAM: The Open Source CFD Toolbox
   \\    /   O peration     | Website:  https://openfoam.org
    \\  /    A nd           | Version:  7
     \\/     M anipulation  |
\*---------------------------------------------------------------------------*/
FoamFile
{
    version     2.0;
    format      ascii;
    class       volScalarField;
    location    "1.4";
    object      T;
}
// * * * * * * * * * * * * * * * * * * * * * * * * * * * * * * * * * * * * * //

dimensions      [0 0 0 1 0 0 0];

internalField   nonuniform List<scalar> 
555
(
1.00015334
1.001255443
1.007211012
1.027224636
1.069499813
1.121852977
1.160513898
1.197563934
1.209413416
1.207707133
1.201133109
1.192985277
1.183986835
1.171111583
1.157011244
1.135641004
1.001273146
1.006297826
1.023448335
1.051181754
1.082267749
1.111400699
1.143523468
1.164693101
1.182969178
1.194544866
1.19450549
1.190650613
1.180817392
1.167544874
1.155852035
1.136131883
1.006874708
1.021537689
1.050104371
1.080638159
1.09440343
1.103429532
1.117629286
1.135805134
1.160771146
1.183225199
1.188749768
1.184220654
1.173304685
1.163612365
1.155158254
1.136974028
1.02280988
1.051963544
1.076751072
1.092578689
1.099077961
1.100756976
1.104426231
1.111798486
1.125590594
1.143699725
1.161218582
1.16680286
1.165592363
1.162430864
1.156356398
1.140041119
1.049774937
1.081062913
1.098728174
1.100770456
1.10088676
1.100551191
1.098823631
1.096359822
1.098158453
1.107766956
1.125674189
1.144301084
1.157457539
1.155172908
1.146410397
1.131535422
1.07901222
1.091523096
1.101396053
1.102466922
1.101890532
1.099198788
1.094281266
1.087456281
1.081167322
1.081847774
1.089222508
1.105306503
1.127515437
1.137128075
1.136153096
1.130193207
1.100473353
1.100452357
1.101532201
1.102117609
1.100227488
1.095185359
1.087609482
1.079929302
1.071105061
1.065153802
1.065681726
1.072715445
1.08984314
1.108970729
1.12661509
1.123717176
1.103584999
1.103640609
1.102745163
1.100434069
1.095468738
1.088373537
1.079826389
1.071618525
1.063837348
1.055429001
1.04986458
1.050553761
1.056291323
1.072142196
1.098410894
1.107750356
1.102832462
1.103338967
1.101299057
1.096080086
1.088838977
1.08024085
1.07204277
1.063628215
1.056073091
1.048620622
1.040516222
1.035300625
1.035750333
1.042488801
1.057300618
1.084542127
1.103390741
1.101415299
1.096615263
1.089231144
1.080648819
1.072114912
1.06350628
1.056013344
1.048039991
1.04111483
1.034033272
1.026011989
1.02160856
1.021916871
1.026315041
1.052603301
1.101840403
1.096916575
1.089517474
1.08122372
1.072100831
1.063832043
1.05585712
1.047918514
1.040722142
1.033109465
1.026844203
1.019735671
1.011675769
1.007163033
1.00748486
1.022002247
1.096974637
1.0898959
1.081121521
1.072235136
1.063928814
1.055891051
1.048224291
1.040081714
1.032686224
1.025891676
1.018457107
1.012592512
1.005396325
0.9970441407
0.994341453
0.9990407187
1.089789525
1.081442685
1.072361104
1.063780888
1.056142872
1.047832964
1.039847286
1.032264201
1.024621581
1.017899515
1.010715574
1.004033485
0.9990133309
0.990619325
0.985020755
0.9827193079
1.081395652
1.072040682
1.063815267
1.055750184
1.047554844
1.039625937
1.03151144
1.024360032
1.016712537
1.009136746
1.003087688
0.9962766208
0.9909697647
0.9844467901
0.9780180076
0.9711802176
1.072243277
1.063157299
1.055502595
1.047228129
1.038694596
1.031376432
1.023409451
1.01576979
1.00831146
1.000616732
0.9953948176
0.98876752
0.9826481563
0.9773388377
0.97099654
0.9627914424
1.0629994
1.054996446
1.046594654
1.038213067
1.030235765
1.022851435
1.014950283
1.006389954
0.9998224663
0.9929967341
0.9872120146
0.9811017371
0.9744493632
0.9692535131
0.9639606282
0.9556627333
1.054231008
1.046460769
1.037057329
1.029296358
1.021900263
1.013504693
1.005572303
0.9975983816
0.9919324591
0.9854366304
0.9786714386
0.9731524814
0.9665355117
0.9614389298
0.9568261423
0.9485245125
1.045552659
1.036730584
1.027909944
1.020185344
1.012950319
1.003785649
0.9966687908
0.9900151559
0.9835032133
0.9767332796
0.9699778287
0.9648337993
0.9591195268
0.9539806722
0.9489893423
0.9407204666
1.035915411
1.02665885
1.019095575
1.011222626
1.003388445
0.9947289677
0.9879507994
0.9815670506
0.9740543463
0.9680327816
0.9620086222
0.95698615
0.951917689
0.946088092
0.9408429003
0.9332460793
1.025859832
1.017686644
1.010109612
1.001430527
0.9932698477
0.985512146
0.9790574423
0.9724242843
0.9654791537
0.9599668448
0.954211567
0.949317678
0.9439234748
0.9375286913
0.9328254426
0.9252865367
1.016454675
1.007933852
0.9999525384
0.9910735256
0.9839437273
0.9772543808
0.9701662087
0.9636565875
0.9570101574
0.9511733174
0.9460495768
0.9411317321
0.9353808072
0.9296874755
0.9253662526
0.9171733322
1.006654871
0.9981205002
0.9892839731
0.9821053883
0.97483496
0.9681287139
0.96026062
0.9542531729
0.9484455687
0.9425963577
0.9382384963
0.9327661657
0.9266411553
0.9213645057
0.9162649909
0.9072636752
0.9967940517
0.9877570184
0.9790470233
0.9727460108
0.9653680802
0.9575916298
0.950842329
0.9456794333
0.9402538951
0.9350729145
0.9301584844
0.9243326563
0.9178457359
0.9125221648
0.9064571717
0.8999031007
0.9857213711
0.9761221293
0.969459743
0.9634171388
0.955437812
0.948045272
0.9424519774
0.9376528498
0.9314115983
0.9259535781
0.9203853618
0.9137759151
0.907755223
0.9017036703
0.8951745712
0.8947111103
0.9741552462
0.9667427541
0.9603378186
0.9535705331
0.944825205
0.9385481362
0.9340923006
0.9283478613
0.922511549
0.9164913576
0.91071724
0.9044142188
0.8988614201
0.8951704209
0.8925459481
0.8943577449
0.9633704787
0.957187051
0.9503913868
0.9424351329
0.9353031803
0.9297402616
0.9244980915
0.9182256961
0.9114789276
0.9057861282
0.8994082206
0.8935898998
0.890350345
0.8910660419
0.8919883417
0.9104456137
0.9533783388
0.9466022703
0.9391503346
0.9323651026
0.9264836032
0.9212044968
0.9147081391
0.9081619077
0.9014323721
0.8959247693
0.8925314719
0.8897694365
0.889392523
0.8920854441
0.9039102913
0.946080178
0.943807078
0.9361093617
0.9287106147
0.9227301469
0.9164181951
0.9093732802
0.9031803811
0.8956569906
0.8899193496
0.8870478757
0.88791662
0.8893309427
0.8969468666
0.915562245
0.944448364
0.983505607
0.9326532776
0.9245437598
0.9194073319
0.9131650477
0.9052368189
0.8985406942
0.892449052
0.8883082499
0.886285914
0.8860924376
0.8893863323
0.902253242
0.932239381
0.9646149935
0.9858233643
0.9979732918
0.9198107893
0.9131228323
0.9078191259
0.9005139041
0.8916345524
0.886364709
0.8831132188
0.8839227724
0.8861420086
0.8939986104
0.9175713947
0.9471032803
0.9715817061
0.9875244182
0.9959522677
0.9999394152
0.908428708
0.9034576974
0.8972337028
0.8882045739
0.8843832132
0.8824324039
0.8822133463
0.8857828262
0.9026291043
0.9302710067
0.9635503971
0.9909510214
0.9983916433
1.00070132
1.00296297
1.003902701
0.8964327206
0.890711482
0.8835119654
0.878518897
0.8797294973
0.8824098119
0.8906059695
0.9152313295
0.9500077541
0.9815003984
0.9894493922
0.9988969962
1.002701727
1.003906252
1.004860987
1.005812721
0.8863469394
0.8818696954
0.8778251018
0.8778442426
0.8817266558
0.9014281453
0.9301000238
0.9617909789
0.9805021599
0.9967567529
0.9985594646
1.001962847
1.003953638
1.004319747
1.005165044
1.00598867
0.87576706
0.8762343376
0.8777274576
0.8894153519
0.9140082699
0.9504002605
0.9836868607
0.9969828447
0.99981836
1.003374245
1.005223748
1.0060506
1.006174361
1.005879845
1.005205815
1.00549804
0.8746695979
0.8787815424
0.898841246
0.9338014119
0.9698546103
0.9818550466
0.9951006673
1.00209818
1.003178389
1.005188645
1.006199025
)
;

boundaryField
{
    inlet
    {
        type            fixedValue;
        value           nonuniform 0();
    }
    outlet
    {
        type            inletOutlet;
        inletValue      uniform 1;
        value           nonuniform List<scalar> 
34
(
1.135643175
1.136132961
1.13697362
1.140041609
1.131537135
1.130195429
1.123719024
1.107752851
1.084542195
1.052601586
1.02200054
0.9990390672
0.9827171228
0.9711783721
0.9627920797
0.9556627772
0.948514429
0.9407091373
0.9332468367
0.9252933058
0.9171754861
0.9072606097
0.8999023979
0.8947129715
0.8943565577
0.9104460958
0.9460815628
0.9835303514
0.9979166327
0.999950172
1.003944464
1.005826027
1.005983607
1.005483516
)
;
    }
    bottom
    {
        type            slip;
    }
    top
    {
        type            slip;
    }
    obstacle
    {
        type            zeroGradient;
    }
    defaultFaces
    {
        type            empty;
    }
    procBoundary5to4
    {
        type            processor;
        value           nonuniform List<scalar> 
34
(
1.00001106
1.00013756
1.00109224
1.006100589
1.022086394
1.052486677
1.081971795
1.093713655
1.101066423
1.104058387
1.103812325
1.101657432
1.096893585
1.089694388
1.081584794
1.072379387
1.06292896
1.054060777
1.04496392
1.035111344
1.024523982
1.013772216
1.004156558
0.9939333011
0.9833571858
0.9723255554
0.960338131
0.9504162736
0.9404387584
0.9294306381
0.9173273665
0.9024169211
0.8913526943
0.8787883221
)
;
    }
    procBoundary5to10
    {
        type            processor;
        value           uniform 0.8746124326;
    }
    procBoundary5to11
    {
        type            processor;
        value           nonuniform List<scalar> 
17
(
1.006788521
1.006863389
1.00669345
1.005984931
1.005679884
0.8880498441
0.9129032032
0.9507049633
0.9809175264
1.000907829
1.002547484
1.00322821
1.004174953
1.003789699
1.004302958
1.006788521
1.005280479
)
;
    }
}


// ************************************************************************* //
