/*--------------------------------*- C++ -*----------------------------------*\
  =========                 |
  \\      /  F ield         | OpenFOAM: The Open Source CFD Toolbox
   \\    /   O peration     | Website:  https://openfoam.org
    \\  /    A nd           | Version:  7
     \\/     M anipulation  |
\*---------------------------------------------------------------------------*/
FoamFile
{
    version     2.0;
    format      ascii;
    class       volScalarField;
    location    "0.9";
    object      rho;
}
// * * * * * * * * * * * * * * * * * * * * * * * * * * * * * * * * * * * * * //

dimensions      [1 -3 0 0 0 0 0];

internalField   nonuniform List<scalar> 
2225
(
2.304315018
2.271915047
2.239284159
2.208864186
2.178447458
2.145397449
2.11027959
2.077096464
2.047757481
2.022965223
2.002231547
1.980608801
1.962664107
1.945926979
1.930501328
1.904504804
1.00137327
0.9965037178
0.9890506698
0.9851511042
0.9933248905
1.23657984
1.915192748
2.306129254
2.486820669
2.537185368
2.509573789
2.465939928
2.441714947
2.424443979
2.398160589
2.368668093
2.341957579
2.313481561
2.282026246
2.251435347
2.221563354
2.189119979
2.156048605
2.123277838
2.094404573
2.068754667
2.045694339
2.021828395
1.99890393
1.975970053
1.954978658
1.921068928
1.010236522
1.006940072
1.002675481
0.9962727948
0.9922722602
1.004489835
1.198038002
1.817773946
2.398684883
2.522452141
2.490710131
2.489057733
2.476145858
2.457551524
2.432311557
2.402665715
2.374066191
2.345679842
2.314778532
2.283743993
2.255490287
2.227312101
2.199672513
2.170506312
2.14285421
2.116535162
2.091295519
2.064978224
2.039074251
2.014200198
1.993089423
1.95262277
1.015840682
1.01376219
1.011171035
1.007616886
1.001605384
0.998561474
1.004842931
1.209672234
1.823509928
2.264344926
2.488703317
2.541515575
2.520996778
2.497458106
2.469008794
2.436416491
2.402007396
2.372849028
2.345842892
2.315959757
2.286970182
2.260600298
2.236427124
2.21071277
2.185941408
2.161157191
2.138146889
2.112839753
2.085998655
2.057636498
2.032088985
1.98711158
1.018589739
1.017721861
1.016390011
1.0145554
1.011761447
1.007024721
1.003833911
1.012802884
1.164513776
1.741499487
2.359114684
2.49663839
2.483036902
2.497475627
2.494635571
2.470902464
2.433163909
2.399627256
2.371506784
2.342138638
2.313660638
2.288781544
2.268456462
2.247133415
2.224644745
2.201414723
2.179038693
2.154616976
2.127817762
2.099952226
2.074228348
2.027584046
1.019361903
1.019204194
1.018793128
1.018028158
1.016849509
1.014834479
1.010826116
1.008713797
1.012919992
1.173440551
1.727539942
2.21043151
2.491941974
2.540334679
2.523637124
2.502045211
2.465257367
2.424471344
2.391058047
2.365647062
2.341889781
2.318017279
2.298677718
2.278843599
2.256948532
2.234794116
2.21419669
2.192004033
2.166605683
2.138411619
2.11140918
2.065681043
1.019472989
1.019462726
1.019408145
1.019227284
1.018854321
1.01822254
1.016960083
1.014186063
1.012099086
1.018063746
1.130561892
1.64747653
2.2937366
2.441931122
2.468568003
2.493981048
2.488244386
2.45343812
2.414567897
2.390764026
2.368696709
2.344566391
2.325737313
2.30791873
2.287490736
2.265924197
2.244508457
2.222115418
2.197040554
2.169825153
2.14426397
2.10150076
1.019465181
1.019456044
1.01942753
1.019372123
1.019298034
1.019169052
1.018911813
1.018226823
1.016232242
1.015126362
1.017662973
1.132630761
1.595511305
2.124928119
2.467751856
2.525745674
2.510271202
2.480383578
2.444037729
2.414941474
2.392827784
2.370490233
2.354268167
2.336950937
2.315472094
2.29285568
2.270400137
2.247659032
2.223963929
2.198058952
2.172687719
2.132598186
1.019264934
1.019346446
1.0193608
1.019340262
1.019287124
1.019265189
1.019233944
1.019166699
1.01887633
1.017762687
1.016790332
1.020143715
1.089396795
1.519242918
2.16609142
2.369443707
2.439306008
2.489030915
2.476645946
2.447069992
2.423437177
2.401066474
2.379886493
2.361644709
2.342414849
2.320690523
2.296356914
2.271677712
2.247312195
2.221648842
2.197479655
2.160910656
1.018864258
1.019130503
1.01930066
1.019354619
1.019326547
1.019307576
1.019261525
1.019207156
1.019200568
1.019116448
1.018500436
1.018116692
1.019229471
1.08649784
1.431864476
1.998141293
2.40965592
2.500530089
2.474717401
2.46509448
2.45600544
2.436205647
2.407570734
2.387173601
2.369048051
2.346075502
2.319948284
2.29313937
2.268666197
2.245514473
2.222813625
2.187839457
1.0183803
1.018716323
1.019021471
1.019231507
1.019260971
1.019270094
1.01925796
1.019235705
1.019252988
1.019321382
1.019304598
1.019002605
1.018626025
1.019965447
1.054258638
1.377026334
1.995185153
2.28265228
2.435864594
2.495199656
2.485966031
2.472742022
2.44520903
2.417492811
2.392745979
2.36907074
2.344353559
2.316615614
2.292065914
2.268698436
2.246856137
2.213595957
1.017465659
1.017791735
1.018206611
1.018557772
1.018713892
1.018850931
1.019061959
1.019182299
1.019240966
1.019321908
1.019362603
1.019340128
1.019117583
1.018986967
1.01938826
1.052783608
1.28994105
1.845843235
2.354360095
2.456065751
2.446932099
2.463892509
2.467529662
2.449355612
2.419332828
2.393012368
2.367409732
2.337779422
2.313501803
2.292688786
2.272976235
2.240002751
1.01707108
1.01718615
1.017481487
1.017825947
1.018048338
1.018238307
1.018493548
1.018798275
1.019012376
1.019163705
1.01923807
1.019255159
1.019246007
1.01921282
1.019237452
1.019733173
1.034876359
1.251041269
1.786249703
2.185564508
2.444744056
2.497063871
2.488225123
2.472146818
2.448761015
2.41938455
2.389540543
2.358311527
2.335211471
2.316299626
2.29824651
2.26577334
1.016860758
1.01702905
1.017265546
1.017294261
1.017365247
1.017582872
1.017921011
1.018338239
1.018601491
1.018707119
1.018802902
1.01892354
1.019091247
1.019234007
1.019309773
1.019351172
1.019490302
1.033352078
1.165728293
1.648585761
2.225388103
2.367298608
2.420947718
2.465693415
2.459656511
2.442224456
2.413051593
2.381040725
2.353732025
2.334813962
2.321428612
2.292175641
1.016927233
1.016998237
1.016980518
1.016923902
1.016933886
1.017089361
1.017291893
1.017573458
1.01795721
1.01825446
1.018451075
1.018693345
1.018920745
1.019073392
1.019168553
1.019166895
1.019244472
1.019466208
1.024420889
1.136430939
1.531213754
2.033977355
2.390851162
2.466573296
2.450656206
2.436806559
2.42830113
2.404879221
2.374343048
2.35495912
2.343508302
2.316535673
1.018534951
1.017498621
1.017075019
1.016898017
1.016904489
1.017046731
1.017034537
1.017027673
1.017100317
1.017308366
1.017652519
1.018115079
1.018571755
1.018641288
1.018713642
1.018843276
1.019052107
1.019320023
1.019452997
1.023416466
1.077918963
1.425257093
1.995171282
2.249780356
2.410386748
2.45559212
2.447748842
2.4288774
2.40471654
2.383862942
2.368389098
2.339504347
1.021018783
1.019368117
1.018491629
1.017816778
1.017463591
1.017219432
1.017030501
1.016755743
1.016707504
1.016781783
1.017038542
1.017386754
1.017795828
1.018100557
1.018347376
1.018629896
1.018889338
1.019169636
1.019263172
1.019260843
1.020280773
1.061767689
1.295676937
1.806740971
2.286309526
2.376691063
2.39257398
2.412452568
2.422426366
2.413713505
2.399950661
2.36684485
1.023123511
1.021245869
1.021020427
1.020778936
1.019889754
1.018787277
1.017661949
1.016874674
1.0167677
1.016796267
1.016917626
1.017046299
1.017199029
1.017420576
1.017737982
1.018112042
1.018524336
1.018780308
1.018933713
1.018999245
1.019160864
1.020117231
1.035665152
1.220788977
1.675669817
2.093408658
2.369235249
2.437858068
2.426031793
2.422263629
2.419145606
2.396461381
1.029013889
1.025835487
1.0229929
1.022474252
1.021460722
1.020499986
1.019716015
1.018702111
1.017949804
1.017574094
1.017237939
1.017026594
1.016932478
1.016948908
1.017135993
1.017407194
1.017659214
1.01797814
1.018315942
1.018685664
1.018988893
1.019055571
1.019287658
1.0294193
1.123122119
1.525554559
2.056926252
2.257751389
2.378390458
2.435112843
2.432407047
2.417570967
1.035952615
1.033734668
1.028883429
1.025374769
1.023086189
1.021084826
1.020914999
1.02067622
1.019855439
1.019223531
1.018675588
1.017594102
1.016975185
1.016966206
1.017033726
1.017140844
1.017139942
1.017214301
1.017455986
1.017893512
1.018409609
1.018648548
1.018736643
1.018902685
1.021748952
1.089202199
1.377407695
1.878919449
2.290862824
2.374973129
2.388299529
2.399616337
1.041523098
1.040794694
1.038132657
1.033478271
1.03101642
1.027092337
1.022948811
1.021992973
1.020837052
1.019882523
1.019665515
1.019162793
1.018023915
1.017496311
1.017347084
1.017183687
1.016952568
1.01688483
1.016971686
1.017292668
1.017731096
1.018110568
1.018277742
1.018386612
1.018557494
1.020322748
1.048062321
1.274305843
1.72929029
2.128364008
2.368396714
2.409265176
1.05504926
1.049033404
1.046104095
1.040409251
1.036673489
1.034666717
1.03080709
1.026956251
1.024426331
1.02140643
1.020046156
1.020295648
1.020059855
1.019329664
1.018693659
1.017946524
1.01712684
1.016961892
1.017042122
1.017321771
1.01768927
1.017819895
1.017849228
1.01794732
1.018126984
1.018347648
1.018902616
1.033933079
1.15216621
1.543050422
2.025154653
2.319700411
1.068428683
1.059206454
1.055676106
1.051828587
1.04351982
1.040970653
1.038799126
1.034678565
1.032035059
1.029176711
1.024596242
1.022359592
1.021729493
1.020462325
1.019458663
1.018988068
1.018611504
1.018272107
1.017898113
1.017679917
1.017611127
1.0174814
1.017490154
1.017627213
1.017926142
1.018135399
1.018098658
1.018180796
1.022182146
1.089830419
1.357394372
1.958149439
1.081381429
1.073398162
1.066337625
1.063956976
1.058081584
1.050464702
1.04661959
1.041671516
1.036509415
1.034764429
1.032396826
1.02863318
1.025611208
1.022516303
1.019758395
1.019415201
1.019928416
1.019947765
1.019306829
1.018387136
1.01768586
1.017391556
1.017358564
1.017440214
1.017721464
1.017905137
1.017871019
1.017811064
1.017822086
1.019442094
1.041101712
1.410254124
1.093067087
1.087992281
1.078033116
1.072439266
1.068974882
1.061807741
1.056551864
1.053613475
1.046839715
1.039818131
1.037822149
1.034653911
1.031279822
1.029176027
1.025991803
1.022159595
1.021168982
1.020990993
1.019948453
1.018716201
1.017975735
1.017719876
1.01759709
1.017592146
1.017758165
1.017793506
1.017615347
1.017445821
1.017469327
1.017698756
1.018132975
1.082794139
1.104227946
1.100343563
1.093764726
1.084584229
1.080649244
1.075550249
1.067195684
1.063570437
1.060311152
1.053043509
1.047167202
1.043447019
1.038013118
1.035044858
1.033683241
1.030689859
1.026396104
1.023774511
1.02195165
1.019905624
1.019636732
1.019879391
1.019816859
1.019277386
1.018614078
1.018094655
1.017694246
1.017482687
1.017475659
1.017601422
1.017663789
1.02041816
1.117978645
1.111589811
1.107056857
1.098447138
1.091147703
1.087452395
1.080556343
1.071618224
1.068251929
1.064094858
1.057158012
1.053017012
1.049052801
1.042010465
1.038200587
1.036350393
1.032259213
1.028028467
1.026215922
1.024063355
1.022030527
1.021578637
1.021644857
1.021100202
1.020167944
1.019520077
1.018923471
1.018256877
1.017835602
1.017737066
1.017675855
1.017613192
1.133182662
1.123497115
1.118330589
1.112821487
1.103652126
1.098787004
1.095046253
1.087039193
1.079730919
1.076004565
1.069941716
1.062716975
1.0597377
1.055590602
1.048193703
1.043616216
1.040268192
1.035032871
1.031300497
1.02933664
1.025658715
1.022865794
1.022433201
1.021824411
1.020797531
1.020430613
1.020282553
1.020098541
1.019653658
1.019002395
1.018200768
1.01766394
1.146459039
1.138117055
1.129734903
1.125325501
1.118235879
1.109101553
1.104837027
1.099872763
1.09125059
1.085928619
1.082240715
1.07483978
1.068169828
1.065422344
1.060299234
1.053277463
1.049367772
1.044719961
1.038666965
1.036360112
1.034374281
1.030872582
1.027550734
1.025044739
1.022268955
1.020727697
1.020611498
1.020978057
1.020796959
1.020230234
1.019695833
1.018588138
1.1574633
1.152269478
1.142717511
1.136013729
1.131669325
1.123479024
1.115700214
1.111972108
1.105878992
1.096931163
1.092579254
1.088603369
1.08052056
1.074347621
1.070833366
1.064648183
1.058505388
1.055287561
1.049386711
1.042140288
1.040424113
1.037814857
1.034125468
1.031920748
1.029160504
1.025438521
1.023194501
1.022123395
1.021131423
1.020552896
1.020602733
1.019897433
1.168762712
1.164283207
1.157564535
1.147738067
1.142661233
1.137431961
1.127969837
1.121781343
1.118114437
1.110604033
1.102332432
1.098998681
1.094139413
1.085736626
1.080911934
1.076781503
1.069352848
1.0644103
1.061243387
1.054825776
1.048406083
1.044089453
1.038573558
1.035779942
1.034876402
1.033030527
1.030429901
1.027952403
1.025173446
1.022377859
1.020884693
1.020342806
1.182915298
1.175028614
1.170479897
1.16212494
1.153300846
1.149057036
1.142763545
1.133048203
1.128139854
1.124100514
1.115688985
1.108117919
1.104629378
1.098747489
1.09118405
1.087585748
1.082748893
1.073292622
1.069206487
1.066268476
1.060418577
1.055615575
1.05097945
1.042790043
1.039293968
1.037979777
1.035512605
1.033433438
1.031442011
1.028754632
1.025122562
1.021653667
1.198610737
1.187503038
1.181713624
1.176319104
1.166479747
1.159367024
1.155173254
1.147292955
1.138171668
1.134438018
1.129622785
1.120475389
1.114523901
1.110660299
1.103175239
1.096736295
1.093929441
1.087957717
1.07972467
1.075499018
1.070307411
1.063702399
1.060432383
1.056136375
1.04996132
1.045813665
1.04139299
1.037040506
1.034824103
1.032762049
1.03094811
1.027228337
1.211663496
1.202691304
1.192741567
1.187911478
1.18123852
1.17103611
1.165474557
1.160953571
1.151983005
1.143717097
1.140142734
1.134324163
1.125486088
1.120890408
1.116359821
1.107405562
1.101900656
1.099021826
1.092864084
1.086423237
1.082150529
1.074902358
1.067832022
1.065364191
1.0612453
1.056266959
1.052474009
1.047244219
1.042111868
1.036677803
1.034193766
1.032198075
1.223249471
1.217545317
1.206901962
1.198834484
1.194080367
1.185701022
1.1759508
1.171601569
1.16634812
1.156414038
1.149656993
1.145989261
1.138794574
1.130684443
1.127109132
1.121542704
1.112586637
1.108383243
1.104318707
1.096924605
1.091862227
1.087671539
1.080470821
1.07458722
1.070291763
1.063988161
1.059728553
1.056315301
1.052101848
1.048148881
1.043489629
1.037293801
1.234364257
1.229140392
1.221922526
1.210985677
1.204684805
1.199544185
1.190018521
1.181176757
1.177200481
1.171124904
1.161231399
1.155663702
1.151385206
1.143000849
1.135977497
1.132563926
1.126127395
1.11856088
1.114597786
1.108804535
1.100857441
1.09678246
1.09264101
1.086499246
1.081815753
1.076444699
1.068845949
1.063620027
1.059119097
1.05615659
1.054261216
1.047575714
1.249208184
1.240537293
1.235324973
1.226327217
1.215934382
1.210882054
1.204945355
1.194298431
1.18682253
1.182918984
1.175594876
1.166036811
1.161582272
1.156540313
1.14749786
1.14201336
1.137978887
1.130186662
1.124120152
1.120285077
1.113629682
1.10696948
1.102477257
1.096543077
1.090523554
1.086811063
1.081507692
1.075455855
1.070395435
1.063488592
1.060156215
1.055374929
1.264674152
1.252999775
1.246174224
1.240280827
1.23004439
1.220822971
1.216203192
1.209451338
1.198722282
1.192428431
1.188136538
1.179845355
1.171130244
1.167058288
1.161145718
1.152626361
1.148020873
1.142713755
1.134036054
1.129174396
1.125052113
1.118884508
1.113570242
1.108219825
1.100494544
1.094411166
1.090864009
1.086407839
1.082320153
1.077429237
1.070233008
1.061942807
1.278428285
1.268686552
1.257894663
1.252276529
1.245517397
1.234351878
1.226482384
1.22195802
1.213999381
1.203321375
1.198193903
1.193382495
1.184058048
1.176625294
1.172503271
1.165243639
1.157606635
1.153688497
1.147249433
1.139326243
1.134813417
1.129435879
1.123403978
1.118793821
1.113272287
1.105992219
1.100230369
1.095322691
1.090240108
1.086808554
1.082644329
1.073276658
1.289961053
1.283196004
1.272174763
1.262753096
1.257356588
1.249537401
1.238369133
1.23167358
1.22684062
1.217964977
1.20791881
1.203431547
1.197944297
1.188614693
1.182336616
1.177512575
1.168991916
1.162476406
1.158721009
1.152079436
1.145541287
1.140235929
1.13300584
1.12711484
1.123153736
1.118474164
1.11266572
1.10669616
1.10003902
1.093708132
1.090681967
1.08424805
1.295478855
1.28777438
1.276227752
1.268212633
1.262784424
1.25393395
1.242932296
1.237374638
1.232236866
1.222166744
1.213162175
1.208967182
1.202406643
1.193109642
1.187913829
1.18237962
1.173148146
1.167789942
1.163410253
1.156477024
1.15110646
1.145226036
1.13761506
1.132157224
1.127629698
1.122954058
1.11766719
1.111894398
1.105216892
1.099857722
1.092776202
1.306866694
1.300494065
1.291620356
1.280283743
1.273288124
1.267397884
1.257631933
1.247160281
1.242267696
1.236527244
1.226152361
1.218452615
1.213853379
1.206089633
1.197457264
1.193108883
1.187118812
1.178398921
1.173101847
1.167070796
1.160284788
1.15607832
1.150352004
1.14348986
1.137579963
1.131430722
1.126398944
1.121886889
1.116724117
1.111684951
1.103174212
1.320522486
1.311863194
1.305284586
1.295480794
1.284691259
1.278515668
1.272385231
1.261775126
1.252128975
1.247708535
1.24107025
1.230464379
1.224107774
1.218982658
1.210003117
1.202302571
1.198242984
1.191464216
1.183557404
1.178268663
1.170933256
1.164802662
1.160881436
1.154785312
1.148773011
1.142725689
1.135904242
1.131152463
1.12640477
1.121497328
1.113124895
1.335474961
1.324411269
1.31674056
1.309690149
1.299234511
1.289078095
1.283223105
1.276515195
1.265513048
1.257098022
1.252374054
1.24438722
1.23444893
1.229204551
1.223534332
1.21419108
1.207141108
1.202447588
1.195174932
1.188683246
1.183507398
1.175695264
1.169765655
1.164754554
1.15834973
1.153448011
1.147737463
1.141175604
1.136333571
1.131687809
1.122573066
1.34834238
1.338965137
1.328500836
1.32139083
1.31390659
1.303228338
1.293709022
1.28804525
1.280682531
1.269483142
1.262567522
1.257470938
1.248109599
1.2391925
1.234548764
1.228118406
1.218703708
1.212268533
1.206829263
1.199130856
1.193484801
1.188070404
1.180385834
1.174785856
1.168867315
1.162551748
1.158109401
1.152020441
1.145356947
1.141379247
1.133268383
1.359274011
1.35212634
1.342436839
1.332725005
1.325730586
1.31778603
1.307117976
1.298408271
1.292621611
1.284110691
1.273244612
1.267575567
1.261729148
1.251594622
1.243833832
1.238862834
1.231664216
1.223113105
1.217287788
1.211222676
1.203407006
1.197811535
1.191881567
1.18500897
1.179753343
1.173422255
1.167525419
1.162868148
1.155811452
1.149849681
1.142400298
1.370115491
1.362885472
1.355594311
1.345967388
1.336965405
1.329879256
1.321521567
1.310972459
1.303172497
1.297256217
1.287634773
1.277604914
1.272769306
1.265970239
1.255620252
1.249040292
1.243575644
1.235662178
1.227779889
1.222158684
1.215617107
1.208128029
1.20236754
1.195858476
1.189379493
1.183993504
1.17737681
1.172145283
1.167338199
1.161019173
1.15164078
1.380339762
1.373044911
1.366278123
1.358803256
1.349492576
1.341094656
1.333906472
1.325136065
1.314756256
1.307801329
1.301456239
1.29091635
1.282176292
1.277352197
1.269239876
1.259453681
1.253779384
1.247650298
1.239462294
1.232131035
1.226164525
1.219392913
1.212695946
1.207015253
1.200449501
1.194145711
1.187965123
1.180724145
1.175932883
1.172244241
1.163148092
1.387989874
1.382546421
1.375885765
1.369431535
1.361881267
1.352985944
1.345016823
1.337815508
1.328707476
1.31869694
1.312359058
1.305417077
1.294310922
1.287036228
1.282064463
1.272780508
1.263945232
1.258703295
1.251885239
1.243867095
1.237034195
1.230598784
1.223470856
1.216953343
1.21122418
1.204936924
1.199113653
1.192603951
1.184660063
1.180224964
1.17289983
1.393353547
1.389694441
1.384613037
1.378560317
1.372350797
1.364896326
1.356414296
1.348759283
1.3415296
1.33216776
1.322743871
1.316774031
1.308981337
1.297762854
1.291682909
1.286181908
1.276152441
1.268329798
1.26286659
1.255284319
1.247768683
1.241470002
1.234882416
1.22763362
1.220797219
1.214559669
1.208616822
1.203731515
1.197830432
1.190877582
1.181197599
1.396911082
1.394508137
1.391210704
1.386547843
1.38104436
1.37504348
1.367840969
1.359752117
1.352356935
1.34509652
1.335535034
1.326807841
1.321037649
1.312478638
1.301582071
1.296309693
1.290134696
1.27979987
1.273132345
1.267332774
1.25912404
1.252029897
1.24592593
1.239432713
1.232412107
1.225391673
1.218529046
1.21231836
1.207533178
1.202503848
1.192045823
1.39881774
1.397538553
1.395504522
1.392549975
1.38835626
1.383311888
1.377562297
1.370681463
1.36295055
1.355830413
1.348523847
1.338909795
1.330803446
1.32500688
1.315780002
1.305681149
1.300677414
1.293537908
1.283384408
1.277530948
1.271306395
1.262811931
1.255739676
1.249408478
1.243168469
1.236739218
1.230082905
1.223192939
1.215936156
1.210888078
1.202240938
1.39963239
1.399104185
1.398064568
1.396350205
1.393739043
1.39000565
1.385388216
1.379920272
1.373404197
1.366013018
1.359140854
1.351832089
1.342311385
1.334770699
1.328739439
1.319004262
1.309909302
1.3049866
1.296918294
1.287208084
1.281983184
1.275384079
1.267045818
1.260022514
1.25337305
1.247199861
1.240926609
1.234610212
1.227701452
1.221173243
1.211555648
1.399914892
1.399739154
1.399330403
1.398497338
1.397065068
1.394784063
1.391497533
1.387265058
1.382148946
1.375986953
1.368939266
1.362307598
1.354967142
1.345742529
1.338657201
1.332257826
1.322209143
1.314128235
1.30900551
1.300119311
1.29100209
1.285887863
1.279066521
1.271169014
1.2640179
1.257114873
1.2507491
1.244129148
1.237709949
1.232288826
1.222416052
1.399988901
1.399944757
1.399818098
1.399506608
1.398848826
1.397661163
1.395703878
1.392816922
1.388976355
1.384217041
1.378430472
1.371750892
1.365326312
1.357982888
1.349122822
1.342437874
1.33561477
1.325477247
1.318255461
1.312935094
1.303513701
1.294956098
1.289714352
1.282795458
1.275341468
1.268197078
1.261391313
1.2550062
1.247808276
1.242024129
1.232654634
1.400002946
1.399995015
1.399965435
1.399875536
1.399642297
1.399128976
1.398157237
1.396495932
1.393987192
1.390516475
1.386142698
1.38070269
1.374438388
1.368221629
1.360869843
1.352493023
1.346065386
1.338854317
1.328755949
1.322186992
1.316603884
1.307126703
1.299013754
1.293236228
1.286154987
1.278847133
1.271721217
1.265339875
1.25898967
1.252579764
1.24210555
1.400004851
1.400003844
1.399998931
1.399979477
1.399916736
1.399744966
1.399349952
1.398564038
1.397175454
1.395000953
1.391919555
1.387900505
1.382831075
1.376978485
1.370972598
1.363690526
1.355742841
1.349568998
1.342068077
1.33217475
1.325920685
1.32003374
1.31073773
1.303060466
1.297001403
1.28988618
1.282471832
1.275305825
1.269000931
1.263554957
1.25303767
1.400005029
1.400004942
1.400004371
1.40000139
1.399988837
1.399945798
1.399821533
1.39952121
1.398896205
1.397745611
1.395885232
1.393161599
1.389523616
1.384796224
1.379376679
1.3735917
1.366413376
1.358900298
1.352862094
1.345265389
1.33572856
1.329573927
1.323270051
1.314184675
1.306784536
1.300667142
1.293684498
1.28626069
1.278734336
1.27287247
1.2629263
1.40000504
1.400005035
1.40000499
1.400004674
1.400002903
1.399994955
1.399965976
1.399877561
1.399652706
1.399161924
1.398223529
1.396638997
1.394273446
1.390977148
1.386635096
1.381596589
1.376078634
1.369125239
1.361905411
1.355976897
1.348336619
1.339294905
1.33316608
1.326609899
1.317687345
1.310337327
1.304173143
1.297426913
1.28994385
1.283364943
1.272917165
1.40000504
1.40000504
1.400005038
1.400005015
1.400004844
1.400003815
1.399998881
1.399979726
1.399917947
1.399751918
1.399373069
1.398614376
1.397287622
1.395234807
1.392308335
1.388311175
1.383659772
1.37840925
1.37174717
1.364867201
1.35891923
1.35137028
1.342695245
1.336602414
1.329969926
1.321329858
1.313877707
1.307546463
1.300592687
1.294099919
1.283279075
1.40000504
1.40000504
1.40000504
1.400005039
1.400005028
1.400004937
1.400004352
1.40000135
1.399988936
1.399946493
1.399826017
1.399537168
1.398934428
1.397829574
1.396079051
1.393477729
1.389882872
1.385538144
1.380587319
1.374287731
1.367666
1.361792902
1.354354771
1.34604922
1.339816207
1.333221075
1.324950068
1.317546356
1.310795595
1.304589439
1.293706219
1.40000504
1.40000504
1.40000504
1.40000504
1.40000504
1.400005034
1.400004987
1.400004662
1.400002873
1.399994982
1.399966369
1.399880294
1.399663824
1.399189648
1.398288106
1.396791724
1.394532515
1.391286682
1.38730239
1.38260663
1.37668942
1.370362778
1.364488666
1.357370579
1.349324946
1.342919103
1.3362643
1.328483458
1.320954542
1.314842953
1.304031247
1.40000504
1.40000504
1.40000504
1.40000504
1.40000504
1.40000504
1.400005038
1.400005014
1.400004837
1.400003794
1.399998879
1.399979933
1.399919608
1.399759375
1.399393291
1.398662642
1.397410313
1.395435372
1.392585218
1.388887762
1.384515943
1.378990185
1.372891175
1.367089536
1.36021492
1.352626188
1.345936925
1.339281877
1.33163129
1.325085055
1.314260987
1.40000504
1.40000504
1.40000504
1.40000504
1.40000504
1.40000504
1.40000504
1.400005039
1.400005027
1.400004934
1.400004339
1.400001339
1.399989041
1.399947478
1.399831083
1.399551053
1.3989722
1.397923096
1.396242553
1.393710338
1.390381038
1.386258504
1.381158367
1.375359886
1.369523259
1.363007988
1.355721136
1.349038333
1.342065151
1.335531916
1.324408461
1.40000504
1.40000504
1.40000504
1.40000504
1.40000504
1.40000504
1.40000504
1.40000504
1.40000504
1.400005034
1.400004985
1.400004654
1.400002863
1.399995028
1.39996697
1.399883615
1.399673674
1.399217419
1.39836246
1.396917963
1.394743247
1.391693475
1.38791773
1.383172787
1.377686464
1.371965241
1.365580784
1.358796921
1.351829486
1.345689916
1.334628871
1.40000504
1.40000504
1.40000504
1.40000504
1.40000504
1.40000504
1.40000504
1.40000504
1.40000504
1.40000504
1.400005037
1.400005013
1.400004832
1.400003786
1.399998899
1.399980283
1.399921829
1.399766043
1.399414706
1.398717244
1.39751659
1.395609726
1.392936461
1.389399506
1.385061844
1.379914087
1.374274521
1.368234366
1.36140881
1.355386346
1.344505515
1.40000504
1.40000504
1.40000504
1.40000504
1.40000504
1.40000504
1.40000504
1.40000504
1.40000504
1.40000504
1.40000504
1.400005039
1.400005027
1.400004931
1.400004333
1.400001345
1.39998925
1.399948863
1.399835855
1.399566301
1.399014805
1.398003745
1.396400517
1.393990426
1.39083303
1.386773105
1.381965434
1.376620655
1.370471873
1.364737252
1.353921422
1.40000504
1.40000504
1.40000504
1.40000504
1.40000504
1.40000504
1.40000504
1.40000504
1.40000504
1.40000504
1.40000504
1.40000504
1.40000504
1.400005034
1.400004984
1.40000465
1.400002863
1.399995142
1.399967846
1.39988672
1.399685205
1.399247206
1.398430366
1.397040499
1.394986902
1.392063531
1.388390011
1.383879125
1.3784954
1.37325962
1.362636858
1.40000504
1.40000504
1.40000504
1.40000504
1.40000504
1.40000504
1.40000504
1.40000504
1.40000504
1.40000504
1.40000504
1.40000504
1.40000504
1.40000504
1.400005037
1.400005012
1.40000483
1.400003783
1.399998963
1.399980799
1.399924036
1.399773969
1.399438383
1.398766583
1.397624908
1.395778426
1.393215655
1.389701383
1.385214249
1.380443691
1.369960669
1.40000504
1.40000504
1.40000504
1.40000504
1.40000504
1.40000504
1.40000504
1.40000504
1.40000504
1.40000504
1.40000504
1.40000504
1.40000504
1.40000504
1.40000504
1.400005039
1.400005026
1.400004928
1.400004323
1.400001324
1.399989278
1.399948958
1.399836849
1.399566164
1.399011155
1.397967603
1.396291141
1.393674316
1.390026297
1.385691355
1.375408772
1.40000504
1.40000504
1.40000504
1.40000504
1.40000504
1.40000504
1.40000504
1.40000504
1.40000504
1.40000504
1.40000504
1.40000504
1.40000504
1.40000504
1.40000504
1.40000504
1.40000504
1.400005034
1.400004984
1.400004648
1.400002836
1.399994839
1.399965823
1.399876643
1.399646655
1.399117976
1.398095325
1.396225112
1.393285186
1.389345862
1.379240061
)
;

boundaryField
{
    inlet
    {
        type            calculated;
        value           nonuniform 0();
    }
    outlet
    {
        type            calculated;
        value           nonuniform List<scalar> 
71
(
1.904620134
1.921208563
1.952785373
1.987274334
2.027735409
2.065807096
2.101598683
2.132673447
2.160958719
2.187868229
2.213598615
2.239988651
2.265741461
2.292131933
2.316490358
2.33944851
2.366772967
2.396420096
2.417564272
2.399680046
2.409596425
2.320274639
1.959695896
1.412457629
1.083462797
1.020448821
1.017613453
1.017665609
1.018596817
1.019898302
1.020333533
1.021660528
1.027232014
1.032173039
1.037299602
1.047591303
1.055358369
1.06194392
1.073294603
1.084237506
1.092765328
1.103179559
1.113126243
1.122581452
1.133269536
1.142386736
1.151644068
1.163156221
1.172887955
1.181200038
1.192058533
1.202233845
1.211552538
1.222418623
1.232649515
1.242108449
1.253042746
1.262922914
1.272915995
1.283280328
1.29370704
1.304030981
1.314259581
1.324408949
1.334629677
1.344505099
1.353921388
1.362636936
1.369960615
1.375408795
1.379240084
)
;
    }
    bottom
    {
        type            calculated;
        value           nonuniform 0();
    }
    top
    {
        type            calculated;
        value           nonuniform List<scalar> 
31
(
1.40000504
1.40000504
1.40000504
1.40000504
1.40000504
1.40000504
1.40000504
1.40000504
1.40000504
1.40000504
1.40000504
1.40000504
1.40000504
1.40000504
1.40000504
1.40000504
1.40000504
1.400005034
1.400004984
1.400004648
1.400002836
1.399994839
1.399965823
1.399876643
1.399646655
1.399117976
1.398095325
1.396225112
1.393285186
1.389345862
1.379240061
)
;
    }
    obstacle
    {
        type            calculated;
        value           nonuniform 0();
    }
    defaultFaces
    {
        type            empty;
    }
    procBoundary35to29
    {
        type            processor;
        value           nonuniform List<scalar> 
33
(
2.260430504
2.226397434
2.193398594
2.162637985
2.130910475
2.096484458
2.062496652
2.03141039
2.005571912
1.98818761
1.97290672
1.956289531
1.939946218
1.925353971
1.912858497
1.890366404
0.9900141516
0.9822289756
0.977415025
0.990807778
1.214551276
1.866313748
2.436100903
2.541567893
2.516614749
2.488827644
2.459193875
2.430491456
2.412520166
2.390890952
2.362508736
2.333600345
2.333600345
)
;
    }
    procBoundary35to34
    {
        type            processor;
        value           nonuniform List<scalar> 
71
(
1.005497864
1.013101705
1.017385963
1.019071009
1.019389673
1.019458104
1.019459017
1.019172632
1.018580028
1.017956957
1.017229704
1.017140641
1.016947062
1.01714202
1.019553002
1.022541933
1.02431938
1.030234707
1.039755078
1.048778565
1.063489274
1.073918395
1.084825991
1.097747585
1.112934931
1.127656528
1.139804031
1.150765639
1.163162717
1.17877252
1.193437935
1.205702223
1.216397219
1.229466725
1.24519484
1.260700853
1.272751338
1.28437286
1.297572845
1.302054831
1.302054831
1.316808714