/*--------------------------------*- C++ -*----------------------------------*\
  =========                 |
  \\      /  F ield         | OpenFOAM: The Open Source CFD Toolbox
   \\    /   O peration     | Website:  https://openfoam.org
    \\  /    A nd           | Version:  7
     \\/     M anipulation  |
\*---------------------------------------------------------------------------*/
FoamFile
{
    version     2.0;
    format      ascii;
    class       volScalarField;
    location    "3";
    object      rho;
}
// * * * * * * * * * * * * * * * * * * * * * * * * * * * * * * * * * * * * * //

dimensions      [1 -3 0 0 0 0 0];

internalField   nonuniform List<scalar> 
2222
(
1.480443945
1.463065878
1.447111491
1.43327491
1.44182531
1.513321516
1.648545285
1.812600837
1.936566802
1.968585633
1.989974942
1.985161235
1.972838021
1.953478037
1.92650485
1.897177808
1.883652837
1.874498237
0.8177881186
0.8170277707
0.8228718039
0.9238063843
1.324822019
1.56388246
1.615968872
1.620815781
1.605526848
1.585758497
1.56132855
1.540063918
1.514835063
1.499096003
1.475512356
1.464199447
1.483490609
1.564710747
1.723101172
1.877260311
1.990707609
2.052927705
2.048439674
2.015619597
1.998347078
1.98129923
1.963212127
1.947303309
1.928072213
1.901594797
1.886712015
1.874826022
0.8052669498
0.8048801766
0.8062912592
0.8369777032
1.106874443
1.487059818
1.590236014
1.593392324
1.587263525
1.563095143
1.546209098
1.539924369
1.515876157
1.516417881
1.559793847
1.663077486
1.825425464
1.985953216
2.101968283
2.09832834
2.09724679
2.095973235
2.078807987
2.047589747
2.012831524
1.988546763
1.965124599
1.94908288
1.93428401
1.914967862
1.899184466
1.880437207
0.7959651244
0.7930398697
0.7919596106
0.7992793752
0.9263202159
1.323632818
1.50423204
1.566210768
1.573775573
1.56025734
1.550488179
1.577010898
1.668227393
1.82006957
1.995908018
2.120904691
2.150754124
2.146862212
2.155152767
2.151007853
2.1320104
2.10726459
2.088436328
2.070577121
2.041480594
2.006014637
1.974602428
1.957655377
1.949146358
1.937256979
1.923274928
1.895593553
0.7873050591
0.783949857
0.7797581971
0.7815647353
0.8269064227
1.116212653
1.510937372
1.561964672
1.600085964
1.687769716
1.84318487
2.009365567
2.136918409
2.202679012
2.215835331
2.232730258
2.226071696
2.187190972
2.158196809
2.147698029
2.140328317
2.118874935
2.098134487
2.083560178
2.067060408
2.036116888
2.001383083
1.976694565
1.968416135
1.954632093
1.942451638
1.914642196
0.7766603721
0.7722002701
0.7678147318
0.7696051865
0.7822064335
0.9308172852
1.506251738
1.799516456
2.009198597
2.148932285
2.238281075
2.308061356
2.313461669
2.295314774
2.265977048
2.251309546
2.229841793
2.199433738
2.166175697
2.149159006
2.143499834
2.127989647
2.106967523
2.087457087
2.075527008
2.058500821
2.031419098
2.002022449
1.981185517
1.959352614
1.947567511
1.92702357
0.7644455269
0.7610994875
0.7615363005
0.7706451967
0.8327271556
1.075225318
1.559085333
2.055978013
2.348764301
2.393746748
2.347576597
2.335325775
2.324199699
2.310969616
2.274826642
2.250473255
2.233112064
2.208690651
2.178551574
2.154245004
2.146994801
2.134317251
2.112551944
2.089991011
2.077254374
2.063272251
2.043154092
2.016228838
1.988403968
1.961837712
1.949453894
1.932778038
0.7553208812
0.7582191286
0.7760550412
0.8812492215
1.054704809
1.214011876
1.484043933
2.012614025
2.34262099
2.391895674
2.381232968
2.352168487
2.32491402
2.311628639
2.284258057
2.255416318
2.237700446
2.21821732
2.192228736
2.165790487
2.153709127
2.141208475
2.117419386
2.093896632
2.077894859
2.064239004
2.046406805
2.022440748
1.9946732
1.966849772
1.953425831
1.937588407
0.752618129
0.8018893047
0.9260582696
1.099489108
1.244694527
1.265256336
1.349177874
1.764792754
2.170855942
2.339087086
2.389301913
2.36656605
2.329428556
2.310324414
2.293402264
2.264275984
2.245107805
2.227745893
2.205373201
2.181853113
2.164565361
2.150919309
2.126724166
2.100823548
2.079074975
2.064906584
2.048878848
2.028411112
2.003370865
1.976608205
1.962882833
1.945669586
0.8262048096
1.011975208
1.205502873
1.262334681
1.299276164
1.300941092
1.315922675
1.495419375
1.963395273
2.332257244
2.401585705
2.386322854
2.348708169
2.316672372
2.301684029
2.274083292
2.252658229
2.23461505
2.213173938
2.195152204
2.178915265
2.165679768
2.142352309
2.113220921
2.086785032
2.069308869
2.052481929
2.035135414
2.014699198
1.993094249
1.981825771
1.960767125
1.090507242
1.181988824
1.270934571
1.283651539
1.304291325
1.307249851
1.312159484
1.360611685
1.695452271
2.181758662
2.392554932
2.382497082
2.354021386
2.324073542
2.309732799
2.286265217
2.258827285
2.238981527
2.217551468
2.204052126
2.192166465
2.179315661
2.158776522
2.132155942
2.103142515
2.080515538
2.06004465
2.044473686
2.02800396
2.01241713
2.005133911
1.981162182
1.279451831
1.281313649
1.29147551
1.289146088
1.294319057
1.301325714
1.304581138
1.315380242
1.462321089
1.893183648
2.345071123
2.384408002
2.36920305
2.337859082
2.322582885
2.301940696
2.270464751
2.246388537
2.222104148
2.208671239
2.198688292
2.185881745
2.167542078
2.143214053
2.120575714
2.097756086
2.07413684
2.056978783
2.04255294
2.028786896
2.02206627
1.997025727
1.291684288
1.299438009
1.298462917
1.295130209
1.29453903
1.295737498
1.297008892
1.299103005
1.338321211
1.605952752
2.177847547
2.371125459
2.359978339
2.350448701
2.338346525
2.318247888
2.286053375
2.255993915
2.228565328
2.211544795
2.202338369
2.189524735
2.17193403
2.148194065
2.131215888
2.114321892
2.092680613
2.071894099
2.054132229
2.032939967
2.024475542
2.005238524
1.287721669
1.296605919
1.29978087
1.298747175
1.29587277
1.295691695
1.296286401
1.297641854
1.304269615
1.404530886
1.857231843
2.318570482
2.350182521
2.354908229
2.355270436
2.33516568
2.301148118
2.269390793
2.241292702
2.220001676
2.209376076
2.193515879
2.175125936
2.150805115
2.136092582
2.123847125
2.105782304
2.083742259
2.061337237
2.036037489
2.024533905
2.005865705
1.292711499
1.293730323
1.296727222
1.298187419
1.298064426
1.298344775
1.298218822
1.298584124
1.300262026
1.323504411
1.546684214
2.14202366
2.315717946
2.353433187
2.363295367
2.345817193
2.312709724
2.283566212
2.257033997
2.231483226
2.215732813
2.196554265
2.176928377
2.153117213
2.139091157
2.128460854
2.112734778
2.091283943
2.06587871
2.039418932
2.026556091
2.007813466
1.296058232
1.292563469
1.292945857
1.294493852
1.29649479
1.298506838
1.29971937
1.299016678
1.298668027
1.30221507
1.370790446
1.833857909
2.230667596
2.348001769
2.363852005
2.352246307
2.32570093
2.300254891
2.272529288
2.244436456
2.226002362
2.20485559
2.181857255
2.157735812
2.143546987
2.133376582
2.118110216
2.097388064
2.071597119
2.044928416
2.03085087
2.011142668
1.294221788
1.292626344
1.291695057
1.291372133
1.293035317
1.296062754
1.298005531
1.297731992
1.296499953
1.295837053
1.310526604
1.523752566
2.050079241
2.299831494
2.361713134
2.355060353
2.339898078
2.320962797
2.293982683
2.261176024
2.241009656
2.218731331
2.19230075
2.166482489
2.149856457
2.138604714
2.122561356
2.103100464
2.079679832
2.055080383
2.040511864
2.018237065
1.292507806
1.291757361
1.290793722
1.289836151
1.289128434
1.290458534
1.292357304
1.293187877
1.292470686
1.291893814
1.294616965
1.356085903
1.777715244
2.148682362
2.344031468
2.350104386
2.335452409
2.316976845
2.294729143
2.273531542
2.257141398
2.237630658
2.210541046
2.18295814
2.16184188
2.14732356
2.12882265
2.110026721
2.089778027
2.069677531
2.057407391
2.032018708
1.289246822
1.28978472
1.289262831
1.288434479
1.287163344
1.286072285
1.286362378
1.286936766
1.287734858
1.288505746
1.289816044
1.302977486
1.488625788
1.921715884
2.293298622
2.354174404
2.341086485
2.324203304
2.302472796
2.286602651
2.273721028
2.253882747
2.22708691
2.201221844
2.179610641
2.16219691
2.140734351
2.120876787
2.102152462
2.085464234
2.07539713
2.048178555
1.285404121
1.286412882
1.286511779
1.286159132
1.285527903
1.284582137
1.284369932
1.284709592
1.285541214
1.28669443
1.287402315
1.290126428
1.337341205
1.639193176
2.106213462
2.340973758
2.344464386
2.332901566
2.311004545
2.301425955
2.286714542
2.259937982
2.238556637
2.219353178
2.197157507
2.176934769
2.153860064
2.133016056
2.114303471
2.098260801
2.086900585
2.058205958
1.28205187
1.282314823
1.282667963
1.282830292
1.282935374
1.28306455
1.283290468
1.283593497
1.284166104
1.285117085
1.285270556
1.285842855
1.293799323
1.412387526
1.816504833
2.273178263
2.317175461
2.318965021
2.30893635
2.308137413
2.292018248
2.260587648
2.239408782
2.222614288
2.210122147
2.194500414
2.170074775
2.146408316
2.124660772
2.104492363
2.092637378
2.067162971
1.279058269
1.278850058
1.278512495
1.278687766
1.27927451
1.280316797
1.28142814
1.281894926
1.282271761
1.282759375
1.282884337
1.282985771
1.284497474
1.313153187
1.534775778
2.094485601
2.289969395
2.313967316
2.308947662
2.31168324
2.292789436
2.260749312
2.241915271
2.224793356
2.210396374
2.198503141
2.182458802
2.158134074
2.133149738
2.111108272
2.09290761
2.065377705
1.275955639
1.275515039
1.274957744
1.274795229
1.275306961
1.276577434
1.278005241
1.27879201
1.279100003
1.279260516
1.279480612
1.279913614
1.280937834
1.286938176
1.365507747
1.803835517
2.205708118
2.285182163
2.307265832
2.314079421
2.293659348
2.263225973
2.244546298
2.227051329
2.211072123
2.202641172
2.186483288
2.164784606
2.139400038
2.113410172
2.095379516
2.068334605
1.272351154
1.272155512
1.272100031
1.272044146
1.272391158
1.273166796
1.273815018
1.274337361
1.274671912
1.2749035
1.275433839
1.276972284
1.278521662
1.280811264
1.301594562
1.521386134
2.056883
2.231521734
2.29297168
2.306290426
2.292849283
2.268969698
2.251774218
2.232708546
2.216505073
2.208069831
2.190545497
2.170089941
2.147234377
2.120635115
2.102168448
2.075327945
1.268523092
1.268756909
1.269105246
1.269431442
1.269881878
1.27030043
1.270431338
1.270615674
1.270900882
1.271285471
1.272305831
1.274403774
1.276662048
1.278691669
1.284581472
1.356419247
1.808503165
2.147477315
2.289571955
2.307565743
2.297563046
2.282225422
2.266090081
2.241874158
2.22535812
2.214494915
2.194737118
2.174058787
2.155336613
2.131222655
2.113771811
2.086843541
1.264462637
1.264911959
1.265527854
1.266349179
1.267120917
1.267740814
1.26806261
1.268371192
1.268654798
1.269096777
1.270163426
1.271916781
1.27415601
1.275915226
1.278647938
1.297158865
1.531103821
1.965603292
2.241803873
2.303654189
2.293923802
2.280000245
2.268498063
2.24936341
2.236018625
2.220930595
2.198726924
2.176555688
2.162405577
2.145896771
2.129625728
2.101494995
1.260239208
1.260779993
1.2613737
1.262380258
1.263399566
1.26415655
1.264688314
1.265183598
1.265635848
1.266269078
1.267285032
1.268804298
1.270418927
1.271785435
1.273623679
1.279080138
1.351076389
1.720156969
2.102777556
2.299330605
2.296892326
2.284912041
2.266343961
2.252428244
2.247570881
2.226440785
2.200698093
2.179146899
2.166376958
2.152491321
2.143451027
2.115818651
1.255442774
1.256355769
1.256732844
1.257164281
1.257728177
1.258205814
1.258703168
1.259369159
1.260240658
1.261362522
1.262650401
1.264024245
1.26551553
1.266677708
1.266736695
1.268220878
1.28300362
1.455820269
1.837864056
2.248986219
2.291478703
2.279720388
2.263548235
2.258959032
2.253949008
2.227949477
2.202383202
2.183733533
2.169468736
2.154466956
2.142276361
2.126748472
1.249973195
1.251335474
1.251715445
1.251667434
1.251409843
1.251328903
1.251681825
1.252552502
1.253854767
1.255268987
1.256565061
1.257407568
1.258329926
1.258925275
1.258438381
1.257525178
1.259984219
1.303690547
1.556890274
2.077721448
2.246158381
2.255807945
2.262110376
2.264152187
2.252369173
2.220350886
2.198182813
2.18447838
2.172065683
2.156132738
2.142164153
2.126528684
1.243752861
1.245297976
1.245902426
1.245789083
1.245324914
1.244941972
1.245079045
1.24574965
1.246790622
1.24789625
1.248973635
1.249808311
1.250388581
1.250943483
1.250595331
1.249519485
1.249746257
1.257272778
1.349166523
1.774067276
2.14756296
2.234395358
2.254057058
2.262394193
2.244931282
2.213767802
2.198982452
2.187684077
2.174085198
2.155970883
2.14375749
2.128040884
1.237830882
1.239210785
1.239811235
1.23960376
1.23925007
1.238872377
1.238841338
1.239331316
1.239942411
1.240502057
1.241191506
1.242364748
1.24359616
1.244660347
1.245208687
1.245150945
1.245023742
1.247028247
1.274893753
1.493906089
1.957801744
2.171768993
2.223980515
2.24695527
2.241120725
2.221006407
2.207083496
2.19359126
2.17366626
2.153728502
2.147497968
2.131845378
1.23402642
1.235272748
1.235910028
1.235850597
1.235619068
1.235329562
1.235321897
1.235922061
1.236727039
1.237281847
1.237879242
1.23903898
1.240373487
1.241482568
1.242289737
1.242569265
1.242162413
1.242198156
1.245032774
1.366197936
1.96220994
2.135471432
2.193092994
2.237671712
2.250725897
2.232340303
2.213008945
2.186255445
2.16603934
2.153290797
2.158602729
2.144506823
1.233568784
1.234354253
1.234888775
1.235033552
1.234960976
1.234725379
1.234837151
1.23552012
1.236343436
1.23716819
1.237958564
1.239274224
1.240571248
1.241564235
1.242218785
1.242232673
1.241655985
1.240891025
1.242860592
1.347057957
1.940413658
2.126854408
2.197571098
2.244611399
2.250555565
2.229623862
2.207727764
2.181138582
2.165318872
2.1554177
2.163338255
2.145531106
1.233841572
1.234261189
1.234340358
1.234263468
1.234301267
1.234163101
1.234547746
1.23546756
1.236205337
1.237093884
1.238041184
1.239546615
1.240918373
1.241910034
1.242505011
1.242453298
1.241701279
1.240368236
1.242148894
1.331411692
1.91999016
2.118527859
2.200126953
2.248042831
2.248648699
2.226744447
2.203691461
2.178404685
2.164392607
2.158107585
2.167127352
2.146027087
1.234278136
1.23434554
1.234181784
1.233782066
1.23375194
1.23381686
1.23453271
1.235619677
1.236413145
1.237232122
1.238143335
1.239648643
1.240983248
1.242212956
1.242745483
1.242704653
1.24176897
1.239952823
1.241514209
1.31891175
1.895001283
2.112907498
2.203041335
2.250934153
2.245899201
2.223957245
2.199548583
2.178331194
2.164615028
2.161335266
2.170117081
2.147605528
1.235125279
1.235083498
1.234430084
1.233819875
1.233745795
1.233777984
1.234450466
1.235554529
1.236548477
1.237234727
1.238019065
1.239533895
1.240916787
1.242170797
1.242762645
1.242683557
1.241614237
1.23965667
1.241251546
1.308473204
1.868269043
2.10877464
2.205032879
2.253642329
2.242497951
2.22103325
2.197677896
2.178848068
2.166017697
2.165755306
2.170889496
2.146556237
1.235208814
1.235771813
1.235445876
1.234623698
1.234040763
1.23391626
1.234415628
1.235332576
1.236446908
1.237106085
1.237909223
1.23943524
1.240781162
1.241551909
1.242144894
1.242168807
1.241439518
1.240254196
1.241459435
1.300114529
1.840299692
2.104131847
2.204763852
2.253713353
2.238934003
2.218799791
2.196598488
2.179654196
2.168381032
2.170216795
2.170638279
2.144295253
1.235297768
1.236297565
1.23611594
1.23560344
1.235062466
1.23469048
1.23488821
1.23558991
1.23648107
1.237333767
1.238308937
1.239808257
1.240761903
1.241078027
1.241557491
1.241836788
1.241699427
1.240966743
1.242239295
1.293311515
1.801823321
2.098913337
2.207008895
2.252522364
2.236443892
2.216434961
2.193410207
2.180315271
2.171164017
2.172909083
2.168515228
2.140799984
1.236312668
1.237041169
1.236728162
1.236303441
1.235894148
1.235842209
1.236291277
1.236646131
1.236984495
1.237913024
1.239030233
1.240417589
1.241175442
1.241451552
1.241819651
1.24198629
1.242053368
1.241457734
1.242848434
1.287559654
1.753854795
2.089338677
2.209212766
2.250201015
2.234736953
2.212893067
2.19005369
2.181550736
2.174756119
2.175512014
2.16568857
2.137085657
1.238720337
1.238529158
1.237707466
1.237064447
1.236723459
1.236869827
1.237725348
1.23858706
1.238759338
1.23949699
1.240769116
1.242131857
1.24244346
1.242364014
1.242433723
1.242512851
1.242605702
1.242225032
1.2434983
1.282747564
1.706919538
2.076930328
2.210134958
2.24776371
2.232480148
2.209102757
2.189756252
2.183626664
2.178283061
2.177410712
2.162589674
2.133857704
1.240984424
1.240441476
1.239365365
1.238444566
1.23793299
1.238106346
1.23908236
1.240354246
1.241122999
1.24181277
1.243020857
1.244252923
1.244484067
1.244430051
1.244153143
1.243972744
1.243969522
1.243647032
1.244723042
1.278878088
1.669589402
2.065237984
2.209720379
2.245049461
2.229400449
2.207689791
2.191979817
2.186512274
2.18110667
2.179392459
2.159313136
2.130687337
1.243291712
1.242369433
1.241157513
1.240259225
1.239830237
1.240064967
1.240858519
1.242140721
1.243390578
1.244475722
1.245937849
1.246998681
1.247079135
1.246852692
1.246279489
1.246061314
1.245926031
1.24538434
1.246196496
1.275281053
1.639333705
2.056289404
2.206856342
2.241095566
2.227607593
2.206537926
2.193519798
2.188891715
2.183766906
2.178446628
2.155891553
2.126669353
1.245099173
1.244203375
1.242921705
1.242090745
1.241849577
1.242137915
1.242839931
1.244200249
1.245845819
1.247122215
1.248708651
1.249992896
1.250139559
1.249948559
1.249137402
1.248502265
1.248132182
1.247345819
1.24792303
1.273481053
1.611653518
2.046478401
2.20411642
2.236589785
2.226680465
2.203514507
2.193691847
2.190205714
2.186337934
2.177930397
2.153251619
2.124359748
1.24640635
1.245689111
1.244564019
1.243982461
1.243838174
1.244090586
1.244669476
1.245942382
1.248041896
1.249720705
1.251338217
1.25260692
1.252804425
1.252799794
1.252146287
1.251178412
1.250445128
1.249619968
1.250077217
1.271168001
1.58422723
2.036328004
2.202397403
2.232238117
2.224363178
2.200209978
2.194548685
2.19160943
2.188399972
2.177260404
2.151760543
2.123671178
1.247378434
1.246715162
1.245838639
1.245586426
1.245389516
1.24564283
1.24620668
1.247399533
1.249855515
1.252255096
1.254022836
1.255091982
1.255273248
1.255274108
1.254769468
1.253777941
1.252788991
1.251913932
1.25231073
1.271783783
1.558641282
2.024066664
2.201876063
2.229044487
2.219702373
2.199446037
2.196971255
2.19422192
2.189188386
2.175588582
2.151513586
2.123117564
1.248422047
1.247769687
1.247020744
1.246530735
1.246147498
1.246471688
1.247233363
1.248687419
1.251495124
1.254847214
1.256796966
1.257350192
1.257381397
1.257156561
1.256691209
1.25585947
1.254857171
1.253898305
1.254215862
1.271091968
1.534418532
2.008462806
2.200752916
2.227919086
2.217890355
2.201309638
2.200333166
2.196381937
2.189079478
2.172600425
2.150260167
2.122876508
1.249606974
1.248762128
1.24746479
1.246672904
1.246395586
1.246990173
1.248115836
1.249843002
1.252825889
1.256720448
1.258957944
1.259166067
1.258993826
1.258421887
1.257822357
1.257141881
1.256291905
1.255298575
1.255571249
1.270167379
1.511497397
1.994323272
2.198254929
2.227785981
2.218938824
2.204452638
2.203501481
2.197704285
2.187476616
2.168906862
2.148359688
2.122910708
1.250308885
1.250289907
1.249357566
1.247714031
1.24691995
1.246948134
1.247571671
1.248668626
1.25043268
1.25329705
1.257137704
1.260150816
1.260566908
1.260519776
1.259829525
1.258904709
1.258118613
1.257312241
1.256190363
1.256348443
1.269171684
1.489479707
1.977085182
2.195317993
2.227342901
2.219229772
2.205025191
2.205081799
2.197862376
2.18494775
2.165826479
2.147289666
2.124073864
1.250528952
1.250330684
1.249596615
1.248347471
1.247856014
1.24805927
1.248438773
1.249217699
1.250814471
1.253500612
1.257256776
1.260938971
1.261786443
1.261868181
1.261169156
1.259830318
1.258736733
1.257741503
1.256535697
1.256662671
1.268028838
1.466866759
1.958739004
2.192554358
2.225630075
2.215900215
2.203003887
2.205000948
2.196802826
2.18189112
2.163563637
2.147397931
2.125952714
1.250481327
1.250196673
1.249567033
1.249125419
1.249151393
1.249458941
1.249945694
1.250565501
1.251643551
1.253842696
1.257257524
1.260998566
1.262511254
1.262586009
1.261948153
1.260352242
1.258750359
1.257753952
1.256967808
1.257203526
1.266892911
1.443570971
1.93826443
2.190785945
2.222673095
2.210961233
2.203340513
2.205178383
2.19560513
2.178416266
2.161864748
2.148428385
2.128292281
1.250527351
1.250077922
1.249661053
1.249866589
1.250020699
1.250583278
1.251625776
1.252424014
1.252842756
1.254058471
1.257012106
1.260822981
1.262875377
1.263080304
1.262687882
1.261161915
1.258930518
1.257986871
1.257614183
1.257795377
1.26586403
1.419429988
1.917611701
2.190669275
2.21925047
2.209893573
2.205113717
2.206119756
2.194659001
2.175313062
2.159651464
2.149042313
2.13051831
1.250843589
1.250177461
1.249982253
1.250265738
1.250572139
1.251420376
1.252846991
1.253935738
1.254246983
1.254784824
1.256901276
1.260412492
1.263165039
1.263937697
1.263874974
1.262650778
1.26006133
1.258647252
1.258041004
1.257983211
1.26485921
1.39641732
1.896406221
2.193292756
2.215939562
2.209701206
2.20779797
2.206761146
2.193778757
2.172183795
2.156251867
2.149506069
2.132145498
1.251963853
1.250791628
1.250516418
1.250545789
1.251032222
1.252083859
1.253521737
1.254777355
1.255417176
1.255877223
1.257293913
1.260380747
1.263572882
1.265059145
1.265194329
1.264356633
1.262044115
1.259543796
1.258205265
1.257989988
1.263855368
1.375868079
1.872431647
2.195381498
2.21360941
2.209908592
2.20724106
2.205562515
2.192062061
2.168320438
2.153231611
2.150084111
2.133190525
1.253228596
1.25193376
1.251325067
1.251102703
1.25170615
1.252679751
1.254027309
1.255358655
1.25629798
1.257018315
1.258309912
1.260706912
1.263896273
1.265546507
1.265769971
1.265390967
1.263767932
1.260641828
1.258342307
1.258021906
1.262943656
1.358228901
1.844014413
2.195571131
2.21277481
2.209492364
2.204044
2.202168371
2.188235291
2.165746021
2.153218311
2.151515339
2.134268578
1.253975256
1.253019585
1.252297891
1.252121876
1.252614927
1.253236984
1.25447688
1.255880217
1.257045991
1.258147138
1.259546018
1.261399861
1.263754888
1.265528192
1.265832697
1.265719946
1.264711191
1.261934573
1.258795475
1.258210076
1.262273475
1.342881154
1.810877306
2.193401864
2.212259596
2.207536459
2.200348473
2.196126525
2.184048641
2.165764707
2.154447425
2.154280538
2.135106672
1.254357253
1.253783426
1.253310492
1.253266558
1.253417642
1.253854758
1.255073876
1.256545042
1.257837248
1.259203459
1.26054187
1.261849317
1.263503421
1.265315233
1.265875021
1.265698005
1.265055166
1.263267198
1.260049389
1.25875817
1.26194881
1.329315651
1.774275928
2.187655929
2.211455615
2.204911745
2.197907982
2.192794843
2.182800068
2.166226443
2.156334011
2.155428555
2.13513034
1.254757056
1.254435888
1.254270804
1.25428698
1.254157123
1.254632922
1.255754104
1.257054408
1.258322498
1.259947139
1.26123568
1.262155923
1.263389213
1.26506504
1.26581672
1.265686524
1.26540148
1.264471513
1.261835686
1.259375513
1.261810988
1.317330053
1.736412344
2.1782384
2.209211655
2.203719507
2.198308908
2.192928431
2.182317632
2.165771614
2.157058823
2.155379812
2.134631593
1.255450499
1.25519993
1.255103635
1.255029983
1.254836746
1.255287569
1.256128413
1.257224006
1.258499505
1.260387228
1.261928785
1.262644388
1.263600326
1.264645062
1.265695687
1.266056307
1.266041914
1.265344365
1.263117463
1.260242073
1.261830043
1.306937739
1.698738973
2.164172688
2.206980365
2.202602886
2.198539115
2.192392529
2.180767591
2.164729371
2.156567766
2.154000081
2.133287898
1.256198312
1.255739009
1.255565464
1.255396972
1.255308072
1.255719646
1.256343269
1.257268411
1.258695272
1.260826879
1.262761011
1.26374817
1.264286354
1.264916532
1.265197837
1.265276724
1.265622091
1.265397248
1.263712631
1.261258851
1.261532957
1.298043426
1.661637319
2.145080778
2.202590941
2.199484513
2.197630075
2.189622435
2.177948428
2.16372291
2.154133595
2.152195302
2.132575507
1.25657787
1.255967589
1.255754981
1.255656132
1.255631233
1.256104499
1.256739563
1.257560008
1.259103304
1.261531779
1.263784736
1.264918877
1.265144936
1.265051192
1.264977001
1.264871104
1.264804878
1.264897832
1.263846976
1.262106203
1.261996714
1.290811577
1.624278233
2.121502605
2.196004644
2.200880133
2.19997978
2.189126551
2.176023717
2.162652436
2.15279846
2.151467249
2.132448927
1.256933857
1.256120657
1.255702496
1.255559675
1.255990233
1.256718737
1.257485211
1.258255905
1.259867879
1.262202274
1.264263454
1.265518286
1.26576699
1.265494048
1.264930647
1.264665104
1.264313932
1.264103014
1.263738317
1.262755867
1.262454134
1.285042658
1.585946332
2.093989961
2.194975399
2.205759268
2.205494751
2.191481136
2.175453497
2.161080597
2.151858677
2.151349065
2.133119046
1.257152509
1.256613336
1.256251083
1.256050478
1.256606962
1.257609734
1.258555358
1.25915768
1.260422375
1.2623484
1.264293671
1.265582116
1.265952838
1.265902256
1.265376278
1.264844433
1.264408635
1.264012814
1.264045709
1.263236041
1.262791207
1.280370055
1.547143498
2.062322295
2.197752818
2.21587596
2.214601571
2.195279127
2.174449092
2.158972868
2.150735057
2.151459873
2.133585387
1.257288179
1.25683861
1.256732883
1.256833514
1.257590416
1.258652086
1.25950824
1.260069599
1.260966784
1.262401204
1.263842993
1.265279082
1.26595766
1.266062879
1.26586748
1.265570039
1.265013724
1.26429734
1.263615861
1.262981804
1.262884097
1.27652568
1.509089505
2.023423238
2.207018568
2.22985422
2.225285923
2.197124401
2.170778019
2.155843818
2.149025688
2.15119653
2.133983338
1.258030405
1.257493249
1.25728141
1.257470678
1.25790059
1.258645643
1.259302534
1.259893393
1.260671991
1.261609843
1.262689721
1.26363391
1.264429501
1.265334103
1.266094566
1.266311996
1.266179279
1.265741277
1.264733913
1.26354462
1.262546951
1.262776925
1.273409639
1.472364768
1.975553846
2.221832466
2.242665678
2.230666348
2.195607458
2.164252769
2.15146537
2.146859774
2.15049873
2.134015815
1.258127619
1.257771244
1.257867995
1.258370582
1.258862778
1.259113633
1.259567247
1.26004626
1.260887269
1.262114927
1.262612963
1.263573609
1.26396676
1.26433364
1.265246437
1.266271987
1.266424517
1.266056922
1.265122274
1.263725037
1.262423724
1.262612855
1.27100269
1.437182743
1.92726693
2.234514381
2.252453353
2.232679519
2.191808489
2.159051829
2.145127545
2.143985323
2.149397937
2.134650047
1.258195492
1.258037068
1.258315681
1.258934534
1.259298994
1.25934856
1.259682566
1.260013535
1.261001683
1.26228518
1.263443604
1.263475215
1.2636965
1.2639344
1.264478709
1.265501303
1.266113597
1.26615294
1.265388322
1.264160198
1.262664299
1.26245774
1.269104681
1.405040041
1.888643535
2.241230393
2.257050772
2.233593485
2.187841517
2.154684231
2.139319306
2.140823097
2.149749268
2.135505127
1.258221751
1.258290309
1.258708918
1.259317473
1.259595511
1.25947189
1.259553412
1.259744638
1.260680988
1.262414519
1.263830651
1.2642616
1.264104397
1.264129339
1.2645397
1.264996196
1.265488332
1.265755347
1.265582346
1.264661237
1.263092496
1.262357782
1.267495351
1.377294217
1.858524056
2.248215085
2.257687121
2.234041609
2.184765992
2.15041575
2.136059906
2.14112239
2.151259302
2.136679175
1.257900362
1.258459131
1.259088707
1.259672665
1.2598212
1.259628491
1.259460255
1.25945314
1.260241006
1.262258002
1.264079516
1.264810402
1.264944403
1.26493303
1.264926063
1.265100405
1.265238107
1.265467246
1.265560691
1.265053198
1.263559245
1.262445254
1.266179943
1.353953045
1.829037209
2.25390257
2.25926854
2.228407661
2.180769347
2.145047548
2.134110485
2.144215755
2.152506435
2.135871857
1.257007168
1.258252194
1.259360929
1.260007046
1.260040528
1.259709174
1.259554536
1.25966041
1.260398414
1.262170666
1.264306968
1.265423675
1.265752777
1.265885058
1.265722348
1.265428634
1.265369164
1.265440336
1.265531425
1.265316734
1.263933893
1.262613455
1.265255127
1.334242119
1.793408363
2.256075976
2.251660263
2.220703041
2.175532424
2.13855141
2.132413985
2.148640753
2.152848105
2.134122376
)
;

boundaryField
{
    inlet
    {
        type            calculated;
        value           nonuniform 0();
    }
    outlet
    {
        type            calculated;
        value           nonuniform List<scalar> 
69
(
2.1445531
2.145546189
2.145977489
2.147590599
2.146547256
2.144292983
2.140727297
2.136915698
2.133611679
2.130568195
2.126611258
2.124265095
2.123560307
2.123106752
2.122919069
2.122977645
2.124130733
2.125956028
2.128301293
2.130558875
2.132187169
2.133169539
2.134155556
2.13500962
2.135073738
2.13457288
2.133169669
2.132443223
2.132278835
2.132968137
2.133539152
2.134024522
2.134006039
2.134588066
2.135367454
2.136616008
2.135880621
2.134220329
1.874541388
1.874819043
1.880376605
1.895468718
1.914563421
1.927019585
1.932793334
1.937590056
1.945615102
1.960624893
1.98101762
1.997014523
2.005297112
2.005908523
2.007831366
2.011139721
2.018184229
2.031913102
2.048121409
2.058229046
2.067206823
2.065429433
2.068368712
2.075346318
2.086814765
2.101419042
2.115749877
2.126718634
2.126499014
2.128051657
2.131882567
)
;
    }
    bottom
    {
        type            calculated;
        value           nonuniform 0();
    }
    top
    {
        type            calculated;
        value           nonuniform 0();
    }
    obstacle
    {
        type            calculated;
        value           nonuniform 0();
    }
    defaultFaces
    {
        type            empty;
    }
    procBoundary11to5
    {
        type            processor;
        value           nonuniform List<scalar> 
33
(
1.486584191
1.46778141
1.449611236
1.432373627
1.422013964
1.405226315
1.408816355
1.460119848
1.587359722
1.765869155
1.898434635
1.957768902
1.96425613
1.953141318
1.927260162
1.89756998
1.889833978
1.879166231
0.8289803591
0.8287224031
0.8529626414
1.090905279
1.513062376
1.614304056
1.638754953
1.633536881
1.612495216
1.588844668
1.568943591
1.551268287
1.529643636
1.507358354
1.507358354
)
;
    }
    procBoundary11to10
    {
        type            processor;
        value           nonuniform List<scalar> 
70
(
0.8242877853
0.8138290759
0.8030601467
0.7927770719
0.7813949364
0.7676094063
0.7546530187
0.7486163279
0.7553676369
0.8814976178
1.147536218
1.244747367
1.282605075
1.300969853
1.298464326
1.294439507
1.29130454
1.288324629
1.284851221
1.281995465
1.279360901
1.276672146
1.272749589
1.268241504
1.263952087
1.259832561
1.255100095
1.249449114
1.242773453
1.236326438
1.232568403
1.232662629
1.232885533
1.233755169
1.233817697
1.233643752
1.233793283
1.235597785
1.238098007
1.240602755
1.243244235
1.245149756
1.246430293
1.247444664
1.24849286
1.249584691
1.249584691
1.249975337
1.250193218
1.250311482
1.250635023
1.251621967
1.253235014
1.254261818
1.254666566
1.254882144
1.255186278
1.255784121
1.256693788
1.257372834
1.257639588
1.257820365
1.257907701
1.257907701
1.258608593