/*--------------------------------*- C++ -*----------------------------------*\
  =========                 |
  \\      /  F ield         | OpenFOAM: The Open Source CFD Toolbox
   \\    /   O peration     | Website:  https://openfoam.org
    \\  /    A nd           | Version:  7
     \\/     M anipulation  |
\*---------------------------------------------------------------------------*/
FoamFile
{
    version     2.0;
    format      ascii;
    class       volVectorField;
    location    "3.1";
    object      U;
}
// * * * * * * * * * * * * * * * * * * * * * * * * * * * * * * * * * * * * * //

dimensions      [0 1 -1 0 0 0 0];

internalField   nonuniform List<vector> 5((3 -1.127313115e-15 0) (3 -2.328432497e-15 0) (3 -4.586659391e-15 0) (3 -4.679736709e-16 0) (3 -1.543439202e-15 0));

boundaryField
{
    inlet
    {
        type            fixedValue;
        value           uniform (3 0 0);
    }
    outlet
    {
        type            inletOutlet;
        inletValue      nonuniform 0();
        value           nonuniform 0();
    }
    bottom
    {
        type            slip;
    }
    top
    {
        type            slip;
    }
    obstacle
    {
        type            slip;
    }
    defaultFaces
    {
        type            empty;
    }
    procBoundary0to1
    {
        type            processor;
        value           uniform (3 -6.135448631e-15 0);
    }
    procBoundary0to6
    {
        type            processor;
        value           nonuniform List<vector> 4((3 -2.201406801e-15 0) (3 -8.213190298e-16 0) (3 -2.201406801e-15 0) (3 1.006870779e-15 0));
    }
}


// ************************************************************************* //
