/*--------------------------------*- C++ -*----------------------------------*\
  =========                 |
  \\      /  F ield         | OpenFOAM: The Open Source CFD Toolbox
   \\    /   O peration     | Website:  https://openfoam.org
    \\  /    A nd           | Version:  7
     \\/     M anipulation  |
\*---------------------------------------------------------------------------*/
FoamFile
{
    version     2.0;
    format      ascii;
    class       volVectorField;
    location    "1.5";
    object      U;
}
// * * * * * * * * * * * * * * * * * * * * * * * * * * * * * * * * * * * * * //

dimensions      [0 1 -1 0 0 0 0];

internalField   nonuniform List<vector> 
2222
(
(3.119637776 -0.001762042321 0)
(3.117414076 -0.002711403647 0)
(3.117331247 -0.001922660865 0)
(3.117747311 -0.0002895576828 0)
(3.118201057 0.001356335309 0)
(3.117867221 0.001490684157 0)
(3.117272427 0.0005428718625 0)
(3.115825704 -0.001214578187 0)
(3.114072868 -0.003459055035 0)
(3.113360319 -0.004531592618 0)
(3.113493816 -0.004585202234 0)
(3.11348581 -0.004561863522 0)
(3.113542785 -0.004093017622 0)
(3.113761061 -0.003137890267 0)
(3.113706072 -0.001783807844 0)
(3.116546807 0.001977484937 0)
(3.114736431 0.00153497253 0)
(3.114088552 0.001054612635 0)
(3.115739542 0.001147306077 0)
(3.11718072 0.001169233722 0)
(3.116972358 0.0008812365649 0)
(3.117581551 0.001333217219 0)
(3.118385321 0.001404321962 0)
(3.1186785 0.001039954183 0)
(3.119123128 0.0006869401207 0)
(3.119894248 0.0006436544563 0)
(3.121022052 -0.0002016760979 0)
(3.121490684 -0.00147408604 0)
(3.122049919 -0.001841068977 0)
(3.122294433 -0.001368657157 0)
(3.122057865 -0.0007483835335 0)
(3.121540952 0.0004243445006 0)
(3.122401528 0.000725108389 0)
(3.122272477 -0.0001912295043 0)
(3.12085722 -0.0007452284517 0)
(3.120161692 -0.0005209364687 0)
(3.121473595 -0.0005713493037 0)
(3.122517051 -0.001540197263 0)
(3.121789175 -0.001759485891 0)
(3.119871608 -0.002652214632 0)
(3.117708937 -0.003287973578 0)
(3.117489599 -0.00226410466 0)
(3.117602162 -0.0004322400412 0)
(3.117799018 0.001197875541 0)
(3.117709661 0.001122543486 0)
(3.116980075 -3.138410112e-05 0)
(3.115609762 -0.002144869584 0)
(3.114286085 -0.004202154482 0)
(3.113915859 -0.005027560031 0)
(3.113809941 -0.004803721193 0)
(3.113774384 -0.004365866103 0)
(3.113839281 -0.003527781048 0)
(3.113951301 -0.00302136783 0)
(3.113829486 -0.00203489243 0)
(3.117563935 0.001691216052 0)
(3.115662525 0.0001395711749 0)
(3.114692255 -0.0004689297776 0)
(3.116005477 -2.553458445e-05 0)
(3.117381358 6.409692994e-05 0)
(3.117063 2.279093738e-05 0)
(3.117449157 5.829060287e-05 0)
(3.118082806 0.000202362276 0)
(3.11822689 -7.28784919e-05 0)
(3.118496936 5.401173816e-05 0)
(3.119180669 6.920294604e-05 0)
(3.120219301 -0.0001668068455 0)
(3.120836331 -0.0006745817183 0)
(3.121132542 -0.001362099801 0)
(3.121171347 -0.0013884882 0)
(3.12098521 -0.000994690644 0)
(3.120624596 -0.0003660527111 0)
(3.121396016 0.0005234068459 0)
(3.121264159 -9.499106325e-05 0)
(3.120273802 -0.0007762029992 0)
(3.118767739 0.0003821911905 0)
(3.119596182 0.0003629672888 0)
(3.12086935 -0.001364551094 0)
(3.119621018 -0.001781293461 0)
(3.118220292 -0.002959986798 0)
(3.116735636 -0.003514684954 0)
(3.116610313 -0.002836224919 0)
(3.116586758 -0.001098003049 0)
(3.1168206 0.0009215238011 0)
(3.116705064 0.001040311294 0)
(3.116005337 0.0001015186675 0)
(3.114585605 -0.001880282141 0)
(3.113072684 -0.003542602743 0)
(3.112767369 -0.003980442974 0)
(3.113230703 -0.004350618151 0)
(3.113486765 -0.004149743786 0)
(3.11360252 -0.003760620269 0)
(3.113427516 -0.002787352943 0)
(3.113271985 -0.001870035239 0)
(3.118555805 -0.0004177815731 0)
(3.116484518 -0.001534100058 0)
(3.114730346 -0.001272305439 0)
(3.115742761 -0.0003831434196 0)
(3.116707585 -0.0008016258645 0)
(3.116235053 -0.001085241747 0)
(3.116173018 -0.0006785541731 0)
(3.116469999 -0.0008408774025 0)
(3.116375328 -0.00108966149 0)
(3.116543361 -0.001002807036 0)
(3.117171477 -0.001321048486 0)
(3.118029332 -0.0009944979878 0)
(3.118528892 -0.0002730891172 0)
(3.117949297 -0.0001426019589 0)
(3.117914723 -1.361482033e-05 0)
(3.117659567 -0.0007041446838 0)
(3.11735579 -0.001119727195 0)
(3.118010515 -0.00035187168 0)
(3.11807847 -0.0005475155701 0)
(3.117855428 -0.001310041499 0)
(3.115784617 0.001235592163 0)
(3.115674247 0.002097459458 0)
(3.116547151 0.0008771555362 0)
(3.115830979 -0.001443674596 0)
(3.114844607 -0.003027083305 0)
(3.113639043 -0.003542503521 0)
(3.1132538 -0.002986291261 0)
(3.113301679 -0.001426070584 0)
(3.113747088 0.0004313221236 0)
(3.113662227 0.0006776500982 0)
(3.112972024 -0.0002701739368 0)
(3.111757251 -0.002262526006 0)
(3.110344435 -0.003605286568 0)
(3.110004924 -0.003522070881 0)
(3.110688337 -0.003906550004 0)
(3.110974299 -0.004360325028 0)
(3.111024002 -0.004025938058 0)
(3.110977965 -0.003288477699 0)
(3.111041319 -0.001887465629 0)
(3.117747744 -0.001778389123 0)
(3.115291612 -0.0008339437017 0)
(3.112992949 -9.160773523e-05 0)
(3.113298721 -0.0002389455701 0)
(3.11368582 -8.208883381e-05 0)
(3.113042095 -0.0001610078623 0)
(3.112490319 -8.512768893e-05 0)
(3.112398511 -0.0003471816423 0)
(3.111950462 -0.0005540396045 0)
(3.111771347 -0.0009579425628 0)
(3.111921424 -0.001847715933 0)
(3.112466147 -0.002029396598 0)
(3.112653374 -0.001437834129 0)
(3.112156219 0.0001218108415 0)
(3.111615145 0.001033487549 0)
(3.111010448 0.0001782706439 0)
(3.110592761 -0.0006258552633 0)
(3.111001992 -0.0004375393959 0)
(3.111133616 -0.001134334953 0)
(3.111229269 -0.001250010631 0)
(3.109709564 0.001613050859 0)
(3.109462435 0.003291946676 0)
(3.110014846 0.002235511689 0)
(3.108999987 -0.0009321879342 0)
(3.1079712 -0.003290099733 0)
(3.106851976 -0.003530805934 0)
(3.106035319 -0.002366749849 0)
(3.106238487 -0.0008726417191 0)
(3.106710709 0.0003403729113 0)
(3.106589098 0.0002604705555 0)
(3.106142067 -0.000215356146 0)
(3.105104628 -0.001472137882 0)
(3.103877443 -0.002598701368 0)
(3.103657489 -0.002511510797 0)
(3.104578314 -0.002740653292 0)
(3.104739883 -0.003005328109 0)
(3.104837416 -0.002962487515 0)
(3.105025452 -0.002892966921 0)
(3.105214726 -0.002173960959 0)
(3.111704776 0.001554653967 0)
(3.109048334 0.002445592468 0)
(3.106891538 0.001234881038 0)
(3.106393064 0.001104629736 0)
(3.106252249 0.001032085233 0)
(3.105488321 0.0009383677251 0)
(3.104438679 0.0008276887241 0)
(3.103975587 0.001234982577 0)
(3.102923453 0.001318151934 0)
(3.10217408 0.0008939659523 0)
(3.101907058 0.0001029343174 0)
(3.102219696 -0.0004388149769 0)
(3.102298829 -0.001131302685 0)
(3.101461279 -0.000572544902 0)
(3.100563731 7.722420175e-05 0)
(3.099652847 -0.0002567192954 0)
(3.098986987 -0.0002739941976 0)
(3.099190609 0.0009595520362 0)
(3.099368371 5.717164047e-05 0)
(3.099464643 -0.001442043674 0)
(3.098215529 0.001084582955 0)
(3.098177922 0.003392452601 0)
(3.098527729 0.002639978697 0)
(3.09728219 -0.0006971247116 0)
(3.095948658 -0.00325132383 0)
(3.094682831 -0.003918911275 0)
(3.093745581 -0.002551430916 0)
(3.094005466 -0.001030960866 0)
(3.094384538 0.001075261995 0)
(3.094270379 0.001090834863 0)
(3.094009845 -3.143262628e-05 0)
(3.093261845 -0.001952612541 0)
(3.092292765 -0.003185551778 0)
(3.092325634 -0.002926470345 0)
(3.09354939 -0.002870152671 0)
(3.093806086 -0.00247817442 0)
(3.093913212 -0.002199015795 0)
(3.094072401 -0.001990832699 0)
(3.09423435 -0.001592386672 0)
(3.098220807 0.001965520731 0)
(3.095831124 0.001799295095 0)
(3.093629964 -0.000125658566 0)
(3.092666214 -0.001198867369 0)
(3.092440442 -0.0007919532503 0)
(3.091238951 -0.0005524157921 0)
(3.090055545 -0.000838424606 0)
(3.089602037 3.298772932e-06 0)
(3.088369635 0.0003501307485 0)
(3.086732399 0.0003247205261 0)
(3.086338444 0.0001044073316 0)
(3.086117563 0.0003427059207 0)
(3.085692217 -6.497680581e-05 0)
(3.084355171 -0.0006953211415 0)
(3.083308612 -0.00087551367 0)
(3.082177421 -0.001531542774 0)
(3.081260104 -0.00119491551 0)
(3.081628885 0.0009050429066 0)
(3.081762757 0.0005723574154 0)
(3.081710482 -0.00147208489 0)
(3.080338967 0.0003700833904 0)
(3.080340006 0.00252136409 0)
(3.080427366 0.002416573697 0)
(3.079143265 -0.000706486455 0)
(3.077705801 -0.00327044074 0)
(3.076128447 -0.004086345806 0)
(3.075045228 -0.002500501107 0)
(3.075163136 -0.001035743048 0)
(3.075794992 0.0009945016598 0)
(3.075838773 0.001185417848 0)
(3.075584206 0.0004377938919 0)
(3.074993929 -0.001276698151 0)
(3.074409863 -0.002685657443 0)
(3.074546739 -0.002329492924 0)
(3.076103302 -0.002123562609 0)
(3.076475629 -0.002301748732 0)
(3.076825125 -0.002189528028 0)
(3.077045196 -0.001970461333 0)
(3.07718252 -0.001300323036 0)
(3.073518524 0.001646368733 0)
(3.071606111 8.16791328e-05 0)
(3.07028483 -0.0004070299667 0)
(3.070074593 0.0003047246981 0)
(3.068533884 0.0003859607785 0)
(3.06754361 -4.145301248e-05 0)
(3.06723159 0.0008828720742 0)
(3.06609942 0.001291417928 0)
(3.064027811 0.0007221960726 0)
(3.063210289 0.0005725625246 0)
(3.062542057 0.0004759899218 0)
(3.061878755 9.040568394e-05 0)
(3.0602305 -0.000674944145 0)
(3.058977758 -0.0007613003068 0)
(3.057935194 -0.001454655076 0)
(3.056954792 -0.001050882856 0)
(3.057234336 0.001177783404 0)
(3.057321858 0.0006564924915 0)
(3.05746954 -0.002083184195 0)
(3.055836038 -0.001088188094 0)
(3.055898834 0.001444075304 0)
(3.055464761 0.002375930528 0)
(3.054215504 -0.0002148545313 0)
(3.052929956 -0.002749265018 0)
(3.051075016 -0.003701191946 0)
(3.049812562 -0.001988865701 0)
(3.049676294 -0.0004227513134 0)
(3.050623053 0.00129501905 0)
(3.050904483 0.001374211461 0)
(3.050822816 0.0004400901753 0)
(3.050407669 -0.001514076169 0)
(3.050097298 -0.002933233699 0)
(3.050073845 -0.002455774426 0)
(3.052075955 -0.002164765691 0)
(3.052671606 -0.00201055923 0)
(3.053265917 -0.001993149135 0)
(3.053563239 -0.001815047134 0)
(3.05369984 -0.001284430236 0)
(3.043536979 0.0007489392414 0)
(3.041742121 -0.0002190087692 0)
(3.039602514 -0.000274212489 0)
(3.039486706 0.0006701833574 0)
(3.038029662 0.000685879197 0)
(3.037158754 0.000287529008 0)
(3.0370579 0.001300287819 0)
(3.036193604 0.001901639471 0)
(3.034411207 0.001300414686 0)
(3.033263368 0.0009817501686 0)
(3.032511242 0.0005855692522 0)
(3.031635262 1.010149388e-05 0)
(3.03006904 -0.001112809584 0)
(3.028706349 -0.001326644801 0)
(3.027665483 -0.001937415193 0)
(3.026933741 -0.001195284955 0)
(3.026979112 0.001740177113 0)
(3.027364193 0.0007691050963 0)
(3.027633116 -0.002727508486 0)
(3.026267663 -0.002552870018 0)
(3.026465815 -0.0001635259596 0)
(3.025688878 0.001381988841 0)
(3.024529136 -0.0007272085725 0)
(3.023453097 -0.00294919265 0)
(3.021266547 -0.00354727714 0)
(3.02006317 -0.001780207673 0)
(3.019686455 -8.257423036e-05 0)
(3.020750275 0.001393339587 0)
(3.021270816 0.001384455303 0)
(3.021433071 0.0003509684414 0)
(3.021094471 -0.001466255292 0)
(3.020715942 -0.003059773092 0)
(3.020738276 -0.002933797557 0)
(3.02300708 -0.002123455711 0)
(3.023902622 -0.001785505471 0)
(3.024691556 -0.001589702705 0)
(3.02508129 -0.001279703309 0)
(3.025260847 -0.000960381792 0)
(3.009329512 0.0003927149505 0)
(3.007835828 -0.0003751329226 0)
(3.006087628 -0.0003858771283 0)
(3.005671998 0.0004653089397 0)
(3.004477081 0.000168476107 0)
(3.003591587 -0.0002984885859 0)
(3.003538438 0.0006148540501 0)
(3.002687154 0.001378484043 0)
(3.001182931 0.0008938872202 0)
(3.000091252 0.0003655813511 0)
(2.999606239 -0.000333933282 0)
(2.998773856 -0.0006915044598 0)
(2.997391672 -0.001256033827 0)
(2.995891798 -0.001133977369 0)
(2.994541816 -0.001525723914 0)
(2.993889862 -0.0007627564453 0)
(2.993968368 0.002004948488 0)
(2.99473753 0.0005335422742 0)
(2.994668987 -0.003223390417 0)
(2.994182459 -0.003264928565 0)
(2.994875042 -0.0009195405897 0)
(2.994488388 0.0008239461089 0)
(2.993305032 -0.0006982102875 0)
(2.992325598 -0.002656933716 0)
(2.989904375 -0.002971631593 0)
(2.98900324 -0.001540859218 0)
(2.988505874 0.0003687189902 0)
(2.989574502 0.001489596371 0)
(2.990196962 0.001324997929 0)
(2.990492896 0.0001902688963 0)
(2.990143931 -0.001719248854 0)
(2.989716403 -0.003304274126 0)
(2.989712456 -0.003420668844 0)
(2.991926991 -0.002458481013 0)
(2.992975493 -0.001794887797 0)
(2.993875411 -0.001630997204 0)
(2.994518787 -0.001103171917 0)
(2.994684828 -0.0007388872891 0)
(2.976519615 0.001031450934 0)
(2.975622359 0.0004507281079 0)
(2.974303465 0.0001032537415 0)
(2.973515831 0.0003978674506 0)
(2.972391774 -0.0002307481853 0)
(2.971441541 -0.0006815360398 0)
(2.971365601 0.0002060139435 0)
(2.97039428 0.001060267885 0)
(2.969069501 0.0006884307432 0)
(2.968036087 -0.0001295818843 0)
(2.967404084 -0.001147547267 0)
(2.96714645 -0.001360863445 0)
(2.966088604 -0.000983254077 0)
(2.964645449 -0.0002157761814 0)
(2.963247498 -0.0004086861113 0)
(2.96273714 -0.0003656437442 0)
(2.963174479 0.001729607214 0)
(2.963428075 0.000131937139 0)
(2.963161933 -0.003559898839 0)
(2.962930922 -0.003374557644 0)
(2.963811863 -0.001235759311 0)
(2.964392918 0.001011376878 0)
(2.963839968 1.525088982e-05 0)
(2.962741879 -0.001679832401 0)
(2.960606978 -0.001888099227 0)
(2.959982292 -0.001070443792 0)
(2.959620229 0.0007164057152 0)
(2.96058378 0.00147646291 0)
(2.961046264 0.001272090704 0)
(2.961247059 7.329748027e-05 0)
(2.960941493 -0.001953761423 0)
(2.960771462 -0.003346448526 0)
(2.960588397 -0.003226463971 0)
(2.962079948 -0.001890157204 0)
(2.963260803 -0.001253850811 0)
(2.964160255 -0.001099068281 0)
(2.965027341 -0.0007004509969 0)
(2.965207058 -0.0004335282219 0)
(2.948887134 0.001824037306 0)
(2.947678659 0.001071442761 0)
(2.946129672 0.0005363867221 0)
(2.945160553 0.0004313904637 0)
(2.944327472 -6.805226621e-05 0)
(2.943498226 -0.0003606271397 0)
(2.943525594 0.0005920285348 0)
(2.942702985 0.001607564899 0)
(2.941593062 0.001445061162 0)
(2.940670965 0.0005315839466 0)
(2.939817635 -0.0004255357556 0)
(2.939762677 -0.0006159292167 0)
(2.939182106 -0.000391085347 0)
(2.93829642 0.0005534948259 0)
(2.937647098 0.0002478692484 0)
(2.937352344 -0.0002035756872 0)
(2.937798049 0.001407490178 0)
(2.937489386 0.0003290481506 0)
(2.937094814 -0.003166552066 0)
(2.937125207 -0.002487732193 0)
(2.937927144 -0.0008967685182 0)
(2.938217799 0.000971425043 0)
(2.938251504 0.0005956524982 0)
(2.937151485 -0.0008837006567 0)
(2.936262702 -0.001220174564 0)
(2.935872767 -0.000687361741 0)
(2.936097359 0.0007835011644 0)
(2.93661045 0.001365965298 0)
(2.936845811 0.001177901275 0)
(2.936697498 -6.421992556e-05 0)
(2.936147584 -0.00213501129 0)
(2.936070296 -0.003222676515 0)
(2.936154379 -0.00266586937 0)
(2.936715068 -0.001215948556 0)
(2.938018921 -0.0005798650857 0)
(2.938622218 -0.0002747956675 0)
(2.939304226 -6.434248205e-05 0)
(2.939596563 0.0001368069008 0)
(2.926098666 0.002085857113 0)
(2.924680589 0.001334888278 0)
(2.922841658 0.0005227017884 0)
(2.922208012 0.0002617914032 0)
(2.921555388 0.0001426155226 0)
(2.921160376 5.959342768e-05 0)
(2.921292932 0.001024794051 0)
(2.920874671 0.002174753145 0)
(2.920097937 0.00227080758 0)
(2.919418164 0.001600717798 0)
(2.918722534 0.0007835991734 0)
(2.918706549 0.0004586858031 0)
(2.918563055 0.0003367373508 0)
(2.918179302 0.0005371035511 0)
(2.917821265 -6.767159195e-07 0)
(2.917421228 -0.0003669660037 0)
(2.917909423 0.001473423426 0)
(2.917908651 0.0008742672985 0)
(2.917317086 -0.002231712233 0)
(2.918083164 -0.001271835583 0)
(2.9191786 8.880560255e-05 0)
(2.91910549 0.0009862864987 0)
(2.91861913 0.0003572996697 0)
(2.917941314 -0.0009131653034 0)
(2.917626091 -0.001227673351 0)
(2.91752204 -0.0006442046974 0)
(2.917957611 0.0006891971713 0)
(2.91822341 0.001298547715 0)
(2.918316555 0.001089171957 0)
(2.91789945 -0.0001278469473 0)
(2.917034096 -0.002094778514 0)
(2.916738549 -0.003045625877 0)
(2.916983041 -0.002312813257 0)
(2.917244764 -0.0007332079711 0)
(2.918217452 6.215136167e-05 0)
(2.918618759 0.0004677642984 0)
(2.918840531 0.0005396098603 0)
(2.919041315 0.0006534711201 0)
(2.905789474 0.000877156116 0)
(2.904337627 -3.717565571e-05 0)
(2.90430928 0.0002294334541 0)
(2.904138276 5.537219253e-05 0)
(2.903898313 -0.0001167576896 0)
(2.904051844 0.0007204875204 0)
(2.903930171 0.001795231468 0)
(2.903404577 0.002194274302 0)
(2.903002498 0.001859985609 0)
(2.902814525 0.001431166479 0)
(2.902822239 0.001205938612 0)
(2.903034004 0.0008909460639 0)
(2.902861017 0.0005909199225 0)
(2.902267715 -0.0006939480614 0)
(2.901809116 -0.001222116811 0)
(2.902865196 0.001144213864 0)
(2.903065672 0.0009540793858 0)
(2.902697087 -0.001525304885 0)
(2.903473946 -0.000926158102 0)
(2.904656875 0.0003648615793 0)
(2.905051304 0.001184478469 0)
(2.904502022 0.0001253484128 0)
(2.903815143 -0.001088946967 0)
(2.903158147 -0.001515369173 0)
(2.902886077 -0.00118290797 0)
(2.903335278 0.000123785278 0)
(2.90365509 0.0008017285788 0)
(2.903789392 0.0007970311557 0)
(2.903501314 -0.0001900242239 0)
(2.902696485 -0.001875956495 0)
(2.902252866 -0.002680133849 0)
(2.902245808 -0.001966858433 0)
(2.902468722 -0.0003851556712 0)
(2.903022315 0.0004296042204 0)
(2.903285228 0.0008791712462 0)
(2.903288384 0.0009539024104 0)
(2.903252818 0.001037847549 0)
(2.903060423 0.0006135351317 0)
(2.889230701 0.000471159916 0)
(2.888709976 -8.154124007e-05 0)
(2.88912629 0.0004763577156 0)
(2.889581317 0.0003666769882 0)
(2.889266437 -0.0001612040001 0)
(2.889439242 0.0004479866057 0)
(2.889508535 0.001187048089 0)
(2.889468295 0.00191695271 0)
(2.889337699 0.001683701778 0)
(2.889554582 0.00143938268 0)
(2.889678058 0.001166638929 0)
(2.889740235 0.0005447302857 0)
(2.889564699 -0.0002539717933 0)
(2.889014802 -0.001584630517 0)
(2.888878894 -0.001685972425 0)
(2.890458022 0.001325545022 0)
(2.890763409 0.001409663508 0)
(2.890687177 -0.0009819542987 0)
(2.891025445 -0.0008241378194 0)
(2.892118176 0.000664964939 0)
(2.89245663 0.001031326802 0)
(2.89244481 -0.0002197557463 0)
(2.89147717 -0.00163787253 0)
(2.890653513 -0.002234720641 0)
(2.890384242 -0.002095108128 0)
(2.89105825 -0.0006526689002 0)
(2.89127789 7.342245613e-05 0)
(2.891564504 0.0002406908378 0)
(2.891547376 -0.0005540615125 0)
(2.89093542 -0.002047396431 0)
(2.890526821 -0.002714982861 0)
(2.890282615 -0.002106678907 0)
(2.890309451 -0.0006431468448 0)
(2.890796675 0.0004195778885 0)
(2.89091533 0.001012020719 0)
(2.890981351 0.001439146233 0)
(2.891017175 0.001573260348 0)
(2.890733724 0.001132570182 0)
(2.873674214 0.0009340554242 0)
(2.87379219 0.0003130509125 0)
(2.874150337 0.000773214261 0)
(2.874862551 0.0003224786651 0)
(2.874602077 -0.0005212723579 0)
(2.874734327 -0.0002179607254 0)
(2.875225767 0.0007352443337 0)
(2.875731107 0.001385479094 0)
(2.875774661 0.0009760288019 0)
(2.875941376 0.0006093655488 0)
(2.876138441 0.0001954330108 0)
(2.876385884 -0.000341450334 0)
(2.876503223 -0.001069147155 0)
(2.876429386 -0.002129358257 0)
(2.876672058 -0.001600463296 0)
(2.878469671 0.001513170993 0)
(2.878832407 0.00159145709 0)
(2.878622449 -0.001208999214 0)
(2.878799509 -0.001370308838 0)
(2.879961425 0.0001185656584 0)
(2.880242429 0.0006274624041 0)
(2.880329107 -0.0007190814514 0)
(2.879329533 -0.002408888761 0)
(2.878717969 -0.003180778881 0)
(2.878615446 -0.003281699719 0)
(2.879594411 -0.001626285452 0)
(2.879736389 -0.0008862947671 0)
(2.880062814 -0.0003429048691 0)
(2.880184579 -0.0007465902586 0)
(2.87986003 -0.001851534073 0)
(2.879712651 -0.002293199128 0)
(2.879645681 -0.001732078242 0)
(2.879545058 -0.0005338399662 0)
(2.879799359 0.0006678571039 0)
(2.879913732 0.001443537704 0)
(2.880077562 0.001649693595 0)
(2.880400805 0.001830246515 0)
(2.880442305 0.001533778017 0)
(2.857804982 0.0009320310359 0)
(2.858417498 0.0004831676551 0)
(2.858695311 0.0008881901753 0)
(2.859697466 0.0004519249762 0)
(2.859900725 -0.0004095162566 0)
(2.860061184 -0.000146992303 0)
(2.861063635 0.0008085990511 0)
(2.86181806 0.001338069368 0)
(2.86186493 0.0007701125478 0)
(2.862096846 7.489923715e-05 0)
(2.862472764 -0.0005910471 0)
(2.863199915 -0.0008819102212 0)
(2.863786385 -0.0005870072271 0)
(2.864147549 -0.0009365459874 0)
(2.864740835 -0.0003705914132 0)
(2.866394479 0.002455259006 0)
(2.866510731 0.002021789224 0)
(2.865874499 -0.001378439581 0)
(2.866067657 -0.001712559318 0)
(2.867443868 8.038853289e-05 0)
(2.867773893 0.0001659891895 0)
(2.867929965 -0.0007926434067 0)
(2.867296886 -0.002684887972 0)
(2.867065176 -0.003285896853 0)
(2.867063429 -0.003142515191 0)
(2.86813387 -0.001455600783 0)
(2.86829294 -0.0008326127154 0)
(2.868548532 -0.0005300752317 0)
(2.868621957 -0.001199484517 0)
(2.868814554 -0.002194887038 0)
(2.868969747 -0.002504499467 0)
(2.868727938 -0.002272412969 0)
(2.8683674 -0.001260618294 0)
(2.868564421 0.0006031550402 0)
(2.869481593 0.001815418605 0)
(2.869697509 0.002280414244 0)
(2.870213292 0.002247207016 0)
(2.870564937 0.001513625492 0)
(2.842896452 0.00182085125 0)
(2.843759013 0.00122733507 0)
(2.84443296 0.001138514668 0)
(2.845897714 0.0007997972117 0)
(2.846573573 -0.0001872983751 0)
(2.846802618 -2.766711438e-06 0)
(2.847845444 0.001037096555 0)
(2.8486439 0.001805224559 0)
(2.848769345 0.001368923648 0)
(2.849733843 0.0008282495622 0)
(2.850774021 0.0002075731004 0)
(2.851539443 -7.364108818e-05 0)
(2.852115047 2.294410808e-05 0)
(2.85226396 -0.0005007761746 0)
(2.852489185 -0.0006154147086 0)
(2.854081636 0.001672978518 0)
(2.854208497 0.001018956525 0)
(2.854170878 -0.002397198424 0)
(2.854592957 -0.002774630328 0)
(2.85602498 -0.0009437140486 0)
(2.856340141 -8.990912709e-05 0)
(2.856430271 -0.0007674060829 0)
(2.856280317 -0.002357640027 0)
(2.856431623 -0.002745078214 0)
(2.856502642 -0.002600865916 0)
(2.857500704 -0.001474027122 0)
(2.857687971 -0.001019023515 0)
(2.857805363 -0.0008354823426 0)
(2.857730447 -0.001554437415 0)
(2.858344252 -0.002037866393 0)
(2.858367889 -0.002274604521 0)
(2.857913321 -0.001908891019 0)
(2.857413113 -0.0008951427645 0)
(2.857766548 0.0009988410272 0)
(2.85919992 0.001964655758 0)
(2.859535419 0.002112144112 0)
(2.860180777 0.002159650698 0)
(2.860813713 0.001719333617 0)
(2.832610234 0.001880415396 0)
(2.833093452 0.001054017252 0)
(2.834448262 0.0007574776935 0)
(2.835990928 0.0006274234805 0)
(2.83666333 -0.0003154937396 0)
(2.837008572 -0.0002027379141 0)
(2.837584623 0.001047493662 0)
(2.838217806 0.002310518955 0)
(2.83831767 0.002027688086 0)
(2.839229983 0.001092569725 0)
(2.840530352 2.63105423e-05 0)
(2.841545948 -0.0001784312771 0)
(2.842429749 0.0002229454747 0)
(2.842295831 0.0001467850473 0)
(2.84199463 6.497032152e-05 0)
(2.843703909 0.002217512633 0)
(2.844008173 0.0009182845428 0)
(2.844724342 -0.003205441701 0)
(2.845515757 -0.003267996234 0)
(2.846995355 -0.001464052781 0)
(2.847373729 -0.001025219237 0)
(2.847400873 -0.001202558386 0)
(2.847204136 -0.002241114505 0)
(2.84737855 -0.002591698618 0)
(2.847397143 -0.002132142093 0)
(2.848604112 -0.001244036839 0)
(2.849027424 -0.000972404493 0)
(2.849288133 -0.001257429061 0)
(2.849459661 -0.00245475794 0)
(2.84927833 -0.003192059766 0)
(2.849201004 -0.002889340928 0)
(2.84912545 -0.002149253286 0)
(2.849008748 -0.0008381434803 0)
(2.849331238 0.001369884159 0)
(2.850348283 0.002569111511 0)
(2.85082268 0.002885771249 0)
(2.851382852 0.002654461368 0)
(2.852203726 0.001937410621 0)
(2.828087158 0.001335675195 0)
(2.827803121 7.622518988e-05 0)
(2.829206934 -0.0004663758154 0)
(2.830682662 -0.0003334614223 0)
(2.831335753 -0.0008937364761 0)
(2.832018033 -0.0009154565842 0)
(2.832530478 0.0004803261437 0)
(2.832749575 0.002129533733 0)
(2.832566595 0.00217234501 0)
(2.832987802 0.001993159531 0)
(2.8339317 0.001476997605 0)
(2.835151024 0.0008822300367 0)
(2.83638154 0.0005339729441 0)
(2.836596991 -7.719485737e-05 0)
(2.836543582 -0.0005737508627 0)
(2.838080034 0.001697124659 0)
(2.838152732 0.0007026993104 0)
(2.838541033 -0.003017255489 0)
(2.839655242 -0.003193015556 0)
(2.841447431 -0.001914957879 0)
(2.842100422 -0.001517377905 0)
(2.842182062 -0.001804048311 0)
(2.841650324 -0.002100195143 0)
(2.841595233 -0.002081111048 0)
(2.841387774 -0.001659895706 0)
(2.842778034 -0.001212297959 0)
(2.843381318 -0.001127947263 0)
(2.843833092 -0.001761737284 0)
(2.844235266 -0.003437582005 0)
(2.843161714 -0.003380779486 0)
(2.843192652 -0.003264272998 0)
(2.843435748 -0.00232012298 0)
(2.843674976 -0.001033480153 0)
(2.844100642 0.001258120934 0)
(2.844768556 0.00303411809 0)
(2.845093127 0.002917378647 0)
(2.845402993 0.002802288275 0)
(2.845940783 0.002273093371 0)
(2.827824579 -0.0004934110007 0)
(2.828800665 -0.0005153534007 0)
(2.830215876 -0.0003219059043 0)
(2.831035627 -0.0008773323951 0)
(2.832058901 -0.001314820723 0)
(2.832827063 -0.0002913416303 0)
(2.832857905 0.001549686596 0)
(2.832523241 0.0017679036 0)
(2.832817022 0.001669954243 0)
(2.833688806 0.001369993189 0)
(2.834669403 0.0009854180958 0)
(2.835975415 0.0004854480031 0)
(2.8368069 -0.0008017704646 0)
(2.837141983 -0.001592013639 0)
(2.838176499 0.001080947513 0)
(2.83779699 0.0005932454794 0)
(2.837348501 -0.002274756242 0)
(2.838336853 -0.002197262212 0)
(2.840443754 -0.001537874618 0)
(2.841241861 -0.001663512864 0)
(2.841537214 -0.002081100746 0)
(2.840838477 -0.001978400221 0)
(2.840649305 -0.001845082622 0)
(2.840267514 -0.001202007119 0)
(2.841429262 -0.000973753807 0)
(2.841914618 -0.001076470933 0)
(2.842312629 -0.002084768739 0)
(2.842566868 -0.004000048264 0)
(2.841511143 -0.003996690788 0)
(2.841402817 -0.003743218501 0)
(2.841577149 -0.002505904317 0)
(2.841864459 -0.001110916813 0)
(2.842426998 0.001114615222 0)
(2.842968346 0.003164182618 0)
(2.843040928 0.003538365682 0)
(2.843084516 0.003168682756 0)
(2.843276432 0.002636651498 0)
(2.832847841 0.0004185788931 0)
(2.833553812 0.0004515735782 0)
(2.834908497 0.0004349953021 0)
(2.835819936 -0.0002806536429 0)
(2.836896862 -0.0007504125225 0)
(2.837584344 -0.0001419469622 0)
(2.837902624 0.001107653052 0)
(2.837704968 0.001238251762 0)
(2.838066181 0.0009987807034 0)
(2.838981565 0.0007725749088 0)
(2.840071112 0.0004223452253 0)
(2.841296508 -0.000336755361 0)
(2.841873261 -0.00169634922 0)
(2.84197432 -0.001907399903 0)
(2.842655933 0.001255104204 0)
(2.842135343 0.001093218689 0)
(2.841279519 -0.001539177717 0)
(2.841783708 -0.001568129112 0)
(2.84370557 -0.0009700318745 0)
(2.844390935 -0.001313425854 0)
(2.844865317 -0.001955260593 0)
(2.844418997 -0.001940135392 0)
(2.844111114 -0.001766042097 0)
(2.843647386 -0.001270204956 0)
(2.844390753 -0.001425180658 0)
(2.844736781 -0.001524765477 0)
(2.844962105 -0.002509381081 0)
(2.844960622 -0.004362486378 0)
(2.843978182 -0.004416102214 0)
(2.843938959 -0.004132406079 0)
(2.843911403 -0.002807219244 0)
(2.843826655 -0.001236704513 0)
(2.844198945 0.0009116700481 0)
(2.844663227 0.003257325762 0)
(2.844550734 0.003776594131 0)
(2.844395267 0.003331732355 0)
(2.844539147 0.002835568268 0)
(2.842114167 0.001175706542 0)
(2.842621225 0.000980883546 0)
(2.843826233 0.0007946491043 0)
(2.844714325 -2.298644871e-05 0)
(2.845753926 -0.0004822577853 0)
(2.846270733 -3.150713039e-05 0)
(2.846509649 0.0008998480266 0)
(2.846106285 0.0009642103772 0)
(2.8463775 0.0004630577212 0)
(2.847130477 8.966601799e-05 0)
(2.848207832 -0.000324652118 0)
(2.849383432 -0.0005787302881 0)
(2.849266951 -0.001247882064 0)
(2.848894481 -0.001224234416 0)
(2.849604389 0.002034874531 0)
(2.849251846 0.001857938395 0)
(2.848653372 -0.0008518941954 0)
(2.84905044 -0.0007225056295 0)
(2.850276738 8.338222322e-06 0)
(2.850600807 -0.0004768938999 0)
(2.850973707 -0.001643831525 0)
(2.850814454 -0.002054825486 0)
(2.850498308 -0.001880090791 0)
(2.85013265 -0.001763704121 0)
(2.850423754 -0.002179575423 0)
(2.850683422 -0.002432829821 0)
(2.850724703 -0.003395671141 0)
(2.850433259 -0.005014444052 0)
(2.849383069 -0.004558454624 0)
(2.849409219 -0.004135255523 0)
(2.849466315 -0.002921915886 0)
(2.849220559 -0.00114962907 0)
(2.849060973 0.0008050162679 0)
(2.849174091 0.00332655805 0)
(2.849062904 0.004037728147 0)
(2.848861634 0.003497183711 0)
(2.84920778 0.002675552739 0)
(2.853668778 0.001738030087 0)
(2.85363068 0.001132543072 0)
(2.854376116 0.0007120192222 0)
(2.855003768 -0.0003092187914 0)
(2.856060344 -0.0005216872889 0)
(2.85651685 -7.440243081e-05 0)
(2.856460706 0.001003607815 0)
(2.855786509 0.00161845863 0)
(2.855527664 0.0009377720359 0)
(2.856182213 6.008311996e-05 0)
(2.857016375 -0.0004164611744 0)
(2.858078908 -0.0002659477035 0)
(2.857973801 -0.0005141809275 0)
(2.85765095 -0.0005044733162 0)
(2.858317226 0.002600237958 0)
(2.858125151 0.00220653068 0)
(2.857739085 -0.0008375412332 0)
(2.858048049 -0.0006960396998 0)
(2.858680713 0.0003283340963 0)
(2.858709775 7.446075219e-05 0)
(2.85870876 -0.001220975611 0)
(2.85836187 -0.002094928341 0)
(2.858110945 -0.002294351397 0)
(2.857831694 -0.002699581833 0)
(2.858009586 -0.002994662797 0)
(2.858149193 -0.003075373582 0)
(2.857949631 -0.003621028179 0)
(2.857485488 -0.004867501446 0)
(2.85613574 -0.004206645678 0)
(2.856061617 -0.003806673425 0)
(2.856250901 -0.002853029498 0)
(2.856385251 -0.0008772257489 0)
(2.856020251 0.0009531025616 0)
(2.855758265 0.003417423618 0)
(2.855631688 0.004116274373 0)
(2.855455656 0.00343743926 0)
(2.855889201 0.00233509857 0)
(2.86401865 0.001344445127 0)
(2.863388192 0.0003861473081 0)
(2.863794744 -8.757087462e-05 0)
(2.864220902 -0.001135456836 0)
(2.86512381 -0.001184841905 0)
(2.865445955 -0.0006968306309 0)
(2.865519685 0.0006369925247 0)
(2.865504693 0.002423373959 0)
(2.864955143 0.00189259939 0)
(2.865227719 0.0008911635676 0)
(2.865803577 3.247153138e-05 0)
(2.866658861 0.0001097268404 0)
(2.866869604 0.0001512098245 0)
(2.866496954 0.0002085245124 0)
(2.867083089 0.002956074881 0)
(2.866670087 0.001586165454 0)
(2.865566836 -0.002465665479 0)
(2.865959191 -0.002021858458 0)
(2.866813071 -6.158123498e-05 0)
(2.866760634 -0.0001570694926 0)
(2.866647186 -0.001332567798 0)
(2.865907658 -0.00229231778 0)
(2.865556472 -0.00274206266 0)
(2.865105136 -0.003256798554 0)
(2.865184567 -0.003121867404 0)
(2.865191841 -0.003092285328 0)
(2.864786235 -0.003470278862 0)
(2.864404848 -0.004432065306 0)
(2.863196749 -0.00383067773 0)
(2.863135288 -0.003511738943 0)