/*--------------------------------*- C++ -*----------------------------------*\
  =========                 |
  \\      /  F ield         | OpenFOAM: The Open Source CFD Toolbox
   \\    /   O peration     | Website:  https://openfoam.org
    \\  /    A nd           | Version:  7
     \\/     M anipulation  |
\*---------------------------------------------------------------------------*/
FoamFile
{
    version     2.0;
    format      ascii;
    class       volVectorField;
    location    "0.7";
    object      U;
}
// * * * * * * * * * * * * * * * * * * * * * * * * * * * * * * * * * * * * * //

dimensions      [0 1 -1 0 0 0 0];

internalField   nonuniform List<vector> 
555
(
(3 1.264008466e-14 0)
(3 1.149122368e-14 0)
(3 1.007657826e-14 0)
(3 5.875735472e-15 0)
(3 3.499811823e-15 0)
(3 2.04001024e-15 0)
(3 3.783398274e-15 0)
(3 4.21048721e-15 0)
(3 4.121813055e-15 0)
(3 2.527701151e-15 0)
(3 -8.783937589e-16 0)
(3 -3.236159654e-15 0)
(3 -4.83878592e-15 0)
(3 -8.610294176e-15 0)
(3 -1.047999669e-14 0)
(3 -1.3034821e-14 0)
(3 -1.379669856e-14 0)
(3 -1.259611109e-14 0)
(3 -1.100959452e-14 0)
(3 -9.932492648e-15 0)
(3 -9.894265632e-15 0)
(3 -1.140390802e-14 0)
(3 3.944216713e-15 0)
(3 2.424152576e-15 0)
(3 1.165358603e-15 0)
(3 -4.290773553e-16 0)
(3 -2.325295397e-15 0)
(3 -3.618944735e-15 0)
(3 -4.756297869e-15 0)
(3 -5.20230777e-15 0)
(3 -5.511217704e-15 0)
(3 -3.835415862e-15 0)
(3 -2.415612528e-15 0)
(3 -1.9045088e-15 0)
(3 -2.0671238e-15 0)
(3 -2.4219562e-15 0)
(3 -5.539381893e-15 0)
(3 -9.575639724e-15 0)
(3 -1.28254667e-14 0)
(3 -1.530953278e-14 0)
(3 -1.609841399e-14 0)
(3 -1.470893306e-14 0)
(3 -1.446168129e-14 0)
(3 -1.331929653e-14 0)
(3 -1.038194855e-14 0)
(3 -9.823459849e-15 0)
(3 -1.176773308e-14 0)
(3 -1.268883093e-14 0)
(3 -1.328425688e-14 0)
(3 -1.382928063e-14 0)
(3 -1.455523962e-14 0)
(3 -1.418058725e-14 0)
(3 -1.296554914e-14 0)
(3 -1.185491704e-14 0)
(3 -1.218701858e-14 0)
(3 -1.299207265e-14 0)
(3 2.183636318e-15 0)
(3 9.540371896e-16 0)
(3 -5.16755448e-16 0)
(3 -2.285689285e-15 0)
(3 -3.161346161e-15 0)
(3 -4.434465815e-15 0)
(3 -6.090999125e-15 0)
(3 -9.299396804e-15 0)
(3 -1.053683804e-14 0)
(3 -1.0706656e-14 0)
(3 -8.04696751e-15 0)
(3 -5.266751805e-15 0)
(3 -2.76023097e-15 0)
(3 1.943227381e-16 0)
(3 1.982488664e-15 0)
(3 2.288399751e-15 0)
(3 3.124881976e-15 0)
(3 1.483388121e-16 0)
(3 -6.634769694e-15 0)
(3 -9.067490109e-15 0)
(3 -7.442968727e-15 0)
(3 -7.836494503e-15 0)
(3 -9.0044637e-15 0)
(3 -1.099903006e-14 0)
(3 -1.197963506e-14 0)
(3 -1.081467531e-14 0)
(3 -1.018511504e-14 0)
(3 -1.107602491e-14 0)
(3 -1.136509996e-14 0)
(3 -1.257146927e-14 0)
(3 -1.29076953e-14 0)
(3 -1.268375666e-14 0)
(3 -1.264977275e-14 0)
(3 -1.22078751e-14 0)
(3 3.327101855e-15 0)
(3 3.351024677e-15 0)
(3 3.307338792e-15 0)
(3 3.304565154e-15 0)
(3 2.402536708e-15 0)
(3 3.749095559e-16 0)
(3 -2.704403159e-15 0)
(3 -4.085849719e-15 0)
(3 -4.457037166e-15 0)
(3 -4.797902532e-15 0)
(3 -4.194129758e-15 0)
(3 -3.309383535e-15 0)
(3 -2.702056514e-15 0)
(3 1.282287585e-15 0)
(3 5.297831611e-15 0)
(3 6.310466925e-15 0)
(3 6.59291415e-15 0)
(3 5.910679997e-15 0)
(3 3.602940299e-15 0)
(3 -8.385235293e-16 0)
(3 -1.964187067e-15 0)
(3 -3.251279654e-15 0)
(3 -9.01881634e-15 0)
(3 -1.098888246e-14 0)
(3 -8.042604577e-15 0)
(3 -7.302169941e-15 0)
(3 -8.303314433e-15 0)
(3 -9.864520917e-15 0)
(3 -1.064487604e-14 0)
(3 -1.140927499e-14 0)
(3 -1.207382069e-14 0)
(3 -1.219754981e-14 0)
(3 -1.207196476e-14 0)
(3 -1.084413572e-14 0)
(3 5.094508272e-15 0)
(3 5.915318547e-15 0)
(3 6.112120258e-15 0)
(3 6.08773352e-15 0)
(3 5.600258425e-15 0)
(3 5.493920417e-15 0)
(3 4.727906551e-15 0)
(3 5.617479255e-15 0)
(3 3.642880509e-15 0)
(3 2.286225024e-15 0)
(3 1.148522777e-15 0)
(3 5.681723132e-16 0)
(3 1.868959557e-15 0)
(3 1.988095166e-15 0)
(3 2.285550924e-15 0)
(3 3.575520584e-15 0)
(3 4.820881031e-15 0)
(3 3.820923493e-15 0)
(3 1.988977295e-15 0)
(3 1.021418644e-15 0)
(3 -3.494071501e-16 0)
(3 -1.539595948e-15 0)
(3 -2.41102407e-15 0)
(3 -2.053152822e-15 0)
(3 -4.418938741e-15 0)
(3 -7.387525744e-15 0)
(3 -7.963811715e-15 0)
(3 -8.757942128e-15 0)
(3 -1.042094483e-14 0)
(3 -1.065998747e-14 0)
(3 -1.055143173e-14 0)
(3 -1.029125412e-14 0)
(3 -8.80994328e-15 0)
(3 -8.285073879e-15 0)
(3 1.947395861e-15 0)
(3 2.641374432e-15 0)
(3 3.175686068e-15 0)
(3 3.481667301e-15 0)
(3 5.286407979e-15 0)
(3 8.601665609e-15 0)
(3 1.206131484e-14 0)
(3 1.364807034e-14 0)
(3 1.198375845e-14 0)
(3 1.044619637e-14 0)
(3 8.994905213e-15 0)
(3 6.727561087e-15 0)
(3 3.823134692e-15 0)
(3 8.739671851e-16 0)
(3 -7.747564084e-16 0)
(3 -8.8253589e-16 0)
(3 -4.175404761e-16 0)
(3 -5.881998404e-16 0)
(3 7.344678433e-17 0)
(3 -4.531048296e-16 0)
(3 -6.517136095e-16 0)
(3 -1.245737526e-15 0)
(3 -8.08747509e-16 0)
(3 -9.602811342e-16 0)
(3 -2.69477971e-15 0)
(3 -5.84125283e-15 0)
(3 -6.776052898e-15 0)
(3 -7.895431042e-15 0)
(3 -8.909170455e-15 0)
(3 -9.141276047e-15 0)
(3 -9.758903134e-15 0)
(3 -8.896315532e-15 0)
(3 -6.467961148e-15 0)
(3 -6.702052106e-15 0)
(3 -2.749982014e-16 0)
(3 6.329385967e-16 0)
(3 7.545628603e-16 0)
(3 5.933719475e-16 0)
(3 -5.092453312e-17 0)
(3 1.329829004e-15 0)
(3 3.392701384e-15 0)
(3 6.542480506e-15 0)
(3 8.685283481e-15 0)
(3 1.021670222e-14 0)
(3 9.622241577e-15 0)
(3 7.657307592e-15 0)
(3 6.206581554e-15 0)
(3 3.803742847e-15 0)
(3 -1.072721324e-16 0)
(3 -2.713206768e-15 0)
(3 -1.901765362e-15 0)
(3 9.433847278e-16 0)
(3 2.370074681e-15 0)
(3 2.34615379e-15 0)
(3 2.406993966e-15 0)
(3 1.725140304e-15 0)
(3 3.272092965e-17 0)
(3 -1.244492965e-15 0)
(3 -3.398325384e-15 0)
(3 -5.419671012e-15 0)
(3 -6.338488512e-15 0)
(3 -5.475074653e-15 0)
(3 -5.267853751e-15 0)
(3 -4.868310994e-15 0)
(3 -4.263147858e-15 0)
(3 -3.418780428e-15 0)
(3 -2.278354682e-15 0)
(3 -1.779555057e-15 0)
(3 -4.413745174e-15 0)
(3 -2.465494538e-15 0)
(3 7.287028343e-16 0)
(3 4.888096013e-15 0)
(3 6.281143065e-15 0)
(3 8.293730059e-15 0)
(3 8.199249331e-15 0)
(3 7.595262188e-15 0)
(3 8.245909611e-15 0)
(3 8.815293192e-15 0)
(3 9.491287935e-15 0)
(3 9.615079771e-15 0)
(3 1.001997031e-14 0)
(3 8.540637986e-15 0)
(3 7.150969736e-15 0)
(3 6.135511975e-15 0)
(3 5.376493377e-15 0)
(3 6.144544869e-15 0)
(3 5.771573593e-15 0)
(3 5.128547945e-15 0)
(3 4.280253245e-15 0)
(3 2.247166904e-15 0)
(3 4.923953084e-16 0)
(3 -3.002484093e-15 0)
(3 -5.010432611e-15 0)
(3 -6.093709181e-15 0)
(3 -4.933914241e-15 0)
(3 -2.077463376e-15 0)
(3 -1.546604423e-15 0)
(3 -1.80173277e-16 0)
(3 8.680807056e-16 0)
(3 -6.3108217e-16 0)
(3 -9.188042382e-16 0)
(3 1.114853785e-15 0)
(3 -9.553567029e-15 0)
(3 -7.426826248e-15 0)
(3 -5.022711854e-15 0)
(3 -8.639864815e-17 0)
(3 5.718578117e-15 0)
(3 8.198306239e-15 0)
(3 1.052086913e-14 0)
(3 1.108544255e-14 0)
(3 1.146456583e-14 0)
(3 1.123606662e-14 0)
(3 1.115583662e-14 0)
(3 1.103675146e-14 0)
(3 1.03290375e-14 0)
(3 1.102530135e-14 0)
(3 1.31942652e-14 0)
(3 1.347385448e-14 0)
(3 1.305659366e-14 0)
(3 1.101878353e-14 0)
(3 1.054533282e-14 0)
(3 1.239766128e-14 0)
(3 1.064399218e-14 0)
(3 9.106543702e-15 0)
(3 7.066972486e-15 0)
(3 5.548351603e-15 0)
(3 6.714259548e-15 0)
(3 5.644466172e-15 0)
(3 5.590659197e-15 0)
(3 5.357095574e-15 0)
(3 5.77412586e-15 0)
(3 4.446751647e-15 0)
(3 1.767479986e-15 0)
(3 1.170826665e-15 0)
(3 1.461855234e-15 0)
(3 2.155021448e-15 0)
(3 -1.482534182e-14 0)
(3 -1.059475507e-14 0)
(3 -4.974594005e-15 0)
(3 -4.666231912e-16 0)
(3 2.434771823e-15 0)
(3 8.227358878e-15 0)
(3 1.034100773e-14 0)
(3 1.176619685e-14 0)
(3 1.201670313e-14 0)
(3 1.165700284e-14 0)
(3 1.143278459e-14 0)
(3 1.164905556e-14 0)
(3 1.289878108e-14 0)
(3 1.483953541e-14 0)
(3 1.774436666e-14 0)
(3 2.015210981e-14 0)
(3 2.095489347e-14 0)
(3 1.891904288e-14 0)
(3 1.719817216e-14 0)
(3 1.86873173e-14 0)
(3 1.616518777e-14 0)
(3 1.528049485e-14 0)
(3 1.515534633e-14 0)
(3 1.713156987e-14 0)
(3 1.97232273e-14 0)
(3 2.195269155e-14 0)
(3 2.012101227e-14 0)
(3 1.864591643e-14 0)
(3 1.843878448e-14 0)
(3 1.568679241e-14 0)
(3 1.144200272e-14 0)
(3 8.181003139e-15 0)
(3 7.286934196e-15 0)
(3 7.521374893e-15 0)
(3 -1.056327023e-14 0)
(3 -8.210260333e-15 0)
(3 -5.392938332e-15 0)
(3 -4.247723519e-15 0)
(3 3.081732996e-16 0)
(3 5.003971764e-15 0)
(3 7.615208964e-15 0)
(3 1.186991321e-14 0)
(3 1.111364083e-14 0)
(3 1.328892412e-14 0)
(3 1.756064379e-14 0)
(3 2.020908937e-14 0)
(3 1.986861156e-14 0)
(3 2.055248612e-14 0)
(3 2.06942093e-14 0)
(3 2.134392436e-14 0)
(3 2.247604242e-14 0)
(3 2.205891744e-14 0)
(3 2.208862073e-14 0)
(3 2.167777613e-14 0)
(3 2.237748925e-14 0)
(3 2.307446689e-14 0)
(3 2.458702944e-14 0)
(3 2.729522672e-14 0)
(3 2.943514033e-14 0)
(3 2.83753474e-14 0)
(3 2.649116263e-14 0)
(3 2.39792699e-14 0)
(3 2.268458543e-14 0)
(3 2.315305329e-14 0)
(3 2.082484263e-14 0)
(3 1.945447401e-14 0)
(3 1.703473532e-14 0)
(3 1.398988703e-14 0)
(3 -4.756120997e-15 0)
(3 -4.005538247e-15 0)
(3 -3.387197394e-15 0)
(3 -4.213593036e-15 0)
(3 -3.349191328e-15 0)
(3 -3.53906158e-15 0)
(3 -3.868968594e-15 0)
(3 -2.298019833e-15 0)
(3 -9.646268549e-16 0)
(3 4.067874734e-15 0)
(3 6.63958654e-15 0)
(3 9.524504437e-15 0)
(3 1.22126783e-14 0)
(3 1.487508258e-14 0)
(3 1.492296834e-14 0)
(3 1.630119453e-14 0)
(3 1.729362359e-14 0)
(3 1.964797916e-14 0)
(3 1.909817971e-14 0)
(3 2.012037558e-14 0)
(3 2.040517833e-14 0)
(3 2.022156062e-14 0)
(3 2.077687107e-14 0)
(3 2.183450629e-14 0)
(3 2.382372749e-14 0)
(3 2.427401946e-14 0)
(3 2.103531718e-14 0)
(3 1.505090085e-14 0)
(3 1.391777073e-14 0)
(3 1.510685462e-14 0)
(3 1.470875608e-14 0)
(3 1.518237628e-14 0)
(3 1.379535955e-14 0)
(3 9.689620682e-15 0)
(3 -3.391538063e-15 0)
(3 -3.864806913e-15 0)
(3 -4.380752841e-15 0)
(3 -6.138528455e-15 0)
(3 -8.120948284e-15 0)
(3 -9.025437758e-15 0)
(3 -9.193553286e-15 0)
(3 -9.168899937e-15 0)
(3 -8.627571356e-15 0)
(3 -4.534523709e-15 0)
(3 -1.058005023e-15 0)
(3 1.379466557e-15 0)
(3 7.093099063e-15 0)
(3 7.730148292e-15 0)
(3 8.48732769e-15 0)
(3 7.367583901e-15 0)
(3 6.519879402e-15 0)
(3 8.410740016e-15 0)
(3 9.54609232e-15 0)
(3 1.319495804e-14 0)
(3 1.951737057e-14 0)
(3 2.298352193e-14 0)
(3 2.317497292e-14 0)
(3 2.262090015e-14 0)
(3 2.156802585e-14 0)
(3 2.031125488e-14 0)
(3 2.209410102e-14 0)
(3 2.216172115e-14 0)
(3 2.529269289e-14 0)
(3 2.592689379e-14 0)
(3 1.866015636e-14 0)
(3 1.537579593e-14 0)
(3 1.373842218e-14 0)
(3 1.176945993e-14 0)
(3 -3.911433978e-15 0)
(3 -4.42663514e-15 0)
(3 -6.201672978e-15 0)
(3 -9.668952396e-15 0)
(3 -1.236058667e-14 0)
(3 -1.293838159e-14 0)
(3 -1.113912945e-14 0)
(3 -1.040621597e-14 0)
(3 -8.892745347e-15 0)
(3 -7.109312669e-15 0)
(3 -5.393662821e-15 0)
(3 -3.022067182e-15 0)
(3 -2.067454076e-16 0)
(3 2.841371412e-15 0)
(3 3.92183516e-15 0)
(3 4.081804519e-15 0)
(3 4.870699024e-15 0)
(3 4.049332384e-15 0)
(3 4.050225302e-15 0)
(3 7.11926405e-15 0)
(3 1.060836959e-14 0)
(3 1.123953097e-14 0)
(3 1.274450275e-14 0)
(3 1.298224406e-14 0)
(3 1.057988343e-14 0)
(3 9.312229934e-15 0)
(3 1.036198636e-14 0)
(3 1.19863501e-14 0)
(3 1.52452545e-14 0)
(3 1.849717189e-14 0)
(3 2.017464815e-14 0)
(3 2.262639245e-14 0)
(3 2.41191351e-14 0)
(3 1.546467785e-14 0)
(3 1.214288576e-15 0)
(3 -1.891890447e-15 0)
(3 -4.644126623e-15 0)
(3 -5.65833016e-15 0)
(3 -6.443544862e-15 0)
(3 -7.084077402e-15 0)
(3 -7.647561531e-15 0)
(3 -7.755905921e-15 0)
(3 -7.64587086e-15 0)
(3 -7.197777485e-15 0)
(3 -7.218205892e-15 0)
(3 -7.339351262e-15 0)
(3 -5.040548469e-15 0)
(3 -1.883307202e-15 0)
(3 -1.902071995e-15 0)
(3 -3.113912363e-16 0)
(3 1.531781355e-15 0)
(3 2.374218813e-15 0)
(3 3.274704794e-15 0)
(3 5.327469927e-15 0)
(3 4.797578645e-15 0)
(3 2.36020613e-15 0)
(3 2.575839732e-15 0)
(3 8.650278905e-16 0)
(3 -2.451221648e-15 0)
(3 -3.05715965e-15 0)
(3 -1.508925766e-15 0)
(3 5.760336966e-16 0)
(3 2.800325096e-15 0)
(3 6.458889917e-15 0)
(3 1.053492923e-14 0)
(3 1.530956589e-14 0)
(3 1.546488094e-14 0)
(3 1.838428269e-14 0)
(3 5.942962683e-15 0)
(3 2.523754187e-15 0)
(3 1.325100545e-15 0)
(3 3.28655927e-16 0)
(3 -6.202510814e-16 0)
(3 7.399301695e-17 0)
(3 -1.764424444e-15 0)
(3 -2.063085955e-15 0)
(3 -2.333033006e-15 0)
(3 -2.468287648e-15 0)
(3 -2.796363163e-15 0)
(3 -3.32483922e-15 0)
(3 -3.521873266e-15 0)
(3 -2.84449622e-15 0)
(3 -3.162574983e-15 0)
(3 -4.532437527e-16 0)
(3 -1.501896993e-16 0)
(3 8.605058984e-16 0)
(3 5.111684631e-16 0)
(3 1.015065982e-15 0)
(3 3.424509624e-16 0)
(3 -1.22965339e-15 0)
(3 -3.77129419e-15 0)
(3 -5.432474657e-15 0)
(3 -6.727666024e-15 0)
(3 -5.178521888e-15 0)
(3 -1.780081762e-15 0)
(3 -2.113300972e-15 0)
(3 -1.245512033e-15 0)
(3 3.147294909e-15 0)
(3 7.234886425e-15 0)
(3 1.724699929e-14 0)
(3 2.71598529e-14 0)
(3 1.543019556e-13 0)
(3 -3.801325115e-16 0)
(3 -9.13605087e-16 0)
(3 -3.570437552e-15 0)
(3 -6.466313308e-15 0)
(3 -4.794908528e-15 0)
(3 -3.670182928e-15 0)
(3 -4.97388666e-15 0)
(3 -7.347090722e-15 0)
(3 -1.098811227e-14 0)
(3 -1.055283061e-14 0)
(3 -8.541304879e-15 0)
(3 -7.090474444e-15 0)
(3 -6.404451611e-15 0)
(3 -5.065721902e-15 0)
(3 -4.242109556e-15 0)
(3 -2.944623722e-15 0)
(3 5.966322359e-15 0)
(3 1.764788967e-14 0)
(3 4.418237225e-14 0)
(3 5.428579825e-14 0)
(3 8.681838935e-14 0)
(3 8.996726673e-14 0)
(3 9.545737919e-13 0)
)
;

boundaryField
{
    inlet
    {
        type            fixedValue;
        value           nonuniform 0();
    }
    outlet
    {
        type            inletOutlet;
        inletValue      nonuniform 0();
        value           nonuniform 0();
    }
    bottom
    {
        type            slip;
    }
    top
    {
        type            slip;
    }
    obstacle
    {
        type            slip;
    }
    defaultFaces
    {
        type            empty;
    }
    procBoundary8to1
    {
        type            processor;
        value           uniform (3 1.252553108e-14 0);
    }
    procBoundary8to2
    {
        type            processor;
        value           nonuniform List<vector> 
35
(
(3 7.691554293e-15 0)
(3 9.101727557e-15 0)
(3 7.681936292e-15 0)
(3 4.63907556e-15 0)
(3 3.393349455e-16 0)
(3 9.666590908e-16 0)
(3 7.472484545e-16 0)
(3 2.653367578e-16 0)
(3 -2.313128932e-15 0)
(3 -6.79634037e-15 0)
(3 -9.525245299e-15 0)
(3 -1.066593224e-14 0)
(3 -8.723356785e-15 0)
(3 -7.165206957e-15 0)
(3 -6.928199838e-15 0)
(3 -6.996693167e-15 0)
(3 -7.380825094e-15 0)
(3 -5.09948915e-15 0)
(3 -4.055919934e-15 0)
(3 -5.603394967e-15 0)
(3 -8.262751481e-15 0)
(3 -1.014806118e-14 0)
(3 -1.184301889e-14 0)
(3 -1.184301889e-14 0)
(3 -1.268203595e-14 0)
(3 -1.364739433e-14 0)
(3 -1.511527589e-14 0)
(3 -1.689673938e-14 0)
(3 -1.644778002e-14 0)
(3 -1.524362322e-14 0)
(3 -1.460114029e-14 0)
(3 -1.391121003e-14 0)
(3 -1.371004226e-14 0)
(3 -1.348243273e-14 0)
(3 -1.281707865e-14 0)
)
;
    }
    procBoundary8to3
    {
        type            processor;
        value           nonuniform List<vector> 
14
(
(3 -1.240538652e-14 0)
(3 -1.346295197e-14 0)
(3 -1.269922171e-14 0)
(3 -1.339819529e-14 0)
(3 -1.07713629e-14 0)
(3 -3.483540034e-15 0)
(3 1.872892014e-15 0)
(3 7.494673056e-15 0)
(3 1.081098361e-14 0)
(3 1.064336843e-14 0)
(3 9.318621631e-15 0)
(3 9.769153455e-15 0)
(3 1.835727972e-14 0)
(3 5.277285404e-14 0)
)
;
    }
    procBoundary8to7
    {
        type            processor;
        value           nonuniform List<vector> 
15
(
(3 5.22496641e-15 0)
(3 3.434075287e-15 0)
(3 4.393563549e-15 0)
(3 4.494876861e-15 0)
(3 1.637403694e-15 0)
(3 -1.18159193e-15 0)
(3 -5.957066096e-15 0)
(3 -8.933802702e-15 0)
(3 -1.702154414e-14 0)
(3 -1.182320941e-14 0)
(3 -5.680544388e-15 0)
(3 -3.448532276e-15 0)
(3 -3.65579617e-15 0)
(3 3.896513933e-15 0)
(3 7.498758993e-15 0)
)
;
    }
    procBoundary8to9
    {
        type            processor;
        value           nonuniform List<vector> 2((3 9.601372729e-14 0) (3 -9.622705343e-11 0));
    }
    procBoundary8to14
    {
        type            processor;
        value           nonuniform List<vector> 
35
(
(3 7.309554273e-15 0)
(3 8.653360477e-15 0)
(3 9.122847874e-15 0)
(3 7.413988921e-15 0)
(3 5.572937868e-15 0)
(3 5.519104597e-15 0)
(3 5.414894892e-15 0)
(3 5.168458644e-15 0)
(3 4.786863046e-15 0)
(3 3.651744774e-15 0)
(3 1.219289183e-15 0)
(3 1.219289183e-15 0)
(3 2.390098257e-15 0)
(3 1.430852822e-15 0)
(3 -5.694786933e-16 0)
(3 -4.341247102e-15 0)
(3 -7.76848179e-15 0)
(3 -8.960260061e-15 0)
(3 -1.275484003e-14 0)
(3 -1.67284244e-14 0)
(3 -1.698567977e-14 0)
(3 -1.665621217e-14 0)
(3 -1.380492703e-14 0)
(3 -6.347574949e-15 0)
(3 4.053035133e-15 0)
(3 1.778603744e-14 0)
(3 3.770979457e-14 0)
(3 6.39002593e-14 0)
(3 1.406242323e-13 0)
(3 1.552430354e-13 0)
(3 1.897514541e-13 0)
(3 1.811379562e-13 0)
(3 2.999394512e-13 0)
(3 2.881763293e-13 0)
(3 -6.174003659e-11 0)
)
;
    }
}


// ************************************************************************* //
