/*--------------------------------*- C++ -*----------------------------------*\
  =========                 |
  \\      /  F ield         | OpenFOAM: The Open Source CFD Toolbox
   \\    /   O peration     | Website:  https://openfoam.org
    \\  /    A nd           | Version:  7
     \\/     M anipulation  |
\*---------------------------------------------------------------------------*/
FoamFile
{
    version     2.0;
    format      ascii;
    class       volVectorField;
    location    "4.5";
    object      U;
}
// * * * * * * * * * * * * * * * * * * * * * * * * * * * * * * * * * * * * * //

dimensions      [0 1 -1 0 0 0 0];

internalField   nonuniform List<vector> 
558
(
(3.069584857 -0.237504138 0)
(3.068928208 -0.2606525003 0)
(3.072625564 -0.273511347 0)
(3.072309386 -0.2760426948 0)
(3.080242228 -0.3062257717 0)
(3.081636018 -0.3211184709 0)
(3.08249331 -0.3223008034 0)
(3.081794969 -0.317661396 0)
(2.987958137 0.02469255646 0)
(2.999366372 -0.008465855583 0)
(3.011155797 -0.05025714297 0)
(3.02061595 -0.08487985837 0)
(3.030086979 -0.1050158553 0)
(3.036186051 -0.1298010804 0)
(3.042231619 -0.1613961494 0)
(3.050419053 -0.180099392 0)
(3.055327199 -0.1896880299 0)
(3.064804736 -0.2290213324 0)
(3.067183317 -0.2551995807 0)
(3.071983483 -0.2669658762 0)
(3.081179344 -0.2907932966 0)
(3.081045205 -0.3146780048 0)
(3.08147143 -0.3292751156 0)
(3.086807873 -0.3229144743 0)
(2.974367008 0.06466912144 0)
(2.986284097 0.03363351263 0)
(2.996433994 0.0006669837908 0)
(3.008438938 -0.04141300164 0)
(3.017810935 -0.06720605968 0)
(3.025062443 -0.08733695001 0)
(3.033952199 -0.1248536415 0)
(3.040775146 -0.1539978774 0)
(3.049705937 -0.1717624092 0)
(3.057525513 -0.1895253575 0)
(3.061058127 -0.2170637682 0)
(3.065544939 -0.2327391197 0)
(3.067092377 -0.2316034255 0)
(3.071278341 -0.259347034 0)
(3.073428787 -0.2848830468 0)
(3.077261508 -0.2889029747 0)
(2.961530917 0.1027087974 0)
(2.974051307 0.06948162831 0)
(2.984118356 0.04139061 0)
(2.996118566 0.003009052855 0)
(3.006802136 -0.03373685291 0)
(3.016641909 -0.05991116635 0)
(3.023777853 -0.08337194308 0)
(3.031981938 -0.1190222393 0)
(3.039124962 -0.1369648267 0)
(3.045184135 -0.1458598539 0)
(3.050759421 -0.1742271072 0)
(3.055745653 -0.2003324511 0)
(3.061526585 -0.2164667461 0)
(3.068901634 -0.2322594797 0)
(3.073833198 -0.2630623692 0)
(3.074391196 -0.2864649038 0)
(2.947256168 0.140309218 0)
(2.961323952 0.1049155908 0)
(2.97332628 0.07358694839 0)
(2.982841973 0.04591964657 0)
(2.994884237 0.006708158841 0)
(3.004205439 -0.02179280468 0)
(3.011858908 -0.04208690767 0)
(3.020133986 -0.07467357088 0)
(3.027832599 -0.1042715436 0)
(3.036261107 -0.1253832366 0)
(3.043164389 -0.1430868461 0)
(3.050269609 -0.1754668524 0)
(3.055463758 -0.1925747823 0)
(3.062177612 -0.1971602216 0)
(3.064701779 -0.2142071894 0)
(3.066290799 -0.2386119132 0)
(2.932744744 0.1711225952 0)
(2.947166244 0.1401894789 0)
(2.9604561 0.1082508547 0)
(2.972260953 0.07879044423 0)
(2.982902986 0.04682447649 0)
(2.994041226 0.009717388278 0)
(3.002245927 -0.01422273497 0)
(3.009329127 -0.03702977565 0)
(3.018494396 -0.07166647742 0)
(3.025666888 -0.09447222964 0)
(3.033708022 -0.1089351181 0)
(3.03956616 -0.1317281442 0)
(3.045508998 -0.1575963889 0)
(3.052166634 -0.172605505 0)
(3.057020694 -0.1823696749 0)
(3.064282744 -0.2138039109 0)
(2.920011194 0.1939130396 0)
(2.93309079 0.1698862126 0)
(2.948021616 0.1381689628 0)
(2.960230204 0.1104735168 0)
(2.970715374 0.08279428175 0)
(2.981743036 0.04901541159 0)
(2.991063852 0.01824262796 0)
(2.999599206 -0.005636061532 0)
(3.006025235 -0.02948528183 0)
(3.015435342 -0.06340711097 0)
(3.02303766 -0.08156098459 0)
(3.029520535 -0.09746991231 0)
(3.038353078 -0.1292694853 0)
(3.043861254 -0.1518023572 0)
(3.051576561 -0.1628924723 0)
(3.056606252 -0.1752873545 0)
(2.907251577 0.2161856675 0)
(2.919366886 0.1946766917 0)
(2.93338278 0.168298029 0)
(2.946804367 0.1400064235 0)
(2.959608825 0.1106274229 0)
(2.968937528 0.08597343497 0)
(2.980474251 0.05115708001 0)
(2.989505177 0.02412578128 0)
(2.996465689 0.002898202326 0)
(3.005717425 -0.02887728134 0)
(3.013409 -0.0557742308 0)
(3.021367276 -0.07363203239 0)
(3.026684891 -0.08956618394 0)
(3.035367692 -0.1214226526 0)
(3.041646796 -0.1376901277 0)
(3.046791599 -0.142986856 0)
(2.898754461 0.2326101761 0)
(2.908201183 0.2142316478 0)
(2.919602892 0.192992823 0)
(2.933446982 0.1664963355 0)
(2.946779072 0.1389607764 0)
(2.958015026 0.1136508552 0)
(2.96870177 0.08546057107 0)
(2.978969958 0.05518197368 0)
(2.987328174 0.03122776672 0)
(2.994373801 0.00882119306 0)
(3.003822098 -0.02351191216 0)
(3.011487336 -0.04728381922 0)
(3.017195095 -0.05908982846 0)
(3.024964188 -0.08561962086 0)
(3.032426731 -0.1126474053 0)
(3.039208104 -0.1291031382 0)
(2.895186609 0.2422773441 0)
(2.899470586 0.2311434217 0)
(2.908418944 0.2128804247 0)
(2.919141105 0.1929275666 0)
(2.932859732 0.1662549339 0)
(2.94529044 0.1408004845 0)
(2.956577549 0.115804899 0)
(2.968248521 0.086406024 0)
(2.978386067 0.05762244845 0)
(2.986248417 0.03629863279 0)
(2.9934052 0.01180062615 0)
(3.002614776 -0.01980799764 0)
(3.009256317 -0.03785058551 0)
(3.015197604 -0.05380456295 0)
(3.023561314 -0.08200210491 0)
(3.029993407 -0.1051100366 0)
(2.895605011 0.245254083 0)
(2.896373477 0.2412745931 0)
(2.900720799 0.2302536814 0)
(2.908758962 0.2128286894 0)
(2.920141829 0.1903969381 0)
(2.932541567 0.1656305604 0)
(2.945293193 0.1397888969 0)
(2.955791429 0.1172609322 0)
(2.96782924 0.08724112985 0)
(2.977314899 0.0625208731 0)
(2.984704666 0.04065831606 0)
(2.992998276 0.01326710843 0)
(3.000435015 -0.01157978857 0)
(3.007867658 -0.03044985179 0)
(3.011486653 -0.04494892981 0)
(3.020991159 -0.07680679097 0)
(2.898025096 0.2441175811 0)
(2.896571354 0.245503085 0)
(2.897498331 0.2404662637 0)
(2.901967993 0.2285866393 0)
(2.909448327 0.21192201 0)
(2.920033541 0.1900747196 0)
(2.932187234 0.1657954063 0)
(2.94396303 0.1417776852 0)
(2.955931821 0.1158277349 0)
(2.966215872 0.09130685135 0)
(2.976278227 0.06547438304 0)
(2.983539323 0.04449763578 0)
(2.992306318 0.01617188454 0)
(2.999977432 -0.006941100669 0)
(3.004784419 -0.02089321358 0)
(3.012185801 -0.04605210964 0)
(2.900988334 0.2501141983 0)
(2.897367478 0.24555209 0)
(2.897586075 0.2429580334 0)
(2.899085262 0.2393464759 0)
(2.903410558 0.2278292709 0)
(2.910533023 0.2106775892 0)
(2.920521495 0.1890376873 0)
(2.932276529 0.1647561972 0)
(2.943804479 0.141236612 0)
(2.955123221 0.1165983074 0)
(2.965986777 0.09158175483 0)
(2.974685663 0.07051357417 0)
(2.983011089 0.04616450673 0)
(2.991145197 0.02096652323 0)
(2.99810972 0.0007602686929 0)
(3.003259267 -0.01474518105 0)
(2.910435699 0.2242949904 0)
(2.901480168 0.2368625866 0)
(2.900821379 0.2403052567 0)
(2.898824696 0.2433777378 0)
(2.899891373 0.2380849493 0)
(2.904025956 0.2266948451 0)
(2.911696254 0.2088038642 0)
(2.920892053 0.1881901577 0)
(2.931624527 0.1652377995 0)
(2.942265901 0.1427524203 0)
(2.954340851 0.1170799285 0)
(2.964418981 0.09531767735 0)
(2.973698649 0.0729881817 0)
(2.982757338 0.04796389292 0)
(2.990402427 0.02426725254 0)
(2.997371239 0.006299438797 0)
(2.933137903 0.1697204617 0)
(2.911086076 0.218145962 0)
(2.904043295 0.2482079024 0)
(2.897294805 0.245390457 0)
(2.898761123 0.2410761151 0)
(2.901087178 0.2368970237 0)
(2.905838127 0.2256620411 0)
(2.912780717 0.2075496865 0)
(2.921290824 0.1869752333 0)
(2.931565365 0.164335466 0)
(2.943056344 0.1407050517 0)
(2.953361406 0.1186511706 0)
(2.963830424 0.09663256039 0)
(2.971814048 0.07723810103 0)
(2.98199118 0.04888927142 0)
(2.989198018 0.02998109221 0)
(2.96464341 0.1069039626 0)
(2.918480588 0.2206019129 0)
(2.905680863 0.2334690513 0)
(2.901175021 0.2354878643 0)
(2.902226539 0.2370423195 0)
(2.901434058 0.2406137805 0)
(2.902571837 0.2354383085 0)
(2.90609866 0.2238677383 0)
(2.912843157 0.2069537379 0)
(2.922227374 0.1858560395 0)
(2.931532651 0.1654523631 0)
(2.94272681 0.1402796845 0)
(2.95241754 0.1197263071 0)
(2.961302656 0.1010109108 0)
(2.971985438 0.07588242329 0)
(2.980315718 0.05290331178 0)
(2.982143532 0.05198974113 0)
(2.948599433 0.13723915 0)
(2.929097459 0.1755416313 0)
(2.912202228 0.2121067076 0)
(2.905363926 0.2404604505 0)
(2.901959425 0.2432770042 0)
(2.899418842 0.2393705529 0)
(2.9017016 0.2351267786 0)
(2.907455178 0.2238110774 0)
(2.914947097 0.2061156702 0)
(2.9230017 0.1856746211 0)
(2.932050283 0.164032028 0)
(2.94254511 0.1394455841 0)
(2.951893001 0.119350866 0)
(2.960048213 0.1027133685 0)
(2.970745149 0.07695728556 0)
(2.994943939 0.01380428437 0)
(2.973205486 0.06517635153 0)
(2.962218245 0.1073678504 0)
(2.921942629 0.2092711297 0)
(2.903192026 0.2455021982 0)
(2.898938337 0.237686917 0)
(2.901391205 0.2359760492 0)
(2.90280534 0.2373672859 0)
(2.905475151 0.2333409755 0)
(2.909415272 0.2215171834 0)
(2.915331226 0.204548825 0)
(2.922702395 0.1860773213 0)
(2.932459618 0.1630744631 0)
(2.94208516 0.1399101912 0)
(2.950812753 0.1208408223 0)
(2.958375078 0.1041187068 0)
(2.999007838 0.002627515306 0)
(2.992531142 0.01744133835 0)
(2.980975084 0.05452084325 0)
(2.950732113 0.1312233051 0)
(2.929595033 0.1777758022 0)
(2.91034527 0.2165976358 0)
(2.903824273 0.2292418869 0)
(2.905064447 0.2395078989 0)
(2.901814613 0.2372822318 0)
(2.903409983 0.2326743075 0)
(2.908316281 0.2224961205 0)
(2.916425204 0.2046368802 0)
(2.924108847 0.1855760028 0)
(2.93389611 0.1609520614 0)
(2.942432901 0.1386655955 0)
(2.949953977 0.121746442 0)
(2.999887853 0.0002917526563 0)
(2.998588644 0.003495850336 0)
(2.99481051 0.01422715451 0)
(2.974680051 0.0621085443 0)
(2.95442958 0.1159842775 0)
(2.929624885 0.1911100466 0)
(2.904888938 0.2478811789 0)
(2.898589335 0.2381968743 0)
(2.899412282 0.235025345 0)
(2.901244443 0.2350170181 0)
(2.905698043 0.2314954866 0)
(2.911769064 0.2196704808 0)
(2.918520206 0.2014418468 0)
(2.924260996 0.1853185807 0)
(2.933376732 0.1617099498 0)
(2.9425127 0.1384367624 0)
(2.999990718 2.415692681e-05 0)
(2.999849419 0.0003838577921 0)
(2.998947157 0.002817376479 0)
(2.992896114 0.01676746344 0)
(2.979303505 0.05500832251 0)
(2.949874322 0.1318078214 0)
(2.932532914 0.1797553125 0)
(2.915490036 0.2090487667 0)
(2.904216905 0.2276201148 0)
(2.901314946 0.2367820563 0)
(2.902200461 0.2344982384 0)
(2.904595236 0.229563114 0)
(2.909914852 0.2187441338 0)
(2.91682127 0.203812165 0)
(2.925302693 0.1844561464 0)
(2.934796203 0.1612696658 0)
(2.999999518 1.236060319e-06 0)
(2.999987614 3.225128477e-05 0)
(2.999884548 0.0003015619633 0)
(2.998609081 0.003448644858 0)
(2.9941602 0.01562855702 0)
(2.978605982 0.05322421613 0)
(2.947475186 0.1324421637 0)
(2.934942177 0.1769372978 0)
(2.91185722 0.2449254382 0)
(2.899720226 0.2352632255 0)
(2.898010208 0.2319531791 0)
(2.899653483 0.2321710183 0)
(2.903915713 0.2289562991 0)
(2.910909469 0.217860935 0)
(2.919382373 0.2006568682 0)
(2.927088208 0.183013259 0)
(2.999999981 4.909785635e-08 0)
(2.999999381 1.588926898e-06 0)
(2.999990181 2.567786945e-05 0)
(2.999848189 0.0003852182761 0)
(2.998900485 0.002938296679 0)
(2.993258809 0.01655519715 0)
(2.978849686 0.05245244637 0)
(2.950213621 0.1306413903 0)
(2.929210977 0.1963934366 0)
(2.920627264 0.2016823791 0)
(2.905369103 0.2248143793 0)
(2.900409647 0.234094735 0)
(2.900897319 0.2321330437 0)
(2.903775316 0.2273803239 0)
(2.910270261 0.2159771378 0)
(2.917968177 0.2013513905 0)
(2.999999999 1.334278509e-09 0)
(2.999999976 6.224501076e-08 0)
(2.999999505 1.272934569e-06 0)
(2.999987318 3.298076996e-05 0)
(2.999873294 0.0003341193356 0)
(2.998792578 0.002981116436 0)
(2.993177369 0.01779109488 0)
(2.982292787 0.04711850523 0)
(2.945761491 0.1373999616 0)
(2.93696893 0.1692708103 0)
(2.913750092 0.2395965581 0)
(2.903429321 0.2367318507 0)
(2.899016849 0.2304812516 0)
(2.899896517 0.2301111124 0)
(2.903345018 0.22655084 0)
(2.909851903 0.2153995819 0)
(3 2.97599859e-11 0)
(2.999999999 1.526164864e-09 0)
(2.99999998 5.1649012e-08 0)
(2.99999936 1.643463927e-06 0)
(2.999989829 2.655431869e-05 0)
(2.999844792 0.0003921940988 0)
(2.998899344 0.00287620222 0)
(2.993843257 0.01641036508 0)
(2.977584841 0.05459961073 0)
(2.956516383 0.1150072459 0)
(2.924868538 0.2076584284 0)
(2.922320045 0.2058223266 0)
(2.905954836 0.2245978157 0)
(2.902424737 0.2322155378 0)
(2.901661859 0.2309471961 0)
(2.903405929 0.2257684646 0)
(3 4.636968997e-13 0)
(3 2.954088712e-11 0)
(2.999999999 1.330556983e-09 0)
(2.999999975 6.493765379e-08 0)
(2.999999461 1.386418861e-06 0)
(2.999987812 3.096536335e-05 0)
(2.99985117 0.0003983162868 0)
(2.9990144 0.002532697752 0)
(2.992791291 0.018366036 0)
(2.982401199 0.04760320594 0)
(2.945605756 0.1369610751 0)
(2.941240941 0.1656885135 0)
(2.913682869 0.2300063508 0)
(2.907166662 0.2352148734 0)
(2.901796404 0.2307864201 0)
(2.9017147 0.2286276668 0)
(3 3.724646052e-13 0)
(3 2.955736985e-11 0)
(2.999999999 1.636881893e-09 0)
(2.999999979 5.327891596e-08 0)
(2.999999297 1.809726128e-06 0)
(2.999989512 2.76796974e-05 0)
(2.99985149 0.0003852349801 0)
(2.998848384 0.002941639972 0)
(2.994471569 0.01506844151 0)
(2.974605095 0.06101763315 0)
(2.962829918 0.1091695855 0)
(2.925251607 0.2053732462 0)
(2.921036989 0.2047602925 0)
(2.906086654 0.224115804 0)
(2.903991894 0.2295092833 0)
(3 2.963208714e-14 0)
(3 4.495803749e-13 0)
(3 3.214729542e-11 0)
(2.999999999 1.412567093e-09 0)
(2.999999975 6.501443393e-08 0)
(2.999999388 1.621877971e-06 0)
(2.999989022 2.773610451e-05 0)
(2.999837583 0.0004317167784 0)
(2.999041307 0.00254250107 0)
(2.992673931 0.01792064146 0)
(2.982786548 0.0490576583 0)
(2.946503498 0.1369973967 0)
(2.93995757 0.1594346166 0)
(2.912912829 0.2183923721 0)
(2.907930652 0.2333555208 0)
(3 2.332628194e-14 0)
(3 2.631707781e-14 0)
(3 4.02697551e-13 0)
(3 2.738062275e-11 0)
(2.999999999 1.758520848e-09 0)
(2.99999998 5.211844282e-08 0)
(2.999999273 1.884494824e-06 0)
(2.999988483 3.045255945e-05 0)
(2.99986571 0.0003515387274 0)
(2.99872541 0.003207109519 0)
(2.994861763 0.01394741751 0)
(2.974054448 0.06117626916 0)
(2.963641143 0.1074017481 0)
(2.924457245 0.2086407138 0)
(2.919758002 0.2070664495 0)
(3 1.877473468e-14 0)
(3 1.917597877e-14 0)
(3 2.020713531e-14 0)
(3 4.022071028e-13 0)
(3 3.095062815e-11 0)
(2.999999999 1.481380591e-09 0)
(2.999999975 6.411563496e-08 0)
(2.999999303 1.878071169e-06 0)
(2.999989514 2.666557229e-05 0)
(2.999839393 0.0004131314865 0)
(2.999012813 0.00259205957 0)
(2.992478828 0.01775287944 0)
(2.982699697 0.04982148197 0)
(2.949321391 0.1347933455 0)
(2.935186036 0.165034414 0)
(3 1.495207611e-14 0)
(3 1.513787234e-14 0)
(3 1.619632572e-14 0)
(3 3.077015318e-14 0)
(3 4.736550521e-13 0)
(3 2.580320476e-11 0)
(2.999999999 1.933385321e-09 0)
(2.999999978 5.752819863e-08 0)
(2.99999932 1.740677207e-06 0)
(2.999987219 3.28445904e-05 0)
(2.999872927 0.000327818561 0)
(2.998647297 0.003366507876 0)
(2.99479851 0.01426833154 0)
(2.974573229 0.06159762471 0)
(2.964677916 0.1021076744 0)
(3 5.04735449e-15 0)
(3 1.268852353e-14 0)
(3 1.512557118e-14 0)
(3 1.698711797e-14 0)
(3 1.659723505e-14 0)
(3 4.033685537e-13 0)
(3 3.161127687e-11 0)
(2.999999999 1.570680801e-09 0)
(2.999999975 6.404233875e-08 0)
(2.99999924 1.980944944e-06 0)
(2.999989185 2.772138757e-05 0)
(2.999840767 0.0004102523021 0)
(2.998990949 0.00266947607 0)
(2.99275512 0.01705848609 0)
(2.981497177 0.05178889251 0)
(3 6.65645067e-17 0)
(3 9.040455008e-15 0)
(3 1.896729847e-14 0)
(3 1.840180196e-14 0)
(3 1.659494074e-14 0)
(3 1.139659161e-14 0)
(3 4.793099831e-13 0)
(3 2.511502496e-11 0)
(2.999999999 2.007372616e-09 0)
(2.999999973 7.077879121e-08 0)
(2.999999352 1.659268201e-06 0)
(2.999986963 3.374876067e-05 0)
(2.999876213 0.0003184804773 0)
(2.998636935 0.003370855646 0)
(2.994837237 0.01381710222 0)
(3 1.598895434e-15 0)
(3 2.353097108e-15 0)
(3 1.517597308e-14 0)
(3 1.872857391e-14 0)
(3 1.617335482e-14 0)
(3 8.611813202e-15 0)
(3 9.347874362e-15 0)
(3 4.16943775e-13 0)
(3 3.580920507e-11 0)
(2.999999999 1.841781084e-09 0)
(2.999999974 6.538412118e-08 0)
(2.999999261 1.892019172e-06 0)
(2.999988994 2.801292702e-05 0)
(2.999846591 0.0003909748856 0)
(2.998902664 0.002897905517 0)
(3 3.076779868e-15 0)
(3 2.798379108e-15 0)
(3 6.962404688e-15 0)
(3 1.159869382e-14 0)
(3 8.591875527e-15 0)
(3 5.296025887e-15 0)
(3 3.711160662e-15 0)
(3 6.041317103e-15 0)
(3 5.289427918e-13 0)
(3 2.842520124e-11 0)
(2.999999999 1.925907525e-09 0)
(2.999999971 7.486224144e-08 0)
(2.999999345 1.672770518e-06 0)
(2.999987182 3.381540909e-05 0)
(2.99986922 0.0003426135483 0)
(3 3.120283071e-15 0)
(3 3.592917519e-15 0)
(3 4.120846236e-15 0)
(3 6.197460477e-15 0)
(3 2.245821694e-15 0)
(3 3.701987474e-15 0)
(3 2.504386851e-15 0)
(3 8.687174608e-16 0)
(3 2.474304905e-15 0)
(3 1.904131634e-13 0)
(3 2.059104774e-11 0)
(2.999999999 1.173269353e-09 0)
(2.999999964 3.939487976e-08 0)
(2.999999042 1.068684402e-06 0)
(2.999984814 1.641477187e-05 0)
)
;

boundaryField
{
    inlet
    {
        type            fixedValue;
        value           nonuniform 0();
    }
    outlet
    {
        type            inletOutlet;
        inletValue      nonuniform 0();
        value           nonuniform 0();
    }
    bottom
    {
        type            slip;
    }
    top
    {
        type            slip;
    }
    obstacle
    {
        type            slip;
    }
    defaultFaces
    {
        type            empty;
    }
    procBoundary34to27
    {
        type            processor;
        value           nonuniform List<vector> 4((2.975411959 0.05894151926 0) (2.960450526 0.1028945193 0) (2.946244439 0.141078446 0) (2.933050003 0.171126468 0));
    }
    procBoundary34to28
    {
        type            processor;
        value           nonuniform List<vector> 
17
(
(3.077236435 -0.2882378359 0)
(3.078152126 -0.3119916447 0)
(3.084183638 -0.3155336409 0)
(3.089239095 -0.3360966747 0)
(3.086893623 -0.3381666466 0)
(3.085619749 -0.3332996518 0)
(3.079950951 -0.3126549052 0)
(3.06844494 -0.2612239756 0)
(3.000738893 -0.01412741144 0)
(3.011698546 -0.05189494293 0)
(3.022407448 -0.09202535676 0)
(3.031206963 -0.1166932804 0)
(3.037984069 -0.1405530891 0)
(3.048545894 -0.1841294978 0)
(3.054590943 -0.2111874828 0)
(3.064734046 -0.2216852025 0)
(3.064734046 -0.2216852025 0)
)
;
    }
    procBoundary34to29
    {
        type            processor;
        value           uniform (3.072847695 -0.2896995231 0);
    }
    procBoundary34to33
    {
        type            processor;
        value           nonuniform List<vector> 
32
(
(2.919384918 0.1962584598 0)
(2.906980748 0.2174017149 0)
(2.897953963 0.2330351897 0)
(2.893663409 0.2433193206 0)
(2.89428474 0.247282966 0)
(2.896168295 0.2463149923 0)
(2.900265672 0.2388134991 0)
(2.907764656 0.2274582427 0)
(2.917451285 0.2234197433 0)
(2.946656569 0.1404716342 0)
(2.973291288 0.06403830622 0)
(2.992493207 0.01754261242 0)
(2.998654377 0.00331678657 0)
(2.999851763 0.0003773614765 0)
(2.999988228 3.047145318e-05 0)
(2.999999392 1.57088532e-06 0)
(2.999999978 5.809596276e-08 0)
(2.999999999 1.41710804e-09 0)
(3 2.480710146e-11 0)
(3 3.156812117e-13 0)
(3 2.035105827e-14 0)
(3 2.673746629e-14 0)
(3 2.673746629e-14 0)
(3 2.342702007e-14 0)
(3 1.717320839e-14 0)
(3 1.141232577e-14 0)
(3 8.567953317e-15 0)
(3 2.089268867e-15 0)
(3 -1.005752401e-15 0)
(3 1.465018182e-15 0)
(3 1.527292966e-15 0)
(3 2.283236051e-15 0)
)
;
    }
    procBoundary34to35
    {
        type            processor;
        value           nonuniform List<vector> 
35
(
(3.084742374 -0.3168382804 0)
(3.080944371 -0.3025807117 0)
(3.078860744 -0.2929397072 0)
(3.070265211 -0.2554323116 0)
(3.066262971 -0.2368417941 0)
(3.059749848 -0.1999604546 0)
(3.052424012 -0.1669203673 0)
(3.044298888 -0.136609993 0)
(3.036723238 -0.1140541348 0)
(3.02729902 -0.09450201357 0)
(3.018852969 -0.06971057669 0)
(3.009529908 -0.03865783833 0)
(3.001095221 -0.009249315038 0)
(2.994767887 0.01420699089 0)
(2.988202685 0.0325069967 0)
(2.979543803 0.05338755441 0)
(2.970183775 0.07661940417 0)
(2.958080588 0.1041297251 0)
(2.949013021 0.124364541 0)
(2.943142707 0.1386755825 0)
(2.935925133 0.1603114946 0)
(2.926086679 0.1839846893 0)
(2.918012846 0.2000147266 0)
(2.9092127 0.2145714817 0)
(2.903844463 0.2254497616 0)
(2.903715694 0.2299324838 0)
(2.904946104 0.2296511552 0)
(2.908159197 0.2208537054 0)
(2.917164462 0.204797869 0)
(2.923364792 0.2042080262 0)
(2.952579744 0.1245475264 0)
(2.974784665 0.06184140301 0)
(2.993378131 0.01589119293 0)
(2.998794171 0.003165523591 0)
(2.999799757 0.0002227147335 0)
)
;
    }
}


// ************************************************************************* //
