/*--------------------------------*- C++ -*----------------------------------*\
  =========                 |
  \\      /  F ield         | OpenFOAM: The Open Source CFD Toolbox
   \\    /   O peration     | Website:  https://openfoam.org
    \\  /    A nd           | Version:  7
     \\/     M anipulation  |
\*---------------------------------------------------------------------------*/
FoamFile
{
    version     2.0;
    format      ascii;
    class       volVectorField;
    location    "3.9";
    object      U;
}
// * * * * * * * * * * * * * * * * * * * * * * * * * * * * * * * * * * * * * //

dimensions      [0 1 -1 0 0 0 0];

internalField   nonuniform List<vector> 
143
(
(3 -6.777712565e-15 0)
(3 -5.248254876e-15 0)
(3 -3.965949309e-15 0)
(3 -1.862211491e-15 0)
(3 -5.873649258e-16 0)
(3 1.234253705e-15 0)
(3 2.123576462e-15 0)
(3 3.153664586e-15 0)
(3 5.399544832e-15 0)
(3 7.012337464e-15 0)
(3 8.887659054e-15 0)
(3 9.511724779e-15 0)
(3 9.690327852e-15 0)
(3 5.911101162e-15 0)
(3 4.284383579e-15 0)
(3 -2.205550593e-15 0)
(3 -2.39510918e-15 0)
(3 -1.167710305e-15 0)
(3 -1.456831034e-15 0)
(3 2.164094659e-16 0)
(3 3.414892597e-15 0)
(3 4.564116146e-15 0)
(3 4.517245487e-15 0)
(3 4.659369566e-15 0)
(3 4.153903124e-15 0)
(3 3.522295077e-15 0)
(3 2.98062469e-15 0)
(3 3.123324306e-15 0)
(3 2.663902836e-15 0)
(3 2.078692099e-15 0)
(3 2.189790213e-15 0)
(3 -3.132690817e-15 0)
(3 -4.030139231e-15 0)
(3 -4.219115905e-15 0)
(3 -9.324335731e-16 0)
(3 4.148224656e-15 0)
(3 5.085922353e-15 0)
(3 4.770659861e-15 0)
(3 3.875782595e-15 0)
(3 4.065207491e-15 0)
(3 3.528651682e-15 0)
(3 1.327342243e-15 0)
(3 -7.744099716e-16 0)
(3 -2.792772471e-15 0)
(3 -3.497067548e-15 0)
(3 -1.501832737e-16 0)
(3 2.889744475e-16 0)
(3 5.153699093e-16 0)
(3 2.879453961e-15 0)
(3 3.894098995e-15 0)
(3 3.485471477e-15 0)
(3 3.487222432e-15 0)
(3 4.177997077e-15 0)
(3 3.995257318e-15 0)
(3 2.107080994e-15 0)
(3 1.44332784e-16 0)
(3 -5.3192286e-16 0)
(3 4.951927184e-16 0)
(3 8.7553822e-16 0)
(3 8.823789696e-16 0)
(3 7.711709281e-16 0)
(3 8.168797424e-16 0)
(3 9.275590496e-16 0)
(3 1.123230714e-15 0)
(3 4.635946758e-15 0)
(3 4.99817241e-15 0)
(3 4.353078741e-15 0)
(3 2.052561885e-15 0)
(3 2.661286156e-16 0)
(3 -1.90832708e-17 0)
(3 -5.105638649e-17 0)
(3 2.225870816e-16 0)
(3 8.306077149e-16 0)
(3 1.18628613e-15 0)
(3 4.957643301e-16 0)
(3 1.012162153e-15 0)
(3 3.059583898e-15 0)
(3 4.245634194e-15 0)
(3 3.391414489e-15 0)
(3 2.455189269e-15 0)
(3 3.264926627e-15 0)
(3 2.744799489e-15 0)
(3 4.464331453e-15 0)
(3 8.326654842e-16 0)
(3 -2.804639859e-15 0)
(3 -2.612666114e-15 0)
(3 -9.521391705e-16 0)
(3 6.727525801e-16 0)
(3 2.092606741e-15 0)
(3 2.136433505e-15 0)
(3 2.097636231e-15 0)
(3 1.447390166e-15 0)
(3 1.569802723e-15 0)
(3 2.34914805e-15 0)
(3 2.770148941e-15 0)
(3 7.394937365e-15 0)
(3 5.129416946e-15 0)
(3 2.478531725e-15 0)
(3 1.902884638e-15 0)
(3 1.464877324e-15 0)
(3 5.638436102e-16 0)
(3 2.999824819e-16 0)
(3 3.668448131e-17 0)
(3 -1.276213607e-15 0)
(3 -3.784417073e-15 0)
(3 -3.904482458e-15 0)
(3 -3.568565107e-15 0)
(3 -4.157915898e-15 0)
(3 -3.821738523e-15 0)
(3 -2.30621249e-15 0)
(3 -1.061916004e-15 0)
(3 1.000262456e-14 0)
(3 8.290373393e-15 0)
(3 7.045570119e-15 0)
(3 6.188389151e-15 0)
(3 3.582347812e-15 0)
(3 -3.94190156e-16 0)
(3 -3.165813115e-15 0)
(3 -5.340511749e-15 0)
(3 -6.492120888e-15 0)
(3 -8.940531038e-15 0)
(3 -9.696481989e-15 0)
(3 -9.718874451e-15 0)
(3 -8.092621718e-15 0)
(3 -5.618209478e-15 0)
(3 -2.568675702e-15 0)
(3 -1.173389968e-15 0)
(3 6.81171966e-15 0)
(3 6.302720544e-15 0)
(3 6.084907007e-15 0)
(3 5.531595215e-15 0)
(3 2.85462499e-15 0)
(3 1.253877013e-15 0)
(3 -5.435253821e-16 0)
(3 -1.678399838e-15 0)
(3 -3.258398573e-15 0)
(3 -4.064136751e-15 0)
(3 -5.647048723e-15 0)
(3 -5.520492029e-15 0)
(3 -4.393472787e-15 0)
(3 -3.133723734e-15 0)
(3 -1.085198433e-15 0)
(3 -1.945612743e-16 0)
)
;

boundaryField
{
    inlet
    {
        type            fixedValue;
        value           nonuniform 0();
    }
    outlet
    {
        type            inletOutlet;
        inletValue      nonuniform 0();
        value           nonuniform 0();
    }
    bottom
    {
        type            slip;
    }
    top
    {
        type            slip;
    }
    obstacle
    {
        type            slip;
    }
    defaultFaces
    {
        type            empty;
    }
    procBoundary32to26
    {
        type            processor;
        value           nonuniform List<vector> 
17
(
(3 -8.455959071e-15 0)
(3 -5.891088711e-15 0)
(3 -3.045851149e-15 0)
(3 -6.971371541e-16 0)
(3 5.247683576e-16 0)
(3 3.527959516e-15 0)
(3 5.891565195e-15 0)
(3 7.48443476e-15 0)
(3 1.159839713e-14 0)
(3 1.255723105e-14 0)
(3 1.28118472e-14 0)
(3 1.40671994e-14 0)
(3 1.525783857e-14 0)
(3 1.359834071e-14 0)
(3 1.043818104e-14 0)
(3 -7.36973963e-15 0)
(3 -7.36973963e-15 0)
)
;
    }
    procBoundary32to31
    {
        type            processor;
        value           nonuniform List<vector> 8((3 -5.445884705e-16 0) (3 -1.311926754e-15 0) (3 2.521596098e-16 0) (3 -1.464929727e-15 0) (3 6.051542569e-16 0) (3 7.104897007e-15 0) (3 1.082037102e-14 0) (3 7.346749658e-15 0));
    }
    procBoundary32to33
    {
        type            processor;
        value           nonuniform List<vector> 9((3 -4.302447045e-14 0) (3 -2.379630412e-15 0) (3 1.835709792e-15 0) (3 3.956926506e-15 0) (3 4.348730986e-15 0) (3 1.56081612e-15 0) (3 -6.580340083e-16 0) (3 -4.553970781e-16 0) (3 5.940469908e-16 0));
    }
}


// ************************************************************************* //
