/*--------------------------------*- C++ -*----------------------------------*\
  =========                 |
  \\      /  F ield         | OpenFOAM: The Open Source CFD Toolbox
   \\    /   O peration     | Website:  https://openfoam.org
    \\  /    A nd           | Version:  7
     \\/     M anipulation  |
\*---------------------------------------------------------------------------*/
FoamFile
{
    version     2.0;
    format      ascii;
    class       volScalarField;
    location    "3.1";
    object      T;
}
// * * * * * * * * * * * * * * * * * * * * * * * * * * * * * * * * * * * * * //

dimensions      [0 0 0 1 0 0 0];

internalField   nonuniform List<scalar> 
555
(
0.8685310718
0.9241346987
0.9784976709
0.9994012195
1.002860699
1.005898264
1.003877759
1.001812698
0.9141541246
0.8980988868
0.8842383505
0.862845048
0.834954385
0.8184382851
0.8189731239
0.8243694471
0.8376510656
0.8617837241
0.9081760575
0.9676802538
0.9955178984
1.00271435
1.006605426
1.005270655
1.002868563
0.9159521676
0.8985262924
0.8838579272
0.8624042165
0.8349082372
0.8176031824
0.817745486
0.8226422536
0.8346916428
0.8561267514
0.8980341458
0.9565528158
0.9917888167
1.003092296
1.007283658
1.006498957
1.003630512
0.9178311197
0.89917765
0.8834409034
0.8616131667
0.8348466653
0.8167238897
0.8165970155
0.8216038886
0.833300714
0.8515056998
0.8876000287
0.9445867167
0.9881618731
1.00295348
1.007668552
1.007268085
1.003683842
0.9197126423
0.8999853577
0.8827911992
0.8605682064
0.8346781995
0.8159409274
0.8158799232
0.8211547636
0.8324059597
0.8478369528
0.8747148724
0.9295940031
0.9795002511
1.000532551
1.00803638
1.007759793
1.003741223
1.008068943
0.9214070163
0.9014515041
0.8814945893
0.859103561
0.8344795845
0.8153470621
0.8152379086
0.8206671725
0.8311496484
0.8441567539
0.8665282706
0.9122839808
0.9687328696
0.9978286927
1.008279282
1.008555908
1.003758559
1.008338603
0.9226214365
0.9038503432
0.8799965336
0.8572128428
0.8342312191
0.8151740521
0.8143220225
0.8197798819
0.8301614182
0.8421333304
0.8611720953
0.9017804522
0.9569542064
0.9947870031
1.008711917
1.00982244
1.004236997
1.009298982
0.9231058715
0.9065434414
0.8783152649
0.8551323082
0.8343809509
0.8151561772
0.8135978031
0.8191936137
0.8297803007
0.8409472333
0.855773003
0.8939766714
0.9481244293
0.992291033
1.009374256
1.011567449
1.005180773
1.010622362
0.9220368118
0.9103586529
0.8730748006
0.8524022279
0.8342677693
0.8152403469
0.8129516634
0.8189032514
0.8296546102
0.839702369
0.8512239383
0.8804123073
0.9418086829
0.9903634208
1.010279715
1.013537818
1.006185682
1.012168083
0.9186823672
0.9148629523
0.8682732735
0.8498109467
0.8341624181
0.8154700031
0.8130762301
0.8185351476
0.8293827819
0.838344635
0.8474826591
0.868773849
0.9265421384
0.9832851341
1.009785366
1.015280662
1.006834311
1.013235472
0.9125757137
0.9181694458
0.8609497709
0.8483536309
0.8344993021
0.8169477192
0.8130534706
0.818100379
0.8293032346
0.8375895033
0.8453628966
0.8629892573
0.9089292666
0.9723377492
1.009586825
1.016155112
1.007018393
1.013830639
0.9102185309
0.9192789994
0.8501791876
0.8427793644
0.8351182144
0.8188853733
0.8141304634
0.8175921957
0.8289984798
0.8365968606
0.8430090437
0.8560537122
0.8916886022
0.9555844203
1.006211434
1.015768242
1.006441776
1.013414057
1.049524579
0.9060835456
0.8347527332
0.8344650575
0.8332893409
0.8292285741
0.8234752053
0.8254467861
0.8288004076
0.8342099107
0.8389949309
0.8448545243
0.860437351
0.9048421437
0.9675819022
0.9869015733
1.000067505
1.013710284
1.101723851
1.04362214
0.9704249934
0.9168568974
0.871276264
0.8475468861
0.8440383935
0.844696136
0.8457022704
0.846512655
0.844395718
0.843337941
0.8443590899
0.8512146079
0.8761581826
0.9283755222
0.9772236132
1.001412298
1.113036716
1.094946843
1.049469734
0.9914485981
0.9340327982
0.8972919566
0.8841544012
0.87600023
0.8660899711
0.8537681615
0.8442197281
0.8401420522
0.842741416
0.8452506341
0.8466577113
0.8607989041
0.898883787
0.9483818225
1.113853189
1.109693788
1.091532296
1.051619425
1.007349353
0.9634612431
0.9238436705
0.8962918999
0.8782707909
0.8627595407
0.8513015401
0.8486595657
0.8502428713
0.8488019299
0.8449400945
0.8445402394
0.8501026975
0.8735823004
1.114304208
1.112844685
1.106866855
1.088441786
1.0546413
1.012883211
0.9756981551
0.9333053771
0.9037406448
0.8976391325
0.8842682967
0.8665839194
0.8566510433
0.8517094708
0.844987171
0.8441957725
0.8459512764
0.8475385186
1.115707192
1.114315194
1.111990307
1.104496617
1.086193164
1.054587637
1.020868441
0.9880415498
0.9496334787
0.9249688616
0.9087716615
0.8870847067
0.8655619494
0.8655142775
0.861876363
0.8546685148
0.8520719997
0.8494127072
1.11707302
1.115979626
1.114385879
1.110691789
1.101817993
1.084203413
1.05562803
1.026161094
0.9949565531
0.9569469766
0.9367988468
0.9247394162
0.9024123252
0.8890577126
0.8802552847
0.8657417458
0.8556683372
0.8538666314
1.119444201
1.118705958
1.116989798
1.114307263
1.109743862
1.100411092
1.083028079
1.057108417
1.031438095
1.000696487
0.9692074209
0.9530111446
0.9330902764
0.9090057479
0.8973526147
0.8871242098
0.8724157569
0.8700634441
1.119541441
1.118807131
1.116592428
1.115610407
1.113668441
1.108878558
1.099104782
1.081440017
1.058459358
1.034414932
1.005686032
0.9792217797
0.9598286244
0.9382391677
0.9228404591
0.9141667217
0.8986965931
0.8845994217
1.113245233
1.115332336
1.116111119
1.116854681
1.116132797
1.113453176
1.107788603
1.097513474
1.080677217
1.05972256
1.037118844
1.010836061
0.9890242083
0.9689571268
0.947704794
0.9323434879
0.9176943051
0.9004999581
1.096953666
1.112359559
1.116568812
1.117922595
1.117469846
1.115879789
1.112706248
1.106784094
1.096411235
1.080508034
1.061002565
1.038357303
1.015411265
0.9943541368
0.9737026042
0.9557136664
0.9422920084
0.9281008273
1.050774763
1.087710833
1.107962642
1.117255594
1.117165411
1.116748041
1.115662948
1.112472967
1.106053345
1.095307392
1.080091867
1.061253831
1.040613727
1.019498756
0.9992784758
0.9804624398
0.9645000295
0.9493466945
1.01127612
1.050999929
1.094151534
1.114454376
1.116305632
1.117374938
1.117039659
1.115693075
1.112154922
1.105319678
1.094491116
1.079463822
1.061735395
1.042531291
1.022870695
1.003194839
0.9856562973
0.9693501734
1.00098138
1.017158908
1.053587732
1.087612268
1.105726212
1.116386074
1.116978793
1.11648829
1.115136293
1.111635063
1.104718069
1.093809066
1.079187737
1.062112232
1.044349017
1.025005884
1.007575334
0.9914024797
1.000035459
1.003202292
1.017298968
1.051333331
1.093078414
1.112231048
1.115961402
1.116865162
1.11662445
1.115175484
1.111366617
1.104252462
1.093296536
1.078800389
1.062918621
1.045257074
1.027031878
1.010893784
1.000000603
1.000350658
1.00319057
1.020041898
1.055206526
1.084716885
1.105290829
1.116090191
1.116199023
1.115692014
1.114458778
1.110742057
1.103468326
1.092314158
1.078326361
1.063181278
1.046138163
1.029128154
1.000000005
1.000023553
1.000359793
1.004744299
1.019302046
1.052743835
1.092160567
1.110883667
1.113574797
1.114865766
1.115148811
1.113799925
1.109824236
1.102355209
1.091219879
1.077749372
1.063314864
1.046601918
1
1.000000965
1.000026277
1.000669302
1.004241008
1.022294993
1.054952953
1.083220605
1.106497624
1.115041762
1.114819635
1.114243986
1.112949067
1.108988182
1.101285654
1.090210869
1.077533425
1.062874044
1
1.000000024
1.00000126
1.000058957
1.000584125
1.005789729
1.020545708
1.054085395
1.090655525
1.108718499
1.11139304
1.113233309
1.113924572
1.112520672
1.108218949
1.100432913
1.089552373
1.077151349
1
1
1.000000042
1.000003178
1.000053019
1.000901681
1.004892961
1.023650283
1.05494038
1.082808132
)
;

boundaryField
{
    inlet
    {
        type            fixedValue;
        value           nonuniform 0();
    }
    outlet
    {
        type            inletOutlet;
        inletValue      nonuniform 0();
        value           nonuniform 0();
    }
    bottom
    {
        type            slip;
    }
    top
    {
        type            slip;
    }
    obstacle
    {
        type            zeroGradient;
    }
    defaultFaces
    {
        type            empty;
    }
    procBoundary27to20
    {
        type            processor;
        value           nonuniform List<scalar> 
16
(
1.116675119
1.114977597
1.114091033
1.11423495
1.115268179
1.11814911
1.117637641
1.118311569
1.117469189
1.101081601
1.066336995
1.019262237
1.001392693
1.000005723
0.9999999963
0.9999999987
)
;
    }
    procBoundary27to21
    {
        type            processor;
        value           nonuniform List<scalar> 
18
(
0.8782822013
0.9372977083
0.9817334633
0.9995801848
1.003493546
1.005167238
1.002447907
1.000507426
0.9124359876
0.8978673221
0.8846895336
0.8635336177
0.8350799004
0.8196323223
0.8200479337
0.825421351
0.8401693748
0.8401693748
)
;
    }
    procBoundary27to26
    {
        type            processor;
        value           nonuniform List<scalar> 4(0.9999999999 1 1 1);
    }
    procBoundary27to28
    {
        type            processor;
        value           nonuniform List<scalar> 
28
(
1.004520919
1.005975213
1.006972006
1.007547013
1.007547013
1.006773604
1.006824655
1.007787421
1.009441355
1.01115168
1.012133387
1.012409702
1.011922005
1.011449232
1.00572805
0.9830100797
0.9209180063
0.8600309675
0.847943434
0.8507083336
0.865996739
0.8780018555
0.8933219072
0.913643481
0.9327028397
0.9540586356
0.9751112598
0.9951644559
)
;
    }
    procBoundary27to33
    {
        type            processor;
        value           nonuniform List<scalar> 
19
(
1.105522962
1.113705696
1.113590551
1.113225798
1.111959805
1.107699864
1.099719159
1.088951372
1
1
1.000000001
1.000000107
1.000003124
1.000087005
1.000732572
1.006354761
1.021167426
1.105522962
1.054167289
)
;
    }
    procBoundary27to34
    {
        type            processor;
        value           nonuniform List<scalar> 4(1.014145237 1.031552091 1.047768137 1.062818858);
    }
}


// ************************************************************************* //
