/*--------------------------------*- C++ -*----------------------------------*\
  =========                 |
  \\      /  F ield         | OpenFOAM: The Open Source CFD Toolbox
   \\    /   O peration     | Website:  https://openfoam.org
    \\  /    A nd           | Version:  7
     \\/     M anipulation  |
\*---------------------------------------------------------------------------*/
FoamFile
{
    version     2.0;
    format      ascii;
    class       volScalarField;
    location    "1.9";
    object      T;
}
// * * * * * * * * * * * * * * * * * * * * * * * * * * * * * * * * * * * * * //

dimensions      [0 0 0 1 0 0 0];

internalField   nonuniform List<scalar> 8(1.027991512 1.017297566 1.017144631 1.016926165 1.004246428 1.011886353 1.000428927 1.0059114);

boundaryField
{
    inlet
    {
        type            fixedValue;
        value           nonuniform 0();
    }
    outlet
    {
        type            inletOutlet;
        inletValue      nonuniform 0();
        value           nonuniform 0();
    }
    bottom
    {
        type            slip;
    }
    top
    {
        type            slip;
    }
    obstacle
    {
        type            zeroGradient;
    }
    defaultFaces
    {
        type            empty;
    }
    procBoundary33to26
    {
        type            processor;
        value           uniform 1.027199893;
    }
    procBoundary33to27
    {
        type            processor;
        value           nonuniform List<scalar> 2(1.052652063 0.9933109797);
    }
    procBoundary33to32
    {
        type            processor;
        value           nonuniform List<scalar> 3(1.00168654 1.000009107 1.000000035);
    }
    procBoundary33to34
    {
        type            processor;
        value           nonuniform List<scalar> 4(0.9952633201 1.010382019 1.014370276 1.015208581);
    }
}


// ************************************************************************* //
