/*--------------------------------*- C++ -*----------------------------------*\
  =========                 |
  \\      /  F ield         | OpenFOAM: The Open Source CFD Toolbox
   \\    /   O peration     | Website:  https://openfoam.org
    \\  /    A nd           | Version:  7
     \\/     M anipulation  |
\*---------------------------------------------------------------------------*/
FoamFile
{
    version     2.0;
    format      ascii;
    class       volScalarField;
    location    "3";
    object      rho;
}
// * * * * * * * * * * * * * * * * * * * * * * * * * * * * * * * * * * * * * //

dimensions      [1 -3 0 0 0 0 0];

internalField   nonuniform List<scalar> 
2222
(
2.229080512
2.14896617
2.077346461
2.012041812
1.943248055
1.873551886
1.824522801
1.779348722
1.726455231
1.675380654
1.637442774
1.602370555
1.561028018
1.523828265
1.491713846
1.40000504
1.40000504
1.400005154
1.400034873
1.402820251
1.491075969
1.935126873
2.579790853
2.843837822
2.839871431
2.827940502
2.814097847
2.81420299
2.816700581
2.79276152
2.742271168
2.673758561
2.596610837
2.523743323
2.439223248
2.340874557
2.257961946
2.185236794
2.105397716
2.033585078
1.968912078
1.902295162
1.83399687
1.785766831
1.741939424
1.691332993
1.640788835
1.603325263
1.569143991
1.529542903
1.493311495
1.462251937
1.40000504
1.400005045
1.400008182
1.4004751
1.424244966
1.769524399
2.348696355
2.787140271
2.847332915
2.838932733
2.830358587
2.817494226
2.808389665
2.806045109
2.779899524
2.723440205
2.646262238
2.559976369
2.48153299
2.394874645
2.29588161
2.212340583
2.140182858
2.061286024
1.990135489
1.92643905
1.862094639
1.794576602
1.746747943
1.704189835
1.655875763
1.606539504
1.569473501
1.53593948
1.497333423
1.462048717
1.432274698
1.40000504
1.400005195
1.400066234
1.404733934
1.535038965
2.179881267
2.638950081
2.826819862
2.832676135
2.826731882
2.820162981
2.817467324
2.804925624
2.796533653
2.763287217
2.699902498
2.613920468
2.518511656
2.434951697
2.347360203
2.24833988
2.164544459
2.09322098
2.015578431
1.944780647
1.88208913
1.819808337
1.753853895
1.707014398
1.66585366
1.619575755
1.571102507
1.534867974
1.502523912
1.466358013
1.432346835
1.403233854
1.40000504
1.400009373
1.400891631
1.433346139
1.853390272
2.50374877
2.762484868
2.826717117
2.822257053
2.820720728
2.819907678
2.813384048
2.802071629
2.785230845
2.740319504
2.670185759
2.577773927
2.474159188
2.386367481
2.298213445
2.199249747
2.115576708
2.044800479
1.968729533
1.89937587
1.837931535
1.777867821
1.713392708
1.667054152
1.627030008
1.582903644
1.536202151
1.501141005
1.470042626
1.43509316
1.401476177
1.372946289
1.400005042
1.400096747
1.409051169
1.566485982
2.30578785
2.672287168
2.799391679
2.821083208
2.819483235
2.818545717
2.817112458
2.810187469
2.795957632
2.769812034
2.711470622
2.63355202
2.534955286
2.425353738
2.334281922
2.246156894
2.148038155
2.064851908
1.995097668
1.92123356
1.852842784
1.793098403
1.735355382
1.672934086
1.627506761
1.588628601
1.546452971
1.501091398
1.467090526
1.437074756
1.404064144
1.371758073
1.344327646
1.400005185
1.401399997
1.463558548
1.904056014
2.637169789
2.760261615
2.815553367
2.831065939
2.826655184
2.820443814
2.817265817
2.808917737
2.79257487
2.747612057
2.674476723
2.59025778
2.487076398
2.37228396
2.279053249
2.191670355
2.094846532
2.012959609
1.944467739
1.872744988
1.806344943
1.748448678
1.693023243
1.632359737
1.58749729
1.549835352
1.509858732
1.466667468
1.433989601
1.405222829
1.37339075
1.341368327
1.314167293
1.400014529
1.414804749
1.668899599
2.350757918
2.788053925
2.811050337
2.814942837
2.818239834
2.817109275
2.817618933
2.818940533
2.807975037
2.774076958
2.715428163
2.631700212
2.541695632
2.434937587
2.317650444
2.222903514
2.136140922
2.040933283
1.96050259
1.893620327
1.824789176
1.759570526
1.703418137
1.650187411
1.592019357
1.548489439
1.512216877
1.474156138
1.432272209
1.400451536
1.372553728
1.342062369
1.31134353
1.285835598
1.40037638
1.505054823
2.050428491
2.661136633
2.820484133
2.82987515
2.82983593
2.830686855
2.828483929
2.824466859
2.817933731
2.795608011
2.751355167
2.680171666
2.584679039
2.48850151
2.379218615
2.259882491
2.164652795
2.079672421
1.986843531
1.908498579
1.843316367
1.776546281
1.713206029
1.659056806
1.608210866
1.552098636
1.509231991
1.474178477
1.437984519
1.398332712
1.367716488
1.34067526
1.311318138
1.28127686
1.256110802
1.408495005
1.802447536
2.438605454
2.80022724
2.841130342
2.844494007
2.844672993
2.839816976
2.831076686
2.822033854
2.811156613
2.778028271
2.721994534
2.638614712
2.533129375
2.431862065
2.320434107
2.200899781
2.106146038
2.02306607
1.932943073
1.856798902
1.793290685
1.729257253
1.667039017
1.614248533
1.565162323
1.511677662
1.470611301
1.437376511
1.403222814
1.36480114
1.335002316
1.308849873
1.280851118
1.251920635
1.227539576
1.507364934
2.224788942
2.709691094
2.845878105
2.834698112
2.835337832
2.841805965
2.841019126
2.831033458
2.820795855
2.799980291
2.753082298
2.685575837
2.591721313
2.477826219
2.372241882
2.259763945
2.140113946
2.046313576
1.96583841
1.878983091
1.804972073
1.743015564
1.680670696
1.620177714
1.569551139
1.522924334
1.471972777
1.431781587
1.39971803
1.366965084
1.330380421
1.301548484
1.275947641
1.248888452
1.220649505
1.197185166
1.912735675
2.549165948
2.796882591
2.851209165
2.846875822
2.84392494
2.845539844
2.841485843
2.828556314
2.814775183
2.785318304
2.72430732
2.644482513
2.539280171
2.417057469
2.30823817
2.195653082
2.077807502
1.986120443
1.908006462
1.823958465
1.752160248
1.691893244
1.632392206
1.573521867
1.524621224
1.479929603
1.431524083
1.393306906
1.363384043
1.333026144
1.298532529
1.270567105
1.245436752
1.219318042
1.192019187
1.168754912
2.410244325
2.737648761
2.854713371
2.872813816
2.869695479
2.86112433
2.850640992
2.835904704
2.819452945
2.802802805
2.762470204
2.686415335
2.594189004
2.478836549
2.350919616
2.241020106
2.130783214
2.015465695
1.925494942
1.849719487
1.768787615
1.699230997
1.641137397
1.583875837
1.527224777
1.480669844
1.438508777
1.393126147
1.355920739
1.326530746
1.296784028
1.263149634
1.235800561
1.211673286
1.187008879
1.160438159
1.138854486
2.726757543
2.852205681
2.87911546
2.879252217
2.874668609
2.862218237
2.843799912
2.823477751
2.808110927
2.78513083
2.730182636
2.639199101
2.537539573
2.414730449
2.282704268
2.173256863
2.065625963
1.953111732
1.865274259
1.791560129
1.713485826
1.646680448
1.590989076
1.53700449
1.482198435
1.437314778
1.396963243
1.353679783
1.318217585
1.29077969
1.263184288
1.232024859
1.205597319
1.181587223
1.157329556
1.131543748
1.110694456
2.814582313
2.848733198
2.872918548
2.87221924
2.866717483
2.85398743
2.835485362
2.818623061
2.801010411
2.765366047
2.692800822
2.587602927
2.476847974
2.34782983
2.213791451
2.103973222
1.998411664
1.888882382
1.804045225
1.733109723
1.658737119
1.594413523
1.540822856
1.488907105
1.436256902
1.393750487
1.355654569
1.314845194
1.280259483
1.253379396
1.226764944
1.196841939
1.171369542
1.148882561
1.126789667
1.103190361
1.084697566
2.829464396
2.850805008
2.854547496
2.854147904
2.851256542
2.844249446
2.834398599
2.820919281
2.797682494
2.744573226
2.652181649
2.531087104
2.411254342
2.276913052
2.140381996
2.031071337
1.928257634
1.822578007
1.741768777
1.674169508
1.603217032
1.541718759
1.490681446
1.441880677
1.391550633
1.351179563
1.314853633
1.276336953
1.243608377
1.217642493
1.191885419
1.163600462
1.139176839
1.117729374
1.096269216
1.072833817
1.054932067
2.849120376
2.849078191
2.845381933
2.844601069
2.843376772
2.841329916
2.839207108
2.829313589
2.787552517
2.714532549
2.603229118
2.467300255
2.338415929
2.199168483
2.063050315
1.955364691
1.855885012
1.754878805
1.678984201
1.615729313
1.549644482
1.490308875
1.440894163
1.393532328
1.344638726
1.305832246
1.271063775
1.235015567
1.203498932
1.178899892
1.155339781
1.129354295
1.107315211
1.088749066
1.069616706
1.048082141
1.031172839
2.855899273
2.846595462
2.84576645
2.845400477
2.84362035
2.842178474
2.835289231
2.812437404
2.757897439
2.669523806
2.541322717
2.392826754
2.258682442
2.118389624
1.983673115
1.879648332
1.785461411
1.690038506
1.618327532
1.558740961
1.495694056
1.438364688
1.391186856
1.347218389
1.301999175
1.265955037
1.233397808
1.199149982
1.1683373
1.144046488
1.121332859
1.096021857
1.074530913
1.056325211
1.038265096
1.018272068
1.002876577
2.850142916
2.846008095
2.847498965
2.847156535
2.845257978
2.84095012
2.827718777
2.790541736
2.714565169
2.608035281
2.465399032
2.309537905
2.174450331
2.036329322
1.906991831
1.807827904
1.71858204
1.627718569
1.559179438
1.502620872
1.443707579
1.388899085
1.34329536
1.300414377
1.255993746
1.221131318
1.190274218
1.15852474
1.129570921
1.107615028
1.087612734
1.065365181
1.046564006
1.029723482
1.012302247
0.9929372808
0.9777204449
2.843149654
2.846779363
2.848811209
2.848369332
2.846683238
2.83827809
2.814260402
2.757494074
2.658555711
2.53479657
2.380596541
2.221123404
2.088166345
1.955512558
1.83212165
1.738111285
1.654010911
1.568356044
1.502162775
1.447009623
1.389715137
1.337302272
1.295003128
1.255535714
1.214612453
1.181925211
1.152313817
1.12233925
1.094578335
1.072789052
1.052858893
1.031382401
1.013454425
0.998382092
0.9833123172
0.9660293825
0.9525792023
2.842402441
2.849027309
2.849140895
2.847953297
2.844371283
2.830540051
2.793585395
2.715302052
2.593251625
2.454030694
2.290713771
2.1302856
2.000674169
1.873509539
1.757702249
1.669108102
1.589381198
1.507193251
1.443180526
1.389336616
1.33436482
1.284189235
1.243753792
1.206767708
1.168462466
1.138336967
1.111777472
1.085077374
1.060239662
1.041830844
1.024072731
1.003816755
0.986157968
0.9709995698
0.9561273344
0.9393216793
0.926660654
2.847740183
2.849402679
2.848394687
2.846916127
2.840653739
2.81785969
2.764188463
2.66227718
2.518482471
2.366314031
2.196989195
2.037639059
1.911551074
1.79051347
1.680251404
1.596994349
1.522583296
1.445542024
1.385471488
1.334230489
1.282314079
1.234747915
1.196089041
1.160803039
1.125128177
1.097107099
1.072343293
1.046801505
1.022750716
1.005251651
0.9890612551
0.970575404
0.9546169286
0.9415917498
0.9286861832
0.9136963881
0.9022802285
2.85134501
2.84880353
2.847249409
2.844848185
2.833468863
2.797925486
2.723757732
2.596602536
2.433158107
2.271723731
2.099341243
1.942912518
1.821193414
1.705558681
1.601683068
1.52387086
1.454620567
1.38188207
1.32397833
1.273362894
1.222700436
1.176723916
1.142005564
1.111653806
1.080018639
1.056245629
1.036281267
1.014587051
0.9932866376
0.9764320389
0.9597905538
0.9412066142
0.9255874944
0.9131048329
0.9012328328
0.8874727761
0.8771156253
2.850808282
2.846990948
2.845989757
2.8411276
2.821734413
2.768678779
2.669970601
2.517152171
2.337460235
2.169964044
1.99811031
1.846945356
1.730009365
1.620389942
1.521379422
1.448565536
1.384978717
1.31944905
1.267752968
1.222350305
1.174939219
1.130881745
1.097142533
1.068111931
1.037468965
1.015142796
0.9968089016
0.9775690332
0.9584975731
0.9433653265
0.9285717442
0.9121451687
0.8980735645
0.8864757756
0.8752239509
0.8619893626
0.8526298021
2.846837502
2.845653717
2.843959816
2.834791085
2.803681394
2.727425263
2.601067348
2.424017147
2.232174437
2.062457326
1.893755218
1.748592511
1.638391605
1.535439124
1.443504905
1.376238257
1.316564928
1.253816373
1.20475178
1.163122605
1.12035447
1.080175531
1.051005099
1.026398154
1.000323484
0.981998862
0.9655497398
0.9473988198
0.929258879
0.9141868703
0.8992691127
0.8831190531
0.8692970605
0.8584822082
0.8483606959
0.8366330447
0.8286190374
2.843205129
2.843546462
2.840032944
2.824558572
2.776470775
2.671122992
2.515973151
2.317681546
2.118405865
1.950009113
1.787101253
1.65097825
1.548590773
1.45231889
1.366729315
1.305826632
1.251872017
1.195000697
1.150347333
1.11207452
1.073013776
1.036257173
1.00823631
0.9841729589
0.959640599
0.9426348983
0.9285201855
0.9133880709
0.8976347518
0.8842960936
0.8708011481
0.855918925
0.8431471033
0.8331985497
0.8240193096
0.8133302447
0.8058705286
2.841134507
2.840625774
2.833602607
2.808577831
2.736596791
2.596895374
2.413548099
2.199810647
1.99815353
1.834379334
1.679344266
1.55240517
1.458144623
1.36805777
1.288417716
1.230537726
1.180824524
1.129706609
1.090474734
1.058038358
1.02479379
0.993305407
0.9708369971
0.949804144
0.9269447323
0.9107804279
0.8972643157
0.8831333529
0.8683231405
0.8553699368
0.8424205083
0.8282657816
0.8161853388
0.8074884217
0.7995064283
0.789598498
0.7831523257
2.839292079
2.836233428
2.824576529
2.784426932
2.679826965
2.502730367
2.295454819
2.071193534
1.87152928
1.716266886
1.570305309
1.45542674
1.371491488
1.293634002
1.223385259
1.16930445
1.121385402
1.073295123
1.036894657
1.007474837
0.977364374
0.9492209692
0.92896758
0.9102229909
0.8893438747
0.8748050916
0.8629875142
0.8506463891
0.8371369266
0.8256138308
0.8140295576
0.8005231987
0.7892457305
0.7817147486
0.7748152252
0.7660601426
0.760772645
2.836460265
2.830535284
2.811765267
2.747209682
2.602006409
2.387131098
2.161043316
1.933807135
1.742111185
1.597922579
1.46460577
1.360261599
1.279694503
1.204922622
1.139298615
1.09315725
1.053544689
1.01150971
0.9817539592
0.9588488444
0.9340193034
0.9108529623
0.8934858243
0.8756540658
0.856132552
0.8425735818
0.8310071994
0.8187540406
0.8056490464
0.7950268879
0.7848231316
0.7728347756
0.7631832035
0.7565815729
0.7503103984
0.7422649659
0.737818816
2.832191228
2.824549648
2.792127142
2.691545267
2.498880331
2.250576594
2.01464668
1.78913971
1.609478858
1.476616062
1.357390038
1.269452534
1.201772459
1.135303798
1.074971972
1.032479578
0.9960046955
0.9568444326
0.9297920583
0.9092787252
0.887383399
0.8663236017
0.8509256573
0.8359352052
0.8197294398
0.808408656
0.7982312846
0.7873086364
0.7758908264
0.7664713672
0.7571988535
0.7462084
0.7377428521
0.7324029712
0.7270926714
0.7201881133
0.7164952625
2.827673231
2.817327208
2.760269087
2.611150451
2.368213583
2.093709554
1.854508562
1.638375367
1.478800317
1.358397093
1.247707581
1.167222753
1.109450798
1.053245673
1.001635993
0.9677245252
0.93791814
0.9039915976
0.8831307071
0.8670028911
0.8485834937
0.8308953202
0.8172986908
0.8028672645
0.7869057203
0.7754828334
0.765781883
0.7555632755
0.7446225602
0.7360737021
0.7284049416
0.7186784276
0.7118542177
0.7082581554
0.7043872752
0.6988974733
0.6958166783
2.82479973
2.805529394
2.707308985
2.497922516
2.204736633
1.919467103
1.687804806
1.486234814
1.348814704
1.250912552
1.156146633
1.085430997
1.032461211
0.9814104302
0.9367691958
0.9081953438
0.8820395796
0.8519244971
0.8332019636
0.818953393
0.8039039349
0.7889347139
0.7777021355
0.7660416146
0.752453954
0.7431838342
0.7354584625
0.7264705705
0.7164505084
0.7091057194
0.7025597948
0.6933803849
0.6878310324
0.6854250323
0.6824299558
0.6771831847
0.6750030274
2.823585182
2.783037836
2.621659509
2.344218718
2.013487327
1.728053886
1.514196
1.330909126
1.202134273
1.116363618
1.041051415
0.989293671
0.9506612997
0.9103360988
0.8744815983
0.8528369008
0.83126726
0.8053162018
0.7915011144
0.7803065223
0.7663818229
0.7519908527
0.7415393787
0.7310486139
0.71846133
0.7106258621
0.7049924929
0.6980345742
0.6894644311
0.6835126417
0.6780224677
0.6695972565
0.6651963212
0.663297681
0.6606746673
0.6556403159
0.6544583087
2.82204636
2.737629412
2.48860395
2.142838924
1.789785948
1.518621189
1.344874781
1.205049356
1.099805881
1.019658822
0.950573962
0.9081413464
0.8773405434
0.8436294115
0.8143959354
0.7978106068
0.7796377667
0.755616072
0.7422983625
0.7337552764
0.7238184839
0.7125020597
0.7056683081
0.6980447052
0.6865623855
0.6809101008
0.6771995614
0.6717298076
0.6641264538
0.6593379566
0.6550096876
0.648342367
0.6439598658
0.6425572198
0.6406219586
0.637396663
0.6370897275
2.815425042
2.650517934
2.286230694
1.890321472
1.55100659
1.309250207
1.147286144
1.027030942
0.9570704439
0.9062527224
0.8539771672
0.8283577076
0.8096375807
0.7842229554
0.7615796804
0.7503307461
0.7357023789
0.7132218469
0.7049359305
0.6996200558
0.6910313292
0.6802221213
0.6744877248
0.6670661984
0.655527187
0.650899301
0.6484167165
0.6438663492
0.6379295852
0.6352557688
0.6322672497
0.6272293981
0.6241369183
0.6226241063
0.6199149926
0.6170844723
0.6173222131
2.790254349
2.484591368
2.003357514
1.569133819
1.290080636
1.127538047
1.006267336
0.9018450927
0.8535932112
0.8160176298
0.765035016
0.7533391038
0.7438476932
0.7244207191
0.7062003889
0.6984893766
0.6859250585
0.6658866649
0.6572945508
0.6543423472
0.6474833488
0.6405412811
0.6395356717
0.6358076464
0.6272157428
0.6237109645
0.6220534156
0.6178281973
0.613544895
0.6132693314
0.6118222222
0.6083606481
0.6040777585
0.6026120257
0.601625519
0.6015843819
0.6023836491
2.708511179
2.178134721
1.633892004
1.23225513
0.972771156
0.9029666401
0.8404418222
0.7722320463
0.7578139701
0.7309224553
0.6873808362
0.6881363267
0.6857349471
0.6698942707
0.6554336504
0.6539251179
0.6466494639
0.6284154147
0.6222979651
0.6192186796
0.6129293256
0.6081849883
0.607971259
0.6061196736
0.6000503149
0.5981648374
0.5972420823
0.5940901142
0.5919244156
0.5921443247
0.5914870373
0.5885052545
0.5862820513
0.5845487921
0.5822427457
0.5799720655
0.5803236933
2.479907689
1.611383437
1.21848173
0.9863527747
0.7911114707
0.7378156968
0.681781668
0.6534767501
0.6557574939
0.6388804353
0.6152754203
0.6151184922
0.6144693555
0.6028110458
0.5948209544
0.5939281735
0.5863269714
0.573328815
0.5762330949
0.5788154342
0.575316368
0.5751225678
0.5784635416
0.5782839199
0.574897881
0.574849843
0.5750016311
0.5733252183
0.571882772
0.5723819438
0.5724711046
0.5707700552
0.5686769206
0.5695458933
0.5692808882
0.5678856471
0.5673434001
1.746470284
0.9544921168
0.6950130881
0.6784904521
0.6486333126
0.6179602153
0.5724314297
0.5617059095
0.5651965461
0.5577016167
0.5511145019
0.5540197312
0.5547245551
0.5491504276
0.551035804
0.5540212295
0.5549659696
0.5539716247
0.5545644565
0.554469434
0.5534846042
0.5534802567
0.5540564387
0.5540941226
0.5535082721
0.5541624903
0.5541645362
0.551915767
0.5517189904
0.5540389704
0.5541620603
0.5523056603
0.5513981265
0.5475638572
0.5453934493
0.5445743133
0.5445646904
0.4334583546
0.5607757749
0.5337297694
0.5727910636
0.5948567245
0.5805085911
0.5398357861
0.5302483111
0.5354257004
0.5310471606
0.5294244895
0.5339040269
0.5352627707
0.5319776241
0.5244632642
0.5286463309
0.5375910779
0.5385511624
0.5361119599
0.5372198024
0.537366224
0.5373449331
0.5384445026
0.538681985
0.5388145421
0.5381449798
0.5364072457
0.5380297948
0.540069668
0.5408557926
0.5395683192
0.538362632
0.5387682155
0.5408842847
0.5374199546
0.5372701915
0.3194564876
0.4082475009
0.4733611334
0.536363656
0.5795257795
0.5640003221
0.5276915303
0.5233858224
0.5264177054
0.5243080613
0.5241172071
0.5281963583
0.5300981292
0.5270706967
0.5231730627
0.5284974921
0.5348791147
0.5333682788
0.5310683807
0.5333068868
0.5326343594
0.5322157897
0.5340735844
0.5346732548
0.5347060153
0.5333765865
0.5328180197
0.5342983172
0.5357652263
0.5356689221
0.5342038289
0.5331940942
0.5343029674
0.5364093047
0.5331373718
0.5333420371
0.3188812354
0.3413412937
0.4183423086
0.4873292847
0.5469555379
0.5370195808
0.5055621211
0.5078988033
0.5147229831
0.5141010232
0.5154101347
0.5183760629
0.5196929792
0.5171501683
0.5154926607
0.5225458512
0.5280447927
0.5254318927
0.5257354987
0.5284827452
0.528365999
0.5291389943
0.5306288964
0.5305831139
0.5303818153
0.5291237013
0.5280467404
0.5296572014
0.5307565462
0.530163538
0.529926489
0.5303397775
0.5318620312
0.5333413504
0.5301645062
0.5300607295
0.327563892
0.3355154439
0.4008170816
0.4650616717
0.5301757513
0.517095026
0.4914044198
0.4888394995
0.495867825
0.4976055853
0.4998526925
0.5053057401
0.5065966938
0.5069798275
0.5072857389
0.5132093758
0.5172616449
0.5189385178
0.5215915597
0.5241644309
0.5241914181
0.5241613772
0.5259666893
0.5261192709
0.5243791589
0.5213060137
0.5225399874
0.5246650733
0.5257474775
0.5254072209
0.5278372866
0.5285936621
0.5289906565
0.5301946126
0.5267663132
0.5266960396
0.3217009423
0.3428818085
0.3722265617
0.4526398795
0.5125749177
0.502031807
0.4846140713
0.4832571487
0.4860955158
0.4864050426
0.4885584103
0.4944047051
0.5000754633
0.500545015
0.5039279092
0.5088654838
0.5112317375
0.5137741963
0.5162994329
0.5179765101
0.5150320178
0.5151249041
0.5182627293
0.5184112346
0.5155577182
0.5170706556
0.5183779135
0.5197371891
0.5214793949
0.5237467858
0.525725487
0.5251682298
0.5234375053
0.5249354958
0.5218454689
0.52191924
0.3042480275
0.3398529529
0.3291789811
0.4285878503
0.4847288631
0.4788152221
0.4725881096
0.4771513693
0.4811634995
0.4819190563
0.4841528344
0.4882411093
0.4925701085
0.4934293235
0.4988060127
0.5052067976
0.5070738952
0.5047541345
0.5054023713
0.5069663506
0.5069415239
0.5082162883
0.5122207942
0.5137381624
0.5128278129
0.5137160173
0.5156861147
0.5173332562
0.5192933707
0.5212512315
0.5205456457
0.5186761821
0.5184467525
0.5201755868
0.5180857158
0.5183206921
0.2685252688
0.3272396419
0.3184726852
0.3988157152
0.459201197
0.4509087344
0.4511874234
0.4638199158
0.4722139251
0.4747428698
0.4775068483
0.4801734889
0.4777890857
0.4796810984
0.4897629981
0.4981262319
0.4987034401
0.4937539649
0.4996250316
0.501457023
0.5022886368
0.5051302694
0.5090660323
0.5102326246
0.5101936204
0.5116614981
0.5138995129
0.5149806996
0.5152158716
0.51605537
0.5140464971
0.5145502367
0.5163416715
0.5184362473
0.5163053692
0.5162574601
0.2490453898
0.3035919951
0.3184208283
0.384427747
0.4489611036
0.4407414738
0.4373514617
0.4453107651
0.4541471394
0.4590413436
0.4629723468
0.466315545
0.4653093208
0.4723684908
0.4804296524
0.4865870518
0.4864555145
0.4905189914
0.4964150835
0.4979284468
0.4987846202
0.5029974262
0.5069494852
0.5069495305
0.5071002928
0.5087028605
0.5105993013
0.5105676119
0.5093635598
0.5092754313
0.5098556361
0.5125173616
0.5141468776
0.5162198849
0.5135941811
0.5134655426
0.2475436774
0.2945012683
0.3219813225
0.3780688448
0.4409963323
0.4360062988
0.4338082807
0.4390924763
0.4428558001
0.443272286
0.4468908823
0.4537538308
0.4617115389
0.4684117063
0.4757379121
0.480757801
0.4822137361
0.4885839436
0.4932372138
0.4934941253
0.4948169748
0.4983819435
0.5020340524
0.5009405279
0.5010314419
0.5017744054
0.5039996983
0.5031999854
0.5021051587
0.5048921624
0.5084896222
0.5105972963
0.5099163336
0.5116134229
0.5083804063
0.5082329491
0.2472902832
0.294791756
0.3260872376
0.3736800631
0.4287695027
0.4295317704
0.4350454603
0.43852817
0.4399545342
0.4390165851
0.4424754998
0.448866753
0.458912907
0.4651207101
0.4730581579
0.4778370017
0.4800134621
0.4855698754
0.4870066483
0.4860828632
0.4864848819
0.4889052632
0.4934268165
0.4913900056
0.4921138467
0.4948456598
0.496703223
0.4955842539
0.4982979808
0.5037754092
0.5071761182
0.5064765878
0.5031374384
0.5049737372
0.5028761335
0.2507552835
0.2952590348
0.3221712091
0.3640301938
0.4055802998
0.414848067
0.4322755342
0.4372609706
0.4372182761
0.4371131828
0.4398976569
0.4447217507
0.452708052
0.459522595
0.4688257945
0.4745070849
0.4770671808
0.478321808
0.4748767854
0.4744327027
0.4776431669
0.4837645666
0.4850145425
0.4857994974
0.4886766098
0.4919811671
0.4934933395
0.493359641
0.4976157244
0.5026424408
0.5034993565
0.4992308885
0.5001812765
0.5022973553
0.5011154873
0.2675762766
0.2949035117
0.3083691338
0.3529614153
0.3766509692
0.3936725139
0.4209920973
0.4299775868
0.4304741638
0.4326678728
0.434652131
0.4383658404
0.4387771217
0.4479036238
0.4605129889
0.4683254472
0.4698407993
0.467089864
0.4673098749
0.4697760223
0.4749296975
0.4807877898
0.4826172506
0.4845119273
0.4876861312
0.4903395891
0.4918320373
0.4922721724
0.49651883
0.4991945148
0.4965834299
0.495899253
0.498940447
0.5012925773
0.5000216007
0.3036597739
0.2943964824
0.2950240912
0.3491072407
0.3695791823
0.3880582396
0.4039773723
0.4130698116
0.414468237
0.4207712629
0.4214581961
0.4260362684
0.429191527
0.4393158832
0.4488537776
0.4578417533
0.461077565
0.4632255043
0.4656109321
0.4681723157
0.4735081338
0.47945555
0.4815173376
0.4834609915
0.4861386916
0.4888769269
0.4896576214
0.490393546
0.4935134857
0.4923416714
0.4909852863
0.4943527971
0.4973781715
0.4999812254
0.4980232706
0.3241842346
0.2942647888
0.2933970209
0.3466588755
0.3682241147
0.3874827574
0.3990286429
0.4013355883
0.4007239754
0.4032720866
0.4069949346
0.4154140479
0.4274164609
0.4364920845
0.4442064627
0.4516500425
0.4574407846
0.4613885942
0.4641958648
0.466747835
0.4714054811
0.4768096391
0.4789820855
0.480337516
0.4825912864
0.4853154099
0.4848176747
0.4856836079
0.4868323248
0.4867740673
0.489384715
0.4933344592
0.4939772935
0.4964732635
0.4932116226
0.3246102119
0.296479413
0.2929701936
0.34314821
0.3700944923
0.3901903729
0.3989012383
0.3990969253
0.3978952355
0.3975592058
0.4037077532
0.4124704363
0.4265337118
0.4350796465
0.44236144
0.4492217281
0.4549653074
0.4588977895
0.4606235182
0.4624749823
0.4665986057
0.4703739079
0.4728870982
0.4733106355
0.4749940258
0.4767591362
0.4754498298
0.4780975559
0.4812698266
0.4852535764
0.4885073988
0.490559882
0.487694205
0.4897146738
0.4863379971
0.3172738162
0.298947806
0.2930525511
0.33816599
0.3694767631
0.3885022327
0.399592359
0.3999424468
0.3971114946
0.3962576687
0.402791548
0.41051421
0.4234101995
0.432341474
0.439687954
0.4464806186
0.4518120095
0.4533298246
0.4522643928
0.4542577486
0.457374981
0.4600164198
0.4641416704
0.4653036699
0.4667194024
0.4683963533
0.4703020163
0.4740875589
0.4796669161
0.4844953056
0.486326962
0.4845513233
0.4835348957
0.4854194461
0.4833770878
0.2860404671
0.2994137162
0.2953041249
0.3307514355
0.3645724633
0.3805119028
0.3951286882
0.3981092973
0.3944398968
0.394802748
0.4002706711
0.4075996699
0.4151622399
0.425440205
0.4334551806
0.4411777484
0.4450506827
0.4425508844
0.4425836929
0.4466597148
0.4516869436
0.455665002
0.4584598974
0.4622155891
0.4647987703
0.4667795394
0.4686816752
0.4727185111
0.4792640661
0.4823855036
0.4811582581
0.4786635763
0.4822166613
0.48417201
0.4823988535
0.262684201
0.2941984525
0.3019248549
0.3273049637
0.3565018212
0.370349175
0.3830152447
0.3898631689
0.38696181
0.3897090418
0.3931694777
0.4015310199
0.4042402773
0.4138265985
0.421035873
0.4295876969
0.4332522482
0.4346100188
0.4394397977
0.4443766422
0.4507294565
0.4545012633
0.4567707493
0.4616586761
0.4641062796
0.4655672038
0.4681170959
0.4724487801
0.4775487654
0.4770527868
0.4739238074
0.4767935451
0.4816806903
0.483459512
0.2614075833
0.2891694063
0.3038331103
0.3259437964
0.3501583172
0.3680980912
0.3717335557
0.3735827879
0.3721983711
0.378372008
0.3818082467
0.39188801
0.4012557249
0.4091417788
0.4142431136
0.4187156226
0.425855085
0.4327195159
0.4387530933
0.4441500987
0.4498276381
0.4534330533
0.456822271
0.4609927304
0.4627707799
0.4642799302
0.4666251687
0.4705060601
0.472541766
0.469202609
0.4711497274
0.4761768056
0.480382805
0.4820508595
0.2622427831
0.2896924056
0.3032832296
0.323661482
0.3490575675
0.367299721
0.369599071
0.3661165601
0.3635822634
0.368824337
0.3773914379
0.3880901522
0.4010613759
0.4085441923
0.413389796
0.4163975465
0.4241221107
0.4323779304
0.4383184335
0.4428151678
0.4473402262
0.4510578392
0.4546902603
0.4582136405
0.4593423031
0.4608832335
0.4624288498
0.4652450188
0.4649966142
0.4661850528
0.4704163904
0.4751496481
0.4770716856
0.4782075178
0.2696343775
0.2888537467
0.3002589646
0.3226016838
0.3491191791
0.3680764966
0.3700834829
0.3647356071
0.3620086173
0.3672591949
0.3764469765
0.3869816557
0.4009495682
0.409162396
0.413904559
0.4161855112
0.4229536676
0.4304970781
0.4349487211
0.4391178129
0.4419669319
0.4452823875
0.4491053871
0.4516128427
0.4518775654
0.4534958949
0.4547407473
0.4587657832
0.4624166924
0.465308336
0.4697966064
0.4722416582
0.4695922703
0.4704641334
0.2893579819
0.2870271155
0.2940011897
0.3226422176
0.3504296782
0.3671274025
0.3694166141
0.3649322284
0.3622844407
0.367249406
0.3756379213
0.385646263
0.3975602053
0.4065301518
0.4121513014
0.4150263097
0.4204652983
0.4253345725
0.4276379149
0.4314130253
0.432609823
0.4363023612
0.4405380465
0.442613135
0.4441655044
0.4471093096
0.4511687866
0.4569293317
0.4615504267
0.4646347499
0.4675681601
0.4654714807
0.4634088778
0.4656547229
0.3014776349
0.2865015487
0.2897973626
0.3245915053
0.3529824851
0.363138078
0.3655585561
0.3630403842
0.3623115497
0.3656037281
0.3735350627
0.3826402261
0.388138876
0.3977167947
0.4055150608
0.4108240806
0.4137512653
0.4152414901
0.4196669202
0.4232676418
0.427950193
0.4329086519
0.4371487148
0.4390579389
0.4420771728
0.4457367558
0.4503540737
)
;

boundaryField
{
    inlet
    {
        type            calculated;
        value           nonuniform 0();
    }
    outlet
    {
        type            calculated;
        value           nonuniform 0();
    }
    bottom
    {
        type            calculated;
        value           nonuniform 0();
    }
    top
    {
        type            calculated;
        value           nonuniform 0();
    }
    obstacle
    {
        type            calculated;
        value           nonuniform List<scalar> 
23
(
0.4334583546
0.3194564876
0.3188812354
0.327563892
0.3217009423
0.3042480275
0.2685252688
0.2490453898
0.2475436774
0.2472902832
0.2507552835
0.2675762766
0.3036597739
0.3241842346
0.3246102119
0.3172738162
0.2860404671
0.262684201
0.2614075833
0.2622427831
0.2696343775
0.2893579819
0.3014776349
)
;
    }
    defaultFaces
    {
        type            empty;
    }
    procBoundary9to3
    {
        type            processor;
        value           nonuniform List<scalar> 
38
(
2.271030654
2.190392475
2.118500169
2.052686969
1.982107422
1.911939657
1.86263045
1.816224913
1.76060555
1.708505185
1.670245478
1.634910276
1.593358131
1.555640901
1.522330341
1.40000504
1.40000504
1.400005043
1.400006219
1.400190923
1.411330204
1.577877806
2.151516863
2.781245693
2.823785717
2.811722235
2.814554983
2.825489841
2.829165817
2.80344334
2.757756309
2.699260741
2.631306004
2.564171292
2.481371877
2.383824317
2.302432027
2.302432027
)
;
    }
    procBoundary9to4
    {
        type            processor;
        value           nonuniform List<scalar> 9(1.461725993 1.433459913 1.405040733 1.376493061 1.346989223 1.319329964 1.289389373 1.262563586 1.233185493);
    }