/*--------------------------------*- C++ -*----------------------------------*\
  =========                 |
  \\      /  F ield         | OpenFOAM: The Open Source CFD Toolbox
   \\    /   O peration     | Website:  https://openfoam.org
    \\  /    A nd           | Version:  7
     \\/     M anipulation  |
\*---------------------------------------------------------------------------*/
FoamFile
{
    version     2.0;
    format      ascii;
    class       volScalarField;
    location    "1";
    object      rho;
}
// * * * * * * * * * * * * * * * * * * * * * * * * * * * * * * * * * * * * * //

dimensions      [1 -3 0 0 0 0 0];

internalField   nonuniform List<scalar> 
2222
(
3.119902462
3.045145743
2.977682785
2.915043814
2.855124039
2.796776713
2.739559417
2.683494349
2.628643354
2.574719567
2.521403039
2.46837268
2.415221654
2.361410485
2.30622399
2.2508352
2.19614259
2.142100659
2.089474908
2.038965863
1.990849192
1.944822958
1.90179008
1.86203965
1.824815248
1.79031274
1.758570513
1.729375985
1.702304253
1.676977373
1.65251699
1.627784995
3.132682694
3.053137622
2.979964709
2.912985193
2.851278859
2.793517008
2.738656975
2.685280859
2.632571963
2.580262545
2.52793415
2.475093945
2.421498552
2.366757501
2.310681301
2.25431718
2.198708888
2.145099025
2.093644401
2.04389545
1.996622836
1.953012034
1.912140448
1.872376078
1.83493274
1.800285369
1.768418254
1.739016871
1.711565933
1.685680199
1.660716661
1.63568157
3.175081793
3.08805256
3.006265283
2.930303944
2.85985289
2.795786832
2.738252876
2.685429658
2.635273083
2.586423782
2.537607828
2.487445195
2.435093449
2.380449843
2.324243259
2.267323318
2.210092118
2.153938242
2.099669902
2.047800538
1.99869131
1.952419261
1.908773872
1.868273742
1.83072534
1.796084811
1.764189447
1.734654935
1.706818421
1.680352181
1.655113752
1.630367688
3.239635283
3.145795355
3.05849516
2.978281975
2.903043944
2.832867838
2.768663934
2.709475195
2.653994395
2.600989092
2.549599706
2.498684542
2.446725455
2.393265409
2.338573455
2.282513028
2.225715404
2.168975577
2.112942176
2.059027327
2.007962833
1.959598925
1.914275203
1.87254293
1.834309887
1.799241683
1.767012389
1.737233953
1.7090468
1.681898324
1.655860752
1.630649629
3.329878921
3.225055702
3.124089693
3.030475767
2.947338312
2.87442889
2.809716457
2.749851117
2.692728698
2.636682922
2.580597296
2.524416032
2.468309183
2.412044215
2.355558067
2.298959854
2.242742555
2.18675006
2.13106214
2.07623646
2.023199623
1.972749592
1.925396147
1.88174308
1.842124157
1.805982885
1.772729898
1.742276584
1.713773592
1.686013915
1.658780879
1.632384101
3.415914611
3.309356594
3.204193412
3.10344373
3.012218037
2.930798962
2.858071679
2.792043463
2.730599623
2.67193999
2.614070847
2.55582837
2.497386424
2.438991475
2.380901081
2.323214982
2.266145322
2.209358299
2.153283577
2.097896453
2.043082592
1.990196556
1.940627688
1.89504562
1.853700108
1.815948923
1.780876896
1.748653845
1.719291421
1.691537417
1.664275865
1.637427633
3.486536242
3.38080552
3.273967016
3.170509749
3.075771729
2.989738368
2.910864876
2.837932527
2.769449348
2.705941126
2.645061717
2.583828641
2.52272444
2.462839718
2.404467137
2.346855486
2.289873271
2.233061533
2.176708501
2.121485588
2.066474863
2.012256825
1.96085862
1.913252077
1.869750351
1.829987067
1.792920981
1.758533667
1.727441103
1.698813654
1.671047426
1.643893962
3.525594505
3.422032198
3.320287411
3.218890183
3.122717358
3.035253351
2.953059593
2.875665928
2.803211514
2.734120753
2.66927319
2.606257426
2.544567675
2.484069788
2.424775407
2.366527336
2.309455667
2.253474907
2.197943023
2.14270348
2.087479792
2.032491573
1.980291662
1.931742165
1.886931745
1.845820074
1.807469405
1.771394093
1.738426235
1.708663647
1.680006785
1.651193291
3.542214971
3.441238621
3.344290016
3.246191471
3.150953128
3.06216287
2.977765029
2.897894133
2.823454529
2.750722899
2.683412173
2.621821948
2.561504953
2.500918714
2.441149951
2.382515905
2.325460199
2.270813813
2.215757256
2.1594184
2.10471679
2.05122824
1.999683771
1.951482562
1.905517098
1.862597217
1.823189468
1.785986051
1.750810014
1.718882129
1.689612001
1.660415396
3.549913565
3.449949703
3.352898288
3.259328721
3.166940156
3.075095157
2.989361933
2.910665857
2.836189171
2.764595976
2.694630769
2.630324447
2.56771078
2.505830116
2.445522465
2.386876196
2.329865645
2.274577295
2.220473694
2.166324667
2.113193834
2.063545884
2.015776512
1.968213921
1.920473925
1.875876361
1.836053657
1.798536269
1.762346777
1.728434846
1.697160291
1.666707605
3.567807574
3.465627505
3.358798355
3.260706703
3.168450278
3.079812855
2.996641935
2.918194549
2.841143193
2.77487792
2.711825466
2.644907767
2.579782644
2.516918475
2.456204874
2.397395075
2.339951427
2.28386289
2.230636209
2.179107718
2.12707256
2.073051627
2.023157072
1.976405703
1.930504474
1.886426631
1.845416606
1.80861342
1.773887482
1.740479408
1.70690964
1.673146072
3.544307918
3.445007419
3.348572166
3.259975598
3.176328773
3.093712972
3.012752121
2.933959935
2.85522226
2.776072599
2.70209709
2.632254438
2.566468026
2.50329495
2.442126537
2.383567897
2.326906783
2.271296195
2.218908538
2.169227805
2.119060693
2.074364208
2.033589348
1.990409029
1.946590339
1.90007088
1.853496298
1.813970775
1.776697889
1.741249437
1.705997171
1.677431071
3.528679637
3.430969308
3.338235789
3.248093092
3.159995537
3.076982864
2.996650991
2.917666463
2.844622361
2.771662105
2.698203199
2.62850243
2.56344989
2.501199092
2.440095406
2.381347606
2.324827219
2.269749308
2.216628943
2.167204383
2.118482153
2.074352529
2.027452608
1.981744301
1.939857434
1.897168835
1.856358431
1.815699456
1.781710713
1.747200019
1.71281757
1.677086522
3.511249331
3.41737136
3.325504289
3.235896605
3.150480195
3.069550892
2.990047779
2.910623457
2.837623891
2.771693077
2.703774565
2.634151169
2.564826628
2.50323892
2.445378643
2.386995372
2.330907977
2.277001925
2.222374634
2.167477859
2.119311135
2.07377128
2.027038417
1.980232477
1.936912852
1.900619628
1.863426338
1.82036091
1.778587327
1.739731726
1.70676823
1.676713677
3.497668421
3.404260079
3.313139045
3.224649961
3.14053523
3.059675669
2.980571826
2.904224974
2.829770949
2.754944205
2.682984211
2.615343852
2.552329715
2.490734681
2.42964697
2.370622132
2.314654228
2.261232592
2.209229786
2.162106473
2.123377401
2.07934162
2.033670693
1.985335604
1.936242074
1.892122486
1.852707486
1.816636658
1.778054256
1.740537985
1.705761381
1.678305269
3.484043525
3.390739921
3.30035383
3.212367718
3.128852696
3.048338283
2.969470765
2.893437223
2.818203714
2.743703675
2.672651255
2.605752558
2.543177608
2.482016625
2.422337019
2.364750615
2.309560921
2.255891862
2.204637473
2.158909862
2.11147273
2.064364531
2.01879769
1.976704444
1.933782479
1.891013577
1.849891968
1.81586143
1.782782095
1.747842486
1.711806498
1.673895142
3.470596713
3.377184748
3.286954678
3.199438642
3.115477349
3.034292321
2.956538006
2.881906517
2.807769066
2.734840608
2.664702867
2.599170241
2.537417677
2.477762561
2.420767212
2.365686713
2.309757292
2.253783813
2.202430094
2.154359872
2.106218629
2.059740675
2.013203103
1.972179994
1.936236785
1.896108491
1.854872638
1.811840811
1.771805495
1.736559105
1.703656637
1.670393187
3.454778507
3.36180161
3.272026082
3.184903104
3.100384262
3.019510497
2.943179298
2.869104389
2.795889975
2.72446289
2.655743955
2.590603218
2.528241981
2.468262145
2.410621181
2.354383618
2.299050051
2.245766206
2.195829888
2.149001175
2.104817381
2.057805088
2.010374249
1.967948946
1.92525809
1.883813316
1.845246221
1.808260078
1.770114358
1.735078769
1.702277422
1.66984838
3.435979103
3.344419736
3.255724911
3.169362519
3.085338692
3.005311644
2.929436527
2.855921052
2.784228852
2.714487791
2.64723373
2.582453584
2.519660244
2.459370178
2.401842456
2.346017766
2.29159156
2.240101822
2.190750029
2.14173603
2.094174953
2.050189837
2.007364288
1.964775066
1.922411297
1.881745382
1.842514324
1.805924847
1.77358196
1.739680207
1.706550719
1.674582013
3.416893354
3.327377828
3.240162438
3.154919594
3.072130403
2.992816538
2.916822887
2.843724053
2.773105652
2.704456264
2.637896108
2.57319011
2.510396301
2.450269969
2.392836432
2.337751501
2.284882483
2.233665599
2.18328209
2.133637733
2.085618086
2.043260474
2.008131343
1.968388819
1.927155816
1.886115035
1.844264834
1.80346642
1.763192394
1.727469789
1.693888915
1.661321521
3.399742839
3.311819498
3.225769013
3.141542099
3.059704548
2.980575875
2.90413705
2.830994881
2.761085922
2.69363706
2.62789419
2.563425356
2.500717145
2.440509232
2.383087433
2.328552401
2.276131346
2.224662216
2.173875079
2.124516916
2.078822472
2.036402898
1.994295514
1.953157693
1.913431446
1.874671421
1.837230845
1.79972838
1.760778656
1.72454084
1.690517089
1.657640396
3.384423949
3.296903925
3.211461352
3.12813379
3.046968736
2.967654359
2.890368046
2.816847953
2.747850109
2.682014235
2.617518792
2.553879624
2.491528162
2.431090348
2.373381044
2.318753877
2.266332568
2.215192447
2.165218602
2.117250386
2.07208426
2.028550108
1.986053549
1.945674803
1.906915921
1.869388893
1.831955329
1.795630756
1.763428921
1.727149701
1.690537621
1.657394127
3.370608589
3.282663464
3.196682479
3.113189376
3.032132646
2.953092055
2.876244297
2.802807522
2.73389506
2.668811872
2.605572009
2.543143174
2.481663384
2.421963844
2.36463964
2.309516248
2.256332492
2.205144611
2.155886559
2.108847079
2.063977099
2.02056997
1.978570734
1.937994201
1.89887028
1.861970457
1.827152454
1.791693138
1.754975905
1.719451666
1.684728217
1.652123322
3.357359351
3.268920015
3.181991358
3.097753248
3.01683764
2.938373964
2.862455936
2.789532637
2.720321473
2.655336876
2.593457184
2.532922386
2.472895636
2.413924739
2.35642632
2.300273371
2.246121616
2.194715175
2.146253519
2.100707973
2.056925766
2.013719664
1.97123986
1.930350666
1.892087714
1.855802856
1.819756354
1.783674512
1.747887772
1.714683427
1.682576362
1.649900453
3.346009379
3.25697133
3.168997725
3.083386905
3.002306436
2.924496104
2.849587663
2.77755184
2.708084809
2.641567733
2.579193172
2.520095476
2.462121809
2.404560691
2.347545066
2.291250541
2.236966909
2.186022187
2.138322864
2.092831421
2.048612033
2.005512538
1.963764503
1.923559373
1.884781415
1.847150873
1.81112513
1.776788853
1.742979297
1.709551485
1.676699255
1.644083848
3.344578053
3.250929094
3.159504441
3.07400215
2.992953389
2.915592617
2.840762348
2.767736441
2.69701542
2.628767562
2.564582354
2.505723524
2.45017965
2.395081312
2.339223333
2.283385326
2.228983296
2.177297319
2.128608217
2.082447777
2.038656811
1.996976249
1.956539843
1.916717219
1.877779193
1.840341387
1.80424326
1.76889894
1.734134044
1.700123547
1.667847887
1.637462019
3.325570786
3.233716152
3.147594254
3.064909709
2.985428829
2.910459407
2.836318797
2.760056751
2.687098066
2.618845142
2.554339599
2.494356319
2.438023493
2.383384712
2.328775756
2.274220987
2.220651975
2.169074519
2.120257664
2.074029338
2.030198706
1.988614648
1.949036365
1.910517883
1.872086101
1.833650533
1.795838916
1.759587928
1.726106016
1.694735352
1.663815259
1.632831504
3.318022884
3.22813023
3.143148123
3.059749563
2.977897129
2.897439116
2.822036365
2.751010001
2.680139571
2.611801819
2.545467947
2.483004328
2.42515564
2.370628515
2.317657868
2.26487988
2.212618794
2.161595775
2.112357943
2.065380914
2.020727549
1.978766965
1.939795241
1.902386608
1.864787001
1.82714443
1.79097282
1.756129886
1.721657544
1.688068226
1.655465328
1.624011769
3.318971848
3.232292773
3.146354781
3.060495677
2.974293176
2.890342301
2.812933439
2.74599526
2.680861162
2.608039154
2.538648776
2.474974176
2.416463007
2.361732721
2.308285876
2.256043889
2.204642902
2.154042927
2.104562837
2.057410087
2.013043694
1.971438747
1.932481847
1.895480895
1.859332819
1.822964752
1.786299249
1.749770824
1.713888529
1.679862908
1.648149986
1.61788569
3.303295285
3.215369389
3.130740199
3.047352045
2.964801162
2.88462934
2.808252517
2.734855445
2.665416133
2.600467014
2.534886309
2.471636732
2.411707507
2.35495271
2.298646911
2.246282898
2.196849733
2.147248272
2.098275141
2.051423705
2.00726977
1.96526062
1.924958731
1.887155523
1.851980694
1.816930109
1.780509736
1.744295377
1.709843471
1.676298316
1.643021429
1.611399016
3.294862032
3.208195862
3.123364571
3.039278291
2.957091417
2.878354994
2.80266952
2.728785751
2.657994335
2.596273735
2.53942868
2.477793828
2.414602743
2.351028243
2.293051584
2.238791506
2.186543515
2.137271673
2.090657244
2.0454299
2.001669853
1.959063465
1.918174604
1.880139011
1.845143741
1.810938374
1.775488733
1.739696353
1.70452467
1.66977462
1.63600021
1.604510797
3.291431818
3.207491496
3.121590261
3.036475929
2.954656667
2.875895811
2.799229574
2.725652006
2.656537889
2.59100087
2.525167364
2.462120508
2.400896026
2.342327752
2.285801994
2.230267774
2.178315095
2.130370238
2.083835
2.03871547
1.995584005
1.953683989
1.913039869
1.873600107
1.836072826
1.801157301
1.767264286
1.732758562
1.697828518
1.663919109
1.631387283
1.599486723
3.268941513
3.185667971
3.103299961
3.022552615
2.94357686
2.866154103
2.790122616
2.716579417
2.648427517
2.584462853
2.521861484
2.459771729
2.398314728
2.339536061
2.281571046
2.225446859
2.172176965
2.121914008
2.076228806
2.032761369
1.989587115
1.947826131
1.906952385
1.866631183
1.828090764
1.79243752
1.759446561
1.726772516
1.69325482
1.659515196
1.626365159
1.594942757
3.247379952
3.165985462
3.085748714
3.007242907
2.930139348
2.854267811
2.779788677
2.707665317
2.640080632
2.577218532
2.519893318
2.463592203
2.40362706
2.340454331
2.278913498
2.221193436
2.166942021
2.117072754
2.070557856
2.025296988
1.982017071
1.941424706
1.901398409
1.861067948
1.821733044
1.784706828
1.750714141
1.718333632
1.686460358
1.654258931
1.62190523
1.59040833
3.223471133
3.145179121
3.068388771
2.993054517
2.918828368
2.84586041
2.774801889
2.705598494
2.637681616
2.572260351
2.509329723
2.447236316
2.3879255
2.331184961
2.274972842
2.217864506
2.163150194
2.112437704
2.064798312
2.019815601
1.976594713
1.934183088
1.893876695
1.854466415
1.815406524
1.777945854
1.742245437
1.709187132
1.678507696
1.64845734
1.617274067
1.585365467
3.19650033
3.120860978
3.046853685
2.974289017
2.902901775
2.8323792
2.763147954
2.695886928
2.630015907
2.565176171
2.501518251
2.440574103
2.382836788
2.327913839
2.273017182
2.216609685
2.162069879
2.110626253
2.062092509
2.015596922
1.971156181
1.928461159
1.888290644
1.849404631
1.810143383
1.772344939
1.736946491
1.704288235
1.672092119
1.640953423
1.611100434
1.580425995
3.172106866
3.098495743
3.026435268
2.955689531
2.886298637
2.817611862
2.749527013
2.682998003
2.618557726
2.556272708
2.49555009
2.4364103
2.378834183
2.321031077
2.267670696
2.220069749
2.168033737
2.115385641
2.063968515
2.015941437
1.969609795
1.924074481
1.881096891
1.842783394
1.806443858
1.769863636
1.734780701
1.701013784
1.66756307
1.634444502
1.604384321
1.575390023
3.144674052
3.072971348
3.003145952
2.93433852
2.866615751
2.799880012
2.734430548
2.67046646
2.607054968
2.544447454
2.484067598
2.425792354
2.369089594
2.314486877
2.262063324
2.207713211
2.155171128
2.104046466
2.05538456
2.009023727
1.964224852
1.9198031
1.876233653
1.836853891
1.804113508
1.772351011
1.737978549
1.70156799
1.664207512
1.629917642
1.599015367
1.570790375
3.120815263
3.049930822
2.980511725
2.911884244
2.844419092
2.778672789
2.715148987
2.653124683
2.591169358
2.529677892
2.472400542
2.418849936
2.363737198
2.309384416
2.256186437
2.203213956
2.152016725
2.101250324
2.050991235
2.00331299
1.959924679
1.91785681
1.875234048
1.835444769
1.797833079
1.760607294
1.725928142
1.692097184
1.658874353
1.626179744
1.593428822
1.564412001
3.093090406
3.023918794
2.956862338
2.890954853
2.825768695
2.761683682
2.699248769
2.637525226
2.576495981
2.517798749
2.462734957
2.40899333
2.355904983
2.303480698
2.249823602
2.195935952
2.144130108
2.095955153
2.04864356
2.001276664
1.955439337
1.914304878
1.878251555
1.837318865
1.794577008
1.756616111
1.722256413
1.688625707
1.655121756
1.622081447
1.590088823
1.559806428
3.064895652
2.997274121
2.931914384
2.867798175
2.804211963
2.741459236
2.679645269
2.618633011
2.559152328
2.501643085
2.446299976
2.394689885
2.34640046
2.296437848
2.243912793
2.191801717
2.140962608
2.091376699
2.043904738
1.997530023
1.952571398
1.910940765
1.869423084
1.829871982
1.790795938
1.752995742
1.718078211
1.685625201
1.653125209
1.620863091
1.589263998
1.556854786
3.037406512
2.972186176
2.909552288
2.847831875
2.785855323
2.723713806
2.661252163
2.599640642
2.540762732
2.485633963
2.433600791
2.383011702
2.332791975
2.282505255
2.232415364
2.182626262
2.1327753
2.082886045
2.03591172
1.993639707
1.950894612
1.907393059
1.864904716
1.825312855
1.788043296
1.752585401
1.716306936
1.680255626
1.650564545
1.623201233
1.592870181
1.559164825
3.010341123
2.946651329
2.886120471
2.826160529
2.765205731
2.703647937
2.642096592
2.581875817
2.523933183
2.468716049
2.416079461
2.365482096
2.31602417
2.26689227
2.217999329
2.170156698
2.12374895
2.077992714
2.032727033
1.987655838
1.945265397
1.904714597
1.864399718
1.824229472
1.784970449
1.747693946
1.711809895
1.677573866
1.645515246
1.612288236
1.581457687
1.552140424
2.985607939
2.923384032
2.8646198
2.806084978
2.74580947
2.683642482
2.62084668
2.55985694
2.50263946
2.450487653
2.401793499
2.353850046
2.305820003
2.25797191
2.210263587
2.162256085
2.114719723
2.069424275
2.025801253
1.982988369
1.942059555
1.90145368
1.860841301
1.820730185
1.781323477
1.74273806
1.707603105
1.676174328
1.642751316
1.609789301
1.576973825
1.547693688
2.96156853
2.9009874
2.842761842
2.784760354
2.725645518
2.664865608
2.603467559
2.543670752
2.48751904
2.435376502
2.385760334
2.337632222
2.290280667
2.243047794
2.195379904
2.147381684
2.100657167
2.057096538
2.01647928
1.976824076
1.936599787
1.895763361
1.855375119
1.816359154
1.778805651
1.741973054
1.705868375
1.670807092
1.637189145
1.605468911
1.574467137
1.544764414
2.939374468
2.878863185
2.819537618
2.760459778
2.700907455
2.640904947
2.581174707
2.522395546
2.466164692
2.413862265
2.365702537
2.320022009
2.274749447
2.229076584
2.183017612
2.137414908
2.093416999
2.050886892
2.009441765
1.969232754
1.929903735
1.89059912
1.851220051
1.812318673
1.774398893
1.738272536
1.703180785
1.668334138
1.634890353
1.602253496
1.570770918
1.540267629
2.912324539
2.853052952
2.795287397
2.73876017
2.681741027
2.623113171
2.563790253
2.50577169
2.451674849
2.401721268
2.354235041
2.307838159
2.261979344
2.216166997
2.170111273
2.124491448
2.080252852
2.037767865
1.997195119
1.958387091
1.920728534
1.883142591
1.845264229
1.807413872
1.769812585
1.733269284
1.699130797
1.66663826
1.63344766
1.599574806
1.567781516
1.538057613
2.888809178
2.829583938
2.771100691
2.713767134
2.657259319
2.600586492
2.543593036
2.487500474
2.433930722
2.383082046
2.334502319
2.287848134
2.242597006
2.197910733
2.15353425
2.110027181
2.067736861
2.027148875
1.988420411
1.950901801
1.914077198
1.876986776
1.839551313
1.802919119
1.767577126
1.732671301
1.697557204
1.663444254
1.630620731
1.598719684
1.567326521
1.536616949
2.858073191
2.801617112
2.745177002
2.68983273
2.635679747
2.580871238
2.524735542
2.469087136
2.41636605
2.367062925
2.320453881
2.275771885
2.232049772
2.188296607
2.144154418
2.099938418
2.056674412
2.015604242
1.976896042
1.939637367
1.903111958
1.867010407
1.831787493
1.796690219
1.761479672
1.726823198
1.692841385
1.659235026
1.625855772
1.595162611
1.566862087
1.536801475
2.828801734
2.774682539
2.72126955
2.668602859
2.615065103
2.56056286
2.505753346
2.452056595
2.400576235
2.35141139
2.304482918
2.259415498
2.215185021
2.170846026
2.126209411
2.081899183
2.039301333
1.999430996
1.96212879
1.926706928
1.892366085
1.8581281
1.823234612
1.787921378
1.752623037
1.718157794
1.685838561
1.655002862
1.62445638
1.593734298
1.562293389
1.532442555
2.798618481
2.747873804
2.696788935
2.644899547
2.592037779
2.538169854
2.483408442
2.429397147
2.377947265
2.329656236
2.284337181
2.241084083
2.198524194
2.155961801
2.11349078
2.071411283
2.030406935
1.991155941
1.953924839
1.918518314
1.883324204
1.847297846
1.812083988
1.778994498
1.7467543
1.714612868
1.682356224
1.650671603
1.62041242
1.590257795
1.559325143
1.528884272
2.769844132
2.7212238
2.673121046
2.623867071
2.572494897
2.519235711
2.465325537
2.412935825
2.363358705
2.31659752
2.272117807
2.228901824
2.185912538
2.142837653
2.099799535
2.057127866
2.015490549
1.975745684
1.93834467
1.902674813
1.868233374
1.836692697
1.80626706
1.773282256
1.739212348
1.706153478
1.673986565
1.64288794
1.612830565
1.584524345
1.557250764
1.529101201
2.742326788
2.694965375
2.646562363
2.596104046
2.543976848
2.491106812
2.43886729
2.388473056
2.340398704
2.294672502
2.250961275
2.208388234
2.165983564
2.123565532
2.081615608
2.040741247
2.001145474
1.963309967
1.927723192
1.893907872
1.861901646
1.829913737
1.795901367
1.761176592
1.727142983
1.695176004
1.666017951
1.63831508
1.610216418
1.581494483
1.552372902
1.523912199
2.713101183
2.666875784
2.620482208
2.572772737
2.522907016
2.471137846
2.419023268
2.368887459
2.321999072
2.278227818
2.23671324
2.196152634
2.1554798
2.114457181
2.073173924
2.031841058
1.991320266
1.952935421
1.9167971
1.88227907
1.848947824
1.815496636
1.782773023
1.751830314
1.721227536
1.690798378
1.660743597
1.631239057
1.602185318
1.573231453
1.544510941
1.517576126
2.687516839
2.642258183
2.595111067
2.545895669
2.494869135
2.443226498
2.393202903
2.346322248
2.302390048
2.260456616
2.219822162
2.179726833
2.139325171
2.098147794
2.056165046
2.014169412
1.973729663
1.936118861
1.901272745
1.869079042
1.838651053
1.807868203
1.776550719
1.744371973
1.711941498
1.680305646
1.649690191
1.620770977
1.594036728
1.567929178
1.541617889
1.515034624
2.655071451
2.611528416
2.565512059
2.517516887
2.468173656
2.418688547
2.370932632
2.325451686
2.281772926
2.240239058
2.200772859
2.1622321
2.123159492
2.082999319
2.042287305
2.002189261
1.963861391
1.927989587
1.894167903
1.861381292
1.828634149
1.795762469
1.763007456
1.73055169
1.700006457
1.671927286
1.644040191
1.616675568
1.589159155
1.561319029
1.534142456
1.507005381
2.585799659
2.540623739
2.492758068
2.443128766
2.393700966
2.34694156
2.304209284
2.264986721
2.226851048
2.188628978
2.150058046
2.110843261
2.070890152
2.030406602
1.990139366
1.95122294
1.914420989
1.879363979
1.845470407
1.812803716
1.782351718
1.753390348
1.723936367
1.694396993
1.664181067
1.634294491
1.605992278
1.578297231
1.551817478
1.527034129
1.502300645
2.553346516
2.509532208
2.462371594
2.413810921
2.366711003
2.322993246
2.282003304
2.242451465
2.203675
2.165215267
2.126864412
2.088385044
2.049322797
2.009669895
1.970496044
1.933115474
1.89816067
1.86564826
1.835390203
1.806138622
1.775767193
1.743847892
1.711801636
1.680391068
1.650602119
1.624446501
1.599041561
1.57330519
1.548315887
1.522833806
1.49639638
2.524591173
2.482175863
2.43807793
2.392489477
2.3469089
2.303075187
2.261695966
2.223715823
2.187736442
2.151480974
2.114396999
2.076405407
2.037562949
1.998588375
1.960681175
1.924710855
1.890956393
1.858712242
1.826837822
1.794098506
1.760596808
1.728223139
1.698984316
1.671743449
1.644660327
1.616797083
1.589334887
1.563532445
1.53846103
1.51290248
1.486996687
2.491144603
2.450289885
2.406688488
2.361090754
2.315999978
2.274422618
2.23880237
2.205167106
2.169625653
2.132526269
2.09481088
2.056763847
2.018469571
1.980421013
1.943798787
1.909031279
1.87562022
1.842877797
1.810692308
1.779982377
1.75160165
1.72246946
1.692299792
1.661340024
1.631054433
1.603590766
1.579980687
1.556630407
1.532444128
1.507925639
1.483111819
2.459983834
2.421413793
2.380729497
2.338581015
2.297538499
2.258827341
2.220474015
2.182197518
2.146009765
2.111149469
2.075746218
2.038802736
2.001094991
1.963944397
1.927486911
1.892327109
1.860120284
1.830565018
1.802267974
1.773685849
1.742158467
1.709145672
1.676694603
1.646682976
1.621388853
1.597271768
1.572103071
1.547130302
1.52305523
1.498922426
1.473445046
2.430718757
2.391838978
2.351003901
2.309581891
2.269073542
2.230349787
2.195440134
2.164381897
2.132527326
2.098585341
2.06265443
2.02517395
1.986934628
1.949183953
1.9137865
1.881690753
1.851881993
1.822635518
1.792508948
1.760274788
1.728273992
1.698616962
1.66958226
1.641265156
1.612730373
1.585327277
1.560949807
1.537680177
1.513194048
1.487800572
1.462600224
2.399751374
2.361647296
2.323079478
2.283819806
2.245456702
2.209376469
2.175347351
2.141158042
2.107268838
2.073139783
2.037898
2.001098064
1.96332192
1.926918806
1.894348909
1.864004789
1.834236604
1.804370074
1.774601215
1.747592854
1.720212051
1.690216417
1.659665666
1.630444645
1.603983123
1.57948485
1.555007781
1.529016238
1.503962721
1.480871334
1.457916236
2.367078224
2.332122134
2.296175641
2.258214412
2.22007879
2.183599575
2.149750066
2.119300438
2.089652576
2.05821547
2.024438471
1.98857808
1.952305235
1.917484478
1.883896493
1.852448247
1.823394502
1.79526541
1.766820898
1.736199219
1.704376128
1.674226664
1.645893174
1.618972735
1.593172021
1.567222224
1.541308331
1.518256817
1.496498682
1.4728966
1.4487317
2.333656422
2.300942838
2.264041594
2.225215138
2.187975566
2.155401386
2.126774771
2.097796103
2.066892075
2.034519284
2.00090821
1.966285636
1.931481429
1.897484702
1.866439876
1.838460465
1.809667825
1.779013329
1.747974865
1.719063423
1.693956824
1.667836457
1.641094748
1.614541772
1.588058577
1.561977115
1.536701815
1.510848473
1.484292119
1.460019949
1.438308137
2.306205395
2.269566921
2.23491093
2.201694666
2.170365499
2.140319527
2.1095743
2.077849524
2.046276781
2.014588955
1.982241085
1.949473906
1.917327495
1.886280667
1.85590731
1.823828464
1.793206499
1.765166933
1.73841554
1.711791337
1.683312658
1.655036862
1.628308928
1.602201355
1.575782096
1.549135796
1.522658055
1.496889541
1.475168405
1.455073278
1.435159969
2.26888745
2.232371718
2.199472816
2.16938971
2.140967619
2.113260541
2.085259619
2.056191295
2.025550689
1.993704955
1.961672956
1.92980867
1.89818447
1.86690688
1.837352689
1.811159658
1.784577792
1.755652353
1.725485329
1.695872206
1.669358853
1.645508666
1.620348752
1.593834501
1.567055327
1.540860349
1.51608333
1.493097836
1.470498967
1.448054306
1.426685186
2.230748263
2.204216791
2.177087421
2.148267328
2.118836641
2.090283174
2.062109026
2.033293387
2.004350931
1.974982655
1.94421253
1.912382006
1.881232434
1.852142746
1.824618494
1.795653077
1.766186031
1.737946251
1.711719541
1.688047386
1.663047618
1.635123838
1.607111163
1.579655448
1.553178217
1.528012545
1.504776691
1.482758856
1.46132462
1.442063504
1.421904516
2.202254676
2.173167636
2.142573623
2.112513687
2.084334823
2.058821446
2.035534847
2.012720883
1.988010989
1.959259315
1.926722314
1.892799232
1.859868082
1.829006953
1.800676047
1.775677353
1.753579673
1.730853814
1.706790015
1.679408958
1.650999147
1.623312523
1.595595928
1.567817328
1.541484919
1.517689426
1.497389069
1.478793839
1.45935736
1.438164117
1.415150182
2.167954263
2.138841791
2.1089197
2.079911164
2.054701471
2.034143061
2.01480392
1.993269626
1.968260891
1.939394156
1.907285056
1.873270664
1.840505186
1.812055011
1.788041058
1.766147023
1.743643416
1.719575263
1.694104257
1.668452855
1.641838179
1.612679523
1.582550681
1.554610176
1.531217637
1.511174513
1.492195106
)
;

boundaryField
{
    inlet
    {
        type            calculated;
        value           nonuniform 0();
    }
    outlet
    {
        type            calculated;
        value           nonuniform 0();
    }
    bottom
    {
        type            calculated;
        value           nonuniform List<scalar> 
32
(
3.119902462
3.045145743
2.977682785
2.915043814
2.855124039
2.796776713
2.739559417
2.683494349
2.628643354
2.574719567
2.521403039
2.46837268
2.415221654
2.361410485
2.30622399
2.2508352
2.19614259
2.142100659
2.089474908
2.038965863
1.990849192
1.944822958
1.90179008
1.86203965
1.824815248
1.79031274
1.758570513
1.729375985
1.702304253
1.676977373
1.65251699
1.627784995
)
;
    }
    top
    {
        type            calculated;
        value           nonuniform 0();
    }
    obstacle
    {
        type            calculated;
        value           nonuniform 0();
    }
    defaultFaces
    {
        type            empty;
    }
    procBoundary4to3
    {
        type            processor;
        value           nonuniform List<scalar> 
62
(
3.200082031
3.217078246
3.266414573
3.337551532
3.435843316
3.522581246
3.587995327
3.627436443
3.645988648
3.650619517
3.662375651
3.643080399
3.630358212
3.612588221
3.596101471
3.580762658
3.566292189
3.550349732
3.53083283
3.510128648
3.491167676
3.475181363
3.462085196
3.450716198
3.439763407
3.433493599
3.42157177
3.413617655
3.407099714
3.395370193
3.384593782
3.375176832
3.353185841
3.329807175
3.303336954
3.273963353
3.247647624
3.219397643
3.194594826
3.166101305
3.136475636
3.106806952
3.078268322
3.051956336
3.025582777
3.000994136
2.972465971
2.947732965
2.914651172
2.883917987
2.850463252
2.820066057
2.79022261
2.7593701
2.730961725
2.696480681
2.628256943
2.628256943
2.593740902
2.565196936
2.530770357
2.497099355
)
;
    }
    procBoundary4to5
    {
        type            processor;
        value           nonuniform List<scalar> 
69
(
1.602189938
1.60985274
1.605071239
1.605256286
1.606441708
1.610815967
1.617430636
1.623339599
1.631313819
1.63803059
1.641927667
1.649496451
1.642810972
1.643626404
1.650404845
1.641023348
1.637803614
1.637888395
1.643030469
1.63172506
1.626186625
1.625490798
1.621511291
1.617695459
1.612285489
1.607562207
1.601617298
1.594286407
1.588490056
1.582059279
1.575459899
1.569417495
1.565704364
1.559906319
1.554708781
1.549925311
1.545221296
1.542129398
1.541065215
1.530283464
1.525627193
1.524862429
1.52303391
1.523712556
1.51479181
1.510485222
1.510348364
1.506774992
1.506395156
1.504358439
1.50076957
1.500743514
1.495789638
1.492160017
1.487901865
1.479948064
1.477370055
1.469842008
1.462052264
1.457602647
1.447025658
1.438416486
1.43495506
1.42591316
1.419161695
1.415023904
1.404987474
1.399949496
1.39112335
)
;
    }
    procBoundary4to9
    {
        type            processor;