/*--------------------------------*- C++ -*----------------------------------*\
  =========                 |
  \\      /  F ield         | OpenFOAM: The Open Source CFD Toolbox
   \\    /   O peration     | Website:  https://openfoam.org
    \\  /    A nd           | Version:  7
     \\/     M anipulation  |
\*---------------------------------------------------------------------------*/
FoamFile
{
    version     2.0;
    format      ascii;
    class       volScalarField;
    location    "1";
    object      T;
}
// * * * * * * * * * * * * * * * * * * * * * * * * * * * * * * * * * * * * * //

dimensions      [0 0 0 1 0 0 0];

internalField   nonuniform List<scalar> 
2222
(
2.120226381
2.088576393
2.055611613
2.020762291
1.98428752
1.947159452
1.910471576
1.875033529
1.841300133
1.809532884
1.779963614
1.752786411
1.728119475
1.705972566
1.686189564
1.668954628
1.654165263
1.641036281
1.628943315
1.617843653
1.607106743
1.595965089
1.58393176
1.570331174
1.554601617
1.536908258
1.517754062
1.497837434
1.477913916
1.458724205
1.440693373
1.42397133
2.113135805
2.082203135
2.049565385
2.014783982
1.97864544
1.942444961
1.907072623
1.872802219
1.839885663
1.808627631
1.779335045
1.752251073
1.727559818
1.705276574
1.685333523
1.667905097
1.652970691
1.640236298
1.62897994
1.618478199
1.608344115
1.598317599
1.587253998
1.57379123
1.558049927
1.540351032
1.521190828
1.501235298
1.481216169
1.461873889
1.443700811
1.426882858
2.08872768
2.061724081
2.032643998
2.00049737
1.965941018
1.930751761
1.89627105
1.863049091
1.831417805
1.801646041
1.773806769
1.74781446
1.723690922
1.701597343
1.681767265
1.66439445
1.649309288
1.636447759
1.625404837
1.615255683
1.605441818
1.595135112
1.583394346
1.569910886
1.55439596
1.536920952
1.517911241
1.498022921
1.477946957
1.458461139
1.440274641
1.423668834
2.040786453
2.020380738
1.99874107
1.974220844
1.945789925
1.914104764
1.881084815
1.84837995
1.817045762
1.787614411
1.760236997
1.734827412
1.711284336
1.689820713
1.670713156
1.653923522
1.639453664
1.627243031
1.616839476
1.607559297
1.598533988
1.58860915
1.577217465
1.564258162
1.549407394
1.532557221
1.514048688
1.494556656
1.474738628
1.455316231
1.437095622
1.420532065
1.982783039
1.966427188
1.94949878
1.930070182
1.907459029
1.881826068
1.854236976
1.825738866
1.797291811
1.769486541
1.742659667
1.717224864
1.693597114
1.672088516
1.65303057
1.636575022
1.622854281
1.611658032
1.60240842
1.594214529
1.586138101
1.577339673
1.567222523
1.555427473
1.541734715
1.5259942
1.508423658
1.489760472
1.470688261
1.451717741
1.433534388
1.416791535
1.927709256
1.913215913
1.89941626
1.883694807
1.865271711
1.843963781
1.820380356
1.79546854
1.770048349
1.744727583
1.719881936
1.695931912
1.673337853
1.652475297
1.63380795
1.617654991
1.604224816
1.593340192
1.584628786
1.577137183
1.569788039
1.561980124
1.553172065
1.542820856
1.530626377
1.516390196
1.500121151
1.482483607
1.464381871
1.446335654
1.428753692
1.412178985
1.88734571
1.871450337
1.857034537
1.842156613
1.825901158
1.807559087
1.787135559
1.765245625
1.742372122
1.719247578
1.696142143
1.673436732
1.652014903
1.63240176
1.614852997
1.59941011
1.586261404
1.575350261
1.566503061
1.559210141
1.552333222
1.545117475
1.537136392
1.527861338
1.516941961
1.504184102
1.489433001
1.473073914
1.456020628
1.43888087
1.421920434
1.4057125
1.860912059
1.842768867
1.826822702
1.810963339
1.794552462
1.777428283
1.758879354
1.739237523
1.718857305
1.697453415
1.675804392
1.654446502
1.63444465
1.616229903
1.599663869
1.584641094
1.571344071
1.559963578
1.550381171
1.54235977
1.535205101
1.527853587
1.520047137
1.51140951
1.501499481
1.490053564
1.476816407
1.461867694
1.445986354
1.429927022
1.413739284
1.3977351
1.845659259
1.826239844
1.808695352
1.790970761
1.773341744
1.755969967
1.737949647
1.719331851
1.700572239
1.680778654
1.661054241
1.641980707
1.623634266
1.606502421
1.590630846
1.575812682
1.562169435
1.550071434
1.538909462
1.528865305
1.520961894
1.51321942
1.504846461
1.49629289
1.486846732
1.476094525
1.46390145
1.450034007
1.434940636
1.419727847
1.404821133
1.389880714
1.838644323
1.818343954
1.799184259
1.780434753
1.761502997
1.742679395
1.724478567
1.706588145
1.688864714
1.671118829
1.653024906
1.635558839
1.618261136
1.601621349
1.585924819
1.571113081
1.557178245
1.544127761
1.531846919
1.520518027
1.51082944
1.501975571
1.49282472
1.48347752
1.473570513
1.463085548
1.451707925
1.438696328
1.424278325
1.409796692
1.396098825
1.382399361
1.838815059
1.81712691
1.795150719
1.775036685
1.755196138
1.736101908
1.718024485
1.700247627
1.682263356
1.666483593
1.651295808
1.635193041
1.619068284
1.602931797
1.587269234
1.572378165
1.558223161
1.544721814
1.532294536
1.520636079
1.508493504
1.495772212
1.48441451
1.474047553
1.463620955
1.452803629
1.441536311
1.429832062
1.416986466
1.403790155
1.391048883
1.378292918
1.833446819
1.812031619
1.791405469
1.772582191
1.754687876
1.736522789
1.718431138
1.700618575
1.68222146
1.663338374
1.645863038
1.629624044
1.61398516
1.598029994
1.582277307
1.567359184
1.553189861
1.539498279
1.52704473
1.515255305
1.502290678
1.49129809
1.482349882
1.472360697
1.46109812
1.447879896
1.434622406
1.42333411
1.411407477
1.398943062
1.386561488
1.376917117
1.832292137
1.811358795
1.790700214
1.770331754
1.750929952
1.732200802
1.713673743
1.695349596
1.678159803
1.661000098
1.643891091
1.627462367
1.611706201
1.595925793
1.580245917
1.56527295
1.55099429
1.53722112
1.524207373
1.511943819
1.499253577
1.48832624
1.477134764
1.465893134
1.454791105
1.442300861
1.430382402
1.419031765
1.409534522
1.399012487
1.387226159
1.37485722
1.831409567
1.811137678
1.7905297
1.770211159
1.750700242
1.73175194
1.71288032
1.693932557
1.676399245
1.6608209
1.644960467
1.628505087
1.611519175
1.595965129
1.581151194
1.56633379
1.552172621
1.538653619
1.524886092
1.510714749
1.498242835
1.486633898
1.474714197
1.462597378
1.451106919
1.44147505
1.430839662
1.41785651
1.405618625
1.394103729
1.383185783
1.372631674
1.831720699
1.811358618
1.790848753
1.770506431
1.750824736
1.731543964
1.712541476
1.694115881
1.675957096
1.657911471
1.640746315
1.624376824
1.608670939
1.593201608
1.577762802
1.562785855
1.548480876
1.534828011
1.521246219
1.508742141
1.498883104
1.487748416
1.476067296
1.463074805
1.449290294
1.437226355
1.426024437
1.415000877
1.403122831
1.391583716
1.38067779
1.372016561
1.832412287
1.811921934
1.791442479
1.770988147
1.751133102
1.731741841
1.712560058
1.693939358
1.67573293
1.657911829
1.640590532
1.62382416
1.607943478
1.592613539
1.577865814
1.563346397
1.549079136
1.534957531
1.521075044
1.508496965
1.495882579
1.483467927
1.471318085
1.459790232
1.447663307
1.435487523
1.423615347
1.413727657
1.40389817
1.39314725
1.381860456
1.369805041
1.833356739
1.812732125
1.792149739
1.771652558
1.751563565
1.73185931
1.712727363
1.694320673
1.676204229
1.658373329
1.64091485
1.624315703
1.608633088
1.593527779
1.579171575
1.565122116
1.550613557
1.535676806
1.521630001
1.508556882
1.495743017
1.48301754
1.469902834
1.458211788
1.448087902
1.436651085
1.424690463
1.411911851
1.399905441
1.389075266
1.378760522
1.368214428
1.833803354
1.813158277
1.792594872
1.772116646
1.751848236
1.732121133
1.713264107
1.69489476
1.676714697
1.658855134
1.641498118
1.6249638
1.609133633
1.59382717
1.578829317
1.564041399
1.549472079
1.535168961
1.521509063
1.508736434
1.496544139
1.483514658
1.470111352
1.457669538
1.445202881
1.433134845
1.421731818
1.410620411
1.399025908
1.388247705
1.378117013
1.36806223
1.833597779
1.813097072
1.792699638
1.772351883
1.752148292
1.732587411
1.713848345
1.695544242
1.677524837
1.659855252
1.642766539
1.626312589
1.610344526
1.594899129
1.579826555
1.56502466
1.550369667
1.536211755
1.522551162
1.508862242
1.495272641
1.482718603
1.47053068
1.458128114
1.445676962
1.433520946
1.42142776
1.409952398
1.400005963
1.389553168
1.3793515
1.369557731
1.833094296
1.812939161
1.792828515
1.772702369
1.752746605
1.733340429
1.71456823
1.696366856
1.678587489
1.661162789
1.644219641
1.627740258
1.611705024
1.596231451
1.581191854
1.566482833
1.552067302
1.537866055
1.523662846
1.509362362
1.495273404
1.482545361
1.471878742
1.460068668
1.447840741
1.435406092
1.422416615
1.409698218
1.397221692
1.386141348
1.375732982
1.365698554
1.832626137
1.81285166
1.79298767
1.773087702
1.75336961
1.734002259
1.715086307
1.696852234
1.679315655
1.662286748
1.645551393
1.629072849
1.612995225
1.597456584
1.582442611
1.567893815
1.553580583
1.539199981
1.524606996
1.509958138
1.495980051
1.482785417
1.469411668
1.45677134
1.444698526
1.432782239
1.421229713
1.409895412
1.398164759
1.38697886
1.376293715
1.365878542
1.831941233
1.812498839
1.792886495
1.773266134
1.753759991
1.734372272
1.71522997
1.696828822
1.679486528
1.662880273
1.646517039
1.630271706
1.61428155
1.598674905
1.583613809
1.569106103
1.554841133
1.540486962
1.525921609
1.511403696
1.49736683
1.483541929
1.470120914
1.457427218
1.445239151
1.433363743
1.421651704
1.410433638
1.40061618
1.389381809
1.377779565
1.366928533
1.830435246
1.81132491
1.79199764
1.772634246
1.753320513
1.734093456
1.715094397
1.696702767
1.679271397
1.662706245
1.646658209
1.630844292
1.615173255
1.599761541
1.584787098
1.570176129
1.555749154
1.541399647
1.52703579
1.512788338
1.498751038
1.48486161
1.471384315
1.458320489
1.445675748
1.433758898
1.422646143
1.411426627
1.399598497
1.388408282
1.377413786
1.366739715
1.827433316
1.808717549
1.789765393
1.770823586
1.752019559
1.733264634
1.714668973
1.696464364
1.678947332
1.662363342
1.646568043
1.631198683
1.615905402
1.600723892
1.585721221
1.570831064
1.556146854
1.541796223
1.527770183
1.514072803
1.500415853
1.486600071
1.472865629
1.459511495
1.446913401
1.435049625
1.42335505
1.41176147
1.400235438
1.389421963
1.378909457
1.368259313
1.822462704
1.804433634
1.786137575
1.767791283
1.74975634
1.731792067
1.713853035
1.696084911
1.67863473
1.661720776
1.645750156
1.630559377
1.61564601
1.60086057
1.586100423
1.571228102
1.556498279
1.542270431
1.528514192
1.514943735
1.501341178
1.487716383
1.474223403
1.461034436
1.448247359
1.435889811
1.424140591
1.412970972
1.402037827
1.391112681
1.380206051
1.369420087
1.816991771
1.799344078
1.78146008
1.764172781
1.747103151
1.730063397
1.712842014
1.695443655
1.67804232
1.66081736
1.644405718
1.629296729
1.615033685
1.600867771
1.586403432
1.571657139
1.556910923
1.542465012
1.528425238
1.51471405
1.50137174
1.488362971
1.475410139
1.462401076
1.449590269
1.437321655
1.425624357
1.414119762
1.40273555
1.391718709
1.381147515
1.37086895
1.806136374
1.789999576
1.774461715
1.758884075
1.743121339
1.727589903
1.711485962
1.69420041
1.676844652
1.659929399
1.643759867
1.62856171
1.614171139
1.600129368
1.585910412
1.57146875
1.556980901
1.542634541
1.528619548
1.514935863
1.501594979
1.488654972
1.476096309
1.463618287
1.451071986
1.438583559
1.426401602
1.414712432
1.403753036
1.39349761
1.383408459
1.372935774
1.797032317
1.781862428
1.767383405
1.752529032
1.737139097
1.721428515
1.706108451
1.690935578
1.674852762
1.658654022
1.642644796
1.62718612
1.612546704
1.598558312
1.584828393
1.570957922
1.556895829
1.542759578
1.528683184
1.514869993
1.501350528
1.488284024
1.475852975
1.463827686
1.451723611
1.439524822
1.427787971
1.416604117
1.405504927
1.394372421
1.383495826
1.373040325
1.789121103
1.774982188
1.76054253
1.745628628
1.730197712
1.714681803
1.699882967
1.686607625
1.672899815
1.656684299
1.640500853
1.625267539
1.611026772
1.597292502
1.583661979
1.570091749
1.556410378
1.542504674
1.528483949
1.514743462
1.501377353
1.488403135
1.475992004
1.464137477
1.452516872
1.440759742
1.428860399
1.4170502
1.405550408
1.394451168
1.383835158
1.373734006
1.777744079
1.763056837
1.748802009
1.734804795
1.720997027
1.707079363
1.693264335
1.679309963
1.665548797
1.652143436
1.637467524
1.623023601
1.609250881
1.595541366
1.581550869
1.568290287
1.555456063
1.54210127
1.528433007
1.514847476
1.501585325
1.488586475
1.475841877
1.463669339
1.452222076
1.440967576
1.429312845
1.417638191
1.406476422
1.395584541
1.384552847
1.373826049
1.770000421
1.754911327
1.740229119
1.725962337
1.712201617
1.698844113
1.685601277
1.672116876
1.658758413
1.646860456
1.635615623
1.622409002
1.608088251
1.593166231
1.579331996
1.566205792
1.553155949
1.540348817
1.527658812
1.514668626
1.5015945
1.488530988
1.475713154
1.463534617
1.452209345
1.441183539
1.429833182
1.418315127
1.406862945
1.395490952
1.384353243
1.373669893
1.764995908
1.749678847
1.734169335
1.719171161
1.705111998
1.691645505
1.678262661
1.665081007
1.652428991
1.640165073
1.627483596
1.614426714
1.600998895
1.588217658
1.575550945
1.562683831
1.550275797
1.538475615
1.526365429
1.513827033
1.501179774
1.488478027
1.475893224
1.463446605
1.451460597
1.44018908
1.429202258
1.418052671
1.406742256
1.395574605
1.384719019
1.373874527
1.757475805
1.741341035
1.725881435
1.711191473
1.697132275
1.683485546
1.669970886
1.656627457
1.644180909
1.632400955
1.620372663
1.607802032
1.595398706
1.583587092
1.57126453
1.558887854
1.546854166
1.535085088
1.523783519
1.512294119
1.50015575
1.487892178
1.475476374
1.46288928
1.450623877
1.439163438
1.428532763
1.418003255
1.407089384
1.395925531
1.384755376
1.374020771
1.752526969
1.736022684
1.720085742
1.704870294
1.69024731
1.676081249
1.662248365
1.648772983
1.636081501
1.624276002
1.613739608
1.603455458
1.592013648
1.579216416
1.56639841
1.554216176
1.542494202
1.531385042
1.520575939
1.509343406
1.497835707
1.486405417
1.474578935
1.462251042
1.449950674
1.438216466
1.427413016
1.417001291
1.406491657
1.395731687
1.384831331
1.374066804
1.74839787
1.731843939
1.715791734
1.700299278
1.685308536
1.670804684
1.656840353
1.643270464
1.629896746
1.617053533
1.60489707
1.593423311
1.58229947
1.571349761
1.560417544
1.548794804
1.537448997
1.526785828
1.516329778
1.505833098
1.495063053
1.483771239
1.472398367
1.460771611
1.448855393
1.437186482
1.425945322
1.415363123
1.405304237
1.395253546
1.384743216
1.373891927
1.744456714
1.727904911
1.711748826
1.696026806
1.680724149
1.665757188
1.651180806
1.637155405
1.623595783
1.61043276
1.597840868
1.586135544
1.575163878
1.564968137
1.554662725
1.543475851
1.53251961
1.522191984
1.5120719
1.501792708
1.491349373
1.480695999
1.470031199
1.459064509
1.447387843
1.435757322
1.424810301
1.41462709
1.404299808
1.394071947
1.384056806
1.373620055
1.741545628
1.725096513
1.708909478
1.692987256
1.677389003
1.66199373
1.646779027
1.632025017
1.617970474
1.604740581
1.592207244
1.580320608
1.569036247
1.557822518
1.547948255
1.539598983
1.529638336
1.518998043
1.508254509
1.498103035
1.487951633
1.477297363
1.466471432
1.456119077
1.445551683
1.434492442
1.424001758
1.4137741
1.403223862
1.392567538
1.382700901
1.372992498
1.738007229
1.721808284
1.705836009
1.689931968
1.674159773
1.658555912
1.64324303
1.628325688
1.61367591
1.599483108
1.586150646
1.573704479
1.562063234
1.551257762
1.54116645
1.530774244
1.520648093
1.510395443
1.500781145
1.49179285
1.48284019
1.473100563
1.462577949
1.452475153
1.443679709
1.434876547
1.424812533
1.413641054
1.40195661
1.391193765
1.381346709
1.372042812
1.735052468
1.719028778
1.703037996
1.686939737
1.670868157
1.655024346
1.639603875
1.624516501
1.609532376
1.594869888
1.581538079
1.569430566
1.557276619
1.545737869
1.534794273
1.524110662
1.514029468
1.504236539
1.494756553
1.485804998
1.477562707
1.468832088
1.458881479
1.44933158
1.43994338
1.430116217
1.420100953
1.409737973
1.399639166
1.389750269
1.37955136
1.370092207
1.730913054
1.715339034
1.699894873
1.684360507
1.668673834
1.652983189
1.637490366
1.622059939
1.60680584
1.592196839
1.578575148
1.565498147
1.553021142
1.541162326
1.529318186
1.517724905
1.507173444
1.49813817
1.489503862
1.480687552
1.471821443
1.463589861
1.456186546
1.446607819
1.435891712
1.425969278
1.416467286
1.406911404
1.397314402
1.387565091
1.377812453
1.368327991
1.726221709
1.711110236
1.696153622
1.681076254
1.665717249
1.650208531
1.634661073
1.619129586
1.603873107
1.589021964
1.574715198
1.56160939
1.549693752
1.537658351
1.525324459
1.513574784
1.502765853
1.492854275
1.483828458
1.475112961
1.466271878
1.457839893
1.449061906
1.440039049
1.430748866
1.4213114
1.412235214
1.40378117
1.394963744
1.385539758
1.376222453
1.366463157
1.72134249
1.706866133
1.692642927
1.678215414
1.66328899
1.647921619
1.632146744
1.616319859
1.600971315
1.586432217
1.572642345
1.559252376
1.546067516
1.533134369
1.520695143
1.508879547
1.497668028
1.487019448
1.477531444
1.469447424
1.460890563
1.451746953
1.442607154
1.43385493
1.425430895
1.41720078
1.408433582
1.399410831
1.392046206
1.384910583
1.37620141
1.365686096
1.716301479
1.702199048
1.688534548
1.674619755
1.660035918
1.644877771
1.629343563
1.613824124
1.598611445
1.583871184
1.569622939
1.555810969
1.542344921
1.529146358
1.516371834
1.504399195
1.493375477
1.482987064
1.473015385
1.463196288
1.454317132
1.44599629
1.437497034
1.42879542
1.420052996
1.411636882
1.403536439
1.395509918
1.387732835
1.379236087
1.370457571
1.361106454
1.711648357
1.69781353
1.684556802
1.671029772
1.65669943
1.641507364
1.625772366
1.610118157
1.595072031
1.581041545
1.567717044
1.55445499
1.541092142
1.527813967
1.514769321
1.501978134
1.489727832
1.478510702
1.468157473
1.458343813
1.449408113
1.44073105
1.432007273
1.42337836
1.414785809
1.406212133
1.398391684
1.391470086
1.383344442
1.374806128
1.365621234
1.356858958
1.707107413
1.693505526
1.680304482
1.666898647
1.652895457
1.638130687
1.62285479
1.607616765
1.59293055
1.578941012
1.565357291
1.551936233
1.538522045
1.52504579
1.511489378
1.498046801
1.485325915
1.473916355
1.463752437
1.454226159
1.444858776
1.435592564
1.426629977
1.418110057
1.409928573
1.401766786
1.393613984
1.385468095
1.377414265
1.369470764
1.361197748
1.352985788
1.703028384
1.689234146
1.675628612
1.661882045
1.647753599
1.633222131
1.618452057
1.603582226
1.588969175
1.574981373
1.56177105
1.548953821
1.536005206
1.522782104
1.509406119
1.496249891
1.483755718
1.471975243
1.460854429
1.450477533
1.440778839
1.4314329
1.422268906
1.413326264
1.404673615
1.396524304
1.388549573
1.380379314
1.372413975
1.364383775
1.356308556
1.348376529
1.697879655
1.684129164
1.670699922
1.657427519
1.64383831
1.629633828
1.615010255
1.600416828
1.586466848
1.573225108
1.560292437
1.547329545
1.534212523
1.520863396
1.507291599
1.493792748
1.480757608
1.468454099
1.45706034
1.446572263
1.436795387
1.427346718
1.418029118
1.408881214
1.399921823
1.391268654
1.383266165
1.375721227
1.367824334
1.359503754
1.351568816
1.344059009
1.6936233
1.67963719
1.665827502
1.652186392
1.638587433
1.624782805
1.610716033
1.596645292
1.582929169
1.569581047
1.556449056
1.543447839
1.530480283
1.51737551
1.504147826
1.491079624
1.478415787
1.466420888
1.455211781
1.444628479
1.43452312
1.424575062
1.414721286
1.405305314
1.39643028
1.387750107
1.379070006
1.37078613
1.362987929
1.355295687
1.347617808
1.339846721
1.687716473
1.67414172
1.660611301
1.64726921
1.634086042
1.620607851
1.606664952
1.592674332
1.579195164
1.56630294
1.553782705
1.541423681
1.528971864
1.516186442
1.503037116
1.489726287
1.476670296
1.464318636
1.452789789
1.441863327
1.431337178
1.421103393
1.411287278
1.401638287
1.392090049
1.382975367
1.374376753
1.36606996
1.357873774
1.350452231
1.34377232
1.336031684
1.682177034
1.668963473
1.655973019
1.643093327
1.629874892
1.616303025
1.602558784
1.588979023
1.575789643
1.562962986
1.55043851
1.538082164
1.525595767
1.512724389
1.499459375
1.486069158
1.473078561
1.460898723
1.449562989
1.438906848
1.428678401
1.418518796
1.408191099
1.397849541
1.387757937
1.378274275
1.36976849
1.361947613
1.354269487
1.346500337
1.338341485
1.330658761
1.676448934
1.663878198
1.651268541
1.638377737
1.625120071
1.61150951
1.597599857
1.583794855
1.570516205
1.557874042
1.545776346
1.533941462
1.521971859
1.509674283
1.49710862
1.484428985
1.471920305
1.459874525
1.448439807
1.437583121
1.426811543
1.415742009
1.40491834
1.394902171
1.38532709
1.376011775
1.366914451
1.358224717
1.350160805
1.342286113
1.334231331
1.32633615
1.671102932
1.658901043
1.646848155
1.634410371
1.621316945
1.607662877
1.593796457
1.580265231
1.567362455
1.555045327
1.543134603
1.531322429
1.519295988
1.506950986
1.494332665
1.481573548
1.468922648
1.456699691
1.44509918
1.433976836
1.423224001
1.413380144
1.403788573
1.393349029
1.38265082
1.372473938
1.362885405
1.353952113
1.345619498
1.338062956
1.330957478
1.32349893
1.666138777
1.654108747
1.641796999
1.628829145
1.615299318
1.601513926
1.587873899
1.574676963
1.561999738
1.549813029
1.538005213
1.526315612
1.514445493
1.502310404
1.49003598
1.477824389
1.465797313
1.454169711
1.443145715
1.43260667
1.422519986
1.412306893
1.401332662
1.389979198
1.378936549
1.368831134
1.359899648
1.351670724
1.343511788
1.335283638
1.326921345
1.318872447
1.660829622
1.648935143
1.636929762
1.624422845
1.611242048
1.597542046
1.583760642
1.57046524
1.557937855
1.54612086
1.534780004
1.523554347
1.512125001
1.500386786
1.488339976
1.476055783
1.463828504
1.452106239
1.440982012
1.430266422
1.419720356
1.408895388
1.398232699
1.388084841
1.377968774
1.367938602
1.35820053
1.348848359
1.339842361
1.331084147
1.322551491
1.314764819
1.656500465
1.644688248
1.632288248
1.619159855
1.605439839
1.591550634
1.578119691
1.565505049
1.553588642
1.542087288
1.530820939
1.519592496
1.50815517
1.496338696
1.484091727
1.47162683
1.459434573
1.447956877
1.43723288
1.427226758
1.417624674
1.407759377
1.397543859
1.386872721
1.375939661
1.365127194
1.354796159
1.345347004
1.336866902
1.328740218
1.320642057
1.312529217
1.650491779
1.638928935
1.626597637
1.613547854
1.600042342
1.586520943
1.573504907
1.561076021
1.54902725
1.537429192
1.526296338
1.515342739
1.504157635
1.492547514
1.480619786
1.468694968
1.457143704
1.446229375
1.435875194
1.425771475
1.415588004
1.405193749
1.394499928
1.383560993
1.37308478
1.363395776
1.353827186
1.344557773
1.335392768
1.32623771
1.317376802
1.308651567
1.634430017
1.622122403
1.608894405
1.595109722
1.581413508
1.56847818
1.55660415
1.545581671
1.534732403
1.523764176
1.512639164
1.501277163
1.48961813
1.477681123
1.465669486
1.453945489
1.442786905
1.432111706
1.421721704
1.411590447
1.401958298
1.392514874
1.382617002
1.372459983
1.361992909
1.351570414
1.341633598
1.332055985
1.323117967
1.314876467
1.306704114
1.628193756
1.616036053
1.602761175
1.589033129
1.575759301
1.563466202
1.551890369
1.540589588
1.529353944
1.518103781
1.506840813
1.495511124
1.483954065
1.472129859
1.460342067
1.449013177
1.438386623
1.4285028
1.419287287
1.410284865
1.400753015
1.390498994
1.379891277
1.369105316
1.358613613
1.349288317
1.340253109
1.331210295
1.322504104
1.313680776
1.304543678
1.622820417
1.610848833
1.598183624
1.585056261
1.572016525
1.559535827
1.547699142
1.536671641
1.526063703
1.515280247
1.504215334
1.492866753
1.481231396
1.469485776
1.457977192
1.447002588
1.43670267
1.426897239
1.417224813
1.407223425
1.396764511
1.386376284
1.376668293
1.36727224
1.357698108
1.347795502
1.338023242
1.32876796
1.319733038
1.310596877
1.301463806
1.616174122
1.604419782
1.591691993
1.578362286
1.565246752
1.553190153
1.542781432
1.532804871
1.522168113
1.510987015
1.49956783
1.488028437
1.476386451
1.464759627
1.453502069
1.442786639
1.43251718
1.422508183
1.412706652
1.403336394
1.394547607
1.385249557
1.375296288
1.364797813
1.354230879
1.344409746
1.335859178
1.32737286
1.31862595
1.309801517
1.300866723
1.610022121
1.598683088
1.586541271
1.573972162
1.561822682
1.550423869
1.539118981
1.527692513
1.516696224
1.505992128
1.495092969
1.483726655
1.472102123
1.460588837
1.449238182
1.438275245
1.428278169
1.419201293
1.410581975
1.401856946
1.392099847
1.381606143
1.370921075
1.360727757
1.35185624
1.343206851
1.33414588
1.325146593
1.316460598
1.307688465
1.298301868
1.604256868
1.59265067
1.580284005
1.567746809
1.555604927
1.544068575
1.533565168
1.524024478
1.51412618
1.503550448
1.492370781
1.480719201
1.468805326
1.456982665
1.445824959
1.435681209
1.426318299
1.417247074
1.408001383
1.398085909
1.388111684
1.378672653
1.369152969
1.359581519
1.349708362
1.34001525
1.331251019
1.32286525
1.314016445
1.304697947
1.29529217
1.597962833
1.586332715
1.574390757
1.562307365
1.550643396
1.539730133
1.529358471
1.518811237
1.508181167
1.497380306
1.486233546
1.474619932
1.462680542
1.451109625
1.440674136
1.430926984
1.421438167
1.412041186
1.402796759
1.394460896
1.38591625
1.376363631
1.366387521
1.35656052
1.347389763
1.338733353
1.330023838
1.32075676
1.311704063
1.303217898
1.294648816
1.591121462
1.580099434
1.568686205
1.556844758
1.545161815
1.534035858
1.523578514
1.513946353
1.504400369
1.494255103
1.483417736
1.471975324
1.460386514
1.449182653
1.43831865
1.428117409
1.418738057
1.409775112
1.400830734
1.391239445
1.381183251
1.371502373
1.362205349
1.353137889
1.344244932
1.335185135
1.326052982
1.317841947
1.309977193
1.301366826
1.292390216
1.583880877
1.573310784
1.561474253
1.549256011
1.537703334
1.52757293
1.518493659
1.509148076
1.49911046
1.488565401
1.477638246
1.466415374
1.45511087
1.443998493
1.433786297
1.424555769
1.415143604
1.405255067
1.39533494
1.386161009
1.378191799
1.369769055
1.360967498
1.352033543
1.342963483
1.333924886
1.325088639
1.315989274
1.306515709
1.297633531
1.289497931
1.578151828
1.56636529
1.55501772
1.544258446
1.534305274
1.524816196
1.515028618
1.504772267
1.494398529
1.483915203
1.473241105
1.462464956
1.451862381
1.441555579
1.431434227
1.420796743
1.410677794
1.401510549
1.392857069
1.384284228
1.375100089
1.36588248
1.357036562
1.348250536
1.339229181
1.330039306
1.320814856
1.311727393
1.304018523
1.296721066
1.289262427
1.569633399
1.557701987
1.546686425
1.536700286
1.527503619
1.518601044
1.509483432
1.499859546
1.489604758
1.478922143
1.468216669
1.45761396
1.447090047
1.436620142
1.426610342
1.41767167
1.408710901
1.3991337
1.389241325
1.379549093
1.370930325
1.363117005
1.354729224
1.345764407
1.336613702
1.32759606
1.319005383
1.310965295
1.30299503
1.294936224
1.287007311
1.560756402
1.551526152
1.542071855
1.532345721
1.522729409
1.5134664
1.504200002
1.494530205
1.484642886
1.47458193
1.464139902
1.453426966
1.442928824
1.433011497
1.423542238
1.413653804
1.403639591
1.394099584
1.385398704
1.3776216
1.369370679
1.360093175
1.350669072
1.341315758
1.332219082
1.323534349
1.315488979
1.307809551
1.30025671
1.29337111
1.285930428
1.554544149
1.544454325
1.533969853
1.523826716
1.514424385
1.505860699
1.497854962
1.48982709
1.48110624
1.471141217
1.460060795
1.448580744
1.437389523
1.42678632
1.416939643
1.408191737
1.40047182
1.392653656
1.384525129
1.375406104
1.36590688
1.356597037
1.347197663
1.337676313
1.328581507
1.320338346
1.313311432
1.306860838
1.300060159
1.292528928
1.284154473
1.546735092
1.53636573
1.525919377
1.515967853
1.507331891
1.500130687
1.493164533
1.485398947
1.476504963
1.466419747
1.455367131
1.443745182
1.432479834
1.422513352
1.413930687
1.406063903
1.398114786
1.389799082
1.381110579
1.372404097
1.363398246
1.353518017
1.343216631
1.333552961
1.325411915
1.318437375
1.311865508
)
;

boundaryField
{
    inlet
    {
        type            fixedValue;
        value           nonuniform 0();
    }
    outlet
    {
        type            inletOutlet;
        inletValue      nonuniform 0();
        value           nonuniform 0();
    }
    bottom
    {
        type            slip;
    }
    top
    {
        type            slip;
    }
    obstacle
    {
        type            zeroGradient;
    }
    defaultFaces
    {
        type            empty;
    }
    procBoundary4to3
    {
        type            processor;
        value           nonuniform List<scalar> 
62
(
2.151513881
2.143635118
2.115746414
2.06272892
2.002222497
1.94695553
1.907298194
1.882618086
1.868415431
1.86079369
1.859229887
1.854218807
1.85331862
1.852444901
1.852431351
1.852884594
1.853773726
1.854359586
1.854160328
1.853473313
1.852595444
1.851472267
1.849587144
1.846225845
1.840467125
1.833083719
1.822917928
1.813038058
1.803375573
1.79338776
1.785749981
1.780361991
1.774050115
1.769429641
1.765370082
1.761366196
1.758280755
1.754650231
1.751435017
1.747030629
1.741933032
1.736523933
1.731191166
1.72631767
1.721460547
1.717095207
1.711894886
1.707632976
1.701449473
1.695778642
1.689451647
1.683866071
1.6784697
1.672898109
1.668008394
1.661632237
1.645862262
1.645862262
1.639248887
1.634072615
1.627340733
1.620689331
)
;
    }
    procBoundary4to5
    {
        type            processor;
        value           nonuniform List<scalar> 
69
(
1.408723921
1.411546377
1.408596752
1.405569343
1.401683984
1.396910418
1.390760676
1.382884017
1.375610612
1.369714738
1.366397166
1.367377702
1.363370728
1.361402297
1.362977983
1.359285051
1.357759695
1.35790847
1.359774984
1.356477387
1.355636177
1.356517577
1.356826469
1.357779095
1.358805817
1.360589636
1.362122315
1.362919063
1.36373061
1.363780681
1.363602232
1.363349748
1.363747296
1.363407937
1.363247021
1.363086613
1.362673103
1.362283597
1.362130837
1.358394366
1.356184836
1.354315903
1.351459982
1.349804117
1.344692418
1.340440581
1.336826586
1.331768025
1.327811296
1.323539706
1.319073419
1.31591722
1.311175888
1.307668873
1.30427442
1.300100921
1.298528649
1.295377997
1.29275753
1.29165705
1.288454388
1.286214048
1.285924486
1.283574867
1.282073722
1.28151984
1.278723464
1.277595383
1.275123763
)
;
    }
    procBoundary4to9
    {
        type            processor;
        value           nonuniform List<scalar> 9(1.614605199 1.609095333 1.602471348 1.593099172 1.589507492 1.58230138 1.569210891 1.562161981 1.555328652);
    }
    procBoundary4to10
    {
        type            processor;
        value           nonuniform List<scalar> 
32
(
1.304769668
1.297130964
1.289001586
1.280337031
1.534547244
1.528206365
1.520825308
1.513185022
1.505212544
1.496722799
1.487954285
1.479043088
1.469938231
1.460360853
1.45004127
1.438913468
1.427531861
1.417069711
1.408257365
1.400497864
1.393020005
1.385381426