/*--------------------------------*- C++ -*----------------------------------*\
  =========                 |
  \\      /  F ield         | OpenFOAM: The Open Source CFD Toolbox
   \\    /   O peration     | Website:  https://openfoam.org
    \\  /    A nd           | Version:  7
     \\/     M anipulation  |
\*---------------------------------------------------------------------------*/
FoamFile
{
    version     2.0;
    format      ascii;
    class       volVectorField;
    location    "1";
    object      U;
}
// * * * * * * * * * * * * * * * * * * * * * * * * * * * * * * * * * * * * * //

dimensions      [0 1 -1 0 0 0 0];

internalField   nonuniform List<vector> 
2222
(
(1.904930398 0.00293125952 0)
(1.947992699 0.00400610232 0)
(1.985946458 0.004385075668 0)
(2.022071241 0.004173242663 0)
(2.057353923 0.003992663679 0)
(2.091998785 0.004006349287 0)
(2.127046143 0.004155922716 0)
(2.162611116 0.004365095107 0)
(2.197705536 0.004637711769 0)
(2.231719571 0.004937790894 0)
(2.264579239 0.005225191884 0)
(2.296283959 0.005458408694 0)
(2.326560901 0.005797965962 0)
(2.355165086 0.00615260118 0)
(2.382090221 0.006512810385 0)
(2.407074594 0.006826501126 0)
(2.430944776 0.00746796135 0)
(2.454957436 0.008591929734 0)
(2.478350801 0.0095104624 0)
(2.499214471 0.009928297988 0)
(2.517049828 0.01001919032 0)
(2.533295347 0.01026414595 0)
(2.548367276 0.01055952984 0)
(2.561509253 0.01057949979 0)
(2.573320107 0.01056025336 0)
(2.584328332 0.01053800554 0)
(2.595052054 0.01055867684 0)
(2.605790357 0.01058195875 0)
(2.616761603 0.01053969744 0)
(2.628309293 0.01029283158 0)
(2.640825248 0.009921559357 0)
(2.65433924 0.009609281099 0)
(1.914427721 0.006025087766 0)
(1.957779272 0.009797862844 0)
(1.995959617 0.01345541565 0)
(2.030807796 0.01477088857 0)
(2.064722682 0.01389258757 0)
(2.09935106 0.01169248216 0)
(2.134613141 0.009212240304 0)
(2.169877762 0.007664971744 0)
(2.204736174 0.007435725062 0)
(2.238568514 0.008363903365 0)
(2.271105899 0.01011564464 0)
(2.302324709 0.0123125957 0)
(2.332250183 0.01429778142 0)
(2.360853783 0.01601485134 0)
(2.387823129 0.0179785582 0)
(2.413087898 0.01945360755 0)
(2.438173814 0.01830376786 0)
(2.463272209 0.01597843701 0)
(2.486733811 0.01541579643 0)
(2.507405632 0.01645387457 0)
(2.525083842 0.01773312614 0)
(2.540499846 0.01900714482 0)
(2.554407981 0.01990847557 0)
(2.567422075 0.01993405993 0)
(2.579193722 0.01974307306 0)
(2.590136761 0.01955421396 0)
(2.600805434 0.01951246626 0)
(2.611515059 0.01959251556 0)
(2.622460285 0.01964515707 0)
(2.63391331 0.01925938358 0)
(2.646266818 0.01839901057 0)
(2.659676721 0.01748636368 0)
(1.941545758 0.003835707868 0)
(1.983556795 0.01034354044 0)
(2.021033489 0.0173285544 0)
(2.05417523 0.02356049087 0)
(2.085457771 0.02659546621 0)
(2.117561017 0.02625269622 0)
(2.150989253 0.0238087452 0)
(2.184979045 0.02088366082 0)
(2.218807707 0.01863879939 0)
(2.251829596 0.01760257111 0)
(2.283521792 0.01774600015 0)
(2.313801062 0.01875825395 0)
(2.342791262 0.02030611721 0)
(2.370599788 0.02226801096 0)
(2.397103194 0.02479833501 0)
(2.42217098 0.02694093466 0)
(2.445188452 0.02875930014 0)
(2.46557248 0.0304984916 0)
(2.484695268 0.03181991563 0)
(2.503451339 0.0332546952 0)
(2.521345897 0.03492269417 0)
(2.537664608 0.03557185381 0)
(2.552126352 0.03513763405 0)
(2.564896866 0.03472435546 0)
(2.576540677 0.03421368836 0)
(2.587426809 0.03372406352 0)
(2.597974217 0.033383183 0)
(2.608540201 0.03316725225 0)
(2.619340954 0.03296120692 0)
(2.630658661 0.03225071279 0)
(2.643046075 0.03092079051 0)
(2.656830496 0.02953217098 0)
(1.988692592 0.01255726962 0)
(2.027039748 0.01693688013 0)
(2.061717594 0.01916024408 0)
(2.093242667 0.01895424474 0)
(2.123233315 0.0192553567 0)
(2.153312684 0.02133555092 0)
(2.183749348 0.02420320654 0)
(2.21403542 0.02729820232 0)
(2.243779117 0.03009606839 0)
(2.273049668 0.0319885817 0)
(2.301783349 0.03261629908 0)
(2.329801373 0.032327461 0)
(2.356959224 0.03181807361 0)
(2.383044536 0.03184665357 0)
(2.408209321 0.03287474784 0)
(2.432441168 0.03432969139 0)
(2.454563584 0.03624424904 0)
(2.474085752 0.03865839914 0)
(2.492292231 0.041302478 0)
(2.510422233 0.04396263866 0)
(2.528188399 0.0463180187 0)
(2.543878866 0.04809586459 0)
(2.557210117 0.04892817472 0)
(2.5694166 0.04892305585 0)
(2.580878012 0.04842198656 0)
(2.591572534 0.04786864079 0)
(2.601721145 0.04744216394 0)
(2.611774829 0.04709761752 0)
(2.622153751 0.04693081068 0)
(2.633269731 0.046403118 0)
(2.645785767 0.04495911144 0)
(2.660066682 0.04300597119 0)
(2.04722427 0.0179552902 0)
(2.081178569 0.02489262089 0)
(2.112467071 0.02986777491 0)
(2.141537215 0.03211110869 0)
(2.169345657 0.03161905443 0)
(2.1967109 0.03055480438 0)
(2.223928693 0.03048066482 0)
(2.250990474 0.03218559775 0)
(2.27736804 0.03529462845 0)
(2.302707188 0.03910130602 0)
(2.326928073 0.04256095728 0)
(2.350338446 0.04479034231 0)
(2.373408179 0.04613098851 0)
(2.396388678 0.04692559439 0)
(2.419435252 0.04769854399 0)
(2.442162963 0.04902398836 0)
(2.463481427 0.05115296785 0)
(2.483073626 0.05311651899 0)
(2.501636402 0.05445906971 0)
(2.519889388 0.05573802316 0)
(2.537342002 0.05694716084 0)
(2.552917177 0.05791431112 0)
(2.566586834 0.05855000315 0)
(2.579011622 0.05876731964 0)
(2.590547162 0.05856377085 0)
(2.601265322 0.058297021 0)
(2.611310454 0.05804391341 0)
(2.621168606 0.05739487666 0)
(2.631477379 0.05673169361 0)
(2.642696983 0.05613500959 0)
(2.655207803 0.05500033834 0)
(2.669357736 0.05309474029 0)
(2.103017486 0.02272011353 0)
(2.133749741 0.03123848543 0)
(2.162153272 0.03867846856 0)
(2.188720409 0.04286546263 0)
(2.214136105 0.04474723007 0)
(2.23902772 0.04599000173 0)
(2.263480062 0.04631450387 0)
(2.287754986 0.04676148155 0)
(2.311413553 0.04719733621 0)
(2.333772485 0.04724659843 0)
(2.354702994 0.04766510685 0)
(2.374712298 0.04872136783 0)
(2.394602549 0.0497468016 0)
(2.414739477 0.0512633046 0)
(2.435037945 0.05374686601 0)
(2.455434506 0.05625497367 0)
(2.475478341 0.05881133088 0)
(2.494467799 0.06185289018 0)
(2.512100593 0.06499309537 0)
(2.528945417 0.06810668712 0)
(2.544999027 0.071185182 0)
(2.559677084 0.07355397165 0)
(2.573037201 0.07477023088 0)
(2.58546871 0.07516337278 0)
(2.59725439 0.07495088328 0)
(2.608407285 0.07454347203 0)
(2.618737864 0.07418989068 0)
(2.628700755 0.07299665513 0)
(2.639345934 0.07099973289 0)
(2.650965278 0.06900000746 0)
(2.663143128 0.06737565347 0)
(2.675790246 0.06588981909 0)
(2.146639861 0.03511901298 0)
(2.175534037 0.04350605365 0)
(2.202069859 0.04840338907 0)
(2.226684156 0.05146521652 0)
(2.250473213 0.05250308793 0)
(2.274128743 0.05336372415 0)
(2.296717081 0.0553484083 0)
(2.318346734 0.05774629106 0)
(2.339632367 0.06032032756 0)
(2.359798813 0.06263752376 0)
(2.378682926 0.06379409541 0)
(2.396676783 0.06397014095 0)
(2.414251707 0.06400734823 0)
(2.432084245 0.06450637279 0)
(2.450407721 0.06567509832 0)
(2.469030488 0.06772878387 0)
(2.487561611 0.07100274729 0)
(2.505563593 0.07502141628 0)
(2.522406652 0.07817980131 0)
(2.538287604 0.0798985276 0)
(2.553812748 0.08149939009 0)
(2.568456384 0.08313166384 0)
(2.581807492 0.08416311376 0)
(2.594245159 0.08475142791 0)
(2.606173351 0.08491456156 0)
(2.61764811 0.08482978107 0)
(2.628323312 0.08491855854 0)
(2.638166904 0.08437014089 0)
(2.648208415 0.08276409258 0)
(2.659399162 0.08057473121 0)
(2.67154417 0.07822076668 0)
(2.684074934 0.07547048177 0)
(2.176477591 0.04194214914 0)
(2.203424793 0.05169602015 0)
(2.228202022 0.06051466468 0)
(2.25169143 0.06614482464 0)
(2.274313305 0.06785231068 0)
(2.296945629 0.06832746298 0)
(2.318952719 0.06880767463 0)
(2.339311574 0.06914784283 0)
(2.359354298 0.07015759023 0)
(2.379412004 0.07089205484 0)
(2.398130499 0.07094250106 0)
(2.415651272 0.07205393676 0)
(2.432223503 0.07362967712 0)
(2.448596731 0.07537139527 0)
(2.465353395 0.07759639363 0)
(2.482576493 0.08002869536 0)
(2.500199556 0.082138475 0)
(2.517986737 0.08486243735 0)
(2.53460752 0.08874857013 0)
(2.548772581 0.09181194084 0)
(2.56189199 0.09393356771 0)
(2.575308113 0.09652820789 0)
(2.588359576 0.09856776263 0)
(2.600447459 0.0998712771 0)
(2.611811827 0.1004731127 0)
(2.62308501 0.1002556421 0)
(2.634144746 0.09979180675 0)
(2.644477068 0.09878718872 0)
(2.654675332 0.09681633837 0)
(2.665834055 0.09424584851 0)
(2.677733742 0.0921645965 0)
(2.689604514 0.0899814919 0)
(2.19258047 0.05297387295 0)
(2.21730593 0.06366575994 0)
(2.242097678 0.07123165199 0)
(2.266415559 0.07645725222 0)
(2.289173232 0.07896572476 0)
(2.311040077 0.07929182038 0)
(2.332401689 0.08009235187 0)
(2.351926476 0.08120887591 0)
(2.36971359 0.08138908386 0)
(2.387780968 0.0836740327 0)
(2.406249984 0.08605143761 0)
(2.424903463 0.08759572959 0)
(2.442815671 0.08855679418 0)
(2.459616796 0.08966392977 0)
(2.475969835 0.0913770621 0)
(2.492356883 0.09369988779 0)
(2.508822709 0.09630646136 0)
(2.525654632 0.09898674716 0)
(2.542293532 0.101583519 0)
(2.556373095 0.1043237883 0)
(2.567813578 0.1064173632 0)
(2.580680195 0.1086776116 0)
(2.595442628 0.1102484503 0)
(2.608528852 0.1115412321 0)
(2.619486823 0.1120464495 0)
(2.630021047 0.1112557488 0)
(2.640912758 0.1102541631 0)
(2.651861214 0.109331336 0)
(2.662507956 0.1077042971 0)
(2.673771847 0.1046457509 0)
(2.685805859 0.1015518438 0)
(2.697980772 0.09969196044 0)
(2.198076249 0.06648747595 0)
(2.220945089 0.07796664321 0)
(2.24518042 0.08481217461 0)
(2.271023978 0.08909218138 0)
(2.294863577 0.09119744354 0)
(2.315958051 0.09194356979 0)
(2.33665147 0.09275608814 0)
(2.357177618 0.09416712734 0)
(2.373443746 0.09587608644 0)
(2.3864401 0.09930488247 0)
(2.403120004 0.1033195079 0)
(2.421381805 0.1046798099 0)
(2.43989302 0.1052559572 0)
(2.457418261 0.1062711936 0)
(2.473840988 0.1077175774 0)
(2.489704418 0.1098412617 0)
(2.505385714 0.112197375 0)
(2.520970277 0.1137878111 0)
(2.536559225 0.1157478203 0)
(2.552093754 0.1190657463 0)
(2.567287111 0.1208159439 0)
(2.58303659 0.1199156102 0)
(2.599603534 0.1214013779 0)
(2.613783315 0.1229806974 0)
(2.624667461 0.1248513283 0)
(2.634031952 0.1254296141 0)
(2.644881585 0.1239540351 0)
(2.65712778 0.1220512178 0)
(2.668366016 0.1208767536 0)
(2.678353259 0.1192286594 0)
(2.689353293 0.1156856204 0)
(2.702838027 0.1118616123 0)
(2.202201878 0.07987817893 0)
(2.225222348 0.0904881376 0)
(2.247809717 0.09720375322 0)
(2.268229609 0.1001177281 0)
(2.29004697 0.1018082673 0)
(2.311759522 0.1036241835 0)
(2.33249141 0.1054806644 0)
(2.351954633 0.107950415 0)
(2.370174273 0.1111377527 0)
(2.389075197 0.1135371212 0)
(2.406792036 0.1167268725 0)
(2.425000601 0.117716166 0)
(2.443545606 0.1182465784 0)
(2.461578126 0.1194930492 0)
(2.478201403 0.1210578303 0)
(2.493889512 0.1231707367 0)
(2.509227227 0.1255992212 0)
(2.524081079 0.1274179321 0)
(2.538821315 0.129033683 0)
(2.554722818 0.1318181395 0)
(2.571174506 0.1342130795 0)
(2.58315915 0.1343843756 0)
(2.592384142 0.1364197004 0)
(2.605333494 0.1380480851 0)
(2.620315282 0.1396403216 0)
(2.634514874 0.1392105026 0)
(2.647912578 0.1358870315 0)
(2.661318761 0.1328900331 0)
(2.674265854 0.1323125642 0)
(2.685390231 0.1308440272 0)
(2.69609858 0.1268963462 0)
(2.704416101 0.124677495 0)
(2.201900522 0.09346067841 0)
(2.224139001 0.1020921606 0)
(2.247168718 0.1097610261 0)
(2.271023643 0.1129007142 0)
(2.292726515 0.1143400016 0)
(2.314007902 0.1164139908 0)
(2.334707352 0.1190346725 0)
(2.354180436 0.1210921051 0)
(2.373761157 0.1245642722 0)
(2.390745764 0.1280408416 0)
(2.406227668 0.1283733098 0)
(2.423628051 0.1294985261 0)
(2.441712442 0.1304729431 0)
(2.45916494 0.1319988669 0)
(2.475554269 0.1339482959 0)
(2.491334646 0.1362211873 0)
(2.506718925 0.1385859205 0)
(2.521613063 0.1409166797 0)
(2.536876872 0.1429418695 0)
(2.552992963 0.1448506282 0)
(2.567525346 0.1463129363 0)
(2.58095871 0.1500810523 0)
(2.593221791 0.1510816265 0)
(2.606430799 0.1514429457 0)
(2.622049418 0.1519268962 0)
(2.638280952 0.1505481783 0)
(2.650710851 0.1488547499 0)
(2.659345405 0.1478257284 0)
(2.670403514 0.1471089608 0)
(2.682879818 0.1447794412 0)
(2.69355833 0.1413925669 0)
(2.706022481 0.1383482532 0)
(2.203546755 0.1036082313 0)
(2.226466692 0.1137269208 0)
(2.249173638 0.1212845832 0)
(2.269984443 0.1257806772 0)
(2.291412973 0.1281349309 0)
(2.312961914 0.1301017291 0)
(2.333445104 0.1328225187 0)
(2.352317431 0.1354890987 0)
(2.370083826 0.1375548151 0)
(2.389145283 0.1398877968 0)
(2.408183038 0.1407944588 0)
(2.425605423 0.1417886155 0)
(2.441702116 0.1425640575 0)
(2.457569132 0.1446046037 0)
(2.474140635 0.1473514703 0)
(2.490765559 0.1498797661 0)
(2.507014693 0.1525180855 0)
(2.5227795 0.1553190623 0)
(2.538309517 0.1568496509 0)
(2.553384248 0.1573345478 0)
(2.566863588 0.1609345514 0)
(2.578096861 0.164200675 0)
(2.590856249 0.1646250973 0)
(2.605476542 0.1651675871 0)
(2.620459651 0.1631417487 0)
(2.634625212 0.161881684 0)
(2.647145508 0.1621833996 0)
(2.66013584 0.1603366489 0)
(2.674415597 0.1583864773 0)
(2.687158025 0.155959668 0)
(2.698086125 0.1535007713 0)
(2.706130708 0.1520436683 0)
(2.206753022 0.1144312618 0)
(2.230203338 0.1254205863 0)
(2.252545507 0.133666816 0)
(2.274608012 0.1388793078 0)
(2.296255954 0.141808511 0)
(2.316123968 0.1437936452 0)
(2.334260571 0.1455805992 0)
(2.352732236 0.1484394282 0)
(2.373494636 0.1520550805 0)
(2.393643745 0.1527303044 0)
(2.412569549 0.15276574 0)
(2.430159306 0.1536703346 0)
(2.446673906 0.1558361167 0)
(2.461846259 0.157698228 0)
(2.477732624 0.1595527596 0)
(2.4949376 0.1621111806 0)
(2.511759961 0.1646561932 0)
(2.527936819 0.1671052879 0)
(2.543362868 0.1699662382 0)
(2.555113138 0.1714440025 0)
(2.564367354 0.1760173824 0)
(2.577772683 0.1782316567 0)
(2.592959086 0.1784223446 0)
(2.607748132 0.1780553635 0)
(2.622932851 0.176305141 0)
(2.636756775 0.1747566523 0)
(2.650507689 0.1731903944 0)
(2.66498857 0.1728818544 0)
(2.673923452 0.1706052613 0)
(2.683487364 0.1683112194 0)
(2.693323376 0.1665601922 0)
(2.703184975 0.1648503165 0)
(2.20937944 0.1261860954 0)
(2.232087297 0.1369450375 0)
(2.254829967 0.1459027636 0)
(2.277274218 0.1514537926 0)
(2.298478216 0.154867716 0)
(2.318823879 0.1572902165 0)
(2.338932576 0.1593776007 0)
(2.358334093 0.1622213461 0)
(2.375706229 0.1650176372 0)
(2.393423493 0.1660048991 0)
(2.411822184 0.1666895383 0)
(2.428327374 0.167588903 0)
(2.443142461 0.1695731027 0)
(2.459407445 0.1711932425 0)
(2.477280905 0.1727061008 0)
(2.494570154 0.1753762687 0)
(2.510482962 0.1780852092 0)
(2.525508155 0.1804626539 0)
(2.538549253 0.1825961827 0)
(2.551824258 0.1875213192 0)
(2.566971515 0.1900946691 0)
(2.58300197 0.1906502957 0)
(2.598479613 0.1897848808 0)
(2.612693383 0.1900470128 0)
(2.623184728 0.1895848952 0)
(2.633999504 0.187206448 0)
(2.647837295 0.1853423937 0)
(2.660243131 0.1847636462 0)
(2.672369788 0.1841888323 0)
(2.682897613 0.183179695 0)
(2.69361249 0.1812475254 0)
(2.706903441 0.1766195885 0)
(2.208803712 0.1381327255 0)
(2.231964213 0.1487978811 0)
(2.254906542 0.1578482743 0)
(2.2774217 0.1638625171 0)
(2.299064256 0.1678924981 0)
(2.319723537 0.1703390608 0)
(2.339375137 0.1721846347 0)
(2.358771442 0.1750586285 0)
(2.379282597 0.1780338763 0)
(2.3995185 0.1799970007 0)
(2.416959378 0.1813645789 0)
(2.432417551 0.1826458783 0)
(2.448390592 0.1841014945 0)
(2.465573025 0.1849977938 0)
(2.482083706 0.1862833782 0)
(2.497309695 0.1889350534 0)
(2.511204531 0.1920596938 0)
(2.524526705 0.1947965368 0)
(2.537800066 0.198199004 0)
(2.550773604 0.2021915179 0)
(2.565987647 0.2033298952 0)
(2.581732085 0.2044080838 0)
(2.596013545 0.2038397611 0)
(2.607735143 0.2020722606 0)
(2.620123126 0.2024935758 0)
(2.633627146 0.2010407618 0)
(2.647481428 0.1990881872 0)
(2.663148673 0.1978899693 0)
(2.676771093 0.1964999946 0)
(2.688494791 0.1945327813 0)
(2.699664944 0.1935816777 0)
(2.708329958 0.1912633163 0)
(2.207446795 0.1508151057 0)
(2.23058725 0.1612164377 0)
(2.253732686 0.1701965567 0)
(2.276397889 0.1765237141 0)
(2.297882823 0.1804648223 0)
(2.318258919 0.182838668 0)
(2.338457266 0.1851738823 0)
(2.359418339 0.1878663324 0)
(2.380511178 0.190328287 0)
(2.400065828 0.1928165139 0)
(2.41802018 0.1951756409 0)
(2.435561036 0.1972748639 0)
(2.453499949 0.198508444 0)
(2.471462632 0.1993136405 0)
(2.488112242 0.2006426711 0)
(2.50319097 0.2029802419 0)
(2.517811301 0.206354764 0)
(2.531501738 0.2097628601 0)
(2.542947291 0.2136216524 0)
(2.553956364 0.2161314666 0)
(2.568033175 0.2169517419 0)
(2.581891177 0.2174245077 0)
(2.595074904 0.2172991118 0)
(2.609543043 0.2171357656 0)
(2.623759595 0.2149038812 0)
(2.638485973 0.2126929652 0)
(2.651950691 0.2121970683 0)
(2.662770611 0.2116678598 0)
(2.673713791 0.2092582617 0)
(2.684746201 0.206988067 0)
(2.695576992 0.2052169028 0)
(2.706359569 0.203222933 0)
(2.20493841 0.162774514 0)
(2.227895569 0.1730473438 0)
(2.251257551 0.1819367747 0)
(2.274179327 0.1885638137 0)
(2.295840975 0.1928289493 0)
(2.316384806 0.1957608286 0)
(2.336919908 0.1981908661 0)
(2.35786478 0.2001172784 0)
(2.378183006 0.2023021445 0)
(2.397174261 0.2049913337 0)
(2.415407345 0.2077964824 0)
(2.433470347 0.2101696474 0)
(2.45146763 0.2113481016 0)
(2.468679437 0.2121669737 0)
(2.484685641 0.2138160946 0)
(2.499802753 0.2163693651 0)
(2.514494116 0.2191646771 0)
(2.528588675 0.2231056531 0)
(2.543470647 0.2280173985 0)
(2.56030636 0.2305631019 0)
(2.575047424 0.2311095304 0)
(2.587950499 0.2315230498 0)
(2.59928801 0.2315933751 0)
(2.609406453 0.2297833907 0)
(2.622519994 0.226549574 0)
(2.636050899 0.2248563089 0)
(2.648088651 0.2250072738 0)
(2.658881063 0.2242613171 0)
(2.670243955 0.2242131973 0)
(2.681772559 0.2223225631 0)
(2.693590484 0.2198627169 0)
(2.705216569 0.217344623 0)
(2.202575853 0.1741850541 0)
(2.225288561 0.1844073449 0)
(2.24875833 0.1934351724 0)
(2.27173083 0.2003205259 0)
(2.293409567 0.2051083356 0)
(2.313973198 0.2087007808 0)
(2.334439112 0.2110996765 0)
(2.355038669 0.2128014833 0)
(2.37503417 0.2151278684 0)
(2.394314031 0.2181049497 0)
(2.413161535 0.2213201014 0)
(2.431593515 0.2239124286 0)
(2.449220867 0.2252846726 0)
(2.465746589 0.2262339262 0)
(2.481530668 0.2274822722 0)
(2.496934626 0.229616176 0)
(2.512488955 0.2326748505 0)
(2.52861069 0.2371742371 0)
(2.544945195 0.2416755943 0)
(2.560175848 0.2439278398 0)
(2.572854093 0.2441049948 0)
(2.583678851 0.2432894321 0)
(2.59619646 0.2438522279 0)
(2.610254652 0.2422464279 0)
(2.623633876 0.2402403047 0)
(2.635328001 0.2393442457 0)
(2.646600683 0.2386105598 0)
(2.660722782 0.2384319631 0)
(2.673468819 0.2375838083 0)
(2.685806026 0.2355054523 0)
(2.697975393 0.2327249595 0)
(2.709776895 0.2293703933 0)
(2.201371171 0.1861615689 0)
(2.223631383 0.1962599485 0)
(2.246906847 0.2054254454 0)
(2.269887599 0.2129159785 0)
(2.291660528 0.2185766856 0)
(2.312178616 0.2227492162 0)
(2.332256334 0.2252070686 0)
(2.35205877 0.2266090978 0)
(2.371364745 0.22827291 0)
(2.390314895 0.2305405388 0)
(2.409048572 0.2333639956 0)
(2.427332319 0.2360006872 0)
(2.44477021 0.2379998679 0)
(2.461446977 0.2397379091 0)
(2.477704211 0.241370305 0)
(2.493745141 0.2435642122 0)
(2.50981488 0.2464957085 0)
(2.525929044 0.2503265341 0)
(2.541941315 0.2542535655 0)
(2.556980871 0.2567315253 0)
(2.57071881 0.2583503741 0)
(2.58532103 0.2593258194 0)
(2.599860904 0.2566759592 0)
(2.614895922 0.2539622413 0)
(2.628433515 0.2522339129 0)
(2.640380896 0.2516253811 0)
(2.651699504 0.2517494684 0)
(2.660517634 0.2515072699 0)
(2.67191413 0.2499731804 0)
(2.684106045 0.2482441066 0)
(2.696223445 0.2457122147 0)
(2.707680967 0.2432892928 0)
(2.20158293 0.1991996907 0)
(2.223174023 0.2090138516 0)
(2.245762419 0.2179495468 0)
(2.26806836 0.2254214971 0)
(2.289375935 0.2313440029 0)
(2.309673776 0.2358160403 0)
(2.329293807 0.2385606401 0)
(2.348461636 0.2401159385 0)
(2.367577261 0.2416006275 0)
(2.386872798 0.243718751 0)
(2.405807055 0.2463482983 0)
(2.423671197 0.2488448616 0)
(2.440442195 0.2508561499 0)
(2.456578564 0.2525248073 0)
(2.472490929 0.2540932638 0)
(2.488498578 0.2562566094 0)
(2.504774583 0.2589016108 0)
(2.521083086 0.2620844477 0)
(2.536861197 0.2654544153 0)
(2.5520298 0.2683670855 0)
(2.567673961 0.2711542422 0)
(2.583295998 0.2720678018 0)
(2.598789062 0.2694556523 0)
(2.613339294 0.2667616965 0)
(2.626161356 0.264847776 0)
(2.637716955 0.2640787697 0)
(2.648246584 0.2646322587 0)
(2.65958837 0.2633253428 0)
(2.67209294 0.2631132886 0)
(2.684151567 0.2615930356 0)
(2.695285141 0.2590617312 0)
(2.706065806 0.2567967009 0)
(2.20276002 0.2123614591 0)
(2.223658093 0.2217838672 0)
(2.245791661 0.2307274735 0)
(2.267787122 0.2385541608 0)
(2.288778112 0.2447054836 0)
(2.30853567 0.2489416887 0)
(2.327238317 0.2515230706 0)
(2.345487945 0.2532094603 0)
(2.364075584 0.254781214 0)
(2.383094736 0.2565921758 0)
(2.401899887 0.2589840542 0)
(2.41982053 0.2618093722 0)
(2.436776142 0.2642391767 0)
(2.452946886 0.2661153086 0)
(2.468632515 0.2679074923 0)
(2.484388388 0.2700799171 0)
(2.50060222 0.2724562745 0)
(2.517006721 0.2755957922 0)
(2.533144445 0.279362251 0)
(2.548941347 0.2826129165 0)
(2.564838349 0.2847329964 0)
(2.58147252 0.2851615199 0)
(2.59840375 0.2839469461 0)
(2.613568995 0.282881395 0)
(2.626554999 0.2815106264 0)
(2.637691061 0.2793380928 0)
(2.648510219 0.2776505255 0)
(2.663069283 0.2757001648 0)
(2.676547774 0.2742861167 0)
(2.689541439 0.2735241968 0)
(2.701371576 0.2724438267 0)
(2.71110015 0.2704321081 0)
(2.207716728 0.2263035817 0)
(2.226831402 0.2348387995 0)
(2.24695854 0.2430429738 0)
(2.267234167 0.2501301838 0)
(2.28732243 0.2558658443 0)
(2.307029446 0.2604008643 0)
(2.325944811 0.2639595486 0)
(2.343965746 0.2667307771 0)
(2.361809772 0.2688233274 0)
(2.38001475 0.2703864204 0)
(2.398044188 0.2720922045 0)
(2.415346481 0.2741388393 0)
(2.432187121 0.276310987 0)
(2.448707763 0.2786765794 0)
(2.464752864 0.2812542573 0)
(2.480473988 0.2837744295 0)
(2.496104026 0.2857741079 0)
(2.511566244 0.28800419 0)
(2.52691174 0.2907731415 0)
(2.542684365 0.2934882377 0)
(2.559649491 0.2955828131 0)
(2.577336811 0.2965556126 0)
(2.593863016 0.2960665435 0)
(2.608050345 0.2948883081 0)
(2.620931528 0.2935427558 0)
(2.634966096 0.2926932835 0)
(2.650610253 0.2917017198 0)
(2.664331979 0.289549559 0)
(2.67627926 0.2858351835 0)
(2.687377888 0.2833845961 0)
(2.697532279 0.2824958859 0)
(2.706459038 0.2814724726 0)
(2.218079929 0.2402093686 0)
(2.234058669 0.2482774014 0)
(2.25185107 0.2561632954 0)
(2.270413684 0.2629774719 0)
(2.289154478 0.2681898331 0)
(2.307849373 0.2723530501 0)
(2.32577521 0.2760451212 0)
(2.34282328 0.2795570107 0)
(2.359761115 0.2827772321 0)
(2.377134422 0.2851515813 0)
(2.394972948 0.2871855454 0)
(2.413064228 0.2894233793 0)
(2.43069372 0.2914533536 0)
(2.446980559 0.2932655381 0)
(2.462141755 0.2951826868 0)
(2.477088 0.2973623013 0)
(2.492244326 0.2995222541 0)
(2.507657115 0.3021578428 0)
(2.523612531 0.3054716621 0)
(2.540383355 0.3083546898 0)
(2.557630477 0.3099063467 0)
(2.574305798 0.3102418343 0)
(2.589697261 0.3096845811 0)
(2.604141546 0.3095295845 0)
(2.618584889 0.3091702449 0)
(2.633192837 0.3071195416 0)
(2.647280714 0.3034582158 0)
(2.660321708 0.3002833096 0)
(2.674018012 0.2982100628 0)
(2.68748602 0.2971401464 0)
(2.699032096 0.2968672121 0)
(2.709073027 0.2964330453 0)
(2.225513155 0.2535701371 0)
(2.241206997 0.2616938126 0)
(2.258904656 0.2688284495 0)
(2.278286271 0.2758303959 0)
(2.297385391 0.2815425617 0)
(2.314836929 0.2861354756 0)
(2.330240497 0.2901156561 0)
(2.344660093 0.2937185235 0)
(2.359287649 0.2969473318 0)
(2.374672135 0.2993009982 0)
(2.391043844 0.300672856 0)
(2.408471611 0.3016736889 0)
(2.426288415 0.3032804081 0)
(2.443408734 0.3057055943 0)
(2.459328214 0.3081545107 0)
(2.474237353 0.3105254797 0)
(2.488823098 0.3129240261 0)
(2.503796656 0.3159611757 0)
(2.519487834 0.3192180566 0)
(2.535949634 0.3211167463 0)
(2.552692948 0.3214585513 0)
(2.568885729 0.3213984468 0)
(2.584191374 0.3211271925 0)
(2.598651758 0.3209365282 0)
(2.612968691 0.3198394197 0)
(2.627770351 0.3179186876 0)
(2.64296724 0.3165340516 0)
(2.657729443 0.3154061376 0)
(2.671089773 0.3138226215 0)
(2.682747083 0.3111700451 0)
(2.693149373 0.3084112695 0)
(2.703756455 0.3061558532 0)
(2.23480799 0.2672351487 0)
(2.253367225 0.2753647501 0)
(2.269135613 0.2821600086 0)
(2.284239503 0.2888849901 0)
(2.30088085 0.294632242 0)
(2.317735498 0.2996762887 0)
(2.333389458 0.3042793879 0)
(2.347950492 0.3081423376 0)
(2.362374579 0.3112970393 0)
(2.377404809 0.313864775 0)
(2.393722009 0.3161074291 0)
(2.410814789 0.31789172 0)
(2.427414614 0.3192911069 0)
(2.443050081 0.3208002835 0)
(2.45803241 0.3225919002 0)
(2.472497741 0.3247934161 0)
(2.486441939 0.3270166168 0)
(2.500383229 0.3293488516 0)
(2.515366792 0.3317504499 0)
(2.531910515 0.3334559519 0)
(2.549163155 0.3346070946 0)
(2.565763626 0.3352331402 0)
(2.581219577 0.3348103634 0)
(2.595892519 0.3342528677 0)
(2.610622194 0.3333951289 0)
(2.625143505 0.331994426 0)
(2.638757459 0.3298104218 0)
(2.651526239 0.3266153792 0)
(2.663218682 0.3236943023 0)
(2.674874843 0.321606957 0)
(2.687674747 0.3206724303 0)
(2.7009372 0.3196790448 0)
(2.234717994 0.280460471 0)
(2.253577226 0.2881806358 0)
(2.272689287 0.2961752131 0)
(2.291981336 0.3031126718 0)
(2.310129123 0.3093508346 0)
(2.327438068 0.3145531986 0)
(2.343817852 0.3187452401 0)
(2.358436063 0.3227099134 0)
(2.370976134 0.3256135977 0)
(2.384018352 0.3279662197 0)
(2.398464566 0.3307713603 0)
(2.412836813 0.3327403663 0)
(2.426769728 0.3335804285 0)
(2.440655948 0.3340487197 0)
(2.454771638 0.3348609769 0)
(2.468897908 0.3366272238 0)
(2.482882313 0.3389984163 0)
(2.497366892 0.3419867652 0)
(2.513014443 0.3450350243 0)
(2.52954984 0.3468730578 0)
(2.545892229 0.347580634 0)
(2.561465575 0.3477152582 0)
(2.576675655 0.3470322606 0)
(2.591825966 0.3461612043 0)
(2.606554516 0.344614639 0)
(2.620192248 0.3423325393 0)
(2.63327571 0.3403470476 0)
(2.647121136 0.3393649484 0)
(2.661217564 0.3394771376 0)
(2.674031369 0.3389767986 0)
(2.685659263 0.3372774304 0)
(2.697046748 0.333697001 0)
(2.237579942 0.2938748622 0)
(2.254966433 0.302341598 0)
(2.273671051 0.3099974775 0)
(2.292398997 0.3170277199 0)
(2.309892805 0.3235616326 0)
(2.327063877 0.3289904966 0)
(2.343353714 0.3326951002 0)
(2.358856763 0.3357536865 0)
(2.373880785 0.3391294466 0)
(2.387435952 0.341841793 0)
(2.401826469 0.3448819368 0)
(2.416413221 0.3476749888 0)
(2.431052141 0.3493667107 0)
(2.445530522 0.3502464498 0)
(2.459000733 0.3508384356 0)
(2.471072072 0.3517506796 0)
(2.482758728 0.3527637516 0)
(2.495456189 0.3543880638 0)
(2.50988234 0.3565438768 0)
(2.525698435 0.3582152605 0)
(2.541794882 0.3593527673 0)
(2.557347407 0.3599801551 0)
(2.572611202 0.3591716161 0)
(2.587814459 0.3576665631 0)
(2.603009039 0.3560929473 0)
(2.618073265 0.3552853895 0)
(2.63240485 0.3551644203 0)
(2.645381699 0.3547443363 0)
(2.657020694 0.353100879 0)
(2.667789655 0.3496876186 0)
(2.678462631 0.3462368499 0)
(2.690162019 0.3427611041 0)
(2.244693085 0.3085711512 0)
(2.261771483 0.3170879191 0)
(2.280247551 0.3246737313 0)
(2.299115118 0.3319140806 0)
(2.316810698 0.3388253718 0)
(2.332261048 0.344442872 0)
(2.347679824 0.3491033817 0)
(2.364393172 0.3515109695 0)
(2.380971438 0.3528601408 0)
(2.397323214 0.3557765932 0)
(2.410102418 0.3588851113 0)
(2.422839958 0.3618292798 0)
(2.436358584 0.3639369745 0)
(2.449159634 0.3651567497 0)
(2.460796968 0.3656035702 0)
(2.471110905 0.3656648173 0)
(2.482389916 0.3658570578 0)
(2.495231694 0.3666814838 0)
(2.50872435 0.3683995633 0)
(2.522997572 0.3696840387 0)
(2.538349395 0.371065002 0)
(2.554307218 0.3729955846 0)
(2.570423083 0.3735153372 0)
(2.586219441 0.3723048611 0)
(2.601176045 0.3699802603 0)
(2.614758549 0.3679229524 0)
(2.627234073 0.3663680504 0)
(2.639254659 0.3647421613 0)
(2.651583918 0.3634344085 0)
(2.665025876 0.3623485568 0)
(2.678456655 0.361385275 0)
(2.690625839 0.3588436275 0)
(2.242448106 0.3242631962 0)
(2.259216367 0.3325378869 0)
(2.277319301 0.3396474905 0)
(2.295931425 0.3462604955 0)
(2.314018429 0.3525383391 0)
(2.330295281 0.3583816225 0)
(2.345851699 0.363155328 0)
(2.361978839 0.3658944206 0)
(2.37916233 0.3668639034 0)
(2.395154517 0.368723837 0)
(2.41051579 0.372938418 0)
(2.425017121 0.3763319944 0)
(2.438401196 0.3787183457 0)
(2.450386655 0.3796626086 0)
(2.463582637 0.3805462879 0)
(2.47779559 0.3819087769 0)
(2.490590879 0.381983069 0)
(2.500829736 0.3811724564 0)
(2.510015658 0.3814405644 0)
(2.521739589 0.3820203711 0)
(2.535658937 0.3828990124 0)
(2.550468519 0.3842393025 0)
(2.565656427 0.3845292499 0)
(2.581013396 0.3840092301 0)
(2.596369038 0.3827012478 0)
(2.611226615 0.3813359864 0)
(2.625217259 0.3799194411 0)
(2.638509451 0.3785038947 0)
(2.651195819 0.3773651613 0)
(2.663091263 0.3753495002 0)
(2.674073339 0.3725210155 0)
(2.684911935 0.3694859337 0)
(2.244400738 0.3385194265 0)
(2.261293705 0.3464741129 0)
(2.278956733 0.3531318722 0)
(2.297189167 0.3596053787 0)
(2.315275478 0.3663926194 0)
(2.332445445 0.3728298825 0)
(2.348641158 0.3774017285 0)
(2.364322819 0.3796706664 0)
(2.380637738 0.3811067948 0)
(2.399043064 0.3832327009 0)
(2.416141334 0.3860997903 0)
(2.432279273 0.3893175306 0)
(2.447013977 0.3926473059 0)
(2.46042265 0.3947428051 0)
(2.470834192 0.3959375115 0)
(2.480181944 0.3963048543 0)
(2.490451976 0.3954912627 0)
(2.50286377 0.3954120177 0)
(2.516670778 0.3961384352 0)
(2.529456654 0.3964211907 0)
(2.541906438 0.3970165763 0)
(2.554652879 0.3983282155 0)
(2.56771066 0.3992647939 0)
(2.580703741 0.3997474724 0)
(2.594006934 0.3980234094 0)
(2.60785757 0.3950059432 0)
(2.621550563 0.392479039 0)
(2.634266185 0.3902509262 0)
(2.646126922 0.3879750617 0)
(2.657881354 0.3856312365 0)
(2.66995577 0.3846208933 0)
(2.681798134 0.3832181155 0)
(2.252907419 0.3529731971 0)
(2.269064015 0.3600642785 0)
(2.286187454 0.3667751682 0)
(2.302942952 0.3737156596 0)
(2.319163261 0.3808373199 0)
(2.335362028 0.387391571 0)
(2.35163499 0.3921186668 0)
(2.367860377 0.3946727478 0)
(2.383671676 0.3966949383 0)
(2.398389041 0.39874572 0)
(2.415195506 0.400478228 0)
(2.431276821 0.4035811524 0)
(2.445759711 0.4059455934 0)
(2.459271586 0.4085473133 0)
(2.472030715 0.4108202148 0)