/*--------------------------------*- C++ -*----------------------------------*\
  =========                 |
  \\      /  F ield         | OpenFOAM: The Open Source CFD Toolbox
   \\    /   O peration     | Website:  https://openfoam.org
    \\  /    A nd           | Version:  7
     \\/     M anipulation  |
\*---------------------------------------------------------------------------*/
FoamFile
{
    version     2.0;
    format      ascii;
    class       volVectorField;
    location    "3.8";
    object      U;
}
// * * * * * * * * * * * * * * * * * * * * * * * * * * * * * * * * * * * * * //

dimensions      [0 1 -1 0 0 0 0];

internalField   nonuniform List<vector> 5((3 -4.264160024e-15 0) (3 -1.585633122e-15 0) (3 -2.32455444e-15 0) (2.999989885 -1.766156938e-05 0) (2.998496492 -0.002428981842 0));

boundaryField
{
    inlet
    {
        type            fixedValue;
        value           nonuniform 0();
    }
    outlet
    {
        type            inletOutlet;
        inletValue      nonuniform 0();
        value           nonuniform 0();
    }
    bottom
    {
        type            slip;
    }
    top
    {
        type            slip;
    }
    obstacle
    {
        type            slip;
    }
    defaultFaces
    {
        type            empty;
    }
    procBoundary7to1
    {
        type            processor;
        value           nonuniform List<vector> 5((3 -3.003216637e-15 0) (3 -5.793973964e-15 0) (3 -5.793973964e-15 0) (2.999999984 -2.932158974e-08 0) (2.999999984 -2.932158974e-08 0));
    }
    procBoundary7to6
    {
        type            processor;
        value           uniform (3 -1.198424344e-15 0);
    }
    procBoundary7to13
    {
        type            processor;
        value           nonuniform List<vector> 4((3 2.580724474e-16 0) (3 -1.334865174e-15 0) (3 -1.334865174e-15 0) (2.987330669 -0.003718667146 0));
    }
    procBoundary7to14
    {
        type            processor;
        value           nonuniform List<vector> 2((2.999949044 -8.604276008e-05 0) (2.995417026 -0.007831942287 0));
    }
}


// ************************************************************************* //
