/*--------------------------------*- C++ -*----------------------------------*\
  =========                 |
  \\      /  F ield         | OpenFOAM: The Open Source CFD Toolbox
   \\    /   O peration     | Website:  https://openfoam.org
    \\  /    A nd           | Version:  7
     \\/     M anipulation  |
\*---------------------------------------------------------------------------*/
FoamFile
{
    version     2.0;
    format      ascii;
    class       volScalarField;
    location    "1.7";
    object      rho;
}
// * * * * * * * * * * * * * * * * * * * * * * * * * * * * * * * * * * * * * //

dimensions      [1 -3 0 0 0 0 0];

internalField   nonuniform List<scalar> 
5000
(
1.40000504
1.40000504
1.40000504
1.40000504
1.40000504
1.40000504
1.40000504
1.40000504
1.40000504
1.40000504
1.40000504
1.40000504
1.40000504
1.40000504
1.40000504
1.40000504
1.40000504
1.40000504
1.40000504
1.40000504
1.40000504
1.40000504
1.40000504
1.40000504
1.40000504
1.40000504
1.40000504
1.40000504
1.40000504
1.40000504
1.40000504
1.40000504
1.40000504
1.40000504
1.40000504
1.40000504
1.40000504
1.40000504
1.40000504
1.40000504
1.40000504
1.40000504
1.40000504
1.40000504
1.40000504
1.40000504
1.40000504
1.40000504
1.40000504
1.40000504
1.40000504
1.40000504
1.40000504
1.40000504
1.40000504
1.40000504
1.40000504
1.40000504
1.40000504
1.40000504
1.40000504
1.40000504
1.40000504
1.40000504
1.40000504
1.40000504
1.40000504
1.40000504
1.40000504
1.40000504
1.40000504
1.40000504
1.40000504
1.40000504
1.40000504
1.40000504
1.40000504
1.40000504
1.40000504
1.40000504
1.40000504
1.40000504
1.40000504
1.40000504
1.40000504
1.40000504
1.40000504
1.40000504
1.40000504
1.40000504
1.40000504
1.40000504
1.40000504
1.40000504
1.40000504
1.40000504
1.40000504
1.40000504
1.40000504
1.40000504
1.40000504
1.40000504
1.40000504
1.40000504
1.40000504
1.40000504
1.40000504
1.40000504
1.40000504
1.40000504
1.40000504
1.40000504
1.40000504
1.40000504
1.40000504
1.40000504
1.40000504
1.40000504
1.40000504
1.40000504
1.40000504
1.40000504
1.40000504
1.40000504
1.40000504
1.40000504
1.40000504
1.40000504
1.40000504
1.40000504
1.40000504
1.40000504
1.40000504
1.40000504
1.40000504
1.40000504
1.40000504
1.40000504
1.40000504
1.40000504
1.40000504
1.40000504
1.40000504
1.40000504
1.40000504
1.40000504
1.40000504
1.40000504
1.40000504
1.40000504
1.40000504
1.40000504
1.40000504
1.40000504
1.40000504
1.40000504
1.40000504
1.40000504
1.40000504
1.40000504
1.40000504
1.40000504
1.40000504
1.40000504
1.40000504
1.40000504
1.40000504
1.40000504
1.40000504
1.40000504
1.40000504
1.40000504
1.40000504
1.40000504
1.40000504
1.40000504
1.40000504
1.40000504
1.40000504
1.40000504
1.40000504
1.40000504
1.40000504
1.40000504
1.40000504
1.40000504
1.40000504
1.40000504
1.40000504
1.40000504
1.40000504
1.40000504
1.40000504
1.40000504
1.40000504
1.40000504
1.40000504
1.40000504
1.40000504
1.40000504
1.40000504
1.40000504
1.40000504
1.40000504
1.40000504
1.40000504
1.40000504
1.40000504
1.40000504
1.40000504
1.40000504
1.40000504
1.40000504
1.40000504
1.40000504
1.40000504
1.40000504
1.40000504
1.40000504
1.40000504
1.40000504
1.40000504
1.40000504
1.40000504
1.40000504
1.40000504
1.40000504
1.40000504
1.40000504
1.40000504
1.40000504
1.40000504
1.40000504
1.40000504
1.40000504
1.40000504
1.40000504
1.40000504
1.40000504
1.40000504
1.40000504
1.40000504
1.40000504
1.40000504
1.40000504
1.40000504
1.40000504
1.40000504
1.40000504
1.40000504
1.40000504
1.40000504
1.40000504
1.40000504
1.40000504
1.40000504
1.40000504
1.40000504
1.40000504
1.40000504
1.40000504
1.40000504
1.40000504
1.40000504
1.40000504
1.40000504
1.40000504
1.40000504
1.40000504
1.40000504
1.40000504
1.40000504
1.40000504
1.40000504
1.40000504
1.40000504
1.40000504
1.40000504
1.40000504
1.40000504
1.40000504
1.40000504
1.40000504
1.40000504
1.40000504
1.40000504
1.40000504
1.40000504
1.40000504
1.40000504
1.40000504
1.40000504
1.40000504
1.40000504
1.40000504
1.40000504
1.40000504
1.40000504
1.40000504
1.40000504
1.40000504
1.40000504
1.40000504
1.40000504
1.40000504
1.40000504
1.40000504
1.40000504
1.40000504
1.40000504
1.40000504
1.40000504
1.40000504
1.40000504
1.40000504
1.40000504
1.40000504
1.40000504
1.40000504
1.40000504
1.40000504
1.40000504
1.40000504
1.40000504
1.40000504
1.40000504
1.40000504
1.40000504
1.40000504
1.40000504
1.40000504
1.40000504
1.40000504
1.40000504
1.40000504
1.40000504
1.40000504
1.40000504
1.40000504
1.40000504
1.40000504
1.40000504
1.40000504
1.40000504
1.40000504
1.40000504
1.40000504
1.40000504
1.40000504
1.40000504
1.40000504
1.40000504
1.40000504
1.40000504
1.40000504
1.40000504
1.40000504
1.40000504
1.40000504
1.40000504
1.40000504
1.40000504
1.40000504
1.40000504
1.40000504
1.40000504
1.40000504
1.40000504
1.40000504
1.40000504
1.40000504
1.40000504
1.40000504
1.40000504
1.40000504
1.40000504
1.40000504
1.40000504
1.40000504
1.40000504
1.40000504
1.40000504
1.40000504
1.40000504
1.40000504
1.40000504
1.40000504
1.40000504
1.40000504
1.40000504
1.40000504
1.40000504
1.40000504
1.40000504
1.40000504
1.40000504
1.40000504
1.40000504
1.40000504
1.40000504
1.40000504
1.40000504
1.40000504
1.40000504
1.40000504
1.40000504
1.40000504
1.40000504
1.40000504
1.40000504
1.40000504
1.40000504
1.40000504
1.40000504
1.40000504
1.40000504
1.40000504
1.40000504
1.40000504
1.40000504
1.40000504
1.40000504
1.40000504
1.40000504
1.40000504
1.40000504
1.40000504
1.40000504
1.40000504
1.40000504
1.40000504
1.40000504
1.40000504
1.40000504
1.40000504
1.40000504
1.40000504
1.40000504
1.40000504
1.40000504
1.40000504
1.40000504
1.40000504
1.40000504
1.40000504
1.40000504
1.40000504
1.40000504
1.40000504
1.40000504
1.40000504
1.40000504
1.40000504
1.40000504
1.40000504
1.40000504
1.40000504
1.40000504
1.40000504
1.40000504
1.40000504
1.40000504
1.40000504
1.40000504
1.40000504
1.40000504
1.40000504
1.40000504
1.40000504
1.40000504
1.40000504
1.40000504
1.40000504
1.40000504
1.40000504
1.40000504
1.40000504
1.40000504
1.40000504
1.40000504
1.40000504
1.40000504
1.40000504
1.40000504
1.40000504
1.40000504
1.40000504
1.40000504
1.40000504
1.40000504
1.40000504
1.40000504
1.40000504
1.40000504
1.40000504
1.40000504
1.40000504
1.40000504
1.40000504
1.40000504
1.40000504
1.40000504
1.40000504
1.40000504
1.40000504
1.40000504
1.40000504
1.40000504
1.40000504
1.40000504
1.40000504
1.40000504
1.40000504
1.40000504
1.40000504
1.40000504
1.40000504
1.40000504
1.40000504
1.40000504
1.40000504
1.40000504
1.40000504
1.40000504
1.40000504
1.40000504
1.40000504
1.40000504
1.40000504
1.40000504
1.40000504
1.40000504
1.40000504
1.40000504
1.40000504
1.40000504
1.40000504
1.40000504
1.40000504
1.40000504
1.40000504
1.40000504
1.40000504
1.40000504
1.40000504
1.40000504
1.40000504
1.40000504
1.40000504
1.40000504
1.40000504
1.40000504
1.40000504
1.40000504
1.40000504
1.40000504
1.40000504
1.40000504
1.40000504
1.40000504
1.40000504
1.40000504
1.40000504
1.40000504
1.40000504
1.40000504
1.40000504
1.40000504
1.40000504
1.40000504
1.40000504
1.40000504
1.40000504
1.40000504
1.40000504
1.40000504
1.40000504
1.40000504
1.40000504
1.40000504
1.40000504
1.40000504
1.40000504
1.40000504
1.40000504
1.40000504
1.40000504
1.40000504
1.40000504
1.40000504
1.40000504
1.40000504
1.40000504
1.40000504
1.40000504
1.40000504
1.40000504
1.40000504
1.40000504
1.40000504
1.40000504
1.40000504
1.40000504
1.40000504
1.40000504
1.40000504
1.40000504
1.40000504
1.40000504
1.40000504
1.40000504
1.40000504
1.40000504
1.40000504
1.40000504
1.40000504
1.40000504
1.40000504
1.40000504
1.40000504
1.40000504
1.40000504
1.40000504
1.40000504
1.40000504
1.40000504
1.40000504
1.40000504
1.40000504
1.40000504
1.40000504
1.40000504
1.40000504
1.40000504
1.40000504
1.40000504
1.40000504
1.40000504
1.40000504
1.40000504
1.40000504
1.40000504
1.40000504
1.40000504
1.40000504
1.40000504
1.40000504
1.40000504
1.40000504
1.40000504
1.40000504
1.40000504
1.40000504
1.40000504
1.40000504
1.40000504
1.40000504
1.40000504
1.40000504
1.40000504
1.40000504
1.40000504
1.40000504
1.40000504
1.40000504
1.40000504
1.40000504
1.40000504
1.40000504
1.40000504
1.40000504
1.40000504
1.40000504
1.40000504
1.40000504
1.40000504
1.40000504
1.40000504
1.40000504
1.40000504
1.40000504
1.40000504
1.40000504
1.40000504
1.40000504
1.40000504
1.40000504
1.40000504
1.40000504
1.40000504
1.40000504
1.40000504
1.40000504
1.40000504
1.40000504
1.40000504
1.40000504
1.40000504
1.40000504
1.40000504
1.40000504
1.40000504
1.40000504
1.40000504
1.40000504
1.40000504
1.40000504
1.40000504
1.40000504
1.40000504
1.40000504
1.40000504
1.40000504
1.40000504
1.40000504
1.40000504
1.40000504
1.40000504
1.40000504
1.40000504
1.40000504
1.40000504
1.40000504
1.40000504
1.40000504
1.40000504
1.40000504
1.40000504
1.40000504
1.40000504
1.40000504
1.40000504
1.40000504
1.40000504
1.40000504
1.40000504
1.40000504
1.40000504
1.40000504
1.40000504
1.40000504
1.40000504
1.40000504
1.40000504
1.40000504
1.40000504
1.40000504
1.40000504
1.40000504
1.40000504
1.40000504
1.40000504
1.40000504
1.40000504
1.40000504
1.40000504
1.40000504
1.40000504
1.40000504
1.40000504
1.40000504
1.40000504
1.40000504
1.40000504
1.40000504
1.40000504
1.40000504
1.40000504
1.40000504
1.40000504
1.40000504
1.40000504
1.40000504
1.40000504
1.40000504
1.40000504
1.40000504
1.40000504
1.40000504
1.40000504
1.40000504
1.40000504
1.40000504
1.40000504
1.40000504
1.40000504
1.40000504
1.40000504
1.40000504
1.40000504
1.40000504
1.40000504
1.40000504
1.40000504
1.40000504
1.40000504
1.40000504
1.40000504
1.40000504
1.40000504
1.40000504
1.40000504
1.40000504
1.40000504
1.40000504
1.40000504
1.40000504
1.40000504
1.40000504
1.40000504
1.40000504
1.40000504
1.40000504
1.40000504
1.40000504
1.40000504
1.40000504
1.40000504
1.40000504
1.40000504
1.40000504
1.40000504
1.40000504
1.40000504
1.40000504
1.40000504
1.40000504
1.40000504
1.40000504
1.40000504
1.40000504
1.40000504
1.40000504
1.40000504
1.40000504
1.40000504
1.40000504
1.40000504
1.40000504
1.40000504
1.40000504
1.40000504
1.40000504
1.40000504
1.40000504
1.40000504
1.40000504
1.40000504
1.40000504
1.40000504
1.40000504
1.40000504
1.40000504
1.40000504
1.40000504
1.40000504
1.40000504
1.40000504
1.40000504
1.40000504
1.40000504
1.40000504
1.40000504
1.40000504
1.40000504
1.40000504
1.40000504
1.40000504
1.40000504
1.40000504
1.40000504
1.40000504
1.40000504
1.40000504
1.40000504
1.40000504
1.40000504
1.40000504
1.40000504
1.40000504
1.40000504
1.40000504
1.40000504
1.40000504
1.40000504
1.40000504
1.40000504
1.40000504
1.40000504
1.40000504
1.40000504
1.40000504
1.40000504
1.40000504
1.40000504
1.40000504
1.40000504
1.40000504
1.40000504
1.40000504
1.40000504
1.40000504
1.40000504
1.40000504
1.40000504
1.40000504
1.40000504
1.40000504
1.40000504
1.40000504
1.40000504
1.40000504
1.40000504
1.40000504
1.40000504
1.40000504
1.40000504
1.40000504
1.40000504
1.40000504
1.40000504
1.40000504
1.40000504
1.40000504
1.40000504
1.40000504
1.40000504
1.40000504
1.40000504
1.40000504
1.40000504
1.40000504
1.40000504
1.40000504
1.40000504
1.40000504
1.40000504
1.40000504
1.40000504
1.40000504
1.40000504
1.40000504
1.40000504
1.40000504
1.40000504
1.40000504
1.40000504
1.40000504
1.40000504
1.40000504
1.40000504
1.40000504
1.40000504
1.40000504
1.40000504
1.40000504
1.40000504
1.40000504
1.40000504
1.40000504
1.40000504
1.40000504
1.40000504
1.40000504
1.40000504
1.40000504
1.40000504
1.40000504
1.40000504
1.40000504
1.40000504
1.40000504
1.40000504
1.40000504
1.40000504
1.40000504
1.40000504
1.40000504
1.40000504
1.40000504
1.40000504
1.40000504
1.40000504
1.40000504
1.40000504
1.40000504
1.40000504
1.40000504
1.40000504
1.40000504
1.40000504
1.40000504
1.40000504
1.40000504
1.40000504
1.40000504
1.40000504
1.40000504
1.40000504
1.400005023
1.40000504
1.40000504
1.40000504
1.40000504
1.40000504
1.40000504
1.40000504
1.40000504
1.40000504
1.40000504
1.40000504
1.40000504
1.40000504
1.40000504
1.40000504
1.40000504
1.40000504
1.40000504
1.40000504
1.40000504
1.40000504
1.40000504
1.40000504
1.400005046
1.400004667
1.40000504
1.40000504
1.40000504
1.40000504
1.40000504
1.40000504
1.40000504
1.40000504
1.40000504
1.40000504
1.40000504
1.40000504
1.40000504
1.40000504
1.40000504
1.40000504
1.40000504
1.40000504
1.40000504
1.40000504
1.400005043
1.400005062
1.400005166
1.400007782
1.400003297
1.40000504
1.40000504
1.40000504
1.40000504
1.40000504
1.40000504
1.40000504
1.40000504
1.40000504
1.40000504
1.40000504
1.40000504
1.40000504
1.40000504
1.40000504
1.400005041
1.400005048
1.400005087
1.400005304
1.400006271
1.400010592
1.400025974
1.400077202
1.400349197
1.400380029
1.40000504
1.40000504
1.40000504
1.40000504
1.40000504
1.40000504
1.40000504
1.40000504
1.40000504
1.40000504
1.40000504
1.400005043
1.400005058
1.400005156
1.400005626
1.400007571
1.400014793
1.400037988
1.400113015
1.400312428
1.400878862
1.402082366
1.404916947
1.410305672
1.417009168
1.40000504
1.40000504
1.40000504
1.40000504
1.40000504
1.40000504
1.40000504
1.400005044
1.400005076
1.400005275
1.400006231
1.400010121
1.40002394
1.400066158
1.400187328
1.400485236
1.401236185
1.402753289
1.406129795
1.411989771
1.423174248
1.438672866
1.463759205
1.495531293
1.529520169
1.40000504
1.40000504
1.40000504
1.400005042
1.40000508
1.400005373
1.400007001
1.400013861
1.400038906
1.400113193
1.400321909
1.400811119
1.401947091
1.404083237
1.408319585
1.415203464
1.427814003
1.445311154
1.472150713
1.505056168
1.546797479
1.591241663
1.637981354
1.68452473
1.722138446
1.400005049
1.400005201
1.400006728
1.400015521
1.400053367
1.400175071
1.400519003
1.401322948
1.40308613
1.406251157
1.412140735
1.421287841
1.435873913
1.455157316
1.481762737
1.515627991
1.559319755
1.602979418
1.645353961
1.692324497
1.728374963
1.762034848
1.785585502
1.808662004
1.820685483
1.400031233
1.400153234
1.400640059
1.401891389
1.404690699
1.409808843
1.418368316
1.431073778
1.45009911
1.47319087
1.503142201
1.538912527
1.580274781
1.622542496
1.667846344
1.718785524
1.759556197
1.787092853
1.812035872
1.830695619
1.839650789
1.851135891
1.858975835
1.860720841
1.859701276
1.403500166
1.411015841
1.425348126
1.44475347
1.471251687
1.500030535
1.531593073
1.569746621
1.606234095
1.637058751
1.672981884
1.710489258
1.735978753
1.759838223
1.784451632
1.801219196
1.811958879
1.826020888
1.84358212
1.853249877
1.86073453
1.859580753
1.85982743
1.857570812
1.855050856
1.454824679
1.518968527
1.585998412
1.650817173
1.708612334
1.762219053
1.810562564
1.851484915
1.881074967
1.913486222
1.942759295
1.950009898
1.951677217
1.955817394
1.953796354
1.946873114
1.930586262
1.910494168
1.892062321
1.878392877
1.863516008
1.85176386
1.845569703
1.839819828
1.835589236
1.40000504
1.40000504
1.40000504
1.40000504
1.40000504
1.40000504
1.40000504
1.40000504
1.40000504
1.40000504
1.40000504
1.400005054
1.400005604
1.400017673
1.400225008
1.402161671
1.414663433
1.462125395
1.575357104
1.744270988
1.885388902
2.009209162
2.059218306
2.035007591
1.948917475
1.40000504
1.40000504
1.40000504
1.40000504
1.40000504
1.40000504
1.40000504
1.40000504
1.40000504
1.40000504
1.400005054
1.400005532
1.400018987
1.400195821
1.402240351
1.413012316
1.455704883
1.534546887
1.635060281
1.723031892
1.826128058
1.891717305
1.961798488
1.956177916
1.909225374
1.40000504
1.40000504
1.40000504
1.40000504
1.40000504
1.40000504
1.40000504
1.40000504
1.40000504
1.40000505
1.400005544
1.40001605
1.400221958
1.40185608
1.414497188
1.451281598
1.537897181
1.629543427
1.681305953
1.701151905
1.73504109
1.785113992
1.843619966
1.886981904
1.854535896
1.40000504
1.40000504
1.40000504
1.40000504
1.40000504
1.40000504
1.40000504
1.40000504
1.400005048
1.40000537
1.400016947
1.400170152
1.402207
1.41213948
1.457706506
1.538708367
1.622187697
1.686350612
1.702156732
1.700499708
1.694123166
1.69255197
1.695268626
1.7336477
1.722834544
1.40000504
1.40000504
1.40000504
1.40000504
1.40000504
1.40000504
1.40000504
1.400005046
1.400005355
1.400012965
1.400193587
1.401678004
1.414254634
1.452066435
1.541295667
1.645404399
1.689813614
1.699690467
1.701452362
1.690133056
1.658497455
1.607740762
1.572455846
1.574771263
1.594608521
1.40000504
1.40000504
1.40000504
1.40000504
1.40000504
1.40000504
1.400005044
1.400005262
1.400013708
1.400136088
1.401975513
1.411474382
1.457342788
1.545809085
1.627558157
1.696514354
1.711661322
1.708188578
1.691628719
1.652796274
1.601705175
1.54197255
1.476435236
1.450423712
1.463575644
1.40000504
1.40000504
1.40000504
1.40000504
1.40000504
1.400005043
1.400005194
1.400010853
1.400157192
1.401464204
1.413291538
1.451624736
1.542407001
1.659981576
1.693538544
1.705068236
1.709926641
1.695377106
1.655960423
1.599201162
1.530165024
1.479171455
1.411345585
1.36881632
1.345667542
1.40000504
1.40000504
1.40000504
1.40000504
1.400005041
1.400005173
1.400009717
1.400108006
1.401721658
1.4106544
1.455567135
1.548954195
1.634970652
1.710812816
1.719187262
1.714770101
1.696688743
1.654417852
1.592135891
1.53038985
1.459959052
1.407087199
1.354852738
1.305201435
1.260022461
1.40000504
1.40000504
1.40000504
1.400005041
1.400005098
1.400008911
1.400098658
1.401236148
1.411982214
1.450532366
1.54313841
1.670324774
1.695917737
1.711378483
1.717446594
1.70010901
1.653321875
1.591482876
1.516650118
1.456732743
1.393714415
1.337124682
1.292352521
1.23966554
1.185446751
1.40000504
1.40000504
1.40000504
1.400005089
1.40000706
1.400083235
1.401218137
1.409485652
1.453315317
1.547059689
1.641450204
1.726361275
1.728221775
1.721806178
1.699836591
1.652743073
1.581767254
1.512931565
1.440694842
1.379531677
1.327866535
1.270624279
1.23263011
1.18570245
1.152666717
1.40000504
1.40000504
1.400005054
1.400006991
1.400053301
1.401066052
1.409731607
1.447483593
1.542486801
1.673583949
1.707904917
1.72895223
1.729581919
1.7060414
1.651239577
1.579238586
1.501196377
1.430888384
1.366093299
1.3036493
1.255093429
1.201753949
1.160560317
1.12900579
1.130789394
1.40000504
1.40000505
1.400005679
1.400054363
1.400735586
1.409320283
1.446868269
1.545624984
1.653876763
1.739195656
1.738880347
1.732974789
1.706438921
1.65035152
1.568894675
1.492811068
1.414573371
1.349984112
1.292719302
1.233926138
1.193585752
1.154212977
1.131611084
1.120556666
1.128660036
1.40000504
1.400005497
1.40002368
1.400778559
1.406850971
1.448782756
1.54114573
1.667514132
1.71866281
1.746602019
1.743152833
1.713585224
1.645348447
1.567420586
1.478614241
1.399857523
1.330208334
1.261452112
1.212409996
1.158811194
1.123107623
1.110690369
1.11474477
1.120564111
1.178182229
1.40000504
1.400019101
1.400353513
1.407259093
1.440070909
1.544567967
1.672208598
1.7475564
1.745013607
1.743125138
1.713973053
1.647295282
1.556061767
1.463167933
1.38628348
1.309805816
1.248367542
1.191245646
1.148004573
1.124752657
1.105215206
1.106293857
1.120413665
1.163002365
1.264077984
1.400005155
1.400287563
1.404086411
1.440827749
1.541210754
1.658827279
1.748146181
1.76402182
1.756241355
1.713286919
1.637770895
1.542988594
1.451851512
1.36286172
1.2817994
1.215048575
1.159851358
1.115230401
1.094950831
1.10059266
1.108663672
1.135734684
1.19342094
1.274851386
1.354020963
1.40001851
1.403526592
1.429790511
1.532657726
1.696031422
1.740427854
1.758764505
1.758298594
1.720532227
1.637369202
1.531505546
1.435470981
1.340451226
1.268930405
1.199724192
1.13607098
1.110342587
1.091125838
1.089311453
1.100413974
1.153109019
1.229959757
1.299185254
1.340226046
1.371486531
1.40059547
1.426730533
1.525093089
1.661263748
1.774044769
1.77825887
1.769217946
1.72193479
1.629329291
1.521928184
1.407389958
1.315936764
1.230217942
1.148899161
1.109839358
1.078619882
1.082363991
1.087231873
1.117422485
1.179002515
1.264527647
1.335314108
1.375043565
1.382874808
1.382101868
1.411554092
1.511931018
1.698468642
1.755029839
1.777894221
1.774953514
1.727372382
1.62492308
1.503088797
1.392719056
1.289338884
1.205057629
1.144173933
1.090317561
1.063849772
1.065010186
1.078925327
1.12861022
1.223137569
1.317269629
1.356135402
1.367641165
1.384549547
1.388591427
1.386893989
1.489915034
1.660951615
1.802871658
1.803896233
1.791197116
1.727298774
1.613972257
1.487442524
1.353829467
1.250540509
1.161505313
1.084118346
1.057330727
1.059975869
1.063914901
1.090566078
1.165946764
1.272345968
1.317445099
1.357361422
1.370155859
1.371519801
1.378160264
1.384380918
1.38448648
1.683861474
1.771136724
1.805393481
1.801519093
1.735410966
1.611715264
1.451090659
1.338736694
1.229345462
1.122594706
1.077035498
1.032270138
1.034027768
1.052218593
1.108890103
1.204569304
1.296877627
1.367659463
1.374417718
1.377098017
1.37690539
1.377368745
1.378819535
1.380207563
1.381242997
1.823277009
1.835668771
1.818542131
1.738996505
1.5859916
1.433120365
1.2792071
1.146407934
1.080449779
1.020296386
1.024238985
1.030163872
1.059636523
1.152185461
1.251744024
1.337882882
1.355016928
1.374109939
1.381026888
1.380185849
1.37835037
1.37695693
1.377389743
1.378054541
1.379516004
1.839979694
1.832948121
1.746632534
1.582286554
1.3885905
1.236606426
1.136805967
1.042610905
0.9838028989
0.9857405587
1.004001473
1.086758255
1.2042577
1.285900693
1.344582867
1.373079611
1.374010933
1.375258751
1.377681806
1.377029881
1.375969226
1.376497574
1.378143184
1.379617468
1.381251248
1.851765353
1.762386285
1.552619167
1.339202821
1.162327612
1.025706073
0.9797695323
0.9800770029
0.9822345416
1.023937699
1.127323265
1.245774207
1.337477458
1.357317298
1.370151277
1.381819606
1.378162751
1.373144981
1.372746016
1.373572801
1.374860492
1.377304848
1.380217747
1.382786933
1.383308901
1.776732876
1.545124053
1.309059103
1.127837536
1.028959388
0.9422473884
0.9319504311
0.9549734468
1.047459413
1.207154752
1.324467889
1.349814662
1.383245389
1.386578943
1.380023508
1.378407525
1.377160672
1.376617428
1.377892032
1.379685426
1.381594993
1.383749154
1.385968033
1.386692923
1.386502911
1.453212473
1.016830568
0.9821663514
0.965685623
0.9638218942
0.9569736161
0.9926029019
1.138151215
1.305337871
1.353305946
1.398076106
1.394590751
1.391548021
1.387309387
1.387434054
1.387273224
1.387622235
1.388846643
1.390633229
1.391674992
1.392698341
1.394072784
1.395338049
1.395553108
1.394151394
0.8861648851
0.7888919189
0.8260377544
0.890740999
0.9456357318
0.9950389712
1.138620279
1.331369621
1.40702787
1.390801351
1.395874046
1.392819769
1.388523138
1.386319323
1.3926144
1.393505245
1.393589922
1.394745169
1.396166964
1.394963614
1.394123838
1.395655109
1.398501623
1.399777832
1.398587317
0.8474167936
0.7843574124
0.8216656056
0.891026423
0.9514784173
1.028122323
1.21529841
1.386143122
1.427411039
1.396445549
1.405026682
1.397144363
1.388202577
1.385870379
1.392230967
1.394387088
1.394344369
1.39481815
1.396277942
1.395141121
1.393968064
1.394349551
1.396742149
1.39821951
1.398114585
0.8382420534
0.7814379757
0.8177434611
0.8895942591
0.9569451904
1.060601762
1.259436995
1.409054009
1.438023724
1.412141861
1.419537437
1.408380536
1.391805221
1.387474888
1.39360114
1.395603577
1.395594533
1.395907644
1.397423706
1.398338154
1.397197504
1.39539162
1.39670087
1.39789174
1.397879529
0.8284112228
0.7800555692
0.8194509338
0.8880366052
0.9681495782
1.099719195
1.293030801
1.419041684
1.428510712
1.416600027
1.424131396
1.414155991
1.401640105
1.394528514
1.395984703
1.397747495
1.400026886
1.40144162
1.403220114
1.404821508
1.405913357
1.404538548
1.402480923
1.400349806
1.398264193
0.8207094576
0.7781697896
0.8233822075
0.887422517
0.980325171
1.131357553
1.333918135
1.421062968
1.420345692
1.408967254
1.417610548
1.411102184
1.405218902
1.400121849
1.401014574
1.401771595
1.404999438
1.40732414
1.407424872
1.406887234
1.408236106
1.409220967
1.408288153
1.405577492
1.400521267
0.8137972557
0.7785403896
0.8259373878
0.8923609839
1.000766425
1.173941806
1.370021472
1.421752451
1.418252847
1.396499451
1.40620657
1.402813271
1.401187022
1.400344903
1.402067826
1.402034668
1.404346155
1.406919486
1.406082386
1.403601129
1.404345136
1.407062503
1.408042247
1.406499971
1.401281271
0.8077394343
0.7794588789
0.8274694859
0.9010815214
1.029033021
1.244782127
1.39295867
1.422000941
1.417559872
1.389670375
1.39959063
1.39514492
1.394659596
1.397325058
1.399955559
1.398262454
1.399078832
1.401636837
1.401163641
1.397378478
1.396760606
1.399579904
1.40175662
1.40168666
1.400192438
0.8027331499
0.7829003905
0.8301002971
0.9120664676
1.070182142
1.302836779
1.406619953
1.429305271
1.423743188
1.39671341
1.4035418
1.395529103
1.390587241
1.391642239
1.395403156
1.393637348
1.3932205
1.395458702
1.397260248
1.395489431
1.393318267
1.392344298
1.393290849
1.39470112
1.397468856
0.7994117346
0.7865151262
0.8350348064
0.9313856225
1.125582166
1.324291272
1.40718673
1.42362386
1.421395194
1.399771702
1.405457058
1.395538347
1.385686731
1.385535916
1.390535506
1.391051419
1.391667763
1.393527827
1.396923396
1.397666154
1.396515552
1.394178373
1.392631872
1.392009164
1.393078085
0.7969660246
0.789990205
0.8418335787
0.9539343556
1.16193762
1.339719392
1.40159032
1.406913379
1.404605774
1.388945415
1.395635594
1.386165561
1.377913172
1.379446021
1.385756631
1.387443728
1.38920371
1.390717576
1.392335163
1.393704891
1.394866212
1.394715625
1.394326675
1.391688528
1.387301235
0.7955908039
0.7956598643
0.8504284109
0.9748748035
1.193737646
1.372979671
1.391470773
1.385000448
1.378426025
1.371734092
1.379878661
1.373164502
1.369307381
1.371545954
1.376632212
1.378111114
1.380609308
1.382195795
1.382438551
1.383827305
1.386960042
1.388805093
1.389506353
1.386851691
1.380240428
0.7976128433
0.8019778299
0.8629549669
1.013060534
1.268649946
1.383837511
1.380807327
1.367126215
1.354653835
1.351557284
1.362269776
1.35956992
1.359140883
1.360453254
1.363655529
1.36418169
1.367245386
1.369058256
1.369097067
1.369391309
1.37314739
1.377055841
1.378463195
1.376762792
1.372057371
0.7990077599
0.8067887166
0.8797913752
1.062464802
1.328692611
1.36657728
1.3602812
1.355045629
1.344132854
1.335360063
1.34579806
1.343789755
1.344674034
1.344742364
1.347487733
1.348197486
1.351595213
1.353174436
1.352992076
1.35466392
1.358210034
1.361366918
1.362446182
1.361760596
1.360109653
0.8031802301
0.8144246271
0.9019126887
1.116734629
1.334369353
1.340763122
1.343128823
1.344251548
1.341100422
1.327570911
1.333228549
1.328152597
1.327878433
1.328650877
1.332794404
1.334062011
1.337138857
1.338344982
1.337781346
1.338306325
1.339990737
1.341799197
1.342356397
1.343876026
1.344450106
0.8092090539
0.8284377031
0.9326970516
1.17734667
1.341864109
1.333190903
1.325046006
1.330275429
1.330276262
1.321839763
1.323711211
1.314658381
1.311308981
1.314699883
1.31941373
1.32017439
1.32234091
1.325162707
1.325642282
1.325339756
1.325542328
1.325492575
1.325835005
1.325198287
1.327762124
0.8133801442
0.8433613395
0.9669946472
1.219092509
1.358662523
1.333017432
1.316405408
1.315960449
1.31717515
1.31102091
1.308955001
1.299814736
1.298995383
1.304155631
1.308027033
1.307856852
1.309404837
1.312488406
1.31341787
1.312552569
1.313537704
1.313343811
1.312391597
1.310414503
1.308591335
0.8214931392
0.8564483809
1.010625534
1.26122069
1.359750574
1.332309422
1.305271559
1.295519642
1.29589668
1.29358175
1.296103038
1.288985269
1.289288451
1.293193669
1.296192198
1.295520747
1.296801744
1.299575567
1.300794507
1.300479685
1.301079075
1.301541501
1.300988557
1.29824902
1.293963703
0.8313078451
0.8734769863
1.070782849
1.311052576
1.353209569
1.31322299
1.278393408
1.275377078
1.275831167
1.277683918
1.284450699
1.279971953
1.279799995
1.281171491
1.283033351
1.2819843
1.282928662
1.283619792
1.284822195
1.286895403
1.289653788
1.290520122
1.290196849
1.287027116
1.282079838
0.8390500562
0.9005573914
1.139382366
1.328423214
1.325663058
1.284799835
1.26434301
1.266378497
1.267333778
1.266549276
1.271835445
1.267258788
1.265901612
1.264072844
1.265597213
1.267253422
1.268783776
1.268548299
1.268639508
1.271077666
1.274872474
1.277351912
1.277787721
1.276353314
1.272183854
0.8511358386
0.9420369008
1.193029239
1.329211988
1.306529553
1.262505252
1.256922994
1.262836972
1.263858776
1.25642329
1.258073573
1.252977826
1.252342319
1.251620317
1.253570202
1.256058179
1.258138303
1.257947009
1.257881178
1.259510005
1.262382589
1.264663143
1.265335873
1.265001197
1.264162665
0.8621928246
0.9987480334
1.241348204
1.323687289
1.293185825
1.24779072
1.247354217
1.258907422
1.255259224
1.244546723
1.245838654
1.24206304
1.242691386
1.242629289
1.244849544
1.248517579
1.251285433
1.25116206
1.251554551
1.253819434
1.256059447
1.257204541
1.256628326
1.255462497
1.255778394
0.8703059655
1.054966987
1.280237972
1.326308746
1.284936858
1.23462831
1.234020619
1.247850657
1.245883171
1.239081043
1.240530347
1.23590881
1.236537857
1.239011983
1.242949953
1.245177662
1.248120302
1.249202658
1.24902012
1.249892268
1.25100298
1.251142334
1.249683022
1.249140205
1.249819043
0.8734731664
1.093106931
1.303846043
1.324674517
1.272881371
1.228156747
1.223613835
1.23092212
1.235395118
1.236386055
1.239809942
1.235717435
1.23778762
1.240646391
1.244299845
1.240686268
1.244804999
1.248529106
1.24883311
1.24712445
1.249150414
1.250819379
1.25081707
1.250202124
1.249209998
0.8509939569
1.127300449
1.312879554
1.315792738
1.259127383
1.223114342
1.218628283
1.226598926
1.22544663
1.230034148
1.236360079
1.235889551
1.238998477
1.241253043
1.24277035
1.238370145
1.243061547
1.24562861
1.247037468
1.248151361
1.251281524
1.253036814
1.253584827
1.251773292
1.249412506
0.868376224
1.183701531
1.310770716
1.296696577
1.237516377
1.218020798
1.223998736
1.228145073
1.228318628
1.232044673
1.237674771
1.23330618
1.23639433
1.236759853
1.239097753
1.239534986
1.242391093
1.242879035
1.244583846
1.249095242
1.253460504
1.255298803
1.25536667
1.251353941
1.247641551
0.8700880037
1.21191289
1.296987954
1.282639232
1.226212965
1.211471771
1.227702295
1.240698053
1.236934302
1.232777827
1.235802229
1.229984826
1.23221415
1.231905726
1.236466346
1.241619245
1.24120871
1.241310537
1.242897213
1.247770718
1.251934061
1.253984902
1.254156405
1.252680892
1.24890633
0.8516753325
1.138507943
1.295309222
1.287997841
1.236579905
1.207539944
1.225552929
1.246450324
1.24215286
1.231009315
1.233290583
1.22925451
1.231334304
1.23105937
1.235635867
1.241410529
1.240010222
1.240490676