/*--------------------------------*- C++ -*----------------------------------*\
  =========                 |
  \\      /  F ield         | OpenFOAM: The Open Source CFD Toolbox
   \\    /   O peration     | Website:  https://openfoam.org
    \\  /    A nd           | Version:  7
     \\/     M anipulation  |
\*---------------------------------------------------------------------------*/
FoamFile
{
    version     2.0;
    format      ascii;
    class       volVectorField;
    location    "4.9";
    object      U;
}
// * * * * * * * * * * * * * * * * * * * * * * * * * * * * * * * * * * * * * //

dimensions      [0 1 -1 0 0 0 0];

internalField   nonuniform List<vector> 
555
(
(2.85906956 0.004734019732 0)
(2.859296198 0.0054712745 0)
(2.859664697 0.004959526834 0)
(2.859719236 0.00324472034 0)
(2.860473632 -1.429588395e-06 0)
(2.85316456 0.0004468953325 0)
(2.85306126 0.001584853131 0)
(2.853803866 0.002263861298 0)
(2.854567128 0.002994436605 0)
(2.855281884 0.003333999903 0)
(2.856061774 0.002819396742 0)
(2.856489192 0.001461222288 0)
(2.85704397 0.0001988134977 0)
(2.857783938 -0.001071929074 0)
(2.859137327 -0.001179843302 0)
(2.86018586 -0.000317143687 0)
(2.860606384 0.001399208404 0)
(2.861528956 0.002827132862 0)
(2.861373925 0.003633745862 0)
(2.860860334 0.002878619294 0)
(2.860539822 0.001080130944 0)
(2.861146283 -0.001539303458 0)
(2.857868847 0.0004583281417 0)
(2.857629872 0.001406926901 0)
(2.857917592 0.002129658976 0)
(2.858520385 0.002736437978 0)
(2.859106447 0.003238900782 0)
(2.859603376 0.003051831399 0)
(2.859884476 0.001746484308 0)
(2.860302613 0.000420296236 0)
(2.861081229 -0.0007416305525 0)
(2.861783319 -0.00154199562 0)
(2.862420248 -0.001597417048 0)
(2.863365088 -0.001545780476 0)
(2.86396057 -0.0007068693018 0)
(2.864114222 -0.0002467590135 0)
(2.863910057 0.0001903947676 0)
(2.863277443 -0.0005809131661 0)
(2.863054558 -0.001259470291 0)
(2.8638921 0.0003009657802 0)
(2.863531835 0.0007486479724 0)
(2.863383465 0.001360130787 0)
(2.863948499 0.001542796667 0)
(2.864819598 0.001672614275 0)
(2.864953333 0.001338887711 0)
(2.864966747 0.0006367388201 0)
(2.864967777 0.0002244322321 0)
(2.86550793 -0.0003273585415 0)
(2.865986239 -0.001345246967 0)
(2.866655684 -0.002343046885 0)
(2.867229313 -0.003016055408 0)
(2.867166779 -0.003906874867 0)
(2.866892044 -0.003239033907 0)
(2.866969352 -0.001397932147 0)
(2.866540759 -0.0005649263559 0)
(2.866471384 0.0001347216681 0)
(2.869935463 -0.0002481193964 0)
(2.870033271 -0.0002148423534 0)
(2.869518846 -9.410393392e-05 0)
(2.869543232 -0.0004152223166 0)
(2.870050977 -0.0008680212739 0)
(2.87037651 -0.00130173925 0)
(2.870780165 -0.001042314394 0)
(2.870873354 -0.000685892067 0)
(2.870867096 -0.0009359996362 0)
(2.871154641 -0.001599886859 0)
(2.871865305 -0.002527274214 0)
(2.872531642 -0.003552581749 0)
(2.871937926 -0.004147115445 0)
(2.871651634 -0.004151758152 0)
(2.870681845 -0.001777189535 0)
(2.870285006 -0.0002745507353 0)
(2.870384564 0.001334576265 0)
(2.875440935 -0.0006578592812 0)
(2.875660471 -0.001288400626 0)
(2.875293838 -0.002067357435 0)
(2.875307477 -0.003033508379 0)
(2.87558182 -0.0036931946 0)
(2.875765129 -0.003128115546 0)
(2.876151416 -0.002004857353 0)
(2.876656621 -0.001242422909 0)
(2.876645853 -0.0009368727106 0)
(2.876579309 -0.001209371857 0)
(2.876942304 -0.001872637853 0)
(2.877505415 -0.002801482669 0)
(2.87736246 -0.003334492206 0)
(2.877278188 -0.003251410666 0)
(2.876765182 -0.001531087591 0)
(2.875641301 0.0005265371712 0)
(2.875239674 0.001849589488 0)
(2.880738029 -0.0004872703589 0)
(2.880440661 -0.001867456585 0)
(2.880502067 -0.002747792377 0)
(2.880975004 -0.003316807487 0)
(2.88143059 -0.003350850207 0)
(2.881436725 -0.002910562251 0)
(2.881349945 -0.002051803441 0)
(2.881700578 -0.001267465595 0)
(2.881838495 -0.0005230235284 0)
(2.881757679 -0.0003452386434 0)
(2.881709168 -0.0007293174867 0)
(2.881693681 -0.001352157494 0)
(2.882043034 -0.001743505197 0)
(2.88232172 -0.001871129682 0)
(2.882189224 -0.0006578014321 0)
(2.881105095 0.0009516346741 0)
(2.880739396 0.001763792286 0)
(2.884630347 -0.00100865436 0)
(2.884691256 -0.001649549653 0)
(2.884996005 -0.002209418739 0)
(2.885409867 -0.002195434244 0)
(2.886186553 -0.001810001447 0)
(2.886415778 -0.001196116739 0)
(2.886821479 -0.0008454268228 0)
(2.88676696 -0.0002053610761 0)
(2.886546983 0.0004235280376 0)
(2.886349557 0.0004399800534 0)
(2.886080471 0.0005132032182 0)
(2.886596212 0.0002540611303 0)
(2.886366813 0.0001047455647 0)
(2.886247958 0.0001416218709 0)
(2.886215238 0.0005159293651 0)
(2.88617558 0.0005841853182 0)
(2.887928552 -5.455839025e-05 0)
(2.887563882 -0.0001862956608 0)
(2.887754069 -0.0004295097324 0)
(2.888449982 -0.0001777134492 0)
(2.889565093 0.0003455767306 0)
(2.890159673 0.0002308602191 0)
(2.890864507 0.0002147768473 0)
(2.891360053 0.0005245107222 0)
(2.891309432 0.001139149589 0)
(2.891404768 0.001465907961 0)
(2.891405367 0.00180234628 0)
(2.891298317 0.001797294145 0)
(2.891007796 0.001851561018 0)
(2.891460235 0.0003993515692 0)
(2.891771023 -0.0004706082453 0)
(2.891182549 -0.001134247583 0)
(2.891890471 0.0002397334464 0)
(2.890777204 0.001256331891 0)
(2.890617457 0.001865061321 0)
(2.89128215 0.002259524208 0)
(2.892259544 0.002408207554 0)
(2.893490688 0.001957655917 0)
(2.894078738 0.00160124596 0)
(2.89471332 0.00181460134 0)
(2.895146489 0.002415258134 0)
(2.89551889 0.00302687306 0)
(2.896115378 0.00325135331 0)
(2.896308283 0.003088863297 0)
(2.896774662 0.002261833215 0)
(2.896987685 0.0004617341198 0)
(2.896661942 -0.001478952354 0)
(2.895929661 -0.001796863744 0)
(2.895557747 0.0003763541038 0)
(2.895078582 0.001745715825 0)
(2.894798198 0.002650915081 0)
(2.895446933 0.002971761599 0)
(2.896335947 0.003191494476 0)
(2.896746665 0.003665712346 0)
(2.897118248 0.003502088428 0)
(2.897818159 0.003524653929 0)
(2.898466028 0.003642840204 0)
(2.899114615 0.004180654029 0)
(2.900008157 0.004445891427 0)
(2.900797337 0.003780090935 0)
(2.90097963 0.001648930411 0)
(2.90115851 -0.001288652963 0)
(2.900845394 -0.002627809441 0)
(2.900105786 -0.001637777376 0)
(2.898498514 0.0006510872791 0)
(2.898596666 0.001691098797 0)
(2.898985725 0.002466695421 0)
(2.899603676 0.003009493154 0)
(2.900411495 0.003259621652 0)
(2.900934121 0.003695839856 0)
(2.901254413 0.00387777497 0)
(2.901782432 0.003994745221 0)
(2.902356636 0.004051622569 0)
(2.902911015 0.00380465941 0)
(2.903645819 0.003314566168 0)
(2.904357244 0.001966403806 0)
(2.904626289 -0.0004786306927 0)
(2.904755234 -0.002257087148 0)
(2.904357952 -0.002305487921 0)
(2.904476124 -0.0007812269178 0)
(2.902092854 0.0009710498031 0)
(2.902034728 0.001465680372 0)
(2.902774552 0.00193650149 0)
(2.903582726 0.002278808442 0)
(2.904421108 0.002616713606 0)
(2.905297309 0.002873375405 0)
(2.905774287 0.003126503432 0)
(2.905979126 0.003072758592 0)
(2.906195663 0.002644005125 0)
(2.906731489 0.001956436542 0)
(2.907676635 0.0009117296447 0)
(2.908702266 -0.0003769978675 0)
(2.909186135 -0.001082730151 0)
(2.908635512 -0.001406101562 0)
(2.908450788 -0.001061361274 0)
(2.908749542 0.0004061310288 0)
(2.905833762 0.001481948296 0)
(2.90592365 0.001480236504 0)
(2.906468823 0.001181311379 0)
(2.906938459 0.0007367296422 0)
(2.907576389 0.0003202970412 0)
(2.908306449 7.955950843e-05 0)
(2.908986232 2.402676462e-05 0)
(2.909472176 4.76027892e-05 0)
(2.910080517 -0.0005043301852 0)
(2.910725937 -0.001194602772 0)
(2.911284049 -0.001869394934 0)
(2.912083136 -0.001842025996 0)
(2.912674067 -0.001008982755 0)
(2.913110461 -0.0001910894471 0)
(2.913671447 0.001414016369 0)
(2.914106214 0.00160202023 0)
(2.910516062 0.002248962138 0)
(2.910670346 0.001798955418 0)
(2.910784615 0.0009594999986 0)
(2.910926659 -0.0005137952392 0)
(2.911262822 -0.002284042604 0)
(2.911822174 -0.003332613436 0)
(2.912462903 -0.003447064884 0)
(2.91300469 -0.003372625792 0)
(2.913866221 -0.003320020081 0)
(2.914777464 -0.003219157818 0)
(2.91574166 -0.002823402215 0)
(2.916882414 -0.002130330631 0)
(2.918114025 -0.0009387740839 0)
(2.919735734 0.001737684298 0)
(2.920649125 0.003437661238 0)
(2.921846498 0.001969803411 0)
(2.916247856 0.002686834569 0)
(2.91668561 0.001803019586 0)
(2.916629322 0.0002450771073 0)
(2.916892018 -0.001568852929 0)
(2.917249313 -0.002874051928 0)
(2.917420041 -0.003553625545 0)
(2.917692855 -0.004092818668 0)
(2.918260707 -0.00429837119 0)
(2.919165669 -0.004088273281 0)
(2.920858816 -0.003952015339 0)
(2.923118878 -0.004005968956 0)
(2.925047107 -0.003224488408 0)
(2.926175591 -0.001028152215 0)
(2.927765156 0.002381989589 0)
(2.928566126 0.003173364393 0)
(2.9291147 0.001102368859 0)
(2.922705582 0.00199884658 0)
(2.92302539 0.001199815811 0)
(2.923143678 -0.000209769988 0)
(2.923136913 -0.001542459057 0)
(2.923174712 -0.002371085414 0)
(2.923395944 -0.002870672591 0)
(2.923683953 -0.003456781904 0)
(2.924352969 -0.004064959887 0)
(2.925839976 -0.003842186932 0)
(2.927762192 -0.0033339843 0)
(2.93007991 -0.002504437512 0)
(2.932263954 -0.0008861097023 0)
(2.933238679 0.0009817022462 0)
(2.934319145 0.001274956814 0)
(2.935131742 0.00160166448 0)
(2.935018687 -0.0004384793687 0)
(2.929564887 0.0008013303846 0)
(2.929503812 9.435535303e-05 0)
(2.929296024 -0.0007866751424 0)
(2.928918474 -0.001778577027 0)
(2.928856371 -0.002139167733 0)
(2.929259541 -0.002067411969 0)
(2.929650384 -0.002079592388 0)
(2.930297495 -0.001850287114 0)
(2.931630034 -0.00118381946 0)
(2.933150176 -2.560386498e-05 0)
(2.934643585 0.0006777215701 0)
(2.936404195 0.0009825932755 0)
(2.938042329 0.0009148478787 0)
(2.939516375 0.0002415604763 0)
(2.940753967 -0.0003137502071 0)
(2.942150245 -0.001287277772 0)
(2.935403609 -0.001105835039 0)
(2.935748463 -0.001496336005 0)
(2.935651293 -0.00159615205 0)
(2.935282683 -0.001292335718 0)
(2.935010553 -0.0008249660325 0)
(2.935168926 -0.0004601363874 0)
(2.935315672 -3.813794538e-05 0)
(2.935504178 0.0009041490418 0)
(2.935730292 0.002162200788 0)
(2.936875138 0.002447953892 0)
(2.938358763 0.001992570285 0)
(2.939964103 0.00103543993 0)
(2.941942221 -0.0001994466564 0)
(2.943405688 -0.00180476189 0)
(2.94603505 -0.002441506988 0)
(2.950788168 -0.002371382637 0)
(2.939333673 -0.002163358991 0)
(2.939777675 -0.002129721262 0)
(2.939606218 -0.001765534103 0)
(2.939260127 -0.0005577476927 0)
(2.939009636 0.001355443698 0)
(2.939023326 0.002749248531 0)
(2.938945609 0.0036579895 0)
(2.938710544 0.004271084326 0)
(2.938706772 0.003890990124 0)
(2.939894117 0.003004932603 0)
(2.941954087 0.001813572514 0)
(2.943741358 0.000172803825 0)
(2.945069584 -0.001740455421 0)
(2.94604455 -0.00344542812 0)
(2.949183148 -0.003381230333 0)
(2.955120821 -0.001299157639 0)
(2.955140576 0.0003209504039 0)
(2.95523017 0.0002704247127 0)
(2.954878454 -2.155822475e-05 0)
(2.954251125 -0.0004198601178 0)
(2.953695547 -0.000652023247 0)
(2.953391186 -0.0005854638419 0)
(2.953121755 -0.0004439094203 0)
(2.952679487 -0.0002091185894 0)
(2.952586875 -0.0001621331956 0)
(2.953231534 -0.0004771549033 0)
(2.954418408 -0.0009612151111 0)
(2.955859203 -0.0012506987 0)
(2.957234645 -0.00131530483 0)
(2.958456425 -0.001230631891 0)
(2.959878595 -0.0007520917461 0)
(2.961201446 0.0006135875599 0)
(2.980329562 -6.179193974e-05 0)
(2.98039037 0.0001384481184 0)
(2.980363375 0.0001056388443 0)
(2.980262298 -4.210089528e-05 0)
(2.980119049 -0.0002581019244 0)
(2.979615482 -0.0001519803182 0)
(2.97909445 5.324485189e-05 0)
(2.97798031 0.0003268483514 0)
(2.977091952 0.0003223959265 0)
(2.976765373 0.0001043562063 0)
(2.97683243 -0.0003151557771 0)
(2.977101128 -0.0006323206766 0)
(2.977686395 -0.0006056958495 0)
(2.978014398 -0.0003901876985 0)
(2.977800867 -0.0002871257067 0)
(2.976701993 -3.500118071e-05 0)
(2.994739388 -7.600382817e-05 0)
(2.994668386 0.0002046868766 0)
(2.99513503 8.030625099e-05 0)
(2.995502975 3.004740987e-05 0)
(2.995752416 8.72410963e-06 0)
(2.995684052 0.0002120173336 0)
(2.995377474 0.0006226846221 0)
(2.994458556 0.000677415504 0)
(2.993303589 0.0002675976699 0)
(2.992786473 -0.0005030657807 0)
(2.992341523 -0.001210093409 0)
(2.991903474 -0.001597971339 0)
(2.991765846 -0.001547309984 0)
(2.991575996 -0.001178115597 0)
(2.991447906 -0.0006215653142 0)
(2.991032039 0.0001330886803 0)
(2.998121587 -9.59646083e-05 0)
(2.998104914 0.0003131289641 0)
(2.99874547 0.0002423003676 0)
(2.999636447 0.0002409676296 0)
(3.000329395 0.0003878079591 0)
(3.000517538 0.0006839657394 0)
(3.000237374 0.001227680079 0)
(2.999813357 0.001202226522 0)
(2.99875218 0.0004367911429 0)
(2.9984817 -0.0003543631298 0)
(2.998187005 -0.0009657463136 0)
(2.997880231 -0.001437422713 0)
(2.997689596 -0.00151459472 0)
(2.997447607 -0.001122254275 0)
(2.99748781 -0.0007891812781 0)
(2.997471229 -0.0001008790643 0)
(2.996610298 0.0002440909932 0)
(2.996863007 0.000492838213 0)
(2.997320405 0.0001873368579 0)
(2.998294397 0.000220566632 0)
(2.999026998 0.0004555612554 0)
(2.99896389 0.0007838429115 0)
(2.998560017 0.001327162787 0)
(2.998387751 0.001647405972 0)
(2.997812378 0.001143245139 0)
(2.997252046 0.0002909376159 0)
(2.997292248 -0.0005843675426 0)
(2.997222444 -0.001012850711 0)
(2.997222312 -0.001063755635 0)
(2.9971559 -0.00093261843 0)
(2.997132561 -0.0006512252328 0)
(2.997355946 -6.233654587e-05 0)
(2.99424033 -0.0006886792791 0)
(2.994287564 -0.001214827853 0)
(2.994604792 -0.001689017761 0)
(2.99532494 -0.001243308618 0)
(2.995823628 -8.851690258e-05 0)
(2.99595945 0.0009338688492 0)
(2.996057771 0.001579472277 0)
(2.996068986 0.001998095476 0)
(2.995713487 0.001675805699 0)
(2.995131109 0.0007916475437 0)
(2.994702441 -0.0003983754469 0)
(2.99443389 -0.0009760344797 0)
(2.99443027 -0.000968922538 0)
(2.994408812 -0.0008762204306 0)
(2.994359989 -0.0009698240249 0)
(2.994828335 -0.0006335393458 0)
(2.992126619 -0.002766817175 0)
(2.992244385 -0.003614418191 0)
(2.992745265 -0.003649824587 0)
(2.993398099 -0.002359509375 0)
(2.993551526 -0.0008397229505 0)
(2.99385163 0.0009130749594 0)
(2.993988563 0.001543822571 0)
(2.993987167 0.001922835178 0)
(2.993814472 0.001625238094 0)
(2.993564784 0.0006930181318 0)
(2.993022788 -0.0006024834284 0)
(2.992648988 -0.0009983972539 0)
(2.992635552 -0.0009206332068 0)
(2.992585589 -0.0007624527872 0)
(2.992416725 -0.0009712323816 0)
(2.992623208 -0.0009566761329 0)
(2.991587217 -0.004194856186 0)
(2.99192822 -0.004901092071 0)
(2.992155744 -0.004661670957 0)
(2.992715678 -0.003295546162 0)
(2.992858824 -0.001133719086 0)
(2.992812367 0.0008643652481 0)
(2.992651161 0.0009719340383 0)
(2.99264395 0.0008292931697 0)
(2.992766315 0.0003667848236 0)
(2.992706544 -0.000282933793 0)
(2.99208011 -0.001024113294 0)
(2.991918908 -0.001095786399 0)
(2.991682042 -0.0008725445275 0)
(2.991363195 -0.0006241930508 0)
(2.990970535 -0.0008689679695 0)
(2.99107869 -0.001090311224 0)
(2.992782791 -0.002972390888 0)
(2.993142083 -0.001584356563 0)
(2.992794384 -0.0021611374 0)
(2.992706044 -0.002182880784 0)
(2.992647515 -0.0005454561007 0)
(2.992554794 0.0002587479565 0)
(2.99221137 0.0001665635433 0)
(2.99239602 -0.0001692299011 0)
(2.993186123 -0.0006334429971 0)
(2.992660796 -0.001035617291 0)
(2.99235387 -0.001043901466 0)
(2.991853734 -0.0008977184803 0)
(2.99124139 -0.00053124097 0)
(2.990584589 -0.0003336769151 0)
(2.990144577 -0.000750402881 0)
(2.990108526 -0.001096393443 0)
(2.994925093 0.000258738579 0)
(2.994131298 0.0010974475 0)
(2.992266538 -0.0001985960939 0)
(2.992133314 -0.001270954308 0)
(2.992375822 -0.0005808178379 0)
(2.992400209 -0.00017567669 0)
(2.992254157 -0.0006610293396 0)
(2.993013715 -0.0008480192818 0)
(2.994059777 -0.0006851590218 0)
(2.9936668 -0.0004217892706 0)
(2.993272478 -0.0005107481812 0)
(2.992437707 -0.0003667607444 0)
(2.991444581 -0.0001347849194 0)
(2.990509463 -0.000354752874 0)
(2.98996116 -0.0008708327661 0)
(2.989528069 -0.001040594219 0)
(2.998243677 -0.0002218106518 0)
(2.996120459 0.002026507887 0)
(2.991059388 -0.002408525666 0)
(2.991309968 -0.002731770056 0)
(2.991939854 -0.001827327578 0)
(2.992378468 -0.0009613066379 0)
(2.992962804 -0.0004865292394 0)
(2.994292686 0.0001057495871 0)
(2.99499501 0.000681348042 0)
(2.99495996 0.0003783854666 0)
(2.994115607 0.0001772348645 0)
(2.993022351 9.437711296e-05 0)
(2.992032242 -0.000165484109 0)
(2.991262068 -0.0003772922152 0)
(2.990613214 -0.0008156703663 0)
(2.989973474 -0.0009295265978 0)
(3.011214759 -0.01738232161 0)
(3.000464416 -0.007466268699 0)
(2.991731514 -0.006744416942 0)
(2.991767651 -0.005687795454 0)
(2.992599667 -0.003136033967 0)
(2.992969243 7.15801016e-05 0)
(2.994333236 0.0005982583584 0)
(2.995196777 0.0003495683495 0)
(2.995638134 0.0002540517504 0)
(2.995516035 0.0003356975527 0)
(2.994408175 0.000316188579 0)
(2.993597273 0.0002888037957 0)
(2.992765151 0.0002806577597 0)
(2.992154339 0.000406972506 0)
(2.991637068 0.0002540508723 0)
(2.990950302 -0.0002299956707 0)
(3.016168129 -0.03535201001 0)
(3.011722432 -0.03199612454 0)
(3.00719733 -0.01969533313 0)
(2.996616619 -0.00765172177 0)
(2.992718867 -0.0009625631819 0)
(2.992804666 -0.001105687915 0)
(2.993811122 -0.003258408527 0)
(2.995221282 -0.004404775117 0)
(2.995608536 -0.003087118818 0)
(2.995385255 -0.001195018427 0)
(2.994223513 2.121962997e-05 0)
(2.993975187 0.0006829851501 0)
(2.994003792 0.001575158239 0)
(2.993402703 0.001836733509 0)
(2.992994381 0.001640911617 0)
(2.991785882 0.000735167658 0)
(3.037283377 -0.1535045582 0)
(3.039312863 -0.1023973615 0)
(3.019505271 0.005580287465 0)
(2.999632608 0.001412723589 0)
(2.988951905 -0.004088155418 0)
(2.991388666 -0.004726087002 0)
(2.994884271 -0.009334695306 0)
(2.997694383 -0.00755755873 0)
(2.996316805 -0.003863220205 0)
(2.99531957 -0.0009936572409 0)
(2.994302912 1.340849353e-05 0)
(2.994622038 0.001085995229 0)
(2.995202687 0.002161099667 0)
(2.99513918 0.002214940917 0)
(2.994614399 0.002102963079 0)
(2.993021799 0.001147921889 0)
(3.07551028 -0.2868667872 0)
(3.060443778 -0.2163676938 0)
(3.037848719 -0.1182727274 0)
(3.049113439 -0.1030144363 0)
(3.022832513 -0.0471239879 0)
(3.007628463 -0.01700707514 0)
(3.001619816 -0.01795505833 0)
(2.999183239 -0.01064976848 0)
(2.997674141 -0.00343497981 0)
(2.996061064 6.315671472e-05 0)
(2.994607192 0.001576403013 0)
(2.995103311 0.000883623823 0)
(2.995771274 0.0001639654169 0)
(2.996360591 -6.419107642e-05 0)
(2.995973435 0.0003709407911 0)
(2.994784073 0.0004816707543 0)
)
;

boundaryField
{
    inlet
    {
        type            fixedValue;
        value           nonuniform 0();
    }
    outlet
    {
        type            inletOutlet;
        inletValue      uniform (3 0 0);
        value           nonuniform List<vector> 
35
(
(2.961201446 0.0006135875599 0)
(2.976701993 -3.500118071e-05 0)
(2.991032039 0.0001330886803 0)
(2.997471229 -0.0001008790643 0)
(2.997355946 -6.233654587e-05 0)
(2.994828335 -0.0006335393458 0)
(2.992623208 -0.0009566761329 0)
(2.99107869 -0.001090311224 0)
(2.990108526 -0.001096393443 0)
(2.989528069 -0.001040594219 0)
(2.989973474 -0.0009295265978 0)
(2.990950302 -0.0002299956707 0)
(2.991785882 0.000735167658 0)
(2.993021799 0.001147921889 0)
(2.994784073 0.0004816707543 0)
(2.860473632 -1.429588395e-06 0)
(2.861146283 -0.001539303458 0)
(2.863054558 -0.001259470291 0)
(2.866471384 0.0001347216681 0)
(2.870384564 0.001334576265 0)
(2.875239674 0.001849589488 0)
(2.880739396 0.001763792286 0)
(2.88617558 0.0005841853182 0)
(2.891182549 -0.001134247583 0)
(2.895929661 -0.001796863744 0)
(2.900105786 -0.001637777376 0)
(2.904476124 -0.0007812269178 0)
(2.908749542 0.0004061310288 0)
(2.914106214 0.00160202023 0)
(2.921846498 0.001969803411 0)
(2.9291147 0.001102368859 0)
(2.935018687 -0.0004384793687 0)
(2.942150245 -0.001287277772 0)
(2.950788168 -0.002371382637 0)
(2.955120821 -0.001299157639 0)
)
;
    }
    bottom
    {
        type            slip;
    }
    top
    {
        type            slip;
    }
    obstacle
    {
        type            slip;
    }
    defaultFaces
    {
        type            empty;
    }
    procBoundary29to23
    {
        type            processor;
        value           nonuniform List<vector> 
18
(
(2.859088856 0.004564558859 0)
(2.859697598 0.004587820007 0)
(2.8602766 0.003794689838 0)
(2.860496924 0.002239996781 0)
(2.861420085 0.001209741857 0)
(2.850478665 0.0002466652271 0)
(2.850527847 0.001250268472 0)
(2.851475816 0.001877677298 0)
(2.852378247 0.002342614894 0)
(2.853305369 0.002501528122 0)
(2.854368406 0.001682691759 0)
(2.85490816 0.0008433990504 0)
(2.855318542 -0.0005496128336 0)
(2.856365521 -0.001051635646 0)
(2.857697681 -0.0004848326206 0)
(2.858712898 0.001079796817 0)
(2.859138267 0.003218065841 0)
(2.859138267 0.003218065841 0)
)
;
    }
    procBoundary29to28
    {
        type            processor;
        value           nonuniform List<vector> 
34
(
(2.853851678 -0.0005696430356 0)
(2.858574171 -0.0003117783993 0)
(2.864286933 -0.0006664556087 0)
(2.870180095 -0.0005037830181 0)
(2.87608242 0.0001257568284 0)
(2.881366343 0.0007912185743 0)
(2.885330061 3.767670038e-06 0)
(2.885330061 3.767670038e-06 0)
(2.889196728 0.0001580061409 0)
(2.892720442 -0.000291032124 0)
(2.895741333 -0.000588958536 0)
(2.898908963 -0.0005486149623 0)
(2.902436525 -4.888264872e-05 0)
(2.905786816 0.001013409082 0)
(2.909971612 0.002378548974 0)
(2.915723695 0.002979573778 0)
(2.922496816 0.002394485766 0)
(2.928954551 0.001286336625 0)
(2.934072594 -0.0007742232495 0)
(2.937851346 -0.002415587375 0)
(2.95426795 -0.0003966071993 0)
(2.980218256 -0.001146864098 0)
(2.994963989 -0.001178995553 0)
(2.998494617 -0.001257462686 0)
(2.996627897 -0.0006569433457 0)
(2.994303564 -0.000600201226 0)
(2.991988094 -0.001989083424 0)
(2.991068484 -0.003009639893 0)
(2.99243011 -0.004719685728 0)
(2.994370946 -0.004026267606 0)
(2.992495796 -0.007761221696 0)
(3.034202782 -0.06904220674 0)
(3.040121315 -0.08546000071 0)
(3.073990729 -0.2738607039 0)
)
;
    }
    procBoundary29to34
    {
        type            processor;
        value           uniform (3.084076318 -0.3164265709 0);
    }
    procBoundary29to35
    {
        type            processor;
        value           nonuniform List<vector> 
16
(
(3.087420091 -0.31809561 0)
(3.081968847 -0.3069831878 0)
(3.064341914 -0.2563992207 0)
(3.059306031 -0.177856702 0)
(3.036313226 -0.06747388308 0)
(3.015970164 0.0008301924355 0)
(3.003181649 -0.01325709194 0)
(3.002945962 4.664655611e-05 0)
(2.998630543 3.504227062e-06 0)
(2.994490477 0.001797958244 0)
(2.993082113 0.0006658269387 0)
(2.993716625 -0.001585986232 0)
(2.996862001 -0.003719889078 0)
(2.997573439 -0.002150141153 0)
(2.997607133 -0.001225801606 0)
(2.996440691 -5.255952945e-05 0)
)
;
    }
}


// ************************************************************************* //
