/*--------------------------------*- C++ -*----------------------------------*\
  =========                 |
  \\      /  F ield         | OpenFOAM: The Open Source CFD Toolbox
   \\    /   O peration     | Website:  https://openfoam.org
    \\  /    A nd           | Version:  7
     \\/     M anipulation  |
\*---------------------------------------------------------------------------*/
FoamFile
{
    version     2.0;
    format      ascii;
    class       volScalarField;
    location    "3.8";
    object      T;
}
// * * * * * * * * * * * * * * * * * * * * * * * * * * * * * * * * * * * * * //

dimensions      [0 0 0 1 0 0 0];

internalField   nonuniform List<scalar> 
555
(
1.111786824
1.107469767
1.099727322
1.089003435
1
1.000000013
1.000001629
1.000049183
1.000592628
1.005535961
1.020619058
1.054985418
1.092420225
1.10426784
1.109365331
1.113977064
1.114041846
1.112591057
1.108238748
1.100640989
1.090073523
1.076906273
1
1.000000667
1.000030211
1.000608112
1.004230404
1.022413275
1.054563917
1.084350544
1.108370086
1.114378266
1.11388126
1.114057254
1.112998428
1.109159184
1.101630033
1.090964173
1.077553003
1.062970369
1.000000025
1.000019066
1.000395121
1.004699043
1.019261564
1.054074904
1.092536726
1.105200971
1.11099947
1.115544782
1.115451345
1.114017871
1.109962374
1.102542342
1.091790377
1.078127204
1.062805997
1.047536217
1.000001662
1.000327197
1.003363618
1.021273512
1.053764774
1.084985094
1.109176608
1.115533801
1.115198755
1.11557484
1.114739975
1.111148251
1.103660481
1.092524358
1.078654575
1.062676184
1.046239822
1.030090943
1.000062958
1.003224333
1.017563785
1.05499809
1.093758122
1.105300066
1.111335178
1.115590766
1.116460099
1.115452728
1.111836823
1.104613261
1.093447361
1.079057781
1.062628726
1.044666845
1.027662838
1.01069159
1.00126668
1.01802468
1.053784383
1.086019635
1.111892118
1.117122429
1.11615758
1.116150954
1.115682976
1.112510861
1.105361164
1.094140317
1.079307818
1.062356029
1.043720131
1.024710081
1.008144167
0.9904332013
1.01253483
1.052355491
1.097203163
1.108598049
1.115774284
1.118232148
1.117812019
1.116733191
1.113281104
1.106342232
1.095221643
1.079568593
1.061861405
1.042610897
1.021610629
1.003659509
0.9864620044
0.967397363
1.051860507
1.088059588
1.114506274
1.114686408
1.114760848
1.115871752
1.115779767
1.113471143
1.107165783
1.096303806
1.080337193
1.061065517
1.041490469
1.018784482
0.9980287063
0.9823826265
0.9635320036
0.9465577638
1.094971841
1.111150584
1.118491293
1.118198517
1.116320401
1.115217735
1.113114258
1.107531409
1.097253758
1.081150555
1.060129323
1.039403027
1.016073319
0.9914697995
0.9750357312
0.9580103653
0.9378863839
0.9287581042
1.110455804
1.113547429
1.115723619
1.11752918
1.116930012
1.113941971
1.107905254
1.097697717
1.081706745
1.058911083
1.036925963
1.014146769
0.9860497612
0.9675863787
0.952337388
0.9304037336
0.9140114947
0.9062992097
1.118640057
1.116973229
1.115422041
1.115423293
1.11402676
1.10942981
1.099544087
1.082784229
1.058347358
1.03346734
1.00982169
0.9794395322
0.954871293
0.942941322
0.924842099
0.9075892838
0.8998047649
0.8883215952
1.119039304
1.117931074
1.116015108
1.11369954
1.109809845
1.10097152
1.084503703
1.058257374
1.029574248
1.004477876
0.9727924937
0.946373723
0.9329889348
0.9158892142
0.8919939324
0.8842892869
0.8798768081
0.869059917
1.117082552
1.115747723
1.113812873
1.110193368
1.101682597
1.08493169
1.057310858
1.02501361
0.9964031199
0.9632094305
0.9300979348
0.921299013
0.9104000971
0.8899414148
0.8748777142
0.8685246799
0.8587563916
0.849330166
1.115805855
1.114276342
1.111694136
1.103990142
1.085985407
1.055592484
1.019823675
0.9884929419
0.9556762486
0.9237553252
0.9035373159
0.8910409975
0.8718304457
0.8594197453
0.859985034
0.8573368026
0.8514217947
0.8469482684
1.114357227
1.112843648
1.106688957
1.088241029
1.054891102
1.01192328
0.9752167836
0.9388741744
0.9027527145
0.8941845421
0.8850969543
0.8698215358
0.8554540349
0.8480162003
0.8456891343
0.8444495559
0.8450069064
0.8471080381
1.113904667
1.109516132
1.091562009
1.051344998
1.006984841
0.9636103784
0.9257516221
0.8964427109
0.8754763994
0.8615709529
0.856122584
0.8497322337
0.8480143449
0.8469085817
0.8452345714
0.8445295347
0.850834285
0.8752336902
1.113107164
1.094889963
1.049859391
0.9902179277
0.9352726763
0.8984780806
0.8827437377
0.8746327401
0.866063237
0.8544704852
0.846135594
0.8401617869
0.8409898445
0.8438827349
0.8467312173
0.8600827146
0.9015799161
0.9492512186
1.101695824
1.043789208
0.969328318
0.9175389873
0.8719717578
0.8467288469
0.8427972674
0.8443808338
0.8468509065
0.8476817865
0.8450421397
0.8422743917
0.8431243801
0.8510115942
0.8768935372
0.9279606139
0.9775325193
1.001570369
1.049587613
0.9061650672
0.8332895118
0.8356394319
0.8340960863
0.828920474
0.8233615239
0.8258892192
0.8297074475
0.8347714628
0.8389117108
0.8437516821
0.859643394
0.9055434281
0.9676870587
0.988920932
0.999153175
1.011336547
0.9101410722
0.9191704686
0.8505874557
0.8434810291
0.8358043618
0.8189013049
0.8148538445
0.8185799637
0.8301311899
0.8370936058
0.8430694583
0.8557056686
0.8937631133
0.9580911494
1.006042042
1.018412238
1.005342277
1.011346326
0.9125269538
0.9180946217
0.860779322
0.8485152696
0.8347763592
0.8169886125
0.8138815596
0.8190436266
0.8304299945
0.8380389535
0.8452811085
0.8635176933
0.908241876
0.9712020769
1.008846653
1.018079443
1.005048442
1.011538033
0.9185949819
0.9149792766
0.8679546807
0.8499590866
0.83424045
0.8161005532
0.8140725543
0.8194433279
0.8304609244
0.838963714
0.8478702525
0.8695634553
0.9237585407
0.9787636285
1.008187956
1.016532012
1.003987739
1.011056166
0.9222531892
0.9105510811
0.873232619
0.8523937164
0.8340682196
0.8151958393
0.8142037895
0.8197956906
0.8305134525
0.8398675831
0.8512351076
0.8777060538
0.9417311978
0.9900372015
1.008846718
1.01499473
1.003183612
1.009922088
0.9234487068
0.9072311965
0.8784353987
0.8551775747
0.8340931343
0.81539772
0.8147089996
0.8202833916
0.8305580212
0.8407269095
0.8546251328
0.8916869878
0.9511480248
0.9953606365
1.008338364
1.012902471
1.002277931
1.009081474
0.922901442
0.9034093149
0.8809703068
0.8575179908
0.8341944591
0.8154208513
0.8153607499
0.8209518297
0.8312203204
0.8423790667
0.8604949061
0.9040875271
0.9591638898
0.9962839702
1.007763356
1.011037697
1.001685738
1.008406485
0.9215250608
0.9012772713
0.8819058873
0.8590846884
0.8343338095
0.8155936057
0.8157277282
0.8212086314
0.8321430922
0.8454888081
0.8686892724
0.9146906356
0.9726492783
0.9977014559
1.007887464
1.009656611
1.001230298
1.00776565
0.9197161938
0.900147715
0.8829961974
0.8606644176
0.8347453891
0.8165394265
0.8163547245
0.8214682155
0.8323952915
0.8479591251
0.8761802919
0.9321520946
0.9850532813
1.000746772
1.008410351
1.008311841
1.000664253
1.007155263
0.9176643333
0.8988541071
0.8836969705
0.8619625439
0.835171719
0.8174267157
0.8174978846
0.8223326101
0.8330417247
0.8503881877
0.8860029967
0.9481123388
0.9905315801
1.004595862
1.008411014
1.006995267
0.9997374755
0.9154725066
0.8979331608
0.8842763314
0.8629821706
0.8353863261
0.81802144
0.8184774862
0.8236953887
0.835333123
0.8556188218
0.8991858166
0.9544620602
0.9926828456
1.005778001
1.008286925
1.0060764
0.999244617
0.913270211
0.8973088139
0.8848881836
0.8638297723
0.8351628242
0.8190292645
0.8191573879
0.8242819694
0.837868404
0.8639447619
0.9075332422
0.9621693115
0.9957425391
1.005469404
1.007656027
1.005324324
0.9988886664
0.9108170176
0.8970556976
0.8855139686
0.8645328342
0.8356994463
0.8206973154
0.820306335
0.8249512431
0.8399097795
0.8686349072
0.9191725482
0.976602488
0.9988018725
1.004102799
)
;

boundaryField
{
    inlet
    {
        type            fixedValue;
        value           nonuniform 0();
    }
    outlet
    {
        type            inletOutlet;
        inletValue      nonuniform 0();
        value           nonuniform 0();
    }
    bottom
    {
        type            slip;
    }
    top
    {
        type            slip;
    }
    obstacle
    {
        type            zeroGradient;
    }
    defaultFaces
    {
        type            empty;
    }
    procBoundary9to3
    {
        type            processor;
        value           nonuniform List<scalar> 
19
(
1.11307275
1.111395812
1.106621235
1.098803056
1
1
1.000000063
1.000002699
1.000055782
1.000827036
1.004871759
1.023640461
1.055275596
1.083433524
1.106880744
1.113185437
1.112803103
1.113055608
1.113055608
)
;
    }
    procBoundary9to4
    {
        type            processor;
        value           nonuniform List<scalar> 5(1.076356276 1.063297567 1.048746993 1.031716255 1.012643452);
    }
    procBoundary9to8
    {
        type            processor;
        value           nonuniform List<scalar> 2(1 1);
    }
    procBoundary9to10
    {
        type            processor;
        value           nonuniform List<scalar> 
27
(
0.9932677026
0.9740661185
0.9542466531
0.9356403476
0.9186643625
0.8924174957
0.8726447618
0.8624452269
0.8493668178
0.8473310422
0.858383724
0.9206063866
0.9876223974
1.010077639
1.014834256
1.014262983
1.014245002
1.013535309
1.01253701
1.011632412
1.010620119
1.009337659
1.008166806
1.00616106
1.00616106
1.005380406
1.004680936
)
;
    }
    procBoundary9to14
    {
        type            processor;
        value           nonuniform List<scalar> 
17
(
1
0.9999999999
1.000000001
1.000005628
1.001371273
1.019095512
1.0662511
1.102562795
1.117834415
1.118275246
1.117372049
1.117945661
1.115220146
1.114399765
1.114284466
1.115057065
1.116702016
)
;
    }
    procBoundary9to15
    {
        type            processor;
        value           nonuniform List<scalar> 
18
(
1.006719912
1.004386014
0.999025245
0.9091946537
0.8970849807
0.8862213419
0.865430124
0.8362857312
0.8221196909
0.8220208163
0.8266962918
0.8420157092
0.8758985019
0.9404379105
0.988280823
0.9997552764
1.006719912
1.002207989
)
;
    }
}


// ************************************************************************* //
