/*--------------------------------*- C++ -*----------------------------------*\
  =========                 |
  \\      /  F ield         | OpenFOAM: The Open Source CFD Toolbox
   \\    /   O peration     | Website:  https://openfoam.org
    \\  /    A nd           | Version:  7
     \\/     M anipulation  |
\*---------------------------------------------------------------------------*/
FoamFile
{
    version     2.0;
    format      ascii;
    class       volScalarField;
    location    "1.1";
    object      T;
}
// * * * * * * * * * * * * * * * * * * * * * * * * * * * * * * * * * * * * * //

dimensions      [0 0 0 1 0 0 0];

internalField   nonuniform List<scalar> 
2222
(
1
1
1
1
1
1
1
1
1
1
1
1
1
1
1
1
1
1
1
1
1
1
1
1
1
1
1
1
1
1
1
1
1
1
1
1
1
1
1
1
1
1
1
1
1
1
1
1
1
1
1
1
1
1
1
1
1
1
1
1
1
1
1
1
1
1
1
1
1
1
1
1
1
1
1
1
1
1
1
1
1
1
1
1
1
1
1
1
1
1
1
1
1
1
1
1
1
1
1
1
1
1
1
1
1
1
1
1
1
1
1
1
1
1
1
1
1
1
1
1
1
1
1
1
1
1
1
1
1
1
1
1
1
1
1
1
1
1
1
1
1
1
1
1
1
1
1
1
1
1
1
1
1
1
1
1
1
1
1
1
1
1
1
1
1
1
1
1
1
1
1
1
1
1
1
1
1
1
1
1
1
1
1
1
1
1
1
1
1
1
1
1
1
1
1
1
1
1
1
1
1
1
1
1
1
1
1
1
1
1
1
1
1
1
1
1
1
1
1
1
1
1
1
1
1
1
1
1
1
1
1
1
1
1
1
1
1
1
1
1
1
1
1
1
1
1
1
1
1
1
1
1
1
1
1
1
1
1
1
1
1
1
1
1
1
1
1
1
1
1
1
1
1
1
1
1
1
1
1
1
1
1
1
1
1
1
1
1
1
1
1
1
1
1
1
1
1
1
1
1
1
1
1
1
1
1
1
1
1
1
1
1
1
1
1
1
1
1
1
1
1
1
1
1
1
1
1
1
1
1
1
1
1
1
1
1
1
1
1
1
1
1
1
1
1
1
1
1
1
1
1
1
1
1
1
1
1
1
1
1
1
1
1
1
1
1
1
1
1
1
1
1
1
1
1
1
1
1
1
1
1
1
1
1
1
1
1
1
1
1
1
1
1
1
1
1
1
1
1
1
1
1
1
1
1
1
1
1
1
1
1
1
1
1
1
1
1
1
1
1
1
1
1
1
1
1
1
1
1
1
1
1
1
1
1
1
1
1
1
1
1
1
1
1
1
0.9999999999
1
1
1
1
1
1
1
1
1
1
1
1
1
1
1
1
1
1
1
1
1
1
1
1
1
1
1
1
1
1
1
1
1
1
1
1
1
1
1
1
1
1
1
1
1
1
1
1
1
1
1
1
1
1
1
1
1
1
1
1
1
1
1
1
1
1
0.9999999977
1
1
1
1
1
1
1
1
1
1
1
1
1
1
1
1
1
1
1
1
1
1
1
1
1
1
1
1
1
1
1
1
1
1
1
1
1
1
1
1
1
1
1
1
1
1
1
1
1
1
1
1
1
1
1
1
1
1
1
1
1
1
1
1
1.000000003
1.000000081
0.9999999873
1
1
1
1
1
1
1
1
1
1
1
1
1
1
1
1
1
1
1
1
1
1
1
1
1
1
1
1
1
1
1
1
1
1
1
1
1
1
1
1
1
1
1
1
1
1
1
1
1
1
1
1
1
1
1
1
1
1
1
1.000000001
1.000000006
1.000000031
1.000000161
1.000000665
1.00000261
1.000015819
1.000006032
1
1
1
1
1
1
1
1
1
1
1
1
1
1
1
1
1
1
1
1
1
1
1
1
1
1
1
1
1
1
1
1
1
1
1
1
1
1
1
1
1
1
1
1
1
1
1
1
1
1
1
1
1
1
1
1.000000002
1.000000011
1.000000057
1.000000268
1.000001109
1.000004276
1.000014141
1.000045646
1.000121707
1.000325457
1.000784383
1.001287954
1
1
1
1
1
1
1
1
1
1
1
1
1
1
1
1
1
1
1
1
1
1
1
1
1
1
1
1
1
1
1
1
1
1
1
1
1
1
1
1
1
1
1
1
1
1
1
1
1
1
1.000000001
1.000000004
1.00000002
1.000000103
1.000000463
1.000001839
1.00000674
1.000021813
1.000066247
1.000174549
1.000447021
1.000979292
1.002121485
1.003933744
1.007265676
1.011905619
1.017453798
1
1
1
1
1
1
1
1
1
1
1
1
1
1
1
1
1
1
1
1
1
1
1
1
1
1
1
1
1
1
1
1
1
1
1
1
1
1
1
1
1
1
1
1
1
1
1.000000001
1.000000007
1.000000039
1.000000185
1.0000008
1.000003086
1.000010689
1.000033568
1.000097251
1.000249814
1.000612665
1.001310422
1.002718262
1.004956936
1.008793993
1.013897061
1.021355358
1.02954149
1.039917301
1.051065741
1.06029781
1
1
1
1
1
1
1
1
1
1
1
1
1
1
1
1
1
1
1
1
1
1
1
1
1
1
1
1
1
1
1
1
1
1
1
1
1
1
1
1
1
1
1.000000002
1.000000014
1.000000074
1.000000337
1.000001382
1.000005115
1.000017182
1.000051042
1.000144704
1.000358175
1.000834913
1.001743568
1.003501151
1.006229508
1.010634594
1.016421857
1.024613678
1.033507706
1.043973399
1.054926719
1.065346956
1.075186136
1.084015217
1.091706822
1.096766655
1
1
1
1
1
1
1
1
1
1
1
1
1
1
1
1
1
1
1
1
1
1
1
1
1
1
1
1
1
1
1
1
1
1
1
1
1
1.000000001
1.000000005
1.000000028
1.00000014
1.000000614
1.000002414
1.000008414
1.000027482
1.000078583
1.000211268
1.000512621
1.001147892
1.002312286
1.004519126
1.007746035
1.012857955
1.019390514
1.027959654
1.037752658
1.048719061
1.05904084
1.06855688
1.078193515
1.087253
1.093984948
1.097298249
1.101666659
1.104537598
1.106735345
1.107877216
1
1
1
1
1
1
1
1
1
1
1
1
1
1
1
1
1
1
1
1
1
1
1
1
1
1
1
1
1
1
1
1
1
1.000000002
1.000000011
1.000000057
1.000000264
1.000001101
1.000004178
1.000013973
1.000043096
1.000122649
1.000308317
1.000720078
1.001584233
1.003042564
1.005747042
1.00979728
1.015185322
1.023050782
1.032332868
1.041716384
1.052960711
1.064128493
1.07372633
1.082929551
1.09024259
1.096609923
1.102047931
1.107208843
1.110136378
1.111594452
1.112765554
1.114321864
1.114807443
1.1150625
1.11520346
1
1
1
1
1
1
1
1
1
1
1
1
1
1
1
1
1
1
1
1
1
1
1
1
1
1
1
1
1.000000001
1.000000004
1.000000022
1.000000113
1.000000503
1.000001987
1.000007138
1.000023295
1.000067791
1.000184593
1.000455904
1.001010284
1.002141347
1.004096444
1.007181548
1.012115138
1.018350269
1.026325926
1.037244741
1.046798882
1.056795194
1.068673809
1.077151257
1.08600207
1.093062655
1.097247891
1.101202143
1.105578294
1.106757829
1.108086694
1.10978196
1.110665781
1.111446276
1.112722812
1.114193491
1.115338442
1.115804205
1.116198204
1.116328834
1
1
1
1
1
1
1
1
1
1
1
1
1
1
1
1
1
1
1
1
1
1
1
1
1.000000001
1.000000009
1.000000047
1.00000022
1.000000935
1.000003578
1.00001208
1.000038105
1.000108613
1.000274534
1.000664893
1.001436189
1.002828937
1.005428382
1.009122409
1.014503444
1.022448859
1.030777617
1.04086571
1.052378493
1.062380734
1.073451263
1.082423354
1.089058603
1.097149366
1.102630453
1.106284619
1.110284347
1.112413457
1.113022951
1.114184144
1.115528417
1.115664222
1.115590947
1.115600285
1.115341487
1.11476271
1.114097591
1.114136621
1.114281654
1.114445645
1.114738858
1.114989458
1
1
1
1
1
1
1
1
1
1
1
1
1
1
1
1
1
1
1
1
1.000000003
1.000000019
1.000000096
1.000000434
1.000001729
1.000006321
1.000020794
1.000061223
1.000168983
1.000417325
1.000941444
1.002018948
1.003836018
1.006872413
1.011659239
1.017575316
1.026046797
1.03641872
1.045449698
1.05679846
1.068023633
1.076797311
1.086370749
1.092244898
1.097006185
1.103001396
1.104886825
1.106684898
1.109343118
1.110071723
1.110675127
1.112074436
1.113519493
1.11438375
1.115182874
1.116377673
1.116757207
1.116728336
1.116660991
1.116538971
1.1163292
1.1159934
1.115562637
1.115224085
1.114822913
1.114606748
1.114451549
1
1
1
1
1
1
1
1
1
1
1
1
1
1
1
1.000000001
1.000000008
1.000000041
1.000000193
1.00000083
1.000003187
1.000010891
1.000035034
1.000099901
1.000256546
1.000627862
1.001352092
1.002734074
1.005204692
1.008751163
1.014391256
1.021890897
1.03002105
1.040837079
1.05187569
1.062212653
1.073432837
1.081930099
1.089597692
1.097992455
1.102658454
1.10680524
1.111039523
1.112402996
1.113576258
1.11550093
1.115966314
1.116018828
1.116218352
1.116151434
1.115768602
1.115179087
1.114662907
1.114462676
1.114527638
1.114826039
1.115041325
1.115184585
1.115272115
1.11524844
1.115175466
1.115161758
1.115136866
1.115066491
1.114999314
1.114883171
1.11470376
1
1
1
1
1
1
1
1
1
1
1
1.000000003
1.000000017
1.000000085
1.000000387
1.000001568
1.00000581
1.000019211
1.00005738
1.000160441
1.000394733
1.000903173
1.00195278
1.003712018
1.006759242
1.01139741
1.017348014
1.026151918
1.035772776
1.045288838
1.057404231
1.067834923
1.077581159
1.086661003
1.092082208
1.098222129
1.103709328
1.105348359
1.10769825
1.110036321
1.110492647
1.111222405
1.112636125
1.113849352
1.114793494
1.115846145
1.116951396
1.117238664
1.117285252
1.117167288
1.116946835
1.116706233
1.116386497
1.115968655
1.115580367
1.115153939
1.114793129
1.114588598
1.114411291
1.11433575
1.114334933
1.11437434
1.114484012
1.114641976
1.114764612
1.11476627
1.114727282
1
1
1
1
1
1
1.000000001
1.000000007
1.000000037
1.000000177
1.00000077
1.000002959
1.000010298
1.000033394
1.000094512
1.000246828
1.000609282
1.001307411
1.002691432
1.005157189
1.008639579
1.014362529
1.021818652
1.03008845
1.041142834
1.051996825
1.062830694
1.07379729
1.082255439
1.091214718
1.09861946
1.103266135
1.108100124
1.111719867
1.113042296
1.114851129
1.116584558
1.116629332
1.116637038
1.11683768
1.116726624
1.116290595
1.115705624
1.115157192
1.114876027
1.114946457
1.115297223
1.115384852
1.115450447
1.115444474
1.115354114
1.115313796
1.115363971
1.115331802
1.115188847
1.115048045
1.114908066
1.114725742
1.1145545
1.114465749
1.114393133
1.114402551
1.114448265
1.114521678
1.114563406
1.114577018
1.114592616
1
1
1.000000003
1.000000015
1.00000008
1.000000364
1.000001494
1.000005557
1.000018353
1.00005578
1.000155517
1.00038336
1.000898846
1.001932031
1.003672785
1.006785749
1.011359099
1.017402852
1.026533117
1.035903392
1.045782521
1.058512802
1.068662826
1.0784927
1.087329742
1.093093977
1.099994051
1.104390941
1.106293959
1.109067804
1.110531835
1.111251278
1.112277849
1.113504569
1.114627717
1.115586409
1.116782101
1.117635556
1.117891527
1.117864368
1.117716316
1.117477137
1.11721486
1.116872868
1.116375894
1.115882789
1.115284275
1.114842186
1.114584787
1.114412035
1.114360329
1.114363601
1.114405788
1.114523796
1.114609687
1.114655258
1.114697524
1.114718916
1.114744414
1.114766468
1.114747712
1.114747026
1.114763965
1.114799952
1.11481305
1.114793822
1.114783208
1.000000171
1.000000747
1.000002879
1.000010193
1.000032835
1.000092556
1.000247653
1.000602116
1.001300668
1.002736795
1.005101649
1.008699706
1.014730958
1.021894145
1.03064336
1.042090582
1.052531529
1.063948983
1.075084591
1.083412382
1.092989978
1.099909368
1.104445302
1.109666459
1.113049754
1.114319612
1.116245877
1.117553026
1.11746974
1.117591129
1.117644645
1.117514844
1.117130689
1.116487108
1.115784047
1.115379359
1.115443674
1.115731473
1.115794143
1.115767036
1.115668751
1.115530738
1.115513226
1.115551805
1.115465971
1.115208955
1.114973842
1.114875525
1.114748593
1.114635038
1.114536897
1.114438475
1.114441488
1.114481096
1.114513508
1.114526407
1.114555866
1.114622365
1.114718436
1.114795823
1.114872025
1.114959649
1.115028688
1.115038249
1.115037728
1.115037436
1.115036907
1.000056023
1.000155165
1.000387865
1.000922233
1.001939895
1.003738486
1.006949734
1.011428053
1.017970478
1.027248708
1.036090585
1.047123454
1.059803881
1.069639759
1.080651942
1.088740495
1.094544785
1.102285575
1.105427732
1.107521275
1.110640561
1.111633359
1.112371099
1.113599092
1.114802729
1.115805422
1.116665022
1.117843995
1.118420307
1.118652423
1.118642998
1.118485452
1.118242066
1.117921276
1.117422596
1.116715612
1.116076306
1.115428159
1.114979295
1.114613427
1.114460766
1.114437349
1.114429111
1.114471979
1.114501683
1.1145028
1.11453291
1.11464158
1.114772794
1.114862505
1.114866859
1.114847528
1.114834946
1.114847787
1.114845527
1.114839385
1.11486607
1.114930609
1.115024395
1.11508766
1.11510329
1.115102348
1.115099864
1.115098582
1.115105674
1.115125351
1.115150281
1.002811245
1.005155874
1.009078004
1.015227385
1.0222324
1.031703297
1.043172053
1.053832447
1.066012457
1.076564611
1.085290541
1.095364817
1.101568787
1.106521903
1.112069236
1.114314071
1.115844571
1.118333672
1.118866151
1.118635339
1.118770403
1.118762756
1.118569539
1.118051233
1.117386733
1.116589529
1.116095319
1.116262012
1.116366415
1.116306799
1.116100262
1.115851221
1.115749113
1.115827808
1.115814364
1.11559528
1.115261993
1.115043148
1.114892545
1.114735445
1.114606827
1.114530204
1.114471048
1.114450831
1.114457798
1.114463742
1.114496409
1.114554936
1.114660306
1.114789912
1.114938441
1.11505003
1.115137581
1.115167409
1.115171149
1.115178288
1.115198837
1.115240119
1.115292271
1.115307646
1.1153021
1.115277262
1.115229816
1.115184688
1.115172497
1.115176242
1.115202518
1.027922794
1.036882891
1.049188392
1.061495091
1.071660721
1.082719755
1.090171261
1.096909249
1.104617665
1.107231849
1.109799228
1.112521375
1.112988561
1.11375385
1.114968189
1.116088683
1.117249456
1.11834613
1.119329186
1.119451983
1.119521368
1.119477424
1.119291508
1.119033065
1.118675364
1.118042721
1.117242809
1.116284845
1.115551887
1.115021962
1.114496245
1.114377887
1.114414074
1.114546759
1.114608472
1.114603504
1.114565897
1.114563475
1.114596404
1.114676194
1.114800089
1.114934311
1.115024794
1.115034355
1.115005606
1.114958551
1.114960807
1.114983998
1.11502889
1.115113469
1.115199902
1.115247544
1.115247753
1.115241256
1.11522965
1.115230411
1.115241174
1.115265335
1.115308131
1.115342761
1.115345062
1.115337882
1.115318502
1.115298572
1.115295519
1.115298363
1.115316104
1.078417612
1.088418405
1.098181235
1.10380019
1.10902829
1.114176783
1.116365973
1.118494807
1.120613387
1.120697781
1.120574408
1.1204949
1.120201226
1.119724675
1.119058337
1.118312744
1.117520399
1.117274071
1.11722627
1.11720419
1.11699613
1.116516758
1.116131218
1.116069069
1.116065118
1.115879895
1.115464954
1.115215466
1.115007949
1.114778403
1.114511746
1.114353951
1.114356993
1.114395188
1.114412454
1.11442282
1.114467331
1.114549212
1.114646613
1.114775974
1.114941429
1.115129737
1.11530003
1.115380166
1.115396646
1.115397848
1.115394955
1.115393049
1.115397662
1.115414165
1.115419831
1.11541472
1.115386193
1.1153415
1.115296605
1.115273396
1.115274745
1.115284648
1.115306418
1.115331951
1.115344676
1.115349799
1.115350262
1.115352032
1.115358687
1.115373166
1.115398871
1.109286775
1.11206498
1.114143349
1.114786232
1.115782634
1.116853465
1.117848475
1.118935283
1.12005593
1.120716519
1.120702384
1.120715899
1.120538204
1.120225748
1.119893727
1.119402343
1.118689351
1.117923965
1.117148622
1.116167013
1.115300154
1.114416362
1.114171649
1.114222572
1.114307369
1.114350022
1.114407134
1.114447927
1.114491588
1.11458888
1.114686169
1.114812781
1.114975367
1.115090875
1.115133357
1.115123985
1.115082271
1.115060545
1.115075246
1.115105586
1.115169713
1.115272154
1.115321011
1.115338868
1.115354674
1.115372195
1.115398212
1.115430834
1.115465986
1.115485806
1.115489794
1.115490763
1.115487735
1.115480395
1.115472086
1.11545773
1.115447204
1.115447493
1.115453523
1.115458604
1.115459063
1.115453295
1.115433071
1.115421243
1.11542587
1.115434466
1.115440562
1.122639136
1.122482805
1.122355438
1.122031445
1.121489021
1.120532582
1.119250296
1.1182108
1.117634553
1.117681673
1.117669623
1.117373412
1.116898271
1.116718223
1.116513667
1.116068518
1.115572065
1.115124359
1.11470607
1.11438695
1.114119736
1.113964431
1.113983802
1.11406259
1.114116871
1.114141863
1.114250871
1.114506453
1.114771291
1.114901445
1.114985053
1.115091687
1.115229464
1.115316077
1.115355194
1.115405637
1.115440769
1.115456549
1.115451545
1.115452656
1.115470545
1.115490036
1.115488503
1.115484176
1.115471522
1.115460961
1.115469729
1.115493992
1.115524548
1.115555236
1.115568906
1.115574567
1.115573607
1.115561572
1.115567633
1.115589702
1.115594677
1.115594344
1.115586912
1.115578462
1.115570787
1.11555781
1.115549058
1.115536756
1.11552136
1.115509517
1.115505642
1.122666647
1.122535709
1.122354097
1.122040082
1.121519008
1.120868119
1.120050055
1.118907884
1.117655974
1.116532937
1.115780501
1.114991277
1.11453863
1.1144974
1.114399321
1.11423652
1.114088961
1.114019711
1.114056634
1.114269414
1.114551124
1.114773281
1.114911276
1.114980022
1.114985975
1.114979517
1.115036632
1.115166145
1.115318659
1.115345917
1.115372676
1.115431891
1.115512375
1.11555461
1.115581796
1.11562072
1.1156578
1.115678348
1.115676578
1.115672555
1.11566488
1.115650554
1.115630995
1.115609092
1.115586744
1.115574612
1.11557672
1.115586679
1.115601801
1.115619053
1.115627163
1.115628511
1.11562175
1.115619918
1.115632122
1.115653125
1.115672623
1.115681401
1.115688106
1.115689158
1.115678878
1.115659656
1.115642961
1.115633998
1.115628212
1.115630395
1.115637211
1.118275412
1.118027546
1.117607055
1.117261323
1.116813743
1.116364272
1.115873651
1.115228632
1.114525027
1.114090989
1.113778929
1.113488903
1.113395982
1.113400228
1.113395845
1.113422953
1.113536292
1.113766867
1.114183745
1.114759923
1.115357805
1.115810056
1.116000121
1.116031971
1.116007467
1.115887563
1.115756178
1.115725252
1.115726722
1.115725787
1.115704897
1.115691057
1.115668947
1.115607143
1.115565882
1.11557442
1.115608859
1.115667032
1.115718015
1.115734945
1.115747583
1.115755668
1.115746494
1.115730132
1.115728918
1.115735967
1.115754024
1.115770815
1.115775292
1.115775474
1.115761976
1.115735106
1.115711617
1.115705067
1.115706477
1.115719217
1.115746015
1.115761834
1.115766037
1.115767447
1.115764916
1.11575988
1.115758769
1.115762799
1.11577212
1.115775504
1.115773892
1.1148909
1.114945218
1.115037515
1.115015304
1.114971245
1.114983099
1.115022022
1.115032114
1.114905772
1.114779784
1.114804541
1.114988998
1.115344207
1.115538655
1.115607355
1.115651192
1.115697839
1.115733822
1.115747768
1.115765235
1.115832864
1.115950399
1.116033196
1.116035067
1.116012692
1.115956127
1.115862631
1.115810986
1.115806565
1.115825252
1.115873146
1.115894018
1.115885127
1.115858928
1.115817062
1.115789282
1.115786423
1.115798815
1.115843076
1.115889093
1.115897205
1.1158895
1.115865083
1.115822799
1.115798222
1.115794092
1.115797252
1.115815594
1.115831029
1.115828778
1.115821632
1.115808051
1.115791556
1.115785068
1.115784385
1.115795771
1.115825098
1.115847561
1.115848296
1.115842097
1.115871672
1.115910403
1.115982875
1.116020798
1.116014558
1.115979658
1.11593813
1.115930468
1.1159343
1.115973558
1.116057399
1.116098245
1.116077734
1.116024213
1.115948554
1.115898606
1.115883575
1.115879813
1.115912933
1.115986447
1.115999261
1.115974644
1.115923869
1.115870283
1.115850768
1.115845211
1.115847038
1.115881023
1.115917618
1.11590906
1.115880116
1.115842533
1.115815432
1.115804854
1.11579909
1.115805039
1.115836879
1.115861799
1.115858381
1.115845605
1.115835302
)
;

boundaryField
{
    inlet
    {
        type            fixedValue;
        value           nonuniform 0();
    }
    outlet
    {
        type            inletOutlet;
        inletValue      nonuniform 0();
        value           nonuniform 0();
    }
    bottom
    {
        type            slip;
    }
    top
    {
        type            slip;
    }
    obstacle
    {
        type            zeroGradient;
    }
    defaultFaces
    {
        type            empty;
    }
    procBoundary14to7
    {
        type            processor;
        value           nonuniform List<scalar> 2(1 1);
    }
    procBoundary14to8
    {
        type            processor;
        value           nonuniform List<scalar> 
70
(
1
1
1
1
1
1
1
1
1
1
1
1
1
1
1
1
1
1
1
1
1
1
1
1
1
1
1
1
1
1
1
1
1
1
1
1
1
1
1
1
1
1
1
1
1
1
1
1
1
1
1
1
1
1
1
1
1
1
1
1
1
1
1
1
1
1
1
1
1
1
)
;
    }
    procBoundary14to9
    {
        type            processor;
        value           nonuniform List<scalar> 
32
(
1
1
1
1
1.000000005
1.000000537
1.00003027
1.000817655
1.009725342
1.045257233
1.090473241
1.110723716
1.111661439
1.114576207
1.115987934
1.115018664
1.114357684
1.11444088
1.114711678
1.114806955
1.114872773
1.11505734
1.115172965
1.115255887
1.115339005
1.115403539
1.115457282
1.115493738
1.115488407
1.114166988
1.10220652
1.048694308
)
;
    }
    procBoundary14to13
    {
        type            processor;
        value           nonuniform List<scalar> 
31
(
1
1
1
1
1
1
1
1
1
1
1
1
1
1
1
1
1
1
1
1
1
1
1.000000035
1.000018184
1.001339939
1.018984869
1.068326022
1.107187895
1.122728078
1.122408377
1.118241133
)
;
    }
    procBoundary14to20
    {
        type            processor;
        value           nonuniform List<scalar> 
28
(
1.115925994
1.115239106
1.114874647
1.114914069
1.11510335
1.115156201
1.115006034
1.115006034
1.113372458
1.113851536
1.114516851
1.115138652
1.115622559
1.116045967
1.116496805
1.116764959
1.116826895
1.1167928
1.116706793
1.116628467
1.116549118
1.116407666
1.116230202
1.116049978
1.115936136
1.11589467
1.115871956
1.115871956
)
;
    }
}


// ************************************************************************* //
