/*--------------------------------*- C++ -*----------------------------------*\
  =========                 |
  \\      /  F ield         | OpenFOAM: The Open Source CFD Toolbox
   \\    /   O peration     | Website:  https://openfoam.org
    \\  /    A nd           | Version:  7
     \\/     M anipulation  |
\*---------------------------------------------------------------------------*/
FoamFile
{
    version     2.0;
    format      ascii;
    class       volScalarField;
    location    "2.2";
    object      p;
}
// * * * * * * * * * * * * * * * * * * * * * * * * * * * * * * * * * * * * * //

dimensions      [1 -1 -2 0 0 0 0];

internalField   nonuniform List<scalar> 
555
(
1
1
1
1
1
1
1
1
1
1
1
1
1
1
1
1
1
1
1
1
1
1
1
1
1
1
1
1
1
1
1
1
1
1
1
1
1
1
1
1
1
1
1
1
1
1
1
1
1
1
1
1
1
1
1
1
1
1
1
1
1
1
1
1
1
1
1
1
1
1
1
1
1
1
1
1
1
1.000000002
1
1
1
1
1
1
1
1
1
1
1
1
1
1
1
1
1
1
1
1
1
1
1
1
1
1
1
1
1
1.000000001
1.000000006
1.000000268
0.9999999973
1
1
1
1
1
1
1
1
1
1
1
1
1
1
1
1
1
1
1
1
1
1
1
1
1
1.000000001
1.000000013
1.000000075
1.000000452
1.000001994
1.000008369
1.000057216
1.000018857
1
1
1
1
1
1
1
1
1
1
1
1
1
1
1
1
1
1
1
1
1
1.000000003
1.00000002
1.000000124
1.000000657
1.00000301
1.000012126
1.000044726
1.000144552
1.000431191
1.001107484
1.003079068
1.004650751
1
1
1
1
1
1
1
1
1
1
1
1
1
1
1
1
1.000000001
1.000000005
1.000000035
1.000000205
1.000001037
1.000004581
1.000017942
1.000062614
1.000196378
1.000569128
1.001435542
1.003468989
1.007350452
1.01462614
1.026187872
1.046938899
1.066741048
1
1
1
1
1
1
1
1
1
1
1
1
1.000000001
1.00000001
1.000000064
1.000000347
1.000001649
1.000006997
1.000026636
1.000090264
1.000274898
1.000766324
1.00189856
1.004367769
1.009036665
1.017825086
1.031304364
1.052244865
1.079051118
1.115547534
1.158168834
1.203522852
1.246771234
1
1
1
1
1
1
1
1
1.000000003
1.000000021
1.000000121
1.000000622
1.000002826
1.000011224
1.0000411
1.000131977
1.000388963
1.001039706
1.002516166
1.005583512
1.011445535
1.021427362
1.037079384
1.060877157
1.089568541
1.127671402
1.174052185
1.220886262
1.261820174
1.302651644
1.342580081
1.374242776
1.404689056
1
1
1
1.000000001
1.000000008
1.000000048
1.000000258
1.000001194
1.000005052
1.000018927
1.000063994
1.000199522
1.000563696
1.001424573
1.003424018
1.007268525
1.014414192
1.026696651
1.044073674
1.069639929
1.105201183
1.143217271
1.187386175
1.235314785
1.281158085
1.327061783
1.363649708
1.38932571
1.414493182
1.438738469
1.45423376
1.460600339
1.467729479
1.000000025
1.000000125
1.000000583
1.000002458
1.000009504
1.00003371
1.000107479
1.000312027
1.000847849
1.002037513
1.004595943
1.009621963
1.018082249
1.032423468
1.053815276
1.080828651
1.11952586
1.164531037
1.204391182
1.251796094
1.298912875
1.336205132
1.378180004
1.398425905
1.413126069
1.429342373
1.440909896
1.445863269
1.452219532
1.455945916
1.46016091
1.463583968
1.467609847
1.000019965
1.000062842
1.000188005
1.000505715
1.001275981
1.003024133
1.006325054
1.012744387
1.023794098
1.039540345
1.065002445
1.097309544
1.133769443
1.180771401
1.228039249
1.275733863
1.322609214
1.357052323
1.387057963
1.424571512
1.444458426
1.456919937
1.470652934
1.473438036
1.474019701
1.476582532
1.478411991
1.478106072
1.477557328
1.474675024
1.469140585
1.462401058
1.461432166
1.002017249
1.004454899
1.009127677
1.016938456
1.030657942
1.050021952
1.075843663
1.114917423
1.155297297
1.197797888
1.251080031
1.296117741
1.340456475
1.375328854
1.395192449
1.416394425
1.438572276
1.444780689
1.452533573
1.458811679
1.45934243
1.46236104
1.470669409
1.473736828
1.474367446
1.476073591
1.478851706
1.47918575
1.478157058
1.475805321
1.472332537
1.46754267
1.463831196
1.038558644
1.063609175
1.093544155
1.130762096
1.178490457
1.223099878
1.273670143
1.321175066
1.357561127
1.39939395
1.430546529
1.448631586
1.466004124
1.47851654
1.480352367
1.483539325
1.487649251
1.487633278
1.486718777
1.483945837
1.478314573
1.471818552
1.46728499
1.465817097
1.465098625
1.464352886
1.463452238
1.462348236
1.460643946
1.458682216
1.456405213
1.453802361
1.452097841
1.19578587
1.245334473
1.287208447
1.33535024
1.369647623
1.39591505
1.429601833
1.444564771
1.451224808
1.46042502
1.462416361
1.464362364
1.471341285
1.481543441
1.484419386
1.485602644
1.487777477
1.487802696
1.486600569
1.483506881
1.479499584
1.475158746
1.471128553
1.467630872
1.463403892
1.458066711
1.452930506
1.449999334
1.44861469
1.447507328
1.44683962
1.447058414
1.4485134
1.408729362
1.431301997
1.448041751
1.472522501
1.483552815
1.4883278
1.492482691
1.492182094
1.490847348
1.48972659
1.486866707
1.482730275
1.480026464
1.477279746
1.474915956
1.470702155
1.465933078
1.4616317
1.460382418
1.459491267
1.457692607
1.454835915
1.453509557
1.452486088
1.450187775
1.447244176
1.443849688
1.44267049
1.442233501
1.442290677
1.442775167
1.444259549
1.448038055
1.454475012
1.465686925
1.479009383
1.493453993
1.495872026
1.493645679
1.488897956
1.486944211
1.485360329
1.482124854
1.475781573
1.470179446
1.466840564
1.464257629
1.460431148
1.454763749
1.451662255
1.451341477
1.450508568
1.449213192
1.448705152
1.448832197
1.449851883
1.450757385
1.450671757
1.449820381
1.449048685
1.449023495
1.449162143
1.449176511
1.449068371
1.449742499
1.450664986
1.43719206
1.436651126
1.43698281
1.438523764
1.44129846
1.444049205
1.44626396
1.447861707
1.450179266
1.453258791
1.455664185
1.456417892
1.45685307
1.457291258
1.456904562
)
;

boundaryField
{
    inlet
    {
        type            fixedValue;
        value           nonuniform 0();
    }
    outlet
    {
        type            zeroGradient;
    }
    bottom
    {
        type            slip;
    }
    top
    {
        type            slip;
    }
    obstacle
    {
        type            zeroGradient;
    }
    defaultFaces
    {
        type            empty;
    }
    procBoundary14to7
    {
        type            processor;
        value           nonuniform List<scalar> 2(1 1);
    }
    procBoundary14to8
    {
        type            processor;
        value           nonuniform List<scalar> 
35
(
1
1
1
1
1
1
1
1
1
1
1
1
1
1
1
1
1
1
1
1
1
1
1
1
1
1
1
1
1
1
1
1
1
1
1
)
;
    }
    procBoundary14to9
    {
        type            processor;
        value           nonuniform List<scalar> 
17
(
1.000000032
1.000004117
1.000234233
1.005150316
1.04891515
1.185067795
1.346994492
1.424530344
1.468159762
1.470453946
1.461032121
1.455595574
1.449047581
1.447196284
1.443069386
1.382533359
1.088112893
)
;
    }
    procBoundary14to13
    {
        type            processor;
        value           nonuniform List<scalar> 
16
(
1
1
1
1
1
1
1
1
1
1.000000004
1.00000585
1.000884019
1.023301562
1.150469071
1.368779498
1.435878843
)
;
    }
    procBoundary14to20
    {
        type            processor;
        value           nonuniform List<scalar> 
19
(
1.560451026
1.539299837
1.514935078
1.497405007
1.488338986
1.480516277
1.472084018
1.467150687
1.463458795
1.457692598
1.449637215
1.447166754
1.44611298
1.444287117
1.440932992
1.438205774
1.438277421
1.43855901
1.43855901
)
;
    }
}


// ************************************************************************* //
