/*--------------------------------*- C++ -*----------------------------------*\
  =========                 |
  \\      /  F ield         | OpenFOAM: The Open Source CFD Toolbox
   \\    /   O peration     | Website:  https://openfoam.org
    \\  /    A nd           | Version:  7
     \\/     M anipulation  |
\*---------------------------------------------------------------------------*/
FoamFile
{
    version     2.0;
    format      ascii;
    class       volScalarField;
    location    "1.4";
    object      p;
}
// * * * * * * * * * * * * * * * * * * * * * * * * * * * * * * * * * * * * * //

dimensions      [1 -1 -2 0 0 0 0];

internalField   nonuniform List<scalar> 5(1.059472402 1.058407762 1.092940144 1.047077755 1.158563791);

boundaryField
{
    inlet
    {
        type            fixedValue;
        value           nonuniform 0();
    }
    outlet
    {
        type            zeroGradient;
    }
    bottom
    {
        type            slip;
    }
    top
    {
        type            slip;
    }
    obstacle
    {
        type            zeroGradient;
    }
    defaultFaces
    {
        type            empty;
    }
    procBoundary9to3
    {
        type            processor;
        value           nonuniform List<scalar> 2(1.014958318 1.041890621);
    }
    procBoundary9to4
    {
        type            processor;
        value           nonuniform List<scalar> 2(1.032975817 0.9613323798);
    }
    procBoundary9to8
    {
        type            processor;
        value           uniform 1.00574471;
    }
    procBoundary9to14
    {
        type            processor;
        value           uniform 1.095652017;
    }
    procBoundary9to15
    {
        type            processor;
        value           nonuniform List<scalar> 3(0.9326489041 0.9326489041 0.8093536255);
    }
    procBoundary9to20
    {
        type            processor;
        value           uniform 1.362462955;
    }
}


// ************************************************************************* //
