/*--------------------------------*- C++ -*----------------------------------*\
  =========                 |
  \\      /  F ield         | OpenFOAM: The Open Source CFD Toolbox
   \\    /   O peration     | Website:  https://openfoam.org
    \\  /    A nd           | Version:  7
     \\/     M anipulation  |
\*---------------------------------------------------------------------------*/
FoamFile
{
    version     2.0;
    format      ascii;
    class       volScalarField;
    location    "1.4";
    object      T;
}
// * * * * * * * * * * * * * * * * * * * * * * * * * * * * * * * * * * * * * //

dimensions      [0 0 0 1 0 0 0];

internalField   nonuniform List<scalar> 5(1.017145318 1.016926118 1.028001467 1.017275208 1.052653843);

boundaryField
{
    inlet
    {
        type            fixedValue;
        value           nonuniform 0();
    }
    outlet
    {
        type            inletOutlet;
        inletValue      nonuniform 0();
        value           nonuniform 0();
    }
    bottom
    {
        type            slip;
    }
    top
    {
        type            slip;
    }
    obstacle
    {
        type            zeroGradient;
    }
    defaultFaces
    {
        type            empty;
    }
    procBoundary9to3
    {
        type            processor;
        value           nonuniform List<scalar> 2(1.004243557 1.011891138);
    }
    procBoundary9to4
    {
        type            processor;
        value           nonuniform List<scalar> 2(1.010358699 0.9954141611);
    }
    procBoundary9to8
    {
        type            processor;
        value           uniform 1.001686442;
    }
    procBoundary9to14
    {
        type            processor;
        value           uniform 1.027194847;
    }
    procBoundary9to15
    {
        type            processor;
        value           nonuniform List<scalar> 3(0.9933047595 0.9933047595 0.9576897402);
    }
    procBoundary9to20
    {
        type            processor;
        value           uniform 1.094005861;
    }
}


// ************************************************************************* //
