/*--------------------------------*- C++ -*----------------------------------*\
  =========                 |
  \\      /  F ield         | OpenFOAM: The Open Source CFD Toolbox
   \\    /   O peration     | Website:  https://openfoam.org
    \\  /    A nd           | Version:  7
     \\/     M anipulation  |
\*---------------------------------------------------------------------------*/
FoamFile
{
    version     2.0;
    format      ascii;
    class       volVectorField;
    location    "2.7";
    object      U;
}
// * * * * * * * * * * * * * * * * * * * * * * * * * * * * * * * * * * * * * //

dimensions      [0 1 -1 0 0 0 0];

internalField   nonuniform List<vector> 
2222
(
(3 -8.943922315e-15 0)
(3 -6.092797907e-15 0)
(3 -2.791579872e-15 0)
(3 3.927871835e-16 0)
(3 1.375639525e-15 0)
(3 1.300032727e-15 0)
(3 -1.158960061e-16 0)
(3 -1.562534395e-15 0)
(3 -3.258284508e-15 0)
(3 -8.598677338e-15 0)
(3 -1.158827787e-14 0)
(3 -1.369591839e-14 0)
(3 -1.396771608e-14 0)
(3 -1.408374899e-14 0)
(3 -1.434065737e-14 0)
(3 -1.453825041e-14 0)
(3 -1.450437852e-14 0)
(3 -1.269067622e-14 0)
(3 -1.250228558e-14 0)
(3 -1.172613732e-14 0)
(3 -1.151202839e-14 0)
(3 -1.076226236e-14 0)
(3 -9.822208993e-15 0)
(3 -9.217757187e-15 0)
(3 -1.023549612e-14 0)
(3 -1.201402204e-14 0)
(3 -1.310906484e-14 0)
(3 -1.579674318e-14 0)
(3 -1.965633373e-14 0)
(3 -2.361803594e-14 0)
(3 -2.349125653e-14 0)
(3 -2.177270573e-14 0)
(3 -2.101430221e-14 0)
(3 -1.832776777e-14 0)
(3 -1.78583525e-14 0)
(3 -1.634496118e-14 0)
(3 -1.362927605e-14 0)
(3 -1.285261164e-14 0)
(3 -1.052624075e-14 0)
(3 -9.859077611e-15 0)
(3 -8.885426467e-15 0)
(3 -1.008213276e-14 0)
(3 -1.214927608e-14 0)
(3 -1.262054105e-14 0)
(3 -1.061335555e-14 0)
(3 -7.549174188e-15 0)
(3 -7.555839948e-15 0)
(3 -7.068961244e-15 0)
(3 -7.047884747e-15 0)
(3 -5.226707061e-15 0)
(3 -3.908291166e-15 0)
(3 -1.343349885e-15 0)
(3 4.371625804e-16 0)
(3 3.332515163e-15 0)
(3 5.494745161e-15 0)
(3 -1.084679269e-14 0)
(3 -1.043815451e-14 0)
(3 -1.067302837e-14 0)
(3 -1.045999769e-14 0)
(3 -1.028412577e-14 0)
(3 -1.120598761e-14 0)
(3 -1.186975393e-14 0)
(3 -1.103124431e-14 0)
(3 -1.001452251e-14 0)
(3 -7.092399892e-15 0)
(3 -3.893737573e-15 0)
(3 -3.017683766e-15 0)
(3 -2.943969522e-15 0)
(3 -5.95016875e-15 0)
(3 -8.657685921e-15 0)
(3 -9.159516299e-15 0)
(3 -9.283186565e-15 0)
(3 -8.325056658e-15 0)
(3 -7.677269413e-15 0)
(3 -6.515979312e-15 0)
(3 -7.005664949e-15 0)
(3 -7.039019085e-15 0)
(3 -9.112553358e-15 0)
(3 -1.022533994e-14 0)
(3 -1.075160931e-14 0)
(3 -1.377798978e-14 0)
(3 -1.697512845e-14 0)
(3 -1.87322152e-14 0)
(3 -1.943668125e-14 0)
(3 -1.886853883e-14 0)
(3 -1.848314995e-14 0)
(3 -1.802429694e-14 0)
(3 -1.636981565e-14 0)
(3 -1.488747719e-14 0)
(3 -1.418232516e-14 0)
(3 -1.363569408e-14 0)
(3 -1.105595828e-14 0)
(3 -9.247647979e-15 0)
(3 -7.471224036e-15 0)
(3 -6.478733508e-15 0)
(3 -5.073078933e-15 0)
(3 -5.009291541e-15 0)
(3 -5.755520131e-15 0)
(3 -6.939921507e-15 0)
(3 -8.802964567e-15 0)
(3 -8.97622416e-15 0)
(3 -8.302412024e-15 0)
(3 -8.54895368e-15 0)
(3 -9.405640274e-15 0)
(3 -9.075475707e-15 0)
(3 -7.527377923e-15 0)
(3 -4.533039391e-15 0)
(3 -2.073570909e-15 0)
(3 2.432317949e-15 0)
(3 5.065818014e-15 0)
(3 6.005515628e-15 0)
(3 4.998411699e-15 0)
(3 6.043029301e-15 0)
(3 7.309560767e-15 0)
(3 8.742074861e-15 0)
(3 7.753273793e-15 0)
(3 7.658841228e-15 0)
(3 8.459428175e-15 0)
(3 9.02642461e-15 0)
(3 1.054621741e-14 0)
(3 1.07221086e-14 0)
(3 9.844524725e-15 0)
(3 -1.133337016e-14 0)
(3 -1.223416668e-14 0)
(3 -1.293409005e-14 0)
(3 -1.468451966e-14 0)
(3 -1.420449596e-14 0)
(3 -1.23077249e-14 0)
(3 -1.010873177e-14 0)
(3 -8.728547347e-15 0)
(3 -6.541374276e-15 0)
(3 -5.249666797e-15 0)
(3 -1.122270672e-15 0)
(3 1.09918262e-16 0)
(3 -9.723378141e-16 0)
(3 -1.82640085e-15 0)
(3 -2.372036397e-15 0)
(3 -2.769678505e-15 0)
(3 -3.582515456e-15 0)
(3 -3.729893001e-15 0)
(3 -3.906250421e-15 0)
(3 -3.713542317e-15 0)
(3 -3.1457913e-15 0)
(3 -2.900852026e-15 0)
(3 -3.23942065e-15 0)
(3 -6.587241963e-15 0)
(3 -7.912549011e-15 0)
(3 -1.290722612e-14 0)
(3 -1.54109742e-14 0)
(3 -1.676509538e-14 0)
(3 -1.602816261e-14 0)
(3 -1.439246784e-14 0)
(3 -1.334715484e-14 0)
(3 -1.280795724e-14 0)
(3 -1.319911653e-14 0)
(3 -1.421851664e-14 0)
(3 -1.465209163e-14 0)
(3 -1.533563874e-14 0)
(3 -1.497698843e-14 0)
(3 -1.054433177e-14 0)
(3 -7.639431188e-15 0)
(3 -6.497507153e-15 0)
(3 -6.8621609e-15 0)
(3 -7.398746442e-15 0)
(3 -7.626430077e-15 0)
(3 -8.798099367e-15 0)
(3 -1.042091314e-14 0)
(3 -1.163964452e-14 0)
(3 -1.157406251e-14 0)
(3 -1.109210427e-14 0)
(3 -9.654049556e-15 0)
(3 -7.97203623e-15 0)
(3 -7.229570869e-15 0)
(3 -7.171783525e-15 0)
(3 -6.205777824e-15 0)
(3 -3.504595656e-15 0)
(3 -2.975967283e-15 0)
(3 -3.196082041e-15 0)
(3 -3.716346799e-15 0)
(3 -2.420679471e-15 0)
(3 9.254890752e-16 0)
(3 1.308653253e-15 0)
(3 1.671437518e-16 0)
(3 1.112681154e-15 0)
(3 2.464192253e-15 0)
(3 3.067738721e-15 0)
(3 3.550876155e-15 0)
(3 2.755481778e-15 0)
(3 1.958712352e-15 0)
(3 -1.118104219e-14 0)
(3 -1.069291403e-14 0)
(3 -9.386635891e-15 0)
(3 -7.075514445e-15 0)
(3 -6.342593559e-15 0)
(3 -2.827195094e-15 0)
(3 -2.412899734e-15 0)
(3 -1.386875907e-15 0)
(3 -7.155831986e-16 0)
(3 -6.572828886e-16 0)
(3 3.298116235e-15 0)
(3 9.691520457e-15 0)
(3 1.124129945e-14 0)
(3 1.075964577e-14 0)
(3 9.037909671e-15 0)
(3 7.132125694e-15 0)
(3 6.561669548e-15 0)
(3 4.810117772e-15 0)
(3 2.668716526e-15 0)
(3 3.355690277e-15 0)
(3 3.20397231e-15 0)
(3 1.848334123e-15 0)
(3 1.609014845e-15 0)
(3 7.93831981e-16 0)
(3 -1.809829036e-15 0)
(3 -5.40264126e-15 0)
(3 -7.515720801e-15 0)
(3 -8.341962744e-15 0)
(3 -9.252043613e-15 0)
(3 -8.988711208e-15 0)
(3 -8.237948806e-15 0)
(3 -8.406634077e-15 0)
(3 -8.75072768e-15 0)
(3 -9.702788203e-15 0)
(3 -1.052191487e-14 0)
(3 -1.122785468e-14 0)
(3 -1.159249102e-14 0)
(3 -9.651364709e-15 0)
(3 -7.214987953e-15 0)
(3 -5.479889163e-15 0)
(3 -6.242939776e-15 0)
(3 -6.78455848e-15 0)
(3 -7.762094672e-15 0)
(3 -8.143142574e-15 0)
(3 -7.989090241e-15 0)
(3 -9.08462262e-15 0)
(3 -1.03478116e-14 0)
(3 -1.090491013e-14 0)
(3 -1.054856841e-14 0)
(3 -1.061295947e-14 0)
(3 -1.02187108e-14 0)
(3 -9.300412418e-15 0)
(3 -8.526715958e-15 0)
(3 -7.334698888e-15 0)
(3 -7.38354611e-15 0)
(3 -7.604051364e-15 0)
(3 -7.691630708e-15 0)
(3 -6.72015016e-15 0)
(3 -5.311936e-15 0)
(3 -5.337170407e-15 0)
(3 -5.76861961e-15 0)
(3 -6.724742103e-15 0)
(3 -7.087158998e-15 0)
(3 -8.069776747e-15 0)
(3 -8.389390197e-15 0)
(3 -7.610807429e-15 0)
(3 -6.072221995e-15 0)
(3 -1.328973603e-14 0)
(3 -1.254225705e-14 0)
(3 -1.137281726e-14 0)
(3 -6.716849692e-15 0)
(3 -1.148619436e-15 0)
(3 2.06107662e-15 0)
(3 3.55962741e-15 0)
(3 4.187103374e-15 0)
(3 5.437415266e-15 0)
(3 7.311077368e-15 0)
(3 9.145497712e-15 0)
(3 1.143480014e-14 0)
(3 1.457446275e-14 0)
(3 1.907504733e-14 0)
(3 1.957256922e-14 0)
(3 1.974506426e-14 0)
(3 1.814041699e-14 0)
(3 1.684867509e-14 0)
(3 1.465226743e-14 0)
(3 1.160863169e-14 0)
(3 8.105525558e-15 0)
(3 7.13436081e-15 0)
(3 4.867278053e-15 0)
(3 4.029577343e-15 0)
(3 3.707832493e-15 0)
(3 2.732912324e-15 0)
(3 2.44805459e-15 0)
(3 2.122415511e-15 0)
(3 4.400444947e-16 0)
(3 -1.855541482e-15 0)
(3 -4.808772013e-15 0)
(3 -7.06023235e-15 0)
(3 -7.882173172e-15 0)
(3 -6.499672917e-15 0)
(3 -5.887309656e-15 0)
(3 -4.748325855e-15 0)
(3 -3.905258761e-15 0)
(3 -4.012291886e-15 0)
(3 -4.143570438e-15 0)
(3 -4.345739744e-15 0)
(3 -3.981109933e-15 0)
(3 -3.975479174e-15 0)
(3 -6.074334127e-15 0)
(3 -7.167621844e-15 0)
(3 -7.800763321e-15 0)
(3 -7.77621671e-15 0)
(3 -8.119956473e-15 0)
(3 -8.222520017e-15 0)
(3 -8.84933449e-15 0)
(3 -1.105209664e-14 0)
(3 -1.191173908e-14 0)
(3 -1.063273902e-14 0)
(3 -1.042281918e-14 0)
(3 -1.196101956e-14 0)
(3 -1.224820373e-14 0)
(3 -1.132501684e-14 0)
(3 -1.043647762e-14 0)
(3 -1.031328335e-14 0)
(3 -1.072340761e-14 0)
(3 -1.067127388e-14 0)
(3 -8.697761672e-15 0)
(3 -8.679110923e-15 0)
(3 -9.085151987e-15 0)
(3 -8.823480409e-15 0)
(3 -8.153495158e-15 0)
(3 -7.045684531e-15 0)
(3 -4.204107475e-15 0)
(3 -1.101080747e-14 0)
(3 -8.930627785e-15 0)
(3 -4.197954341e-15 0)
(3 -1.26866926e-15 0)
(3 1.008851542e-15 0)
(3 1.717341101e-15 0)
(3 4.321258093e-15 0)
(3 6.65746e-15 0)
(3 9.242124755e-15 0)
(3 1.008530036e-14 0)
(3 1.192049935e-14 0)
(3 1.427689695e-14 0)
(3 1.765640996e-14 0)
(3 2.065077445e-14 0)
(3 2.218934062e-14 0)
(3 2.262478094e-14 0)
(3 2.256468341e-14 0)
(3 2.339541423e-14 0)
(3 1.970960992e-14 0)
(3 1.769957802e-14 0)
(3 1.595259641e-14 0)
(3 1.303600073e-14 0)
(3 1.011564107e-14 0)
(3 6.621500689e-15 0)
(3 6.433101256e-15 0)
(3 5.953114672e-15 0)
(3 5.263822525e-15 0)
(3 4.208753906e-15 0)
(3 3.353386872e-15 0)
(3 1.625962873e-15 0)
(3 -2.018544424e-15 0)
(3 -5.307502963e-15 0)
(3 -5.567638436e-15 0)
(3 -4.249124866e-15 0)
(3 -1.650107311e-15 0)
(3 1.85249796e-16 0)
(3 4.965172808e-16 0)
(3 3.975748969e-17 0)
(3 -8.259023733e-16 0)
(3 -4.268421734e-15 0)
(3 -8.040738267e-15 0)
(3 -9.946475936e-15 0)
(3 -1.137352346e-14 0)
(3 -1.201261488e-14 0)
(3 -1.182217327e-14 0)
(3 -1.102375655e-14 0)
(3 -9.678061816e-15 0)
(3 -8.886214241e-15 0)
(3 -8.478362361e-15 0)
(3 -8.126256792e-15 0)
(3 -7.572943412e-15 0)
(3 -1.032401273e-14 0)
(3 -1.084474712e-14 0)
(3 -1.141054926e-14 0)
(3 -1.172724759e-14 0)
(3 -1.249656096e-14 0)
(3 -1.434839129e-14 0)
(3 -1.524885737e-14 0)
(3 -1.411996194e-14 0)
(3 -1.229215677e-14 0)
(3 -1.090851237e-14 0)
(3 -9.389187487e-15 0)
(3 -8.854715512e-15 0)
(3 -7.181807803e-15 0)
(3 -5.720223128e-15 0)
(3 -3.821621065e-15 0)
(3 -2.326382022e-17 0)
(3 -6.028023083e-15 0)
(3 -3.839332133e-15 0)
(3 -2.782542752e-15 0)
(3 -1.683213097e-15 0)
(3 -7.933837635e-16 0)
(3 1.805986821e-15 0)
(3 2.960865945e-15 0)
(3 5.381517628e-15 0)
(3 7.106765305e-15 0)
(3 6.772532361e-15 0)
(3 5.65892463e-15 0)
(3 7.077244435e-15 0)
(3 1.035577739e-14 0)
(3 1.235620048e-14 0)
(3 1.534181151e-14 0)
(3 1.666945223e-14 0)
(3 1.649780137e-14 0)
(3 1.526473923e-14 0)
(3 1.47093291e-14 0)
(3 1.267821515e-14 0)
(3 1.136651283e-14 0)
(3 1.000263234e-14 0)
(3 9.558953059e-15 0)
(3 7.278985442e-15 0)
(3 4.481661445e-15 0)
(3 5.000373087e-15 0)
(3 4.62498354e-15 0)
(3 4.153721038e-15 0)
(3 3.177171364e-15 0)
(3 2.457885988e-15 0)
(3 1.175532285e-15 0)
(3 -1.538716252e-16 0)
(3 -7.687026899e-16 0)
(3 -2.149120164e-15 0)
(3 -2.353273001e-15 0)
(3 -1.663053995e-15 0)
(3 -1.478928179e-15 0)
(3 -1.456639235e-15 0)
(3 -2.768637947e-15 0)
(3 -4.807277877e-15 0)
(3 -6.88189184e-15 0)
(3 -7.598583918e-15 0)
(3 -7.472978985e-15 0)
(3 -7.302744512e-15 0)
(3 -6.957150887e-15 0)
(3 -8.326619891e-15 0)
(3 -9.989866679e-15 0)
(3 -1.035070378e-14 0)
(3 -9.15932521e-15 0)
(3 -6.601407937e-15 0)
(3 -5.598788962e-15 0)
(3 -7.325627895e-15 0)
(3 -9.538767009e-15 0)
(3 -1.080709395e-14 0)
(3 -1.127159623e-14 0)
(3 -1.208960701e-14 0)
(3 -1.211274699e-14 0)
(3 -1.320687796e-14 0)
(3 -1.084290127e-14 0)
(3 -6.956143122e-15 0)
(3 -4.675233329e-15 0)
(3 -1.670260925e-15 0)
(3 9.584066949e-16 0)
(3 1.116378898e-15 0)
(3 9.390774319e-16 0)
(3 2.573088462e-15 0)
(3 2.966041763e-15 0)
(3 -2.270353461e-15 0)
(3 -1.139898825e-15 0)
(3 -6.648294673e-16 0)
(3 -7.113313796e-16 0)
(3 -1.52012989e-15 0)
(3 -2.013880215e-15 0)
(3 -1.3018755e-15 0)
(3 -8.318906628e-16 0)
(3 8.202875171e-17 0)
(3 1.740098341e-16 0)
(3 2.755408227e-16 0)
(3 1.514436978e-15 0)
(3 2.63682959e-15 0)
(3 3.572231751e-15 0)
(3 5.373084201e-15 0)
(3 6.113211206e-15 0)
(3 6.450126253e-15 0)
(3 5.282286532e-15 0)
(3 5.22942642e-15 0)
(3 5.23409813e-15 0)
(3 4.712120549e-15 0)
(3 4.728992429e-15 0)
(3 5.626676123e-15 0)
(3 4.270900764e-15 0)
(3 3.293077561e-15 0)
(3 2.236425572e-15 0)
(3 1.652975894e-15 0)
(3 6.540784531e-16 0)
(3 -9.224554761e-16 0)
(3 -2.161288345e-15 0)
(3 -2.914836548e-15 0)
(3 -3.594387782e-15 0)
(3 -3.996498079e-15 0)
(3 -5.285512601e-15 0)
(3 -7.014019909e-15 0)
(3 -7.026234401e-15 0)
(3 -5.54884509e-15 0)
(3 -5.26388991e-15 0)
(3 -5.221954371e-15 0)
(3 -4.983822814e-15 0)
(3 -4.175393283e-15 0)
(3 -2.993145947e-15 0)
(3 -1.871515492e-15 0)
(3 -1.899889235e-15 0)
(3 -2.298822029e-15 0)
(3 -2.692975034e-15 0)
(3 -3.992528494e-15 0)
(3 -3.624152534e-15 0)
(3 -2.785342493e-15 0)
(3 -9.029273284e-16 0)
(3 -3.628223184e-16 0)
(3 -2.226462621e-16 0)
(3 -5.186205024e-16 0)
(3 -1.742750164e-15 0)
(3 -2.712307389e-15 0)
(3 -2.794999978e-15 0)
(3 -1.994991895e-15 0)
(3 -2.494034281e-15 0)
(3 -2.546279966e-15 0)
(3 -1.67054181e-15 0)
(3 3.357243737e-15 0)
(3 7.786400544e-15 0)
(3 8.010795502e-15 0)
(3 8.459602921e-15 0)
(3 8.619242902e-15 0)
(3 8.345134064e-15 0)
(3 8.44081726e-15 0)
(3 -3.777918926e-16 0)
(3 -1.731470129e-16 0)
(3 -1.632731212e-16 0)
(3 -2.249754919e-16 0)
(3 -3.683915606e-15 0)
(3 -4.663119118e-15 0)
(3 -4.880769848e-15 0)
(3 -6.276099198e-15 0)
(3 -7.509355553e-15 0)
(3 -6.87572806e-15 0)
(3 -5.922956551e-15 0)
(3 -5.820765488e-15 0)
(3 -5.158966095e-15 0)
(3 -5.054285299e-15 0)
(3 -5.212821111e-15 0)
(3 -5.523001973e-15 0)
(3 -6.381911244e-15 0)
(3 -7.089766243e-15 0)
(3 -5.836881841e-15 0)
(3 -4.182801709e-15 0)
(3 -1.680119993e-15 0)
(3 -6.276501542e-16 0)
(3 -3.168573508e-16 0)
(3 -4.649814524e-16 0)
(3 -1.173895345e-15 0)
(3 -2.128524785e-15 0)
(3 -3.96715747e-15 0)
(3 -4.643061569e-15 0)
(3 -6.477710962e-15 0)
(3 -7.550728405e-15 0)
(3 -8.171722589e-15 0)
(3 -8.1851247e-15 0)
(3 -7.953494503e-15 0)
(3 -7.500158976e-15 0)
(3 -7.940506998e-15 0)
(3 -9.402251007e-15 0)
(3 -7.925993924e-15 0)
(3 -7.46554941e-15 0)
(3 -4.871257385e-15 0)
(3 -3.023028432e-15 0)
(3 -2.285930585e-15 0)
(3 -2.725935766e-15 0)
(3 -2.417663581e-15 0)
(3 -1.227675627e-15 0)
(3 -1.166192922e-15 0)
(3 -9.14657875e-16 0)
(3 1.40164144e-15 0)
(3 5.680612601e-15 0)
(3 7.531325097e-15 0)
(3 6.835957656e-15 0)
(3 6.262076794e-15 0)
(3 5.689525475e-15 0)
(3 7.573398433e-15 0)
(3 7.134392198e-15 0)
(3 6.629733874e-15 0)
(3 6.817526665e-15 0)
(3 7.415540462e-15 0)
(3 8.032366912e-15 0)
(3 6.456821384e-15 0)
(3 8.053860009e-15 0)
(3 1.080088795e-14 0)
(3 1.119257358e-14 0)
(3 1.07999484e-14 0)
(3 1.073542281e-14 0)
(3 1.151450029e-14 0)
(3 1.134195159e-14 0)
(3 1.180292713e-14 0)
(3 -4.246226478e-16 0)
(3 -1.084365508e-15 0)
(3 -3.247800127e-15 0)
(3 -4.958802521e-15 0)
(3 -6.148988421e-15 0)
(3 -8.167523089e-15 0)
(3 -1.126939105e-14 0)
(3 -1.269413302e-14 0)
(3 -1.253079657e-14 0)
(3 -1.146952403e-14 0)
(3 -1.125847775e-14 0)
(3 -1.045474163e-14 0)
(3 -1.181717567e-14 0)
(3 -1.418668433e-14 0)
(3 -1.506505518e-14 0)
(3 -1.389260117e-14 0)
(3 -1.154533166e-14 0)
(3 -1.06913561e-14 0)
(3 -1.108955785e-14 0)
(3 -1.083400096e-14 0)
(3 -1.060648587e-14 0)
(3 -8.410052092e-15 0)
(3 -8.038722091e-15 0)
(3 -7.702502049e-15 0)
(3 -6.669681774e-15 0)
(3 -6.582396476e-15 0)
(3 -6.720399548e-15 0)
(3 -7.517688597e-15 0)
(3 -8.214231598e-15 0)
(3 -8.41852732e-15 0)
(3 -7.77337632e-15 0)
(3 -6.232003569e-15 0)
(3 -5.792350184e-15 0)
(3 -6.344194987e-15 0)
(3 -7.419315703e-15 0)
(3 -7.835300477e-15 0)
(3 -9.940671242e-15 0)
(3 -1.049038276e-14 0)
(3 -9.717378049e-15 0)
(3 -8.301493588e-15 0)
(3 -7.679843856e-15 0)
(3 -7.52988692e-15 0)
(3 -6.112786204e-15 0)
(3 -3.462973926e-15 0)
(3 -2.720555033e-15 0)
(3 -2.788490323e-15 0)
(3 7.016347451e-16 0)
(3 1.166337466e-14 0)
(3 1.419117685e-14 0)
(3 1.35881503e-14 0)
(3 1.365040751e-14 0)
(3 1.380768112e-14 0)
(3 1.418987395e-14 0)
(3 1.428510054e-14 0)
(3 1.440507695e-14 0)
(3 1.481684501e-14 0)
(3 1.518375432e-14 0)
(3 1.685096387e-14 0)
(3 1.662947914e-14 0)
(3 1.497749393e-14 0)
(3 1.401872521e-14 0)
(3 1.272304698e-14 0)
(3 1.057870018e-14 0)
(3 1.222119138e-14 0)
(3 1.195038187e-14 0)
(3 1.099675841e-14 0)
(3 1.002607008e-14 0)
(3 -4.768541671e-15 0)
(3 -5.843584695e-15 0)
(3 -7.90162655e-15 0)
(3 -1.158514127e-14 0)
(3 -1.375251694e-14 0)
(3 -1.524534727e-14 0)
(3 -1.613734382e-14 0)
(3 -1.680558402e-14 0)
(3 -1.69983419e-14 0)
(3 -1.48747697e-14 0)
(3 -1.376126016e-14 0)
(3 -1.550439509e-14 0)
(3 -2.086969163e-14 0)
(3 -2.056654547e-14 0)
(3 -2.053023163e-14 0)
(3 -2.007718286e-14 0)
(3 -1.967679291e-14 0)
(3 -1.95973158e-14 0)
(3 -2.018367608e-14 0)
(3 -2.121823052e-14 0)
(3 -2.163284417e-14 0)
(3 -1.819177518e-14 0)
(3 -1.294875076e-14 0)
(3 -7.68874544e-15 0)
(3 -5.001787673e-15 0)
(3 -4.737962127e-15 0)
(3 -4.596066348e-15 0)
(3 -4.176988549e-15 0)
(3 -3.75825309e-15 0)
(3 -2.700693867e-15 0)
(3 -1.96967976e-15 0)
(3 -3.52778053e-15 0)
(3 -5.282239126e-15 0)
(3 -6.16618753e-15 0)
(3 -6.499323372e-15 0)
(3 -7.378625269e-15 0)
(3 -9.983871285e-15 0)
(3 -1.3147496e-14 0)
(3 -1.399533922e-14 0)
(3 -1.192786746e-14 0)
(3 -9.887047996e-15 0)
(3 -6.36813678e-15 0)
(3 -4.567777056e-15 0)
(3 -1.806582575e-15 0)
(3 1.021223649e-15 0)
(3 1.354173206e-15 0)
(3 3.008189645e-15 0)
(3 5.522901118e-15 0)
(3 6.915327632e-15 0)
(3 1.063089926e-14 0)
(3 1.606689676e-14 0)
(3 1.978002413e-14 0)
(3 2.18251935e-14 0)
(3 2.235934982e-14 0)
(3 2.296736347e-14 0)
(3 2.300438781e-14 0)
(3 2.416149558e-14 0)
(3 2.52014881e-14 0)
(3 2.468957999e-14 0)
(3 2.263690175e-14 0)
(3 2.081042211e-14 0)
(3 1.898653711e-14 0)
(3 1.480073422e-14 0)
(3 1.499102807e-14 0)
(3 1.291227731e-14 0)
(3 1.09162331e-14 0)
(3 8.267667507e-15 0)
(3 -9.064553723e-15 0)
(3 -1.045012953e-14 0)
(3 -1.395240388e-14 0)
(3 -1.751026355e-14 0)
(3 -1.959120986e-14 0)
(3 -1.942612631e-14 0)
(3 -1.919618738e-14 0)
(3 -1.887019549e-14 0)
(3 -1.928527101e-14 0)
(3 -2.087650022e-14 0)
(3 -2.532929021e-14 0)
(3 -2.620453022e-14 0)
(3 -2.642473328e-14 0)
(3 -2.651007396e-14 0)
(3 -2.669598095e-14 0)
(3 -2.703545619e-14 0)
(3 -2.727799642e-14 0)
(3 -2.518966001e-14 0)
(3 -2.373650308e-14 0)
(3 -2.164150637e-14 0)
(3 -2.116143274e-14 0)
(3 -1.859807865e-14 0)
(3 -1.670262368e-14 0)
(3 -1.407885362e-14 0)
(3 -1.322484609e-14 0)
(3 -1.325416939e-14 0)
(3 -1.197303983e-14 0)
(3 -1.017241318e-14 0)
(3 -7.326717735e-15 0)
(3 -4.05783263e-15 0)
(3 -2.767259918e-15 0)
(3 -3.359816836e-15 0)
(3 -4.226762845e-15 0)
(3 -6.08744024e-15 0)
(3 -6.838654217e-15 0)
(3 -7.828211887e-15 0)
(3 -8.161751146e-15 0)
(3 -7.901540938e-15 0)
(3 -8.601510349e-15 0)
(3 -8.416690183e-15 0)
(3 -7.480830978e-15 0)
(3 -5.550701692e-15 0)
(3 -5.196565712e-15 0)
(3 -5.461224792e-15 0)
(3 -5.17797214e-15 0)
(3 -4.212560566e-15 0)
(3 6.977014517e-16 0)
(3 1.952548042e-15 0)
(3 3.089448272e-15 0)
(3 6.041326679e-15 0)
(3 7.413115083e-15 0)
(3 9.585575245e-15 0)
(3 1.448254203e-14 0)
(3 1.683041774e-14 0)
(3 2.002850213e-14 0)
(3 2.431573533e-14 0)
(3 2.447495168e-14 0)
(3 2.375577106e-14 0)
(3 2.384637105e-14 0)
(3 2.494462668e-14 0)
(3 2.477588873e-14 0)
(3 2.194225083e-14 0)
(3 1.342588776e-14 0)
(3 1.097127203e-14 0)
(3 9.464932687e-15 0)
(3 6.113978894e-15 0)
(3 3.315458958e-15 0)
(3 -1.231125192e-14 0)
(3 -1.354320879e-14 0)
(3 -1.332761198e-14 0)
(3 -1.195926087e-14 0)
(3 -1.212559555e-14 0)
(3 -1.278302282e-14 0)
(3 -1.374406281e-14 0)
(3 -1.703600001e-14 0)
(3 -1.844506197e-14 0)
(3 -2.044032294e-14 0)
(3 -2.230869164e-14 0)
(3 -2.212200401e-14 0)
(3 -2.300421561e-14 0)
(3 -2.348822688e-14 0)
(3 -2.294142832e-14 0)
(3 -2.10355175e-14 0)
(3 -1.976862443e-14 0)
(3 -1.750938518e-14 0)
(3 -1.509874078e-14 0)
(3 -1.415405574e-14 0)
(3 -1.183568036e-14 0)
(3 -1.068437918e-14 0)
(3 -1.017492966e-14 0)
(3 -9.243812012e-15 0)
(3 -9.587130321e-15 0)
(3 -9.634875451e-15 0)
(3 -9.22181498e-15 0)
(3 -8.665153445e-15 0)
(3 -8.086106208e-15 0)
(3 -7.136744672e-15 0)
(3 -7.179857381e-15 0)
(3 -6.556795175e-15 0)
(3 -6.005805135e-15 0)
(3 -6.965775121e-15 0)
(3 -8.518160583e-15 0)
(3 -9.055833533e-15 0)
(3 -1.000897705e-14 0)
(3 -1.136957909e-14 0)
(3 -1.182525669e-14 0)
(3 -1.234942415e-14 0)
(3 -1.25536529e-14 0)
(3 -1.224093613e-14 0)
(3 -1.056457255e-14 0)
(3 -5.646095487e-15 0)
(3 -1.659265448e-15 0)
(3 -6.737536592e-16 0)
(3 -9.988625834e-16 0)
(3 5.619855657e-16 0)
(3 5.319356442e-16 0)
(3 6.524050481e-16 0)
(3 2.131508545e-15 0)
(3 3.565659969e-15 0)
(3 6.391288338e-15 0)
(3 1.01075592e-14 0)
(3 1.56808356e-14 0)
(3 2.144617412e-14 0)
(3 2.195093373e-14 0)
(3 2.061502113e-14 0)
(3 1.803118705e-14 0)
(3 1.584352803e-14 0)
(3 1.520746076e-14 0)
(3 1.295773024e-14 0)
(3 6.182221981e-15 0)
(3 4.073018203e-16 0)
(3 -6.985009843e-16 0)
(3 -6.212449714e-16 0)
(3 -1.087948528e-15 0)
(3 -1.53945081e-14 0)
(3 -1.351927729e-14 0)
(3 -1.09507068e-14 0)
(3 -6.019670291e-15 0)
(3 -8.766619216e-15 0)
(3 -1.056169548e-14 0)
(3 -1.424103635e-14 0)
(3 -1.485008694e-14 0)
(3 -1.55301165e-14 0)
(3 -1.605984326e-14 0)
(3 -1.544095005e-14 0)
(3 -1.559281201e-14 0)
(3 -1.579870187e-14 0)
(3 -1.550516796e-14 0)
(3 -1.515047472e-14 0)
(3 -1.366476248e-14 0)
(3 -1.16429782e-14 0)
(3 -9.475771125e-15 0)
(3 -6.865920434e-15 0)
(3 -6.212421627e-15 0)
(3 -4.91912127e-15 0)
(3 -3.705217347e-15 0)
(3 -2.520812393e-15 0)
(3 -2.662653051e-15 0)
(3 -2.485436386e-15 0)
(3 -2.506638927e-15 0)
(3 -2.48574001e-15 0)
(3 -2.967992691e-15 0)
(3 -3.460903804e-15 0)
(3 -3.787962484e-15 0)
(3 -4.582747988e-15 0)
(3 -4.605987438e-15 0)
(3 -5.17028707e-15 0)
(3 -5.915687449e-15 0)
(3 -8.003093969e-15 0)
(3 -1.007663947e-14 0)
(3 -1.084098982e-14 0)
(3 -1.254168559e-14 0)
(3 -1.333193451e-14 0)
(3 -1.362548512e-14 0)
(3 -1.297737229e-14 0)
(3 -1.276936646e-14 0)
(3 -1.057908187e-14 0)
(3 -7.593308012e-15 0)
(3 -4.389502804e-15 0)
(3 -3.312556283e-15 0)
(3 -4.030233483e-15 0)
(3 -4.649437315e-15 0)
(3 -4.988176152e-15 0)
(3 -5.649075694e-15 0)
(3 -4.600125606e-15 0)
(3 -1.881143504e-15 0)
(3 -9.282290009e-16 0)
(3 1.26228052e-15 0)
(3 2.514598531e-15 0)
(3 6.00241496e-15 0)
(3 1.052530223e-14 0)
(3 1.265070493e-14 0)
(3 1.106187861e-14 0)
(3 8.532467327e-15 0)
(3 7.582900521e-15 0)
(3 7.414045185e-15 0)
(3 4.368737229e-15 0)
(3 -2.688182997e-15 0)
(3 -4.41231686e-15 0)
(3 -3.949159407e-15 0)
(3 -2.393875638e-15 0)
(3 -7.170298834e-15 0)
(3 -5.222572187e-15 0)
(3 -3.39731811e-15 0)
(3 -4.008171941e-15 0)
(3 -8.348205283e-15 0)
(3 -9.49283687e-15 0)
(3 -7.799869316e-15 0)
(3 -7.044216345e-15 0)
(3 -6.505799701e-15 0)
(3 -7.03192766e-15 0)
(3 -8.202659121e-15 0)
(3 -7.498536625e-15 0)
(3 -4.263307483e-15 0)
(3 -3.650843874e-15 0)
(3 -4.854276525e-15 0)
(3 -4.64685454e-15 0)
(3 -1.759066639e-15 0)
(3 -1.945095842e-16 0)
(3 1.84617473e-16 0)
(3 1.829899493e-16 0)
(3 -3.407786736e-16 0)
(3 -3.936072559e-16 0)
(3 1.067947734e-16 0)
(3 1.671753549e-15 0)
(3 3.007849703e-15 0)
(3 3.290472984e-15 0)
(3 1.909572649e-15 0)
(3 4.96682354e-16 0)
(3 -5.894969324e-16 0)
(3 -1.301788723e-15 0)
(3 -2.14100216e-15 0)
(3 -4.732600477e-15 0)
(3 -6.681702423e-15 0)
(3 -7.759653628e-15 0)
(3 -8.739143826e-15 0)
(3 -9.940207417e-15 0)
(3 -1.216628886e-14 0)
(3 -1.305020878e-14 0)
(3 -1.391917186e-14 0)
(3 -1.374964341e-14 0)
(3 -1.304775007e-14 0)
(3 -1.288081123e-14 0)
(3 -1.267698911e-14 0)
(3 -1.284037274e-14 0)
(3 -1.320205986e-14 0)
(3 -1.33810421e-14 0)
(3 -1.341612355e-14 0)
(3 -1.303046507e-14 0)
(3 -1.288169499e-14 0)
(3 -1.202832138e-14 0)
(3 -1.163466607e-14 0)
(3 -9.594201274e-15 0)
(3 -8.704614069e-15 0)
(3 -6.569951672e-15 0)
(3 -5.779898882e-15 0)
(3 -4.741805072e-15 0)
(3 -3.213483247e-15 0)
(3 1.556924208e-17 0)
(3 2.654678724e-15 0)
(3 2.404760407e-15 0)
(3 1.722579526e-15 0)
(3 9.716384058e-16 0)
(3 -7.863341231e-16 0)
(3 -2.734593896e-15 0)
(3 -2.91884028e-15 0)
(3 -2.507821644e-15 0)
(3 -1.043590866e-15 0)
(3 8.914235587e-16 0)
(3 7.27244138e-16 0)
(3 2.275435494e-15 0)
(3 -1.110143181e-15 0)
(3 -2.857380524e-15 0)
(3 -2.229802913e-15 0)
(3 -1.498416397e-16 0)
(3 -6.255087779e-16 0)
(3 -1.927735154e-15 0)
(3 -3.893857573e-15 0)
(3 -3.121155318e-15 0)
(3 -2.136007577e-15 0)
(3 1.135189362e-15 0)
(3 2.377856866e-15 0)
(3 2.222590622e-15 0)
(3 -1.509505427e-16 0)
(3 1.168722964e-15 0)
(3 2.757039949e-15 0)
(3 2.513622585e-15 0)
(3 1.8162633e-15 0)
(3 -3.980075892e-16 0)
(3 -2.168790848e-15 0)
(3 -2.692308483e-15 0)
(3 -2.567150229e-15 0)
(3 -1.508522591e-15 0)
(3 2.553363158e-17 0)
(3 -1.825696322e-16 0)
(3 -2.214962723e-16 0)
(3 -6.430914278e-16 0)
(3 -3.125118672e-15 0)
(3 -5.001144235e-15 0)
(3 -8.140857577e-15 0)
(3 -1.0087675e-14 0)
(3 -1.047348225e-14 0)
(3 -1.005962993e-14 0)
(3 -1.112033053e-14 0)
(3 -1.248573063e-14 0)
(3 -1.441865769e-14 0)
(3 -1.43479224e-14 0)
(3 -1.425949844e-14 0)
(3 -1.43494415e-14 0)
(3 -1.412138847e-14 0)
(3 -1.569562218e-14 0)
(3 -1.921264693e-14 0)
(3 -2.028401885e-14 0)
(3 -2.080433505e-14 0)
(3 -2.148651651e-14 0)
(3 -2.05909934e-14 0)
(3 -1.883243141e-14 0)
(3 -1.677928315e-14 0)
(3 -1.558231776e-14 0)
(3 -1.616684335e-14 0)
(3 -1.675942975e-14 0)
(3 -1.554070919e-14 0)
(3 -1.452182104e-14 0)
(3 -1.481496688e-14 0)
(3 -1.267558189e-14 0)
(3 -1.066963625e-14 0)
(3 -9.231303521e-15 0)
(3 -9.580905196e-15 0)
(3 -7.221373858e-15 0)
(3 -7.124248128e-15 0)
(3 -6.887159053e-15 0)
(3 -5.631228831e-15 0)
(3 -3.771828809e-15 0)
(3 -2.11390518e-15 0)
(3 -1.121759844e-16 0)
(3 4.332088838e-15 0)
(3 3.26501948e-15 0)
(3 -7.954784043e-16 0)
(3 -4.734058653e-15 0)
(3 -4.521002189e-15 0)
(3 -2.297071125e-15 0)
(3 -1.871863395e-15 0)
(3 -1.177276938e-15 0)
(3 4.856386959e-16 0)
(3 1.112251631e-15 0)
(3 3.458461768e-15 0)
(3 3.041118756e-15 0)
(3 9.685182933e-16 0)
(3 -3.69580149e-17 0)
(3 2.2305792e-16 0)
(3 8.37336274e-16 0)
(3 -2.033226218e-15 0)
(3 -4.261318806e-15 0)
(3 -4.997374459e-15 0)
(3 -4.021757001e-15 0)
(3 -3.03170741e-15 0)
(3 -1.900999566e-15 0)
(3 -1.421700212e-15 0)
(3 -2.249181973e-15 0)
(3 -3.583228301e-15 0)
(3 -1.141583534e-15 0)
(3 2.460573567e-15 0)
(3 4.384917844e-15 0)
(3 3.717739405e-15 0)
(3 2.264567871e-15 0)
(3 4.235204348e-16 0)
(3 -1.004500555e-15 0)
(3 -4.291267865e-15 0)
(3 -6.73463976e-15 0)
(3 -9.063777888e-15 0)
(3 -7.511791149e-15 0)
(3 -7.549252551e-15 0)
(3 -7.448364981e-15 0)
(3 -8.391077628e-15 0)
(3 -9.325947244e-15 0)
(3 -1.101310822e-14 0)
(3 -1.465471336e-14 0)
(3 -1.950457847e-14 0)
(3 -2.244765809e-14 0)
(3 -2.182767631e-14 0)
(3 -2.108875379e-14 0)
(3 -2.087622656e-14 0)
(3 -2.064927253e-14 0)
(3 -2.186276202e-14 0)
(3 -2.333607187e-14 0)
(3 -2.490146355e-14 0)
(3 -2.522458021e-14 0)
(3 -2.450029127e-14 0)
(3 -2.434545489e-14 0)
(3 -2.456407882e-14 0)
(3 -2.448326116e-14 0)
(3 -2.333346425e-14 0)
(3 -2.337967724e-14 0)
(3 -2.133379495e-14 0)
(3 -1.960864944e-14 0)
(3 -1.696959898e-14 0)
(3 -1.135857653e-14 0)
(3 -1.042932696e-14 0)
(3 -9.543801951e-15 0)
(3 -6.780967723e-15 0)
(3 -5.125953335e-15 0)
(3 -4.78290449e-15 0)
(3 6.703689688e-15 0)
(3 4.994386602e-15 0)
(3 4.412343459e-15 0)
(3 3.172315672e-15 0)
(3 2.5542822e-15 0)
(3 -5.148771661e-17 0)
(3 -2.726259348e-16 0)
(3 -7.106655005e-16 0)
(3 1.028976008e-15 0)
(3 1.179195649e-15 0)
(3 9.885797467e-16 0)
(3 1.402512748e-15 0)
(3 3.629454325e-15 0)
(3 4.376702809e-15 0)
(3 4.035986839e-15 0)
(3 5.239259227e-15 0)
(3 3.492061059e-15 0)
(3 1.958267631e-15 0)
(3 1.515104201e-16 0)
(3 -1.184680797e-15 0)
(3 -2.414851621e-15 0)
(3 -3.805379879e-15 0)
(3 -4.231491399e-15 0)
(3 -4.008794441e-15 0)
(3 -2.807378711e-15 0)
(3 -2.102103358e-15 0)
(3 -1.378431125e-15 0)
(3 -4.618299255e-16 0)
(3 -3.736013749e-16 0)
(3 9.094721098e-16 0)
(3 4.475096902e-15 0)
(3 6.674727688e-15 0)
(3 5.261853126e-15 0)
(3 2.254387659e-15 0)
(3 1.981393624e-15 0)
(3 4.153616344e-15 0)
(3 5.17717671e-15 0)
(3 4.256895363e-15 0)
(3 2.241502418e-15 0)
(3 -5.941752493e-16 0)
(3 -3.567563411e-15 0)
(3 -1.135740278e-14 0)
(3 -1.667804951e-14 0)
(3 -1.850845279e-14 0)
(3 -1.74604208e-14 0)
(3 -1.715099369e-14 0)
(3 -1.824279268e-14 0)
(3 -1.913889136e-14 0)
(3 -2.315893493e-14 0)
(3 -2.993824941e-14 0)
(3 -3.051279213e-14 0)
(3 -2.981976141e-14 0)
(3 -2.843386752e-14 0)
(3 -2.767391543e-14 0)
(3 -2.688757234e-14 0)
(3 -2.634695992e-14 0)
(3 -2.661344718e-14 0)
(3 -2.456497384e-14 0)
(3 -2.312984984e-14 0)
(3 -2.138528532e-14 0)
(3 -1.997309111e-14 0)
(3 -1.801502471e-14 0)
(3 -1.796550292e-14 0)
(3 -1.715409077e-14 0)
(3 -1.309084558e-14 0)
(3 -1.150899065e-14 0)
(3 -1.059511193e-14 0)
(3 8.860068404e-15 0)
(3 6.159847904e-15 0)
(3 5.715273783e-15 0)
(3 4.947630749e-15 0)
(3 4.092993634e-15 0)
(3 2.775372122e-15 0)
(3 2.485269298e-15 0)
(3 3.204556546e-15 0)
(3 4.881265811e-15 0)
(3 6.552160607e-15 0)
(3 8.074939992e-15 0)
(3 8.769323296e-15 0)
(3 9.130852423e-15 0)
(3 9.13829701e-15 0)
(3 7.964930417e-15 0)
(3 6.245909385e-15 0)
(3 5.111724391e-15 0)
(3 4.118460592e-15 0)
(3 4.074015584e-15 0)
(3 3.884073393e-15 0)
(3 2.005756883e-15 0)
(3 5.25786469e-16 0)
(3 3.442230155e-16 0)
(3 1.946588219e-16 0)
(3 -1.617905867e-15 0)
(3 -3.433133355e-15 0)
(3 -3.633336026e-15 0)
(3 -2.768486804e-15 0)
(3 3.42905232e-18 0)
(3 3.212511593e-15 0)
(3 6.044327362e-15 0)
(3 8.067771833e-15 0)
(3 8.450252387e-15 0)
(3 8.910759485e-15 0)
(3 1.060109289e-14 0)
(3 8.420111335e-15 0)
(3 5.230759105e-15 0)
(3 3.238008163e-15 0)
(3 1.713507998e-15 0)
(3 3.088631669e-16 0)
(3 -8.389517175e-16 0)
(3 -2.479560567e-15 0)
(3 -4.043565512e-15 0)
(3 -6.623029812e-15 0)
(3 -9.34388569e-15 0)
(3 -1.215551644e-14 0)
(3 -1.592236807e-14 0)
(3 -1.817831176e-14 0)
(3 -2.036577747e-14 0)
(3 -2.375166669e-14 0)
(3 -2.510547206e-14 0)
(3 -2.445669492e-14 0)
(3 -2.396213484e-14 0)
(3 -2.751536892e-14 0)
(3 -2.942328886e-14 0)
(3 -3.110044895e-14 0)
(3 -2.93607436e-14 0)
(3 -2.825607442e-14 0)
(3 -2.629041876e-14 0)
(3 -2.452441372e-14 0)
(3 -2.340275612e-14 0)
(3 -2.434115507e-14 0)
(3 -2.539085155e-14 0)
(3 -2.534786012e-14 0)
(3 -2.449463275e-14 0)
(3 -2.410488517e-14 0)
(3 -2.132089772e-14 0)
(3 3.333742345e-15 0)
(3 3.126380973e-15 0)
(3 9.791187645e-16 0)
(3 6.06705797e-16 0)
(3 7.232325543e-16 0)
(3 1.30013974e-15 0)
(3 2.239532271e-15 0)
(3 4.062313533e-15 0)
(3 8.212514778e-15 0)
(3 1.231732839e-14 0)
(3 1.381936181e-14 0)
(3 1.437323178e-14 0)
(3 1.197060553e-14 0)
(3 1.116617416e-14 0)
(3 9.657318991e-15 0)
(3 6.061620319e-15 0)
(3 2.825908868e-15 0)
(3 1.396566478e-15 0)
(3 6.147437549e-16 0)
(3 1.777876959e-15 0)
(3 2.414966423e-15 0)
(3 2.537616619e-15 0)
(3 2.780558391e-15 0)
(3 2.243829168e-15 0)
(3 7.278607521e-16 0)
(3 -2.858367744e-16 0)
(3 -7.332430973e-16 0)
(3 -4.712262545e-16 0)
(3 -3.62685412e-16 0)
(3 3.832087345e-16 0)
(3 1.373642353e-15 0)
(3 1.97692458e-15 0)
(3 3.047030827e-15 0)
(3 7.739257398e-15 0)
(3 1.011258391e-14 0)
(3 1.059167409e-14 0)
(3 8.959835992e-15 0)