/*--------------------------------*- C++ -*----------------------------------*\
  =========                 |
  \\      /  F ield         | OpenFOAM: The Open Source CFD Toolbox
   \\    /   O peration     | Website:  https://openfoam.org
    \\  /    A nd           | Version:  7
     \\/     M anipulation  |
\*---------------------------------------------------------------------------*/
FoamFile
{
    version     2.0;
    format      ascii;
    class       volScalarField;
    location    "0.2";
    object      T;
}
// * * * * * * * * * * * * * * * * * * * * * * * * * * * * * * * * * * * * * //

dimensions      [0 0 0 1 0 0 0];

internalField   nonuniform List<scalar> 
22
(
0.9695019304
0.920480442
0.9325531874
0.9845051465
0.9228162759
0.9386546079
1.002292158
0.9255251958
0.9469842979
1.0184545
0.9283244381
0.9574516764
1.031218905
0.9325758031
0.9699531313
1.041863505
0.940783455
0.9852836744
0.9499088812
1.001578603
0.9468872709
1.023465331
)
;

boundaryField
{
    inlet
    {
        type            fixedValue;
        value           nonuniform 0();
    }
    outlet
    {
        type            inletOutlet;
        inletValue      nonuniform 0();
        value           nonuniform 0();
    }
    bottom
    {
        type            slip;
    }
    top
    {
        type            slip;
    }
    obstacle
    {
        type            zeroGradient;
    }
    defaultFaces
    {
        type            empty;
    }
    procBoundary15to9
    {
        type            processor;
        value           nonuniform List<scalar> 4(0.9498802328 0.9161106554 0.9264070378 0.9264070378);
    }
    procBoundary15to10
    {
        type            processor;
        value           nonuniform List<scalar> 3(1.029992041 1.039592623 1.045830623);
    }
    procBoundary15to16
    {
        type            processor;
        value           nonuniform List<scalar> 7(1.04839262 1.049172287 1.049114241 1.049309765 1.049309765 1.052246657 1.059273641);
    }
    procBoundary15to21
    {
        type            processor;
        value           nonuniform List<scalar> 2(0.9472778527 1.027680782);
    }
}


// ************************************************************************* //
