/*--------------------------------*- C++ -*----------------------------------*\
  =========                 |
  \\      /  F ield         | OpenFOAM: The Open Source CFD Toolbox
   \\    /   O peration     | Website:  https://openfoam.org
    \\  /    A nd           | Version:  7
     \\/     M anipulation  |
\*---------------------------------------------------------------------------*/
FoamFile
{
    version     2.0;
    format      ascii;
    class       volScalarField;
    location    "2.3";
    object      T;
}
// * * * * * * * * * * * * * * * * * * * * * * * * * * * * * * * * * * * * * //

dimensions      [0 0 0 1 0 0 0];

internalField   nonuniform List<scalar> 
2222
(
0.690432086
0.7374544176
0.9887971085
1.081446495
1.090105439
0.7014332862
0.7005132404
0.6997774559
0.6988258682
0.6974292911
0.6958359692
0.694461597
0.6939135781
0.6929490487
0.6899149134
0.6876697798
0.6867830886
0.6869328532
0.6873350573
0.6880749907
0.6887707701
0.6895770584
0.69024914
0.6904577725
0.6906355359
0.6907139373
0.6907052229
0.690732714
0.6907063827
0.6906097628
0.6906354204
0.6906303396
0.6905644869
0.690463816
0.6902818681
0.6962950379
0.9270835478
1.056554895
1.089888439
0.7006403038
0.7002263592
0.6994919837
0.6984242309
0.6968830649
0.6952046909
0.6937959232
0.6932182458
0.6926197518
0.6898221049
0.6875269397
0.6866917821
0.6868283092
0.687290081
0.6880531228
0.6887273412
0.6894727334
0.6901503862
0.6904390085
0.6905905617
0.6906996225
0.6907027877
0.6906623698
0.6906740531
0.6905632479
0.6905554793
0.6905399764
0.6904959935
0.6904335187
0.6902750332
0.6909450767
0.8244612845
1.033418037
1.083881785
0.7000292582
0.7001460779
0.6994261097
0.6983356508
0.6967630459
0.6950589125
0.6936166357
0.6929900119
0.6923837446
0.6897324218
0.6873771107
0.6865956708
0.6867292231
0.687252492
0.6880506145
0.6887266098
0.6894333276
0.6900624693
0.6903707888
0.6905498073
0.6906493949
0.690674423
0.6905978383
0.6906048277
0.6905266831
0.6904925004
0.6904314177
0.6904241635
0.6903766292
0.6902572324
0.6900738327
0.7325238075
1.007826316
1.069219519
0.6997775611
0.700269571
0.699798631
0.6986867946
0.6969649765
0.6951420585
0.6936226687
0.6929579924
0.6923577134
0.6896500833
0.6872106847
0.6864926546
0.6866210043
0.6872041948
0.6880753278
0.688779855
0.6894200226
0.6900178805
0.6903472222
0.6905293297
0.6906244718
0.6906590726
0.6905877694
0.6905206839
0.6904880711
0.6904539753
0.6903586686
0.6903319506
0.6903091337
0.6902245791
0.6900865261
0.6954335839
0.915260906
1.056133898
0.6997265882
0.7008833391
0.7005223513
0.6994761856
0.6978455152
0.6959600729
0.694297663
0.6933194124
0.6926707086
0.6900198057
0.6870773946
0.6863815013
0.6865125084
0.687156543
0.6881302651
0.6888604596
0.6894797257
0.6900262316
0.6903372191
0.6904837464
0.6906068976
0.6906460995
0.690569514
0.6904362264
0.6904761197
0.6904482083
0.6903317771
0.6902482301
0.6902472258
0.6902124254
0.6900710937
0.6901431388
0.8046412916
1.05165835
1.076604237
0.6999802283
0.7012475559
0.7007651995
0.6997826539
0.6983318563
0.6965937396
0.6949535106
0.6940603071
0.6931873749
0.690900311
0.6868826597
0.6861397948
0.6863648445
0.6870668969
0.6881046443
0.6889001838
0.6895018688
0.6900431122
0.690298045
0.6904082848
0.6904995637
0.6905992944
0.6905582459
0.6903867869
0.690453457
0.6904166893
0.6903156501
0.6901773252
0.6901400539
0.6901067908
0.6900091213
0.6899509943
0.7344177556
1.009269828
1.072636257
0.7004724885
0.7012884688
0.7007797432
0.6998029703
0.6983835251
0.6966779351
0.6950458237
0.6943011573
0.6934760783
0.6913015291
0.6868370393
0.6858953253
0.6862161819
0.6869951363
0.6880041365
0.6889093761
0.6894875209
0.6899981739
0.6902956439
0.6903891004
0.6904290547
0.690488471
0.6905016669
0.6903712998
0.6903664052
0.6903360786
0.6902946539
0.6901388132
0.690071538
0.6899881701
0.689930996
0.6898527221
0.6942398556
0.9052161172
1.072556581
0.7007340183
0.7012935391
0.7006706189
0.6997025861
0.6983056675
0.6966267499
0.6950004236
0.6943187214
0.6935433769
0.6913752594
0.6867508038
0.6857275398
0.6861056462
0.6869446136
0.687970959
0.6888652914
0.6894570044
0.6900054188
0.6902960354
0.6903716041
0.6903807163
0.6903944517
0.6904462627
0.6903630062
0.6902949718
0.6903028116
0.6902738673
0.6901110607
0.6900334843
0.6899335274
0.6898196354
0.68973386
0.690090007
0.813860872
1.05628385
0.7007736491
0.7010077754
0.6998951538
0.6988841457
0.6975303402
0.6960292699
0.6947052569
0.6942895875
0.6935368301
0.6913452519
0.686582499
0.6855854316
0.6860001792
0.6868833986
0.6879465172
0.6887600877
0.6893581477
0.6899830271
0.690282575
0.6903762491
0.6903649558
0.6903334473
0.6904029774
0.6903269409
0.6901777016
0.6901711815
0.6902354737
0.6901177645
0.6899963842
0.6898958342
0.6897649027
0.6896592001
0.6897722515
0.7359579685
0.9950912667
0.7007244489
0.7002373918
0.6992130446
0.6980983982
0.6966184089
0.6950357006
0.6938036801
0.6939565384
0.6934977425
0.6913044718
0.6863950006
0.6854613707
0.685907012
0.6868344421
0.6879206513
0.688670755
0.6892292115
0.6898583381
0.6902293628
0.6903562713
0.6903517
0.6902931104
0.6903537626
0.6903113214
0.6901095522
0.6900534131
0.690154243
0.6900985131
0.689990674
0.6899024926
0.689735755
0.6895984239
0.6895114423
0.6949185761
0.9168857994
0.7003649294
0.6997754636
0.6989026756
0.6977481336
0.6962542276
0.6946051444
0.6932422672
0.6930075039
0.6933750614
0.6912939166
0.6862934157
0.6853227637
0.6857854074
0.6867689402
0.6878492222
0.6886268232
0.6891635967
0.6897152647
0.6901465564
0.6903353134
0.6903264965
0.6902616748
0.6902481045
0.6902600178
0.690040311
0.6899537652
0.6900080897
0.6900446452
0.6899598672
0.6898833472
0.6897147185
0.6895559582
0.6894823223
0.6904199661
0.8316886158
0.6997838455
0.6995736763
0.6987570623
0.6976069892
0.6961339956
0.6944941962
0.6930368223
0.6923355837
0.6927147568
0.6913148762
0.686116667
0.6851375038
0.6856632263
0.686704139
0.6877872578
0.6886086514
0.6891368948
0.689640703
0.6900017323
0.6902188299
0.6902383247
0.690214865
0.6901690039
0.6901613256
0.6899861083
0.689883567
0.6898995665
0.689914524
0.6898729502
0.689837079
0.6896996643
0.6895230073
0.6894268799
0.6894608822
0.7417189028
0.6993329846
0.6994714234
0.6987161097
0.6976797558
0.6962143582
0.694505701
0.6929717905
0.6920043743
0.6919849367
0.6914471086
0.6860822454
0.6849563383
0.6855304907
0.6866415462
0.6877555463
0.6885847915
0.689138103
0.6895963122
0.6899138606
0.6900903283
0.6901788273
0.6901814332
0.6901280588
0.6900220996
0.6899321811
0.6898144791
0.6898253765
0.6897991001
0.6897708863
0.6897320578
0.6896446952
0.6894643389
0.6893812244
0.6893268674
0.6983792766
0.9413393666
0.6990772932
0.6994574637
0.6992423833
0.6986597054
0.6972468009
0.6954027797
0.6934064472
0.6918569095
0.6917451574
0.6918174734
0.6861974756
0.6847586119
0.6854067321
0.6865871499
0.6877352356
0.6886467273
0.6891632729
0.6895762926
0.6898573735
0.6899872549
0.6900373451
0.6901069773
0.6900668913
0.6899340817
0.6898958878
0.6897613056
0.6897616356
0.6896939106
0.6896565459
0.6896423473
0.6895966009
0.689437084
0.6893437031
0.6893069377
0.6906773011
0.8475193605
0.6989630385
0.6995520335
0.7001998835
0.6994534529
0.6981276387
0.6964856003
0.6945231165
0.691853638
0.6916795626
0.6921212492
0.6862705346
0.6845520597
0.685303144
0.6865346947
0.687685872
0.6886928353
0.6892210622
0.6895268947
0.6898007364
0.6899252976
0.6899497299
0.6900646232
0.6900386683
0.6898920689
0.6898625979
0.6896878222
0.689687577
0.6896051786
0.6895223217
0.6894985992
0.6895038223
0.6894133659
0.689275516
0.689220175
0.6891399658
0.7538074029
0.698948909
0.700209426
0.7004386292
0.6995285432
0.6982069696
0.6966518731
0.6949429143
0.6925408502
0.6916387124
0.6921433932
0.6860520572
0.6843684096
0.6852139982
0.68649323
0.6876262682
0.6887013165
0.6892249662
0.6896132046
0.6897568109
0.6898740253
0.6898752303
0.6899205278
0.689982143
0.6898633491
0.6898051227
0.6896309176
0.6896477793
0.6895574171
0.6894607402
0.6894189024
0.689375231
0.6893346875
0.6892241204
0.6891882523
0.6891358191
0.7047716807
0.6990002836
0.7007241892
0.700093788
0.6989243629
0.6975367382
0.6961353472
0.6948893676
0.6933022152
0.6917081412
0.6921332576
0.6855935166
0.6842300555
0.685157254
0.6864736089
0.6875833219
0.6885967627
0.6891723528
0.6896964043
0.689872937
0.6898545377
0.6898388521
0.6898288087
0.6899446227
0.6898697351
0.6897251239
0.6896114377
0.6896294905
0.6895320908
0.6894288687
0.6893891777
0.6893367597
0.6892576589
0.6891992376
0.6891699686
0.6891029258
0.6904546308
0.6992239755
0.7007257881
0.6991944789
0.698026187
0.6965030243
0.6949662326
0.6940299943
0.6934099033
0.6920766852
0.6923809512
0.6852677826
0.684190045
0.6851540061
0.6866587883
0.6877394816
0.6885461445
0.6891557151
0.689715311
0.690076575
0.6900974603
0.6899198796
0.6898372058
0.6899905971
0.6900549183
0.6897025767
0.6897029596
0.689777838
0.6897381424
0.6895079298
0.6894392081
0.6893596351
0.6892483522
0.6892678573
0.6892775922
0.689236739
0.6892469916
0.6996961791
0.700219517
0.6988848257
0.6977171998
0.6961563144
0.6945391022
0.6935342092
0.692968101
0.6925862412
0.6930761497
0.6853197602
0.6845067614
0.6856105809
0.6872818448
0.6883905408
0.6890177826
0.6897549711
0.6901557712
0.6906203189
0.6909613595
0.6909784716
0.690746239
0.6904950206
0.690519799
0.6903489635
0.6903525509
0.6903564353
0.6904283088
0.6903594678
0.6903152833
0.6902496352
0.6900129469
0.6898491845
0.6898428404
0.6899133684
0.6900962879
0.7010197208
0.7003481272
0.7000306972
0.6997340135
0.6982771218
0.6963900188
0.6948649179
0.6941751927
0.6970708163
0.6969993023
0.6899804153
0.6886258978
0.6896520586
0.6906404267
0.6915724982
0.6924077096
0.6927638688
0.6928516569
0.6928281909
0.6926598177
0.6924892109
0.6924366754
0.6923605681
0.6921852788
0.6919720598
0.6917537369
0.6916979856
0.6915849003
0.6914026613
0.6913204241
0.6912802703
0.6912089077
0.6910732284
0.6910126543
0.6909052722
0.6908118105
0.7213269823
0.7227421521
0.7211792956
0.7181313371
0.7139524627
0.7097268999
0.7057723882
0.7021271422
0.7016172402
0.7017431518
0.6935007781
0.6918270084
0.6924341216
0.6932850176
0.6939756391
0.6944028122
0.6946085249
0.6946203256
0.6945584424
0.6943993148
0.6940834159
0.6937017773
0.6935539273
0.6933920719
0.6930488952
0.6927472833
0.6927233982
0.6925256634
0.6924072226
0.6922656605
0.6921838438
0.6919057045
0.6917410835
0.6916104903
0.6916719836
0.6916365622
0.779437038
0.7717088909
0.7640853272
0.7566580665
0.7492556126
0.7425499717
0.7361325938
0.7313421228
0.7262711274
0.7163265523
0.7105821779
0.7090510894
0.7087243886
0.7083935294
0.7079244828
0.707339481
0.7066637577
0.705877954
0.7050585653
0.7042521397
0.7034419886
0.7026176248
0.7019084727
0.7013006066
0.7006426735
0.700056585
0.6996072935
0.6992285244
0.6987576056
0.6983397214
0.6979829088
0.6976220957
0.6972737655
0.6969731949
0.6967235092
0.6964773138
0.6965144105
0.7818378644
0.7806261681
0.7787823599
0.7760151627
0.7731400981
0.7700580725
0.7669236572
0.7633289196
0.7595287115
0.7568710726
0.7548435895
0.7525209717
0.7497297677
0.7466718086
0.7435294216
0.7404443199
0.737503136
0.7347243268
0.7321025878
0.7296814678
0.7274735221
0.7254283814
0.7235114752
0.7218266527
0.7203099222
0.7188956257
0.7176144506
0.7164723838
0.7153238334
0.7142348168
0.7132156167
0.7123262403
0.7115190433
0.7107376568
0.710096518
0.7094459832
0.7087220272
0.7782591792
0.7773508685
0.776541446
0.7759036699
0.7753353633
0.7747699545
0.774096909
0.7733449789
0.7724696609
0.7713347912
0.7698346367
0.7679964104
0.765899957
0.76359778
0.761115987
0.7585201822
0.7559103665
0.7533419471
0.7508499742
0.7484450956
0.7461174211
0.7439089596
0.7418321426
0.7398723307
0.7381123018
0.7364313295
0.7347459743
0.7331761719
0.7317204359
0.73026642
0.7288584388
0.7276435341
0.7265535176
0.7255090738
0.7244195873
0.7234411365
0.7224024767
0.7755313513
0.7749802405
0.7744970824
0.774209606
0.7740839854
0.7740373776
0.7740418129
0.7739884911
0.7739721919
0.7739279822
0.7738134609
0.773564864
0.7731618104
0.7725698347
0.771756804
0.7707300027
0.769531864
0.7681606972
0.7665911054
0.7648422351
0.7629679516
0.7609959863
0.758999337
0.7569892189
0.7550059267
0.7530594827
0.7510757555
0.7490732986
0.7471931707
0.7453642569
0.7436204951
0.7419985284
0.7404934131
0.7390079772
0.7376863139
0.7362408754
0.7348339544
0.7744372181
0.7740608017
0.7737685832
0.77370708
0.7737572011
0.7738695334
0.7739932005
0.7740404575
0.7740662032
0.7740200745
0.7739279168
0.773820771
0.7737296301
0.7736060436
0.7734441537
0.773232231
0.7729843216
0.7726661083
0.7722053392
0.7715713878
0.7707753788
0.7698192953
0.7686817327
0.7673830281
0.7659412919
0.7643819538
0.762696463
0.7609079598
0.7591547579
0.7574391164
0.7557243768
0.7540893751
0.7524447478
0.7509124461
0.7493559381
0.7477798832
0.7465877696
0.7745471204
0.7744206088
0.774384489
0.7743654393
0.7743478662
0.7743323122
0.7742803478
0.7742354295
0.7741344629
0.7740072023
0.7739200248
0.7738739553
0.7738017663
0.7736912479
0.7736022398
0.773506352
0.773432893
0.7733713697
0.7732977328
0.7731977706
0.7730854149
0.7729513609
0.7727328972
0.7723788746
0.7718771555
0.7712449658
0.7704707608
0.7695297099
0.7685330193
0.767483637
0.7662964583
0.7649298443
0.7635135591
0.7620337587
0.7604636179
0.7590904773
0.7575567762
0.7748591893
0.7749258987
0.7750504222
0.7750703748
0.7750287378
0.7749318259
0.7747951654
0.7746602014
0.7745137251
0.774368753
0.774208207
0.7739958088
0.7737314458
0.7735957713
0.7735868307
0.7735620544
0.7735216386
0.7734508724
0.7734521555
0.7734815748
0.7735061025
0.7735684186
0.773580452
0.7735146749
0.7733506103
0.7731623042
0.7729591651
0.7727051224
0.7724006141
0.7720882195
0.7716100684
0.7709045124
0.7700264244
0.7690276759
0.7680315795
0.7669309496
0.7657687782
0.7748413657
0.7750749783
0.7751741724
0.7751804138
0.7751376382
0.7750739956
0.7750024805
0.7749511722
0.7748733988
0.774773924
0.7746003966
0.7743412403
0.7741085916
0.7740195671
0.7740192326
0.7739793875
0.7738496723
0.7736737423
0.7736408858
0.7736421428
0.7736847866
0.7737959693
0.7738309988
0.773783728
0.7736399402
0.773452542
0.7733819349
0.7733823772
0.7734076857
0.7734022975
0.7733382588
0.7731511477
0.7728637776
0.7725345785
0.7721622814
0.7717410527
0.7712352495
0.774398682
0.7745842962
0.7745529243
0.7745920149
0.7745704202
0.7745375722
0.7745715399
0.7746188598
0.7745996171
0.77449202
0.7742739119
0.7741115021
0.7741862337
0.7743275571
0.7743857144
0.7743672955
0.7742688552
0.7741184423
0.7741087645
0.7741383249
0.7741284848
0.7740542452
0.7739616267
0.7739023811
0.7738182542
0.7737680273
0.7737849339
0.7737916243
0.77378338
0.7737369331
0.7736972421
0.7736162117
0.7735286781
0.7734549304
0.7733474404
0.7732252082
0.773071141
0.7711662527
0.7714243562
0.7718847121
0.7725525789
0.7732105685
0.7735157221
0.7738281862
0.7740330977
0.773975073
0.7738799674
0.773935503
0.7741127766
0.7743435547
0.7744575515
0.7743748968
0.7742576052
0.774207383
0.7743152177
0.7744724085
0.7745449146
0.7744772563
0.7742781113
0.7741729857
0.7741451378
0.7741446106
0.7742103294
0.7742304711
0.7742028855
0.7741002885
0.7739195484
0.7737581582
0.773728823
0.7737985305
0.7738553067
0.7738369367
0.7737477566
0.7735971126
0.7672707301
0.76787186
0.7688567966
0.7696017236
0.77039742
0.7709095462
0.7710901314
0.7714816794
0.771949609
0.7723811887
0.7729542759
0.7736849673
0.7737755817
0.7736314728
0.7735255699
0.7736220948
0.773988224
0.774353916
0.7745324735
0.7745375426
0.7744197131
0.7741618698
0.7740778273
0.7741259014
0.7742564398
0.7744642608
0.7745194587
0.7745001033
0.7743992845
0.7741735972
0.7740517845
0.7740842893
0.7741521637
0.7741514593
0.774097815
0.7739611475
0.7738694421
0.7653112265
0.7658695477
0.766292159
0.7664220899
0.7665597681
0.7668754087
0.7672238756
0.767640852
0.7682923708
0.769101673
0.7697614864
0.7704034746
0.7710229966
0.7715322609
0.7719874453
0.7725491896
0.7731723718
0.7737356752
0.773935906
0.7739722349
0.7739809281
0.7737926834
0.7736788309
0.7738085535
0.7741594151
0.7744519885
0.7745143366
0.7744974508
0.7743174896
0.7741062447
0.7741351131
0.7742639053
0.7743348921
0.7743337778
0.7742640977
0.7741813353
0.7740858557
0.7671751223
0.7674164198
0.7670772347
0.766348192
0.7661501494
0.7662468492
0.7662650234
0.7662784514
0.7663687566
0.76662449
0.7668055853
0.767113962
0.7676592311
0.7683927506
0.7690808225
0.7696757515
0.7701331016
0.7704733535
0.7709695845
0.7715406134
0.7721572845
0.772882667
0.7734672238
0.7736684462
0.7738470105
0.7738523139
0.7737805717
0.7738015919
0.7739050229
0.7740967905
0.7742507427
0.7743531152
0.7743286537
0.7741929362
0.7739741294
0.7739859055
0.7740992208
0.7695771029
0.7682428723
0.7670441446
0.7663276668
0.7663066867
0.7666729338
0.7666222928
0.7664559193
0.7666325148
0.7664806973
0.766230356
0.7662127713
0.7663142872
0.766643545
0.7670080514
0.7671041488
0.7671648211
0.7673585393
0.7677849416
0.7684308763
0.7692385679
0.7701152914
0.770842196
0.7711784849
0.7714304582
0.7717732276
0.7721358046
0.7725100491
0.7731483334
0.7738165102
0.7739999577
0.7739506831
0.7738667087
0.7736871375
0.7736961073
0.7738333715
0.7741008408
0.7748954875
0.7742378214
0.7736680603
0.7716109164
0.7702412652
0.7705515483
0.7702949059
0.7690512216
0.7680784523
0.7675783845
0.7669223013
0.7664050635
0.7665966863
0.7673096247
0.7675246365
0.7672304871
0.7669648238
0.7667826034
0.7667237193
0.7667796762
0.7670444119
0.767478838
0.7678066115
0.7680363607
0.7683720502
0.7689432929
0.7696143833
0.7702689548
0.7707519645
0.7711703953
0.7715661956
0.7718608932
0.772277851
0.7728850635
0.7734819034
0.7737402205
0.7737903254
0.790064768
0.7863775615
0.7841125716
0.781358651
0.77731312
0.7746148711
0.7740267206
0.7725978055
0.7704835084
0.7710184618
0.7712338852
0.7701921938
0.7688775825
0.7684492475
0.7680699792
0.767378952
0.7674188949
0.7678517535
0.7677093443
0.7671511575
0.7671447536
0.7672310386
0.7672156708
0.7671558958
0.7672161795
0.7674020589
0.7676069633
0.7677350472
0.7678892122
0.7681939172
0.7686547826
0.7691227562
0.7696662385
0.7703068522
0.7709875803
0.7715055647
0.7718178377
0.8026787692
0.7969743221
0.7939771807
0.7932799415
0.7902936732
0.7845859345
0.7840794783
0.7837593679
0.7810171506
0.7785899436
0.7778157155
0.7763527966
0.7736853421
0.7721527296
0.7716173679
0.7706947688
0.7701202515
0.7703276708
0.7701071036
0.7690942792
0.7680228691
0.7676511329
0.76747492
0.7672300449
0.7673827847
0.7678393782
0.7679045273
0.7676970862
0.7675751708
0.7675428047
0.7675518555
0.7675576704
0.7676462891
0.7678450505
0.7681462928
0.7685323709
0.7689980223
0.8194624968
0.8152967494
0.8100167461
0.8075364459
0.8047828708
0.7991030779
0.7944487552
0.793111062
0.7907345783
0.7853820041
0.7841650341
0.7840246806
0.7816427676
0.7790553193
0.7789856469
0.778155149
0.775453311
0.7733867323
0.7730610679
0.7721383453
0.7708787166
0.7711112981
0.7711013012
0.7701657109
0.7689621234
0.7685763011
0.7683025891
0.7677893079
0.7676996447
0.7680556656
0.768228654
0.7679506939
0.7676144194
0.7676083178
0.7676182264
0.7676089598
0.7676180821
0.833940747
0.8293674183
0.8227339332
0.8180093406
0.8167002746
0.813589862
0.8065996264
0.804500348
0.8038221805
0.8002419384
0.7961377944
0.7952248058
0.7933263286
0.7888468709
0.785914466
0.7853927607
0.7837586675
0.780358368
0.7800108062
0.7795875329
0.7773795742
0.7753208731
0.7747420605
0.7741590713
0.7724213065
0.7715149757
0.7711220641
0.7702011074
0.7695046694
0.7695469456
0.7696677097
0.769267989
0.7685905253
0.7684363886
0.768262602
0.7678059442
0.7676211767
0.849159163
0.8450371604
0.8396842325
0.8329573591
0.8307177393
0.8284517898
0.8224965217
0.8167881546
0.8150012264
0.8121686452
0.8062123785
0.8032767187
0.8025401378
0.7994937837
0.7945446812
0.7940753292
0.7934469778
0.7905329467
0.7875887423
0.7866942896
0.7850939744
0.7810605438
0.7797777471
0.7800136431
0.7792401108
0.7775218931
0.7767449416
0.7759252501
0.7741916659
0.7719839389
0.7715781383
0.771270227
0.7708298087
0.7707634
0.7707106587
0.770137457
0.7688002093
0.8640976467
0.8591157832
0.8547118653
0.846900824
0.8408364819
0.8390979553
0.8358333855
0.8289656849
0.8258574344
0.8244095885
0.8199467028
0.8147562718
0.8141902175
0.8127142358
0.8079596534
0.8040748909
0.8025467442
0.7998942884
0.7952509877
0.7945041881
0.7942274422
0.7918313034
0.7886612176
0.7874191999
0.7860999686
0.7830687562
0.7807630519
0.7808277482
0.7803686649
0.7783725147
0.7770580695
0.7765528755
0.7752240723
0.7733483189
0.7729744613
0.7729548251
0.772516914
0.8794453632
0.8727332857
0.8689093198
0.8633290908
0.8547612563
0.851888954
0.8498660216
0.8441751179
0.8381464186
0.8360542674
0.8328590573
0.8263346347
0.8227327018
0.8215020269
0.8181296237
0.81261091
0.8114474743
0.810542597
0.8068318533
0.8032657459
0.8024022359
0.800789479
0.7967655392
0.7944233902
0.7939416952
0.7921037109
0.7886194629
0.7879062127
0.7875143922
0.7856987639
0.7832119534
0.7822096902
0.7815913289
0.7793185461
0.7769123417
0.7767297818
0.7765182482
0.8948304347
0.8867470363
0.8816203684
0.877770395
0.870038473
0.862657522
0.860184973
0.8564458351
0.8492918067
0.8457967337
0.8441593516
0.8395672899
0.8330991132
0.8319242174
0.8305672063
0.8257255457
0.8217790792
0.8205990616
0.8180039103
0.8126545136
0.8101733144
0.8094543196
0.8067308547
0.8026880489
0.8021606501
0.80129364
0.7982147716
0.7949229779
0.7937803841
0.7924071465
0.7889415813
0.7876939272
0.7879377306
0.7871795699
0.7849515921
0.7832512883
0.7821995436
0.9096144832
0.9019351115
0.8940892251
0.8903241547
0.885373515
0.8763903125
0.8718557663
0.8694734232
0.8638626535
0.8576291109
0.8553869928
0.8522161616
0.8454384404
0.841151714
0.8397395926
0.8363439352
0.8302090781
0.8279578087
0.8268885118
0.8232995117
0.8190320543
0.8182900234
0.8168986773
0.8125840893
0.809061336
0.8083012427
0.8066790445
0.802701102
0.80131376
0.8010415387
0.7990199909
0.7955215175
0.7940554601
0.793227614
0.7910528971
0.7886209611
0.7882199476
0.9236888616
0.9170399006
0.9080676034
0.9018735878
0.8982940333
0.8914533507
0.8833112019
0.8800347436
0.8760485434
0.8685686845
0.8642001238
0.8622801039
0.8578872615
0.8510568558
0.8489675537
0.8473777729
0.8425807925
0.8380278935
0.8369277808
0.834644258
0.8293157643
0.8260412776
0.8249713942
0.8224140146
0.8176415075
0.8162976243
0.8155750636
0.8126533141
0.8086770031
0.8076090858
0.8066352078
0.8034960042
0.8003545845
0.7999079242
0.7988441717
0.7956215727
0.7941319104
0.9373454637
0.9308555835
0.9233241769
0.9142340085
0.9095965113
0.905157544
0.8968549544
0.8909496171
0.888027068
0.8823506612
0.8753807035
0.8729841382
0.8701626065
0.8636771384
0.8585788135
0.8567862738
0.8533728512
0.8471409499
0.844177956
0.8427641763
0.8389880746
0.8337577504
0.8327941809
0.8317233734
0.8279723837
0.8241506221
0.8229847024
0.8211985475
0.8167717152
0.8141346108
0.8138813091
0.812521547
0.8089215608
0.8072099334
0.8064973935
0.804347116
0.8006013118
0.9509999233
0.9435274659
0.9373299609
0.9287253809
0.920849388
0.9167631852
0.9107865398
0.9024794876
0.8984309939
0.8945562402
0.887002873
0.8815096048
0.8792903482
0.8751296101
0.8682519969
0.865283852
0.8634322558
0.8586435418
0.8530644759
0.8519282752
0.8501587957
0.8450797261
0.8412233188
0.8398864217
0.8372033139
0.8320909297
0.8299682425
0.8292708708
0.8267334949
0.8224742869
0.8209906292
0.8198815369
0.8168096879
0.8130612303
0.8122747162
0.8115391104
0.8088248468
0.9644009354
0.9560690475
0.9494682575
0.9428801651
0.9338705204
0.9276097787
0.9230958048
0.9155496093
0.9086740614
0.9054364008
0.9002721605
0.8924326415
0.8891282867
0.8865564708
0.8806812359
0.8749724703
0.8728318495
0.8696158974
0.8632355811
0.8594273399
0.8579325947
0.8544140202
0.8486451568
0.8467264774
0.8455961681
0.8419386851
0.8376156014
0.8366293414
0.8351649824
0.8310869014
0.827587225
0.8267420645
0.8252116748
0.8212706738
0.8191848759
0.8187147053
0.8170278733
0.9765708738
0.9689013099
0.9610313931
0.9549127879
0.9476180191
0.9392045236
0.9340128781
0.9284797899
0.9201802341
0.9151239161
0.9116019014
0.9048192805
0.8981355968
0.8953527438
0.8913780185
0.884457328
0.8805954556
0.8786426853
0.8743915124
0.8681144548
0.8660166558
0.8643340336
0.8596446637
0.8551958619
0.8540081836
0.8517555899
0.8465467218
0.843190532
0.8422119
0.8398841618
0.8352795017
0.8336643156
0.8328986186
0.8302013213
0.8259272621
0.8243519228
0.8234274181
0.986793863
0.9804856958
0.9730035755
0.9659011987
0.9597496638
0.9519093091
0.9446669428
0.9397914497
0.9330538187
0.9252593223
0.9213293422
0.9168952465
0.9092587789
0.9045342865
0.9018389562
0.8964611926
0.890134558
0.8876768325
0.8848714523
0.8789134795
0.8740949627
0.8723201981
0.8691481025
0.8632028386
0.8601516327
0.8588940546
0.8556632928
0.85056527
0.8491819657
0.8480869716
0.8445134637
0.8402478565
0.8390499774
0.8377031784
0.8339535566
0.8307247723
0.8302519408
0.9943710941
0.9896203693
0.9838721911
0.9769152399
0.970471297
0.9640272048
0.9561278283
0.9500014939
0.9448414299
0.9372074386
0.9307348373
0.9270422078
0.921260519
0.9139446052
0.9104968389
0.906893836
0.9001189258
0.89510689
0.8929110369
0.8891026496
0.8828333971
0.8797599053
0.8779880319
0.8737784757
0.8682413539
0.8667591872
0.8651190403
0.8605778189
0.8563464253
0.8549653607
0.8528086749
0.8480648257
0.8452504073
0.8446123348
0.8426373441
0.8383328007
0.8360966084
0.9984684235
0.9958955125
0.992039314
0.9868569289
0.9805917919
0.9746099207
0.9678962555
0.9604338898
0.9549870529
0.9491816111
0.9413834734
0.9362256494
0.9321051907
0.9251388667
0.9191224016
0.9162609808
0.9116397172
0.9046883275
0.9014142724
0.8989254648
0.8936487753
0.8881019131
0.8859182262
0.8831424391
0.8774595234
0.8732942213
0.8717784495
0.8688899628
0.8635010613
0.8610136589
0.8600329806
0.8571910874
0.8525128995
0.8507914849
0.8496148998
0.8464117474
0.8421967768
0.9997737768
0.9989675819
0.9971204935
0.9940138348
0.9894739841
0.9839469697
0.9782894307
0.9715188143
0.9647520009
0.9595128846
0.9529978073
0.9457701933
0.9414133614
0.9364734814
0.9290067991
0.9244423972
0.9212665607
0.9153124645
0.9091751445
0.9064944332
0.903035844
0.8968672123
0.8927945635
0.8909242587
0.8873938498
0.8814991935
0.8789009026
0.8774151947
0.8735864425
0.8686854939
0.8670634179
0.8653124681
0.8610113471
0.8568454128
0.8557441542
0.8541866384
0.8501987646
0.9999843764
0.9998500844
0.9993319165
0.9980163602
0.9955703599
0.9917276552
0.9869171841
0.9815451668
0.9749931951
0.9689162689
0.963560224
0.9565751483
0.9502934724
0.9461359989
0.9402503206
0.9332208899
0.929608295
0.9257449378
0.9190141963
0.9144452165
0.9120088786
0.9074698442
0.901370639
0.8986131206
0.8962370878
0.8912415624
0.8860867439
0.8841464168
0.8816749103
0.8765102959
0.8726197086
0.8714090191
0.8691457102
0.864357642
0.8617605929
0.8608444897
0.8584120032
0.9999995479
0.9999882267
0.9999075536
0.9995736147
0.9986529206
0.9967732644
0.9936207948
0.9894795716
0.9844372467
0.9783300085
0.9727907406
0.9671803651
0.9601539532
0.9547524414
0.9503307345
0.9436900565
0.9377318711
0.93440476
0.9294687299
0.9227372273
0.9193008288
0.9162783511
0.9105836095
0.9053603789
0.9031386198
0.9001191625
0.8945726
0.8907307243
0.889106409
0.8860349857
0.880603306
0.8781576571
0.8768730398
0.8735314351
0.8686276538
0.8666687924
0.8652898583
0.9999999948
0.9999995147
0.9999927021
0.9999444415
0.9997320983
0.9990991846
0.9976881265
0.9951699411
0.9916463078
0.9870174425
0.9814809688
0.976310055
0.9704762368
0.9638131421
0.9589777783
0.9540139777
0.9471173706
0.9422858219
0.9387502965
0.932828476
0.9269343985
0.9242124678
0.9205344059
0.9143353084
0.9105213595
0.9083199203
0.9041942954
0.8985589248
0.8958403576
0.8937326665
0.8893257718
0.88429853
0.8824492734
0.8805610012
0.8762850214
0.8722495313
0.8711816829
1
0.9999999894
0.9999996823
0.9999957676
0.9999674232
0.9998347422
0.9994076488
0.9983726083
0.9964069892
0.9934505769
0.9893138994
0.9843839022
0.9794674796
0.9735632969
0.9674836499
0.9628746034
0.9573030682
0.9507047046
0.9466599411
0.9425742432
0.9360339138
0.9312886188
0.9285060068
0.9237710413
0.9177683977
0.9148005875
0.9120914598
0.907122479
0.9022689397
0.9002240682
0.8977525746
0.892796953
0.8887903342
0.88743939
0.8850738808
0.8802568102
0.8771889786
1
0.9999999999
0.9999999924
0.999999818
0.9999976551
0.9999813678
0.9999000817
0.9996174647
0.9988756773
0.9973732606
0.9949341023
0.9913361635
0.986992362
0.9822926172
0.9765220184
0.9710440005
0.9664112542
0.9603802104
0.954448383
0.9507250011
0.9459369373
0.9394241878
0.9356661074
0.9325543311
0.9270128417
0.9219540446
0.9195781353
0.9162476276
0.9106783588
0.9069264828
0.9049345666
0.9014792896
0.8961136888
0.8931497275
0.891443037
0.8879856715
0.8830363859
1
1
0.9999999999
0.9999999957
0.9999999034
0.9999987489
0.9999896095
0.9999408608
0.9997576891
0.9992383162
0.9981128631
0.9961390248
0.9930872371
0.9892868989
0.9848290047
0.9793745453
0.9743924124
0.9696069152
0.9634115581
0.9582154272
0.954431683
0.9489506467
0.9430277234
0.9398083861
0.9360020667
0.9299575567
0.9258877188
0.9234030136
0.9192163071
0.9137035225
0.9108268954
0.908642364
0.9046060222
0.8996343042
0.8975071793
0.8956566557
0.891579656
1
1
1
0.9999999999
0.9999999978
0.9999999515
0.999999355
0.9999943539
0.9999657721
0.9998496265
0.9994943613
0.9986681305
0.9971045991
0.994573742
0.9912721256
0.9871151317
0.9820957451
0.9774759206
0.9725193019
0.9664759557
0.9618658222
0.957775287
0.9518359575
0.9467571263
0.9436921448
0.9391764986
0.933221757
0.9300807061
0.9274114415
0.9225243082
0.9176496786
0.9153490788
0.9126443783
0.9077625158
)
;

boundaryField
{
    inlet
    {
        type            fixedValue;
        value           nonuniform 0();
    }
    outlet
    {
        type            inletOutlet;
        inletValue      nonuniform 0();
        value           nonuniform 0();
    }
    bottom
    {
        type            slip;
    }
    top
    {
        type            slip;
    }
    obstacle
    {
        type            zeroGradient;
    }
    defaultFaces
    {
        type            empty;
    }
    procBoundary27to20
    {
        type            processor;
        value           nonuniform List<scalar> 
35
(
0.7840326695
0.7824143723
0.7789089754
0.7759313355
0.7747241036
0.7748054168
0.774970874
0.7747747375
0.7739899991
0.7710178185
0.7671673058
0.7651877441