/*--------------------------------*- C++ -*----------------------------------*\
  =========                 |
  \\      /  F ield         | OpenFOAM: The Open Source CFD Toolbox
   \\    /   O peration     | Website:  https://openfoam.org
    \\  /    A nd           | Version:  7
     \\/     M anipulation  |
\*---------------------------------------------------------------------------*/
FoamFile
{
    version     2.0;
    format      ascii;
    class       volScalarField;
    location    "5";
    object      rho;
}
// * * * * * * * * * * * * * * * * * * * * * * * * * * * * * * * * * * * * * //

dimensions      [1 -3 0 0 0 0 0];

internalField   nonuniform List<scalar> 
2222
(
0.8123690665
0.8057435012
0.8031472068
0.8009346777
0.797027188
0.7929090913
0.791133209
0.7941166586
0.8372302659
1.039698918
1.303802487
1.373977844
1.382263823
1.379965663
1.370060281
1.35829203
1.342525564
1.312380111
0.8636895701
0.8579060933
0.8529032615
0.8487397621
0.8444413125
0.8392696949
0.8342889477
0.8306810386
0.8266250776
0.8222353594
0.8159691738
0.8122981223
0.809923399
0.8073136437
0.8035105212
0.7970460659
0.7932539486
0.7913644807
0.7878067559
0.7824425462
0.7794315591
0.7794357215
0.7913940457
0.9000014917
1.14423309
1.330004589
1.382753668
1.381179838
1.370387944
1.342373726
1.315814693
1.300129905
0.8496773464
0.8437474225
0.8391256428
0.8354727695
0.8316044833
0.8271848484
0.8226470854
0.8192615411
0.8153881485
0.8111618628
0.8053163282
0.8019687188
0.7996500161
0.7969718066
0.7928483664
0.7867978862
0.7827398781
0.781599657
0.7790837061
0.7743538527
0.7696696275
0.7687821003
0.771570482
0.8079388029
0.9911279339
1.242356428
1.361576168
1.362966311
1.352049362
1.337032948
1.315988285
1.306610206
0.838128937
0.8327743481
0.8283167312
0.8246355154
0.8208051423
0.8162839842
0.8117001605
0.8082739527
0.8045303857
0.8003884581
0.7943802579
0.7910422434
0.7889890401
0.7864388413
0.7827591185
0.7777581941
0.774694416
0.7728790475
0.7709165095
0.7667557276
0.7611722033
0.7598877393
0.7600345479
0.7687767656
0.8581140956
1.107616499
1.305108028
1.342391589
1.34686945
1.352648138
1.383986588
1.557348901
0.8257568248
0.820288028
0.8158794619
0.8125020767
0.8088787808
0.8049093593
0.8009780412
0.7978107029
0.7941484359
0.7901113288
0.7843504438
0.7813625779
0.779563056
0.7771892945
0.773321664
0.76839467
0.765795332
0.7632034564
0.7613963254
0.7579420607
0.7523498392
0.7485703254
0.7482396509
0.7513843292
0.786339483
0.9851273483
1.209642026
1.420315462
1.527818083
1.659454217
1.808508102
1.999141336
0.8118898413
0.8070320409
0.8035115952
0.8006006822
0.7974308595
0.7939544338
0.7901292758
0.7869182489
0.7834932274
0.779692112
0.7741475034
0.7711675265
0.7693133066
0.766925624
0.7629912753
0.7583818244
0.7563662972
0.7541516723
0.7518320913
0.7482771366
0.7423948662
0.7375729454
0.7389917441
0.7426265768
0.7611046435
0.8899164129
1.325683323
1.755587367
1.968875898
2.074588452
2.098464409
2.109847198
0.8006047931
0.7964223034
0.7928516101
0.7899097391
0.7867056473
0.7832597793
0.7794056559
0.7761747602
0.7727042023
0.7688518516
0.7631898916
0.760528084
0.75904202
0.7568267062
0.7533905136
0.749097906
0.747764323
0.7456766889
0.7424595864
0.7372169218
0.7335743825
0.7339964208
0.7379311259
0.7832473759
0.9032003833
1.105445087
1.423076618
1.793773301
2.067553443
2.200692118
2.190368809
2.14164009
0.7888857937
0.784741258
0.7813065735
0.7784163463
0.7752979299
0.771827088
0.7677960634
0.7646218796
0.7612739602
0.757771535
0.752892433
0.7506720038
0.7494954984
0.747920444
0.7446901537
0.741446255
0.7392629492
0.7367279087
0.7328227379
0.7282142703
0.7285888081
0.7439405062
0.8180046532
1.003417136
1.20670441
1.275928273
1.386309077
1.658389274
2.000020583
2.195334671
2.189788042
2.168929184
0.7773786577
0.7737198243
0.7705633513
0.7676599045
0.7644168015
0.7607526671
0.7568858353
0.7542194484
0.7515124186
0.7485103132
0.7441901667
0.7419258982
0.7407494003
0.7390543472
0.7358454615
0.7310966573
0.7285678837
0.726589496
0.7245478962
0.7280779205
0.7684536522
0.9012594816
1.10967944
1.19476322
1.281350825
1.300595332
1.334555245
1.476001019
1.796940605
2.058878598
2.144860269
2.165755617
0.76560416
0.7619700834
0.75837979
0.75569044
0.7529277863
0.7499500233
0.7466733289
0.7443102898
0.7415531002
0.7384446733
0.7341281647
0.7323112006
0.7310836531
0.7287874486
0.7245254728
0.7189479504
0.7197715006
0.721511306
0.7409328247
0.8295535166
1.005496431
1.184670895
1.305127361
1.309639632
1.312703263
1.308729478
1.311749929
1.359932935
1.546381852
1.893326782
2.14441299
2.177610928
0.7535752225
0.749934571
0.7471318444
0.744821156
0.7421424121
0.7391705425
0.7360095663
0.7334652246
0.7309004394
0.7280267067
0.723954499
0.7219238612
0.7204568184
0.7182177304
0.7127970175
0.7129983118
0.7211735702
0.7692605627
0.9307372807
1.117718872
1.25279582
1.277782648
1.314117284
1.325649524
1.324645004
1.319828833
1.314685134
1.320068439
1.382535774
1.648284722
2.013727702
2.153645511
0.7429940328
0.7396946639
0.7366537591
0.7342145249
0.7315353937
0.7286696707
0.725788181
0.7236366736
0.7212227061
0.7185231585
0.7137537138
0.7113683134
0.7099132569
0.7088038015
0.709755476
0.736548674
0.8504431897
1.02787559
1.167642348
1.250335185
1.293409088
1.289778286
1.298928881
1.313868351
1.323704193
1.323199634
1.318673229
1.318798999
1.33116666
1.439060538
1.774798173
2.099030718
0.7311601811
0.7277324377
0.7247015283
0.722773577
0.7205167815
0.7183450601
0.7153585097
0.7133113975
0.7103201515
0.7066693516
0.7012085907
0.7012805789
0.7025584728
0.7146982128
0.7722114134
0.9432467717
1.15109673
1.276258673
1.29118316
1.304373956
1.314282091
1.310053647
1.304668353
1.308925682
1.317738021
1.322448709
1.320964728
1.320323669
1.32330437
1.353695625
1.528248238
1.950525002
0.7185608695
0.7158288002
0.7137355493
0.7120145738
0.7099992426
0.7074791423
0.7052709088
0.702424281
0.6999420939
0.6954549935
0.6944816958
0.6987945024
0.7321288991
0.8737688902
1.066876736
1.232391215
1.265256169
1.311101516
1.309270944
1.312307344
1.319451885
1.321570418
1.317710618
1.312003015
1.313871932
1.317775758
1.319987796
1.320945159
1.32328774
1.33263856
1.385569718
1.744114793
0.7084034541
0.7061141401
0.7036694207
0.7020179777
0.7002168194
0.6981678365
0.6949947333
0.6916728646
0.6894823953
0.6896100216
0.7025216211
0.7975274384
0.97891786
1.128780358
1.254370797
1.283595081
1.277463104
1.292078987
1.302150784
1.308253928
1.315265886
1.321048046
1.319891988
1.316815342
1.31325087
1.313443132
1.315556212
1.31901392
1.322060628
1.325364415
1.336692206
1.557276012
0.6978728822
0.6952479257
0.693152346
0.691629913
0.6893098746
0.6858437372
0.681344606
0.6819323963
0.6880882681
0.7325547031
0.8721814281
1.092943176
1.25918356
1.281898045
1.304989326
1.308686798
1.301233589
1.300777294
1.302558842
1.302865843
1.306116697
1.312535668
1.316569825
1.315590868
1.313180273
1.311546659
1.31187398
1.314082704
1.316626273
1.317473991
1.319533259
1.429950378
0.6867037903
0.6845952889
0.6823195512
0.6801669434
0.6776059257
0.675469616
0.677321734
0.7013276458
0.8193464873
0.9907295945
1.175794546
1.228756018
1.293652284
1.301782598
1.312725664
1.31793283
1.317437469
1.315072878
1.308129463
1.302324411
1.301980602
1.303786896
1.308524229
1.312516243
1.312199131
1.311610458
1.311120383
1.310787841
1.311268146
1.311848407
1.312918556
1.361737098
0.6753418442
0.6729630565
0.669743868
0.6695030433
0.6701593001
0.6793814732
0.7569280436
0.9256222812
1.107187325
1.244294689
1.304086405
1.282839789
1.28777812
1.295140065
1.305507825
1.314179988
1.316659054
1.315769533
1.312486777
1.305217481
1.303671128
1.304701241
1.307551288
1.310418048
1.311890656
1.311940473
1.311682544
1.310987707
1.310186217
1.310300909
1.31062777
1.33057502
0.6636358603
0.6605746373
0.6609358292
0.6656389238
0.7039671513
0.8403016242
1.064933179
1.236152645
1.269349654
1.293765879
1.311831741
1.307431364
1.295459739
1.29614648
1.298841428
1.305894605
1.311139885
1.312336212
1.311141037
1.307564545
1.30709712
1.308240838
1.310423492
1.312416468
1.312517574
1.312476426
1.312385222
1.311615293
1.31093271
1.311068301
1.311054056
1.318366677
0.6546603769
0.6553902225
0.6715562123
0.7778488469
0.9632198637
1.156203733
1.213697106
1.276620561
1.282474826
1.291404575
1.301760203
1.304372791
1.301389391
1.298076073
1.299215698
1.30071078
1.302153517
1.303480911
1.304726169
1.305744149
1.307715801
1.311109155
1.313580077
1.3139668
1.313381916
1.312799889
1.312511576
1.311735538
1.311298866
1.311604738
1.311423412
1.314411257
0.6532496743
0.7228751249
0.8806518562
1.073187546
1.230262077
1.288765216
1.271654725
1.278258806
1.278759786
1.280551753
1.287096718
1.297013251
1.300361162
1.30089163
1.300395096
1.300084899
1.300507323
1.301029163
1.301275129
1.302707872
1.305851636
1.310318515
1.314235424
1.314791328
1.314126333
1.312873846
1.311525824
1.310436251
1.309958824
1.310477188
1.310683259
1.312438264
0.8140196405
1.035845076
1.22076645
1.266433692
1.295128883
1.303092897
1.297170314
1.288623276
1.285112805
1.284648283
1.288163246
1.294592238
1.298984395
1.300391302
1.301185813
1.300870486
1.300938315
1.301473669
1.301003156
1.301184912
1.302760941
1.305955851
1.310055686
1.312440089
1.312297345
1.311371303
1.309997616
1.308647336
1.307644485
1.307934428
1.308471834
1.310374115
1.125828027
1.19324109
1.2676989
1.280517726
1.294036613
1.299132696
1.296225906
1.291733381
1.291725506
1.294480321
1.296551356
1.297937234
1.298228776
1.298993522
1.300326838
1.301333027
1.301715768
1.301641273
1.301618583
1.300816254
1.300256723
1.301234402
1.303759852
1.30681101
1.308181501
1.308027441
1.3074987
1.306487202
1.305732326
1.305884185
1.306449854
1.308507068
1.272796734
1.259567713
1.272898191
1.277926426
1.27925657
1.282182588
1.284716976
1.287770659
1.292794642
1.298123317
1.301304804
1.301275365
1.299845989
1.296976619
1.297672583
1.299389885
1.301249876
1.301806307
1.301721199
1.300929764
1.299271163
1.299043392
1.300089148
1.302140866
1.303903926
1.30462076
1.304691373
1.304463207
1.304128785
1.304240387
1.304695422
1.306547932
1.287460294
1.28416016
1.283048242
1.281236505
1.278270059
1.277441651
1.278746964
1.282086522
1.288638646
1.295236905
1.29976264
1.301940184
1.301008108
1.298305535
1.296184417
1.296384148
1.297918691
1.299459081
1.299894911
1.299562833
1.298552493
1.298471466
1.299153346
1.300686276
1.301884433
1.302433719
1.30265181
1.302757286
1.302849173
1.303257038
1.303824071
1.30498681
1.278396327
1.284807196
1.285560797
1.28596585
1.283736028
1.28180913
1.280885069
1.281865071
1.284154429
1.287587783
1.292408201
1.296927734
1.298998967
1.298277993
1.296366634
1.295878496
1.295820505
1.296274796
1.296600486
1.296770544
1.297004813
1.297581409
1.298386404
1.299488577
1.300261737
1.300381067
1.300497311
1.300823359
1.301346449
1.302048663
1.302787138
1.3031121
1.273926332
1.278286569
1.283481614
1.286802734
1.287652506
1.287142631
1.285801405
1.283016605
1.280772351
1.28114777
1.283373064
1.288108246
1.292548602
1.295362029
1.295434004
1.295180715
1.294682475
1.294251604
1.2941173
1.29425756
1.294546409
1.295187355
1.2959259
1.296468376
1.2968136
1.296886882
1.297154477
1.297749589
1.298523448
1.29920749
1.299618952
1.299836995
1.270435742
1.269911905
1.272388788
1.277494832
1.280544
1.281518872
1.280910022
1.278653286
1.276164161
1.275807775
1.277002925
1.280249033
1.284600144
1.287330591
1.289033969
1.289852909
1.290491127
1.29079079
1.291063849
1.291086007
1.290668703
1.29043493
1.290608811
1.290707594
1.290682781
1.290720924
1.291114771
1.291843453
1.292557975
1.293193304
1.293624292
1.294474323
1.267023785
1.263297459
1.262415004
1.26436171
1.268429951
1.271366614
1.272202331
1.271454812
1.270484656
1.270784745
1.271889954
1.273932786
1.276260678
1.278426491
1.280224392
1.28185251
1.283297435
1.284462351
1.285291375
1.285426432
1.284901689
1.283931082
1.283396441
1.28343323
1.283699436
1.284086228
1.284552873
1.285159861
1.285581029
1.28585124
1.28623932
1.287839785
1.261170811
1.259782693
1.258508497
1.258881813
1.259603418
1.260692587
1.261102978
1.261372824
1.262139805
1.263913083
1.266076335
1.267715557
1.268370067
1.26914085
1.270350978
1.272131413
1.273994231
1.275751327
1.27685772
1.277198573
1.276982428
1.276488754
1.276218569
1.276499889
1.277191269
1.278036355
1.278802205
1.279255227
1.279496028
1.279831468
1.280363282
1.282117323
1.252436115
1.254738668
1.256159154
1.256400985
1.255513544
1.254491591
1.254053494
1.253966765
1.255120814
1.257421249
1.260468372
1.262059333
1.262367545
1.262143945
1.261786469
1.262048828
1.263204475
1.265039579
1.267083364
1.268535783
1.269306044
1.26934879
1.26928832
1.269277895
1.269206938
1.269352456
1.269980296
1.270962423
1.27244846
1.274506098
1.276611245
1.278444363
1.247019338
1.249720861
1.251826627
1.253787589
1.25482221
1.253704301
1.25228996
1.251989284
1.252388971
1.253496649
1.255880349
1.257687886
1.257890418
1.258609842
1.258852686
1.258665699
1.258533775
1.25886956
1.260098693
1.262737761
1.265406497
1.267180623
1.267816023
1.267724677
1.266193782
1.264282293
1.263625559
1.263647777
1.264603302
1.267130183
1.27065642
1.27326811
1.246700549
1.248545247
1.251015991
1.253382061
1.254932607
1.253858722
1.252626373
1.252480086
1.252403993
1.25336715
1.254773587
1.255771323
1.256383465
1.258041406
1.259037044
1.25888673
1.258168476
1.257742731
1.25825736
1.260471481
1.264476204
1.267927319
1.269445775
1.269838593
1.268855934
1.266092157
1.263837279
1.263764565
1.264158205
1.26549877
1.268022194
1.270099047
1.247918659
1.250310233
1.251657753
1.253866454
1.255131113
1.254549293
1.254261228
1.25454271
1.254541277
1.253355973
1.253994556
1.255246624
1.256476741
1.257325248
1.258106633
1.258078483
1.256978167
1.256379794
1.256976716
1.25925897
1.263441446
1.26802
1.270447068
1.271084611
1.27078276
1.269213325
1.266496759
1.265156552
1.264976251
1.264784461
1.266570146
1.268186738
1.24742787
1.252188221
1.254459572
1.254807794
1.255609627
1.255330795
1.255491372
1.255596634
1.255744164
1.256025847
1.256455066
1.256937329
1.256860297
1.256978588
1.256560324
1.256191279
1.256053947
1.256362048
1.257115245
1.258806742
1.261960438
1.266980602
1.270598543
1.271451016
1.27137454
1.270606645
1.268871599
1.26588501
1.264119652
1.263583348
1.265099767
1.267853318
1.2466586
1.252738795
1.256779298
1.257391046
1.256951021
1.257164402
1.256812189
1.256563247
1.256522295
1.257026281
1.258039644
1.258880199
1.258772722
1.256986701
1.25591183
1.255262947
1.255533436
1.256382891
1.257320193
1.25872043
1.260721741
1.263933217
1.268210659
1.270897528
1.271146337
1.270230791
1.269089448
1.268619206
1.267816166
1.267335972
1.267476447
1.269175905
1.246391188
1.252918737
1.257505344
1.258981043
1.259182126
1.259388266
1.25883412
1.258027552
1.257365545
1.257638664
1.258690596
1.260026572
1.260493545
1.258730107
1.256247973
1.254965834
1.255378203
1.256436568
1.257595572
1.258592709
1.260050848
1.262043725
1.264159746
1.266856753
1.268715402
1.268739381
1.268233676
1.268185287
1.26891087
1.269637226
1.270285698
1.271431826
1.246535001
1.252767206
1.256987602
1.259420002
1.260341329
1.260909092
1.260532853
1.259617654
1.258539712
1.258495739
1.25935321
1.260797141
1.261517668
1.260444065
1.258033527
1.256407931
1.256379579
1.257267233
1.258119664
1.258603642
1.259707614
1.261071195
1.261812187
1.262519497
1.264255824
1.266011687
1.266942045
1.268204187
1.269925372
1.271115487
1.271848846
1.272649326
1.246937274
1.251323276
1.254473413
1.257368335
1.260007267
1.261541323
1.261737007
1.26107486
1.259711462
1.259140165
1.259717837
1.261170639
1.262046519
1.261643119
1.260343483
1.259017669
1.258552148
1.258856184
1.259320224
1.259676515
1.260183642
1.260822037
1.260970675
1.260632222
1.26094734
1.262371895
1.265336924
1.268387267
1.270426799
1.272065203
1.273461571
1.273631411
1.247693233
1.250829161
1.252588129
1.254545043
1.25852588
1.262538343
1.26327006
1.262736375
1.260631195
1.259480042
1.259833384
1.261168249
1.262255529
1.262527558
1.262316595
1.261683897
1.261082409
1.260935189
1.261437705
1.262291244
1.262671043
1.262268613
1.260875825
1.260268564
1.260262474
1.260673928
1.262070753
1.265926033
1.270978589
1.273420404
1.27438118
1.27351809
1.248857023
1.250253196
1.251750728
1.25435517
1.256628549
1.259996066
1.263966225
1.263850082
1.261786231
1.26027208
1.260276989
1.261169496
1.262308213
1.263248399
1.263418326
1.263018173
1.262531977
1.262327524
1.26330562
1.264876246
1.265832237
1.265699013
1.263787927
1.260985131
1.260125551
1.260497508
1.261805475
1.263792386
1.267674112
1.27161702
1.272638569
1.271234801
1.249168065
1.251510877
1.253382268
1.255167819
1.256746264
1.258019784
1.260630649
1.2633993
1.262514344
1.261639827
1.26134235
1.2616441
1.262768138
1.26396644
1.264057277
1.26335587
1.262750012
1.263036691
1.264466101
1.266628625
1.268223129
1.268481129
1.26741537
1.264201634
1.261559572
1.261306466
1.262028705
1.263588138
1.265706181
1.268504444
1.269617919
1.268979528
1.2491608
1.251540159
1.254469944
1.257072771
1.257442429
1.257266995
1.257689742
1.259874967
1.262411814
1.262751397
1.262920987
1.26265507
1.262471213
1.262845864
1.263204782
1.262900393
1.262433582
1.262908179
1.264566176
1.267243431
1.269401676
1.270049592
1.269563135
1.267109608
1.264523371
1.263747908
1.263713654
1.263802572
1.264856227
1.266492775
1.267486495
1.26744265
1.247609411
1.25125351
1.25448216
1.257599595
1.25822593
1.257348083
1.256813414
1.256788724
1.259310551
1.262955191
1.263555238
1.263699399
1.263028254
1.262142439
1.261390831
1.260650318
1.260126903
1.260888766
1.263710684
1.267424806
1.269620905
1.27051118
1.270435184
1.269208356
1.266947198
1.265971786
1.265426952
1.265020195
1.265232939
1.265425439
1.266045187
1.266037178
1.244055137
1.247874181
1.253187461
1.257498157
1.258379141
1.257442325
1.256453774
1.255853512
1.256435809
1.259710463
1.263213874
1.26371504
1.263645048
1.262120744
1.260322145
1.258961448
1.258153901
1.258183498
1.260012871
1.264149014
1.268565258
1.270385167
1.270384979
1.269953134
1.26856235
1.267291047
1.266544999
1.266309044
1.265185293
1.264860046
1.265092466
1.266138969
1.242078275
1.244050552
1.24829676
1.254493943
1.257465257
1.257442004
1.25706399
1.256034335
1.255320379
1.256055469
1.259353461
1.262785173
1.263506589
1.262210822
1.260018096
1.258534479
1.257633615
1.256980058
1.257178519
1.258747018
1.262355518
1.266977927
1.269691362
1.269698433
1.269029935
1.267869547
1.267043114
1.26663948
1.265843774
1.26519131
1.264695197
1.265891608
1.241742308
1.242403742
1.244517609
1.249398578
1.255161322
1.257243595
1.257209287
1.256597869
1.255241011
1.254760494
1.255438732
1.257865319
1.260447104
1.260944234
1.259798519
1.258647202
1.257763351
1.256979529
1.256294116
1.255813451
1.256487648
1.259423725
1.264194668
1.268016856
1.268661435
1.267740979
1.266916309
1.266452718
1.265943615
1.26509854
1.264536767
1.26569717
1.242134582
1.241852895
1.241772737
1.242621689
1.245724887
1.251419649
1.255866839
1.25719807
1.256832374
1.255454662
1.253995307
1.253285909
1.253649461
1.255377928
1.257339785
1.258317688
1.258328965
1.257889315
1.257168619
1.255962974
1.254651919
1.253771565
1.254290739
1.256622782
1.26064238
1.264690382
1.266152284
1.266070847
1.265827513
1.265515193
1.265079824
1.264459217
1.264931046
1.242217087
1.241639043
1.241421693
1.241831679
1.243903041
1.248211504
1.253198529
1.256202328
1.256455982
1.255367008
1.25358127
1.252384726
1.251620737
1.251813034
1.253186955
1.254952719
1.256364249
1.256946353
1.256626504
1.255746139
1.254762598
1.253601358
1.252859918
1.252968086
1.253924411
1.256481484
1.260556282
1.263212301
1.264114125
1.264627433
1.264689322
1.26369086
1.263538132
1.241546017
1.241343176
1.241248097
1.241562788
1.243044776
1.245885639
1.24931636
1.252822918
1.254929356
1.254544496
1.253385441
1.252140377
1.250688642
1.249870436
1.250453467
1.251670801
1.25330536
1.255080437
1.255591689
1.255453609
1.255129327
1.254100886
1.252168586
1.250951535
1.250443706
1.250815658
1.25348553
1.257268732
1.259809923
1.261397195
1.262263516
1.262146335
1.26239041
1.239125683
1.240521768
1.240884677
1.241279857
1.242438094
1.244205074
1.245861678
1.248237357
1.252117729
1.253247639
1.252663045
1.251661848
1.250587662
1.249582347
1.249440901
1.24975607
1.25054199
1.252393519
1.254279123
1.254890486
1.254710349
1.253522892
1.251723199
1.250276477
1.249287323
1.24895075
1.249973976
1.252695565
1.255664837
1.25763434
1.258887362
1.259928132
1.261297235
1.235684728
1.237813886
1.239958187
1.240782348
1.24150209
1.242532453
1.243053871
1.244022963
1.247302394
1.251413694
1.252176426
1.252031718
1.251287661
1.249874089
1.248991027
1.248786706
1.249060451
1.250220141
1.252544752
1.254390583
1.25466444
1.254200992
1.25259092
1.250308445
1.248773039
1.248239561
1.248657117
1.251011684
1.253942089
1.25551906
1.256509159
1.257631579
1.259662051
1.233955395
1.234497713
1.236967033
1.239552573
1.240201228
1.240638212
1.240788149
1.241276504
1.242983152
1.247734704
1.251569106
1.252144477
1.251512249
1.250030013
1.248762965
1.248338955
1.248522181
1.249314685
1.251384678
1.253999366
1.255050875
1.25464036
1.252258555
1.248995368
1.247488727
1.247672372
1.248735669
1.250989686
1.253676472
1.255093962
1.2557199
1.256259034
1.257811885
1.233570335
1.232988154
1.23315411
1.236065939
1.238269809
1.238702893
1.239146778
1.239800001
1.241129391
1.244640875
1.248927123
1.250939129
1.250817918
1.249566806
1.248256013
1.247865597
1.248156535
1.248964721
1.251128901
1.254016619
1.255462112
1.25509121
1.253539445
1.25077786
1.248662908
1.248495719
1.249364945
1.251285548
1.2537961
1.255101663
1.255338579
1.255325783
1.256141883
1.233683629
1.232293553
1.231157327
1.232169737
1.235561068
1.237218644
1.23776772
1.239015005
1.240987649
1.243378394
1.246001001
1.248208703
1.248418641
1.247751639
1.24644221
1.246218604
1.246767475
1.248204455
1.250854531
1.25412646
1.255498294
1.255243001
1.253770729
1.251617179
1.249794467
1.249168742
1.249657973
1.251169297
1.253220598
1.254339519
1.254631547
1.25451988
1.254943273
1.233617117
1.232148531
1.230599616
1.230422898
1.232665865
1.236117081
1.237807964
1.239792067
1.2419836
1.243015558
1.244181799
1.245486616
1.245502085
1.244833355
1.243219305
1.242656977
1.243119499
1.245117194
1.248576647
1.252227215
1.254538974
1.254789675
1.253717028
1.252056649
1.250711634
1.249424991
1.248914778
1.248969478
1.249748037
1.251307408
1.252866888
1.253458974
1.253984477
1.232898699
1.232240885
1.231010874
1.23010628
1.23098953
1.23418568
1.237631236
1.239960932
1.242148682
1.243402724
1.243448697
1.243705905
1.243296341
1.242033396
1.24027462
1.239485063
1.239446266
1.240511943
1.242921132
1.246031943
1.250101497
1.253066238
1.253159069
1.252246189
1.251224272
1.249348394
1.247109724
1.245073919
1.244362923
1.245138832
1.247310785
1.249788051
1.252335036
1.230405756
1.231960953
1.231549818
1.230242225
1.230266031
1.231814886
1.235379172
1.238904895
1.241446577
1.243226313
1.243197593
1.242659148
1.241799883
1.240399451
1.238983346
1.23816791
1.237866831
1.238198936
1.238814457
1.239934113
1.242622643
1.246933742
1.250912835
1.252063536
1.251260718
1.248998726
1.245890665
1.242461747
1.240339505
1.240383173
1.24151538
1.243881264
1.248753595
1.226453946
1.230177154
1.231628573
1.230502529
1.229458032
1.22967133
1.231496676
1.235763035
1.23966345
1.242511015
1.242508265
1.241882525
1.240843021
1.239721184
1.238742283
1.237956378
1.23756483
1.237681164
1.237668793
1.23739672
1.237776275
1.239669288
1.243788494
1.24854526
1.250144953
1.248492773
1.245417975
1.241708395
1.239583665
1.239194527
1.239634395
1.240880963
1.244418727
1.223925693
1.226937954
1.230157495
1.230333043
1.228412742
1.227539531
1.22788254
1.230359711
1.23582726
1.240563238
1.241470735
1.240924542
1.239944605
1.239293379
1.23883564
1.238687098
1.238644884
1.238564481
1.2381104
1.236946957
1.236068069
1.236061101
1.237586823
1.241133202
1.245604633
1.247097105
1.245358296
1.242653425
1.2395717
1.238963475
1.23941199
1.240391636
1.242234424
1.223274486
1.225173293
1.227138449
1.228611266
1.22728932
1.225724404
1.225340518
1.225923222
1.229661525
1.236398683
1.23984893
1.2398115
1.239255777
1.238888539
1.238752482
1.238843348
1.238963938
1.238562691
1.237552131
1.236702861
1.235810699
1.235484224
1.235379811
1.236054262
1.239116537
1.243803734
1.244758881
1.243035873
1.241096753
1.24031359
1.240678822
1.241375859
1.242428753
1.2233389
1.224262074
1.224715269
1.225790469
1.225493772
1.224170034
1.223569493
1.223812664
1.226064475
1.23134558
1.23658442
1.23791905
1.23811446
1.238033817
1.238123699
1.238497176
1.2387438
1.238508159
1.238438295
1.238033422
1.237103486
1.236117853
1.234646076
1.233871376
1.234757338
1.237956506
1.24214398
1.2429495
1.241622183
1.24135224
1.24197385
1.242887629
1.243272019
1.223290029
1.223435183
1.22298961
1.222602403
1.222946121
1.223299278
1.223372927
1.223713899
1.225064397
1.228084555
1.232495038
1.235144765
1.23572465
1.235803332
1.236143262
1.237235582
1.238218522
1.238499499
1.238808923
1.238664647
1.237624888
1.235855112
1.234257098
1.233844948
1.233386937
1.233903008
1.236497271
1.239967264
1.241559958
1.241905818
1.242672761
1.243756723
1.243594608
1.21863345
1.222444957
1.222385949
1.221603905
1.220251264
1.220085272
1.22199696
1.223469774
1.223940638
1.22443009
1.226026477
1.229635665
1.232571719
1.233283581
1.233204095
1.232978075
1.23361123
1.235605313
1.237281842
1.237992166
1.237954415
1.237009538
1.235860753
1.235207319
1.234636681
1.233076818
1.232123587
1.232753484
1.234990093
1.238133542
1.240661231
1.24210255
1.243157678
1.242922276
1.217286893
1.220671172
1.221007979
1.220592641
1.219035246
1.217856534
1.218811464
1.222161797
1.223678803
1.224089366
1.225612679
1.228400933
1.2305274
1.23099294
1.230574373
1.228857613
1.227622604
1.228472088
1.231835107
1.234925223
1.236110129
1.236460497
1.236330982
1.235894638
1.23447842
1.233033493
1.231947657
1.231359239
1.231787084
1.233794489
1.236847379
1.239274565
1.241155011
1.241681356
1.215842032
1.2183388
1.219813861
1.219742036
1.218284995
1.216027687
1.215782744
1.218347896
1.222456785
1.223913119
1.225569831
1.227484067
1.228580464
1.228764062
1.227858465
1.22498227
1.222249148
1.221362672
1.222972565
1.226955789
1.231747418
1.23523514
1.236154328
1.235872645
1.234780909
1.233959803
1.232521481
1.230937656
1.230415624
1.231041386
1.232678653
1.234559549
1.23672801
1.238720221
1.214387698
1.216427174
1.218822529
1.218984359
1.218011175
1.215534043
1.21388379
1.214367344
1.218333425
1.222808507
1.225073721
1.226413862
1.226644976
1.226455424
1.225123294
1.222683464
1.220358087
1.21845805
1.217378632
1.218337589
1.222351955
1.229016812
1.233869227
1.235190502
1.235202098
1.234535125
1.232712164
1.231110227
1.230147024
1.230000761
1.230282656
1.230466203
1.230534975
1.231998783
1.212787898
1.214888402
1.217797821
1.218331922
1.217884846
1.21567335
1.212626066
1.212025329
1.213999758
1.219491835
1.223549536
1.224615778
1.224389049
1.22376328
1.222311613
1.220869966
1.219412837
1.217400453
1.21474435
1.214067437
1.215860548
1.220109601
1.226638025
1.232133807
1.234419652
1.23394665
1.232273112
1.231118442
1.230347527
1.229777766
1.229394903
1.228712859
1.227591506
1.227637339
1.210992882
1.213345631
1.21644835
1.217818851
1.21772125
1.215586455
1.212589271
1.211412529
1.211750004
1.214850924
1.219645685
1.221412437
1.221457879
1.221098175
1.220592906
1.219965203
1.218740956
1.217115341
1.214957411
1.213744006
1.214166888
1.215397765
1.219063431
1.224321351
1.229083662
1.231153662
1.231294008
1.23077375
1.230205457
1.229712354
1.228985498
1.228158976
1.227506188
1.226881483
)
;

boundaryField
{
    inlet
    {
        type            calculated;
        value           nonuniform 0();
    }
    outlet
    {
        type            calculated;
        value           nonuniform List<scalar> 
69
(
1.273181311
1.270113218
1.268222004
1.267855132
1.26925201
1.271466813
1.272628126
1.273577122
1.273472703
1.271162181
1.268999504
1.26753277
1.266117443
1.266187124
1.265916193
1.265678452
1.264859546
1.263487476
1.262360933
1.261263185
1.259627328
1.257812152
1.256188669
1.255022354
1.254086775
1.252295974
1.248445081
1.244168918
1.242139925
1.242438836
1.243386117
1.24376097
1.243073279
1.241818599
1.23871201
1.231825935
1.227553808
1.226912832
1.312422864
1.300109577
1.306594918
1.557346724
1.999186761
2.109867765
2.141618182
2.168852859
2.165700616
2.177582182
2.153640397
2.099057812
1.950553203
1.744152538
1.557345773
1.429979689
1.361698505
1.330528971
1.31834432
1.31440494
1.312442028
1.310372076
1.308484682
1.306517685
1.304973976
1.303119714
1.299854018
1.294481286
1.287838861
1.282136019
1.278426882
)
;
    }
    bottom
    {
        type            calculated;
        value           nonuniform 0();
    }
    top
    {
        type            calculated;
        value           nonuniform 0();
    }
    obstacle
    {
        type            calculated;
        value           nonuniform 0();
    }
    defaultFaces
    {
        type            empty;
    }
    procBoundary11to5
    {
        type            processor;
        value           nonuniform List<scalar> 
33
(
0.8214360861
0.8153293523
0.8120838387
0.8087940533
0.8048286084
0.8029919918
0.8034592471
0.8175811211
0.9386895264
1.19277852
1.381970136
1.413082034
1.408696747
1.397277478
1.375083246
1.355876685
1.338935364
1.313075172
0.8756221732
0.8699547859
0.8650905536
0.8608144193
0.8563503589
0.8509259328
0.8452211002
0.8410829472
0.8367093189
0.832108886
0.8257213703
0.8217729174
0.8193096626
0.816610391
0.816610391
)
;
    }
    procBoundary11to10
    {
        type            processor;
        value           nonuniform List<scalar> 
70
(
0.8691340608
0.8554129816
0.8435711408
0.8310426681
0.8168739353
0.805093125
0.7931673878
0.7814002791
0.7693620864
0.7572880803
0.7467144281
0.7345221684
0.7214706436
0.7109857914
0.7004758197
0.6887280142
0.6773390112
0.6658004
0.6542479367
0.645035535
0.6725887027
0.9400053853
1.234901116
1.265682323
1.267019398
1.27325597
1.271896044
1.268289666
1.259950858
1.248479188
1.243892699
1.243278375
1.244063738
1.242674184
1.241251298
1.241157476
1.241727706
1.242805872
1.245077587
1.247252353