/*--------------------------------*- C++ -*----------------------------------*\
  =========                 |
  \\      /  F ield         | OpenFOAM: The Open Source CFD Toolbox
   \\    /   O peration     | Website:  https://openfoam.org
    \\  /    A nd           | Version:  7
     \\/     M anipulation  |
\*---------------------------------------------------------------------------*/
FoamFile
{
    version     2.0;
    format      ascii;
    class       volScalarField;
    location    "0.1";
    object      p;
}
// * * * * * * * * * * * * * * * * * * * * * * * * * * * * * * * * * * * * * //

dimensions      [1 -1 -2 0 0 0 0];

internalField   nonuniform List<scalar> 8(1.000020349 1.000152008 1.000000004 1.000000025 0.9999999994 0.999999999 1 1);

boundaryField
{
    inlet
    {
        type            fixedValue;
        value           nonuniform 0();
    }
    outlet
    {
        type            zeroGradient;
    }
    bottom
    {
        type            slip;
    }
    top
    {
        type            slip;
    }
    obstacle
    {
        type            zeroGradient;
    }
    defaultFaces
    {
        type            empty;
    }
    procBoundary31to25
    {
        type            processor;
        value           nonuniform List<scalar> 4(1.003488549 1.011764363 1 1);
    }
    procBoundary31to26
    {
        type            processor;
        value           uniform 1.000646768;
    }
    procBoundary31to30
    {
        type            processor;
        value           nonuniform List<scalar> 2(1 1);
    }
    procBoundary31to32
    {
        type            processor;
        value           nonuniform List<scalar> 2(1.000000817 0.9999999982);
    }
}


// ************************************************************************* //
