/*--------------------------------*- C++ -*----------------------------------*\
  =========                 |
  \\      /  F ield         | OpenFOAM: The Open Source CFD Toolbox
   \\    /   O peration     | Website:  https://openfoam.org
    \\  /    A nd           | Version:  7
     \\/     M anipulation  |
\*---------------------------------------------------------------------------*/
FoamFile
{
    version     2.0;
    format      ascii;
    class       volScalarField;
    location    "3.1";
    object      p;
}
// * * * * * * * * * * * * * * * * * * * * * * * * * * * * * * * * * * * * * //

dimensions      [1 -1 -2 0 0 0 0];

internalField   nonuniform List<scalar> 5(1.059008875 0.9561123908 1.056112582 0.9337495727 1.048283084);

boundaryField
{
    inlet
    {
        type            fixedValue;
        value           nonuniform 0();
    }
    outlet
    {
        type            zeroGradient;
    }
    bottom
    {
        type            slip;
    }
    top
    {
        type            slip;
    }
    obstacle
    {
        type            zeroGradient;
    }
    defaultFaces
    {
        type            empty;
    }
    procBoundary22to16
    {
        type            processor;
        value           nonuniform List<scalar> 3(1.06173794 0.9926237487 0.9926237487);
    }
    procBoundary22to21
    {
        type            processor;
        value           nonuniform List<scalar> 2(0.8366533265 0.8229876942);
    }
    procBoundary22to28
    {
        type            processor;
        value           nonuniform List<scalar> 2(0.9003382093 1.034149554);
    }
    procBoundary22to29
    {
        type            processor;
        value           nonuniform List<scalar> 3(1.02558354 1.027780405 1.027621988);
    }
}


// ************************************************************************* //
