/*--------------------------------*- C++ -*----------------------------------*\
  =========                 |
  \\      /  F ield         | OpenFOAM: The Open Source CFD Toolbox
   \\    /   O peration     | Website:  https://openfoam.org
    \\  /    A nd           | Version:  7
     \\/     M anipulation  |
\*---------------------------------------------------------------------------*/
FoamFile
{
    version     2.0;
    format      ascii;
    class       volVectorField;
    location    "0.6";
    object      U;
}
// * * * * * * * * * * * * * * * * * * * * * * * * * * * * * * * * * * * * * //

dimensions      [0 1 -1 0 0 0 0];

internalField   nonuniform List<vector> 
2222
(
(2.702788213 0.01373417293 0)
(2.715146485 0.01328145261 0)
(2.727631379 0.01264979633 0)
(2.740749723 0.01224841202 0)
(2.754019045 0.01243045792 0)
(2.766358183 0.0130906798 0)
(2.777229735 0.01371195207 0)
(2.787367649 0.01394622422 0)
(2.798056479 0.01373715326 0)
(2.809902364 0.01343081044 0)
(2.822555027 0.01315135467 0)
(2.835317449 0.01280933565 0)
(2.847686226 0.01252011792 0)
(2.859160973 0.01247479744 0)
(2.869250385 0.0124228858 0)
(2.878366457 0.01249183199 0)
(2.887481919 0.01265870196 0)
(2.89724201 0.01286149558 0)
(2.907581449 0.01318729842 0)
(2.918029188 0.0133882723 0)
(2.928364892 0.01351233578 0)
(2.938637506 0.01349276485 0)
(2.948903483 0.01336984864 0)
(2.959021247 0.01321843027 0)
(2.968787067 0.01291907203 0)
(2.978216702 0.01281082243 0)
(2.987394747 0.01277774851 0)
(2.99667886 0.01260777626 0)
(3.006409115 0.01255066668 0)
(3.016825618 0.01265295309 0)
(3.026029344 0.01255399074 0)
(3.040896653 0.01245533657 0)
(2.710304098 0.02526839126 0)
(2.722558407 0.02441728667 0)
(2.734802116 0.02312025115 0)
(2.747760867 0.02217604511 0)
(2.761132888 0.02235257936 0)
(2.773718099 0.02345647688 0)
(2.78475848 0.02462060902 0)
(2.794764859 0.02512459621 0)
(2.805158252 0.02485523752 0)
(2.816830175 0.02451924739 0)
(2.829302321 0.02405681941 0)
(2.84199184 0.02338671628 0)
(2.854370873 0.02272947453 0)
(2.865907353 0.02237052783 0)
(2.876068922 0.02204720366 0)
(2.885211539 0.02197798864 0)
(2.894332724 0.0221101252 0)
(2.904111399 0.02231290543 0)
(2.914540254 0.02274179526 0)
(2.925118414 0.02306604736 0)
(2.935580246 0.02331529466 0)
(2.945933546 0.02338172287 0)
(2.956215426 0.02332237228 0)
(2.966272773 0.02323048146 0)
(2.975854352 0.02286841326 0)
(2.985064443 0.02267381051 0)
(2.994081895 0.02251141817 0)
(3.003219966 0.022039663 0)
(3.012865636 0.0217864307 0)
(3.023274196 0.021891884 0)
(3.032446798 0.02172258838 0)
(3.047283502 0.02156106185 0)
(2.710440714 0.04271273976 0)
(2.722687945 0.04145881539 0)
(2.734538308 0.03922480429 0)
(2.746836484 0.03720097491 0)
(2.75968611 0.03694165613 0)
(2.772235284 0.03856360349 0)
(2.783732505 0.04067530982 0)
(2.794237696 0.04195748369 0)
(2.804459059 0.04174858418 0)
(2.815917217 0.0409844643 0)
(2.828251612 0.04008746703 0)
(2.840309378 0.03876643372 0)
(2.851902931 0.03756009422 0)
(2.863150204 0.0369678419 0)
(2.873543464 0.03644389182 0)
(2.882856134 0.03627902054 0)
(2.89178798 0.03632772884 0)
(2.901109241 0.03638033926 0)
(2.911118996 0.03681726458 0)
(2.921509223 0.0372064787 0)
(2.931914226 0.03747880643 0)
(2.942224318 0.03744009088 0)
(2.952460807 0.03724342991 0)
(2.962483476 0.03711776245 0)
(2.9719968 0.03668250324 0)
(2.980971821 0.03641832558 0)
(2.989655974 0.03613547123 0)
(2.99847384 0.03530333727 0)
(3.007863094 0.03476226999 0)
(3.018065177 0.03481186002 0)
(3.027157783 0.03454107859 0)
(3.041983128 0.03426324647 0)
(2.721376863 0.06075793239 0)
(2.732345464 0.0593779716 0)
(2.742455228 0.05655279029 0)
(2.752470641 0.0536753301 0)
(2.763105662 0.05292801026 0)
(2.774704639 0.05472143809 0)
(2.786999953 0.05712621489 0)
(2.800163044 0.05860901104 0)
(2.8141344 0.05936159856 0)
(2.827044283 0.05932787278 0)
(2.837705677 0.05892999293 0)
(2.845582483 0.05729566354 0)
(2.853354862 0.05478868629 0)
(2.862972568 0.05338644418 0)
(2.87338578 0.05248079345 0)
(2.883346483 0.05253958635 0)
(2.892336216 0.05287978293 0)
(2.901042435 0.05301307965 0)
(2.910314969 0.05357636467 0)
(2.92014052 0.05401196432 0)
(2.930108585 0.05422442849 0)
(2.940008553 0.05397799075 0)
(2.949823953 0.05353315062 0)
(2.95943871 0.0532562096 0)
(2.968681327 0.05266070172 0)
(2.977514674 0.05247390612 0)
(2.985879581 0.05232875329 0)
(2.994174688 0.05128347376 0)
(3.00302104 0.05057335619 0)
(3.012898895 0.05072800618 0)
(3.021823974 0.05038170321 0)
(3.036569326 0.04994683049 0)
(2.717575909 0.07756058405 0)
(2.730696121 0.07666552791 0)
(2.742670489 0.0739195722 0)
(2.754151694 0.07084626175 0)
(2.765917797 0.06987631779 0)
(2.778076709 0.0715149341 0)
(2.789974601 0.07419631601 0)
(2.801548239 0.07507716391 0)
(2.813127962 0.07460653069 0)
(2.824329688 0.07525701845 0)
(2.833192622 0.07483154078 0)
(2.843322517 0.07444843781 0)
(2.854460955 0.07210095974 0)
(2.865481388 0.07075009438 0)
(2.875767419 0.0695575378 0)
(2.885631593 0.06938542678 0)
(2.895210258 0.06999002489 0)
(2.904788668 0.070222366 0)
(2.914725565 0.07089619234 0)
(2.924758752 0.0714757097 0)
(2.93442027 0.07172775457 0)
(2.943698619 0.07127599227 0)
(2.952889648 0.07055675904 0)
(2.962135269 0.0701939033 0)
(2.971378647 0.06950529963 0)
(2.98044851 0.06939142657 0)
(2.989083478 0.0694939878 0)
(2.99755797 0.06839847798 0)
(3.006397814 0.06756536565 0)
(3.016214514 0.0676430299 0)
(3.025181697 0.06723828886 0)
(3.039927585 0.06666294633 0)
(2.72118807 0.09544769698 0)
(2.735281033 0.09418894387 0)
(2.748015268 0.09105571082 0)
(2.759845075 0.08721544796 0)
(2.771943368 0.0853759143 0)
(2.784458694 0.08638576019 0)
(2.796821001 0.08893523604 0)
(2.808475102 0.09127579004 0)
(2.816493915 0.09148783301 0)
(2.823169003 0.09254905067 0)
(2.835492946 0.09353147667 0)
(2.848245517 0.09089062249 0)
(2.860895881 0.08739917065 0)
(2.872584303 0.08582876487 0)
(2.882635301 0.08468640357 0)
(2.891749313 0.08413711893 0)
(2.901704066 0.08453231143 0)
(2.912255574 0.08457909113 0)
(2.922861757 0.08515223002 0)
(2.9332188 0.0857548435 0)
(2.942804445 0.08606806336 0)
(2.951671016 0.085504125 0)
(2.960415046 0.08446104924 0)
(2.969472355 0.08375638272 0)
(2.978737237 0.08276027153 0)
(2.987880402 0.0826134885 0)
(2.996757277 0.08281480915 0)
(3.005461955 0.08158615341 0)
(3.014367664 0.08061393707 0)
(3.024060561 0.08061516451 0)
(3.033061638 0.07996646981 0)
(3.047854364 0.07918924008 0)
(2.719712589 0.1124471953 0)
(2.734337351 0.1116230776 0)
(2.747065974 0.1089149423 0)
(2.758131023 0.1048902372 0)
(2.768973657 0.1021813509 0)
(2.78080897 0.1019863959 0)
(2.792943846 0.1035714458 0)
(2.804145624 0.1063052245 0)
(2.816782365 0.1090003396 0)
(2.829393071 0.1101028244 0)
(2.838207975 0.1106045856 0)
(2.847740434 0.1067081858 0)
(2.858988771 0.1028846777 0)
(2.870205127 0.1014465346 0)
(2.880380821 0.1010968014 0)
(2.889164417 0.1004985831 0)
(2.897927089 0.09930389761 0)
(2.908026563 0.098751497 0)
(2.918475937 0.09901337879 0)
(2.928893645 0.0996056136 0)
(2.938788665 0.1000187194 0)
(2.948099092 0.09944627457 0)
(2.957103216 0.09817471469 0)
(2.966002178 0.09719928179 0)
(2.974805308 0.09596470024 0)
(2.98346442 0.09566077676 0)
(2.992122429 0.09579574425 0)
(3.001172748 0.09453700315 0)
(3.010709982 0.09362826289 0)
(3.021079132 0.09370414078 0)
(3.030591203 0.0930504241 0)
(3.045707361 0.09240132932 0)
(2.722087948 0.1294515978 0)
(2.736567078 0.1288555483 0)
(2.749842809 0.1269789632 0)
(2.762530844 0.124517977 0)
(2.774998026 0.1233160743 0)
(2.786356512 0.1226324165 0)
(2.796894709 0.1226991012 0)
(2.807124889 0.124041702 0)
(2.81709873 0.1253771766 0)
(2.827367398 0.1267445623 0)
(2.837756214 0.1256747291 0)
(2.848236553 0.12385307 0)
(2.858206396 0.119533133 0)
(2.868874946 0.1176090204 0)
(2.879550165 0.1183731682 0)
(2.889030539 0.1187052564 0)
(2.897880433 0.1170426379 0)
(2.906921968 0.1170690087 0)
(2.917445157 0.1177743785 0)
(2.927851807 0.1183435837 0)
(2.938018706 0.1185293175 0)
(2.947870914 0.1177284639 0)
(2.957146833 0.116345661 0)
(2.96573031 0.1154818323 0)
(2.973800581 0.1143821357 0)
(2.981712845 0.1141351704 0)
(2.99018441 0.1140647997 0)
(2.999956322 0.1123419213 0)
(3.010692182 0.1111040358 0)
(3.022165664 0.1112147555 0)
(3.031776902 0.1102779138 0)
(3.045119017 0.1082359518 0)
(2.723352246 0.1467310106 0)
(2.738385398 0.1466903165 0)
(2.75124729 0.1456607411 0)
(2.761905661 0.1432019718 0)
(2.770996819 0.1408113816 0)
(2.779919229 0.1388984424 0)
(2.789210183 0.1376775132 0)
(2.80087766 0.1393042275 0)
(2.814189032 0.1408275206 0)
(2.827602719 0.1421497084 0)
(2.841890451 0.1410059813 0)
(2.853385857 0.1387748675 0)
(2.863625867 0.1371062318 0)
(2.871569441 0.1354990274 0)
(2.877599953 0.1356913802 0)
(2.887454383 0.1368546134 0)
(2.899448426 0.1346027698 0)
(2.912422162 0.1320750592 0)
(2.923888339 0.1328266289 0)
(2.934125555 0.13344384 0)
(2.943871314 0.1332564075 0)
(2.953482555 0.1321709513 0)
(2.962710583 0.1309634404 0)
(2.971282209 0.1303813875 0)
(2.979242491 0.129475247 0)
(2.986939791 0.1293010014 0)
(2.995123965 0.128600645 0)
(3.00477432 0.1259962588 0)
(3.015888439 0.1242390006 0)
(3.027832242 0.1241536631 0)
(3.037853737 0.1241215904 0)
(3.049004015 0.1239485655 0)
(2.716445934 0.1615746426 0)
(2.730895099 0.1618242795 0)
(2.744249851 0.1617987642 0)
(2.756180243 0.1596222205 0)
(2.766275057 0.1573690026 0)
(2.776535042 0.156713446 0)
(2.790353105 0.1571863049 0)
(2.804242289 0.1567774559 0)
(2.818288519 0.1560864233 0)
(2.831839201 0.1571333623 0)
(2.842485747 0.1578255208 0)
(2.849037491 0.1522541342 0)
(2.855118929 0.1500152177 0)
(2.864651393 0.1521819778 0)
(2.879142708 0.1521697014 0)
(2.893153291 0.1513413398 0)
(2.905921793 0.1517585107 0)
(2.914697692 0.1492300065 0)
(2.922862303 0.1483836287 0)
(2.932009148 0.1487461635 0)
(2.941839659 0.1484626262 0)
(2.951447705 0.1468652453 0)
(2.961174724 0.14586216 0)
(2.970357652 0.1454132218 0)
(2.978622965 0.1443521927 0)
(2.986556402 0.1442746278 0)
(2.994952864 0.1437049484 0)
(3.00430679 0.1404284357 0)
(3.01500938 0.1379558698 0)
(3.026339212 0.1372787912 0)
(3.034479088 0.1382427378 0)
(3.049733774 0.1396597635 0)
(2.711914734 0.1772445102 0)
(2.726942602 0.1775899789 0)
(2.741365527 0.1780259859 0)
(2.75385009 0.1756626519 0)
(2.76598173 0.173957575 0)
(2.778483721 0.173886621 0)
(2.790043661 0.1734437342 0)
(2.802012751 0.1716930839 0)
(2.814978269 0.1711058762 0)
(2.825860135 0.1713692107 0)
(2.834113462 0.1718296541 0)
(2.843358492 0.1702301585 0)
(2.852903452 0.1689964184 0)
(2.864171117 0.16948071 0)
(2.877011904 0.1666173683 0)
(2.890778505 0.1659776367 0)
(2.902125636 0.1663924559 0)
(2.911576775 0.1647657054 0)
(2.92063398 0.1643517672 0)
(2.93035003 0.1650147486 0)
(2.940393161 0.1644819866 0)
(2.950631212 0.1623638285 0)
(2.961697777 0.1617211059 0)
(2.971562824 0.161250654 0)
(2.980542713 0.1598465593 0)
(2.989271924 0.1596784288 0)
(2.998582397 0.1594492782 0)
(3.009700203 0.156849503 0)
(3.020338002 0.153993675 0)
(3.029256045 0.1543691071 0)
(3.036002493 0.1556817576 0)
(3.04707814 0.1530394226 0)
(2.708980068 0.1928759404 0)
(2.724622836 0.193339428 0)
(2.737749852 0.1936191999 0)
(2.751117071 0.1927730504 0)
(2.764770929 0.1913044088 0)
(2.777860787 0.1907314951 0)
(2.790566704 0.1886036808 0)
(2.803065262 0.1880044596 0)
(2.813373121 0.1875760037 0)
(2.823594645 0.1896077419 0)
(2.835548304 0.1899821835 0)
(2.847145882 0.186125615 0)
(2.859199761 0.1836783541 0)
(2.871876817 0.1836919489 0)
(2.885591015 0.1835599822 0)
(2.895826164 0.1841386326 0)
(2.903495866 0.1841262068 0)
(2.912823298 0.183197643 0)
(2.922989697 0.1818757667 0)
(2.933156224 0.1806103166 0)
(2.944396953 0.1804493471 0)
(2.955637048 0.1789131227 0)
(2.962677182 0.1768956925 0)
(2.96972165 0.1767370762 0)
(2.978971879 0.1750118994 0)
(2.988968038 0.1746658303 0)
(2.998650495 0.1746649982 0)
(3.008213681 0.1717838826 0)
(3.017981871 0.1677401378 0)
(3.027907863 0.1698038143 0)
(3.034558119 0.1712640552 0)
(3.045401318 0.1685468642 0)
(2.704624535 0.2065346702 0)
(2.721020548 0.208491926 0)
(2.739466083 0.2096230151 0)
(2.756059117 0.2078164258 0)
(2.770940243 0.2061602542 0)
(2.78411542 0.2047984094 0)
(2.795346681 0.2047154122 0)
(2.801777056 0.2035349364 0)
(2.809121888 0.2024845053 0)
(2.819092832 0.2035566662 0)
(2.830740217 0.2030934569 0)
(2.844475732 0.2008380838 0)
(2.857265943 0.1990901399 0)
(2.869213337 0.1976186797 0)
(2.879779075 0.1969484886 0)
(2.88940489 0.1982517313 0)
(2.898790891 0.1990552308 0)
(2.907802999 0.1983211571 0)
(2.916814644 0.1966411446 0)
(2.927321058 0.1940100843 0)
(2.938291053 0.1923202622 0)
(2.949487536 0.1915198672 0)
(2.962279068 0.1919371781 0)
(2.973116226 0.1902103243 0)
(2.98363542 0.1882202458 0)
(2.993921445 0.1878232554 0)
(3.003874841 0.1876872167 0)
(3.012976545 0.1863045091 0)
(3.020377834 0.1847091378 0)
(3.024180971 0.1854500433 0)
(3.029222437 0.1868510704 0)
(3.045797308 0.1834593136 0)
(2.709115444 0.223100334 0)
(2.721866953 0.2249786734 0)
(2.735467359 0.2232879939 0)
(2.751505946 0.2205039529 0)
(2.766317315 0.2195842908 0)
(2.778652476 0.2187191941 0)
(2.787673948 0.2198236454 0)
(2.797837584 0.2207050818 0)
(2.808283664 0.2197695447 0)
(2.818883123 0.2199985455 0)
(2.829916737 0.2196820519 0)
(2.842002361 0.2165061552 0)
(2.855515717 0.2151600229 0)
(2.868625313 0.2158508415 0)
(2.880202138 0.2162352022 0)
(2.89029419 0.2171264111 0)
(2.899069899 0.2168704344 0)
(2.906149967 0.2144573044 0)
(2.914538915 0.2126875854 0)
(2.927050007 0.210714092 0)
(2.940025858 0.2090179438 0)
(2.949978587 0.2082280088 0)
(2.957548542 0.204482982 0)
(2.967371998 0.2012160868 0)
(2.977716261 0.1992692269 0)
(2.98791746 0.1991656337 0)
(2.997418896 0.1988528429 0)
(3.005112616 0.1976017956 0)
(3.010755593 0.1985127893 0)
(3.021267741 0.2019856452 0)
(3.031540375 0.2009327861 0)
(3.04783162 0.1990758781 0)
(2.702670932 0.2380735888 0)
(2.716683735 0.2408796398 0)
(2.731549637 0.2399047793 0)
(2.746124753 0.2373287786 0)
(2.760215445 0.236736032 0)
(2.77410016 0.2366040801 0)
(2.789432669 0.2366228099 0)
(2.803249459 0.2354462704 0)
(2.815683184 0.2336640983 0)
(2.82631517 0.2337494846 0)
(2.835639427 0.23426022 0)
(2.84516342 0.2336189962 0)
(2.852657534 0.2317272658 0)
(2.860648232 0.2305555169 0)
(2.870472347 0.23005201 0)
(2.880451073 0.2306888382 0)
(2.891187509 0.2302093459 0)
(2.903811679 0.2283409713 0)
(2.917176151 0.2284025039 0)
(2.92810474 0.2276916499 0)
(2.935217138 0.2238313559 0)
(2.942385753 0.2229267215 0)
(2.95201296 0.2206705889 0)
(2.961892348 0.2181112695 0)
(2.971569126 0.2163048945 0)
(2.980978231 0.2165139875 0)
(2.989907332 0.2165350242 0)
(2.998519164 0.2159959268 0)
(3.007404381 0.2150018127 0)
(3.018136604 0.2146985616 0)
(3.028811128 0.2135895887 0)
(3.041824614 0.2117368703 0)
(2.70579292 0.2570954512 0)
(2.720232397 0.257776281 0)
(2.735267413 0.2562349383 0)
(2.74959457 0.2531043147 0)
(2.763187523 0.2517868479 0)
(2.776736318 0.2543082718 0)
(2.788573094 0.254074438 0)
(2.80040224 0.2503840337 0)
(2.811620666 0.2472475621 0)
(2.821762087 0.2473538084 0)
(2.830180278 0.2495418653 0)
(2.836489735 0.2486113752 0)
(2.844312541 0.2485484089 0)
(2.854621306 0.2486095302 0)
(2.866349303 0.2483558786 0)
(2.878511106 0.2486943537 0)
(2.890885008 0.2470119698 0)
(2.902797778 0.2425534929 0)
(2.912994287 0.2409229448 0)
(2.920809138 0.2409073771 0)
(2.930975708 0.2411484095 0)
(2.94302506 0.2386691309 0)
(2.955588715 0.2359679888 0)
(2.966389802 0.233033082 0)
(2.975860635 0.2308037517 0)
(2.985061753 0.2313168888 0)
(2.993937421 0.2313354003 0)
(3.002821788 0.2295797802 0)
(3.012876403 0.2290241667 0)
(3.021164428 0.2294096185 0)
(3.026957675 0.2293304663 0)
(3.041750929 0.2274265038 0)
(2.702533935 0.2753757048 0)
(2.717770931 0.2751685601 0)
(2.732579838 0.2733459582 0)
(2.746670168 0.2712232497 0)
(2.759255581 0.2705030716 0)
(2.770044442 0.2700717951 0)
(2.781410052 0.2683428863 0)
(2.793582991 0.2668877705 0)
(2.804712176 0.2645717346 0)
(2.814528155 0.2658573394 0)
(2.823561946 0.2686160474 0)
(2.834819117 0.2674041736 0)
(2.847623185 0.2659832658 0)
(2.859667476 0.2646644289 0)
(2.87218549 0.2636431828 0)
(2.88488868 0.263346185 0)
(2.897495742 0.2612797012 0)
(2.908323577 0.257407832 0)
(2.913364554 0.2575713945 0)
(2.918943021 0.2588715656 0)
(2.92693115 0.2560655697 0)
(2.938764492 0.2512283485 0)
(2.951388097 0.2492965153 0)
(2.961579713 0.2467190124 0)
(2.971068414 0.2442163301 0)
(2.980601683 0.2442088877 0)
(2.990100712 0.2446231168 0)
(2.999520199 0.2429313527 0)
(3.007275903 0.2410527392 0)
(3.014343581 0.2448897708 0)
(3.021526566 0.2448972091 0)
(3.036368032 0.2393096577 0)
(2.703044435 0.292707846 0)
(2.716461356 0.2917496783 0)
(2.730063911 0.2897070466 0)
(2.743486567 0.2882956781 0)
(2.756409247 0.2893147701 0)
(2.769723291 0.2908406964 0)
(2.783713504 0.2889778212 0)
(2.795930693 0.2845839822 0)
(2.80745423 0.2817025943 0)
(2.81783436 0.2826704346 0)
(2.827354505 0.2850652073 0)
(2.837202482 0.2858954147 0)
(2.845923077 0.2817226723 0)
(2.85712969 0.2800972448 0)
(2.869834745 0.2792071473 0)
(2.883083324 0.2788902518 0)
(2.894720305 0.2772659315 0)
(2.905052538 0.2756194393 0)
(2.915902261 0.2724570939 0)
(2.926164026 0.2728033941 0)
(2.935657534 0.273751431 0)
(2.943042327 0.2701154512 0)
(2.94709945 0.26708546 0)
(2.95579537 0.2653063977 0)
(2.967130196 0.2630116864 0)
(2.977888637 0.2627132216 0)
(2.987536409 0.2627408706 0)
(2.996492992 0.2599829994 0)
(3.006879438 0.2579317146 0)
(3.016436474 0.2592449655 0)
(3.025960209 0.2597364196 0)
(3.039365671 0.2554692237 0)
(2.710855322 0.3100096366 0)
(2.723544172 0.3097636825 0)
(2.73499933 0.3096012923 0)
(2.74584759 0.3084537497 0)
(2.756584707 0.3082237971 0)
(2.767563451 0.3071671914 0)
(2.778990425 0.3036212372 0)
(2.791772042 0.2997615838 0)
(2.803515942 0.298012616 0)
(2.813701955 0.3000179881 0)
(2.822571246 0.3023284325 0)
(2.830431627 0.3003362818 0)
(2.841381126 0.2990350606 0)
(2.853588621 0.2972729593 0)
(2.866262892 0.2947829855 0)
(2.87931615 0.2942328183 0)
(2.890604242 0.2932784907 0)
(2.900876934 0.2894119773 0)
(2.912875199 0.2866716362 0)
(2.923573897 0.2869788006 0)
(2.930619815 0.28612624 0)
(2.936107539 0.2857346211 0)
(2.946873744 0.2836389019 0)
(2.959522323 0.2802645195 0)
(2.972886671 0.2778479561 0)
(2.984149552 0.2769880578 0)
(2.99313626 0.2761463989 0)
(3.000980304 0.2757745096 0)
(3.005265366 0.2726054349 0)
(3.01280452 0.2714765884 0)
(3.02111354 0.2713547364 0)
(3.035299389 0.2704251799 0)
(2.707470755 0.3229848877 0)
(2.719217848 0.3230988757 0)
(2.730324338 0.3248524313 0)
(2.741161953 0.3247814969 0)
(2.75345907 0.3239717895 0)
(2.767225551 0.322585663 0)
(2.77976981 0.3198996103 0)
(2.78969216 0.3169122044 0)
(2.798353258 0.3150665159 0)
(2.80752073 0.3170736039 0)
(2.817720847 0.3195257972 0)
(2.831072089 0.3175899373 0)
(2.844124503 0.3143808969 0)
(2.858321408 0.3135648612 0)
(2.873081686 0.3129366928 0)
(2.884395814 0.3119351014 0)
(2.893702425 0.3107769092 0)
(2.903042054 0.307780803 0)
(2.910940063 0.3038802095 0)
(2.917219463 0.3035403369 0)
(2.923975075 0.3054309962 0)
(2.93209093 0.3039214789 0)
(2.942644255 0.2976120374 0)
(2.956936137 0.2929050045 0)
(2.969987092 0.2906526574 0)
(2.980688901 0.2908145191 0)
(2.98889806 0.2905136244 0)
(2.994253674 0.2897851692 0)
(3.001215438 0.2882709722 0)
(3.00953234 0.2886963668 0)
(3.017032505 0.2894029164 0)
(3.031587083 0.2859056231 0)
(2.703825165 0.3395431049 0)
(2.717007234 0.3408528652 0)
(2.728684199 0.343434682 0)
(2.738826441 0.3417382541 0)
(2.750709973 0.3377725502 0)
(2.765134088 0.3355091021 0)
(2.779584707 0.3349853847 0)
(2.792325578 0.3347103637 0)
(2.803158796 0.333891535 0)
(2.81294283 0.335289558 0)
(2.822484794 0.3371714255 0)
(2.831105715 0.3344935844 0)
(2.841815464 0.3288514691 0)
(2.855082193 0.3267354709 0)
(2.868655874 0.3264490486 0)
(2.880214718 0.3275795226 0)
(2.88974665 0.3262800971 0)
(2.897603688 0.321782316 0)
(2.906294715 0.3210672884 0)
(2.917516329 0.3220198889 0)
(2.928309793 0.3206675957 0)
(2.940052649 0.3190137537 0)
(2.951681079 0.314179954 0)
(2.957830322 0.3093060954 0)
(2.965531927 0.3081626213 0)
(2.975484715 0.3090358926 0)
(2.985618744 0.3087755628 0)
(2.99638753 0.3064324364 0)
(3.005636418 0.3031600929 0)
(3.014692916 0.3040257687 0)
(3.022252514 0.3036081292 0)
(3.037876882 0.3007461539 0)
(2.710645649 0.3562460178 0)
(2.724660111 0.358237712 0)
(2.736898696 0.361194352 0)
(2.746965765 0.3592510694 0)
(2.757310844 0.3541214357 0)
(2.768366296 0.3511227248 0)
(2.779729525 0.350922412 0)
(2.790129433 0.3501262988 0)
(2.799241064 0.3484044197 0)
(2.807523271 0.3494544856 0)
(2.816835923 0.3516671534 0)
(2.830184627 0.3501005673 0)
(2.84476789 0.3465040823 0)
(2.85661137 0.3435710464 0)
(2.866630694 0.3422774688 0)
(2.87579661 0.342197656 0)
(2.884618407 0.3406785373 0)
(2.893877421 0.3376088087 0)
(2.903371935 0.3364562889 0)
(2.913435924 0.3355571213 0)
(2.925989277 0.3333124262 0)
(2.938106885 0.3303034808 0)
(2.948273011 0.3281645869 0)
(2.958660401 0.3256578264 0)
(2.968331878 0.3231000591 0)
(2.979106136 0.3227510211 0)
(2.989714701 0.3248993028 0)
(2.997153803 0.3221139062 0)
(3.004294536 0.3158717046 0)
(3.012149722 0.3172933106 0)
(3.019986696 0.3179923417 0)
(3.033913418 0.3131062331 0)
(2.715555133 0.3836100519 0)
(2.726505829 0.3800532998 0)
(2.736064124 0.3774868214 0)
(2.745737388 0.3738694339 0)
(2.753814401 0.3702214308 0)
(2.762429653 0.3673097805 0)
(2.772517144 0.3650416478 0)
(2.783756092 0.3652312364 0)
(2.794513423 0.3651011344 0)
(2.804756267 0.3668274117 0)
(2.815914393 0.3680541778 0)
(2.828491754 0.3643535271 0)
(2.841363565 0.3602072014 0)
(2.854179442 0.3581401091 0)
(2.866376305 0.3576841128 0)
(2.876525015 0.3576834356 0)
(2.885584534 0.3568341625 0)
(2.894855919 0.3545844255 0)
(2.903435168 0.3513636946 0)
(2.913131364 0.3514318695 0)
(2.924412289 0.3496848436 0)
(2.934741776 0.3476491503 0)
(2.944332721 0.3453487883 0)
(2.954170238 0.3404264566 0)
(2.9654699 0.3372100004 0)
(2.975983125 0.3366280315 0)
(2.984439245 0.3372735654 0)
(2.99281981 0.3365867006 0)
(3.001080883 0.3322197455 0)
(3.008340751 0.3342352771 0)
(3.015998949 0.3339140611 0)
(3.033895196 0.3295719749 0)
(2.708357216 0.403136678 0)
(2.720115025 0.3983978342 0)
(2.7311533 0.3963775214 0)
(2.742424631 0.3922887598 0)
(2.750175801 0.3879905466 0)
(2.759388445 0.3859765665 0)
(2.773531483 0.385647516 0)
(2.786062444 0.3835439599 0)
(2.797420856 0.3816204034 0)
(2.808915878 0.3820598426 0)
(2.8212987 0.3829699508 0)
(2.834913043 0.3810710883 0)
(2.845876965 0.3781140748 0)
(2.854959587 0.3756159069 0)
(2.863139199 0.3723611793 0)
(2.871445893 0.3724800907 0)
(2.881800353 0.3724139277 0)
(2.892967005 0.3701815396 0)
(2.905188124 0.3656591592 0)
(2.917658836 0.3647127052 0)
(2.929379897 0.3634914351 0)
(2.939733336 0.3619043328 0)
(2.950201319 0.3597802785 0)
(2.962288317 0.3568164063 0)
(2.972417167 0.3545875074 0)
(2.978996382 0.3545325476 0)
(2.986015896 0.355405194 0)
(2.994696904 0.352173454 0)
(3.004595362 0.3470454173 0)
(3.012796561 0.3476354851 0)
(3.01952409 0.3480847499 0)
(3.032032324 0.3433927851 0)
(2.703580918 0.4176720207 0)
(2.720936569 0.4157582319 0)
(2.734178249 0.4119577185 0)
(2.746872137 0.4089553147 0)
(2.759825314 0.4098110861 0)
(2.76888924 0.4088202041 0)
(2.774758113 0.4050671475 0)
(2.78343853 0.401155581 0)
(2.7944973 0.3983837803 0)
(2.806140344 0.3975378458 0)
(2.818760927 0.3974034701 0)
(2.831382361 0.3960026345 0)
(2.841719959 0.3935565043 0)
(2.849288511 0.3903721985 0)
(2.860348411 0.388736738 0)
(2.873237319 0.3875166458 0)
(2.885989268 0.3860877366 0)
(2.89791257 0.3830205407 0)
(2.908894258 0.381449232 0)
(2.918089502 0.3788436009 0)
(2.927543211 0.3781639386 0)
(2.937549512 0.3779490154 0)
(2.948508058 0.3751859985 0)
(2.959493338 0.3714303208 0)
(2.968684696 0.3703113698 0)
(2.97596952 0.3705639552 0)
(2.982197355 0.3695177353 0)
(2.991956185 0.3648947329 0)
(3.001699243 0.3593162421 0)
(3.008984501 0.3608123797 0)
(3.01391612 0.3605910619 0)
(3.026044798 0.3576615705 0)
(2.709340995 0.4191629819 0)
(2.715035257 0.4330044288 0)
(2.730806798 0.4305912755 0)
(2.744958006 0.4279800316 0)
(2.756654248 0.4259377868 0)
(2.766149057 0.4239132424 0)
(2.777215292 0.4213914848 0)
(2.790158536 0.4193049954 0)
(2.802869265 0.4179660249 0)
(2.81401235 0.4179524371 0)
(2.823965173 0.4179180252 0)
(2.832605966 0.4143471619 0)
(2.84063852 0.4093388436 0)
(2.851118039 0.4066411228 0)
(2.861134761 0.40483347 0)
(2.872251149 0.4025927544 0)
(2.883838257 0.4008629656 0)
(2.894140859 0.396620017 0)
(2.902493251 0.3933825129 0)
(2.911339279 0.3927843644 0)
(2.921504183 0.3929490012 0)
(2.933148354 0.3936897604 0)
(2.944468353 0.3908613626 0)
(2.953827144 0.3862422145 0)
(2.962817291 0.3850230538 0)
(2.973198975 0.3857145202 0)
(2.98481459 0.3849263004 0)
(2.993210739 0.3800719649 0)
(2.997482356 0.375655796 0)
(3.002775388 0.3773063295 0)
(3.011099814 0.3769162554 0)
(3.028445326 0.3734700867 0)
(2.7080697 0.4410208125 0)
(2.710920671 0.4545425208 0)
(2.731365898 0.4564990035 0)
(2.75009849 0.4514387297 0)
(2.758095643 0.4453527213 0)
(2.766632151 0.4395018121 0)
(2.779078309 0.435921939 0)
(2.792256139 0.4346868905 0)
(2.803301956 0.4330921497 0)
(2.812174904 0.4321315407 0)
(2.820586174 0.4321668004 0)
(2.831119969 0.4304606657 0)
(2.843426396 0.4270534548 0)
(2.85369091 0.4244977886 0)
(2.863110583 0.4224617376 0)
(2.87385069 0.420770742 0)
(2.88509268 0.4200576934 0)
(2.896114524 0.4170959442 0)
(2.906053373 0.4132903472 0)
(2.915611168 0.4116190285 0)
(2.924926951 0.410429849 0)
(2.932763605 0.4093954487 0)
(2.942044994 0.4064158698 0)
(2.953507462 0.4037334501 0)
(2.965466463 0.4020027654 0)
(2.976853848 0.4005825139 0)
(2.987198982 0.4005824373 0)
(2.993463403 0.3965694601 0)
(2.998109803 0.3901496866 0)
(3.005004322 0.3916461197 0)
(3.013649923 0.3934430125 0)
(3.027625036 0.3870554569 0)
(2.781311338 0.347147835 0)
(2.74003194 0.4447004593 0)
(2.732216108 0.4669023127 0)
(2.743762221 0.4695445245 0)
(2.758873123 0.4624066754 0)
(2.769091801 0.4566616474 0)
(2.780120245 0.4511744425 0)
(2.791627293 0.4483418091 0)
(2.802709606 0.4472921384 0)
(2.812039011 0.4483709835 0)
(2.820947667 0.4500751558 0)
(2.831091519 0.4484012223 0)
(2.840406742 0.4434576027 0)
(2.848349396 0.4386232011 0)
(2.85724487 0.4350680271 0)
(2.867799839 0.4339810861 0)
(2.879684124 0.4341357755 0)
(2.891480982 0.4315261148 0)
(2.900910608 0.426751396 0)
(2.909662765 0.4244779687 0)
(2.921011815 0.4249436348 0)
(2.932871719 0.4260329277 0)
(2.94276962 0.4242776822 0)
(2.951802109 0.4214195037 0)
(2.961360558 0.417583408 0)
(2.971710818 0.4132024542 0)
(2.979348124 0.4128622155 0)
(2.985472086 0.4085353687 0)
(2.992966822 0.4028230045 0)
(3.00021702 0.4040102711 0)
(3.008919343 0.4060906345 0)
(3.027030129 0.4028346496 0)
(2.842425756 0.2729745626 0)
(2.755078578 0.4599700182 0)
(2.730641344 0.4886249924 0)
(2.739021963 0.4882320367 0)
(2.753145701 0.4829131189 0)
(2.769851968 0.4762502968 0)
(2.786148327 0.4701027404 0)
(2.79711843 0.4653893728 0)
(2.803826471 0.4631786729 0)
(2.810272715 0.465984537 0)
(2.817823422 0.4679620518 0)
(2.826988542 0.4640824633 0)
(2.837111221 0.4586463 0)
(2.848429288 0.4564637207 0)
(2.861137573 0.455953224 0)
(2.873728791 0.4544640171 0)
(2.883932754 0.451737888 0)
(2.892061269 0.4471150207 0)
(2.901046497 0.4437485404 0)
(2.911088558 0.4441955199 0)
(2.919913179 0.4431745705 0)
(2.926447716 0.440657116 0)
(2.933841764 0.437372148 0)
(2.944587703 0.434301871 0)
(2.957348062 0.4310699567 0)
(2.970195856 0.4292375001 0)
(2.980852164 0.430447071 0)
(2.990112076 0.4265389034 0)
(2.997690744 0.421828258 0)
(3.004139549 0.4240892604 0)
(3.012525318 0.4209654491 0)
(3.031078674 0.4159957566 0)
(2.914852016 0.09621682496 0)
(2.810296071 0.3350001823 0)
(2.769245243 0.4375701587 0)
(2.746232566 0.4957335323 0)
(2.748778888 0.5012112808 0)
(2.763581731 0.4943351004 0)
(2.780809044 0.4886342177 0)
(2.793964592 0.4865118122 0)
(2.799705088 0.4833549348 0)
(2.802732119 0.4813695959 0)
(2.810211041 0.4810446223 0)
(2.823582026 0.4782930036 0)
(2.837854368 0.4746124108 0)
(2.849970669 0.4732614248 0)
(2.860963831 0.4721010496 0)
(2.871792371 0.4698554784 0)
(2.88233825 0.4678045696 0)
(2.892350308 0.4642066804 0)
(2.900043559 0.4607860285 0)
(2.905631254 0.4582007183 0)
(2.912961304 0.4572766105 0)
(2.923552938 0.458156309 0)
(2.937151392 0.4555757779 0)
(2.950553011 0.4514534678 0)
(2.962946394 0.4486279526 0)
(2.972797779 0.4488020024 0)
(2.978547312 0.4483716594 0)
(2.985655908 0.4412294099 0)
(2.993525868 0.43546618 0)
(3.001618855 0.4364645431 0)
(3.011057322 0.4339009252 0)
(3.02910968 0.4290022413 0)
(2.954532617 -0.003832401692 0)
(2.914145219 0.1370769275 0)
(2.791139364 0.4188476085 0)
(2.751152849 0.5012118228 0)
(2.752426398 0.5188786361 0)
(2.765790326 0.5158456166 0)
(2.77862326 0.5108277771 0)
(2.786876732 0.5052291181 0)
(2.793497583 0.5028213578 0)
(2.801075515 0.5009407151 0)
(2.810694704 0.4971219074 0)
(2.822600672 0.4916170059 0)
(2.835552175 0.4875754215 0)
(2.848177898 0.4861636308 0)
(2.85933108 0.4855659941 0)
(2.868308646 0.4843155071 0)
(2.875744528 0.4812777793 0)
(2.883005291 0.4769660221 0)
(2.890933096 0.4751409136 0)
(2.899176922 0.475373961 0)
(2.908774573 0.4743714508 0)
(2.920356553 0.4723635688 0)
(2.934642004 0.468413637 0)
(2.948190623 0.4644252029 0)
(2.958770507 0.4613141552 0)
(2.966229917 0.4609611286 0)
(2.9725859 0.4619062346 0)
(2.9820487 0.4561299292 0)
(2.992682749 0.4498978714 0)
(3.003750127 0.4507419608 0)
(3.013346301 0.4504126248 0)
(3.027602092 0.4454527782 0)
(2.970393146 -0.03328784463 0)
(2.959537593 0.03633856426 0)
(2.895807703 0.2131586783 0)
(2.794132647 0.4234808202 0)
(2.775957809 0.5021145706 0)
(2.774489121 0.5247223355 0)
(2.778087997 0.5320212081 0)
(2.783460088 0.5292457664 0)
(2.78857749 0.5249352147 0)
(2.797235035 0.5169981468 0)
(2.807859351 0.5093534891 0)
(2.819386763 0.5033327126 0)
(2.832241989 0.4993547443 0)
(2.846388213 0.4984725927 0)
(2.859601617 0.499418498 0)
(2.868235327 0.5005382823 0)
(2.874410231 0.501570329 0)
(2.882738463 0.4990877063 0)
(2.891934127 0.4940140481 0)