/*--------------------------------*- C++ -*----------------------------------*\
  =========                 |
  \\      /  F ield         | OpenFOAM: The Open Source CFD Toolbox
   \\    /   O peration     | Website:  https://openfoam.org
    \\  /    A nd           | Version:  7
     \\/     M anipulation  |
\*---------------------------------------------------------------------------*/
FoamFile
{
    version     2.0;
    format      ascii;
    class       volScalarField;
    location    "0.9";
    object      rho;
}
// * * * * * * * * * * * * * * * * * * * * * * * * * * * * * * * * * * * * * //

dimensions      [1 -3 0 0 0 0 0];

internalField   nonuniform List<scalar> 
2222
(
1.337592212
1.337719426
1.338502278
1.338722785
1.33798906
1.338304969
1.338261009
1.33734813
1.336531098
1.336415523
1.336765913
1.336899331
1.33677346
1.336247465
1.335884454
1.335874788
1.336044334
1.336059135
1.335568516
1.335314625
1.335776287
1.33686772
1.337574789
1.337646674
1.33738507
1.337044707
1.336930263
1.337272818
1.337865165
1.338035411
1.337709724
1.337352644
1.337553193
1.338006539
1.334939838
1.335425479
1.336179194
1.336479016
1.336433304
1.336744844
1.337154424
1.336694551
1.335818175
1.33563966
1.335990418
1.336660614
1.33729824
1.337275629
1.336757163
1.336108217
1.335631574
1.335452637
1.335173888
1.334810207
1.334627429
1.33533086
1.336701721
1.337802416
1.338069333
1.337743293
1.337324123
1.337040792
1.337180874
1.337650516
1.33773895
1.337407584
1.337139368
1.337374578
1.334584597
1.334867158
1.335066161
1.335142317
1.335106828
1.335341266
1.335722571
1.33573084
1.335230241
1.33503377
1.335378924
1.33633263
1.337568384
1.338057187
1.337658768
1.336592097
1.335457225
1.334781089
1.334648492
1.334568192
1.33428571
1.334297915
1.335364971
1.337153433
1.33822535
1.338314732
1.337875912
1.337207076
1.336827546
1.337067611
1.337513092
1.337434082
1.337132607
1.337123203
1.334222949
1.334540747
1.334580213
1.334491988
1.334387922
1.334381199
1.33441209
1.334519301
1.334690433
1.334850122
1.335202184
1.335974117
1.337059542
1.337792854
1.337754842
1.336915947
1.335671909
1.334592116
1.33428618
1.334324121
1.334361883
1.334426552
1.334954544
1.336168905
1.337442788
1.338048695
1.338011803
1.337573367
1.337121772
1.336935386
1.337107559
1.33732921
1.337195861
1.337102905
1.333973004
1.334542133
1.334604575
1.334417766
1.334133629
1.333932876
1.333777519
1.333878761
1.334360623
1.33482827
1.335180462
1.335657525
1.336206828
1.33663147
1.337003817
1.336928381
1.336062641
1.334794266
1.334120633
1.33405558
1.334344765
1.334619421
1.334944188
1.335532312
1.336325517
1.33711803
1.337702856
1.337849909
1.337574359
1.337244787
1.336959276
1.33704832
1.337209671
1.337159016
1.333846659
1.334645925
1.334878976
1.334793072
1.334384459
1.334111617
1.333946441
1.33396931
1.334278035
1.334731459
1.335080048
1.335428146
1.335548311
1.33559853
1.335796772
1.336168978
1.336079944
1.335313757
1.334450772
1.333997406
1.334200536
1.334705186
1.335187378
1.335623601
1.335978699
1.336420967
1.337035938
1.337501796
1.337680242
1.337530367
1.337190858
1.336987683
1.337068689
1.337005987
1.333853432
1.334507446
1.335128497
1.335348344
1.335055665
1.334739396
1.334554198
1.334467665
1.334479609
1.334523088
1.334509448
1.334539542
1.334542144
1.33487792
1.334997649
1.335121447
1.335443998
1.335626585
1.33506729
1.334319369
1.334140424
1.334551088
1.335175308
1.335556804
1.335906734
1.336279348
1.336591837
1.336876152
1.337306614
1.337515423
1.337344837
1.337063489
1.336830892
1.336576327
1.334025678
1.334620568
1.335282889
1.33568152
1.335789276
1.335592534
1.335403324
1.335295849
1.334973888
1.334420212
1.333740969
1.333348327
1.333509645
1.334264914
1.334693557
1.334741797
1.334935325
1.335472873
1.335589597
1.335187864
1.334609886
1.334368108
1.3344402
1.334877434
1.335703074
1.336336872
1.336554502
1.336572795
1.336748614
1.337009673
1.337097937
1.336980702
1.336601001
1.336185546
1.334310237
1.33495852
1.335521052
1.336111864
1.336512178
1.336491421
1.336158433
1.335871399
1.335174111
1.334199058
1.333325584
1.332925922
1.333147365
1.333730282
1.33438859
1.334710075
1.334958048
1.335464385
1.335909558
1.335906434
1.335241584
1.334343846
1.333903705
1.334260085
1.335180284
1.336081875
1.33646834
1.336528621
1.336453884
1.33631893
1.336490073
1.336669475
1.336455391
1.336106615
1.333452893
1.334455637
1.335229175
1.335640068
1.336224937
1.336788298
1.336921108
1.336537825
1.3359077
1.335050086
1.334298123
1.333740821
1.333427561
1.333413479
1.333543096
1.334204591
1.334834045
1.335153332
1.335340151
1.335654312
1.335919345
1.335513585
1.334681083
1.334149243
1.334270103
1.33467788
1.335246408
1.335916096
1.336406709
1.336421758
1.336099093
1.335944724
1.336088438
1.336246059
1.336169179
1.333321846
1.334090951
1.335285141
1.335718343
1.335931836
1.33630836
1.336539069
1.336197616
1.33532655
1.334666279
1.334437953
1.334470129
1.334461732
1.334230545
1.333973598
1.3341992
1.334699446
1.33514016
1.335040613
1.334892203
1.334979296
1.335107151
1.335045693
1.334931185
1.334824583
1.334674625
1.334729424
1.335120919
1.335898559
1.336236029
1.336009038
1.335710367
1.335618233
1.335892628
1.336139362
1.333303277
1.333666551
1.334678649
1.33540115
1.335629749
1.335653808
1.335653072
1.33529474
1.334498636
1.334015489
1.334067713
1.334592156
1.335180921
1.33528651
1.33496825
1.334633585
1.334451165
1.334533644
1.334415083
1.334115561
1.333656052
1.33376154
1.334569086
1.335352572
1.335551679
1.33525436
1.334904681
1.334874165
1.335207598
1.335608521
1.335773604
1.335675424
1.335406218
1.335470095
1.335816907
1.33290007
1.333250697
1.333794591
1.334497884
1.334745115
1.334584308
1.334513393
1.334290395
1.334022362
1.33393476
1.334030528
1.33440126
1.335143761
1.335747847
1.335869759
1.335380868
1.334636882
1.333862835
1.333422282
1.33322377
1.332981658
1.33301622
1.333692722
1.334864839
1.335773948
1.335936257
1.335617653
1.335257567
1.33504554
1.335015284
1.33525809
1.335522393
1.335470084
1.335419926
1.335745505
1.33245546
1.333007107
1.333354195
1.333685837
1.333927456
1.333788821
1.333691884
1.333627171
1.333689311
1.333969482
1.334189325
1.334378875
1.334854888
1.335553311
1.335970154
1.335630906
1.334571723
1.333420073
1.332764648
1.332540118
1.332630528
1.332844125
1.333221266
1.334116052
1.335203514
1.335972548
1.336166288
1.335854978
1.335310794
1.334900921
1.334945924
1.335284449
1.335538601
1.335637375
1.335956634
1.332190369
1.333036379
1.333333432
1.333392022
1.333608135
1.333609034
1.333497731
1.333391801
1.333480352
1.333920621
1.334319436
1.334503518
1.334765005
1.335112661
1.335429086
1.335330626
1.334547909
1.333456825
1.332539721
1.332285044
1.33249699
1.332892539
1.333307172
1.333921372
1.33473024
1.335569695
1.33602648
1.336143498
1.335834975
1.335302728
1.335095882
1.335228635
1.335606986
1.33587909
1.336200721
1.332182504
1.333117759
1.333624889
1.333632958
1.333618698
1.333693711
1.3337375
1.333570363
1.333490675
1.333695231
1.334094435
1.334490868
1.334840135
1.334896107
1.334734793
1.334519539
1.334381159
1.33375008
1.332835826
1.332330193
1.332484226
1.332954518
1.333486457
1.33407915
1.334661828
1.335171525
1.335604682
1.335903428
1.336099004
1.335981568
1.335723648
1.33560537
1.335710294
1.33598217
1.336349716
1.332541387
1.33315171
1.333869452
1.334146123
1.334084818
1.334126435
1.334223627
1.334074454
1.333828814
1.33366744
1.333697357
1.334130377
1.334793215
1.33492661
1.334615893
1.334230092
1.334054684
1.33378698
1.333327629
1.332715335
1.332687512
1.333108377
1.33370671
1.33430137
1.334822251
1.335100197
1.335392579
1.335748223
1.33608751
1.336396013
1.336424148
1.336165311
1.33582155
1.335873881
1.336060084
1.333095837
1.3334486
1.334010936
1.334588661
1.334782429
1.334797025
1.334788092
1.334723881
1.334503782
1.334065759
1.333665759
1.333751086
1.3343552
1.334830115
1.334841764
1.334420702
1.333893718
1.333675915
1.333584147
1.333332089
1.333185509
1.333373205
1.333773963
1.334270611
1.334754335
1.335147584
1.335609251
1.335908444
1.336143222
1.33645905
1.336592563
1.336476193
1.336222389
1.336016845
1.335830774
1.333618775
1.334003419
1.334376008
1.335044486
1.335460412
1.335498566
1.335240983
1.335169845
1.335074105
1.334532075
1.333896594
1.333720061
1.333968204
1.334505182
1.335021178
1.334792775
1.334074125
1.333709197
1.333852067
1.334070084
1.334001447
1.333853067
1.33387749
1.334066258
1.334457572
1.335153307
1.335814949
1.336110708
1.33621363
1.336330005
1.336470422
1.336565829
1.336408342
1.336135248
1.335630881
1.333929852
1.334676089
1.335007354
1.335500247
1.335892836
1.336009222
1.335625742
1.335369971
1.335273087
1.334903323
1.334445825
1.33425823
1.3342165
1.334346709
1.334713536
1.334882375
1.334419659
1.334058581
1.334237719
1.334662203
1.334731716
1.334480376
1.334198076
1.334063211
1.334324503
1.334976006
1.33558934
1.336107337
1.336324096
1.336263236
1.336222551
1.336375055
1.336374223
1.336119282
1.335476736
1.334275716
1.335301587
1.335803523
1.336167409
1.33627612
1.336357547
1.336051706
1.335544956
1.33523375
1.335098849
1.33513664
1.335154586
1.334934406
1.334708911
1.334507629
1.334543617
1.334720369
1.334633806
1.334673997
1.334878282
1.335020961
1.33496877
1.334713154
1.334582102
1.334885909
1.335141196
1.335286279
1.335659778
1.336136503
1.336281917
1.336214856
1.336181337
1.336280114
1.336084361
1.335462967
1.335029353
1.335921947
1.336667323
1.336992482
1.336848569
1.336699178
1.336520459
1.3359536
1.335446269
1.335332086
1.335610785
1.335957796
1.335840966
1.335480128
1.335003518
1.334576747
1.334927857
1.335259933
1.335205045
1.335001978
1.334960493
1.33516418
1.33544304
1.335650202
1.335849175
1.335762084
1.335432714
1.335397156
1.335756036
1.336140761
1.336310705
1.336239201
1.336184036
1.335943159
1.335355501
1.336063375
1.336721866
1.337434886
1.337791576
1.337641234
1.337233403
1.337042868
1.336607186
1.336113784
1.335955193
1.335982246
1.336375966
1.336595898
1.336346736
1.33586747
1.335592967
1.335473914
1.335775823
1.335722764
1.335260289
1.335004288
1.335265498
1.336023989
1.336646734
1.336658236
1.336211084
1.335969302
1.335988807
1.335936372
1.336133624
1.33639428
1.336384033
1.336084277
1.335857541
1.335899838
1.336236843
1.337339107
1.337777288
1.338122081
1.338456783
1.338465853
1.338001091
1.337635213
1.337402979
1.337142992
1.336907859
1.336659406
1.33666172
1.337013576
1.337338478
1.337282219
1.337066813
1.336634433
1.336366845
1.336296117
1.336034532
1.33578877
1.335820496
1.336187378
1.336897198
1.337150732
1.337103285
1.337142887
1.33691187
1.336649852
1.336583033
1.336438733
1.336339402
1.336401811
1.336686488
1.337015417
1.337124226
1.338521747
1.339024662
1.338999929
1.338988755
1.339104707
1.338874532
1.338389916
1.338257269
1.338245969
1.338018285
1.337451926
1.337329081
1.337596548
1.338212239
1.338668143
1.33859183
1.338039824
1.337306547
1.336998799
1.336956037
1.336886635
1.336650342
1.336532929
1.336674331
1.337168752
1.337905244
1.33815503
1.338008223
1.337793571
1.337265393
1.33673311
1.336753125
1.337372444
1.337850922
1.338289877
1.338336895
1.339479542
1.340265588
1.340005531
1.339730456
1.339760316
1.339852689
1.339463608
1.339205121
1.339140076
1.338991224
1.338816253
1.338742513
1.338825284
1.339073201
1.339541123
1.339762806
1.339378172
1.338474208
1.337919812
1.337749842
1.337788553
1.337525141
1.337131502
1.336962601
1.337306062
1.33818565
1.338771837
1.338961
1.338697671
1.338115498
1.337646161
1.337808498
1.338458545
1.339440736
1.339837152
1.339672174
1.340380451
1.341275616
1.341300567
1.341026514
1.340810003
1.340940876
1.340742742
1.340249294
1.33986703
1.339860587
1.340150606
1.34036069
1.340411793
1.340215988
1.3402246
1.340269872
1.3403104
1.339729145
1.338950445
1.338431987
1.338208304
1.338069882
1.337747404
1.33775061
1.338286619
1.338792454
1.339100469
1.339387958
1.339538442
1.339267774
1.33912517
1.339276397
1.33972157
1.340394031
1.340880712
1.341142321
1.341520884
1.342029671
1.342718802
1.342574694
1.342179285
1.341952075
1.341905096
1.341336325
1.340813092
1.340681548
1.341143778
1.341677797
1.341745929
1.341511637
1.341122247
1.340673171
1.340432935
1.340340481
1.339748534
1.339014292
1.338339483
1.338177687
1.338597802
1.338987156
1.339578498
1.339786737
1.339853864
1.339922742
1.340010194
1.340380277
1.340732056
1.34107219
1.341111838
1.341201972
1.341354106
1.342320375
1.342742249
1.342944248
1.343653317
1.343880424
1.343383139
1.342817787
1.34262027
1.342360889
1.341895201
1.341683706
1.341775094
1.342328943
1.342737265
1.342559643
1.341953829
1.340984097
1.340395984
1.34021575
1.339892665
1.339412947
1.338988691
1.338954004
1.339321941
1.340198019
1.340702944
1.340918734
1.340694602
1.340775379
1.34095537
1.34135836
1.342113058
1.342361389
1.342251179
1.3419872
1.34168335
1.342879255
1.343775651
1.343882901
1.34428433
1.344487172
1.344134127
1.343482574
1.342990566
1.343008211
1.342846638
1.342566748
1.342507853
1.342542099
1.3428665
1.343189886
1.34265427
1.341813171
1.340777615
1.340355397
1.340431756
1.340478691
1.340335282
1.339986887
1.340081704
1.340618876
1.341163323
1.34145585
1.34162523
1.341753283
1.341988407
1.342358044
1.342724748
1.343066803
1.343001513
1.342535921
1.342136165
1.343146034
1.344354144
1.344694273
1.344788985
1.344527901
1.344474864
1.344086116
1.343439407
1.343190671
1.343393956
1.343299289
1.343172695
1.342933836
1.342751026
1.342807508
1.343004863
1.342524448
1.341785543
1.341065504
1.341117234
1.341438235
1.341488556
1.341272061
1.340852413
1.340818017
1.340844845
1.341218056
1.342223423
1.342672774
1.343047856
1.343161887
1.343202116
1.343096571
1.343003167
1.34296594
1.342614779
1.34338998
1.344378416
1.345145067
1.345108548
1.344640436
1.344563693
1.344505466
1.343834949
1.343199213
1.343217243
1.343574523
1.343580979
1.343347967
1.342887179
1.342562613
1.342579115
1.342852932
1.342568049
1.341949665
1.341607817
1.341779144
1.341929865
1.341937994
1.341446566
1.340697706
1.340680386
1.341128829
1.34205756
1.343173295
1.343582763
1.343741731
1.343500813
1.342935753
1.343040664
1.343200559
1.342760488
1.343604359
1.344134635
1.345222632
1.345239218
1.3449341
1.344656475
1.344599191
1.344093569
1.343372153
1.342871554
1.342959775
1.343436839
1.343428817
1.343177848
1.342782557
1.342448018
1.342438428
1.342873369
1.342535752
1.342023638
1.3417833
1.341911107
1.342119531
1.342113598
1.341828267
1.341390971
1.341624729
1.342058409
1.342709873
1.343508176
1.343803826
1.343390149
1.343119936
1.343156016
1.343106847
1.342886248
1.34393818
1.344061271
1.344731518
1.345404592
1.345358516
1.344953542
1.344455126
1.344146168
1.343400367
1.342548071
1.342255924
1.342614435
1.343461269
1.343746419
1.34347874
1.342661171
1.342229448
1.342337268
1.342724999
1.342132418
1.34152836
1.341461108
1.341894618
1.342497969
1.342766058
1.342980914
1.342881822
1.342507058
1.342461812
1.342521819
1.343083364
1.34342206
1.343479288
1.34324642
1.342931796
1.343123128
1.344181462
1.344199541
1.344404513
1.34523577
1.345527927
1.345227661
1.344339692
1.343971502
1.343666087
1.343062663
1.342142428
1.342001367
1.342707311
1.343807184
1.343868556
1.343408151
1.342379042
1.341844697
1.342034932
1.342158672
1.341593239
1.341353996
1.341337531
1.342286436
1.343222648
1.343829712
1.344226671
1.343801641
1.342433402
1.342102108
1.342186264
1.342983095
1.34351226
1.343314169
1.343154829
1.343332888
1.344199242
1.344508441
1.344454962
1.344677425
1.345454387
1.345230554
1.344476436
1.343924038
1.343751543
1.343655824
1.343024518
1.342078292
1.341983798
1.342690125
1.34382508
1.343783489
1.343037275
1.341990751
1.341359579
1.341843901
1.341925664
1.341586646
1.341452998
1.341619957
1.343117793
1.344318626
1.344596176
1.344410971
1.343642761
1.342324333
1.34201998
1.342268937
1.342804387
1.343379543
1.343458978
1.34368866
1.343955872
1.344607452
1.344688852
1.344454834
1.344757458
1.34510624
1.344670844
1.343866464
1.343631594
1.343648727
1.34365379
1.343072479
1.342019325
1.341875746
1.342491278
1.343669272
1.343427055
1.342506366
1.341560389
1.341106871
1.342019616
1.342045039
1.341789137
1.34170003
1.342143929
1.34347321
1.344410863
1.344298986
1.343962671
1.343642284
1.342671635
1.342134643
1.34227403
1.342790536
1.343691253
1.344074049
1.343382392
1.343568511
1.344409413
1.344822916
1.344564904
1.344064238
1.344249019
1.344538965
1.34376311
1.34297981
1.343095238
1.343531405
1.343678028
1.343109719
1.342011331
1.341702335
1.342258881
1.343434253
1.342994111
1.341945819
1.341239206
1.341130021
1.342327011
1.342250273
1.341958522
1.341932049
1.342051643
1.342376701
1.343143475
1.343813264
1.343886444
1.343636047
1.342805865
1.34234137
1.342628567
1.343247144
1.34417228
1.343150192
1.343180029
1.343567468
1.344487859
1.34444537
1.34351361
1.343144457
1.343689429
1.343398252
1.342456767
1.341859962
1.342502099
1.343352286
1.343513234
1.343054667
1.341871947
1.341333079
1.342035005
1.342996073
1.342571903
1.341518979
1.340832812
1.341089385
1.342034849
1.342087767
1.341904115
1.341343504
1.341143443
1.341440613
1.342539292
1.34347469
1.343558652
1.343424456
1.343019485
1.342749288
1.343064835
1.343618331
1.342298602
1.34261587
1.342506489
1.343209368
1.343586908
1.343123813
1.342046586
1.341956193
1.3423119
1.341927623
1.340925681
1.340565314
1.341683319
1.34280105
1.342804365
1.342643538
1.341248302
1.340817206
1.341579866
1.342284902
1.341920657
1.340733317
1.3399823
1.340382061
1.341359992
1.341242797
1.340992871
1.34064942
1.340797743
1.341192315
1.3418158
1.342831133
1.343371657
1.34348989
1.343406084
1.343130341
1.343106316
1.340015784
1.340953966
1.340828345
1.340938249
1.341321286
1.34145958
1.34081666
1.339824915
1.340133279
1.340482938
1.340018135
1.338881916
1.338754182
1.339898147
1.341470626
1.341423316
1.341293229
1.340037328
1.339697895
1.340588506
1.340883055
1.340586382
1.33881984
1.338135803
1.338427045
1.33950148
1.340180364
1.340744839
1.340781448
1.340637389
1.340746983
1.341023907
1.342015008
1.342978004
1.343309564
1.343390061
1.342848887
1.336515856
1.337973855
1.338425823
1.337842672
1.3377682
1.338527644
1.338389158
1.337190923
1.336807382
1.337579959
1.337722037
1.336972471
1.335797038
1.335885063
1.336972115
1.33864021
1.339038181
1.338795899
1.337374075
1.337491857
1.33822594
1.338518023
1.337494558
1.33544062
1.335326929
1.336183699
1.338098949
1.339474433
1.340021408
1.340255164
1.339953982
1.339787122
1.339907753
1.340815983
1.3421041
1.342441131
1.34239983
1.331895589
1.332762257
1.334046937
1.334024314
1.333317187
1.333578003
1.334215558
1.333609632
1.332438049
1.332477875
1.333401702
1.333328188
1.332443751
1.331359598
1.331575781
1.332581157
1.334405615
1.334947586
1.334351326
1.333177363
1.333096717
1.333777651
1.334190256
1.333845364
1.332373371
1.332817934
1.333909156
1.335733636
1.337706203
1.338389288
1.338574662
1.338325692
1.33800067
1.338135626
1.338783451
1.340016798
1.340499423
1.32563325
1.325951715
1.327300147
1.328108082
1.327558977
1.327098695
1.327691835
1.327846163
1.326737185
1.325881427
1.326057722
1.327103901
1.327135318
1.326366216
1.325247378
1.325489665
1.326480278
1.328184392
1.328451443
1.327122267
1.3265801
1.327057201
1.328909124
1.329734638
1.329763338
1.328859285
1.329369422
1.330599766
1.332426974
1.334377412
1.335218734
1.335378248
1.33546516
1.334860834
1.334933446
1.335323015
1.336288795
1.317367902
1.317303724
1.318034381
1.319581728
1.319902842
1.318905542
1.318951242
1.319540194
1.319291305
1.317509378
1.316938591
1.317547279
1.318652287
1.318840879
1.318379781
1.317288951
1.317440891
1.318207156
1.320026245
1.320230882
1.319400048
1.319490304
1.320503773
1.322891675
1.324048266
1.324484032
1.324009647
1.324614442
1.325919156
1.32736732
1.328942821
1.330118046
1.330396537
1.330562841
1.329686283
1.3294787
1.32972666
1.306510554
1.30679244
1.307023507
1.307987233
1.309344804
1.309177606
1.308206002
1.308410356
1.308735413
1.308106269
1.30621764
1.306003283
1.306825324
1.308126416
1.308520547
1.308376114
1.307186889
1.307353528
1.308329436
1.310368185
1.310619928
1.310107875
1.310723113
1.312286203
1.315061005
1.316605743
1.317655553
1.317885944
1.31810691
1.319079963
1.320175364
1.321478114
1.322749847
1.323074454
1.323090751
1.321986954
1.322017005
1.293097539
1.294445418
1.294224799
1.294699803
1.296001028
1.296763576
1.295907503
1.295333865
1.295742391
1.296007648
1.294753982
1.293204177
1.293154238
1.294127116
1.29583967
1.296518969
1.296375322
1.295198781
1.295863467
1.297228142
1.299260555
1.299451515
1.299239635
1.300227805
1.302134323
1.305278176
1.307508568
1.30911499
1.309883473
1.309756992
1.310064138
1.310942954
1.311793475
1.312787174
1.313454736
1.313536128
1.31350156
1.277882947
1.280104957
1.280577834
1.280210611
1.280834731
1.282326051
1.282462612
1.281142855
1.281075314
1.281831723
1.281884529
1.280147011
1.27893609
1.279180138
1.28026962
1.282289899
1.283296052
1.28314912
1.282330624
1.283417127
1.28550191
1.286874377
1.286905997
1.287043515
1.288457212
1.290597814
1.294050641
1.296842611
1.298536944
1.299657038
1.299616907
1.299158756
1.299522877
1.30007056
1.300933685
1.30212451
1.303279153
1.262652191
1.264439489
1.266054043
1.265737463
1.265600238
1.266504264
1.267711827
1.267041003
1.26619624
1.266368013
1.267363924
1.267095925
1.265239142
1.264433708
1.265005541
1.266158599
1.268601426
1.26980184
1.269724139
1.269151835
1.270456335
1.272866219
1.27389455
1.273706548
1.27416915
1.276031513
1.27841029
1.281668119
1.284748113
1.286596941
1.287767463
1.287772406
1.286869326
1.286832215
1.287423188
1.28832859
1.290858874
1.248221103
1.248082225
1.249282109
1.251362264
1.252083301
1.251069374
1.251535466
1.25285433
1.253373574
1.251958282
1.251702546
1.252280614
1.25319301
1.252916542
1.251401522
1.250566771
1.251476556
1.252931805
1.255799398
1.256908258
1.256418197
1.256250195
1.257779074
1.260014304
1.261020144
1.260926609
1.261588811
1.263633195
1.265924007
1.268729079
1.271826898
1.2738725
1.274836183
1.274959822
1.274054502
1.273642779
1.274607017
1.276742074
1.235282732
1.235904144
1.23579746
1.237316435
1.239130313
1.239108974
1.238157504
1.239049392
1.240365957
1.239977763
1.238446604
1.238576388
1.239629231
1.24050197
1.240399972
1.239254756
1.238378375
1.239561542
1.241455697
1.244126846
1.244939451
1.243707072
1.244189475
1.24606219
1.248157797
1.249285623
1.249398176
1.249895394
1.251867323
1.254077713
1.256388193
1.258940556
1.261074062
1.261972299
1.262399799
1.261953675
1.261533048
1.263059266
1.223950485
1.225831944
1.225338584
1.225934117
1.22776333
1.22892569
1.228132403
1.227650926
1.228785118
1.229630172
1.228395084
1.227272695
1.227782475
1.229174305
1.23007178
1.230223892
1.229349583
1.228394559
1.229732531
1.231893999
1.233970723
1.234148018
1.232754807
1.23388848
1.235985801
1.238052441
1.239284663
1.239596293
1.239822996
1.241377306
1.243406653
1.245235395
1.247113217
1.249334695
1.250451323
1.251234004
1.251387529
1.250982686
1.215082302
1.217610613
1.218231105
1.217394392
1.218564881
1.220469749
1.220959387
1.219390579
1.219801398
1.221197224
1.221233305
1.219331421
1.218972449
1.219724821
1.221149981
1.222160515
1.22255854
1.221643219
1.220747264
1.222157939
1.224434467
1.225938223
1.225288722
1.22441142
1.225903595
1.228012723
1.230079087
1.231388255
1.231942664
1.231970409
1.232787346
1.234354151
1.235926563
1.237377989
1.239433955
1.241106343
1.241796618
1.242072713
1.209112027
1.211345355
1.213265656
1.21281745
1.212276483
1.213794187
1.215394223
1.214859591
1.213521339
1.2146089
1.215700842
1.215199737
1.213240012
1.213386303
1.214367613
1.215836877
1.217001492
1.217384689
1.216152775
1.215447276
1.217156205
1.219477407
1.220274723
1.218900434
1.218734103
1.220336787
1.222326676
1.224499457
1.225833106
1.226510771
1.226434806
1.226554323
1.227387104
1.228797617
1.23021312
1.23175696
1.233302655
1.233949018
1.206856037
1.207469228
1.209792247
1.210527576
1.209284919
1.209738874
1.211367507
1.212018194
1.210616184
1.210506506
1.211785393
1.212510126
1.211432572
1.209828813
1.21006448
1.211261236
1.212459501
1.213570568
1.21393965
1.212839206
1.212633688
1.21443178
1.216481746
1.216772164
1.215362459
1.215450725
1.217076637
1.218940529
1.221051698
1.222259167
1.222969652
1.22312101
1.222909291
1.222957491
1.223870601
1.225092652
1.22608016
1.227509741
1.206720499
1.205995637
1.207377223
1.209201664
1.208937166
1.207765626
1.2086264
1.210084636
1.209909577
1.208474822
1.209094616
1.210362628
1.210676538
1.209669137
1.208380428
1.208412945
1.209379492
1.210612534
1.212155841
1.212634891
1.211284544
1.211697356
1.213670354
1.215212366
1.21529479
1.214050807
1.214052033
1.215471208
1.217016948
1.218932782
1.220159419
1.220997071
1.221426226
1.221227229
1.220705309
1.220784787
1.221528275
1.222521304
1.206865995
1.206198015
1.206318237
1.208445495
1.209199545
1.207925101
1.207434554
1.208877376
1.209960568
1.208451745
1.207473879
1.208377608
1.209805671
1.21007437
1.209242877
1.207742692
1.207561214
1.208766665
1.210637931
1.212179286
1.212348546
1.211015053
1.211950209
1.213906189
1.215054508
1.215233042
1.214116521
1.213717358
1.214838039
1.216336416
1.217924566
1.219162802
1.220108375
1.220736451
1.220658057
1.219739919
1.219029243
1.219501171
1.206600869
1.207239036
1.206302139
1.207525553
1.209294802
1.209142527
1.207472428
1.20794606
1.209638945
1.209437215
1.20709997
1.207130746
1.208391673
1.209578171
1.210021658
1.209272767
1.207785225
1.208052868
1.209376883
1.211340636
1.212974651
1.21214623
1.211320096
1.212498375
1.214240623
1.21545305
1.215858945
1.21518351
1.214586633
1.215108732
1.216234538
1.217572434
1.218910323
1.22010024
1.2206902
1.220662216
1.219679961
1.218522445
1.205795254
1.208254191
1.207884689
1.20708497
1.208651311
1.210390752
1.20951994
1.207668721
1.208853947
1.210253818
1.208630309
1.206579252
1.206943616
1.208512756
1.209755626
1.210898938
1.210239593
1.208680184
1.20902416
1.210858143
1.212683211
1.21362698
1.211705585
1.211668827
1.213002878
1.214470259
1.216170483
1.217019773
1.216717293
1.21580059
1.215647737
1.216325763
1.217397678
1.2186424
1.21971926
1.220599435
1.220965963
1.220401057
1.205710041
1.208427865
1.210190808
1.208671507
1.208233277
1.210658961
1.211787977
1.209907066
1.208570602
1.209924802
1.210930154
1.208668572
1.207218811
1.2077077
1.209208444
1.211007726
1.21213864
1.211826134
1.210204964
1.210616415
1.211982077
1.213872562
1.213860892
1.211992343
1.212225979
1.21369264
1.215521933
1.216987573
1.218095329
1.21827763
1.217294241
1.216183225
1.216284106
1.217098731
1.218405682
1.219798586
1.221299421
1.222225142
1.208524546
1.209020881
1.211792591
1.212610076
1.210411238
1.210893052
1.213031144
1.213563717
1.210506156
1.20991759
1.211952902
1.21266761
1.211009772
1.209236222
1.209509815
1.210186282
1.212787014
1.21433813
1.214001028
1.211851936
1.212062392
1.213382149
1.21530074
1.214847188
1.213277809
1.213797973
1.214587049
1.215963146
1.217588673
1.218637731
1.219238418
1.218956162
1.217871941
1.217271522
1.217994017
1.219411786
1.220714852
1.222072667
1.214949791
1.215581263
1.213866728
1.214423658
1.216571159
1.216963047
1.214716356
1.215164792
1.216593696
1.216427824
1.214024957
1.214025762
1.216009549
1.216556782
1.215212386
1.212843308
1.212256757
1.213375402
1.215378283
1.216826376
1.217000615
1.214712756
)
;

boundaryField
{
    inlet
    {
        type            calculated;
        value           nonuniform 0();
    }
    outlet
    {
        type            calculated;
        value           nonuniform List<scalar> 
62
(
1.338714654
1.337979723
1.337354746
1.337119788
1.337112764
1.337166306
1.337009702
1.336592189
1.336212182
1.336137193
1.336194035
1.336135888
1.335784096
1.335701238
1.335924521
1.336184996
1.336327814
1.336039446
1.33583719
1.335677901
1.335554883
1.33553588
1.335383742
1.335854547
1.336956846
1.338215147
1.33981674
1.34087692
1.34136739
1.341726655
1.342189653
1.34267825
1.342829872
1.342894103
1.343105417
1.343307596
1.343644025
1.344063954
1.3441548
1.34356412
1.343112468
1.34291757
1.342434425
1.34054794
1.336252187
1.329747578
1.32202797
1.313624005
1.303289968
1.290807585
1.276497959
1.263022956
1.251113249
1.242282148
1.233982082
1.227435101
1.222430334
1.219382833
1.218585996
1.220583627
1.222251378
1.221978151
)
;
    }
    bottom
    {
        type            calculated;
        value           nonuniform 0();
    }
    top
    {
        type            calculated;
        value           nonuniform 0();
    }
    obstacle
    {
        type            calculated;
        value           nonuniform 0();
    }
    defaultFaces
    {
        type            empty;
    }
    procBoundary17to11
    {
        type            processor;
        value           nonuniform List<scalar> 
36
(
1.337935409
1.338869428
1.339408453
1.339175672
1.338891837
1.338964327
1.338342263
1.337485833
1.33698923
1.336665619
1.336569485
1.33644607
1.336255985
1.335947675
1.335837834
1.3359902
1.336174115
1.336154171
1.335971314
1.336622639
1.337515451
1.337680013
1.337204888
1.336819381
1.336756085
1.336930882
1.337302981
1.337905206
1.338144335
1.33790474
1.33790474
1.335223703
1.336109681
1.337337996
1.337863927
1.337863927
)
;
    }
    procBoundary17to16
    {
        type            processor;
        value           nonuniform List<scalar> 
65
(
1.334632154
1.334164028
1.333679107
1.33340875
1.333321656
1.333444908
1.333464815
1.333503394
1.333503394
1.33303022
1.333205746
1.333024274
1.332471631
1.332018111
1.331834369
1.332040586
1.332348407
1.332456166
1.332595287
1.332999413
1.333712765
1.334599594
1.335485995
1.335485995
1.335398236
1.336754272
1.338149535
1.339435452
1.34042902
1.341088531
1.341819429
1.342467227
1.343074091
1.343399206
1.343504601
1.343342987
1.343202384
1.343208702
1.343208702
1.343149506
1.342496781
1.340747158
1.33877658
1.335998643
1.331912739
1.325409603
1.316298249
1.304350017
1.29095451
1.276292253
1.261917777
1.261917777
1.246499297
1.232397949
1.221270292
1.213279245
1.209612647
1.207568933
1.206182943
1.204952427
1.204025801
1.203817762
1.205787881
1.210457419
1.210457419
)
;
    }
    procBoundary17to22
    {
        type            processor;
        value           uniform 1.212276634;
    }