/*--------------------------------*- C++ -*----------------------------------*\
  =========                 |
  \\      /  F ield         | OpenFOAM: The Open Source CFD Toolbox
   \\    /   O peration     | Website:  https://openfoam.org
    \\  /    A nd           | Version:  7
     \\/     M anipulation  |
\*---------------------------------------------------------------------------*/
FoamFile
{
    version     2.0;
    format      ascii;
    class       volScalarField;
    location    "4";
    object      rho;
}
// * * * * * * * * * * * * * * * * * * * * * * * * * * * * * * * * * * * * * //

dimensions      [1 -3 0 0 0 0 0];

internalField   nonuniform List<scalar> 
555
(
1.913324792
1.901218621
1.884861081
1.863808454
1.850113158
1.844979252
1.83951663
1.833541366
1.830420404
1.827960662
1.823888036
1.817470826
1.814833942
1.814199369
1.812721387
1.809872485
1.808359904
1.808553881
1.913324573
1.901218639
1.884861371
1.863808746
1.850113007
1.844979138
1.839516689
1.833541333
1.83042024
1.827960556
1.823888136
1.81747105
1.81483391
1.814199323
1.812721429
1.809872648
1.808359892
1.808553759
1.809556124
1.809454219
1.809413926
1.809781626
1.811272992
1.813943845
1.816964488
1.819174358
1.820679877
1.822527895
1.824743293
1.826242661
1.826784542
1.826874662
1.826512052
1.826624629
1.842456917
1.849088414
1.858122946
1.860780715
1.860429806
1.857693219
1.852939361
1.850858922
1.84926247
1.846102743
1.840354846
1.833939594
1.830987424
1.82922561
1.826600145
1.822827947
1.820899324
1.82096094
1.820685609
1.819790988
1.819401202
1.81949484
1.820237915
1.821088348
1.821008218
1.820478226
1.820009627
1.819549486
1.819648073
1.819925138
1.819988452
1.820766903
1.783365777
1.809834027
1.821229656
1.835166876
1.852708434
1.855299594
1.858085182
1.859599036
1.859007746
1.857607263
1.855376425
1.851221397
1.846928925
1.841606308
1.840879221
1.840106819
1.837772948
1.834728867
1.830801091
1.828797524
1.827619282
1.825972191
1.822965819
1.821569479
1.820574613
1.81917844
1.81746428
1.81538574
1.814039543
1.814054614
1.814378015
1.815160265
1.818004065
1.587720384
1.634133585
1.674767045
1.711935895
1.753132793
1.775745929
1.79535951
1.818564732
1.825603854
1.830980966
1.836000598
1.836483273
1.838464543
1.845489553
1.852940985
1.854119118
1.854641423
1.854454103
1.853428773
1.851471198
1.848803318
1.845107858
1.839627244
1.835225243
1.83225707
1.828792547
1.825449471
1.821975264
1.820036961
1.819339393
1.818746906
1.818138592
1.81868976
1.438100031
1.460601789
1.492554104
1.526657142
1.569847231
1.616782971
1.658946778
1.706315566
1.742290977
1.769452915
1.803056097
1.823307929
1.833361557
1.845666782
1.852299106
1.852139168
1.853525503
1.85406238
1.853370364
1.852203735
1.848684111
1.842915275
1.836409669
1.833607919
1.834047257
1.834469988
1.833464082
1.832191697
1.830741538
1.829188972
1.82763924
1.825587634
1.822962537
1.402031126
1.40435639
1.40906596
1.416971462
1.429628995
1.449949952
1.47483248
1.50797204
1.552850886
1.592439397
1.636040941
1.682673539
1.717556462
1.756562863
1.779919844
1.791953517
1.806555142
1.818384796
1.822068895
1.827807953
1.832221767
1.834711099
1.838366211
1.84297022
1.844409923
1.844718124
1.845305948
1.845986066
1.84541587
1.844284394
1.842467632
1.839151774
1.834627085
1.400025056
1.400067992
1.400191278
1.400519323
1.401269458
1.402980686
1.40639973
1.412373569
1.423331566
1.439721415
1.461965529
1.495286727
1.532242769
1.572633339
1.61937462
1.661135845
1.704938998
1.742440423
1.76763796
1.789638394
1.816621507
1.828720941
1.836264431
1.845815948
1.846670845
1.845419066
1.845508637
1.845165805
1.844203016
1.842555486
1.840484758
1.836581351
1.833096617
1.400005065
1.400005167
1.400005626
1.400007521
1.400014523
1.400038514
1.400112328
1.400316142
1.400835208
1.402069388
1.404548553
1.409480861
1.418160545
1.43162642
1.452627872
1.480374311
1.512931594
1.556698927
1.602474782
1.640837536
1.682970142
1.719313968
1.74836918
1.781065338
1.794327602
1.803210719
1.812639296
1.817235253
1.820937895
1.826012393
1.831880785
1.835740284
1.838145065
1.40000504
1.40000504
1.40000504
1.400005041
1.400005048
1.400005088
1.400005297
1.400006244
1.400010042
1.400024183
1.400069517
1.4002032
1.400565042
1.40144205
1.4033162
1.407294508
1.41417957
1.426092143
1.444242234
1.468098203
1.500372448
1.540727264
1.581893142
1.625492378
1.666988492
1.706338024
1.745750295
1.772210537
1.791480491
1.808612256
1.820822076
1.831265309
1.837806164
1.40000504
1.40000504
1.40000504
1.40000504
1.40000504
1.40000504
1.40000504
1.400005041
1.400005043
1.400005061
1.400005162
1.400005661
1.400007838
1.400016335
1.400045384
1.400138443
1.400392003
1.401046728
1.402516994
1.405558515
1.411299168
1.421108974
1.436433986
1.459177632
1.489193438
1.523184371
1.564201793
1.610618135
1.654759793
1.694381896
1.72084994
1.749100371
1.774769038
1.40000504
1.40000504
1.40000504
1.40000504
1.40000504
1.40000504
1.40000504
1.40000504
1.40000504
1.40000504
1.40000504
1.40000504
1.400005041
1.40000505
1.400005104
1.40000539
1.400006716
1.400012054
1.400031621
1.400094832
1.400280421
1.400753914
1.401914856
1.404313236
1.409073662
1.417139522
1.431326628
1.45105748
1.478215602
1.511152049
1.552106294
1.597232203
1.634778724
1.40000504
1.40000504
1.40000504
1.40000504
1.40000504
1.40000504
1.40000504
1.40000504
1.40000504
1.40000504
1.40000504
1.40000504
1.40000504
1.40000504
1.40000504
1.40000504
1.400005041
1.400005045
1.400005075
1.400005244
1.400006082
1.400009562
1.40002317
1.400067144
1.400204136
1.400558158
1.401483495
1.403348686
1.407487944
1.414246263
1.426367199
1.444440087
1.466202366
1.40000504
1.40000504
1.40000504
1.40000504
1.40000504
1.40000504
1.40000504
1.40000504
1.40000504
1.40000504
1.40000504
1.40000504
1.40000504
1.40000504
1.40000504
1.40000504
1.40000504
1.40000504
1.40000504
1.40000504
1.400005041
1.400005043
1.400005061
1.400005164
1.400005707
1.400008012
1.40001758
1.400048262
1.400154083
1.400417401
1.401160103
1.402845151
1.404779827
1.40000504
1.40000504
1.40000504
1.40000504
1.40000504
1.40000504
1.40000504
1.40000504
1.40000504
1.40000504
1.40000504
1.40000504
1.40000504
1.40000504
1.40000504
1.40000504
1.40000504
1.40000504
1.40000504
1.40000504
1.40000504
1.40000504
1.40000504
1.40000504
1.40000504
1.400005042
1.400005053
1.400005116
1.400005486
1.400007054
1.400013467
1.400061097
1.400025335
1.40000504
1.40000504
1.40000504
1.40000504
1.40000504
1.40000504
1.40000504
1.40000504
1.40000504
1.40000504
1.40000504
1.40000504
1.40000504
1.40000504
1.40000504
1.40000504
1.40000504
1.40000504
1.40000504
1.40000504
1.40000504
1.40000504
1.40000504
1.40000504
1.40000504
1.40000504
1.40000504
1.40000504
1.40000504
1.400005041
1.400005046
1.400005314
1.40000502
1.40000504
1.40000504
1.40000504
1.40000504
1.40000504
1.40000504
1.40000504
1.40000504
1.40000504
1.40000504
1.40000504
1.40000504
1.40000504
1.40000504
1.40000504
1.40000504
1.40000504
1.40000504
1.40000504
1.40000504
1.40000504
1.40000504
1.40000504
1.40000504
1.40000504
1.40000504
1.40000504
1.40000504
1.40000504
1.40000504
1.40000504
1.400005041
1.400005038
1.40000504
1.40000504
1.40000504
1.40000504
1.40000504
1.40000504
1.40000504
1.40000504
1.40000504
)
;

boundaryField
{
    inlet
    {
        type            calculated;
        value           nonuniform 0();
    }
    outlet
    {
        type            calculated;
        value           nonuniform 0();
    }
    bottom
    {
        type            calculated;
        value           nonuniform 0();
    }
    top
    {
        type            calculated;
        value           nonuniform 0();
    }
    obstacle
    {
        type            calculated;
        value           nonuniform List<scalar> 
51
(
1.913324573
1.901218639
1.884861371
1.863808746
1.850113007
1.844979138
1.839516689
1.833541333
1.83042024
1.827960556
1.823888136
1.81747105
1.81483391
1.814199323
1.812721429
1.809872648
1.808359892
1.808553759
1.809556124
1.809454219
1.809413926
1.809781626
1.811272992
1.813943845
1.816964488
1.819174358
1.820679877
1.822527895
1.824743293
1.826242661
1.826784542
1.826874662
1.826512052
1.913324792
1.901218621
1.884861081
1.863808454
1.850113158
1.844979252
1.83951663
1.833541366
1.830420404
1.827960662
1.823888036
1.817470826
1.814833942
1.814199369
1.812721387
1.809872485
1.808359904
1.808553881
)
;
    }
    defaultFaces
    {
        type            empty;
    }
    procBoundary20to13
    {
        type            processor;
        value           uniform 1.926530504;
    }
    procBoundary20to14
    {
        type            processor;
        value           nonuniform List<scalar> 
19
(
1.826625064
1.842456727
1.849088139
1.85812307
1.860780872
1.860429876
1.85769301
1.852939258
1.85085911
1.84926261
1.846102706
1.840354616
1.833939528
1.830987655
1.829225761
1.826600071
1.8228276
1.820899333
1.809556244
)
;
    }
    procBoundary20to19
    {
        type            processor;
        value           nonuniform List<scalar> 
16
(
1.92653032
1.808007662
1.750930317
1.548358971
1.423384652
1.400879788
1.400010835
1.400005044
1.40000504
1.40000504
1.40000504
1.40000504
1.40000504
1.40000504
1.40000504
1.40000504
)
;
    }
    procBoundary20to25
    {
        type            processor;
        value           uniform 1.40000504;
    }
    procBoundary20to26
    {
        type            processor;
        value           nonuniform List<scalar> 
34
(
1.40000504
1.40000504
1.40000504
1.40000504
1.40000504
1.40000504
1.40000504
1.40000504
1.40000504
1.40000504
1.40000504
1.40000504
1.40000504
1.40000504
1.40000504
1.40000504
1.40000504
1.40000504
1.40000504
1.40000504
1.40000504
1.40000504
1.40000504
1.40000504
1.40000504
1.40000504
1.40000504
1.40000504
1.40000504
1.40000504
1.40000504
1.40000504
1.40000504
1.40000504
)
;
    }
    procBoundary20to27
    {
        type            processor;
        value           nonuniform List<scalar> 
16
(
1.455903084
1.758277257
1.814476584
1.818551073
1.819920973
1.825446142
1.831015884
1.840958033
1.841768152
1.817128761
1.752426263
1.581423318
1.439508365
1.403503483
1.400143792
1.400007917
)
;
    }
}


// ************************************************************************* //
