/*--------------------------------*- C++ -*----------------------------------*\
  =========                 |
  \\      /  F ield         | OpenFOAM: The Open Source CFD Toolbox
   \\    /   O peration     | Website:  https://openfoam.org
    \\  /    A nd           | Version:  7
     \\/     M anipulation  |
\*---------------------------------------------------------------------------*/
FoamFile
{
    version     2.0;
    format      ascii;
    class       volScalarField;
    location    "3";
    object      T;
}
// * * * * * * * * * * * * * * * * * * * * * * * * * * * * * * * * * * * * * //

dimensions      [0 0 0 1 0 0 0];

internalField   nonuniform List<scalar> 
2222
(
1.330881436
1.33168892
1.332097827
1.33203216
1.331702344
1.331624285
1.331615377
1.331460797
1.331226859
1.330994729
1.330834278
1.330927216
1.331181414
1.331371789
1.331289694
1.330037301
1.326223571
1.325912185
1.326345746
1.327279585
1.328372898
1.329181108
1.329334293
1.329148161
1.328719514
1.328068198
1.327789804
1.328093896
1.328857996
1.329713552
1.329869022
1.329386167
1.329067174
1.328972641
1.329104447
1.329145658
1.329208706
1.329791474
1.330955598
1.331575119
1.331724225
1.331383803
1.330838154
1.330529355
1.330343108
1.33011268
1.329844262
1.329796144
1.33011011
1.330656002
1.331167275
1.331408948
1.331307577
1.330234286
1.325069152
1.32500776
1.324784693
1.324870062
1.325456494
1.326149179
1.326687588
1.326992546
1.327059549
1.327009287
1.327153079
1.327384091
1.327841067
1.328661232
1.329249104
1.329167219
1.328675643
1.328336953
1.328349078
1.328252581
1.328337773
1.328769348
1.329274984
1.32972928
1.329338587
1.328534022
1.327853039
1.327681879
1.32781938
1.327920616
1.327974206
1.328181435
1.328797805
1.329632064
1.330284003
1.330335022
1.329990585
1.3289693
1.321655695
1.321581623
1.321821047
1.321718644
1.321414158
1.321603571
1.322341198
1.323034747
1.323587057
1.324061716
1.324366212
1.324437925
1.324710749
1.325652325
1.326734204
1.327357699
1.327565189
1.327483133
1.327315614
1.326884598
1.326629956
1.326346127
1.326001862
1.325421978
1.32455744
1.323439463
1.322781357
1.322702943
1.323029919
1.323802806
1.324652137
1.325494939
1.326341126
1.326980313
1.327237379
1.327140012
1.32676146
1.32592453
1.315358775
1.31512422
1.315435609
1.315405697
1.314983085
1.31498622
1.315633728
1.316554035
1.317479862
1.318220457
1.318383122
1.318396589
1.318779758
1.319914014
1.321561323
1.323028298
1.324132379
1.324564136
1.32486403
1.324578779
1.323679967
1.322344614
1.320542161
1.318643567
1.316919693
1.315690982
1.315135042
1.315170071
1.31588806
1.317346219
1.319139665
1.320735995
1.321648965
1.321803903
1.321647057
1.321369749
1.321010588
1.320714333
1.305724793
1.305397882
1.305729665
1.305924999
1.305812256
1.306002154
1.306525353
1.307232087
1.308062618
1.308591485
1.308779897
1.309045195
1.3097581
1.311194293
1.313340011
1.315945939
1.317986809
1.318944668
1.319453653
1.319277791
1.318014524
1.315671774
1.312525651
1.309358405
1.306786219
1.305319076
1.304956207
1.305277452
1.306418335
1.308621553
1.311102473
1.312884525
1.313960891
1.314286035
1.314039332
1.313407406
1.312855116
1.312904257
1.293394284
1.292791797
1.29297316
1.293505676
1.294290411
1.294848613
1.294977124
1.295058763
1.295541979
1.296221929
1.296640954
1.297154198
1.298281332
1.300000553
1.302560054
1.305907801
1.308993357
1.310342493
1.310781464
1.31046436
1.308797802
1.305725446
1.302025794
1.297995732
1.294916298
1.293480645
1.293310514
1.293807281
1.295732285
1.298014003
1.300242463
1.302273146
1.3037109
1.304354858
1.304031385
1.303197334
1.302863205
1.303074223
1.279248068
1.278189677
1.27833783
1.279448698
1.28067461
1.281560271
1.281717567
1.281851668
1.282206121
1.282655902
1.283193765
1.283902194
1.285238925
1.287509567
1.290436906
1.294099813
1.297171317
1.298784117
1.299197661
1.298855803
1.296932514
1.293489777
1.289581775
1.28556591
1.282376671
1.281132389
1.281151023
1.282327572
1.283714726
1.285346584
1.287430017
1.289813638
1.291648621
1.292508525
1.292619868
1.292383053
1.291788601
1.291956617
1.265563138
1.264202333
1.2639757
1.264940006
1.267004961
1.268264222
1.268598041
1.268879537
1.269085076
1.269332965
1.269817212
1.270943682
1.272694862
1.275159115
1.278400908
1.281732129
1.28424928
1.285733309
1.285707964
1.285174872
1.283328696
1.280230086
1.276684057
1.273099136
1.270477347
1.269684371
1.269959961
1.270751268
1.271780799
1.273014578
1.274701936
1.276713606
1.27852958
1.279824471
1.280538013
1.280822403
1.280775834
1.28090523
1.253777018
1.252244941
1.25197238
1.252388784
1.253967272
1.255797824
1.256675845
1.256969821
1.257121357
1.257262556
1.257860337
1.259181853
1.261122098
1.263644878
1.266917215
1.270333478
1.272213486
1.272744934
1.272499676
1.271535712
1.269526429
1.267004875
1.264251034
1.261765723
1.259741022
1.259166811
1.259497751
1.260141958
1.260920007
1.261871456
1.263109739
1.264526126
1.266039186
1.267717104
1.269102676
1.269870848
1.270419816
1.270412058
1.244638143
1.243549205
1.242968285
1.243000086
1.24388308
1.245308826
1.246613308
1.247208986
1.247411944
1.247709609
1.248512153
1.249623357
1.251571953
1.253828251
1.256534777
1.259545257
1.261785561
1.261775378
1.260760513
1.259687349
1.257932602
1.255668568
1.253494746
1.251832239
1.250863678
1.250575543
1.25085879
1.251326338
1.251860432
1.252431499
1.253148129
1.254343161
1.256014303
1.257682539
1.259356387
1.260878098
1.261340428
1.261065442
1.238234586
1.23771186
1.23729181
1.237174004
1.237481291
1.238179091
1.239276772
1.240158298
1.240662846
1.241084957
1.241628397
1.242995251
1.244343594
1.245878962
1.248045337
1.250460136
1.25268574
1.253536012
1.252782865
1.250915119
1.249092207
1.247139656
1.245318078
1.244223545
1.243821711
1.243817261
1.243992217
1.24426383
1.244702902
1.245257957
1.246092679
1.247403613
1.248874232
1.250407176
1.25171741
1.252747414
1.253461092
1.253306946
1.234079559
1.234292498
1.234129505
1.234044918
1.233942689
1.234285434
1.23493682
1.235749774
1.236365287
1.237076755
1.237569129
1.237858073
1.238444732
1.239511574
1.241068393
1.243391229
1.245732781
1.246961582
1.246868254
1.245682008
1.243437011
1.241549668
1.24001594
1.23909707
1.238746854
1.238593261
1.238576444
1.238837357
1.239659459
1.240818331
1.241845676
1.242892037
1.244135437
1.245491677
1.246517435
1.24700385
1.247249699
1.247247794
1.232403142
1.232688518
1.232634428
1.232429514
1.232374979
1.232757669
1.233590702
1.234354418
1.234828331
1.234994357
1.234791253
1.23472725
1.235001416
1.235943054
1.238091666
1.240813113
1.242679165
1.242974223
1.242572448
1.240934365
1.238601705
1.236833079
1.235693789
1.235119399
1.234829248
1.234907497
1.235555178
1.23682169
1.238390526
1.239670135
1.240743137
1.241701191
1.242302184
1.242608057
1.242740916
1.242575324
1.242357379
1.231016798
1.23181454
1.232022957
1.232045459
1.231823522
1.232231542
1.232839439
1.233387992
1.233614091
1.233526965
1.232917195
1.232154944
1.23191185
1.23276502
1.234687343
1.237364556
1.239845364
1.240625534
1.240421173
1.239393496
1.237349338
1.235069192
1.233580209
1.233091545
1.233085154
1.233375262
1.234146719
1.235467905
1.237117725
1.238854135
1.240022437
1.240414465
1.240263052
1.239977197
1.239400556
1.238705299
1.238658888
1.229557794
1.23039067
1.23131222
1.231737392
1.232157157
1.232509929
1.232826907
1.233040901
1.232993894
1.232591487
1.231561413
1.230584312
1.23056451
1.231418774
1.233018618
1.235207711
1.237606348
1.238849201
1.23886342
1.238148292
1.236904633
1.235310142
1.233360595
1.232563347
1.232548695
1.232826677
1.233597245
1.234931612
1.237171923
1.238998422
1.239518437
1.23942941
1.239072579
1.237959614
1.236726391
1.236154081
1.236537262
1.22855756
1.229223672
1.230442733
1.231579657
1.232388599
1.23276165
1.233165028
1.232947234
1.232469817
1.231541955
1.230640997
1.230175303
1.230244226
1.230911701
1.232210785
1.23400749
1.235854744
1.237248658
1.237279247
1.236801844
1.236160729
1.235088065
1.233767775
1.232787118
1.232675218
1.23297347
1.233827475
1.235266066
1.236988215
1.238376829
1.23873859
1.238637539
1.2377393
1.236040753
1.235334745
1.235215168
1.235647892
1.228496834
1.229053058
1.229928319
1.231163559
1.232503595
1.233061342
1.232999766
1.232417317
1.231791932
1.231258383
1.230840938
1.230583293
1.23074441
1.231320757
1.232142092
1.233299481
1.23481524
1.235955843
1.236076979
1.235705294
1.235201939
1.234794236
1.234103062
1.233495676
1.233407052
1.233739454
1.234487265
1.235515978
1.23635913
1.237119799
1.237548658
1.237190631
1.235997959
1.235633778
1.235223866
1.235017456
1.235326532
1.228779659
1.229148922
1.229915033
1.230904711
1.232145297
1.23298334
1.232887737
1.232372145
1.231746013
1.231193638
1.230850796
1.230921019
1.231304422
1.231990846
1.232683495
1.233189392
1.234124469
1.235114296
1.235378685
1.235193323
1.234882781
1.234753276
1.234705084
1.23458437
1.234694718
1.234988988
1.235159299
1.235192057
1.235458171
1.23576795
1.235812749
1.235322659
1.235117949
1.235043132
1.235061696
1.235167392
1.235646943
1.230385949
1.230191224
1.230182193
1.230895178
1.231852666
1.23247333
1.232539078
1.232188405
1.231604879
1.231051028
1.230879188
1.231142908
1.231687151
1.232264785
1.232968139
1.2335255
1.2339287
1.234629041
1.234961491
1.234970364
1.235020586
1.235289305
1.23564591
1.235698832
1.235743479
1.235811575
1.235707555
1.235085513
1.234327118
1.233996321
1.234097808
1.23426636
1.234363326
1.234564935
1.23493231
1.235327833
1.236021948
1.231835808
1.232099013
1.231473905
1.231162026
1.23149934
1.231935088
1.232131445
1.232059678
1.231806743
1.231450309
1.231200761
1.231254672
1.231502294
1.231925992
1.232755116
1.233648354
1.234219562
1.234544932
1.234996626
1.235247514
1.235477305
1.235773259
1.236084374
1.236137007
1.236087823
1.23601924
1.235858021
1.235511656
1.23465886
1.233705929
1.233275289
1.233408539
1.233845019
1.234408668
1.235095354
1.235703028
1.236359511
1.232474255
1.233081324
1.232943066
1.232015467
1.231410477
1.231503664
1.231896299
1.232158819
1.232212035
1.232007055
1.231578519
1.231163938
1.231008601
1.231270046
1.232131891
1.233225145
1.234259011
1.234996916
1.235584984
1.235943544
1.236079169
1.236012916
1.235931204
1.235788883
1.235657595
1.235585023
1.235374724
1.235029341
1.234516841
1.233753658
1.233181334
1.233211292
1.233745248
1.234434203
1.23507582
1.23558613
1.236119865
1.232312141
1.233276008
1.233542512
1.23287771
1.231836614
1.231656835
1.231923753
1.232430126
1.232692592
1.23253
1.232006774
1.231259974
1.230789373
1.230863652
1.231452791
1.232560875
1.233834867
1.235019948
1.235803582
1.235933513
1.235800454
1.235493254
1.235115414
1.234822077
1.234696898
1.234528377
1.234278539
1.234045314
1.233936538
1.233730619
1.23338198
1.233385413
1.23380533
1.234214671
1.234468399
1.234718345
1.23520851
1.231443189
1.23228936
1.232805543
1.232824159
1.232255229
1.231820975
1.232009118
1.232482083
1.232673028
1.232502909
1.231969167
1.231130619
1.230642989
1.230687804
1.231193524
1.232219192
1.233647782
1.235051018
1.235560726
1.235521429
1.235177759
1.234482041
1.233791642
1.233412793
1.23338791
1.233310628
1.233214731
1.233307891
1.233562315
1.233774683
1.233752606
1.23362704
1.233635487
1.233612607
1.233450096
1.233433254
1.233882802
1.229959539
1.230517447
1.231345675
1.231886025
1.231953455
1.231810585
1.231782913
1.232114116
1.232260042
1.232141763
1.231757717
1.231213735
1.230988036
1.230952647
1.231245129
1.232064096
1.233385489
1.234514291
1.234610374
1.234407339
1.233877044
1.232997111
1.232218936
1.232010563
1.232119484
1.232356239
1.232648143
1.233110776
1.23364027
1.233962975
1.233884195
1.233449001
1.232869402
1.23241939
1.232071735
1.232012286
1.23237081
1.228139942
1.228662254
1.229535511
1.230374432
1.230813003
1.231022141
1.231080198
1.23127055
1.231348812
1.23131207
1.231215996
1.231133903
1.231264135
1.231383369
1.231488629
1.232139698
1.233057006
1.233513692
1.233367788
1.232949518
1.232255142
1.231405335
1.230842846
1.230804203
1.231145804
1.231820833
1.23258586
1.233208822
1.23359546
1.233625771
1.233317889
1.232637411
1.231765517
1.231034359
1.230651787
1.230569856
1.230799553
1.226861371
1.227694493
1.228736747
1.229500183
1.229938205
1.230065861
1.230090019
1.230141569
1.23019609
1.230322614
1.230579754
1.231036683
1.231454275
1.231550569
1.231639505
1.231690895
1.231626598
1.231637975
1.231419192
1.230962676
1.230337218
1.229951177
1.229985243
1.23041864
1.231294502
1.232233361
1.232713499
1.23264293
1.232228072
1.231780624
1.231236101
1.230531952
1.22987094
1.229513003
1.229339587
1.229387659
1.225657602
1.226147005
1.227020492
1.227956397
1.228393592
1.228506293
1.228608789
1.228721923
1.22890227
1.229244975
1.229860261
1.230643845
1.231156005
1.231085051
1.230308582
1.229616456
1.22938305
1.229644221
1.229951094
1.22999958
1.229729106
1.229487033
1.229494914
1.229797757
1.23046421
1.231030224
1.231164106
1.230820159
1.230242215
1.229797874
1.229461374
1.229119307
1.228766998
1.228465876
1.228176643
1.228092857
1.224738608
1.225045857
1.225348946
1.225893874
1.226247991
1.226405152
1.226616947
1.226848437
1.227227017
1.227845072
1.228644541
1.229247726
1.229731301
1.229406607
1.228305917
1.227355401
1.227045121
1.227327246
1.227994458
1.228622711
1.22899892
1.229135805
1.229081096
1.228933551
1.228929241
1.228948611
1.228882179
1.228562557
1.228121082
1.227764463
1.227578921
1.227545346
1.227505541
1.227381768
1.227011426
1.226802496
1.22375588
1.224256066
1.224038541
1.223645909
1.223599349
1.223780553
1.224117091
1.224558652
1.225273271
1.226202444
1.226998331
1.227276064
1.22733808
1.226785256
1.225749732
1.224974882
1.224659262
1.224856399
1.225675771
1.226773951
1.22786075
1.22850327
1.22830475
1.227545801
1.226810471
1.226393335
1.226146556
1.226005377
1.225883808
1.225800874
1.225839339
1.226034136
1.226129048
1.226086502
1.225683741
1.225458442
1.222042072
1.222568457
1.222387477
1.22161397
1.220942597
1.220966364
1.221309322
1.221909144
1.222935555
1.22415784
1.224808218
1.224725855
1.224219347
1.223507458
1.222619743
1.222091526
1.222056776
1.2225411
1.223584394
1.224974563
1.226329236
1.226977487
1.226566022
1.225424172
1.224276576
1.223618183
1.223349506
1.223408302
1.223719069
1.224070355
1.224373879
1.2246049
1.224592818
1.224402359
1.224081423
1.22397893
1.21928447
1.219990587
1.220091395
1.219539433
1.218593427
1.218338249
1.218565576
1.219222473
1.220438752
1.221852097
1.222417785
1.22225432
1.221401204
1.220501915
1.219652822
1.219179301
1.219364087
1.220326041
1.221669938
1.222985258
1.224097127
1.224378428
1.223894519
1.222773934
1.221600381
1.220926193
1.220777089
1.221123804
1.221966313
1.22273977
1.223097567
1.222960529
1.222521803
1.222189912
1.222101906
1.222321898
1.216509695
1.21750006
1.217697982
1.217338017
1.216566114
1.216168713
1.216303559
1.216843236
1.217988038
1.219436433
1.220181378
1.220063727
1.219306165
1.218391926
1.217561675
1.217136796
1.217526824
1.218661373
1.219568425
1.220267145
1.220862571
1.221084325
1.220714694
1.219785221
1.218960477
1.218468485
1.218517841
1.219306709
1.220589782
1.221335756
1.22129025
1.220707198
1.220080925
1.219836999
1.219981624
1.220699637
1.213975234
1.214790869
1.215130991
1.21506609
1.214818479
1.214598899
1.214657956
1.21494523
1.215795103
1.217078271
1.218002514
1.217954202
1.217418353
1.216789189
1.216098358
1.215939453
1.216363449
1.216581761
1.216506063
1.216662118
1.217054762
1.217411559
1.217351986
1.216907877
1.216506011
1.216387863
1.21684
1.217860871
1.21860458
1.218918439
1.218760862
1.218261747
1.217827259
1.217710359
1.218066783
1.219066296
1.211330596
1.212171339
1.212662024
1.213095016
1.213330661
1.21328636
1.213194805
1.213359799
1.213915753
1.214832229
1.215752089
1.216048773
1.2159117
1.215774575
1.215270476
1.214523938
1.214096321
1.213715613
1.213511206
1.213261754
1.21332936
1.213833389
1.214212998
1.214298655
1.214320369
1.214651811
1.215276697
1.215552325
1.215609885
1.215762994
1.215775918
1.215771354
1.21581569
1.215945819
1.216532751
1.217252358
1.209349557
1.209958019
1.210783023
1.211517754
1.211784032
1.211731968
1.211560979
1.211739939
1.212142475
1.212762254
1.213672857
1.214412991
1.214746148
1.2148427
1.213928679
1.212292373
1.211173163
1.210778069
1.210808313
1.210816763
1.210634931
1.210790935
1.211386165
1.21192118
1.212344939
1.212746436
1.212826604
1.212580511
1.212338021
1.212352921
1.212638788
1.213105079
1.213753543
1.21448715
1.214919232
1.214819183
1.208097413
1.208531163
1.209271027
1.209706625
1.209758885
1.209616189
1.209497434
1.209828345
1.210312066
1.210869528
1.211747066
1.212401115
1.212876071
1.212760256
1.211505537
1.209747191
1.208327743
1.207752067
1.207779163
1.20808214
1.208344934
1.208487216
1.208993241
1.209635308
1.209934854
1.209911284
1.209690108
1.209440855
1.209099472
1.209032943
1.209510992
1.210446103
1.21168277
1.212642825
1.212595576
1.211836899
1.206471972
1.207305931
1.207668215
1.207467096
1.207314525
1.207049347
1.207148891
1.207687743
1.208373917
1.208957405
1.209563036
1.209911751
1.210273533
1.209933261
1.208618532
1.206924868
1.205471137
1.204833185
1.204855965
1.205271828
1.205773488
1.20628387
1.206783254
1.20703282
1.206927815
1.206545198
1.206225938
1.206154247
1.206023636
1.20605729
1.206770771
1.208059215
1.209265037
1.209740109
1.209401565
1.208552715
1.204651585
1.205730474
1.205612781
1.205068637
1.204695885
1.204435962
1.204730501
1.205506469
1.206362318
1.206888443
1.207097748
1.207089186
1.207100088
1.206474304
1.205116567
1.20354657
1.202361707
1.201913842
1.202028092
1.202662551
1.203528575
1.204233955
1.204319505
1.203966349
1.203414066
1.20282683
1.202537862
1.202595071
1.202946554
1.203520846
1.204534941
1.205541097
1.205966562
1.205941029
1.205531363
1.205013403
1.202514582
1.203376586
1.20318505
1.202563959
1.202074076
1.201934658
1.202349002
1.203309412
1.204190368
1.204484916
1.20435344
1.204016792
1.203644255
1.202741705
1.201388501
1.200046412
1.199209188
1.198974116
1.199345952
1.200510312
1.201782247
1.202064757
1.201605502
1.200629968
1.199681226
1.199065947
1.198851623
1.199090063
1.200115871
1.201403175
1.202201835
1.202372796
1.202066971
1.201630086
1.201259961
1.201244354
1.200611717
1.200464919
1.199778647
1.199378243
1.19947835
1.200105076
1.201126688
1.201764614
1.2016909
1.201266095
1.200641155
1.199976239
1.198966203
1.197780915
1.196832313
1.196492078
1.196674091
1.197450676
1.198651589
1.199390623
1.199231602
1.198324761
1.197083984
1.19612239
1.195642517
1.195556862
1.196054819
1.197357306
1.198572431
1.198811625
1.198519153
1.197879677
1.197274769
1.197081081
1.197478471
1.197547863
1.197337887
1.196884302
1.196731291
1.19702446
1.197765928
1.198678513
1.198916447
1.198560313
1.197815186
1.196913667
1.196068814
1.195070978
1.194202152
1.193860781
1.19411194
1.19494183
1.195878722
1.196311868
1.196232559
1.195725669
1.194648421
1.193483971
1.192787186
1.192587539
1.192832969
1.193547328
1.194356379
1.194802504
1.194709058
1.194180043
1.193530162
1.193082737
1.193172233
1.194157789
1.194137499
1.193865235
1.193782859
1.193917768
1.194446491
1.195177059
1.195798522
1.19561603
1.195043174
1.19413638
1.193162625
1.192270844
1.191604577
1.191279797
1.191502026
1.19220245
1.193031139
1.193334147
1.193066962
1.19243984
1.191629693
1.190739712
1.190064815
1.189806643
1.189906099
1.190183789
1.190341906
1.190299066
1.190189074
1.189951856
1.189428925
1.189072011
1.18905418
1.18957643
1.191201168
1.190425718
1.190251202
1.190460114
1.190912588
1.191566092
1.192241245
1.192495969
1.192047368
1.19132146
1.190396317
1.189422577
1.188639781
1.188487731
1.188802913
1.189496133
1.190110423
1.190281174
1.189942026
1.189193657
1.188307659
1.187486719
1.186907834
1.186777078
1.186994629
1.18715077
1.186931602
1.186301624
1.185743886
1.185453125
1.185235337
1.184977426
1.185023201
1.185567304
1.186681073
1.188294308
1.18665101
1.186600111
1.187034652
1.18766818
1.18836202
1.189013267
1.188882306
1.188269624
1.187553284
1.186785694
1.185943526
1.185393167
1.185609046
1.186182421
1.186595012
1.18667194
1.186419574
1.185779587
1.184915544
1.184070385
1.183501251
1.183371001
1.183648063
1.183915023
1.18371763
1.183014297
1.182005258
1.181236277
1.180907204
1.180970128
1.181280385
1.181825057
1.182825942
1.184263209
1.185279765
1.18310558
1.183156841
1.183663935
1.184197574
1.184899453
1.185565512
1.185198964
1.184504352
1.18383906
1.183237533
1.1825526
1.182241694
1.182589426
1.18285693
1.182711066
1.182369563
1.181863758
1.181249391
1.18064832
1.180117841
1.179857574
1.180181327
1.180680685
1.180616451
1.180025117
1.179088133
1.17812753
1.177412693
1.177031372
1.177315159
1.178179534
1.179360312
1.180599781
1.181598014
1.181678454
1.179843009
1.179981234
1.180380517
1.180680367
1.181334869
1.181991061
1.181593853
1.180957062
1.180245263
1.179613043
1.178962278
1.178719567
1.178851172
1.17874925
1.178361507
1.177766786
1.17703038
1.176549964
1.176483285
1.176669469
1.177069098
1.177653726
1.177772165
1.177277755
1.176338492
1.175396644
1.174820244
1.174539179
1.174516603
1.175050167
1.176224497
1.177517161
1.178164535
1.178077697
1.177631628
1.177035819
1.177111893
1.177109836
1.177198948
1.177723941
1.178310321
1.178096714
1.17755609
1.176742623
1.175918507
1.175204216
1.174946168
1.174825629
1.174512985
1.174136385
1.173535355
1.17285675
1.172491542
1.172696902
1.173606241
1.174901305
1.175419603
1.174987035
1.174051269
1.173003766
1.172254575
1.171997538
1.172182788
1.172868167
1.173870347
1.174595539
1.174847395
1.174805092
1.174245134
1.173536666
1.174239062
1.174173459
1.173743359
1.173758813
1.174202003
1.174652439
1.174668894
1.17422411
1.173234444
1.172214695
1.1713369
1.171024288
1.170768381
1.170411983
1.170194293
1.169860421
1.169718946
1.169801273
1.170293908
1.171673672
1.172879224
1.172812568
1.171985691
1.171010549
1.170263867
1.169929158
1.170007701
1.170552734
1.171336986
1.17192289
1.171958692
1.171604676
1.171274974
1.170863591
1.170328006
1.170793447
1.170688311
1.17023304
1.170292535
1.17071928
1.171073066
1.171234735
1.170797788
1.169703128
1.168569579
1.16758695
1.16726139
1.166978654
1.166685652
1.166697436
1.166769263
1.167205718
1.168044465
1.169193764
1.170159535
1.17022395
1.169685728
1.168906482
1.168216864
1.167880772
1.168037289
1.168633869
1.169197628
1.169344986
1.169211956
1.169048599
1.168708302
1.168269393
1.168099499
1.168287731
1.166928315
1.166829721
1.166624685
1.166829095
1.167324762
1.167698043
1.167725599
1.167187209
1.166094838
1.164973706
1.164036357
1.163756802
1.163596921
1.163593182
1.164078155
1.164808552
1.165764855
1.166843342
1.167501772
1.167395404
1.166878729
1.16631487
1.16586329
1.165591208
1.165685563
1.166263076
1.166803532
1.166963403
1.166732025
1.166298978
1.166063913
1.165833357
1.165593429
1.165617545
1.166620975
1.162716896
1.162747109
1.162906659
1.163363641
1.164029273
1.164436537
1.164226193
1.163493686
1.162452747
1.161462857
1.160634063
1.160460885
1.160526393
1.160975942
1.162244836
1.163674104
1.164658436
1.165018157
1.164628592
1.163907886
1.163389194
1.163145936
1.16304952
1.163161579
1.163716777
1.164311697
1.164340007
1.16398393
1.163638701
1.163378821
1.163210878
1.163178114
1.163318082
1.163917126
1.165796532
1.158819458
1.158970049
1.159433721
1.160159208
1.161062249
1.161267931
1.16081915
1.159837662
1.158835121
1.158041712
1.157526501
1.157559373
1.157931655
1.158808943
1.160398479
1.161671617
1.162135432
1.162024817
1.161262553
1.160304003
1.159899247
1.160035409
1.160503954
1.161221387
1.162001711
1.162109514
1.161606246
1.16067771
1.160156544
1.160184906
1.160472089
1.160993661
1.161908055
1.163504488
1.165509088
1.155680279
1.155860976
1.156496009
1.157322923
1.15824859
1.158181322
1.157538594
1.156460626
1.15550872
1.154913061
1.154772743
1.155038384
1.15568362
1.156743634
1.157747852
1.158328022
1.158655703
1.158583973
1.157928364
1.157115119
1.156825432
1.15718185
1.158257072
1.159599096
1.16013862
1.159741045
1.15877923
1.157773283
1.157138599
1.157164092
1.157910981
1.159265682
1.16123495
1.163106018
1.163711585
1.153382212
1.15411861
1.154825341
1.155468458
1.155218297
1.154410288
1.153499116
1.152765061
1.152431782
1.152534049
1.152922839
1.153461052
1.154111851
1.154412612
1.15467814
1.155027187
1.154949841
1.154721358
1.154471656
1.154643344
1.1554682
1.156901278
1.158015261
1.158017145
1.157138352
1.156044142
1.155350709
1.155128676
1.155397295
1.156585657
1.158530032
1.160187955
1.160766216
1.160456989
1.151582403
1.152079209
1.15246692
1.15269849
1.152280019
1.151492714
1.150818879
1.150510424
1.150512185
1.150640309
1.150981128
1.151330602
1.151601036
1.151609619
1.151667649
1.151887953
1.151866545
1.151954691
1.152456304
1.153334562
1.15487232
1.156046464
1.156153635
1.155544412
1.154514429
1.153565125
1.153133645
1.153378958
1.154455531
1.155995017
1.15694201
1.157097977
1.157074247
1.156727522
1.149867064
1.149901888
1.150108905
1.149979597
1.149478779
1.148916945
1.1486815
1.148779853
1.148774005
1.148689194
1.14905936
1.149417764
1.14955617
1.14951586
1.149434659
1.149483594
1.149707608
1.150294953
1.151701086
1.153444997
1.154436242
1.154382453
1.153680449
1.152844693
1.152205189
1.151831285
1.15185898
1.15251235
1.15355089
1.154053835
1.153898757
1.153594593
1.153358662
1.15304959
1.147658865
1.147426127
1.147696526
1.147374668
1.146939707
1.146737942
1.147031271
1.147246404
1.146913903
1.146633528
1.146992021
1.147457536
1.147672207
1.147614634
1.147589094
1.147743137
1.14842702
1.149915813
1.151693745
1.152644843
1.152475963
1.151865043
1.151078157
1.150430007
1.150302756
1.150675511
1.15147577
1.151846361
1.151435361
1.150888755
1.150563056
1.150307377
1.150009574
1.15003684
1.145016592
1.144951483
1.145348196
1.145040069
1.14481733
1.145076946
1.145587022
1.145319871
1.144492841
1.144164229
1.144486119
1.145264189
1.145872956
1.146136731
1.14638824
1.146986718
1.148069356
1.149181034
1.149790957
1.14998794
1.149810985
1.149202799
1.148740778
1.148616189
1.149037281
1.150222489
1.150793294
1.150162069
1.148835577
1.147796737
1.147320659
1.147140996
1.147139802
1.147803448
1.142204662
1.1426522
1.143121342
1.143052948
1.143122323
1.143640028
1.143621613
1.142983675
1.142082531
1.141750617
1.142060749
1.143152806
1.144185105
1.144863851
1.145570062
1.146149598
1.146689071
1.146787936
1.146868616
1.147065342
1.14702508
1.146740368
1.146712037
1.14726702
1.148561527
1.149333372
1.148926911
1.147726244
1.146393575
1.145255915
1.144617527
1.144524137
1.144997316
1.14662067
1.139545159
1.140381201
1.140979342
1.141277904
1.141676482
1.141842574
1.141413489
1.140765734
1.140182581
1.13997976
1.140389595
1.14157191
1.142724889
1.143485451
1.144055714
1.144222388
1.144330312
1.144297476
1.143936072
1.143866428
1.144264676
1.144666119
1.145296636
1.146695303
1.147435805
1.146867304
1.146059289
1.145031755
1.143817235
1.142962172
1.142636009
1.142915613
1.144212519
1.146421286
1.137197779
1.138083838
1.138917909
1.139495246
1.139817875
1.139663986
1.139272798
1.138904251
1.138652477
1.138745877
1.139466744
1.140335731
1.140993238
1.141316572
1.141457772
1.141637848
1.141761123
1.141839546
1.141831786
1.141763389
1.142160427
1.143135102
1.144715717
1.145570463
1.145167035
1.144078886
1.142842366
1.141931636
1.14130436
1.141023048
1.14134164
1.142740348
1.144141244
1.144563263
1.135011661
1.135789849
1.136797135
)
;

boundaryField
{
    inlet
    {
        type            fixedValue;
        value           nonuniform 0();
    }
    outlet
    {
        type            inletOutlet;
        inletValue      uniform 1;
        value           nonuniform List<scalar> 
62
(
1.330045927
1.32887678
1.325852081
1.320722291
1.312963638
1.303145576
1.29205588
1.281005004
1.270398276
1.26100953
1.253246418
1.247196827
1.242282716
1.238633426
1.236587007
1.235698428
1.235361763
1.235694451
1.236110464
1.236419443
1.236147824
1.235226074
1.2338951
1.232380987
1.230801466
1.229362447
1.22805628
1.226770145
1.225435508
1.223963828
1.222340101
1.220779716
1.219173445
1.217308049
1.214781442
1.211722129
1.208432197
1.204922574
1.201199874
1.19748744
1.194247295
1.19136215
1.188417358
1.185285508
1.181584815
1.177518897
1.173449476
1.170231488
1.168272654
1.166800986
1.166122473
1.165691016
1.163625505
1.160322672
1.156589118
1.152929194
1.14997587
1.147892717
1.146939542
1.146641098
1.144463102
1.329841442
)
;
    }
    bottom
    {
        type            slip;
    }
    top
    {
        type            slip;
    }
    obstacle
    {
        type            zeroGradient;
    }
    defaultFaces
    {
        type            empty;
    }
    procBoundary23to17
    {
        type            processor;
        value           nonuniform List<scalar> 
39
(
1.330513767
1.330761258
1.330850151
1.330950404
1.331122787
1.331499427
1.331911626
1.331992819
1.331870814
1.331554776
1.331092103
1.33073164
1.330507692
1.330288761
1.329810689
1.328844292
1.32587461
1.325878625
1.327046458
1.328763908
1.32986984
1.330536253
1.330498206
1.329947242
1.328633883
1.327555077
1.327359369
1.32773571
1.328562861
1.329204499
1.329151319
1.329017385
1.328993407
1.329109493
1.329517531
1.329838063
1.329824181
1.33007869
1.33007869
)
;
    }
    procBoundary23to22
    {
        type            processor;
        value           nonuniform List<scalar> 
64
(
1.326768148
1.325309685
1.321836395
1.315834411
1.306670994
1.294990208
1.281820508
1.268303844
1.256177496
1.24618832
1.238703882
1.233783637
1.231691723
1.231691723
1.230102622
1.229165066
1.228604143
1.228349373
1.229198457
1.230082591
1.230409447
1.230729487
1.23079121
1.230394543
1.229474217
1.228021037
1.226451327
1.226451327
1.225359188
1.224224144
1.222606745
1.220797066
1.218357907
1.215654822
1.213051557
1.210617089
1.208964659
1.207679927
1.205694838
1.203299712
1.200794822
1.200013618
1.200013618
1.197120173
1.193909306
1.190496406
1.186908563
1.183314243
1.179808109
1.176650838
1.173712891
1.170431296
1.166736468
1.162803236
1.159128367
1.155946989
1.15309415
1.15309415
1.151136549
1.149461219
1.147497446
1.145080498
1.142323382
1.13954188
)
;
    }
    procBoundary23to28
    {
        type            processor;
        value           nonuniform List<scalar> 2(1.13697834 1.134591702);
    }
    procBoundary23to29