/*--------------------------------*- C++ -*----------------------------------*\
  =========                 |
  \\      /  F ield         | OpenFOAM: The Open Source CFD Toolbox
   \\    /   O peration     | Website:  https://openfoam.org
    \\  /    A nd           | Version:  7
     \\/     M anipulation  |
\*---------------------------------------------------------------------------*/
FoamFile
{
    version     2.0;
    format      ascii;
    class       volScalarField;
    location    "3.6";
    object      T;
}
// * * * * * * * * * * * * * * * * * * * * * * * * * * * * * * * * * * * * * //

dimensions      [0 0 0 1 0 0 0];

internalField   nonuniform List<scalar> 
2222
(
1.118759765
1.119890495
1.120217264
1.121215547
1.122948645
1.12439919
1.125659448
1.126267751
1.126193741
1.126249515
1.126128959
1.12553044
1.124571856
1.124210461
1.126264252
1.129969041
1.131740308
1.13152335
1.130425383
1.130043501
1.130568267
1.130760484
1.131090245
1.132409732
0.6273811546
0.6291330733
0.8961894576
1.076026533
1.115195652
1.105977047
1.109506497
1.120110773
1.118135893
1.117908275
1.1166568
1.117791229
1.118873936
1.119899405
1.120898466
1.121198188
1.121702893
1.122278319
1.122058931
1.121767426
1.122446729
1.123065773
1.123124552
1.123972569
1.126298214
1.128130215
1.128123899
1.127438932
1.126444599
1.126847949
1.127942017
1.128632522
1.129531245
1.130651099
0.6276745076
0.629698569
0.70070996
1.014285831
1.110995802
1.109406831
1.103786198
1.116617757
1.114174697
1.115690433
1.114714776
1.115061925
1.116368974
1.117073759
1.117900963
1.1179975
1.117671144
1.117806051
1.118182471
1.118479063
1.119774871
1.121537512
1.123494986
1.124355812
1.124742937
1.125196624
1.124336059
1.123361845
1.123146046
1.12415066
1.125717567
1.126876322
1.127485116
1.127764396
0.6299209232
0.6306576428
0.6322875912
0.9112470233
1.088739118
1.110361562
1.09885503
1.111286914
1.110304744
1.112412897
1.112173265
1.111585389
1.11301512
1.113903125
1.114657966
1.114656568
1.114214641
1.114410502
1.115223116
1.116538091
1.118977216
1.122251815
1.122676242
1.122347766
1.122388277
1.122784001
1.121706047
1.120365122
1.120467208
1.122025766
1.12394634
1.124774499
1.124460849
1.12437479
0.6332356384
0.6325426341
0.6345008357
0.723915586
1.016933115
1.10668898
1.100485279
1.104282948
1.109025592
1.108868731
1.109385453
1.108270582
1.109830028
1.110822337
1.111327847
1.111518654
1.11141993
1.112042335
1.113436765
1.116153019
1.119534873
1.120712441
1.118944776
1.118491825
1.119270439
1.120220181
1.119210375
1.118029966
1.11848738
1.120479697
1.122043878
1.121965346
1.120959424
1.120873072
0.6347892811
0.6357127439
0.6374496224
0.6374649938
0.9141736765
1.093407985
1.102801777
1.095989797
1.107647238
1.104971985
1.107081559
1.106316409
1.107298693
1.108113351
1.108381435
1.108978098
1.109908555
1.111142176
1.11366041
1.116659109
1.117772723
1.116885062
1.114716149
1.114260246
1.115185958
1.116581911
1.116423836
1.11630724
1.117555381
1.119348964
1.119609784
1.118664404
1.117452646
1.117506404
0.6353709397
0.637096844
0.637994049
0.6397913759
0.7402744119
1.023764379
1.102651471
1.090721641
1.105567033
1.101796031
1.105419963
1.105699712
1.105557545
1.106091756
1.106235186
1.107426362
1.109521186
1.111894387
1.113672543
1.114291733
1.114083821
1.11306368
1.11039786
1.109991151
1.111699433
1.113682829
1.114443231
1.115467247
1.11726684
1.117648722
1.116640407
1.115211505
1.114266143
1.114473503
0.6375730545
0.6380154383
0.6405937488
0.6412670593
0.9154372452
1.094600785
1.088650925
1.103385606
1.100442988
1.104374386
1.106071039
1.104390053
1.104704259
1.105156491
1.107038675
1.110031093
1.111361909
1.111358429
1.111067245
1.110509669
1.108997097
1.106837548
1.107319468
1.109928782
1.112991972
1.114497277
1.115118474
1.115403398
1.114891016
1.113427547
1.112002044
1.111426903
1.111831124
0.637977146
0.6385610456
0.6405232906
0.6420160468
0.7516904363
1.033938675
1.094047146
1.098755592
1.101980061
1.102553193
1.105046953
1.10263129
1.10316324
1.10420929
1.106166406
1.108108786
1.108452337
1.108104248
1.108020289
1.107509853
1.1062594
1.104773077
1.105943338
1.110016475
1.113564709
1.113706908
1.112893571
1.112058745
1.111493545
1.110467469
1.10934117
1.109011951
1.109749512
1.111695261
0.6392905396
0.6408782317
0.6415655081
0.6438421725
0.6444767288
0.9238067343
1.089103628
1.083455388
1.102853612
1.098974288
1.102131259
1.100680799
1.101172572
1.102646756
1.103658274
1.104551951
1.105138625
1.104838292
1.104673672
1.104719887
1.103962059
1.103429271
1.10573788
1.110871006
1.112526688
1.111287606
1.109705597
1.108571599
1.107970854
1.107735809
1.107232357
1.107183263
1.108311047
1.109634341
0.6428676597
0.6442006365
0.6449596572
0.6466767832
0.6469004156
0.7685013032
1.055876269
1.072396038
1.101318227
1.093805862
1.098404805
1.099676294
1.099286172
1.100600766
1.100664231
1.100959913
1.10151173
1.101806722
1.10203059
1.102659563
1.102751491
1.103452127
1.105633395
1.109391
1.10985677
1.108559302
1.106868456
1.105849187
1.105658706
1.105620849
1.105646262
1.106153075
1.106838569
1.10737238
0.6451157888
0.6458719318
0.6470948645
0.6484818585
0.6497436158
0.649584709
0.9383463128
1.072356101
1.099075892
1.091443561
1.095004044
1.098794625
1.097549756
1.098488332
1.098223188
1.097914878
1.098768247
1.099217792
1.100048094
1.101848782
1.102549926
1.102153517
1.103310519
1.106730585
1.106931381
1.105715164
1.104349677
1.103944278
1.104100064
1.10448065
1.105030756
1.105214348
1.104870217
1.105123347
0.6459934771
0.646498187
0.6478624178
0.6489884664
0.6504098079
0.6511045794
0.7795352831
1.05621118
1.088346389
1.094510582
1.091201706
1.097527242
1.095729567
1.096345644
1.096584766
1.096297836
1.096715375
1.097526761
1.099654477
1.101815503
1.100771859
1.098765246
1.099901651
1.103248046
1.103349582
1.102230958
1.101960884
1.102307036
1.103047624
1.104209275
1.104365912
1.103329736
1.102570877
1.102905818
0.646390006
0.6468604194
0.6480365562
0.6491905426
0.650529677
0.6516124545
0.656572469
0.9791991732
1.060151746
1.096068882
1.087978349
1.095407862
1.093672987
1.09415996
1.095286174
1.095108201
1.095371392
1.097046343
1.099279264
1.09967721
1.097466102
1.095063848
1.096092838
1.099241784
1.100228111
1.099668464
1.100197051
1.101684948
1.103216121
1.103568242
1.102194844
1.10071941
1.10021639
1.100717199
0.6470466972
0.64794193
0.6486265141
0.649929027
0.6511495273
0.6522477718
0.6530453609
0.7971255452
1.029553613
1.094200462
1.085330316
1.091620539
1.092941085
1.092108971
1.093692221
1.093985742
1.094598313
1.095918402
1.096935178
1.096675586
1.094287529
1.091330491
1.093166973
1.096436493
1.098040352
1.097995941
1.099487029
1.101943997
1.102774553
1.101716034
1.099370642
1.097995091
1.097915126
1.098762089
0.6513045236
0.6513566323
0.6527739082
0.6537976791
0.6547707355
0.6550191096
0.6646078289
0.9864522703
1.085531208
1.086077128
1.085956283
1.092384688
1.090263988
1.091718013
1.092764326
1.093201842
1.093618998
1.094237395
1.093841772
1.090645548
1.090060905
1.093526188
1.096037115
1.097068971
1.097681077
1.099465174
1.100819888
1.100457856
1.099068107
1.096985443
1.095682184
1.095949772
1.097380595
0.6540651561
0.6545888601
0.6555492131
0.6566207164
0.6575819412
0.6583850913
0.6575842319
0.8294136271
1.03497431
1.086671736
1.079840216
1.090423794
1.087978084
1.089463216
1.090652109
1.091318915
1.091456165
1.091774616
1.091446636
1.088655656
1.089057558
1.093498006
1.095997467
1.096959168
1.096728021
1.097185213
1.097864439
1.097503495
1.096067561
1.094418968
1.093852387
1.094578666
1.096567577
0.6551813627
0.65600556
0.6566848294
0.6578495792
0.6587246591
0.6594026723
0.6597951797
0.6761954124
0.9733574605
1.082963125
1.074754585
1.088290263
1.086403988
1.086581883
1.088434304
1.08935877
1.08933978
1.089557156
1.089120718
1.086468584
1.087552197
1.093055274
1.096592625
1.095603296
1.094091023
1.094164875
1.094779728
1.094504491
1.093439796
1.092374
1.092443363
1.09388084
1.095393486
0.6555566035
0.6565305909
0.657066749
0.658167444
0.6591310441
0.6597813714
0.6606519348
0.6609279247
0.8472983249
1.056261807
1.075408303
1.085406607
1.086836174
1.084072213
1.086609613
1.087180453
1.087175998
1.087748235
1.087530625
1.084954369
1.087045245
1.092740096
1.094990388
1.092917303
1.091488689
1.091821098
1.092192452
1.091972094
1.091520631
1.091361958
1.092182021
1.093206541
1.093527614
0.6561580084
0.6569762511
0.6575948122
0.6586741828
0.6595537465
0.660308671
0.6607909317
0.6617145036
0.6969849095
0.9839569335
1.076983115
1.074976796
1.085904911
1.081945827
1.084872006
1.084999995
1.085436987
1.086812957
1.086816877
1.083757439
1.084495954
1.090809507
1.092123491
1.089749047
1.089138401
1.089717012
1.09016335
1.090252472
1.090542044
1.091413028
1.091932311
1.091366204
1.091364876
0.6586139748
0.6590070761
0.6596185016
0.6604292427
0.6614252865
0.6623504378
0.6624792255
0.663288495
0.664051426
0.874645465
1.066345242
1.060212776
1.083825445
1.081261433
1.082692038
1.083002025
1.083964897
1.086019309
1.085317549
1.080223241
1.081214037
1.087629896
1.088545409
1.086273031
1.086580243
1.087876377
1.088794617
1.089678361
1.090728591
1.090819841
1.089887227
1.089062757
1.089304896
0.6619930851
0.6625990885
0.663178001
0.663839335
0.6646139749
0.6654253452
0.6658114285
0.6661783693
0.6662242472
0.726548524
1.006308975
1.056032137
1.082253028
1.08199068
1.080328702
1.080593719
1.081999305
1.084204976
1.083059344
1.077227119
1.078132448
1.084567751
1.085644381
1.083719771
1.084462321
1.086588031
1.088556268
1.089760017
1.089753355
1.088684466
1.087453781
1.086922259
1.087494401
0.6636640834
0.6643565721
0.6648376157
0.6655913685
0.6662994091
0.6668848668
0.6674122089
0.6677982915
0.6686381879
0.6682976352
0.8914924744
1.059644687
1.077210235
1.081506427
1.077306199
1.079131054
1.080587435
1.082273187
1.08094644
1.07514742
1.076676857
1.082694433
1.084017377
1.081962012
1.083109528
1.086533838
1.088337819
1.088253264
1.087512869
1.086506842
1.08538925
1.085267609
1.086236137
0.6650726686
0.6654377561
0.6661009421
0.6669162428
0.667494462
0.6680208888
0.6682594345
0.6691358276
0.6697454854
0.7571603913
1.037873936
1.058035944
1.079727954
1.074708522
1.078806099
1.079359552
1.080916536
1.079933071
1.075269952
1.078645736
1.083505168
1.08342443
1.080993065
1.082615721
1.085775585
1.086405471
1.086026929
1.085292752
1.084257914
1.083687879
1.084214364
1.085805174
0.6656331333
0.6660898439
0.6665424908
0.6672024981
0.6679436157
0.6686721296
0.6687652445
0.6692640044
0.6701599479
0.6734969478
0.9344246346
1.040577398
1.078159629
1.074130184
1.07832473
1.07813272
1.079855118
1.079054404
1.075944896
1.081645972
1.0854115
1.083115518
1.080243294
1.081735074
1.084037737
1.084293562
1.083869229
1.083124896
1.082656996
1.082556601
1.083774495
1.08566246
1.086024074
0.6670641624
0.6677776871
0.6682291413
0.668924389
0.6695134852
0.6698861695
0.670450347
0.6707428451
0.6714568341
0.6721149026
0.7948991011
1.02961662
1.071979108
1.076160289
1.076957565
1.077129372
1.079137401
1.078071538
1.0754068
1.082515841
1.08661476
1.082328765
1.078802528
1.080497846
1.082574734
1.082597587
1.08212047
1.081688888
1.081668655
1.082504792
1.084129019
1.084433827
1.084128716
0.6707790349
0.6712505108
0.671456908
0.6720546479
0.6728096538
0.6731906356
0.6733772255
0.6737500812
0.67426171
0.6739609474
0.6905063224
0.9835810923
1.050344038
1.076401532
1.07264357
1.075956117
1.078383088
1.075425278
1.073463191
1.08129733
1.085171232
1.080320211
1.077228368
1.079127614
1.080986595
1.081012034
1.080550986
1.080554867
1.081333668
1.08249304
1.083184342
1.082630392
1.081870294
0.6726841946
0.6731947469
0.6735817842
0.6739937588
0.6744188491
0.6749194723
0.6752225561
0.6754909211
0.675978185
0.6764348712
0.6758406077
0.84570275
1.025196521
1.074604475
1.066774575
1.074465102
1.076645667
1.070272374
1.067832558
1.078799576
1.082891901
1.077521499
1.075511494
1.077683639
1.079523662
1.079718137
1.079604863
1.080078105
1.080822948
1.081363432
1.081451306
1.080890148
1.079971347
0.6735217599
0.6738466437
0.6744005409
0.674938851
0.6752131767
0.6755667632
0.6758465177
0.6762544105
0.6766742324
0.6772881881
0.6775188733
0.718166132
0.9999578571
1.069047739
1.063502489
1.072795881
1.074468033
1.066753678
1.063839999
1.076422109
1.080562762
1.074292513
1.073785338
1.076493409
1.078451416
1.078597593
1.078655561
1.078900913
1.0789824
1.079524708
1.079530184
1.078810596
1.077876259
0.6745201278
0.6746852464
0.6748099916
0.6752782181
0.6760824324
0.6763532203
0.6764470785
0.676547122
0.6772064094
0.6777199108
0.6785071111
0.6787073014
0.8995238662
1.038158314
1.065297111
1.070724871
1.073035758
1.0647546
1.061726599
1.074864268
1.077974067
1.071703945
1.0721728
1.075639747
1.077529354
1.077163503
1.076817136
1.076637864
1.076722021
1.07731918
1.077399053
1.076725957
1.076119735
0.6757638398
0.6767856977
0.676893243
0.6769506989
0.6773262906
0.6779355731
0.6782955634
0.6783850204
0.6784714831
0.6788216626
0.6791614769
0.6797922779
0.7577251497
0.9960815436
1.066954247
1.064231781
1.07264612
1.065756617
1.061429523
1.07496803
1.076109354
1.069512221
1.070699991
1.07449651
1.076000458
1.075067929
1.074387813
1.074105573
1.07440762
1.075035314
1.075429734
1.075261427
1.075087391
0.6794565447
0.6796761872
0.6800681828
0.6805783565
0.6807365358
0.6807864736
0.6810189124
0.6814155974
0.6817299033
0.6814364943
0.6804933498
0.6858644599
0.940299856
1.061758238
1.055845927
1.072362795
1.066291853
1.064158368
1.077431584
1.074905184
1.067251154
1.069015412
1.073072009
1.073974411
1.072648388
1.071927998
1.071702472
1.072128978
1.073369829
1.074245904
1.074812799
1.07524358
0.6816040551
0.6814679282
0.6816879046
0.6820944943
0.6824614447
0.6826121637
0.6825715286
0.6828601544
0.6832451418
0.68346393
0.6830954346
0.6826249639
0.8100590086
1.024669453
1.053252314
1.072583926
1.065227839
1.064774243
1.079183597
1.073740639
1.064754075
1.067271219
1.07146048
1.071950431
1.070573293
1.069781711
1.069701716
1.070760368
1.072676048
1.074528849
1.075391925
1.075197993
0.682341865
0.682631543
0.6828865369
0.6830083888
0.6831089497
0.6833179259
0.683607147
0.6837464153
0.6839267878
0.6843000387
0.6848027599
0.6843066445
0.7007414701
0.9571996524
1.056550248
1.070674438
1.062669697
1.063533309
1.079915492
1.0715669
1.062484755
1.065912324
1.070229088
1.07048062
1.069192234
1.068589203
1.068690165
1.070208406
1.073163715
1.075089304
1.075197384
1.074596279
0.6835719036
0.6835262429
0.6835504355
0.6841998778
0.6844254946
0.6844226273
0.6842277678
0.6845505158
0.6848343983
0.6849868848
0.6855747465
0.6861052938
0.6858521414
0.8594349888
1.041891958
1.062101553
1.054751252
1.060924478
1.079507941
1.068287255
1.061215951
1.065644987
1.069775528
1.070073364
1.068937594
1.068759626
1.069138625
1.070874639
1.073766674
1.075109403
1.075150422
1.074584137
0.6862232174
0.686410073
0.6861845983
0.686108585
0.6865278599
0.6867899593
0.6867482662
0.686697039
0.6869526589
0.6870013454
0.6864513969
0.687016469
0.6872498999
0.7353147809
0.9922990878
1.048616219
1.045839419
1.058455146
1.079728859
1.065611274
1.061161943
1.066673596
1.070837685
1.070761374
1.0692969
1.06938986
1.069980919
1.071775949
1.074441937
1.07547753
1.07535116
1.074674505
0.6882181782
0.6881726976
0.6881472453
0.6883763375
0.6885391602
0.6885189235
0.6884114408
0.6885663126
0.6887555126
0.6888868073
0.6887005612
0.6882239034
0.6884667541
0.6894182943
0.8898135777
1.03949472
1.04304923
1.058496951
1.082154121
1.065404282
1.063218258
1.070131364
1.073393828
1.072502809
1.070792161
1.070963787
1.071484562
1.073068571
1.075226569
1.075845669
1.075563604
1.074816748
0.6895558742
0.6895794645
0.689282646
0.6893030037
0.689606601
0.6897501486
0.689587761
0.689477875
0.6896207642
0.689804682
0.6899744842
0.689864274
0.6898403207
0.68986579
0.7715683558
1.028589621
1.044029509
1.061458452
1.085458252
1.066816091
1.066893305
1.074701227
1.076449376
1.075029446
1.073488767
1.073218709
1.073524049
1.074669424
1.07596929
1.076090552
1.076111824
1.075939717
0.6909704837
0.6909845254
0.6907339937
0.6907011585
0.6908510396
0.6909458766
0.6908711534
0.6907061329
0.6908020035
0.690944009
0.690857172
0.6907531576
0.6908184104
0.6908614231
0.6961284009
0.9505237393
1.041601766
1.070708474
1.092664701
1.070672211
1.07242961
1.078959785
1.078605867
1.076781011
1.075480477
1.074807052
1.074750894
1.075332137
1.07604698
1.076838552
1.077609764
1.077549917
0.691640518
0.6916468971
0.6913952744
0.6912648982
0.6914116373
0.6915732925
0.691480569
0.6912498758
0.6913155172
0.691486653
0.6914587992
0.6912113931
0.6912273419
0.6913092198
0.6912869834
0.8164132972
1.01452478
1.081640731
1.097272819
1.072310767
1.074759791
1.079319356
1.078457973
1.076488386
1.075490729
1.074878817
1.075661122
1.076369641
1.076479584
1.077654245
1.078568094
1.078510362
0.6950735676
0.6948866421
0.6945643171
0.6945435755
0.6946255641
0.6945883364
0.6943123237
0.694201759
0.6942480241
0.6942511876
0.6940644931
0.6939096866
0.6939109186
0.6938822696
0.7064652574
0.8484188536
1.003678787
1.032624317
1.056140899
1.068892177
1.078374855
1.078243183
1.075597546
1.074281354
1.075114156
1.076009782
1.076485448
1.076630513
1.077032991
1.077575289
1.078174956
0.7044161067
0.7043253367
0.7038293832
0.7032345058
0.7030470446
0.7030584801
0.7027918359
0.7022366037
0.7019299309
0.7019131609
0.7017914287
0.7013602346
0.7010377008
0.700978611
0.699868568
0.7027836397
0.7527951535
0.8685338926
0.9935958176
1.040324568
1.061504088
1.068209725
1.066338533
1.067612584
1.070891644
1.07255038
1.072546707
1.072207396
1.071792928
1.072106288
1.073331095
0.7156319105
0.7157555535
0.7150720747
0.7134055864
0.7129902365
0.7131766464
0.7129547251
0.7117697067
0.7109086495
0.7110198865
0.7109930345
0.7102781975
0.709284193
0.7092011626
0.7095209785
0.709294126
0.7095333377
0.7186330233
0.7837880789
0.8965590186
0.9860123781
1.031152892
1.039802658
1.05636813
1.063302184
1.066147598
1.065895754
1.06494447
1.063110206
1.063301271
1.064957021
0.7254198262
0.7248794684
0.7245863083
0.723587883
0.7221936582
0.7215092257
0.7213401772
0.7208185738
0.7196449526
0.7187558701
0.7185025988
0.7182418755
0.7174361889
0.7165817937
0.7160058777
0.7155969483
0.7146494949
0.7136801293
0.7143907706
0.7343068563
0.8031338732
0.9100512029
0.9892421392
1.035389349
1.045149577
1.050218594
1.055438451
1.05556558
1.054049818
1.05435259
1.055617939
0.735706905
0.7347960803
0.7349591637
0.7342948932
0.7319063559
0.7303316124
0.7304887966
0.7303515142
0.7289760039
0.7268898886
0.7266106115
0.7266555059
0.7260072029
0.7242083303
0.7234972491
0.7237382723
0.7235916324
0.7226310792
0.7215608125
0.7218759904
0.7236230397
0.7459556901
0.8317549898
0.9253653763
0.981884821
1.014488623
1.042905727
1.04295554
1.044105464
1.045874207
1.047121982
0.7471580517
0.7445157454
0.7437356592
0.7433700944
0.7419737445
0.7397118082
0.7385959999
0.7383478283
0.7376779023
0.7359362415
0.7343628348
0.7338732775
0.7335353701
0.7325162438
0.7310735069
0.7302393921
0.72994048
0.729269816
0.7276424474
0.7265983215
0.7259901994
0.7258227882
0.7296883626
0.7560026511
0.8467497365
0.9358141886
1.014294833
1.027531935
1.040671409
1.042294542
1.040734872
0.7589940845
0.7547184739
0.7528178125
0.7529889906
0.7523507814
0.7495277416
0.7468604502
0.746862673
0.7467388915
0.7452178416
0.7423015539
0.741481149
0.7415948647
0.7410332166
0.7389320766
0.7371278215
0.7371889548
0.7371676672
0.736106016
0.734638074
0.7343284976
0.7337952673
0.7321809669
0.7322580119
0.7379752654
0.7771242142
0.8610938266
0.954540691
1.024291508
1.033314104
1.033857234
0.7691138197
0.7660784239
0.7624188477
0.7613859026
0.7610475396
0.7594389545
0.7563456383
0.7546735004
0.7543803066
0.7536201835
0.7514013621
0.7491877489
0.748594391
0.7482604787
0.7470827652
0.7450191106
0.7438119949
0.7434889283
0.742776632
0.7408652968
0.7397518966
0.7394933939
0.7384875228
0.7367672399
0.7367026993
0.7371992971
0.7447406878
0.8009006174
0.889672574
0.9614377067
1.00496884
0.7792047239
0.777670724
0.7728241
0.7697692935
0.7699329953
0.7694199942
0.7664916228
0.7626325387
0.7622435033
0.7621675653
0.7606736249
0.7572404792
0.7557156754
0.7558285231
0.7553501453
0.7531864444
0.7504613238
0.7502559598
0.7501616508
0.7486113628
0.7469493118
0.7468667883
0.7464480674
0.7451909578
0.7438651829
0.7417316967
0.7418048151
0.743404903
0.7564934346
0.8170188324
0.8959341703
0.7880497764
0.7872699718
0.7840249091
0.7793678433
0.7779332259
0.7776565026
0.7760499242
0.7723342429
0.7698715225
0.7695265809
0.7687549414
0.7663067233
0.7634644577
0.7625878625
0.7622695614
0.7610932191
0.7585354289
0.7567631576
0.7564908599
0.7555848472
0.7533466611
0.7525797349
0.7518964112
0.7503789817
0.7497506348
0.7487917037
0.7467862152
0.7459516175
0.7459975882
0.7476926493
0.7650473122
0.7966277211
0.7965201693
0.7951617486
0.7904221025
0.7858874863
0.7857247899
0.7853467126
0.7827281288
0.7780092068
0.7767797393
0.7767122786
0.7754765365
0.7721816126
0.7692756157
0.7690505563
0.768771834
0.7669590804
0.7635325527
0.7628300294
0.7626543508
0.7609697351
0.7594469438
0.7588893011
0.7577723452
0.7566456303
0.7559319836
0.7542603638
0.7524003563
0.7517353438
0.7501725189
0.7501250187
0.8065921509
0.8050309282
0.8042833603
0.801343511
0.795965613
0.7934480981
0.7931611103
0.7918035402
0.7879630179
0.7843854356
0.7837608936
0.7830499219
0.7809442276
0.7776130082
0.7755244432
0.7751517405
0.7742922774
0.7716498856
0.7694213328
0.7690930224
0.7678996174
0.7658423017
0.7648879222
0.7635841845
0.7618543476
0.7612130338
0.7602291283
0.7580266544
0.7575489556
0.7570007909
0.7551473515
0.8187749055
0.813532206
0.8128716227
0.8115998794
0.8074646697
0.8018503128
0.8006875395
0.8002901303
0.7981494025
0.7932928791
0.7906718416
0.7903006509
0.7893126651
0.7867863944
0.782760015
0.7812954212
0.7811864645
0.779892981
0.7765246479
0.7753847735
0.7747124492
0.7728939644
0.7716431218
0.7704486041
0.7684525116
0.7677655992
0.767202993
0.7652552853
0.7634681079
0.7631426583
0.7619220559
0.8308304172
0.8239085187
0.8211034438
0.8202579468
0.81770929
0.8123666714
0.8084409581
0.8078038702
0.8066267133
0.8030678257
0.7986362746
0.7971936027
0.7964143755
0.7947287705
0.7914794432
0.7880949404
0.7874688045
0.7868264033
0.7841519719
0.7818310225
0.7811657895
0.7795758465
0.7779897915
0.7768718526
0.774669073
0.7728850911
0.7724388489
0.7711833001
0.7686665008
0.7682671164
0.767877734
0.8421177443
0.8363150189
0.829738869
0.8282663843
0.8270731363
0.8235885944
0.8175642369
0.814928881
0.8144162303
0.8126055621
0.808123041
0.8042961432
0.8031885915
0.8022362973
0.8002429801
0.7961187738
0.7935507148
0.7933309872
0.7920194401
0.7889179983
0.7875413046
0.7862179807
0.7843920063
0.7833491828
0.7817472212
0.779224927
0.7786371796
0.7779739096
0.7755756531
0.7741190582
0.7737635937
0.8514464589
0.8477240463
0.8406512266
0.8361644601
0.8350835168
0.8329729062
0.8281475068
0.8229356675
0.8215589943
0.8204880814
0.8173807646
0.8127255148
0.8100989588
0.8090418118
0.8076381629
0.8046240393
0.800552898
0.7995927251
0.7988657284
0.7961984182
0.7940092193
0.7926508201
0.7907078734
0.7894791982
0.7881845821
0.7854875586
0.7839593963
0.7834363622
0.7815588486
0.7789592001
0.7786533187
0.8598731143
0.8580014566
0.8529855061
0.8454031343
0.8425300165
0.8413962334
0.8386180215
0.8328665155
0.8285185635
0.8276373852
0.8260709147
0.8222723965
0.8177634919
0.8154956315
0.8145171483
0.8128645516
0.8088351629
0.8057346296
0.8052383816
0.8036420957
0.8010116211
0.7993102999
0.7970957391
0.7953988294
0.7945335241
0.7924709734
0.789884769
0.7893852932
0.7884128947
0.7855379538
0.7845635343
0.8680606858
0.8666070468
0.8634424213
0.8566338037
0.8505571045
0.8490242154
0.8473016076
0.8431011132
0.8370098158
0.834491143
0.8334564247
0.8308810132
0.8265176318
0.8226315755
0.8209847023
0.8198372031
0.8171249506
0.8127966659
0.8114309299
0.8103122886
0.8078257535
0.8058923775
0.8038086464
0.8013692712
0.8003977799
0.7989869261
0.7959846543
0.7947441278
0.7940519089
0.7915408929
0.7893928733
0.8776906375
0.8745102778
0.8727089315
0.86838584
0.8606090381
0.8562364669
0.8550647871
0.8527520451
0.8473970693
0.8416583974
0.840183189
0.8387869847
0.8356702656
0.8310420947
0.8273305103
0.8262095534
0.8248601867
0.8211504317
0.8177966167
0.8166001121
0.8146397475
0.8126186844
0.8107885904
0.8077437097
0.8059699916
0.8051633869
0.8028065508
0.80046527
0.7998952772
0.7983192055
0.7953423454
0.889952223
0.8827597269
0.8808644677
0.8781917743
0.872045254
0.8647003949
0.8622414709
0.8607609222
0.8571946182
0.8508789029
0.8469876333
0.8457594754
0.8436004233
0.8397583181
0.834972489
0.8324527066
0.8315005191
0.8291234044
0.8250232088
0.8229098102
0.82107878
0.818965733
0.8173274633
0.8146929638
0.8117316075
0.8108877318
0.8093631179
0.8063442519
0.8052822918
0.8042576735
0.8013067787
0.9033270891
0.8933637774
0.8884954458
0.8867542488
0.8831508191
0.8757563847
0.8695214336
0.8679078467
0.8659869113
0.8614167826
0.8549413257
0.8522438156
0.8508074875
0.8482820001
0.8439493088
0.8390013104
0.8375381729
0.8363748239
0.8331920228
0.8297786446
0.827423475
0.8250996693
0.8237011525
0.8219284796
0.8182009839
0.8162694248
0.8154606866
0.8129524478
0.8108644218
0.8100379019
0.8077817418
0.9144572558
0.9061532772
0.8973020422
0.8944599866
0.8921399132
0.8868675411
0.8789318203
0.8749443816
0.8735133673
0.8705972041
0.864652591
0.8592945302
0.8574635041
0.8556814711
0.8524848397
0.8472868045
0.8436578288
0.8427078621
0.8406484375
0.8371030209
0.834186209
0.8313836169
0.8296400691
0.8283372665
0.8254091853
0.8219255755
0.8210672506
0.8194190643
0.8166180785
0.8154813587
0.8138757282
0.9236295763
0.918590805
0.9091814567
0.9021286634
0.8999567471
0.8969216343
0.8904647651
0.8828673643
0.8803108205
0.8786519515
0.8748362522
0.8681712094
0.8638692974
0.8623391834
0.8603736732
0.8565493095
0.8508062888
0.848550411
0.8473887939
0.8447856642
0.8415342144
0.8380743317
0.8353300196
0.834310985
0.8326469963
0.828553017
0.8264312346
0.8254367207
0.8228542814
0.8209969633
0.8197868848
0.9320943622
0.9287603145
0.9217425137
0.9119443104
0.9073623032
0.9052083775
0.9009335494
0.8931630318
0.8872916487
0.8856191902
0.8833026792
0.8781469518
0.8716862613
0.8687229883
0.8671792767
0.8645705799
0.8595662944
0.854932148
0.8535429991
0.8517167038
0.8487438423
0.8452703283
0.8415078643
0.8399312834
0.8388719458
0.8358334039
0.8321387338
0.8310238964
0.8290668321
0.8265275013
0.8252695761
0.939866011
0.9368665508
0.9327025616
0.92434409
0.9154336481
0.9124164774
0.9099263385
0.9046054386
0.8962316947
0.8919963343
0.8904748685
0.8875076387
0.8815302076
0.8755661223
0.873353517
0.8716940791
0.8684766956
0.862844931
0.859428834
0.8579793376
0.8558306079
0.8528702239
0.8486395785
0.8452704227
0.8444551738
0.8428796427
0.8388770495
0.8365712587
0.8350063208
0.8322783615
0.8307035166
0.9506665
0.9448569517
0.941920294
0.9362351984
0.9263787656
0.9197011134
0.9174807783
0.9141223136
0.9071158316
0.89947932
0.8969468908
0.8950650421
0.890898684
0.8842307044
0.8796993767
0.8780538578
0.8759357196
0.8715377282
0.8662349992
0.8638881144
0.8621549625
0.8597618965
0.8562779128
0.8516471594
0.8497587621
0.8487792558
0.8458152573
0.8424385807
0.8407582725
0.8381804102
0.8359586522
0.9634723935
0.9528756231
0.9490015889
0.9456146127
0.9386265419
0.9286869284
0.9241153397
0.9219102629
0.9176563244
0.9096439764
0.9033893487
0.9015190866
0.8991075173
0.8940738531
0.8872612242
0.8838823215
0.8824005028
0.8797845942
0.874666108
0.8699880384
0.8678769433
0.86607606
0.8636605358
0.8593904816
0.8550796853
0.8540397295
0.8524178192
0.8490011676
0.8466326143
0.8441854014
0.8411466565
0.9761562259
0.9649769013
0.956660634
0.9537912491
0.9494652884
0.9405289597
0.9317687005
0.9288265348
0.9261278673
0.9203085907
0.9118645678
0.9076657182
0.9058887563
0.9026117376
0.8964879144
0.8904430011
0.8882281469
0.8865198873
0.8829240962
0.8774874692
0.873739309
0.8717969943
0.8699174024
0.866852176
0.8618090539
0.8591847485
0.8580755677
0.8554230464
0.852576571
0.8502185155
0.8467288836
0.9849660452
0.9775080437
0.9659109023
0.9600842928
0.9572389273
0.9517001307
0.9419019162
0.935181591
0.9328736315
0.9294868642
0.9225880597
0.9147066663
0.9117621452
0.9097403348
0.9057894498
0.8990678874
0.8939201146
0.8922415136
0.890184177
0.8860091284
0.8806083188
0.8771873429
0.8754743463
0.8735843606
0.8697307874
0.8647157026
0.8630955685
0.8614160132
0.8587798257
0.8564353337
0.8529659843
0.9921456343
0.9879709407
0.9788455665
0.9680847781
0.9643092462
0.9611086973
0.9539281334
0.9439183453
0.9393185417
)
;

boundaryField
{
    inlet
    {
        type            fixedValue;
        value           nonuniform 0();
    }
    outlet
    {
        type            inletOutlet;
        inletValue      nonuniform 0();
        value           nonuniform 0();
    }
    bottom
    {
        type            slip;
    }
    top
    {
        type            slip;
    }
    obstacle
    {
        type            zeroGradient;
    }
    defaultFaces
    {
        type            empty;
    }
    procBoundary28to21
    {
        type            processor;
        value           nonuniform List<scalar> 
19
(
0.6260374761
0.6263431052
0.6276677221
0.6310196582
0.6334460858
0.6343293915
0.6357086003
0.6357086003
0.6365023461
0.6396624987
0.6426681901
0.6438813712
0.6442358788
0.6445759442
0.6459726915
0.6498270845
0.6498270845
0.6530977515
0.6544726049
)
;
    }
    procBoundary28to22
    {
        type            processor;
        value           nonuniform List<scalar> 
35
(
1.121315134
1.122105386
1.121669349
1.121883296
1.123210668
1.125920449
1.128759849
1.130033218
1.129968532
1.130002097
1.129175797
1.128519182
1.127395363
1.126369951
1.127353899
1.130485131
1.133534699
1.134556673
1.134377719
1.133665353
1.133615049
1.133347273
1.133242169
1.133824401
0.6266142129
0.6856038882
1.027098058
1.113262842
1.116228721
1.107470432
1.118063299
1.121788674
1.120396379
1.1193147
1.1193147
)
;
    }
    procBoundary28to23
    {
        type            processor;
        value           uniform 1.134164146;
    }
    procBoundary28to27
    {
        type            processor;
        value           nonuniform List<scalar> 
55
(
0.6549099242
0.6553946079