/*--------------------------------*- C++ -*----------------------------------*\
  =========                 |
  \\      /  F ield         | OpenFOAM: The Open Source CFD Toolbox
   \\    /   O peration     | Website:  https://openfoam.org
    \\  /    A nd           | Version:  7
     \\/     M anipulation  |
\*---------------------------------------------------------------------------*/
FoamFile
{
    version     2.0;
    format      ascii;
    class       volVectorField;
    location    "3.9";
    object      U;
}
// * * * * * * * * * * * * * * * * * * * * * * * * * * * * * * * * * * * * * //

dimensions      [0 1 -1 0 0 0 0];

internalField   nonuniform List<vector> 
555
(
(3 -2.714243734e-14 0)
(2.987455677 0.001506821492 0)
(2.973485511 0.01185404993 0)
(2.959986235 0.01438939696 0)
(2.948878688 0.0219217895 0)
(2.935880376 0.0538477812 0)
(2.924962852 0.0667143768 0)
(2.921436735 0.06214993432 0)
(2.907466334 0.09257419396 0)
(2.898811682 0.1204758704 0)
(2.899298676 0.1223627221 0)
(2.887939481 0.1422763893 0)
(2.87650366 0.1621336523 0)
(2.877812339 0.1749631188 0)
(2.873163227 0.193067812 0)
(2.865844917 0.2077769131 0)
(2.858583311 0.2204443392 0)
(2.855485149 0.2319125639 0)
(2.998545523 0.002284218083 0)
(2.995590762 0.007362641693 0)
(2.990116205 0.01837187412 0)
(2.982648054 0.03442108222 0)
(2.976018792 0.05039514726 0)
(2.963146919 0.08252949685 0)
(2.955120413 0.1090620752 0)
(2.94759716 0.1303705609 0)
(2.929725928 0.171576574 0)
(2.92610388 0.1942621276 0)
(2.913007092 0.2274833218 0)
(2.899735498 0.2602426071 0)
(2.898512532 0.2690701773 0)
(2.884300022 0.2941861375 0)
(2.875687085 0.3165688562 0)
(2.869684402 0.3102539121 0)
(2.865904473 0.3080581441 0)
(2.999990702 1.475913842e-05 0)
(2.999944136 9.693893614e-05 0)
(2.999804164 0.0003618732213 0)
(2.999442095 0.00106978637 0)
(2.998547548 0.002921552587 0)
(2.997301299 0.006002614294 0)
(2.995734645 0.01058535742 0)
(2.992725665 0.01791930566 0)
(2.988580054 0.02904082579 0)
(2.984805777 0.04177998887 0)
(2.980269222 0.05719484253 0)
(2.974785991 0.07837812038 0)
(2.971185331 0.09269656038 0)
(2.963267317 0.1181561965 0)
(2.957080065 0.1486325389 0)
(2.959285046 0.1568720844 0)
(2.950064024 0.1817352872 0)
(2.999999994 8.883229548e-09 0)
(2.99999993 1.101851315e-07 0)
(2.9999994 1.026296695e-06 0)
(2.999996407 6.174326011e-06 0)
(2.999983676 2.815334492e-05 0)
(2.999945798 0.0001043331019 0)
(2.999851477 0.0003046992255 0)
(2.999623982 0.0007625433238 0)
(2.99913679 0.001808943476 0)
(2.998247711 0.003912136054 0)
(2.996914511 0.007181130057 0)
(2.994575159 0.01329073895 0)
(2.99137656 0.02215789079 0)
(2.987031873 0.03346109041 0)
(2.980241703 0.0536110728 0)
(2.976256292 0.07280474558 0)
(2.967630676 0.1002350653 0)
(3 9.716936416e-13 0)
(3 -3.1084952e-12 0)
(3 5.731618795e-11 0)
(2.999999998 2.198169353e-09 0)
(2.999999981 2.74184336e-08 0)
(2.999999873 2.009777937e-07 0)
(2.999999348 1.051253706e-06 0)
(2.999997164 4.679722093e-06 0)
(2.999989447 1.782380432e-05 0)
(2.999967319 5.738731001e-05 0)
(2.999909232 0.0001668182021 0)
(2.999774474 0.000419232762 0)
(2.999484711 0.001001004474 0)
(2.998894793 0.002173190994 0)
(2.997842389 0.004353689669 0)
(2.996106817 0.008431097059 0)
(2.993403652 0.014228623 0)
(3 1.653768395e-14 0)
(3 -3.449012331e-13 0)
(3 -2.832602598e-13 0)
(3 -3.610392511e-13 0)
(3 -1.666515905e-12 0)
(3 7.932327455e-12 0)
(3 2.280459805e-10 0)
(2.999999998 2.437704345e-09 0)
(2.999999986 2.037218985e-08 0)
(2.999999922 1.188138948e-07 0)
(2.999999643 5.571510949e-07 0)
(2.999998534 2.364998897e-06 0)
(2.999994875 8.365646468e-06 0)
(2.999983504 2.783140496e-05 0)
(2.999952183 8.238394284e-05 0)
(2.999875916 0.0002176601746 0)
(2.999693813 0.0005549051491 0)
(3 8.156227608e-15 0)
(3 3.28451115e-15 0)
(3 -2.542319691e-14 0)
(3 -1.834069407e-13 0)
(3 -2.629178629e-13 0)
(3 -2.753418311e-13 0)
(3 -2.307436076e-13 0)
(3 -4.976653865e-13 0)
(3 -2.82115555e-12 0)
(3 1.84004885e-11 0)
(3 1.103090736e-10 0)
(2.999999999 1.14210461e-09 0)
(2.999999994 8.439491771e-09 0)
(2.99999997 4.565047225e-08 0)
(2.999999855 2.269537267e-07 0)
(2.999999405 9.470699062e-07 0)
(2.999997845 3.511814763e-06 0)
(3 -9.912064384e-15 0)
(3 -1.074412038e-14 0)
(3 -1.258427897e-14 0)
(3 -1.995028509e-14 0)
(3 -4.88212951e-14 0)
(3 -9.119302327e-14 0)
(3 -1.142310959e-13 0)
(3 -2.321785069e-13 0)
(3 -2.193921921e-13 0)
(3 -1.873049965e-13 0)
(3 -2.048053645e-13 0)
(3 -6.122450322e-13 0)
(3 1.544739892e-12 0)
(3 2.404637196e-12 0)
(3 1.805208762e-11 0)
(3 3.728937426e-10 0)
(2.999999998 2.405362261e-09 0)
(3 -1.691023077e-14 0)
(3 -1.723219827e-14 0)
(3 -1.595472195e-14 0)
(3 -1.604374554e-14 0)
(3 -1.623398802e-14 0)
(3 -1.71583549e-14 0)
(3 -1.946443298e-14 0)
(3 -2.624560264e-14 0)
(3 -4.890292446e-14 0)
(3 -8.459145377e-14 0)
(3 -1.281411682e-13 0)
(3 -1.853402705e-13 0)
(3 -1.895432002e-13 0)
(3 -2.086860486e-13 0)
(3 -2.57741062e-13 0)
(3 -2.042711244e-13 0)
(3 2.158189003e-13 0)
(3 -7.859450385e-15 0)
(3 -7.427750485e-15 0)
(3 -8.965993348e-15 0)
(3 -1.003501091e-14 0)
(3 -9.993041911e-15 0)
(3 -9.196041876e-15 0)
(3 -8.202747955e-15 0)
(3 -6.363756345e-15 0)
(3 -9.885313942e-15 0)
(3 -1.300233229e-14 0)
(3 -2.063916778e-14 0)
(3 -3.139784445e-14 0)
(3 -5.561241277e-14 0)
(3 -8.45810413e-14 0)
(3 -1.007927255e-13 0)
(3 -1.272610266e-13 0)
(3 -1.998761578e-13 0)
(3 -2.327893827e-15 0)
(3 -1.94218577e-15 0)
(3 -1.300153919e-15 0)
(3 1.487262538e-15 0)
(3 3.439181134e-15 0)
(3 5.479037083e-15 0)
(3 5.229515676e-15 0)
(3 4.116673417e-15 0)
(3 3.604848291e-15 0)
(3 4.570831225e-15 0)
(3 4.107436207e-15 0)
(3 2.591972087e-15 0)
(3 -6.260450363e-16 0)
(3 -4.050116985e-15 0)
(3 -1.473090616e-14 0)
(3 -2.504998437e-14 0)
(3 -3.77366815e-14 0)
(3 2.237636239e-15 0)
(3 2.66550122e-15 0)
(3 4.254212561e-15 0)
(3 6.673427245e-15 0)
(3 1.012842121e-14 0)
(3 1.417954084e-14 0)
(3 1.477947678e-14 0)
(3 1.417880244e-14 0)
(3 1.486005237e-14 0)
(3 1.442690639e-14 0)
(3 1.298508174e-14 0)
(3 1.161922589e-14 0)
(3 8.767383278e-15 0)
(3 6.201634486e-15 0)
(3 3.575495468e-15 0)
(3 1.389643527e-15 0)
(3 -2.964380376e-15 0)
(3 1.16290139e-14 0)
(3 1.036773156e-14 0)
(3 1.088872021e-14 0)
(3 1.25492007e-14 0)
(3 1.520866745e-14 0)
(3 1.85504763e-14 0)
(3 1.968756833e-14 0)
(3 2.074955438e-14 0)
(3 2.055766916e-14 0)
(3 1.886075339e-14 0)
(3 1.72619773e-14 0)
(3 1.475541595e-14 0)
(3 1.288747312e-14 0)
(3 9.282956476e-15 0)
(3 7.006312905e-15 0)
(3 5.748233763e-15 0)
(3 3.999240183e-15 0)
(3 1.414865577e-14 0)
(3 1.426381435e-14 0)
(3 1.706843783e-14 0)
(3 1.813653026e-14 0)
(3 1.337060012e-14 0)
(3 9.178403753e-15 0)
(3 7.341707159e-15 0)
(3 8.170013453e-15 0)
(3 9.112492105e-15 0)
(3 9.878217853e-15 0)
(3 9.307036234e-15 0)
(3 9.130171173e-15 0)
(3 8.392850579e-15 0)
(3 8.12706837e-15 0)
(3 5.096333642e-15 0)
(3 3.900518676e-15 0)
(3 3.036512463e-15 0)
(3 1.167754308e-14 0)
(3 1.465481483e-14 0)
(3 1.680664789e-14 0)
(3 1.709374093e-14 0)
(3 1.540934424e-14 0)
(3 8.342850951e-15 0)
(3 5.431693238e-15 0)
(3 5.234982809e-15 0)
(3 5.249735806e-15 0)
(3 7.135899317e-15 0)
(3 8.609384755e-15 0)
(3 8.412144593e-15 0)
(3 8.676339786e-15 0)
(3 9.0270189e-15 0)
(3 6.574793304e-15 0)
(3 4.675368746e-15 0)
(3 5.13738394e-15 0)
(3 9.278791394e-15 0)
(3 1.180216517e-14 0)
(3 1.24595242e-14 0)
(3 9.814111071e-15 0)
(3 5.655257523e-15 0)
(3 4.067505615e-15 0)
(3 3.711932139e-15 0)
(3 2.798938242e-15 0)
(3 1.151166586e-15 0)
(3 1.972831505e-16 0)
(3 -3.056883514e-16 0)
(3 9.287054535e-16 0)
(3 1.778550233e-15 0)
(3 4.131691466e-15 0)
(3 8.31878093e-15 0)
(3 9.991766788e-15 0)
(3 1.038619438e-14 0)
(3 1.22554055e-14 0)
(3 1.268349263e-14 0)
(3 1.099570314e-14 0)
(3 9.597456045e-15 0)
(3 1.55711362e-14 0)
(3 1.533233356e-14 0)
(3 8.293479896e-15 0)
(3 5.064236355e-15 0)
(3 -3.793943647e-16 0)
(3 -5.852644434e-15 0)
(3 -4.929911929e-15 0)
(3 -4.568313769e-15 0)
(3 -6.573682012e-15 0)
(3 -1.41922559e-14 0)
(3 -1.785873713e-14 0)
(3 -2.296962444e-14 0)
(3 -2.400279779e-14 0)
(3 4.513847919e-15 0)
(3 2.948572129e-15 0)
(3 -1.24710393e-15 0)
(3 -3.015187029e-15 0)
(3 -2.217190432e-15 0)
(3 -7.034553258e-15 0)
(3 -1.290792447e-14 0)
(3 -1.154855621e-14 0)
(3 -1.104399525e-14 0)
(3 -1.095011777e-14 0)
(3 -9.996997967e-15 0)
(3 -7.440808437e-15 0)
(3 -9.092093314e-15 0)
(3 -8.028179343e-15 0)
(3 -7.121372833e-15 0)
(3 -1.618222596e-14 0)
(3 -1.771371028e-14 0)
(3 -4.033817446e-16 0)
(3 -4.872431487e-15 0)
(3 -8.421864695e-15 0)
(3 -1.392569552e-14 0)
(3 -2.288312205e-14 0)
(3 -2.320058478e-14 0)
(3 -2.159500055e-14 0)
(3 -1.827142588e-14 0)
(3 -1.323512652e-14 0)
(3 -7.424312523e-15 0)
(3 -2.783398725e-15 0)
(3 -2.008434651e-15 0)
(3 -3.975627675e-15 0)
(3 -5.719598529e-15 0)
(3 -6.40493708e-15 0)
(3 -7.88453512e-15 0)
(3 -6.808312678e-15 0)
(3 -6.824561086e-15 0)
(3 -8.393025046e-15 0)
(3 -1.124913068e-14 0)
(3 -1.592359709e-14 0)
(3 -1.758100246e-14 0)
(3 -1.481783994e-14 0)
(3 -9.127260962e-15 0)
(3 -9.400149906e-15 0)
(3 -4.950533265e-15 0)
(3 3.665234835e-16 0)
(3 5.54610766e-15 0)
(3 8.885573716e-15 0)
(3 7.931836518e-15 0)
(3 8.663818249e-15 0)
(3 1.000713921e-14 0)
(3 1.110295729e-14 0)
(3 1.072243587e-14 0)
(3 -9.266395954e-15 0)
(3 -7.568342747e-15 0)
(3 -7.739872651e-15 0)
(3 -9.8328342e-15 0)
(3 -6.722847176e-15 0)
(3 -3.128616265e-15 0)
(3 3.304752666e-15 0)
(3 5.238254807e-15 0)
(3 9.424760221e-15 0)
(3 1.146530485e-14 0)
(3 1.118786782e-14 0)
(3 1.322880126e-14 0)
(3 1.580208612e-14 0)
(3 1.752926821e-14 0)
(3 1.863251987e-14 0)
(3 2.112977273e-14 0)
(3 2.001278888e-14 0)
(3 -1.485594258e-15 0)
(3 7.023493512e-16 0)
(3 2.490752248e-15 0)
(3 2.755618734e-15 0)
(3 3.989970552e-15 0)
(3 4.443163725e-15 0)
(3 3.216235892e-15 0)
(3 8.170149758e-15 0)
(3 9.48198622e-15 0)
(3 9.659644067e-15 0)
(3 1.158565266e-14 0)
(3 1.282728348e-14 0)
(3 1.414344046e-14 0)
(3 1.890513211e-14 0)
(3 1.941843363e-14 0)
(3 2.002326657e-14 0)
(3 1.851381212e-14 0)
(3 1.742852858e-15 0)
(3 2.750708337e-15 0)
(3 2.381272164e-15 0)
(3 3.432161869e-15 0)
(3 6.780111626e-15 0)
(3 7.942395613e-15 0)
(3 9.473068249e-15 0)
(3 1.032125906e-14 0)
(3 8.984104189e-15 0)
(3 9.404151715e-15 0)
(3 1.063979568e-14 0)
(3 1.248413903e-14 0)
(3 1.352012937e-14 0)
(3 1.038032331e-14 0)
(3 6.106085739e-15 0)
(3 6.971894103e-15 0)
(3 9.907940519e-15 0)
(3 7.908275488e-15 0)
(3 7.477538648e-15 0)
(3 5.397683999e-15 0)
(3 5.49193777e-15 0)
(3 9.282302877e-15 0)
(3 1.128082751e-14 0)
(3 1.355686414e-14 0)
(3 9.233622468e-15 0)
(3 1.056176938e-14 0)
(3 9.443041344e-15 0)
(3 6.995476901e-15 0)
(3 4.601727407e-15 0)
(3 2.866282078e-15 0)
(3 -1.200115786e-15 0)
(3 -7.646346919e-15 0)
(3 -9.952950944e-15 0)
(3 -9.094751637e-15 0)
(3 5.315620185e-15 0)
(3 5.565505034e-15 0)
(3 4.8182888e-15 0)
(3 5.872261066e-15 0)
(3 7.748816762e-15 0)
(3 1.011029167e-14 0)
(3 1.06568269e-14 0)
(3 7.845624376e-15 0)
(3 8.574963388e-15 0)
(3 8.022456748e-15 0)
(3 4.536482399e-15 0)
(3 -5.252063751e-15 0)
(3 -9.692050654e-15 0)
(3 -1.586250781e-14 0)
(3 -1.723924087e-14 0)
(3 -1.83495256e-14 0)
(3 -1.702666542e-14 0)
(3 3.646330809e-15 0)
(3 3.984893259e-15 0)
(3 6.511930009e-15 0)
(3 7.237759601e-15 0)
(3 6.434555149e-15 0)
(3 4.846727231e-15 0)
(3 4.772679837e-15 0)
(3 6.297417642e-15 0)
(3 4.431266697e-15 0)
(3 2.948462043e-15 0)
(3 7.728676739e-16 0)
(3 -2.214230035e-15 0)
(3 -8.416234747e-15 0)
(3 -9.896705761e-15 0)
(3 -8.761354066e-15 0)
(3 -7.300322639e-15 0)
(3 -7.890067141e-15 0)
(3 2.052705894e-15 0)
(3 7.698520392e-15 0)
(3 9.234978549e-15 0)
(3 1.025321479e-14 0)
(3 7.392190688e-15 0)
(3 1.176063459e-15 0)
(3 -2.690868984e-15 0)
(3 -3.088995092e-15 0)
(3 -4.141916663e-15 0)
(3 -6.641805715e-15 0)
(3 -5.08307034e-15 0)
(3 -3.923195926e-15 0)
(3 -4.061253379e-15 0)
(3 -1.802874009e-16 0)
(3 1.94501002e-15 0)
(3 4.074408653e-16 0)
(3 -1.987864358e-15 0)
(3 1.767369387e-15 0)
(3 2.842252592e-15 0)
(3 3.482662851e-15 0)
(3 3.506741302e-15 0)
(3 1.724052258e-17 0)
(3 -3.850491557e-15 0)
(3 -5.874776194e-15 0)
(3 -5.831954312e-15 0)
(3 -5.687433351e-15 0)
(3 -4.246130912e-15 0)
(3 -2.628534278e-15 0)
(3 -1.442811019e-15 0)
(3 4.709454343e-17 0)
(3 1.23367827e-15 0)
(3 1.809572959e-15 0)
(3 2.167188519e-15 0)
(3 6.482979305e-16 0)
(3 3.139117545e-15 0)
(3 -1.402986969e-16 0)
(3 1.289592958e-15 0)
(3 -4.141170034e-15 0)
(3 -6.214430074e-15 0)
(3 -8.17350406e-15 0)
(3 -8.768009552e-15 0)
(3 -7.128450964e-15 0)
(3 -5.546556526e-15 0)
(3 -2.620153767e-15 0)
(3 -6.374927664e-16 0)
(3 4.114845606e-15 0)
(3 7.966103138e-15 0)
(3 7.279219467e-15 0)
(3 7.669405348e-15 0)
(3 1.083617608e-14 0)
(3 1.121575441e-14 0)
(3 8.800647582e-15 0)
(3 -7.594833602e-16 0)
(3 -3.768208984e-15 0)
(3 -9.058115377e-15 0)
(3 -1.019214599e-14 0)
(3 -1.136921884e-14 0)
(3 -1.157725834e-14 0)
(3 -9.54709529e-15 0)
(3 -7.04151751e-15 0)
(3 -3.337517009e-15 0)
(3 1.075747385e-15 0)
(3 4.845867729e-15 0)
(3 1.004106992e-14 0)
(3 1.015252031e-14 0)
(3 1.058169254e-14 0)
(3 1.1477312e-14 0)
(3 1.388475564e-14 0)
(3 -6.134529244e-15 0)
(3 -9.704577425e-15 0)
(3 -1.670033732e-14 0)
(3 -1.762813594e-14 0)
(3 -1.487481697e-14 0)
(3 -1.042667689e-14 0)
(3 -6.912906533e-15 0)
(3 -9.020529433e-15 0)
(3 -4.107769931e-15 0)
(3 -7.548635022e-16 0)
(3 3.033096995e-15 0)
(3 4.842381192e-15 0)
(3 8.630097082e-15 0)
(3 9.293599078e-15 0)
(3 8.301920147e-15 0)
(3 7.526395367e-15 0)
(3 1.004559649e-14 0)
(3 -2.458563785e-14 0)
(3 -1.817364511e-14 0)
(3 -1.463616286e-14 0)
(3 -1.245602174e-14 0)
(3 -9.587517452e-15 0)
(3 -8.856486104e-15 0)
(3 -5.303936029e-15 0)
(3 -1.574384137e-15 0)
(3 8.210883616e-17 0)
(3 1.294260169e-15 0)
(3 4.593097177e-16 0)
(3 1.859678034e-16 0)
(3 7.902119826e-16 0)
(3 1.615850069e-15 0)
(3 2.438270781e-15 0)
(3 3.920706832e-15 0)
(3 8.736108313e-15 0)
(3 -2.50972618e-14 0)
(3 -2.396955588e-14 0)
(3 -1.813632096e-14 0)
(3 -1.489695622e-14 0)
(3 -1.628139141e-14 0)
(3 -1.967813091e-14 0)
(3 -1.867300636e-14 0)
(3 -1.442170598e-14 0)
(3 -8.665974748e-15 0)
(3 -4.525285048e-15 0)
)
;

boundaryField
{
    inlet
    {
        type            fixedValue;
        value           nonuniform 0();
    }
    outlet
    {
        type            inletOutlet;
        inletValue      nonuniform 0();
        value           nonuniform 0();
    }
    bottom
    {
        type            slip;
    }
    top
    {
        type            slip;
    }
    obstacle
    {
        type            slip;
    }
    defaultFaces
    {
        type            empty;
    }
    procBoundary19to13
    {
        type            processor;
        value           nonuniform List<vector> 
19
(
(3 -1.699426865e-14 0)
(3 8.623530344e-15 0)
(3 1.092676712e-14 0)
(3 1.542336833e-14 0)
(3 2.208541168e-14 0)
(3 2.766146138e-14 0)
(3 3.356515327e-14 0)
(3 2.920625138e-14 0)
(3 2.356726896e-14 0)
(3 1.428228411e-14 0)
(3 5.480404288e-15 0)
(3 -5.896967869e-16 0)
(3 -3.791418667e-15 0)
(3 -9.871550574e-15 0)
(3 -1.517553923e-14 0)
(3 -2.128192497e-14 0)
(3 -2.695123166e-14 0)
(3 -2.695123166e-14 0)
(2.987455674 -0.001506892809 0)
)
;
    }
    procBoundary19to18
    {
        type            processor;
        value           nonuniform List<vector> 
17
(
(3 1.021377742e-14 0)
(3 7.707007975e-15 0)
(3 5.545981579e-15 0)
(3 -5.858655799e-15 0)
(3 -1.196552443e-14 0)
(3 -4.764908865e-15 0)
(3 -4.136926651e-16 0)
(3 5.119513843e-15 0)
(3 5.671563523e-15 0)
(3 3.821345221e-15 0)
(3 -1.955183129e-17 0)
(3 -2.799522763e-15 0)
(3 2.228135784e-15 0)
(3 1.186011414e-14 0)
(3 -4.35968099e-15 0)
(3 -2.61961867e-14 0)
(3 -2.413028407e-14 0)
)
;
    }
    procBoundary19to20
    {
        type            processor;
        value           nonuniform List<vector> 
16
(
(2.855982576 0.2474451497 0)
(2.862642571 0.3093895745 0)
(2.93809869 0.2088305244 0)
(2.9563193 0.1374346542 0)
(2.989009428 0.02469723621 0)
(2.999304952 0.001270450697 0)
(2.999992589 1.235072277e-05 0)
(2.99999999 1.443162728e-08 0)
(3 -4.013864334e-12 0)
(3 -2.199261171e-13 0)
(3 -6.336555291e-14 0)
(3 -9.712248819e-15 0)
(3 1.898828403e-15 0)
(3 2.812151728e-15 0)
(3 5.398820052e-15 0)
(3 1.073603246e-14 0)
)
;
    }
    procBoundary19to24
    {
        type            processor;
        value           uniform (3 -1.086823005e-14 0);
    }
    procBoundary19to25
    {
        type            processor;
        value           nonuniform List<vector> 
34
(
(3 1.175527584e-14 0)
(3 1.16930741e-14 0)
(3 1.169862443e-14 0)
(3 1.065926801e-14 0)
(3 6.817527132e-15 0)
(3 5.401222161e-15 0)
(3 4.809089069e-15 0)
(3 3.891148323e-15 0)
(3 2.237720822e-15 0)
(3 1.991976543e-15 0)
(3 1.855185335e-15 0)
(3 2.574048796e-15 0)
(3 4.76447083e-15 0)
(3 5.575908929e-15 0)
(3 7.84817238e-15 0)
(3 8.647436961e-15 0)
(3 1.014283297e-14 0)
(3 -4.40536099e-15 0)
(3 -1.702418368e-15 0)
(3 -7.78122572e-16 0)
(3 -3.349863409e-16 0)
(3 5.342293499e-15 0)
(3 8.892484012e-15 0)
(3 1.065867508e-14 0)
(3 -1.24184311e-14 0)
(3 -1.332197163e-14 0)
(3 -1.31882528e-14 0)
(3 -1.295776547e-14 0)
(3 -1.469223294e-14 0)
(3 -1.549389212e-14 0)
(3 -1.416663399e-14 0)
(3 -1.270388791e-14 0)
(3 -4.40536099e-15 0)
(3 -1.083691351e-14 0)
)
;
    }
}


// ************************************************************************* //
