/*--------------------------------*- C++ -*----------------------------------*\
  =========                 |
  \\      /  F ield         | OpenFOAM: The Open Source CFD Toolbox
   \\    /   O peration     | Website:  https://openfoam.org
    \\  /    A nd           | Version:  7
     \\/     M anipulation  |
\*---------------------------------------------------------------------------*/
FoamFile
{
    version     2.0;
    format      ascii;
    class       volScalarField;
    location    "4.8";
    object      p;
}
// * * * * * * * * * * * * * * * * * * * * * * * * * * * * * * * * * * * * * //

dimensions      [1 -1 -2 0 0 0 0];

internalField   nonuniform List<scalar> 
2222
(
1
1
1
1
1.000000015
1.000005222
1.000254018
1.016906684
1.264704191
2.484872182
4.404303297
5.430488437
5.443536594
5.245927461
4.962483834
4.731965006
4.572748314
4.420008361
4.278160229
4.146213548
4.024118969
3.904300797
3.779227973
3.646321747
3.511931408
3.387608217
3.280373836
3.189609615
3.108314891
3.02750375
2.943541791
2.856196715
1
1
1
1.000000003
1.00000056
1.000116311
1.003580902
1.097787319
1.625167404
2.310402902
3.175496069
4.383919914
5.130239222
5.155479092
4.977134224
4.754904011
4.57462296
4.443937296
4.313799722
4.188790512
4.066645146
3.94237113
3.811742289
3.676054793
3.543123658
3.421331287
3.315164555
3.222708061
3.139065205
3.056679319
2.971640541
2.88428675
1
1
1.000000001
1.000000192
1.000020453
1.001987109
1.036146484
1.363211539
2.142700842
2.377578018
2.560490192
3.46477727
4.74805498
5.013186959
4.972395518
4.782300222
4.573583239
4.414643871
4.279833659
4.159395715
4.037395087
3.909527032
3.776451729
3.642655954
3.515707737
3.400117689
3.296721102
3.204292971
3.118775351
3.034130257
2.94787055
2.860000154
1
1
1.000000043
1.000006431
1.0004348
1.019570829
1.221896567
1.779686461
2.418296889
2.507928304
2.500194163
2.66201163
3.543643223
4.521495121
4.843322984
4.779294117
4.611949195
4.416355516
4.275606362
4.156041136
4.032763362
3.899343062
3.762301155
3.630079907
3.507920478
3.401052722
3.306909809
3.217218912
3.124027833
3.030448054
2.942239396
2.854719986
1
1.000000009
1.000001166
1.000105067
1.00491222
1.112793844
1.66011331
2.190346741
2.475365292
2.504779998
2.474468396
2.458911085
2.655016923
3.608995332
4.584493826
4.636329592
4.53606899
4.416659052
4.290061696
4.162425353
4.027752495
3.889481798
3.75693837
3.629976886
3.507367447
3.389378421
3.27811845
3.182966322
3.102992772
3.025635277
2.943144901
2.857212061
1.000000001
1.000000174
1.000017153
1.00109666
1.03269607
1.408989129
2.092784107
2.443377372
2.499926651
2.478888977
2.435750958
2.388681158
2.382686412
2.656272161
3.636499566
4.363979795
4.509689518
4.447975975
4.324976858
4.186131231
4.039869675
3.898072966
3.770765225
3.646942394
3.517387571
3.387372633
3.27215626
3.174647674
3.094456621
3.029094824
2.95954856
2.876425765
1.000000017
1.000002226
1.000193216
1.008407874
1.157124275
1.88120912
2.340349425
2.507565062
2.514203547
2.471072946
2.414823303
2.358246926
2.294426393
2.301341234
2.694355812
3.788152286
4.398778896
4.383430239
4.28978803
4.164001
4.017667596
3.874792219
3.739481373
3.611396191
3.48854121
3.371125707
3.265818523
3.174710231
3.09308542
3.012132675
2.928812667
2.844624989
1.000000206
1.000028124
1.002032179
1.050670336
1.514585621
2.26519944
2.462914768
2.527951306
2.518708269
2.456069207
2.373890372
2.326529072
2.267882115
2.204615619
2.242740638
2.764438965
3.762863629
4.280951431
4.268389451
4.161788034
4.013190305
3.8720249
3.733477313
3.600442251
3.475490681
3.361699213
3.261521406
3.172361268
3.087986812
3.004136474
2.921141999
2.83667515
1.000004392
1.000452048
1.018141
1.226003403
2.063072222
2.440980594
2.495394837
2.528762993
2.509569809
2.430615656
2.336074125
2.286061635
2.244772161
2.175784922
2.128701187
2.210146062
2.923324289
3.966442452
4.173142807
4.120073555
4.010265955
3.875661402
3.729598728
3.590803691
3.465033958
3.354913152
3.257932317
3.168566416
3.08238111
2.999074598
2.916694055
2.831540821
1.000123798
1.006704548
1.116191084
1.639204316
2.453284076
2.515747707
2.505108925
2.503792236
2.476916704
2.393726794
2.30584696
2.248759468
2.212635351
2.154342728
2.086796665
2.06499331
2.245079699
3.040992414
3.79342297
4.056961138
4.005930149
3.8720657
3.720672808
3.580094429
3.45466484
3.347868875
3.252535562
3.161373461
3.074469452
2.992270376
2.910732971
2.825953945
1.002257443
1.061295363
1.425384976
2.17251409
2.561190768
2.556783268
2.51622868
2.475541888
2.431951624
2.356602138
2.27739294
2.221012968
2.178511894
2.132720507
2.068086939
2.012313473
2.018759254
2.26950191
3.175302358
3.884633394
3.950640494
3.846101817
3.712280737
3.57564315
3.45022028
3.343388847
3.246507657
3.153256907
3.065921573
2.983946338
2.90327443
2.820239256
1.021378004
1.299396627
1.886699273
2.489107515
2.574702847
2.560465544
2.509177285
2.446348778
2.387824274
2.320232615
2.252849456
2.193237854
2.149870043
2.101077516
2.052141833
1.994194557
1.952372098
1.972464561
2.326591682
3.174403849
3.774557972
3.790863719
3.711041585
3.581296581
3.451762305
3.339369827
3.239409162
3.144325437
3.055234009
2.973236384
2.893358264
2.813678463
1.121979221
1.739820175
2.298465514
2.561945471
2.566236482
2.529333421
2.471541551
2.414948587
2.351085667
2.285922038
2.22743856
2.16680088
2.121935902
2.071871562
2.021907477
1.980647454
1.930317656
1.892206899
1.931611364
2.411255293
3.352672342
3.707994066
3.669035146
3.559687434
3.449535613
3.338797069
3.238236584
3.143241843
3.052897352
2.967448758
2.879696356
2.792656764
1.437051654
2.144279564
2.493188576
2.574451543
2.556580756
2.50059588
2.433558094
2.38145016
2.31911818
2.254889875
2.199334921
2.143143977
2.09277596
2.044216026
1.989656377
1.953674671
1.912083571
1.857851262
1.829547366
1.928738791
2.498841692
3.289203466
3.570548837
3.542811804
3.459311913
3.359007852
3.258253293
3.161193457
3.064853793
2.962693244
2.867876219
2.779912836
1.935775935
2.391645169
2.550513715
2.576069835
2.541896157
2.468423739
2.39613563
2.347226136
2.289399429
2.223960362
2.170039537
2.115900621
2.065075781
2.014228552
1.963516045
1.922668383
1.891572746
1.839106236
1.782241941
1.779402293
1.930556767
2.665096409
3.391452525
3.499054639
3.422305693
3.323129456
3.221902456
3.125308761
3.033267915
2.942796283
2.855452836
2.773857592
2.343876582
2.509012682
2.566311671
2.577794969
2.525504241
2.434235593
2.356960325
2.308433296
2.258163812
2.192863515
2.140416322
2.088061798
2.039322539
1.985062523
1.934547876
1.896314241
1.861954091
1.821831668
1.760782459
1.723334705
1.737023336
2.004068731
2.740371146
3.333772007
3.379033045
3.315498047
3.212924089
3.115006962
3.021292755
2.931214802
2.846663512
2.764609298
2.532037791
2.546395043
2.560802302
2.560257438
2.497431398
2.401724298
2.322675286
2.270990452
2.226336152
2.164967024
2.109837223
2.061057025
2.011852095
1.959090822
1.906153202
1.870428878
1.835232174
1.795441269
1.74573944
1.695988836
1.675973776
1.710882313
2.10583872
2.945799936
3.30148589
3.286958694
3.209687749
3.118956385
3.019974323
2.928269748
2.843627989
2.759960443
2.598397297
2.566541483
2.540728154
2.519719688
2.460140666
2.371934502
2.292583666
2.235815467
2.192688035
2.137006108
2.079870223
2.033543364
1.985390497
1.932739919
1.880739643
1.841659179
1.810332402
1.766551731
1.722072698
1.677244544
1.642563361
1.62887675
1.717345915
2.220391959
2.888915696
3.205102299
3.198227257
3.138286111
3.03549736
2.940980686
2.853971379
2.765402967
2.622227319
2.592198135
2.528914941
2.477133336
2.418169588
2.341778427
2.265746043
2.204588389
2.160319924
2.108303615
2.050231821
2.00401372
1.958607762
1.90508225
1.85345385
1.813624453
1.782171679
1.74149038
1.691779997
1.658112302
1.621283984
1.585706111
1.587599266
1.717345585
2.35320047
3.070859649
3.146947525
3.08266614
2.993157947
2.909628535
2.817132491
2.726560669
2.61187196
2.582672631
2.512255766
2.44021976
2.379766269
2.312434945
2.240401678
2.175518201
2.127754264
2.077535483
2.020397777
1.97449987
1.930677684
1.878959195
1.825748709
1.788048099
1.754573644
1.7169552
1.668849605
1.630916599
1.605175641
1.566839851
1.534018093
1.541581981
1.792952641
2.501922054
2.930137851
3.026384505
2.991600125
2.902942024
2.799799338
2.709588055
2.589827509
2.540463412
2.475675693
2.403317069
2.343999372
2.281847718
2.21187601
2.145421131
2.095119589
2.046627335
1.990864687
1.945735468
1.902795029
1.852381276
1.798736814
1.760808085
1.728739812
1.690401497
1.646270982
1.605969793
1.582003083
1.550933572
1.506984111
1.484542137
1.524333069
1.882398237
2.612157142
2.97441686
2.968208601
2.885043521
2.785737412
2.70037865
2.566212579
2.504937718
2.44008464
2.367286237
2.308583523
2.250227867
2.182614995
2.116575274
2.064359593
2.01620874
1.961544416
1.916703292
1.874942268
1.825334334
1.771928561
1.733056122
1.702400868
1.6651719
1.620585394
1.585531153
1.555630683
1.531066294
1.489623638
1.450992315
1.445344574
1.530415728
2.010813
2.675566455
2.853905345
2.845217518
2.782873814
2.700457215
2.540408204
2.466949712
2.403444226
2.33323814
2.274890888
2.218591701
2.151454892
2.085991745
2.033418564
1.985784
1.9322498
1.887585775
1.846635179
1.798403426
1.74511442
1.707073625
1.675862989
1.640849396
1.594847061
1.562205731
1.53323027
1.505593105
1.473258621
1.429908161
1.405978156
1.412046021
1.564641518
2.151875811
2.698294086
2.817179398
2.785208067
2.717799561
2.511459816
2.428662286
2.364849578
2.296379048
2.239221227
2.185951406
2.120129903
2.055412289
2.002662878
1.955222446
1.902447379
1.858551428
1.818614917
1.772072219
1.718083713
1.680516561
1.649373197
1.615457868
1.571404182
1.537266069
1.511821348
1.482296612
1.449257317
1.415466587
1.383359567
1.368648769
1.387435595
1.641720057
2.242692788
2.704295596
2.724529469
2.681623849
2.478076775
2.392986475
2.325936231
2.257707935
2.203037357
2.15333443
2.088805069
2.024919402
1.973450374
1.926766533
1.874035858
1.829719978
1.789591356
1.744329137
1.690656259
1.65362512
1.623781961
1.590470053
1.548266074
1.513966518
1.488259069
1.461089273
1.424035877
1.395681461
1.366559889
1.341199464
1.329759256
1.374757094
1.742420471
2.397328332
2.664893977
2.652614169
2.443331307
2.360966609
2.29050494
2.220956857
2.167792904
2.120953099
2.057631887
1.994253737
1.943716457
1.897782153
1.845287221
1.801208832
1.761430167
1.717528225
1.664402671
1.627505686
1.598265362
1.565868407
1.523815325
1.491192069
1.463997959
1.438894055
1.403227753
1.369984274
1.350848738
1.323293088
1.295866086
1.293896583
1.397151739
1.876619264
2.433306679
2.58390218
2.407913722
2.332003231
2.258510297
2.185476241
2.131693951
2.08604316
2.024441546
1.962142367
1.913081828
1.868409441
1.816454151
1.771763706
1.732110603
1.689142706
1.636690956
1.600628484
1.572094013
1.541600102
1.50047183
1.468133058
1.441749329
1.415700898
1.383021877
1.348716626
1.329128001
1.308542692
1.275158287
1.254265005
1.266823127
1.447458184
2.016071791
2.506223835
2.374122393
2.302073894
2.2262045
2.149319106
2.095203546
2.05114513
1.991447584
1.929868531
1.882653138
1.839732608
1.788410048
1.743240705
1.703819828
1.661943345
1.610492454
1.574935322
1.546565875
1.51720423
1.477357328
1.444298485
1.419514886
1.393211106
1.360650851
1.330259429
1.30580311
1.29013886
1.260421477
1.228362646
1.219585845
1.252916718
1.560927864
2.157851943
2.337816805
2.269886661
2.193780974
2.115298851
2.061690443
2.018142724
1.95925309
1.898243629
1.851845089
1.810219308
1.760161866
1.714789148
1.676203994
1.6355329
1.584803959
1.54947275
1.521367818
1.492829739
1.454670136
1.421354536
1.396902649
1.371601883
1.33817459
1.310063798
1.286130439
1.267540058
1.244351778
1.21057212
1.190761046
1.19267153
1.271957266
1.681596438
2.302004433
2.237351997
2.162238232
2.081623327
2.026457499
1.982399558
1.925302109
1.865426843
1.820527469
1.780319998
1.731170885
1.685508161
1.64773041
1.608406639
1.55870371
1.523707298
1.495921604
1.468088288
1.431320978
1.398245374
1.374111903
1.349891789
1.317224387
1.288466268
1.267275316
1.246604601
1.222894074
1.197088696
1.171228434
1.161323655
1.169911051
1.321525082
2.265272503
2.202097622
2.127520933
2.045465059
1.991359793
1.949122969
1.894501546
1.835023451
1.790062261
1.750433062
1.702507268
1.657180439
1.620547695
1.582740003
1.534012804
1.498801036
1.471082805
1.443696094
1.408270412
1.375265248
1.351647008
1.327834758
1.296422546
1.26792758
1.247122186
1.227247911
1.20103056
1.178908856
1.157514216
1.140320659
1.133063544
1.160687373
2.227098802
2.16564453
2.093195144
2.011897463
1.958136827
1.916008921
1.862940728
1.803264353
1.758836462
1.720004322
1.673070377
1.628257699
1.592722728
1.55659958
1.509029084
1.473681077
1.446198349
1.419156107
1.384934856
1.351888659
1.329244471
1.305896485
1.275320152
1.248086005
1.226066589
1.207749315
1.182192077
1.157058078
1.143151806
1.123451972
1.106871316
1.10468329
2.191487787
2.130911929
2.059799019
1.978431636
1.924477623
1.882794726
1.831914769
1.772267656
1.728001604
1.689694895
1.643859221
1.600142714
1.565333098
1.530619909
1.48441086
1.448337807
1.421176928
1.394442198
1.361538137
1.328923422
1.306898271
1.284332298
1.25443465
1.228442595
1.206421459
1.187571434
1.164198117
1.137815741
1.124041779
1.110168207
1.089594951
1.074122829
2.153184787
2.094292967
2.025125118
1.94450657
1.890916041
1.849683835
1.801172867
1.74128434
1.697030558
1.659281914
1.614389145
1.571589383
1.537474493
1.504361205
1.460127117
1.423406981
1.396597517
1.370180789
1.338236363
1.30627646
1.284622273
1.263012249
1.234101399
1.208301322
1.186837437
1.167091884
1.145236061
1.121333238
1.10441226
1.093861224
1.075446973
1.052545802
2.115671009
2.057834859
1.990444524
1.910688155
1.857107983
1.816016624
1.76980362
1.710063245
1.66566051
1.628622695
1.584787867
1.543478708
1.509997999
1.478106029
1.436307067
1.398591917
1.372056971
1.345992238
1.314886355
1.283963902
1.26273803
1.241967446
1.214547141
1.189116662
1.168107033
1.14814229
1.126332783
1.10415212
1.086804297
1.073888624
1.060961976
1.03651246
2.078161889
2.021346403
1.956079542
1.878011491
1.825087459
1.784027396
1.739449885
1.679915449
1.635134638
1.598647387
1.556052535
1.515853426
1.482735334
1.451655187
1.412613421
1.37446235
1.348021119
1.322333568
1.291875264
1.261733322
1.240757735
1.220453622
1.194511229
1.169422113
1.148052072
1.128439604
1.106980804
1.085337234
1.070363815
1.055458458
1.04384644
1.024207916
2.038054533
1.983379893
1.921329316
1.84519557
1.792190425
1.750592208
1.707179764
1.648685972
1.603863192
1.5684619
1.527301544
1.488480653
1.455881909
1.425140181
1.388862646
1.350397354
1.324076518
1.298899515
1.26914666
1.239800887
1.219182854
1.199444516
1.17485652
1.15048959
1.129205625
1.109898178
1.089385589
1.0667043
1.052679194
1.038295261
1.024037169
1.008495892
1.998366263
1.945967596
1.887185645
1.81226786
1.759111859
1.717334194
1.674700098
1.617984294
1.573598774
1.539132493
1.499438625
1.461222595
1.428909554
1.398164557
1.364396998
1.326648335
1.300448488
1.27580222
1.246706792
1.217957298
1.197301779
1.177906423
1.154615404
1.13089367
1.110147104
1.090553705
1.070899471
1.048477744
1.034326869
1.022365164
1.00722429
0.9904494902
1.959882942
1.908873668
1.853008181
1.779560241
1.726139969
1.684438891
1.64235998
1.587825077
1.543645117
1.509892899
1.471452793
1.434053747
1.402463301
1.37174369
1.340020155
1.302929714
1.276843782
1.252856074
1.224523279
1.196305182
1.175479941
1.156265606
1.134185565
1.111219859
1.091268081
1.07195597
1.053198925
1.031729309
1.016477436
1.005081871
0.9909792129
0.9711907073
1.921725222
1.871367587
1.818632665
1.747790883
1.694006296
1.652511994
1.610294302
1.557133112
1.513754581
1.480769882
1.444323626
1.407526893
1.376411001
1.345583067
1.314880596
1.278879532
1.252928141
1.229514009
1.201962925
1.17431337
1.153799062
1.135110332
1.114723272
1.092492496
1.072994326
1.054214797
1.035258424
1.014157325
0.9992228606
0.9874023656
0.9752842181
0.9559348778
1.881669955
1.833011665
1.784056026
1.716832968
1.66185143
1.62033656
1.577978411
1.526377604
1.483661103
1.451513896
1.417095808
1.381075781
1.350680935
1.320210491
1.290410156
1.255391142
1.229663192
1.206972581
1.18069276
1.153818435
1.13325888
1.114266186
1.094463579
1.072655165
1.053557261
1.035696206
1.017358777
0.9968362121
0.9826979981
0.9705024057
0.9586781775
0.9411313116
1.842378458
1.795326181
1.749333334
1.685657365
1.628864618
1.587476818
1.545362823
1.495012878
1.453725613
1.422539723
1.390468814
1.354940811
1.324733545
1.294618396
1.265134477
1.23114129
1.205882974
1.184005757
1.15908665
1.132780584
1.112453022
1.093675273
1.075157855
1.054501651
1.035767133
1.01857948
1.000529624
0.9794197765
0.9655427203
0.9534804835
0.9413116168
0.9252889755
1.806146303
1.759395214
1.71446947
1.654380406
1.596145393
1.555074229
1.513754333
1.465663982
1.425197737
1.393756842
1.362945517
1.328232125
1.298702243
1.269620172
1.240946516
1.208199159
1.183366014
1.161997184
1.138437543
1.112867252
1.092469825
1.073724507
1.055451811
1.034781089
1.016359401
0.9998601814
0.9826603066
0.9622295265
0.9488382421
0.937663315
0.9256485607
0.9099674954
1.770764321
1.723113172
1.67797203
1.621874297
1.56335269
1.522787421
1.482695455
1.436109826
1.396189734
1.364544808
1.335318613
1.30180009
1.272674441
1.244806972
1.21698709
1.185394822
1.160875421
1.139681542
1.117078839
1.092050799
1.071775757
1.053407623
1.035747005
1.016112972
0.9986619169
0.9828735044
0.9662695969
0.9460105977
0.9320869669
0.9207916213
0.9089386756
0.8930290374
1.732716538
1.685547652
1.640957289
1.589517329
1.532216388
1.491906604
1.452992226
1.408430928
1.368821565
1.336457135
1.307799925
1.27587608
1.247522073
1.220791169
1.193598256
1.162327977
1.137680889
1.116531606
1.095137942
1.071519934
1.051635266
1.03395787
1.016990887
0.9974559933
0.980164899
0.96474069
0.9485882815
0.9289084573
0.9154472476
0.904452027
0.8935941014
0.878824418
1.694703016
1.648877506
1.605003031
1.556754071
1.500552732
1.460228784
1.422457496
1.379106516
1.339849981
1.307909461
1.280626702
1.250412779
1.222183839
1.196348366
1.169951056
1.139721147
1.115727
1.095098563
1.074776457
1.051828526
1.031852724
1.014516626
0.9977241629
0.978454469
0.9618836606
0.9472773648
0.9320043565
0.9129456086
0.8995161087
0.8884132331
0.8778812937
0.8640917895
1.658406969
1.613578482
1.569750694
1.522934374
1.46869058
1.428952204
1.392535656
1.351484449
1.313250702
1.281663332
1.254485818
1.22483973
1.197163339
1.172271461
1.146700779
1.117062413
1.09287764
1.072332817
1.052745384
1.031083023
1.011906521
0.995571904
0.9796905684
0.9611716822
0.9448620131
0.9302601837
0.9151582893
0.8963719617
0.8832829584
0.8724495941
0.8619307924
0.8492110337
1.622810599
1.578204913
1.534937166
1.489464407
1.437063059
1.397729363
1.362509213
1.323515835
1.285877176
1.254549385
1.227553393
1.198596922
1.171372637
1.147557067
1.12314526
1.094893892
1.071402049
1.051687572
1.033302855
1.012510698
0.9930694437
0.9768893503
0.9610201799
0.9423677007
0.9262584375
0.9120147757
0.8978435934
0.8802956561
0.8675120987
0.8572225015
0.8469843723
0.8350659432
1.588527793
1.543636045
1.500611345
1.455489663
1.404607388
1.366281858
1.332714558
1.296338483
1.259131728
1.227906404
1.200994152
1.17249686
1.146462645
1.124000672
1.100946159
1.073730569
1.049769944
1.030092836
1.011942599
0.9914809704
0.9727620228
0.9577786848
0.9429578966
0.9255148933
0.9103375505
0.8964860484
0.8827976469
0.8655260404
0.852290615
0.8420215698
0.831631798
0.8197122116
1.551384585
1.506987543
1.46603004
1.422990829
1.374657699
1.337039079
1.304169037
1.26903555
1.232016286
1.201597541
1.175517074
1.148289355
1.122950367
1.100895782
1.078345023
1.051830103
1.028011622
1.008961633
0.9916948879
0.9725199917
0.9543423467
0.9396404939
0.9251131441
0.9080496003
0.8929814226
0.8790056632
0.8654294095
0.8489586243
0.8360690714
0.8264590836
0.8167352736
0.8054977933
1.516421492
1.472789573
1.433244626
1.391437036
1.343849685
1.306291722
1.274171047
1.240990678
1.204962957
1.175225644
1.149647247
1.122841671
1.098209922
1.077254192
1.05619422
1.031343301
1.007411802
0.9886766816
0.9718510944
0.952796008
0.9348363733
0.9208607067
0.9070985123
0.8908929125
0.8765118201
0.8630254042
0.8500823843
0.8346055394
0.8217580367
0.8119885781
0.8024652852
0.7913927363
1.480565065
1.437318496
1.399684577
1.359582093
1.313388503
1.276372275
1.245139399
1.213484189
1.17851284
1.14992408
1.125342282
1.099925309
1.075977093
1.055018167
1.033949911
1.009351353
0.9855543091
0.9675695225
0.9513573717
0.9334007367
0.9166123168
0.9033390372
0.8902519305
0.874653876
0.8604936499
0.8472776037
0.8344874317
0.819466554
0.8069018809
0.7973836218
0.7880490323
0.7774325342
1.446262174
1.403917927
1.367307083
1.328602947
1.283279906
1.246481525
1.216090842
1.186241292
1.152829169
1.124704418
1.100356548
1.074901345
1.050816793
1.030513073
1.010675509
0.9885530556
0.9661458812
0.9489661277
0.9334330275
0.9161127471
0.8992962208
0.8856775569
0.8724638764
0.8572136719
0.8434462557
0.8305711656
0.8181017799
0.8040797738
0.791954484
0.7827604433
0.7738334114
0.7638667654
1.412455594
1.369630659
1.334234268
1.297372467
1.253969505
1.217942861
1.188349502
1.159475846
1.126927871
1.099476791
1.075719347
1.0513301
1.028289978
1.008785417
0.9896276347
0.9681728857
0.9455762256
0.9286822687
0.9134179454
0.8962233765
0.8797713553
0.866920952
0.8548263059
0.8408180489
0.8277766268
0.8154833276
0.8036388742
0.7902705202
0.7783020255
0.7692733617
0.760388099
0.7502537667
1.376636415
1.335294049
1.301454356
1.266621711
1.224921819
1.189119191
1.16025376
1.132626394
1.101785961
1.074952873
1.05160774
1.027921365
1.005325145
0.9863564611
0.967518247
0.947184961
0.9259393428
0.9100270588
0.8954042125
0.8789841753
0.8630843269
0.8503530568
0.8382584807
0.8244489718
0.8115911682
0.7996576492
0.7879921449
0.7751890454
0.7636789504
0.7550230065
0.7463809176
0.7366676262
1.342584831
1.301724841
1.269198159
1.236238106
1.19693822
1.16186045
1.133497853
1.106240832
1.075644432
1.0492324
1.026669647
1.004496533
0.9832659768
0.9651838261
0.9472402296
0.9278548737
0.9065315928
0.8905253986
0.8761651948
0.8601718929
0.8446740548
0.8323004362
0.8205912177
0.8077890117
0.7957483272
0.7843039883
0.7730843092
0.7610518064
0.749590897
0.7411170362
0.7326908446
0.7234526129
1.268387676
1.237108153
1.205515147
1.167519121
1.132574093
1.104976845
1.078725056
1.05020761
1.025561451
1.004136684
0.9830799141
0.9621244208
0.9441205279
0.9261364088
0.9066783217
0.8856603822
0.870558327
0.8571051431
0.8420232223
0.8273016008
0.81539418
0.804432899
0.7922445268
0.7802190154
0.7688727006
0.7580719524
0.7463151175
0.7351338984
0.7270448945
0.7192425221
0.7101797027
1.2361398
1.205342566
1.174615386
1.138810406
1.105160439
1.078560955
1.053353185
1.025788864
1.001285612
0.9799292218
0.9593655247
0.9389405312
0.9215743059
0.904333241
0.8862025025
0.8665476486
0.8523444749
0.8395813446
0.8253717179
0.8111878059
0.7996675786
0.7886848306
0.7766368495
0.764879173
0.7541278799
0.7436370308
0.7324739871
0.7219344293
0.7142844768
0.7067547392
0.6982016602
1.203707064
1.173909617
1.144436029
1.11023361
1.077088808
1.051391642
1.027043887
1.000932848
0.9776517182
0.9573867731
0.9380167429
0.9181487658
0.9011119155
0.8843431231
0.8667103581
0.8474965322
0.8335289119
0.8209649368
0.8074568734
0.7941755787
0.7828744485
0.7720233491
0.7605565018
0.7494304167
0.739054453
0.7287593387
0.7182461492
0.7079647802
0.7004928794
0.6927626238
0.684651721
1.171453915
1.142236983
1.113517981
1.081390167
1.050199267
1.025674686
1.002477018
0.9774027938
0.9541335101
0.9337282795
0.9144589073
0.8948539692
0.8786748247
0.8628910642
0.8463747176
0.8283035319
0.8150056638
0.8032739799
0.7906499121
0.7775275928
0.7662652139
0.7559622073
0.7451170115
0.7342466302
0.7240248765
0.7141717572
0.7039743351
0.6940668675
0.686554127
0.6795928435
0.6716103757
1.139130666
1.111740661
1.084817082
1.054759649
1.023902979
0.9994753169
0.9765409556
0.9520554603
0.9295778839
0.9101905628
0.8922847181
0.8741610115
0.8590414489
0.843939194
0.8281690034
0.8104643498
0.7972944066
0.7856544313
0.773201928
0.7602877465
0.7499372491
0.7404916847
0.7303877793
0.719870418
0.7104583376
0.7013490442
0.691796059
0.6819665765
0.6749693949
0.6682450026
0.6609395862
1.108132171
1.081331226
1.055065431
1.026093004
0.9963449889
0.9729429587
0.9512450418
0.9283299722
0.9067209946
0.8881236139
0.8712648
0.8540829504
0.839596503
0.8250023878
0.8094778299
0.7923505882
0.7794022568
0.7678466709
0.7559890454
0.7442139838
0.7343502413
0.7249700658
0.7151241907
0.7051555715
0.6961338793
0.6867580992
0.6773099537
0.6675423192
0.6608158473
0.6541711326
0.6473796187
1.076882938
1.051695202
1.026977242
0.9999304728
0.9708207379
0.9476759186
0.9266054783
0.9044301427
0.8833979926
0.8655017435
0.8495095633
0.8332498132
0.8193794555
0.805395772
0.7905572379
0.7739808369
0.7610623469
0.7499260143
0.7387005678
0.7272469914
0.7173537897
0.7083644104
0.6992245939
0.6899111603
0.6808674372
0.6719367648
0.6627172781
0.6536760953
0.647058123
0.6411977211
0.6342196912
1.04756331
1.022414105
0.9978982813
0.9712029246
0.9426231376
0.9205763254
0.9008386212
0.8803265188
0.8607807965
0.8442822639
0.8294966441
0.8138960908
0.8003868563
0.7868752097
0.7726575714
0.7564845817
0.7442837705
0.7339132543
0.7234609859
0.7122256853
0.7029823415
0.6947736113
0.6863256667
0.6770389234
0.6686966654
0.6604648819
0.6522379037
0.6433298164
0.6373549005
0.6315678401
0.6244528972
1.016421511
0.9924253762
0.9692875008
0.9447436779
0.9182035553
0.8971747865
0.8782469491
0.8587106991
0.8397986411
0.823541541
0.808837239
0.7935627867
0.7807141409
0.7679088484
0.7543564594
0.7394945919
0.727907168
0.71774212
0.7075617948
0.6969783564
0.6880797567
0.6798513304
0.6714411894
0.6623822512
0.6545481866
0.646542244
0.6386205292
0.6298249839
0.6237102313
0.6171955448
0.6096765173
0.9878541519
0.9643664923
0.9418503178
0.9182299793
0.8922938129
0.8721400873
0.8544149586
0.8361990722
0.8181394605
0.8022405995
0.7878688448
0.7731946827
0.7608954435
0.7487028737
0.7359520373
0.7218742417
0.710374199
0.70026765
0.6903082991
0.6800676834
0.671084429
0.6630767167
0.6550236949
0.6468187627
0.6395140332
0.6325305939
0.6246942837
0.6159579433
0.6103366137
0.6056869866
0.5990020737
0.957589913
0.9351282265
0.9138660875
0.8917484564
0.867411049
0.8483447832
0.8316388652
0.8143106844
0.7966574293
0.7814858488
0.7679322863
0.7537397186
0.741846363
0.7304072789
0.718603274
0.7053992834
0.6945565646
0.6853281149
0.6763575658
0.6664419711
0.6582225259
0.6509190822
0.6438750684
0.6359432556
0.6296474457
0.6234637124
0.6156628349
0.6062319569
0.6021489094
0.5987376379
0.5944528377
0.928401548
0.9073220167
0.8875490504
0.8672193792
0.844461939
0.8262393295
0.8101398851
0.793405284
0.7766067421
0.7622258884
0.7492519342
0.7358338761
0.7248118156
0.714146485
0.7028735787
0.6902864245
0.6795063205
0.6702918392
0.6612703975
0.6517736748
0.6438295731
0.6369972325
0.6301472577
0.6224674651
0.6162040119
0.6102573019
0.6016129142
0.5920549519
0.5915425678
0.5920069017
0.593216604
0.9013687
0.8807790453
0.8615705727
0.8418511624
0.8198199644
0.802162853
0.7868137657
0.7713173576
0.7556592152
0.7415613385
0.7286863798
0.7158322092
0.7052094584
0.6946100741
0.6835101164
0.6711220415
0.660676674
0.6519152713
0.6434768641
0.634508389
0.6273294784
0.6212795269
0.6147787122
0.6070484299
0.6017256672
0.5971778645
0.5906283475
0.5882761239
0.5893743663
0.5939838311
0.623062275
0.8723958715
0.8532261737
0.8356854617
0.8174252657
0.7962248515
0.7789129644
0.7643986526
0.7498342773
0.7348107223
0.7217824232
0.7101376453
0.6984723614
0.6883033305
0.6782807056
0.6680131467
0.6565560942
0.6468310901
0.638966014
0.6319075322
0.6238662257
0.6180088931
0.6128096007
0.6063035134
0.5980843844
0.5952496989
0.5921292575
0.588450023
)
;

boundaryField
{
    inlet
    {
        type            fixedValue;
        value           nonuniform 0();
    }
    outlet
    {
        type            zeroGradient;
    }
    bottom
    {
        type            slip;
    }
    top
    {
        type            slip;
    }
    obstacle
    {
        type            zeroGradient;
    }
    defaultFaces
    {
        type            empty;
    }
    procBoundary4to3
    {
        type            processor;
        value           nonuniform List<scalar> 
62
(
1
1
1
1
1
1
1
1.000000001
1.000000023
1.000001123
1.000037509
1.000602083
1.005303836
1.03154013
1.151780349
1.513777013
2.08108791
2.491313062
2.61398206
2.627201966
2.625349761
2.61908407
2.614297775
2.6006216
2.566300179
2.521117182
2.476837505
2.440321661
2.402821891
2.366355257
2.330067859
2.29225904
2.255713513
2.217722628
2.180383441
2.144194086
2.104862065
2.065210041
2.026230908
1.988181874
1.947469468
1.905845702
1.867222688
1.83127215
1.793740854
1.755097926
1.71769862
1.681855765
1.648221348
1.610975215
1.573885947
1.535554889
1.497977869
1.463240177
1.426028421
1.390178409
1.307576972
1.307576972
1.274905359
1.241583879
1.209410008
1.175556471
)
;
    }
    procBoundary4to5
    {
        type            processor;
        value           nonuniform List<scalar> 
69
(
2.766178303
2.794654453
2.770542555
2.765744545
2.768110904
2.787737176
2.757683773
2.750071952
2.744520065
2.738478526
2.732189591
2.730071402
2.713138047
2.698530751
2.695474098
2.683202803
2.678012716
2.685102085
2.645350264
2.630624223
2.621420635
2.619648458
2.637188876
2.605865506
2.593142356
2.575186163
2.552955439
2.449631944
2.27247281
1.836867674
1.402647306
1.156241658
1.077973198
1.040891244
1.017422261
0.99909843
0.985393795
0.9737935812
0.957133824
0.9397906929
0.923294565
0.9091145284
0.8956713072
0.8797186514
0.8652985106
0.8500199505
0.835874471
0.822669184
0.8079709439
0.794121629
0.7798673045
0.7663246394
0.7527282499
0.7392276955
0.726591695
0.7132174516
0.700324184
0.6889982232
0.6753596118
0.6629454796
0.6528488321
0.6391559587
0.626613638
0.6168483632
0.600920487
0.5954784238
0.5948016739
0.6077067921
0.6957001749
)
;
    }
    procBoundary4to9
    {
        type            processor;
        value           nonuniform List<scalar> 9(1.143917501 1.110821448 1.080329509 1.048427751 1.018218769 0.987472028 0.9562932228 0.9283883423 0.8975740071);
    }
    procBoundary4to10
    {