/*--------------------------------*- C++ -*----------------------------------*\
  =========                 |
  \\      /  F ield         | OpenFOAM: The Open Source CFD Toolbox
   \\    /   O peration     | Website:  https://openfoam.org
    \\  /    A nd           | Version:  7
     \\/     M anipulation  |
\*---------------------------------------------------------------------------*/
FoamFile
{
    version     2.0;
    format      ascii;
    class       volScalarField;
    location    "3.6";
    object      T;
}
// * * * * * * * * * * * * * * * * * * * * * * * * * * * * * * * * * * * * * //

dimensions      [0 0 0 1 0 0 0];

internalField   nonuniform List<scalar> 
2222
(
1
1.823863375
2.633113489
2.672525441
2.655957814
2.646803601
2.635739763
2.624460042
2.612501265
2.599855237
2.58645615
2.572233284
2.557249332
2.541476207
2.524957854
2.507701929
2.489730837
2.471134134
2.452014881
2.43266141
2.413311192
2.393157178
2.370843529
2.34925952
2.328221151
2.307852704
2.287402283
2.266708779
2.245578337
2.224093854
2.202718503
2.181908064
2.161748733
2.14200293
2.122293222
2.102308447
2.082020937
1.822954308
2.631941865
2.672258076
2.655629993
2.646541951
2.635561743
2.624332221
2.612392234
2.599736746
2.58630631
2.572059615
2.55704067
2.541238214
2.524691996
2.507447795
2.489528913
2.470984919
2.451888255
2.432436866
2.412817432
2.392712472
2.370952378
2.349253385
2.328319486
2.307818999
2.287262187
2.266512235
2.245404825
2.224028104
2.202771893
2.182015128
2.161832538
2.141993423
2.122160796
2.102088546
2.081788124
1.822633772
2.630339619
2.672000777
2.655334768
2.646319815
2.63542101
2.624231046
2.612288538
2.599606066
2.586135925
2.571844639
2.556764858
2.540922305
2.524344276
2.507076663
2.489177683
2.47066976
2.451606783
2.432096434
2.412319154
2.392208367
2.370912178
2.349217447
2.328353196
2.307710389
2.287050353
2.266252723
2.24518437
2.223931703
2.202789946
2.182048596
2.161788991
2.141827601
2.121878766
2.101755757
2.081491033
1.8256166
2.630123462
2.671668219
2.655016651
2.64605852
2.635236279
2.624075597
2.612109216
2.599390808
2.58587644
2.571527792
2.556381963
2.540487666
2.523869661
2.506551454
2.488640413
2.470140854
2.451081966
2.431493596
2.411551408
2.391576603
2.370769348
2.349142808
2.328222578
2.307442068
2.286704493
2.265883717
2.244886031
2.22378218
2.202763771
2.182034522
2.16165494
2.141511342
2.121425234
2.101275728
2.081097672
1.832552281
2.631924044
2.671359578
2.654739675
2.645770254
2.634940963
2.623761418
2.61176407
2.598995691
2.585419332
2.571011982
2.555797042
2.539812052
2.523112669
2.505723373
2.487781621
2.469263157
2.450170418
2.430513767
2.410543873
2.390790146
2.370434774
2.348982901
2.327814359
2.306849028
2.286076933
2.265312471
2.244446059
2.223494823
2.202562839
2.18177881
2.161222779
2.140894279
2.120710291
2.100594711
2.080564124
1.839792356
2.634112191
2.670480483
2.653925168
2.644950718
2.634113763
2.622911942
2.610880924
2.598045734
2.584389206
2.569900848
2.554603691
2.538500925
2.521716974
2.50425241
2.486262695
2.46771606
2.448531528
2.42877265
2.408850633
2.389317425
2.369624054
2.348366362
2.326976946
2.30585565
2.285064995
2.26439414
2.243694272
2.222900394
2.20202259
2.181150511
2.160424941
2.139944074
2.119707928
2.099673437
2.079836256
1.847167222
2.636037393
2.670547512
2.653585086
2.644385765
2.633464719
2.622237373
2.610156882
2.597249184
2.58353302
2.569016818
2.553736119
2.537676437
2.52089708
2.503421294
2.48532775
2.466670377
2.447319738
2.427280962
2.407201748
2.387837429
2.368326738
2.347234638
2.325710647
2.304400485
2.283570801
2.26298799
2.242462153
2.221823338
2.200989295
2.180059107
2.159233843
2.138675378
2.118446476
2.098531618
2.078900406
1.853489874
2.635576881
2.669443558
2.652472163
2.64318856
2.632193883
2.6209038
2.608753948
2.595770728
2.581983239
2.56741525
2.552118086
2.53604416
2.519212578
2.501761022
2.483633057
2.464950974
2.44562311
2.425459872
2.405246198
2.385838929
2.366585524
2.345669282
2.324065799
2.30254679
2.281590059
2.261031489
2.240631643
2.220154217
2.199417775
2.17850575
2.157664126
2.137100532
2.116917933
2.097131434
2.077692464
1.861883533
2.635506788
2.66790886
2.651057983
2.641805237
2.630778472
2.619415805
2.607185378
2.594123277
2.580252888
2.565587257
2.550200409
2.534050979
2.517139743
2.499677857
2.481565811
2.462922381
2.443789457
2.423701424
2.403301814
2.383725049
2.364509777
2.343691177
2.322136076
2.300484931
2.279333752
2.258696539
2.238327861
2.217966801
2.197376374
2.176566423
2.15577111
2.135237398
2.115115487
2.095461557
2.076207773
1.873079671
2.636335729
2.666385729
2.649703948
2.640544612
2.629506495
2.618073996
2.605775124
2.592655166
2.578716697
2.563940873
2.548414559
2.532156218
2.515149558
2.497566554
2.479431328
2.460790707
2.441794419
2.421912213
2.401279356
2.381433348
2.362183153
2.34155099
2.32008524
2.298421842
2.277151212
2.256351617
2.235874103
2.21551714
2.195104534
2.174458118
2.153718193
2.133215534
2.113158073
2.093594425
2.07445307
1.88551774
2.637658604
2.665156671
2.648683185
2.639600531
2.628540527
2.617053838
2.604712252
2.59156376
2.577590325
2.562749189
2.547099174
2.530694441
2.513602507
2.495831498
2.477604532
2.458954315
2.439986588
2.420287159
2.399518013
2.379338157
2.360065248
2.339526821
2.31822104
2.296578736
2.275112289
2.254167589
2.233638825
2.213225976
2.192792725
2.172201506
2.151492467
2.130975857
2.110997198
2.091584982
2.072583533
1.898365274
2.639358289
2.664570496
2.648261296
2.639163125
2.628048541
2.616508771
2.604116078
2.590928143
2.576925498
2.56205224
2.546328484
2.529785297
2.512633266
2.494713946
2.47631309
2.457668972
2.438685118
2.419044081
2.398200939
2.377652988
2.358192431
2.337866403
2.316692939
2.295152407
2.273511942
2.252332797
2.2315791
2.211082797
2.190678535
2.170225803
2.149601099
2.129049165
2.10892932
2.089344498
2.070218899
1.913739702
2.64143001
2.664238969
2.64815151
2.639069825
2.627949572
2.616387412
2.603941068
2.59065197
2.57657566
2.561665761
2.545938348
2.529333713
2.512138463
2.494199777
2.475597961
2.45693187
2.437969164
2.418257678
2.397289825
2.376486661
2.356791359
2.336575645
2.315452298
2.293789284
2.272108757
2.250785447
2.229897553
2.209325265
2.188801762
2.168198095
2.147576706
2.127078165
2.106905654
2.087286175
2.068172369
1.931505261
2.643564437
2.664034812
2.648195328
2.63914875
2.628046129
2.616469018
2.603943347
2.590540909
2.576385341
2.561409736
2.545720494
2.52916364
2.511933982
2.494067892
2.475351819
2.456567948
2.437706917
2.417982803
2.396816871
2.37567642
2.355858414
2.335764782
2.314709127
2.293033216
2.271206277
2.249645895
2.228576791
2.207880088
2.18729817
2.166695469
2.146112778
2.125638326
2.105409708
2.085608419
2.066252201
1.950278107
2.645055347
2.66392577
2.648386441
2.639426298
2.62836469
2.616774583
2.60418087
2.590678989
2.576408854
2.561325811
2.5456305
2.529156738
2.511893407
2.494093622
2.475376612
2.456380624
2.437633984
2.418010728
2.396704391
2.375226096
2.35517891
2.335205043
2.314218436
2.2925739
2.270653524
2.248867744
2.22758628
2.206752159
2.186121184
2.165542289
2.14495729
2.124416775
2.104109732
2.084200398
2.064698705
1.969286149
2.645599693
2.663875806
2.64868477
2.639839717
2.628827113
2.617235508
2.604643223
2.59110426
2.576737334
2.56153484
2.545763901
2.529336672
2.512052068
2.494182045
2.475559123
2.456285721
2.437504179
2.418247585
2.396932816
2.375107946
2.354675811
2.33467664
2.313773841
2.292263058
2.270380519
2.248476129
2.226951652
2.205902816
2.185183858
2.164633667
2.144114481
2.123615492
2.10326541
2.08322489
2.063553371
1.989001374
2.645607535
2.663837031
2.64903449
2.640336889
2.629401476
2.617837727
2.605294047
2.591809247
2.577440852
2.562168418
2.546284931
2.529821097
2.512532018
2.49447201
2.475905035
2.456380755
2.437411924
2.418551878
2.397550082
2.375389301
2.35450021
2.334258009
2.313372942
2.292048525
2.270300837
2.24839762
2.226718499
2.205420464
2.184550917
2.163988356
2.143541183
2.123126769
2.102794549
2.082661177
2.062784611
2.00966368
2.645602585
2.66392253
2.649521233
2.640957727
2.630109761
2.618588873
2.606080108
2.59265666
2.578344022
2.5631043
2.547127642
2.530524289
2.513215795
2.495031717
2.476352334
2.456747665
2.437448373
2.41876916
2.398345616
2.376130903
2.354643799
2.33405452
2.313145482
2.291969896
2.270400974
2.248560218
2.226760577
2.205254988
2.18422228
2.163574515
2.143155059
2.122844243
2.10259605
2.082426312
2.062379184
2.031124083
2.645996143
2.664169234
2.650152687
2.641668514
2.630904778
2.619430303
2.606916129
2.593496083
2.579222164
2.564039814
2.548011469
2.53126971
2.513885488
2.495730935
2.476825709
2.457227656
2.437660503
2.419079298
2.399084898
2.376969072
2.355020285
2.334107472
2.31321383
2.29217538
2.270785715
2.248987647
2.227043239
2.205386983
2.184206873
2.163452982
2.143010348
2.122741971
2.102542723
2.082369393
2.062237994
2.053219234
2.647677308
2.664520658
2.650889247
2.642447532
2.631789074
2.620377078
2.607835926
2.594344056
2.580018329
2.564813264
2.54874798
2.5319357
2.514463666
2.496516986
2.477416202
2.457735203
2.438107001
2.419428654
2.399663334
2.377683929
2.35558425
2.334414902
2.313582194
2.292713559
2.271438809
2.249639695
2.227626946
2.20585063
2.184539986
2.163693047
2.143184501
2.122881762
2.102674834
2.082475558
2.062276887
2.076228511
2.650856659
2.664709475
2.65161316
2.643232565
2.632717016
2.621374339
2.6088172
2.595218488
2.580725251
2.565361837
2.549208634
2.532369494
2.514897483
2.49714612
2.478095292
2.458094888
2.438453696
2.419785562
2.400274269
2.378292542
2.3561403
2.334883519
2.314173696
2.293430572
2.272203819
2.250420498
2.228429778
2.206645849
2.185282685
2.164339965
2.143734401
2.123354891
2.103089827
2.08281244
2.062532198
2.100260444
2.655483802
2.664703853
2.65243523
2.644143331
2.633796848
2.62250647
2.609944057
2.596229682
2.581468875
2.565839071
2.549531717
2.532643316
2.515305857
2.497594698
2.478855516
2.458487154
2.43864207
2.419959325
2.400674154
2.379033279
2.356800303
2.33542768
2.314740443
2.294000185
2.272763326
2.251084707
2.229256359
2.20759827
2.186267536
2.16528086
2.144591624
2.124118878
2.103755265
2.083383383
2.063050521
2.12500633
2.660774763
2.664676563
2.653510077
2.645279109
2.635073567
2.623769947
2.611164632
2.59733934
2.582307688
2.566403963
2.549891265
2.532852372
2.515720079
2.497847215
2.479541894
2.45911704
2.438642556
2.419916973
2.400637056
2.379223273
2.3573074
2.335917885
2.315065463
2.294236364
2.272966832
2.251405062
2.229824167
2.208373418
2.187144469
2.166160046
2.145410203
2.124855506
2.104405932
2.083982588
2.063674462
2.149984519
2.66532795
2.665044353
2.655007019
2.64668243
2.636509733
2.625069723
2.612318454
2.598380068
2.583209917
2.567161713
2.550461906
2.533138506
2.516061659
2.497975129
2.479947317
2.459870208
2.438546026
2.419522555
2.400886251
2.379927244
2.357776504
2.336175973
2.315130676
2.294119908
2.272828349
2.251383016
2.229982763
2.208686914
2.187549873
2.166588301
2.145822707
2.125243436
2.10479022
2.084397862
2.06418617
2.174709394
2.669082217
2.666392543
2.656917429
2.648261184
2.637926604
2.626204751
2.613217948
2.599197971
2.584114942
2.568132025
2.551336347
2.53362314
2.516237776
2.498053698
2.480026997
2.460442996
2.439047583
2.418893268
2.400379781
2.37964248
2.357580803
2.33570919
2.31442339
2.293149966
2.27184357
2.250575119
2.22936026
2.20825061
2.187254453
2.166396053
2.14573598
2.125258795
2.104875577
2.08453976
2.064399098
2.19930421
2.672400053
2.668003511
2.658996729
2.649763383
2.639076617
2.627004987
2.613786503
2.599761514
2.584936594
2.569160903
2.552332956
2.534258204
2.516268038
2.49807534
2.479303788
2.459490898
2.438429958
2.417561039
2.398769201
2.377801309
2.355376115
2.333032136
2.311206289
2.289737742
2.268501364
2.247488125
2.226628346
2.205875401
2.185168372
2.16456
2.14422307
2.124129154
2.104105641
2.084126616
2.064317112
2.2240052
2.67545988
2.669312113
2.660642508
2.650884465
2.639882114
2.627554491
2.614213306
2.600257217
2.585637847
2.569961201
2.552980142
2.534773368
2.516383176
2.498052784
2.479054846
2.458074264
2.434846448
2.412531033
2.392416434
2.371158767
2.348428086
2.325650027
2.303351193
2.281593777
2.260441296
2.239798243
2.219442689
2.199165828
2.178955342
2.159060101
2.139574175
2.120336271
2.101132424
2.08190778
2.062798017
2.249292792
2.678233682
2.67013088
2.661628447
2.651565021
2.640483495
2.628108137
2.614806413
2.600901328
2.586137651
2.570241433
2.552872727
2.533856156
2.513351718
2.493442426
2.473499887
2.450968389
2.425752413
2.401865861
2.379137515
2.357368871
2.334630752
2.311696659
2.28914269
2.267268829
2.246299235
2.226146678
2.206505798
2.187049514
2.167762685
2.148960166
2.130609498
2.112450203
2.094283067
2.076163311
2.058186516
2.27511682
2.680259036
2.670391584
2.662171532
2.652072581
2.641172878
2.629051884
2.615932514
2.60185315
2.586444332
2.570237858
2.552627827
2.531768833
2.508701075
2.485003719
2.461336857
2.43588139
2.408724973
2.381245303
2.357377567
2.334170329
2.310494389
2.287427588
2.265157524
2.243667597
2.223218063
2.203902229
2.185549835
2.16793708
2.150716335
2.133522789
2.116358557
2.099320715
2.082533369
2.066072347
2.049649085
2.300884747
2.681297787
2.670249756
2.662437104
2.652642708
2.642244529
2.630661422
2.617599259
2.602783341
2.586558085
2.568164979
2.547956697
2.524301653
2.497390047
2.467382119
2.438390103
2.408435129
2.375967764
2.345472994
2.318322718
2.294087602
2.270672401
2.248402201
2.226980714
2.206361621
2.187057594
2.169271752
2.152711343
2.137079066
2.122128313
2.107651812
2.09344682
2.079433641
2.065478592
2.051190085
2.036341415
2.324830545
2.681544539
2.669837056
2.66276128
2.65345368
2.643911026
2.632753078
2.61905967
2.60348194
2.58452977
2.563007759
2.537254672
2.507655412
2.472933672
2.434827765
2.396632433
2.361707963
2.32563811
2.291997216
2.264157588
2.23986063
2.217107221
2.196260471
2.176544504
2.157534993
2.139764579
2.123620741
2.109093009
2.095899328
2.083775879
2.072475072
2.061548481
2.050676014
2.03966522
2.02830105
2.016327198
2.347446157
2.681276397
2.669453385
2.663590482
2.655215444
2.646257014
2.634564794
2.619418589
2.601373785
2.578398224
2.550257552
2.514944428
2.473503289
2.427553847
2.380776169
2.337097045
2.298415022
2.261434098
2.226827344
2.198740067
2.174785366
2.152954073
2.133721863
2.116128983
2.099370389
2.083711741
2.069640091
2.057133804
2.045963256
2.036174624
2.027516957
2.019503328
2.011893254
2.004647045
1.997354668
1.989249546
2.368575528
2.682498675
2.670781101
2.665991938
2.658236111
2.648612024
2.635255608
2.617818257
2.594254884
2.562346949
2.520136408
2.470638469
2.417842467
2.362884399
2.310378602
2.26484465
2.226491553
2.190697393
2.158240504
2.133240469
2.111686902
2.09138263
2.073618269
2.057561045
2.042202658
2.027967286
2.015120631
2.003655987
1.993704227
1.98531701
1.978373528
1.972635484
1.967711119
1.963185454
1.958561359
1.953326024
2.390306754
2.685069302
2.674078811
2.670257161
2.661862476
2.649517208
2.633312974
2.609795749
2.574264617
2.525107522
2.467220246
2.405749291
2.345921235
2.28801134
2.236136441
2.193778882
2.160292069
2.129074639
2.099451474
2.076133578
2.05599559
2.037231858
2.020370453
2.00482208
1.990252694
1.97677868
1.964365371
1.953328773
1.943635062
1.935456781
1.928836924
1.923723481
1.919743381
1.916818866
1.91439771
1.91187932
2.412749603
2.689898737
2.679574601
2.675266557
2.664396671
2.649029552
2.62499426
2.586534125
2.531559499
2.464039328
2.392837453
2.325163135
2.266633917
2.214695943
2.170320078
2.134899877
2.10634045
2.079500237
2.053816315
2.033515056
2.015450261
1.997204376
1.980230863
1.964823485
1.950454417
1.936645699
1.92411198
1.912609551
1.902008899
1.892469524
1.884498295
1.878446111
1.874328684
1.871658975
1.869714063
1.868091996
2.437517573
2.696604064
2.686079761
2.679067339
2.66495367
2.641812339
2.601014988
2.539479661
2.464755171
2.385730604
2.312665403
2.25097222
2.201731866
2.157916613
2.120135134
2.091677998
2.069552363
2.045631761
2.021884304
2.002934234
1.985284425
1.967279105
1.950365569
1.934521161
1.919202828
1.90464949
1.891464875
1.878913217
1.867288131
1.856799265
1.847635395
1.84020642
1.834388966
1.830032822
1.827288536
1.825284004
2.466412251
2.703220199
2.691077908
2.680424165
2.658502379
2.617547148
2.550760532
2.466537798
2.379080043
2.301956324
2.237361923
2.187689995
2.150573736
2.118329382
2.087162919
2.061902874
2.042646854
2.021773975
1.99933328
1.981099465
1.963155334
1.94611231
1.929366619
1.912846303
1.897118661
1.882349414
1.867939769
1.855240054
1.843769663
1.830465016
1.819027246
1.809601239
1.801961291
1.796052554
1.791409162
1.787726465
2.503229618
2.708735311
2.693689384
2.674791734
2.634725961
2.566494535
2.475253015
2.380994414
2.300936296
2.237275971
2.186095446
2.149210167
2.119553277
2.090453178
2.063645407
2.041606913
2.025143362
2.002852302
1.981473622
1.964253139
1.946689235
1.928909356
1.911740573
1.894592485
1.877965722
1.86204595
1.847050194
1.833569892
1.820832719
1.809093109
1.797411419
1.786309394
1.776629589
1.768415253
1.761643035
1.756657952
2.549801714
2.710497653
2.689492415
2.653671935
2.584910858
2.489129308
2.385377116
2.298950227
2.235008164
2.188712444
2.15112841
2.121985405
2.098089918
2.073146808
2.047503591
2.028422844
2.012228108
1.991200541
1.97099316
1.954558215
1.937292415
1.919001285
1.901777931
1.884276195
1.866744721
1.85039945
1.834883341
1.819981331
1.805443683
1.794192703
1.783056135
1.771250721
1.760327799
1.750703402
1.742155951
1.732416646
2.603178979
2.70171679
2.668242527
2.605980886
2.506570614
2.399075498
2.309090912
2.243624627
2.199339701
2.16172354
2.129353062
2.105102693
2.08440914
2.060795274
2.036849659
2.019792664
2.003517211
1.982211496
1.962396298
1.945717882
1.928284015
1.910775995
1.893537698
1.875813099
1.858237078
1.842533241
1.828131414
1.811856025
1.795832511
1.780637695
1.766202682
1.753064782
1.741109892
1.730894061
1.720861173
1.71290647
2.651576538
2.679844694
2.620544712
2.525517754
2.411289701
2.317484651
2.250397519
2.206036292
2.174698168
2.144780887
2.116505014
2.095022641
2.076555855
2.052491537
2.028636962
2.013810838
1.995940311
1.973736852
1.955411407
1.938892575
1.921168386
1.904186737
1.886901967
1.86935708
1.852286207
1.835518035
1.818889924
1.802898367
1.787634047
1.772227936
1.757254432
1.74324188
1.730113356
1.718369828
1.706506715
1.697160293
2.675514587
2.643782503
2.537873556
2.424393226
2.331088049
2.267276603
2.222887385
2.188622169
2.161351108
2.134537277
2.108001453
2.087438058
2.068206327
2.043226023
2.020211923
2.004714091
1.986943862
1.964837772
1.946366109
1.929944597
1.912961767
1.896444851
1.879600463
1.86255224
1.845698732
1.829273702
1.812624854
1.796972375
1.781988984
1.766494732
1.751271484
1.737026514
1.723582133
1.709563933
1.69651499
1.685079541
2.653956556
2.576758258
2.439069262
2.33773724
2.276518626
2.237102222
2.207025488
2.179342127
2.153945473
2.127865186
2.101543616
2.080393953
2.060044608
2.033922748
2.011402821
1.996279133
1.977789796
1.955236127
1.937071544
1.920749603
1.904171586
1.887913821
1.871627191
1.855014811
1.838701695
1.822554193
1.806290917
1.791324373
1.7762117
1.760694713
1.745322052
1.73016671
1.715770535
1.701487764
1.688332409
1.675870345
2.561147897
2.458346385
2.343261844
2.289848974
2.254838815
2.228632091
2.200687496
2.173528404
2.148527924
2.1202186
2.092928249
2.071946363
2.050420992
2.023640611
2.001443668
1.986672043
1.967637165
1.944885823
1.927278473
1.91142022
1.894741876
1.878610234
1.862876792
1.846652236
1.831016737
1.815033911
1.799517211
1.785352914
1.77034906
1.755101291
1.740041136
1.725059788
1.710429675
1.695929863
1.682300848
1.6689931
2.407259662
2.363835859
2.292808197
2.267733431
2.247625286
2.225059741
2.19710521
2.169357116
2.141794328
2.112212092
2.084465742
2.062994389
2.040258781
2.012410792
1.991019879
1.976441092
1.956615709
1.933708581
1.9172567
1.901772419
1.884659457
1.868891746
1.853356998
1.837628977
1.822336233
1.806588542
1.792270411
1.778414425
1.76350177
1.748914873
1.734356967
1.719742
1.705457503
1.691274137
1.677317243
1.663472809
2.191426129
2.295722746
2.282488267
2.265730272
2.246871868
2.222866283
2.193431138
2.16367377
2.13460345
2.10359284
2.075250409
2.053345354
2.029550567
2.000799285
1.980418226
1.966043892
1.945020425
1.922267261
1.907273877
1.891636067
1.874230432
1.859106554
1.843529539
1.828265905
1.812792486
1.79777226
1.784618113
1.770472809
1.755918857
1.742114123
1.727948869
1.713925511
1.700203857
1.686174687
1.672381078
1.658522873
2.046654459
2.254409001
2.284382053
2.27011381
2.248098535
2.221059942
2.189036367
2.157813328
2.12722736
2.094748108
2.065916584
2.043645789
2.018583782
1.989107456
1.969831711
1.955410132
1.932800666
1.910911109
1.897221446
1.880729996
1.86363138
1.84915476
1.833484492
1.818289965
1.802682228
1.788997842
1.77615971
1.761587897
1.747891258
1.734590195
1.720940469
1.707739649
1.694355449
1.680682305
1.667465019
1.653885378
1.944204556
2.20363261
2.285440832
2.275575492
2.249020351
2.219133963
2.184829689
2.152037068
2.119747286
2.085908211
2.056651092
2.033953834
2.007443826
1.977541701
1.959451607
1.944510589
1.920310492
1.899934928
1.886862357
1.869289072
1.853094432
1.838860088
1.823335076
1.807936278
1.792870627
1.780435453
1.767008467
1.752507073
1.739746778
1.726530113
1.713439345
1.700739244
1.687547244
1.674712431
1.662110484
1.648949594
1.925330602
2.083288568
2.269641749
2.272126733
2.249919136
2.217835869
2.181005043
2.146797691
2.112561791
2.077078876
2.047281513
2.023961864
1.995890987
1.96582658
1.948842435
1.932897117
1.907517072
1.888995395
1.875989572
1.857758112
1.842454281
1.828051305
1.812846964
1.797244028
1.783575506
1.771508741
1.75725616
1.743840286
1.731456553
1.718198901
1.705678974
1.69314548
1.680410383
1.668509349
1.656301982
1.643535661
1.919975644
1.967430094
2.196962049
2.263219578
2.251475162
2.217148957
2.177132613
2.140747869
2.105207413
2.068341059
2.03815943
2.013879223
1.984099534
1.954131641
1.938102802
1.920813695
1.894536092
1.877826694
1.864646537
1.8462251
1.831465475
1.816923936
1.802025311
1.786726834
1.774601678
1.761985637
1.74744988
1.735437735
1.722878141
1.709724402
1.697478286
1.685018053
1.67303214
1.661693645
1.649758666
1.637470531
1.917084428
1.925351281
2.075646294
2.238377553
2.248342252
2.216373274
2.173817954
2.135369277
2.097607255
2.059451644
2.028966245
2.003374639
1.971838827
1.942303361
1.926931657
1.908141836
1.881270408
1.866266542
1.852830032
1.834628191
1.819984736
1.805626114
1.790855803
1.776492756
1.765211131
1.751710569
1.73810039
1.726933755
1.714108214
1.70142009
1.689198795
1.67699292
1.665678194
1.654560718
1.642875145
1.631016507
1.919401849
1.920321179
1.966043839
2.167148335
2.237977965
2.216168657
2.17117587
2.130181953
2.089944332
2.050713981
2.019965555
1.992863033
1.959577418
1.93062566
1.91558579
1.895092353
1.867889709
1.854378786
1.840584518
1.822734813
1.808057559
1.794316346
1.77958698
1.766498422
1.755208185
1.740928031
1.728851532
1.717931563
1.705074751
1.692767812
1.680525565
1.668993491
1.658130418
1.647093848
1.6356424
1.624050575
1.921204434
1.920058433
1.925412534
2.049743961
2.207013009
2.209718513
2.169635961
2.12572255
2.082450648
2.042330798
2.010773678
1.981877065
1.947099115
1.919148425
1.904083819
1.881738251
1.854629409
1.842241101
1.82806137
1.810217613
1.795570611
1.782825224
1.768479811
1.756282873
1.744233329
1.730222243
1.71971261
1.708539058
1.695887409
1.683961064
1.672132316
1.661319682
1.650557914
1.639524313
1.628245911
1.616801788
1.920685298
1.920331772
1.919846629
1.951661232
2.124252058
2.192790125
2.167970524
2.121788026
2.075566635
2.034626269
2.001893531
1.970964364
1.934554625
1.907698614
1.892263842
1.868105783
1.841632596
1.830102616
1.815508349
1.796962844
1.783001257
1.77153717
1.757715213
1.745491298
1.732718482
1.720031708
1.710299771
1.698553274
1.686285919
1.67487596
1.663740191
1.653381748
1.642708179
1.631828858
1.620733469
1.609421773
1.92068105
1.920931326
1.919186804
1.919814919
2.006652757
2.149134229
2.159545095
2.117826423
2.068995592
2.026208101
1.992612246
1.960009366
1.922315973
1.896447499
1.880157483
1.854298534
1.828825881
1.818020168
1.802752424
1.782846533
1.770565302
1.760441421
1.746420443
1.733532803
1.721404103
1.710432942
1.700507212
1.688387117
1.67677466
1.665976814
1.655502943
1.645332748
1.634821888
1.624158075
1.613208002
1.602021503
1.921224301
1.92096236
1.919183025
1.91199067
1.923866759
2.051646592
2.134323415
2.113770709
2.063549732
2.018667605
1.983306205
1.948800747
1.910321233
1.885380651
1.867785098
1.840117835
1.815902525
1.805995523
1.789638905
1.768657509
1.758774781
1.749336939
1.733998469
1.721124364
1.710905529
1.700902188
1.690024977
1.677875619
1.667113892
1.656989383
1.646984251
1.636928949
1.626709305
1.616308313
1.605601596
1.594709137
1.921173754
1.920695972
1.91904848
1.911137882
1.896559128
1.939810825
2.07129747
2.097031216
2.059139237
2.012351338
1.974529921
1.937586447
1.898542784
1.874225191
1.855200278
1.825749404
1.802978781
1.793683712
1.775631822
1.754680383
1.747407363
1.737391658
1.720285424
1.709400313
1.701109328
1.690781253
1.678948307
1.667687598
1.657956448
1.648319967
1.638482566
1.628405003
1.618414051
1.60835229
1.598032271
1.587490348
1.577046894
1.920803984
1.920591233
1.91858208
1.91080634
1.888966217
1.876865664
1.95896141
2.058407246
2.050618085
2.006700691
1.966659167
1.926665027
1.886973803
1.863300879
1.842304709
1.810866527
1.789834583
1.780913603
1.760881498
1.741202238
1.736018075
1.724091356
1.706045886
1.698421644
1.69102704
1.679074415
1.667249326
1.657776575
1.64878088
1.639197114
1.629399073
1.619560005
1.609937668
1.60028996
1.590381864
1.5801732
1.569901441
1.920832307
1.920631928
1.918017291
1.908954258
1.887701505
1.851346385
1.861906543
1.971787002
2.026944842
1.998793113
1.959086889
1.915901157
1.875696596
1.852298513
1.829163944
1.796088705
1.776778307
1.767351651
1.745332741
1.728055994
1.72398758
1.709348583
1.692733984
1.688194888
1.679648346
1.665840167
1.65638778
1.648576709
1.639506411
1.629656197
1.620142647
1.610834859
1.601546324
1.592164834
1.582527912
1.57263255
1.56267898
1.921067344
1.920506485
1.917396545
1.906769214
1.886788499
1.848497547
1.813678223
1.85458488
1.962914347
1.985725015
1.950215338
1.905325199
1.864469487
1.840537099
1.815280168
1.781389861
1.764241317
1.753592407
1.729604366
1.715083828
1.711062363
1.693694208
1.680310505
1.677555206
1.666089602
1.65248384
1.646350499
1.638632272
1.629087917
1.619604206
1.610847698
1.602105337
1.592999145
1.583785261
1.574515848
1.565075108
1.555523303
1.920991613
1.920299909
1.916741789
1.90465797
1.882130547
1.848612354
1.79908958
1.781108784
1.860729508
1.951348222
1.934907318
1.895577453
1.85460075
1.828480899
1.800715832
1.766517744
1.7511442
1.738799668
1.713682354
1.701929809
1.697043084
1.678383333
1.668943144
1.665595494
1.650877536
1.641009909
1.636658286
1.627594385
1.618376809
1.6097589
1.601695799
1.593372312
1.584387547
1.575355031
1.566389282
1.557253563
1.548056478
1.920809142
1.920115803
1.915988731
1.902773885
1.877048037
1.844100627
1.797366522
1.745593744
1.756636467
1.860496031
1.910244415
1.884472206
1.84503704
1.816328986
1.785969231
1.751850941
1.738038101
1.723717197
1.697947908
1.688538908
)
;

boundaryField
{
    inlet
    {
        type            fixedValue;
        value           nonuniform 0();
    }
    outlet
    {
        type            inletOutlet;
        inletValue      nonuniform 0();
        value           nonuniform 0();
    }
    bottom
    {
        type            slip;
    }
    top
    {
        type            slip;
    }
    obstacle
    {
        type            zeroGradient;
    }
    defaultFaces
    {
        type            empty;
    }
    procBoundary3to2
    {
        type            processor;
        value           nonuniform List<scalar> 
39
(
1
1
1
1
1
1
1
1
1
1
1
1
1
1
1
1
1
1
1
1
1
1
1
1
1
1
0.9999999999
0.9999999879
0.9999994811
0.9999807306
0.9996864307
1.019026294
1.061711928
1.107397987
1.15524519
1.205857373
1.261771569
1.321629959
1.387081482
)
;
    }
    procBoundary3to4
    {
        type            processor;
        value           nonuniform List<scalar> 
62
(
2.061746204
2.061565392
2.06135708
2.061100496
2.060747774
2.060243891
2.05952922
2.058516203
2.057190369
2.055543179
2.053790983
2.051351919
2.049298823
2.047166904
2.045453422
2.044141787
2.043140554
2.042533827
2.042261339
2.042231506
2.042444193
2.042966274
2.043666303
2.044305694
2.04468463
2.044854486
2.043829663
2.040244865
2.032946426
2.020995814
2.003794343
1.979847561
1.947163915
1.908796141
1.866369598
1.823801103
1.784824285
1.751821067
1.724569607
1.707027449
1.687560809
1.674114332
1.664372034
1.655347515
1.64929085
1.644632036
1.640424834
1.635793045
1.6307034
1.625087575
1.619025314
1.612413278
1.605465057
1.598359731
1.591196631
1.584134366
1.584134366
1.567033336
1.560029133
1.553084146
1.546193029
1.539117474
)
;
    }
    procBoundary3to8
    {
        type            processor;
        value           nonuniform List<scalar> 
24
(
1.457175098
1.529174283
1.605875478
1.658891384
1.588028875
1.495385125
1.201948093
1.612609228
1.851098779
1.91018741
1.919419029
1.925981758
1.919799714
1.918593013
1.922513161
1.922720517
1.920151041
1.920201566
1.921572771
1.921258291
1.920646864
1.920970811
1.921336992
1.921112597
)
;
    }
    procBoundary3to9
    {
        type            processor;
        value           nonuniform List<scalar> 
38
(
1.682050742
1.664031677
1.657767635
1.651088001
1.636095304
1.630948595
1.625334723
1.615271126
1.607822456
1.59975555
1.592285372
1.584432997
1.57564151
1.566791891
1.558104321
1.549317002
1.540611774
1.920759426
1.919975282
1.915168476
1.900493757
1.872737982
1.835804478
1.797241934
1.739676718
1.702986089
1.748888198
1.853848185
1.866065423
1.835173692
1.804261617
1.770526524
1.737200402
1.724197308
1.707957496
1.682203943
1.682050742
1.674569833
)
;
    }
}


// ************************************************************************* //
