/*--------------------------------*- C++ -*----------------------------------*\
  =========                 |
  \\      /  F ield         | OpenFOAM: The Open Source CFD Toolbox
   \\    /   O peration     | Website:  https://openfoam.org
    \\  /    A nd           | Version:  7
     \\/     M anipulation  |
\*---------------------------------------------------------------------------*/
FoamFile
{
    version     2.0;
    format      ascii;
    class       volVectorField;
    location    "4";
    object      U;
}
// * * * * * * * * * * * * * * * * * * * * * * * * * * * * * * * * * * * * * //

dimensions      [0 1 -1 0 0 0 0];

internalField   nonuniform List<vector> 
2222
(
(3 -3.520921512e-16 0)
(3 -2.357352821e-14 0)
(3 -1.922026641e-12 0)
(2.999999999 -4.364863015e-10 0)
(2.999999798 -2.005816184e-07 0)
(2.999983632 -1.87949894e-05 0)
(2.998397356 -0.001670786866 0)
(2.971685661 -0.03449488429 0)
(2.774965392 -0.1324083935 0)
(2.5460755 -0.3432528358 0)
(2.463796339 -0.1860909151 0)
(2.36892597 -0.04267120223 0)
(2.361044262 0.005942658809 0)
(2.372240665 0.01629851124 0)
(2.377451412 0.01622591394 0)
(2.387915311 0.009736434152 0)
(2.411768389 0.009678565396 0)
(2.440632083 0.01024336616 0)
(2.46597018 0.01208623066 0)
(2.483934756 0.01415932564 0)
(2.495675406 0.01494253969 0)
(2.506131091 0.01390289863 0)
(2.518713334 0.01233074674 0)
(2.533117502 0.01173792157 0)
(2.547154645 0.01249325272 0)
(2.559364141 0.01386357445 0)
(2.570440996 0.01454235876 0)
(2.582766654 0.0141568681 0)
(2.597629349 0.01348145808 0)
(2.613702189 0.01329435524 0)
(2.628342915 0.01369328306 0)
(2.639658006 0.01421818864 0)
(3 -8.689270269e-15 0)
(3 -8.636940456e-13 0)
(3 -2.7824849e-10 0)
(2.99999998 -6.487793891e-08 0)
(2.999995269 -1.397425731e-05 0)
(2.999772279 -0.0007247146013 0)
(2.98948498 -0.02669691809 0)
(2.955590109 -0.161325715 0)
(2.722646488 -0.51231021 0)
(2.602311422 -0.461968179 0)
(2.453583966 -0.1031932062 0)
(2.389780861 0.03104851993 0)
(2.371232162 0.04955795379 0)
(2.382590425 0.04861963382 0)
(2.396484132 0.03549694721 0)
(2.405450202 0.02768232296 0)
(2.425384731 0.01931396779 0)
(2.448490075 0.01701969121 0)
(2.472985561 0.01924133773 0)
(2.492950534 0.02459358794 0)
(2.506369352 0.02732846767 0)
(2.516782959 0.02638031541 0)
(2.52812666 0.02391007406 0)
(2.541391682 0.02273718811 0)
(2.555134212 0.02360524477 0)
(2.567873935 0.02588192332 0)
(2.579425776 0.02737383121 0)
(2.591153011 0.02663080038 0)
(2.605286259 0.02510614012 0)
(2.621223076 0.02460685229 0)
(2.636183538 0.02537181207 0)
(2.647932324 0.02656350512 0)
(3 -2.380319313e-13 0)
(3 -8.191592232e-11 0)
(2.999999994 -2.00146936e-08 0)
(2.999999035 -2.987837162e-06 0)
(2.99989514 -0.0002932247142 0)
(2.997153724 -0.009907135342 0)
(2.944376315 -0.1305864303 0)
(2.872749879 -0.3461966857 0)
(2.666798067 -0.6007496562 0)
(2.628994715 -0.626539043 0)
(2.570356519 -0.4795975772 0)
(2.526033849 -0.2271194322 0)
(2.460495317 -0.006507711807 0)
(2.416541379 0.05039279591 0)
(2.410395986 0.0555007768 0)
(2.425543665 0.05299445418 0)
(2.433851722 0.04027257511 0)
(2.449901014 0.0309961827 0)
(2.472034933 0.03349640578 0)
(2.492513763 0.04098483851 0)
(2.506456834 0.0451287319 0)
(2.516857757 0.04399182426 0)
(2.528065697 0.0404711644 0)
(2.540954885 0.03858888461 0)
(2.554049078 0.03967536712 0)
(2.566498211 0.04283195114 0)
(2.578559105 0.04507632727 0)
(2.590554371 0.04442721691 0)
(2.604390168 0.04202386814 0)
(2.619625876 0.04072629981 0)
(2.634046017 0.04142867351 0)
(2.6456269 0.04302769216 0)
(3 -2.458655485e-11 0)
(2.999999998 -4.820431899e-09 0)
(2.999999766 -6.603647058e-07 0)
(2.9999775 -6.098626436e-05 0)
(2.998702237 -0.003430915279 0)
(2.980757619 -0.06054392673 0)
(2.84133078 -0.3500099754 0)
(2.753475979 -0.510952244 0)
(2.658095391 -0.586180954 0)
(2.640749318 -0.6065802162 0)
(2.62263664 -0.5921131521 0)
(2.570336838 -0.4092104936 0)
(2.491354087 -0.09752661032 0)
(2.427491628 0.05955681105 0)
(2.430026949 0.08210117354 0)
(2.437861021 0.0805469048 0)
(2.448261532 0.06299302655 0)
(2.459987485 0.04961221998 0)
(2.480371762 0.05356595767 0)
(2.501125232 0.06113754803 0)
(2.515629445 0.06548140464 0)
(2.52510436 0.06330274191 0)
(2.534129464 0.05741614062 0)
(2.546012182 0.05438770822 0)
(2.560153412 0.05693508152 0)
(2.573494742 0.06121556622 0)
(2.586357898 0.06280777458 0)
(2.600814119 0.06219957344 0)
(2.613640768 0.06005046021 0)
(2.624927695 0.05822389548 0)
(2.63624098 0.05858153692 0)
(2.64649227 0.06021437518 0)
(3 -8.414906141e-10 0)
(2.999999957 -1.129020469e-07 0)
(2.999995515 -1.126104523e-05 0)
(2.999730994 -0.0006382793665 0)
(2.991302131 -0.02297560983 0)
(2.908300888 -0.1992418497 0)
(2.73061913 -0.5442543204 0)
(2.689711423 -0.5839411753 0)
(2.658939795 -0.5880769467 0)
(2.652262135 -0.5968688241 0)
(2.639526117 -0.6062018343 0)
(2.627696122 -0.5695957794 0)
(2.55061492 -0.3442849573 0)
(2.509089655 -0.08837337655 0)
(2.455618806 0.07508097991 0)
(2.436653839 0.09786035237 0)
(2.441240694 0.08526345204 0)
(2.453919188 0.07157596952 0)
(2.475468068 0.07183858336 0)
(2.495924175 0.07749447288 0)
(2.510956233 0.08244524853 0)
(2.522755772 0.08114866413 0)
(2.533366533 0.07455123593 0)
(2.544704889 0.07069577071 0)
(2.557343146 0.073381889 0)
(2.570352755 0.07819550758 0)
(2.583050896 0.07965122397 0)
(2.595529374 0.07776656007 0)
(2.6091717 0.07678737502 0)
(2.622977378 0.07576098533 0)
(2.635550077 0.07618285155 0)
(2.646320653 0.07780604897 0)
(2.999999994 -1.34469654e-08 0)
(2.999999354 -1.466573693e-06 0)
(2.999949539 -0.0001184966753 0)
(2.997693316 -0.005413727418 0)
(2.96690063 -0.08139629286 0)
(2.760971041 -0.4220098941 0)
(2.657987558 -0.6293644205 0)
(2.654200704 -0.6037202445 0)
(2.660671887 -0.5913882872 0)
(2.666821408 -0.582187089 0)
(2.659944507 -0.5935669575 0)
(2.648522224 -0.581210027 0)
(2.633301448 -0.5184617276 0)
(2.581480169 -0.2603005196 0)
(2.457583059 0.06215239517 0)
(2.429143 0.1017066658 0)
(2.436971977 0.09914643844 0)
(2.455293394 0.09634683868 0)
(2.475548336 0.09257254979 0)
(2.496349617 0.09587585891 0)
(2.5159415 0.1010515652 0)
(2.532068674 0.1006543094 0)
(2.54324405 0.09531748346 0)
(2.551652422 0.09156907619 0)
(2.561176686 0.09318169174 0)
(2.571671389 0.09591476884 0)
(2.583164299 0.09777454823 0)
(2.598070966 0.09804580083 0)
(2.613092258 0.09515403157 0)
(2.627709689 0.09292015962 0)
(2.640965521 0.09290178423 0)
(2.652075713 0.09435264088 0)
(2.999999939 -1.249252557e-07 0)
(2.99999215 -1.777312166e-05 0)
(2.999536564 -0.001070240487 0)
(2.987487648 -0.03034192119 0)
(2.885294353 -0.23132648 0)
(2.661033822 -0.5791366304 0)
(2.616117474 -0.6522867735 0)
(2.641675347 -0.6118169063 0)
(2.65713866 -0.5920110077 0)
(2.674843196 -0.5741581479 0)
(2.678334669 -0.5697103682 0)
(2.660290271 -0.5859889657 0)
(2.663941894 -0.5573849906 0)
(2.643557155 -0.4590020776 0)
(2.562480985 -0.1892636867 0)
(2.494104184 0.02909087692 0)
(2.455257808 0.1142208119 0)
(2.453966127 0.1196305656 0)
(2.464294634 0.1120031115 0)
(2.482812343 0.1101261245 0)
(2.506337868 0.1132693074 0)
(2.525402903 0.1134679675 0)
(2.536998229 0.1097336906 0)
(2.545108234 0.106727987 0)
(2.554357966 0.1075113642 0)
(2.566778755 0.1112154326 0)
(2.581839547 0.1148779213 0)
(2.59615407 0.1154637075 0)
(2.610690248 0.1121625832 0)
(2.624749435 0.1096975995 0)
(2.637040585 0.1094512398 0)
(2.647938159 0.1107208995 0)
(2.999999137 -1.974361054e-06 0)
(2.999917734 -0.0002010818973 0)
(2.996068457 -0.009581779092 0)
(2.949186791 -0.1188100718 0)
(2.770427964 -0.4046363845 0)
(2.607831005 -0.6636272695 0)
(2.592795849 -0.6646693613 0)
(2.62700702 -0.6262616388 0)
(2.648401163 -0.5969080616 0)
(2.676249454 -0.5668093888 0)
(2.686842157 -0.5548845031 0)
(2.679411866 -0.5642480004 0)
(2.670747694 -0.5700714894 0)
(2.672447113 -0.522899165 0)
(2.6499279 -0.3892451177 0)
(2.545332837 -0.04208701762 0)
(2.476853795 0.1235840064 0)
(2.454123148 0.1373894123 0)
(2.463888918 0.1321661326 0)
(2.482287157 0.131978214 0)
(2.503465746 0.1325143149 0)
(2.521955758 0.1317780206 0)
(2.534687554 0.1286472694 0)
(2.54276057 0.1248147454 0)
(2.551160911 0.1245525307 0)
(2.563804973 0.1280084035 0)
(2.580136317 0.1316487606 0)
(2.598048353 0.1325033324 0)
(2.614366193 0.1304052056 0)
(2.627114837 0.1287179665 0)
(2.637771688 0.128752546 0)
(2.647875501 0.1297198126 0)
(2.999983844 -4.473373785e-05 0)
(2.998938277 -0.003019460534 0)
(2.977309395 -0.05503336082 0)
(2.855466824 -0.3031284658 0)
(2.677777837 -0.5440674713 0)
(2.605075466 -0.6713211318 0)
(2.59276319 -0.6656885419 0)
(2.615112744 -0.637195627 0)
(2.640025991 -0.5991916825 0)
(2.674758951 -0.5601914513 0)
(2.695088589 -0.5411223458 0)
(2.690206699 -0.5467270266 0)
(2.678147426 -0.5555114919 0)
(2.685310545 -0.5399125858 0)
(2.688785374 -0.4836516481 0)
(2.650050017 -0.3057540476 0)
(2.579623447 -0.04261088755 0)
(2.488460834 0.1226826808 0)
(2.470944338 0.1489084765 0)
(2.473990893 0.1528371163 0)
(2.490907445 0.1483459609 0)
(2.511094566 0.1465338863 0)
(2.527632649 0.1442587496 0)
(2.53860815 0.1415334152 0)
(2.547885361 0.1415582197 0)
(2.560263412 0.1443973206 0)
(2.576875932 0.1468450813 0)
(2.595180418 0.1474332747 0)
(2.611214125 0.1467913245 0)
(2.623677364 0.1463430177 0)
(2.633637325 0.1463975182 0)
(2.642729823 0.1458890778 0)
(2.999674795 -0.0009766635802 0)
(2.990799211 -0.02805736048 0)
(2.906119528 -0.2154941151 0)
(2.758506107 -0.4516199463 0)
(2.638901968 -0.6119775202 0)
(2.606468818 -0.6583060878 0)
(2.59609133 -0.6587726934 0)
(2.613691604 -0.6358743934 0)
(2.636639409 -0.5963989632 0)
(2.671474808 -0.55690855 0)
(2.698669799 -0.530151094 0)
(2.699599173 -0.5331294361 0)
(2.692902766 -0.5367898366 0)
(2.689485142 -0.5363026053 0)
(2.70864435 -0.5019301841 0)
(2.707863528 -0.4360880124 0)
(2.659167958 -0.2108478452 0)
(2.536845317 0.09321940833 0)
(2.479136907 0.1667953079 0)
(2.478308108 0.1697839446 0)
(2.492445922 0.1667926426 0)
(2.512039288 0.166388386 0)
(2.52872488 0.1632280915 0)
(2.540140899 0.1599387263 0)
(2.550170501 0.1601895486 0)
(2.562228658 0.1626584326 0)
(2.576748122 0.1636191644 0)
(2.592145994 0.1633069639 0)
(2.60669659 0.1630907831 0)
(2.619192319 0.163398311 0)
(2.629934692 0.1634314887 0)
(2.640597147 0.1625258474 0)
(2.99623543 -0.01189440376 0)
(2.949320152 -0.1318783759 0)
(2.787675932 -0.4513207727 0)
(2.68913738 -0.5454727514 0)
(2.644703324 -0.6192083432 0)
(2.615238858 -0.6539825658 0)
(2.600796334 -0.6555100916 0)
(2.617280867 -0.6285283589 0)
(2.639857975 -0.5909365695 0)
(2.671372966 -0.5529254111 0)
(2.697755896 -0.5259482768 0)
(2.709083874 -0.5175857187 0)
(2.698524741 -0.5285386166 0)
(2.702051865 -0.5198004724 0)
(2.713290253 -0.5058590073 0)
(2.731095998 -0.4624018353 0)
(2.724636326 -0.3851187897 0)
(2.631571243 -0.1186413578 0)
(2.562656404 0.07710938011 0)
(2.502501467 0.1695283843 0)
(2.495688758 0.1871016141 0)
(2.507898259 0.1856610132 0)
(2.524152105 0.18003618 0)
(2.537063499 0.1768860435 0)
(2.548677018 0.1779882752 0)
(2.561828868 0.1803138615 0)
(2.575707225 0.1806056326 0)
(2.588862085 0.1796345741 0)
(2.601974298 0.1794206335 0)
(2.614108976 0.1799093307 0)
(2.625146346 0.1796840867 0)
(2.636109149 0.1775682749 0)
(2.979562374 -0.06348725145 0)
(2.826300145 -0.3695133702 0)
(2.712345643 -0.5525902302 0)
(2.6564827 -0.5926273261 0)
(2.650762782 -0.6087998334 0)
(2.631433164 -0.6383867693 0)
(2.614936253 -0.6463548112 0)
(2.621922092 -0.6228838108 0)
(2.644572935 -0.586255017 0)
(2.673817888 -0.5493147834 0)
(2.69892447 -0.5211864927 0)
(2.715529282 -0.505910014 0)
(2.713981676 -0.5110748949 0)
(2.704896459 -0.5121965471 0)
(2.721411296 -0.4909842576 0)
(2.741915626 -0.4714135384 0)
(2.744036101 -0.4235966277 0)
(2.728125541 -0.328234839 0)
(2.625869777 -0.022884275 0)
(2.541229928 0.1694387869 0)
(2.498020994 0.206693103 0)
(2.509954901 0.2046840688 0)
(2.525725516 0.1989950216 0)
(2.539667356 0.1948824944 0)
(2.552492173 0.1967944278 0)
(2.563577971 0.1974707523 0)
(2.576549435 0.1969462313 0)
(2.59208043 0.1976063519 0)
(2.606648057 0.1984629781 0)
(2.618824574 0.1989241067 0)
(2.62930763 0.1969993777 0)
(2.640040734 0.1939753206 0)
(2.915145525 -0.188400898 0)
(2.694489707 -0.5828080175 0)
(2.653564448 -0.6072714513 0)
(2.651936354 -0.5990708828 0)
(2.653166782 -0.5983167079 0)
(2.645612424 -0.6136101424 0)
(2.630679243 -0.6268622851 0)
(2.629112516 -0.612821383 0)
(2.650396122 -0.5794790373 0)
(2.676679319 -0.5451757556 0)
(2.700332486 -0.5169634471 0)
(2.719210104 -0.4980796818 0)
(2.725466631 -0.4955134548 0)
(2.71532485 -0.5008273401 0)
(2.724900326 -0.480989059 0)
(2.741672304 -0.4596356177 0)
(2.756971196 -0.4344667074 0)
(2.759238151 -0.3922830591 0)
(2.72541114 -0.2647535829 0)
(2.624912693 0.004240449782 0)
(2.543914396 0.164418966 0)
(2.523226275 0.2131731697 0)
(2.525049623 0.2163466656 0)
(2.5379796 0.2139832585 0)
(2.548675399 0.2156583294 0)
(2.559510717 0.2158829403 0)
(2.573453865 0.2140336685 0)
(2.588302543 0.2139989211 0)
(2.601039372 0.2151249806 0)
(2.612712002 0.2147266157 0)
(2.623825843 0.2126054255 0)
(2.633386868 0.2095323082 0)
(2.765167778 -0.4013838242 0)
(2.6251285 -0.6656960277 0)
(2.62543195 -0.6310290917 0)
(2.645981273 -0.6019269834 0)
(2.656076383 -0.5911638767 0)
(2.658017578 -0.5937547531 0)
(2.64491769 -0.608561899 0)
(2.637564889 -0.603031631 0)
(2.655160348 -0.5737879226 0)
(2.679842584 -0.5405038768 0)
(2.701910344 -0.512722029 0)
(2.722945454 -0.4904266171 0)
(2.732758812 -0.484058755 0)
(2.729269951 -0.486755341 0)
(2.726515036 -0.477592465 0)
(2.749797786 -0.4446631887 0)
(2.761001947 -0.428873899 0)
(2.771630884 -0.4021024767 0)
(2.769000826 -0.35907996 0)
(2.729262015 -0.2049899778 0)
(2.578526848 0.1392847754 0)
(2.521808443 0.2226163901 0)
(2.523921389 0.2337803341 0)
(2.536930523 0.2378121131 0)
(2.551230185 0.238263904 0)
(2.563373808 0.232596417 0)
(2.577906235 0.2296685136 0)
(2.5948156 0.2323708074 0)
(2.609504012 0.2342871711 0)
(2.619481513 0.2334897206 0)
(2.625890739 0.231339074 0)
(2.63214828 0.2288631672 0)
(2.655351778 -0.565760279 0)
(2.592337396 -0.6836360345 0)
(2.609923155 -0.6447951785 0)
(2.637610432 -0.6089507685 0)
(2.65810956 -0.5847170786 0)
(2.672183313 -0.5756753973 0)
(2.664553517 -0.5887227466 0)
(2.651271344 -0.5905541567 0)
(2.661337895 -0.5669670588 0)
(2.683739267 -0.5348387131 0)
(2.703754646 -0.5081082689 0)
(2.725998122 -0.4835594263 0)
(2.740868057 -0.4712665247 0)
(2.741304049 -0.4719014077 0)
(2.73664652 -0.4671643852 0)
(2.750700819 -0.4416258201 0)
(2.769827558 -0.4097169176 0)
(2.775732701 -0.4038164649 0)
(2.78488854 -0.3796231278 0)
(2.777813247 -0.3228478289 0)
(2.688057948 -0.09680260142 0)
(2.613593242 0.1065797417 0)
(2.544762943 0.2310066104 0)
(2.531834939 0.2560513481 0)
(2.54102486 0.2549673644 0)
(2.557345141 0.2491588961 0)
(2.57432048 0.2478118391 0)
(2.589538437 0.2479853804 0)
(2.60303447 0.2478289384 0)
(2.614423335 0.2489492223 0)
(2.623751163 0.2495373759 0)
(2.631358688 0.2475775252 0)
(2.596436009 -0.6586070299 0)
(2.576944169 -0.6875590031 0)
(2.593481611 -0.6581926164 0)
(2.626230795 -0.6162530318 0)
(2.654506799 -0.5813805558 0)
(2.675687835 -0.5626955113 0)
(2.674524551 -0.5722942174 0)
(2.66427947 -0.5770525835 0)
(2.6703592 -0.5579061801 0)
(2.688520199 -0.5276401284 0)
(2.706668234 -0.5015727385 0)
(2.728051795 -0.478160816 0)
(2.745822374 -0.4606298794 0)
(2.749043416 -0.4597012478 0)
(2.747397513 -0.4540258857 0)
(2.756069257 -0.4337745867 0)
(2.771800582 -0.4026664646 0)
(2.783973501 -0.3848573888 0)
(2.790103251 -0.3850056318 0)
(2.796494529 -0.3548388793 0)
(2.772210062 -0.265664927 0)
(2.697332885 -0.004999836134 0)
(2.558212124 0.2566962398 0)
(2.535857561 0.2686081881 0)
(2.54664867 0.2693825311 0)
(2.564246593 0.2707526348 0)
(2.579381318 0.270073889 0)
(2.589567101 0.2659795833 0)
(2.598988852 0.2642438345 0)
(2.609392982 0.2659217493 0)
(2.619692599 0.2673151415 0)
(2.630132654 0.2652420189 0)
(2.597134647 -0.6720712486 0)
(2.577539615 -0.6808158713 0)
(2.588646587 -0.6626791606 0)
(2.617589012 -0.620786143 0)
(2.650043388 -0.5780414894 0)
(2.678304201 -0.5512643688 0)
(2.68527959 -0.5558806887 0)
(2.678495146 -0.5623795577 0)
(2.680559014 -0.5479015245 0)
(2.694268633 -0.5200306322 0)
(2.710067426 -0.4945435396 0)
(2.731116126 -0.4708311438 0)
(2.750509628 -0.4508921793 0)
(2.757902629 -0.4454917741 0)
(2.753892393 -0.4447039808 0)
(2.764415584 -0.423392533 0)
(2.775823377 -0.3975878347 0)
(2.786141458 -0.3743693113 0)
(2.794480191 -0.3738868804 0)
(2.805686521 -0.3632292398 0)
(2.80259662 -0.3202397784 0)
(2.768814657 -0.1897996562 0)
(2.670368396 0.06203246576 0)
(2.585426388 0.2242151238 0)
(2.56731632 0.2835641098 0)
(2.563195856 0.2933886873 0)
(2.571395264 0.2898907654 0)
(2.581940164 0.2823971633 0)
(2.593253095 0.2799137272 0)
(2.605135571 0.2824359777 0)
(2.616746999 0.283327137 0)
(2.629050809 0.2799613859 0)
(2.603778506 -0.6637048216 0)
(2.579998781 -0.6736961794 0)
(2.592261549 -0.6559427317 0)
(2.617548468 -0.618702679 0)
(2.648541227 -0.5754367361 0)
(2.677602303 -0.5450247488 0)
(2.691002459 -0.5433526611 0)
(2.691221049 -0.5476400076 0)
(2.692923391 -0.535516099 0)
(2.702455727 -0.5100394942 0)
(2.713720342 -0.4879511998 0)
(2.733499566 -0.4651085135 0)
(2.754547294 -0.4427066661 0)
(2.764690976 -0.4328004723 0)
(2.76334144 -0.4321704791 0)
(2.770257809 -0.4146297883 0)
(2.784056323 -0.385062913 0)
(2.789890531 -0.3693663296 0)
(2.79985415 -0.3579341372 0)
(2.808256774 -0.3597572033 0)
(2.81855202 -0.3280296622 0)
(2.812362046 -0.2810477782 0)
(2.758771229 -0.1091851751 0)
(2.634379266 0.192240313 0)
(2.582697829 0.3084494135 0)
(2.564678258 0.3125507148 0)
(2.573053656 0.3086800962 0)
(2.58475241 0.300733161 0)
(2.596220276 0.2988562157 0)
(2.608651612 0.3000358705 0)
(2.620674449 0.2996611952 0)
(2.631732556 0.2962869493 0)
(2.615008394 -0.6572495523 0)
(2.589434625 -0.6723597051 0)
(2.595015862 -0.6517718584 0)
(2.621517948 -0.6133398821 0)
(2.65142336 -0.5708446565 0)
(2.677889418 -0.5393425233 0)
(2.694350273 -0.5337200745 0)
(2.69914195 -0.5363121226 0)
(2.703221342 -0.5244659989 0)
(2.71133889 -0.4996534365 0)
(2.719070625 -0.4801325803 0)
(2.736272813 -0.459375744 0)
(2.758409616 -0.434604416 0)
(2.769575767 -0.4223131085 0)
(2.771566536 -0.4189771565 0)
(2.775818265 -0.4057231844 0)
(2.790375227 -0.3747032203 0)
(2.797664582 -0.3567055809 0)
(2.800969926 -0.3536652305 0)
(2.816418884 -0.3418395761 0)
(2.826271006 -0.3307613175 0)
(2.828565569 -0.2919096855 0)
(2.816977923 -0.2344548702 0)
(2.721448501 0.002110763285 0)
(2.65987394 0.2020799909 0)
(2.590182375 0.3056543765 0)
(2.581853417 0.3189753996 0)
(2.587836399 0.3228402174 0)
(2.600072232 0.3199384739 0)
(2.61111634 0.3157106601 0)
(2.621740498 0.3138241796 0)
(2.631563026 0.3121794862 0)
(2.631080326 -0.6370635156 0)
(2.609389812 -0.6581650501 0)
(2.602654365 -0.6465678923 0)
(2.6260888 -0.6102329765 0)
(2.655883772 -0.5679034904 0)
(2.679663399 -0.5348713671 0)
(2.69788991 -0.5240673953 0)
(2.707928135 -0.5231960324 0)
(2.715443478 -0.5105941774 0)
(2.721883745 -0.4866499339 0)
(2.726086841 -0.4700640663 0)
(2.740156424 -0.4517384091 0)
(2.762885017 -0.4254188141 0)
(2.775392247 -0.4104945464 0)
(2.7773089 -0.4083159127 0)
(2.782567228 -0.3958967897 0)
(2.796100907 -0.3669077851 0)
(2.804377285 -0.3443407817 0)
(2.807018282 -0.3446869566 0)
(2.8162854 -0.3349790306 0)
(2.832654199 -0.3149146502 0)
(2.839270267 -0.2969918146 0)
(2.836322982 -0.2641401756 0)
(2.81404248 -0.1818015812 0)
(2.705401746 0.1166383229 0)
(2.640464832 0.2961839537 0)
(2.583638125 0.3474730064 0)
(2.586032035 0.3474773081 0)
(2.596034361 0.3402315496 0)
(2.605935551 0.332753333 0)
(2.617479665 0.3287749248 0)
(2.627751025 0.3282140889 0)
(2.641926037 -0.6174407399 0)
(2.627874588 -0.6357195761 0)
(2.615038372 -0.6336089536 0)
(2.632532821 -0.6028689292 0)
(2.661751703 -0.5621796099 0)
(2.683356758 -0.528473251 0)
(2.700284443 -0.5163231313 0)
(2.71168319 -0.5144263163 0)
(2.723461367 -0.4991635241 0)
(2.731260176 -0.4739997278 0)
(2.733421152 -0.4601141164 0)
(2.744036134 -0.4453802279 0)
(2.766448259 -0.4190262198 0)
(2.780249261 -0.4000553721 0)
(2.783333616 -0.3971182403 0)
(2.788930585 -0.3855692069 0)
(2.803129888 -0.3570916157 0)
(2.810755401 -0.333968383 0)
(2.815723062 -0.331337791 0)
(2.818293531 -0.3282774553 0)
(2.837866443 -0.2998882612 0)
(2.845030943 -0.2847946724 0)
(2.846315249 -0.2667448331 0)
(2.844827372 -0.2326019203 0)
(2.807395696 -0.1072742156 0)
(2.697768591 0.1725131248 0)
(2.642951148 0.3166806603 0)
(2.601030665 0.3533363633 0)
(2.599431828 0.3565516916 0)
(2.609295995 0.3504702736 0)
(2.623039282 0.3488202701 0)
(2.636557083 0.3496516453 0)
(2.653555063 -0.6010426346 0)
(2.645922691 -0.6140465142 0)
(2.628779425 -0.6201355534 0)
(2.638191906 -0.5969063698 0)
(2.666766288 -0.557949105 0)
(2.687845136 -0.5221635065 0)
(2.703910141 -0.5080329718 0)
(2.716200663 -0.505785279 0)
(2.730591286 -0.4893350885 0)
(2.74073665 -0.461284864 0)
(2.742467337 -0.4479098175 0)
(2.749869166 -0.4364801224 0)
(2.771370124 -0.4106898439 0)
(2.785084858 -0.3895639666 0)
(2.788719252 -0.3859620588 0)
(2.793867863 -0.3754993223 0)
(2.809783872 -0.3463494476 0)
(2.817930402 -0.3224275582 0)
(2.82222777 -0.319925084 0)
(2.824185945 -0.320104301 0)
(2.84000558 -0.2953166386 0)
(2.850756119 -0.2654029432 0)
(2.849739954 -0.2653804513 0)
(2.859951435 -0.244276276 0)
(2.852808665 -0.1961130745 0)
(2.800773688 -0.03179192042 0)
(2.677682515 0.2872203411 0)
(2.608524758 0.3635155971 0)
(2.603205378 0.3747029421 0)
(2.60851237 0.3749403309 0)
(2.619236956 0.3711797447 0)
(2.631464452 0.3643279007 0)
(2.659317969 -0.5889505617 0)
(2.663061356 -0.5932273882 0)
(2.647782255 -0.6034354355 0)
(2.647434954 -0.5881083963 0)
(2.672410897 -0.5525062438 0)
(2.693016618 -0.5157547251 0)
(2.707992869 -0.4998122236 0)
(2.720879804 -0.4965891186 0)
(2.738286709 -0.4782881024 0)
(2.749322358 -0.4491490113 0)
(2.750222681 -0.437616465 0)
(2.755565204 -0.4286029569 0)
(2.776697014 -0.4021723018 0)
(2.790526852 -0.3783873642 0)
(2.794177195 -0.3744497379 0)
(2.798257722 -0.3662082547 0)
(2.814648052 -0.3381872789 0)
(2.824536919 -0.3113184692 0)
(2.829082298 -0.3085080139 0)
(2.832948035 -0.3070002718 0)
(2.845290893 -0.2861542166 0)
(2.854818176 -0.2548810344 0)
(2.858967095 -0.2456625794 0)
(2.862359211 -0.2482038975 0)
(2.870458941 -0.2190610317 0)
(2.857516127 -0.1514097057 0)
(2.749237223 0.1059680078 0)
(2.687353771 0.2639577574 0)
(2.62543939 0.3672185806 0)
(2.610937652 0.3931577306 0)
(2.616955202 0.390652272 0)
(2.626440275 0.382385139 0)
(2.660540877 -0.5791175045 0)
(2.673043168 -0.5753651961 0)
(2.66372342 -0.5858256976 0)
(2.658461828 -0.5772682205 0)
(2.679422423 -0.544780345 0)
(2.699858904 -0.5066159437 0)
(2.712923284 -0.4908251769 0)
(2.724431722 -0.4888642672 0)
(2.743671199 -0.469204909 0)
(2.758511467 -0.4358633605 0)
(2.761103866 -0.4226988156 0)
(2.764193812 -0.4169716638 0)
(2.782715641 -0.3929447744 0)
(2.796153664 -0.3676105134 0)
(2.799647745 -0.3627850914 0)
(2.803498575 -0.3551135725 0)
(2.820217366 -0.3279383495 0)
(2.830819583 -0.3000313814 0)
(2.836071706 -0.297395902 0)
(2.838019048 -0.2984105163 0)
(2.85232539 -0.27566372 0)
(2.859324055 -0.2479420459 0)
(2.861805565 -0.2332778165 0)
(2.866655687 -0.2377782615 0)
(2.879781991 -0.2272220437 0)
(2.874518213 -0.184465197 0)
(2.837963176 -0.07512507091 0)
(2.774062166 0.1572511929 0)
(2.638656974 0.4190344538 0)
(2.61161456 0.4041893393 0)
(2.617766425 0.4020158427 0)
(2.62871213 0.3965060054 0)
(2.657937876 -0.5722694275 0)
(2.67949018 -0.5602846142 0)
(2.677621994 -0.5684233104 0)
(2.67035996 -0.5654088957 0)
(2.686089472 -0.537669113 0)
(2.706507722 -0.4985444425 0)
(2.719073788 -0.4803223679 0)
(2.729812175 -0.4788121952 0)
(2.749358371 -0.4598273457 0)
(2.765014317 -0.4259540258 0)
(2.767842076 -0.4133790441 0)
(2.770627984 -0.4089534942 0)
(2.788981354 -0.3845233498 0)
(2.802226365 -0.3569118532 0)
(2.805130556 -0.3515815659 0)
(2.807356643 -0.3458957913 0)
(2.824103993 -0.3198430855 0)
(2.836222114 -0.2900637528 0)
(2.843196574 -0.2846341688 0)
(2.845418964 -0.286645966 0)
(2.859165429 -0.2642654912 0)
(2.866521627 -0.2340819464 0)
(2.865735674 -0.225923066 0)
(2.872439537 -0.2206917724 0)
(2.880342444 -0.2218442589 0)
(2.89011808 -0.1879133994 0)
(2.882463157 -0.1471972872 0)
(2.837351519 0.004676312434 0)
(2.723627393 0.2721841179 0)
(2.650713861 0.3622002298 0)
(2.639513089 0.4017413356 0)
(2.637248252 0.4193822424 0)
(2.655331339 -0.5691921461 0)
(2.68180956 -0.5503366958 0)
(2.687802732 -0.5526430948 0)
(2.683204533 -0.5514402818 0)
(2.695630476 -0.5268893104 0)
(2.714806394 -0.4880530311 0)
(2.725292453 -0.4708685073 0)
(2.73412951 -0.4708285904 0)
(2.754616022 -0.4506403992 0)
(2.773291314 -0.4133360872 0)
(2.777723649 -0.3986845048 0)
(2.779894864 -0.3962072679 0)
(2.795877734 -0.3744242618 0)
(2.809094928 -0.345346277 0)
(2.811906314 -0.3383645675 0)
(2.812735299 -0.3340821525 0)
(2.828640309 -0.3092789474 0)
(2.841044385 -0.2795321633 0)
(2.848087866 -0.2744081085 0)
(2.85148709 -0.2765941437 0)
(2.864539982 -0.2550693168 0)
(2.872127267 -0.2222776861 0)
(2.871937136 -0.2134667671 0)
(2.87322895 -0.2136583906 0)
(2.885621648 -0.2052381138 0)
(2.898610706 -0.1887142655 0)
(2.894223801 -0.1538384107 0)
(2.88600588 -0.1076760032 0)
(2.788955938 0.1237721786 0)
(2.698773513 0.3093026709 0)
(2.656357087 0.4403276191 0)
(2.644351137 0.4536193881 0)
(2.655821243 -0.565788234 0)
(2.684110515 -0.5416614239 0)
(2.694300053 -0.5400334493 0)
(2.691936915 -0.5404155537 0)
(2.703434639 -0.5182232104 0)
(2.723261074 -0.4782452496 0)
(2.733585457 -0.4584670174 0)
(2.741108138 -0.4592437017 0)
(2.759192058 -0.4412337197 0)
(2.777958185 -0.403868628 0)
(2.782714365 -0.3887625414 0)
(2.785213019 -0.3870718776 0)
(2.801616632 -0.3655213224 0)
(2.815403321 -0.3348684989 0)
(2.817925861 -0.3266859397 0)
(2.817386756 -0.3241062892 0)
(2.832075311 -0.3006270542 0)
(2.845215513 -0.2694979759 0)
(2.852754491 -0.2631661655 0)
(2.857437564 -0.2647139518 0)
(2.870360793 -0.2445351096 0)
(2.877826393 -0.2115968333 0)
(2.877996837 -0.2004037074 0)
(2.876349241 -0.205452617 0)
(2.886577937 -0.1935264256 0)
(2.89981762 -0.1762742897 0)
(2.90437551 -0.1552308999 0)
(2.901542726 -0.1247291629 0)
(2.870398712 -0.03555261723 0)
(2.792785086 0.1840292035 0)
(2.668579376 0.432737357 0)
(2.639759701 0.4510156735 0)
(2.658524858 -0.561735292 0)
(2.687246278 -0.5333092558 0)
(2.701887024 -0.5252928836 0)
(2.703035205 -0.5256148626 0)
(2.713146684 -0.5062652045 0)
(2.731981154 -0.4673306674 0)
(2.741098314 -0.4475687895 0)
(2.747219526 -0.4493501494 0)
(2.763878177 -0.4319670665 0)
(2.783255779 -0.3933147155 0)
(2.788452166 -0.3766676003 0)
(2.791099277 -0.3757873784 0)
(2.80709545 -0.3556899699 0)
(2.822544009 -0.3229716659 0)
(2.825703753 -0.3122283457 0)
(2.824511448 -0.3106850115 0)
(2.83696244 -0.2891269325 0)
(2.849157985 -0.258723276 0)
(2.856257802 -0.2529692874 0)
(2.860757891 -0.2546177188 0)
(2.875918922 -0.2330354911 0)
(2.884292227 -0.1999367234 0)
(2.884232918 -0.1864304055 0)
(2.883376727 -0.1930731225 0)
(2.885716331 -0.1876186212 0)
(2.904194061 -0.1580284806 0)
(2.906903251 -0.1491909062 0)
(2.912565225 -0.1263334287 0)
(2.907960861 -0.09384340652 0)
(2.875445528 0.02847727899 0)
(2.724307634 0.3246809502 0)
(2.661705438 0.4067544532 0)
(2.663119086 -0.5566019636 0)
(2.690537942 -0.525804775 0)
(2.705494351 -0.5146244507 0)
(2.70817403 -0.5148622549 0)
(2.720330955 -0.495219379 0)
(2.741060247 -0.4550851313 0)
(2.750285945 -0.4338320464 0)
(2.755458036 -0.4365563961 0)
(2.769485909 -0.4214187202 0)
(2.788306102 -0.3830622966 0)
(2.793326724 -0.3653742013 0)
(2.795757085 -0.3653638722 0)
(2.811440953 -0.3464915251 0)
(2.828464372 -0.3123852787 0)
(2.832117561 -0.3000096152 0)
(2.830759383 -0.2992893666 0)
(2.841717129 -0.2790805074 0)
(2.853137236 -0.248608216 0)
(2.859680864 -0.2421490466 0)
(2.86366097 -0.2444633496 0)
(2.879409114 -0.2234396074 0)
(2.889480027 -0.1898792775 0)
(2.889612107 -0.1754204844 0)
(2.89009831 -0.1797546938 0)
(2.888166635 -0.1788213119 0)
(2.905857189 -0.1506474075 0)
(2.914629551 -0.1288823926 0)
(2.916232886 -0.1251982231 0)
(2.922144938 -0.1035768206 0)
(2.91367906 -0.05772888799 0)
(2.816288624 0.1499059646 0)
(2.714386132 0.346224596 0)
(2.669016082 -0.5502470312 0)
(2.695962708 -0.5165241207 0)
(2.711255002 -0.5020083477 0)
(2.71446588 -0.503337677 0)
(2.725576474 -0.4864621787 0)
(2.747493442 -0.4462979276 0)
(2.757358653 -0.4224945784 0)
(2.762783476 -0.4245565092 0)
(2.775802266 -0.4102375462 0)
(2.793966175 -0.3721766833 0)
(2.798463049 -0.3536379155 0)
(2.800316818 -0.3544926186 0)
(2.815032555 -0.3371324725 0)
(2.834602227 -0.3009129972 0)
(2.839776184 -0.2855524895 0)
(2.839066301 -0.2850270797 0)
(2.848691118 -0.2661476083 0)
(2.858209143 -0.2370545545 0)
(2.863346223 -0.2313824601 0)
(2.866449096 -0.2340750978 0)
(2.882775257 -0.2129291111 0)
(2.89526718 -0.1779979595 0)
(2.896485758 -0.1619149487 0)
(2.896482861 -0.166316132 0)
(2.89459463 -0.1680112608 0)
(2.907803659 -0.1440229276 0)
(2.916050308 -0.1172579323 0)
(2.920357735 -0.1128357569 0)
(2.931496746 -0.1071742088 0)
(2.926890213 -0.077293099 0)
(2.89683786 0.00817152267 0)
(2.811355804 0.2279529667 0)
(2.675399745 -0.5432579583 0)
(2.701218901 -0.5088778546 0)
(2.716736768 -0.4901566684 0)
(2.7210334 -0.490337359 0)
(2.732438097 -0.4736095024 0)
(2.755503697 -0.4328558949 0)
(2.765430764 -0.4086189098 0)
(2.770696169 -0.4113733033 0)
(2.782668272 -0.3985946211 0)
(2.800344892 -0.3612197991 0)
(2.804321469 -0.3414102261 0)
(2.805323757 -0.3433516731 0)
(2.817934601 -0.3284547544 0)
(2.839247665 -0.2913266339 0)
(2.84562418 -0.2740075127 0)
(2.845897657 -0.2732775957 0)
(2.85545869 -0.2546786517 0)
(2.86391191 -0.2258027734 0)
(2.867807038 -0.2198910539 0)
(2.86958114 -0.2235806427 0)
(2.884525714 -0.2046749346 0)
(2.899467915 -0.1693350328 0)
(2.902260235 -0.1500516144 0)
(2.902295748 -0.1548275665 0)
(2.901674861 -0.1546000269 0)
(2.912183061 -0.1328191532 0)
(2.919529527 -0.1073582412 0)
(2.924673939 -0.09547395432 0)
(2.932894808 -0.1005214654 0)
(2.940865453 -0.07619805057 0)