/*--------------------------------*- C++ -*----------------------------------*\
  =========                 |
  \\      /  F ield         | OpenFOAM: The Open Source CFD Toolbox
   \\    /   O peration     | Website:  https://openfoam.org
    \\  /    A nd           | Version:  7
     \\/     M anipulation  |
\*---------------------------------------------------------------------------*/
FoamFile
{
    version     2.0;
    format      ascii;
    class       volVectorField;
    location    "1.1";
    object      U;
}
// * * * * * * * * * * * * * * * * * * * * * * * * * * * * * * * * * * * * * //

dimensions      [0 1 -1 0 0 0 0];

internalField   nonuniform List<vector> 
2222
(
(3 -5.687954346e-15 0)
(3 -7.28075688e-15 0)
(3 -5.626886527e-15 0)
(3 -4.252009265e-15 0)
(3 -3.005551403e-15 0)
(3 6.99582655e-16 0)
(3 5.185029223e-16 0)
(3 -1.890074861e-15 0)
(3 -9.819176946e-16 0)
(3 4.151915015e-18 0)
(3 6.128597135e-16 0)
(3 3.401749136e-15 0)
(3 5.606437087e-15 0)
(3 -2.623789631e-15 0)
(3 -1.309037139e-14 0)
(3 -1.565077323e-14 0)
(3 -1.733764925e-14 0)
(3 -1.733605276e-14 0)
(3 -1.53218274e-14 0)
(3 -1.095111708e-14 0)
(3 -5.238921978e-15 0)
(3 -8.981614325e-16 0)
(3 -2.615262623e-15 0)
(3 -4.326334872e-15 0)
(3 -5.864794353e-15 0)
(3 -6.024185531e-15 0)
(3 -5.624042767e-15 0)
(3 -4.583317272e-15 0)
(3 -1.230821817e-15 0)
(3 -1.588337022e-16 0)
(3 2.025435476e-15 0)
(3 3.954310118e-15 0)
(3 6.116035133e-15 0)
(3 9.047097724e-15 0)
(3 5.156813066e-15 0)
(3 5.04076702e-15 0)
(3 7.04836055e-15 0)
(3 8.29966268e-15 0)
(3 1.052609595e-14 0)
(3 9.78689708e-15 0)
(3 7.847720374e-15 0)
(3 6.032883777e-15 0)
(3 4.793058596e-15 0)
(3 3.006580083e-15 0)
(3 3.261153368e-15 0)
(3 5.177241653e-15 0)
(3 6.047688752e-15 0)
(3 -2.002818575e-15 0)
(3 -8.7166606e-15 0)
(3 -1.647187375e-14 0)
(3 -2.105324677e-14 0)
(3 -2.145754284e-14 0)
(3 -1.742931107e-14 0)
(3 -6.832993455e-15 0)
(3 -3.069945598e-15 0)
(3 -6.298592802e-15 0)
(3 -8.081208987e-15 0)
(3 -8.220385982e-15 0)
(3 -6.783643268e-15 0)
(3 -3.782898757e-15 0)
(3 -5.933828812e-15 0)
(3 -8.302346112e-15 0)
(3 -1.648011481e-15 0)
(3 5.690917184e-15 0)
(3 7.892159485e-15 0)
(3 9.252121594e-15 0)
(3 1.105953011e-14 0)
(3 1.073710637e-14 0)
(3 1.365492487e-14 0)
(3 1.466189842e-14 0)
(3 1.65722966e-14 0)
(3 1.59249753e-14 0)
(3 1.473863631e-14 0)
(3 1.60587133e-14 0)
(3 1.686480643e-14 0)
(3 1.642304159e-14 0)
(3 1.475181137e-14 0)
(3 1.21522813e-14 0)
(3 8.740910706e-15 0)
(3 5.284899475e-15 0)
(3 3.345037873e-15 0)
(3 3.580551162e-15 0)
(3 4.587927509e-16 0)
(3 -5.662107215e-15 0)
(3 -1.296529122e-14 0)
(3 -1.581619903e-14 0)
(3 -1.310367703e-14 0)
(3 -7.890552306e-15 0)
(3 -6.814157688e-15 0)
(3 -7.647233282e-15 0)
(3 -9.837911448e-15 0)
(3 -1.133514425e-14 0)
(3 -8.76883362e-15 0)
(3 -4.317643155e-15 0)
(3 -3.083621708e-15 0)
(3 -1.823342087e-15 0)
(3 1.466705934e-15 0)
(3 9.667480387e-15 0)
(3 1.502835733e-14 0)
(3 1.473907975e-14 0)
(3 1.16867621e-14 0)
(3 7.970584787e-15 0)
(3 1.141357866e-14 0)
(3 1.696182764e-14 0)
(3 1.894143278e-14 0)
(3 1.917862167e-14 0)
(3 1.851278819e-14 0)
(3 1.5886094e-14 0)
(3 1.551046675e-14 0)
(3 1.437053648e-14 0)
(3 1.377078046e-14 0)
(3 1.181938707e-14 0)
(3 1.057154684e-14 0)
(3 5.350428139e-15 0)
(3 5.550107081e-15 0)
(3 4.357318305e-15 0)
(3 5.746510912e-15 0)
(3 4.725112543e-15 0)
(3 -1.247724145e-15 0)
(3 -6.598194983e-15 0)
(3 -7.78120786e-15 0)
(3 -8.24504515e-15 0)
(3 -8.749593133e-15 0)
(3 -9.006967779e-15 0)
(3 -7.921862187e-15 0)
(3 -7.156950672e-15 0)
(3 -4.749834681e-15 0)
(3 -5.261969885e-16 0)
(3 1.319679916e-15 0)
(3 6.1339577e-15 0)
(3 9.513233288e-15 0)
(3 1.166212991e-14 0)
(3 1.375281503e-14 0)
(3 1.157553995e-14 0)
(3 4.369848055e-15 0)
(3 -2.054334778e-16 0)
(3 2.479842874e-15 0)
(3 5.059604709e-15 0)
(3 9.09042521e-15 0)
(3 1.00685848e-14 0)
(3 9.712747324e-15 0)
(3 6.343459247e-15 0)
(3 4.776901519e-15 0)
(3 4.203371023e-15 0)
(3 2.772974619e-15 0)
(3 4.83658691e-15 0)
(3 7.327737845e-15 0)
(3 1.194126136e-14 0)
(3 1.645723144e-14 0)
(3 1.469485052e-14 0)
(3 1.56186125e-14 0)
(3 1.392229029e-14 0)
(3 1.325669345e-14 0)
(3 4.310539622e-15 0)
(3 -3.219728374e-15 0)
(3 -5.438728961e-15 0)
(3 -3.52596527e-15 0)
(3 -2.8598765e-15 0)
(3 -4.142483773e-16 0)
(3 2.335048619e-15 0)
(3 3.725956278e-15 0)
(3 4.610188182e-15 0)
(3 5.03226375e-15 0)
(3 7.377445497e-15 0)
(3 8.319555023e-15 0)
(3 9.863870407e-15 0)
(3 1.172939746e-14 0)
(3 9.533601074e-15 0)
(3 1.976391616e-15 0)
(3 1.50071674e-15 0)
(3 -6.492415794e-15 0)
(3 -3.472362134e-15 0)
(3 -6.335628707e-16 0)
(3 3.217827794e-15 0)
(3 4.420861518e-15 0)
(3 4.510379573e-15 0)
(3 3.528336385e-15 0)
(3 3.725015048e-15 0)
(3 3.321564955e-15 0)
(3 6.018181658e-15 0)
(3 1.120001945e-14 0)
(3 1.786717745e-14 0)
(3 1.962222025e-14 0)
(3 1.870217153e-14 0)
(3 1.755553672e-14 0)
(3 1.975565195e-14 0)
(3 2.226643966e-14 0)
(3 1.892132667e-14 0)
(3 1.328048122e-14 0)
(3 6.153746225e-15 0)
(3 4.038260235e-15 0)
(3 6.814791508e-15 0)
(3 1.123403997e-14 0)
(3 1.241901024e-14 0)
(3 1.219209805e-14 0)
(3 1.090541009e-14 0)
(3 1.111891019e-14 0)
(3 1.1064268e-14 0)
(3 5.32543322e-15 0)
(3 2.65358395e-15 0)
(3 8.313929913e-16 0)
(3 -1.584500586e-17 0)
(3 4.898124123e-16 0)
(3 6.660074469e-16 0)
(3 -7.041882368e-15 0)
(3 -5.692684497e-15 0)
(3 -4.279956305e-15 0)
(3 8.310410373e-16 0)
(3 3.021875209e-15 0)
(3 4.079894173e-15 0)
(3 4.854567149e-15 0)
(3 5.925802969e-15 0)
(3 8.189352359e-15 0)
(3 1.161188886e-14 0)
(3 1.504065972e-14 0)
(3 1.279556481e-14 0)
(3 1.28767788e-14 0)
(3 1.383200124e-14 0)
(3 1.571332793e-14 0)
(3 1.827761755e-14 0)
(3 2.278225413e-14 0)
(3 2.406242459e-14 0)
(3 2.235110044e-14 0)
(3 1.308002686e-14 0)
(3 8.437943415e-15 0)
(3 5.811267258e-15 0)
(3 6.430811147e-15 0)
(3 9.205746508e-15 0)
(3 1.136066441e-14 0)
(3 9.676756468e-15 0)
(3 7.902710686e-15 0)
(3 8.363507151e-15 0)
(3 4.054909934e-15 0)
(3 -1.719192425e-15 0)
(3 -4.594476248e-15 0)
(3 -2.11431749e-15 0)
(3 2.391719706e-15 0)
(3 3.970153962e-15 0)
(3 -4.830406123e-15 0)
(3 -1.910247277e-15 0)
(3 -2.138779921e-15 0)
(3 -6.676168544e-15 0)
(3 -9.690662539e-15 0)
(3 -6.385513165e-15 0)
(3 3.890226106e-16 0)
(3 2.922836142e-15 0)
(3 6.665577262e-15 0)
(3 7.683887249e-15 0)
(3 7.711571798e-15 0)
(3 6.15554492e-15 0)
(3 6.361276098e-15 0)
(3 1.031008231e-14 0)
(3 1.328646845e-14 0)
(3 1.535900059e-14 0)
(3 1.742713553e-14 0)
(3 1.916240242e-14 0)
(3 1.975550815e-14 0)
(3 1.432579771e-14 0)
(3 5.859493816e-15 0)
(3 -1.07824195e-15 0)
(3 -1.153180926e-15 0)
(3 3.343875632e-16 0)
(3 2.229636883e-15 0)
(3 1.681527267e-15 0)
(3 -3.410583851e-15 0)
(3 -4.499873991e-15 0)
(3 -2.632820659e-15 0)
(3 -3.021739783e-15 0)
(3 -2.603016624e-15 0)
(3 7.693370147e-16 0)
(3 2.014208798e-15 0)
(3 7.635670642e-16 0)
(3 1.867503484e-16 0)
(3 -3.852965291e-15 0)
(3 -4.93885118e-15 0)
(3 -5.401303932e-15 0)
(3 -4.689236191e-15 0)
(3 -1.937505385e-15 0)
(3 -1.336645295e-15 0)
(3 -3.887362171e-16 0)
(3 3.601979e-15 0)
(3 8.730405229e-15 0)
(3 9.248958623e-15 0)
(3 5.364031608e-15 0)
(3 5.677187577e-15 0)
(3 9.888764804e-15 0)
(3 1.443849926e-14 0)
(3 1.52872044e-14 0)
(3 1.519969927e-14 0)
(3 1.669439565e-14 0)
(3 1.542237717e-14 0)
(3 8.21763293e-15 0)
(3 4.274336915e-15 0)
(3 2.330988529e-15 0)
(3 6.662439237e-16 0)
(3 8.165600734e-16 0)
(3 2.359998764e-15 0)
(3 4.525327333e-15 0)
(3 3.393014869e-15 0)
(3 1.458207225e-15 0)
(3 6.644754821e-16 0)
(3 1.149244512e-15 0)
(3 1.618181678e-15 0)
(3 3.039088885e-16 0)
(3 -7.827737706e-16 0)
(3 -2.028745601e-15 0)
(3 4.03619293e-15 0)
(3 -1.034947448e-15 0)
(3 -4.288343662e-15 0)
(3 -3.469911586e-15 0)
(3 -9.510830622e-16 0)
(3 -1.867154826e-15 0)
(3 -2.240269453e-15 0)
(3 -7.922589965e-16 0)
(3 2.183030679e-15 0)
(3 7.04272955e-15 0)
(3 8.348849862e-15 0)
(3 5.623199754e-15 0)
(3 5.673589375e-15 0)
(3 6.508761767e-15 0)
(3 6.898963349e-15 0)
(3 1.270956976e-14 0)
(3 1.578700802e-14 0)
(3 2.074966401e-14 0)
(3 2.067774892e-14 0)
(3 1.902435195e-14 0)
(3 1.635221874e-14 0)
(3 1.309134843e-14 0)
(3 9.236806611e-15 0)
(3 7.519393987e-15 0)
(3 5.316405826e-15 0)
(3 5.877419789e-15 0)
(3 7.001412857e-15 0)
(3 8.70609346e-15 0)
(3 8.493237782e-15 0)
(3 7.688012554e-15 0)
(3 6.210768034e-15 0)
(3 2.824423118e-15 0)
(3 2.335040521e-15 0)
(3 1.057825588e-15 0)
(3 8.17663214e-15 0)
(3 7.678072817e-15 0)
(3 1.292297442e-15 0)
(3 -6.065809643e-15 0)
(3 -7.379258355e-15 0)
(3 -4.256336693e-15 0)
(3 1.159580165e-15 0)
(3 3.86421455e-15 0)
(3 3.779365795e-15 0)
(3 2.474152674e-15 0)
(3 -1.758064257e-15 0)
(3 5.062259524e-15 0)
(3 4.126373024e-15 0)
(3 2.619114002e-15 0)
(3 4.541374844e-15 0)
(3 9.982905056e-15 0)
(3 1.799759413e-14 0)
(3 2.689707864e-14 0)
(3 2.810737675e-14 0)
(3 2.510390774e-14 0)
(3 2.052552095e-14 0)
(3 1.465535115e-14 0)
(3 1.203690573e-14 0)
(3 1.078732274e-14 0)
(3 1.050288754e-14 0)
(3 1.118567254e-14 0)
(3 1.149651216e-14 0)
(3 1.023951134e-14 0)
(3 8.393640216e-15 0)
(3 5.983465785e-15 0)
(3 3.130237e-15 0)
(3 -3.736711237e-16 0)
(3 -1.488794904e-15 0)
(3 1.022572798e-15 0)
(3 -2.472946072e-15 0)
(3 -1.883828598e-15 0)
(3 8.366628411e-16 0)
(3 8.410250958e-16 0)
(3 -1.075355282e-15 0)
(3 -2.504296004e-16 0)
(3 1.213615594e-15 0)
(3 4.763288183e-16 0)
(3 -8.330566319e-16 0)
(3 -3.866244569e-16 0)
(3 2.223656542e-15 0)
(3 8.343502843e-15 0)
(3 1.115376013e-14 0)
(3 1.215141075e-14 0)
(3 1.280781657e-14 0)
(3 1.694990291e-14 0)
(3 2.264701345e-14 0)
(3 2.632766994e-14 0)
(3 2.538982566e-14 0)
(3 2.347368352e-14 0)
(3 1.836171343e-14 0)
(3 1.530206628e-14 0)
(3 1.143602206e-14 0)
(3 1.028216534e-14 0)
(3 1.092404508e-14 0)
(3 9.536833102e-15 0)
(3 8.493106695e-15 0)
(3 5.458144232e-15 0)
(3 3.06910493e-15 0)
(3 1.428207501e-15 0)
(3 -1.888775166e-15 0)
(3 -3.62150169e-15 0)
(3 -2.494893857e-15 0)
(3 3.103862162e-16 0)
(3 -3.441653705e-15 0)
(3 -7.783166643e-16 0)
(3 3.783872411e-15 0)
(3 5.185911839e-15 0)
(3 6.027966027e-15 0)
(3 7.289227361e-15 0)
(3 7.267160728e-15 0)
(3 6.822119725e-15 0)
(3 6.700705601e-15 0)
(3 9.324762606e-15 0)
(3 1.13806332e-14 0)
(3 9.758442406e-15 0)
(3 6.717619852e-15 0)
(3 4.48105022e-15 0)
(3 2.93860761e-15 0)
(3 4.270872481e-15 0)
(3 4.09539474e-15 0)
(3 6.501241574e-15 0)
(3 5.56986047e-15 0)
(3 8.663242442e-15 0)
(3 1.229661813e-14 0)
(3 1.3291734e-14 0)
(3 1.362975774e-14 0)
(3 1.459192614e-14 0)
(3 1.288511774e-14 0)
(3 9.46268569e-15 0)
(3 6.289831276e-15 0)
(3 6.595011079e-15 0)
(3 6.415529435e-15 0)
(3 3.895519711e-16 0)
(3 -6.203433164e-16 0)
(3 -1.971321459e-15 0)
(3 -2.252283722e-15 0)
(3 -2.740989901e-15 0)
(3 1.05939892e-15 0)
(3 7.774419998e-15 0)
(3 6.353226927e-15 0)
(3 6.859779083e-15 0)
(3 1.038364265e-14 0)
(3 1.372167401e-14 0)
(3 1.4402727e-14 0)
(3 1.5777125e-14 0)
(3 1.399806229e-14 0)
(3 9.994853045e-15 0)
(3 5.77836246e-15 0)
(3 1.839796624e-15 0)
(3 4.702415108e-16 0)
(3 -9.177787206e-16 0)
(3 1.589061039e-15 0)
(3 2.779904167e-15 0)
(3 1.015551799e-15 0)
(3 1.954561495e-15 0)
(3 3.144929443e-15 0)
(3 8.300556224e-15 0)
(3 1.03913371e-14 0)
(3 1.070429394e-14 0)
(3 1.234553943e-14 0)
(3 1.07878033e-14 0)
(3 6.951417993e-15 0)
(3 4.405124614e-15 0)
(3 3.341992316e-15 0)
(3 3.042787992e-15 0)
(3 2.195483346e-15 0)
(3 1.427005635e-15 0)
(3 1.649230494e-15 0)
(3 2.772094336e-15 0)
(3 2.974390132e-15 0)
(3 2.990644355e-15 0)
(3 2.948605526e-15 0)
(3 2.665243302e-15 0)
(3 4.151894432e-15 0)
(3 7.259442142e-15 0)
(3 1.347899259e-14 0)
(3 2.090516624e-14 0)
(3 2.331085724e-14 0)
(3 2.22587877e-14 0)
(3 1.886643922e-14 0)
(3 1.398615907e-14 0)
(3 7.413657079e-15 0)
(3 2.529201545e-15 0)
(3 1.866544122e-15 0)
(3 -5.203994789e-16 0)
(3 4.503189582e-17 0)
(3 1.127737435e-15 0)
(3 6.430243237e-16 0)
(3 -2.451169511e-15 0)
(3 -2.06422396e-16 0)
(3 7.535723129e-16 0)
(3 1.322808707e-15 0)
(3 1.904013127e-15 0)
(3 2.739784124e-15 0)
(3 8.634907134e-16 0)
(3 -7.806370223e-16 0)
(3 -1.172964555e-15 0)
(3 -3.577832387e-16 0)
(3 2.333185104e-16 0)
(3 -1.294313402e-15 0)
(3 -7.944633447e-16 0)
(3 -7.622598845e-16 0)
(3 -1.197330917e-16 0)
(3 2.248205413e-15 0)
(3 4.00386071e-15 0)
(3 4.207310511e-15 0)
(3 1.338627706e-15 0)
(3 2.118917858e-15 0)
(3 8.171567773e-15 0)
(3 1.188495419e-14 0)
(3 1.463345837e-14 0)
(3 1.394844934e-14 0)
(3 1.07880639e-14 0)
(3 1.035494179e-14 0)
(3 1.197628462e-14 0)
(3 9.54120363e-15 0)
(3 2.909590144e-15 0)
(3 -8.256839106e-16 0)
(3 -2.8748015e-15 0)
(3 -7.245604784e-15 0)
(3 -8.036784898e-15 0)
(3 -6.01227222e-15 0)
(3 -6.70458266e-15 0)
(3 -7.406659618e-15 0)
(3 -9.142642044e-15 0)
(3 -6.951557205e-15 0)
(3 -3.937316625e-15 0)
(3 -5.169072908e-15 0)
(3 -7.61523867e-15 0)
(3 -7.886015663e-15 0)
(3 -5.202247603e-15 0)
(3 -1.717808999e-15 0)
(3 5.334673252e-16 0)
(3 -2.78961472e-15 0)
(3 -8.507349823e-15 0)
(3 -9.783536733e-15 0)
(3 -1.054546412e-14 0)
(3 -7.823708952e-15 0)
(3 -5.181840535e-15 0)
(3 1.11464976e-14 0)
(3 1.078058196e-14 0)
(3 8.161883603e-15 0)
(3 5.673216933e-15 0)
(3 4.62561568e-15 0)
(3 4.806030793e-15 0)
(3 1.313500127e-16 0)
(3 -3.345539707e-16 0)
(3 3.234990042e-16 0)
(3 -9.753796297e-16 0)
(3 -3.029425407e-15 0)
(3 -1.582886812e-15 0)
(3 -5.493290094e-16 0)
(3 9.130816224e-16 0)
(3 1.155094997e-15 0)
(3 -1.148158964e-15 0)
(3 -3.13558982e-15 0)
(3 -3.56952512e-15 0)
(3 -7.960641317e-15 0)
(3 -1.087269307e-14 0)
(3 -8.78005092e-15 0)
(3 -5.715334564e-15 0)
(3 -4.434533928e-15 0)
(3 -4.066689576e-15 0)
(3 -3.52452547e-15 0)
(3 -3.91156182e-15 0)
(3 -4.052477541e-15 0)
(3 -5.131197488e-15 0)
(3 -8.213327628e-15 0)
(3 -1.292128175e-14 0)
(3 -1.283779102e-14 0)
(3 -8.928332488e-15 0)
(3 -8.032503269e-15 0)
(3 -6.149919846e-15 0)
(3 2.132298833e-14 0)
(3 2.130702728e-14 0)
(3 1.894089428e-14 0)
(3 1.361009461e-14 0)
(3 2.775958241e-15 0)
(3 -4.842880137e-15 0)
(3 -7.942360712e-15 0)
(3 -7.436916227e-15 0)
(3 -7.565970183e-15 0)
(3 -7.418098036e-15 0)
(3 -2.583118098e-15 0)
(3 1.875308047e-16 0)
(3 4.214041839e-15 0)
(3 5.032728914e-15 0)
(3 2.421155672e-15 0)
(3 -1.271040641e-17 0)
(3 -2.83407632e-15 0)
(3 -6.809871725e-15 0)
(3 -1.253817396e-14 0)
(3 -1.299130853e-14 0)
(3 -1.168359252e-14 0)
(3 -9.059004281e-15 0)
(3 -3.82291728e-15 0)
(3 1.272408391e-15 0)
(3 7.774349968e-16 0)
(3 -2.839738827e-15 0)
(3 -5.659634135e-15 0)
(3 -9.88815758e-15 0)
(3 -9.012259924e-15 0)
(3 -7.278868964e-15 0)
(3 -8.535777173e-15 0)
(3 -6.710757933e-15 0)
(3 -6.944955286e-15 0)
(3 -5.28683944e-15 0)
(3 2.254013077e-14 0)
(3 2.365345019e-14 0)
(3 2.163607105e-14 0)
(3 1.451050846e-14 0)
(3 5.395507635e-15 0)
(3 -6.290096277e-17 0)
(3 -1.415808711e-15 0)
(3 -4.017538251e-15 0)
(3 -7.932210513e-15 0)
(3 -1.101497788e-14 0)
(3 -1.037039228e-14 0)
(3 -1.072356111e-14 0)
(3 -7.232643218e-15 0)
(3 -8.108409827e-15 0)
(3 -8.76676736e-15 0)
(3 -8.658258582e-15 0)
(3 -9.966576659e-15 0)
(3 -1.074471366e-14 0)
(3 -8.296266934e-15 0)
(3 -6.057248608e-15 0)
(3 -4.351280146e-15 0)
(3 -4.6165075e-15 0)
(3 -1.328941725e-15 0)
(3 7.977096941e-16 0)
(3 -4.495244705e-18 0)
(3 -3.455300911e-15 0)
(3 -5.628525517e-15 0)
(3 -7.568095766e-15 0)
(3 -6.344889733e-15 0)
(3 -1.880094303e-15 0)
(3 -1.860272305e-15 0)
(3 5.360216455e-17 0)
(3 -1.033134326e-15 0)
(3 -1.956479354e-15 0)
(3 3.956703067e-17 0)
(3 6.187616897e-15 0)
(3 8.386110696e-15 0)
(3 6.096480394e-15 0)
(3 3.461968747e-15 0)
(3 5.834967669e-17 0)
(3 -1.134066369e-15 0)
(3 -3.261257527e-15 0)
(3 -4.366759325e-15 0)
(3 -9.244016507e-15 0)
(3 -1.441866838e-14 0)
(3 -1.726737178e-14 0)
(3 -1.805135402e-14 0)
(3 -1.623109388e-14 0)
(3 -1.137830574e-14 0)
(3 -6.949461963e-15 0)
(3 -5.148159154e-15 0)
(3 -5.242022894e-15 0)
(3 -3.447511259e-15 0)
(3 -6.743832047e-16 0)
(3 7.338605328e-16 0)
(3 1.046321193e-15 0)
(3 1.3990182e-15 0)
(3 2.274755948e-15 0)
(3 3.167672845e-15 0)
(3 3.437990976e-15 0)
(3 1.481778984e-15 0)
(3 4.663536164e-16 0)
(3 8.123131708e-17 0)
(3 1.348410482e-15 0)
(3 1.895976103e-15 0)
(3 4.230610952e-15 0)
(3 5.660609954e-15 0)
(3 2.372481775e-15 0)
(3 -1.10698238e-14 0)
(3 -9.740516145e-15 0)
(3 -6.022629964e-15 0)
(3 -9.694265183e-16 0)
(3 -1.118298835e-15 0)
(3 -1.784702414e-15 0)
(3 -3.848826225e-15 0)
(3 -5.328103974e-15 0)
(3 -5.896826949e-15 0)
(3 -7.99412333e-15 0)
(3 -1.092457054e-14 0)
(3 -1.080505268e-14 0)
(3 -9.322569549e-15 0)
(3 -4.47241075e-15 0)
(3 3.383645911e-16 0)
(3 6.029756201e-15 0)
(3 1.078962762e-14 0)
(3 1.044071251e-14 0)
(3 8.819552813e-15 0)
(3 6.583214938e-15 0)
(3 6.123014254e-15 0)
(3 6.394453865e-15 0)
(3 7.740323223e-15 0)
(3 9.457015092e-15 0)
(3 1.154091571e-14 0)
(3 1.478413723e-14 0)
(3 1.411528622e-14 0)
(3 1.415333268e-14 0)
(3 1.185780222e-14 0)
(3 1.122391313e-14 0)
(3 1.017230909e-14 0)
(3 6.02520078e-15 0)
(3 8.714177706e-16 0)
(3 -8.130595906e-15 0)
(3 -2.253676776e-14 0)
(3 -2.148302751e-14 0)
(3 -1.910999864e-14 0)
(3 -1.353225112e-14 0)
(3 -9.155055031e-15 0)
(3 -9.358981365e-15 0)
(3 -9.770662213e-15 0)
(3 -8.799734355e-15 0)
(3 -6.604053681e-15 0)
(3 -5.853495914e-15 0)
(3 -3.312425487e-15 0)
(3 -3.793657333e-15 0)
(3 -2.278501174e-15 0)
(3 7.70567193e-16 0)
(3 2.000466913e-15 0)
(3 5.657957174e-15 0)
(3 8.884050943e-15 0)
(3 1.035255993e-14 0)
(3 1.131978306e-14 0)
(3 7.832644123e-15 0)
(3 6.884757431e-15 0)
(3 7.774578041e-15 0)
(3 9.03321673e-15 0)
(3 8.841194207e-15 0)
(3 9.931160543e-15 0)
(3 1.376673466e-14 0)
(3 1.876935505e-14 0)
(3 1.962274835e-14 0)
(3 1.92254674e-14 0)
(3 1.453503168e-14 0)
(3 1.206471728e-14 0)
(3 6.657223704e-15 0)
(3 2.483893566e-16 0)
(3 -4.159461793e-15 0)
(3 -1.834367318e-14 0)
(3 -1.844959532e-14 0)
(3 -1.601011257e-14 0)
(3 -1.469028721e-14 0)
(3 -1.246768978e-14 0)
(3 -1.327596818e-14 0)
(3 -1.309220419e-14 0)
(3 -1.169452062e-14 0)
(3 -8.117536291e-15 0)
(3 -4.631480502e-15 0)
(3 -1.319170586e-15 0)
(3 3.067483699e-15 0)
(3 3.783063406e-15 0)
(3 4.537487443e-15 0)
(3 3.381388273e-15 0)
(3 3.680265012e-15 0)
(3 2.91353183e-15 0)
(3 4.998090596e-15 0)
(3 5.770852364e-15 0)
(3 6.594905318e-15 0)
(3 6.208840688e-15 0)
(3 7.44147993e-15 0)
(3 9.327426822e-15 0)
(3 1.006692918e-14 0)
(3 1.058822703e-14 0)
(3 1.326092042e-14 0)
(3 1.496648431e-14 0)
(3 1.675594384e-14 0)
(3 1.850483881e-14 0)
(3 1.64590013e-14 0)
(3 1.262760947e-14 0)
(3 9.05852072e-15 0)
(3 7.37025347e-15 0)
(3 5.358984492e-15 0)
(3 -1.002347858e-14 0)
(3 -1.055896911e-14 0)
(3 -1.027871096e-14 0)
(3 -1.00149969e-14 0)
(3 -1.179541381e-14 0)
(3 -9.417302544e-15 0)
(3 -9.558822775e-15 0)
(3 -8.191877709e-15 0)
(3 -3.548676234e-15 0)
(3 2.738404816e-15 0)
(3 4.166797792e-15 0)
(3 6.268431056e-15 0)
(3 8.665703251e-15 0)
(3 8.347007975e-15 0)
(3 6.54792904e-15 0)
(3 2.368473002e-15 0)
(3 2.197538562e-15 0)
(3 4.450380553e-15 0)
(3 5.685390004e-15 0)
(3 8.49229667e-15 0)
(3 1.031200131e-14 0)
(3 9.517045656e-15 0)
(3 9.394655406e-15 0)
(3 1.136987395e-14 0)
(3 1.317808917e-14 0)
(3 1.230067238e-14 0)
(3 1.287239784e-14 0)
(3 1.50766532e-14 0)
(3 1.573502181e-14 0)
(3 1.546411489e-14 0)
(3 1.684903199e-14 0)
(3 1.344667187e-14 0)
(3 1.094235917e-14 0)
(3 9.491752318e-15 0)
(3 -8.054752121e-15 0)
(3 -9.367277338e-15 0)
(3 -1.207507947e-14 0)
(3 -1.062090311e-14 0)
(3 -9.251129737e-15 0)
(3 -4.687574574e-15 0)
(3 -2.886349217e-15 0)
(3 9.620573595e-16 0)
(3 7.796794067e-15 0)
(3 1.012775808e-14 0)
(3 1.347285607e-14 0)
(3 1.213769527e-14 0)
(3 1.123173454e-14 0)
(3 1.001995827e-14 0)
(3 6.687516099e-15 0)
(3 4.638612626e-15 0)
(3 5.451309964e-15 0)
(3 5.977176126e-15 0)
(3 8.493403e-15 0)
(3 1.047590949e-14 0)
(3 1.006962995e-14 0)
(3 8.746664362e-15 0)
(3 6.308007094e-15 0)
(3 5.982330858e-15 0)
(3 6.523348532e-15 0)
(3 8.382576532e-15 0)
(3 9.486843972e-15 0)
(3 1.071854127e-14 0)
(3 1.148022296e-14 0)
(3 1.262580769e-14 0)
(3 1.604117554e-14 0)
(3 1.357079198e-14 0)
(3 7.280929158e-15 0)
(3 6.34209953e-15 0)
(3 -5.136589523e-15 0)
(3 -7.631773775e-15 0)
(3 -9.306028215e-15 0)
(3 -1.005089803e-14 0)
(3 -9.498325194e-15 0)
(3 -6.234302305e-15 0)
(3 -2.075186143e-15 0)
(3 4.178050392e-16 0)
(3 1.780455824e-15 0)
(3 -2.395111861e-16 0)
(3 1.271961743e-15 0)
(3 2.075690515e-15 0)
(3 9.7798974e-16 0)
(3 1.276878446e-16 0)
(3 -1.01430771e-15 0)
(3 -2.799666915e-16 0)
(3 -1.642397482e-15 0)
(3 -8.962503196e-16 0)
(3 8.48352515e-16 0)
(3 3.476717147e-15 0)
(3 2.685048533e-15 0)
(3 2.086748802e-15 0)
(3 3.632956478e-16 0)
(3 1.337864593e-15 0)
(3 2.810498834e-15 0)
(3 3.944334682e-15 0)
(3 3.376792958e-15 0)
(3 4.148296065e-15 0)
(3 5.937010624e-15 0)
(3 9.768976776e-15 0)
(3 1.035030404e-14 0)
(3 1.316409411e-14 0)
(3 1.380875375e-14 0)
(3 1.308083998e-14 0)
(3 -3.084768749e-15 0)
(3 -6.917895116e-15 0)
(3 -1.158073412e-14 0)
(3 -1.335266087e-14 0)
(3 -1.337372834e-14 0)
(3 -1.078137829e-14 0)
(3 -8.266237222e-15 0)
(3 -8.192339619e-15 0)
(3 -9.873697784e-15 0)
(3 -1.361072525e-14 0)
(3 -1.425232619e-14 0)
(3 -1.51436524e-14 0)
(3 -1.719872996e-14 0)
(3 -1.721340532e-14 0)
(3 -1.681282237e-14 0)
(3 -1.513284688e-14 0)
(3 -1.023492603e-14 0)
(3 -6.786958222e-15 0)
(3 -3.284112112e-15 0)
(3 5.514497639e-16 0)
(3 3.310653327e-15 0)
(3 3.183485743e-15 0)
(3 3.313119276e-15 0)
(3 3.940451386e-15 0)
(3 4.806279821e-15 0)
(3 5.786185309e-15 0)
(3 5.862239337e-15 0)
(3 6.897294628e-15 0)
(3 8.132011747e-15 0)
(3 1.158529896e-14 0)
(3 1.238294937e-14 0)
(3 1.581573746e-14 0)
(3 2.102177993e-14 0)
(3 2.230589683e-14 0)
(3 -7.13038156e-15 0)
(3 -9.43872706e-15 0)
(3 -1.139615976e-14 0)
(3 -1.147026183e-14 0)
(3 -1.204176034e-14 0)
(3 -1.357087131e-14 0)
(3 -1.544265871e-14 0)
(3 -1.818990373e-14 0)
(3 -1.472015697e-14 0)
(3 -1.546605119e-14 0)
(3 -2.171146165e-14 0)
(3 -2.417885782e-14 0)
(3 -2.531550507e-14 0)
(3 -2.60119223e-14 0)
(3 -2.456675982e-14 0)
(3 -1.91103315e-14 0)
(3 -1.254759395e-14 0)
(3 -5.757147593e-15 0)
(3 -4.577316799e-16 0)
(3 2.375968201e-15 0)
(3 6.741951064e-15 0)
(3 7.158619147e-15 0)
(3 7.358683535e-15 0)
(3 7.782775998e-15 0)
(3 9.058049317e-15 0)
(3 1.269418359e-14 0)
(3 1.427556843e-14 0)
(3 1.601634282e-14 0)
(3 1.665757122e-14 0)
(3 1.592214952e-14 0)
(3 1.744685245e-14 0)
(3 1.644694534e-14 0)
(3 1.333537393e-14 0)
(3 1.529568745e-14 0)
(3 -1.1218869e-14 0)
(3 -1.270400258e-14 0)
(3 -1.297109817e-14 0)
(3 -1.262264511e-14 0)
(3 -1.268501838e-14 0)
(3 -1.484981631e-14 0)
(3 -1.661446563e-14 0)
(3 -2.121912235e-14 0)
(3 -1.793249074e-14 0)
(3 -1.431310852e-14 0)
(3 -1.627430897e-14 0)
(3 -1.900724436e-14 0)
(3 -2.090978673e-14 0)
(3 -2.082341204e-14 0)
(3 -1.792558054e-14 0)
(3 -9.537362426e-15 0)
(3 -4.681901472e-15 0)
(3 -1.24135937e-15 0)
(3 1.201054128e-15 0)
(3 3.114756257e-15 0)
(3 2.888502728e-15 0)
(3 4.542157496e-15 0)
(3 6.228709142e-15 0)
(3 9.058678145e-15 0)
(3 1.090137463e-14 0)
(3 1.336562999e-14 0)
(3 1.546929669e-14 0)
(3 1.433096599e-14 0)
(3 1.3584445e-14 0)
(3 1.198426877e-14 0)
(3 1.145882515e-14 0)
(3 9.739343528e-15 0)
(3 8.011956164e-15 0)
(3 1.247115657e-14 0)
(3 -1.663494267e-14 0)
(3 -1.98203145e-14 0)
(3 -2.208734868e-14 0)
(3 -2.150865474e-14 0)
(3 -1.813179161e-14 0)
(3 -1.625198536e-14 0)
(3 -1.635962195e-14 0)
(3 -2.000241081e-14 0)
(3 -2.099429667e-14 0)
(3 -1.829270587e-14 0)
(3 -1.851368012e-14 0)
(3 -1.752234223e-14 0)
(3 -1.616731345e-14 0)
(3 -1.67685444e-14 0)
(3 -1.480578495e-14 0)
(3 -1.023348125e-14 0)
(3 -5.691050087e-15 0)
(3 1.465230472e-15 0)
(3 1.879655665e-15 0)
(3 2.429254166e-15 0)
(3 1.178022977e-15 0)
(3 1.830540484e-15 0)
(3 6.014682536e-15 0)
(3 1.030909148e-14 0)
(3 1.4254804e-14 0)
(3 1.420168052e-14 0)
(3 1.322027615e-14 0)
(3 8.66367933e-15 0)
(3 4.732164139e-15 0)
(3 1.136206493e-15 0)
(3 1.319780814e-15 0)
(3 1.472670772e-16 0)
(3 1.043104774e-16 0)
(3 2.572384594e-15 0)
(3 -1.593801122e-14 0)
(3 -1.559166533e-14 0)
(3 -1.840023161e-14 0)
(3 -1.930060281e-14 0)
(3 -2.13725812e-14 0)
(3 -2.012371763e-14 0)
(3 -2.051682957e-14 0)
(3 -1.90787589e-14 0)
(3 -2.174100426e-14 0)
(3 -2.028854426e-14 0)
(3 -1.496228591e-14 0)
(3 -9.226773474e-15 0)
(3 -6.849220929e-15 0)
(3 -5.857151181e-15 0)
(3 -6.582385799e-15 0)
(3 -7.545563592e-15 0)
(3 -4.247522491e-15 0)
(3 1.111351853e-15 0)
(3 6.083348705e-15 0)
(3 5.479607131e-15 0)
(3 5.353936424e-15 0)
(3 3.588723364e-15 0)
(3 4.614246036e-15 0)
(3 6.854154834e-15 0)
(3 8.368637933e-15 0)
(3 8.268127304e-15 0)
(3 4.264805118e-15 0)
(3 9.005118725e-16 0)
(3 -3.115846907e-16 0)
(3 -3.529474624e-15 0)
(3 -6.293844712e-15 0)
(3 -8.858242837e-15 0)
(3 -7.340055031e-15 0)
(3 -4.070448575e-15 0)
(3 -8.133707145e-15 0)
(3 -9.634061963e-15 0)
(3 -1.144432001e-14 0)
(3 -1.468165511e-14 0)
(3 -1.76609831e-14 0)
(3 -1.632247917e-14 0)
(3 -1.391877139e-14 0)
(3 -1.180689643e-14 0)
(3 -1.220656092e-14 0)
(3 -9.748434985e-15 0)
(3 -7.127600191e-15 0)
(3 -4.591866699e-15 0)
(3 -5.773534766e-16 0)
(3 2.196687132e-15 0)
(3 2.841366918e-15 0)
(3 -8.600122067e-16 0)
(3 -2.131087467e-15 0)
(3 -1.506647351e-15 0)
(3 -1.11516073e-16 0)
(3 6.474155236e-16 0)
(3 -1.676190407e-16 0)
(3 -2.058521278e-16 0)
(3 -3.579136031e-16 0)
(3 3.10365343e-16 0)
(3 -3.036413525e-15 0)
(3 -2.346288597e-15 0)
(3 -1.980228349e-15 0)
(3 -3.532944754e-15 0)
(3 -5.759232334e-15 0)
(3 -9.403012395e-15 0)
(3 -9.292310792e-15 0)
(3 -8.406872999e-15 0)
(3 -4.952388977e-15 0)
(3 -4.453858838e-15 0)
(3 -5.969317647e-15 0)
(3 -7.215628744e-15 0)
(3 -7.987131813e-15 0)
(3 -8.409226325e-15 0)
(3 -6.951808987e-15 0)
(3 -9.002388986e-15 0)
(3 -4.392670598e-15 0)
(3 -1.587378181e-15 0)
(3 1.242811697e-15 0)
(3 2.049880376e-15 0)
(3 5.779671221e-16 0)
(3 1.469224752e-16 0)
(3 -2.22083999e-17 0)
(3 -6.70667762e-16 0)
(3 -3.068348594e-15 0)
(3 -4.408606738e-15 0)
(3 -5.347257014e-15 0)
(3 -6.279515055e-15 0)
(3 -3.221707559e-15 0)
(3 -1.457596369e-15 0)
(3 -2.97048396e-15 0)
(3 -1.642133632e-15 0)
(3 -4.233611183e-15 0)
(3 -7.215944627e-15 0)
(3 -6.093941571e-15 0)
(3 -1.1675643e-14 0)
(3 -1.065438274e-14 0)
(3 -1.014009651e-14 0)
(3 -1.099491146e-14 0)
(3 -1.097771668e-14 0)
(3 -8.897713085e-15 0)
(3 -6.167531722e-15 0)
(3 -3.646490412e-15 0)
(3 -4.043330796e-15 0)
(3 1.182797454e-14 0)
(3 1.266360269e-14 0)
(3 1.419434373e-14 0)
(3 1.68855312e-14 0)
(3 1.645271679e-14 0)
(3 1.382015673e-14 0)
(3 1.322164883e-14 0)
(3 1.327479772e-14 0)
(3 1.305468934e-14 0)
(3 1.133741793e-14 0)
(3 1.038850855e-14 0)
(3 8.523843176e-15 0)
(3 7.252877687e-15 0)
(3 5.081238312e-15 0)
(3 4.52878063e-15 0)
(3 4.675920271e-15 0)
(3 6.35764244e-15 0)
(3 7.229010672e-15 0)
(3 9.156814106e-15 0)
(3 9.757823675e-15 0)
(3 9.563206214e-15 0)
(3 8.43735167e-15 0)
(3 1.071458974e-14 0)
(3 1.112680436e-14 0)
(3 1.159741697e-14 0)
(3 1.218632186e-14 0)
(3 1.349369628e-14 0)
(3 1.495948005e-14 0)
(3 1.601002498e-14 0)
(3 1.773065217e-14 0)
(3 1.803420707e-14 0)
(3 1.855246972e-14 0)
(3 1.815144865e-14 0)
(3 1.545984335e-14 0)
(3 1.249897675e-14 0)
(3 1.099832016e-14 0)
(3 8.950185743e-15 0)
(3 6.814542411e-15 0)
(3 6.16077626e-15 0)
(3 6.979005796e-15 0)
(3 6.887010202e-15 0)
(3 6.155332436e-15 0)
(3 6.244972052e-15 0)
(3 5.297658587e-15 0)
(3 4.569582638e-15 0)
(3 4.792631857e-15 0)
(3 4.867651613e-15 0)
(3 5.359037294e-15 0)
(3 4.021276807e-15 0)
(3 1.011303361e-15 0)
(3 1.019737566e-15 0)
(3 1.653274145e-15 0)
(3 4.198907712e-15 0)
(3 6.753624821e-15 0)
(3 6.479065244e-15 0)
(3 4.997077179e-15 0)
(3 4.160334832e-15 0)
(3 4.752405767e-15 0)
(3 7.439038657e-15 0)
(3 8.197554175e-15 0)
(3 9.189325833e-15 0)
(3 1.063867566e-14 0)
(3 1.207198913e-14 0)
(3 1.277897828e-14 0)
(3 1.371224569e-14 0)
(3 1.458146281e-14 0)
(3 1.405435618e-14 0)
(3 1.320076749e-14 0)
(3 1.319959944e-14 0)
(3 1.24249413e-14 0)
(3 1.100489503e-14 0)
(3 1.036876854e-14 0)
(3 9.231514461e-15 0)
(3 7.100865812e-15 0)
(3 7.380685495e-15 0)
(3 7.331562936e-15 0)
(3 6.850861132e-15 0)
(3 6.406806579e-15 0)
(3 6.811466235e-15 0)
(3 7.547791181e-15 0)
(3 7.692171112e-15 0)
(3 7.315746809e-15 0)
(3 7.501906515e-15 0)
(3 6.138335736e-15 0)
(3 4.917501206e-15 0)
(3 3.65335453e-15 0)
(3 4.175476534e-15 0)
(3 3.151046305e-15 0)
(3 -5.728873791e-16 0)
(3 -1.599263217e-15 0)
(3 -5.027990684e-15 0)
(3 -4.41026672e-15 0)
(3 -2.405711441e-15 0)
(3 1.420800335e-15 0)
(3 2.379091427e-15 0)
(3 2.790530036e-15 0)
(3 2.295376071e-15 0)
(3 2.275546583e-15 0)
(3 2.836609654e-15 0)
(3 4.425832248e-15 0)
(3 6.96995834e-15 0)
(3 7.384123126e-15 0)
(3 9.781555413e-15 0)
(3 1.006165894e-14 0)
(3 9.490606508e-15 0)
(3 9.371432518e-15 0)
(3 8.443483597e-15 0)
(3 7.483332711e-15 0)
(3 7.22245534e-15 0)
(3 5.621786272e-15 0)
(3 4.150995509e-15 0)
(3 2.777142178e-15 0)
(3 2.782399189e-15 0)
(3 2.804688667e-15 0)
(3 4.276770599e-15 0)
(3 4.763844767e-15 0)
(3 3.647599188e-15 0)
(3 2.202622558e-15 0)
(3 -7.027384554e-16 0)
(3 -1.531961014e-15 0)
(3 -4.150634485e-15 0)
(3 1.345167206e-15 0)
(3 5.956161406e-16 0)
(3 -6.219056045e-16 0)
(3 -1.555175346e-15 0)
(3 -2.99583707e-15 0)
(3 -4.374098992e-15 0)
(3 -4.412889847e-15 0)
(3 -4.941645179e-15 0)
(3 -5.609836014e-15 0)
(3 -7.805276192e-15 0)
(3 -8.241184594e-15 0)
(3 -8.014291512e-15 0)
(3 -7.722529977e-15 0)
(3 -7.039084498e-15 0)
(3 -5.551291932e-15 0)
(3 -4.091607374e-15 0)
(3 -3.059049828e-15 0)
(3 -1.123256278e-15 0)
(3 1.645528996e-15 0)
(3 1.004423153e-15 0)
(3 -3.405760392e-16 0)
(3 -1.203438889e-15 0)
(3 -1.064840906e-15 0)
(3 -1.502475823e-15 0)
(3 -2.634399002e-15 0)
(3 -3.375324348e-15 0)
(3 -3.932419958e-15 0)
(3 -3.458930161e-15 0)
(3 -2.829254284e-15 0)
(3 -2.41992741e-15 0)
(3 -3.935568652e-15 0)
(3 -6.413268566e-15 0)
(3 -7.99441438e-15 0)
(3 9.763073392e-16 0)
(3 1.301563369e-15 0)
(3 1.614124744e-15 0)
(3 9.648382661e-16 0)
(3 1.252652393e-15 0)
(3 1.865062108e-15 0)
(3 9.593796831e-17 0)
(3 -1.448711809e-15 0)
(3 -3.483495266e-15 0)
(3 -4.87786471e-15 0)
(3 -3.825293342e-15 0)
(3 -2.910862049e-15 0)
(3 -3.17429807e-15 0)
(3 -2.619129078e-15 0)
(3 -1.450191637e-15 0)
(3 -3.685191747e-16 0)
(3 1.843864899e-15 0)
(3 2.260770322e-15 0)
(3 1.166852341e-15 0)
(3 -1.222681557e-15 0)
(3 -2.955774372e-15 0)
(3 -4.478633823e-15 0)
(3 -4.644225329e-15 0)
(3 -4.00486472e-15 0)
(3 -3.979074437e-15 0)
(3 -2.969981992e-15 0)
(3 -4.030464417e-15 0)
(3 -4.083606625e-15 0)
(3 -3.749946544e-15 0)
(3 -3.976547705e-15 0)
(3 -4.963319769e-15 0)
(3 -5.288233126e-15 0)
(3 -7.629747788e-15 0)
(3 3.657318732e-15 0)
(3 2.847956491e-15 0)
(3 1.719985473e-15 0)
(3 4.715018134e-17 0)
(3 -2.454377582e-15 0)
(3 -3.706903353e-15 0)