/*--------------------------------*- C++ -*----------------------------------*\
  =========                 |
  \\      /  F ield         | OpenFOAM: The Open Source CFD Toolbox
   \\    /   O peration     | Website:  https://openfoam.org
    \\  /    A nd           | Version:  7
     \\/     M anipulation  |
\*---------------------------------------------------------------------------*/
FoamFile
{
    version     2.0;
    format      ascii;
    class       volScalarField;
    location    "3.7";
    object      p;
}
// * * * * * * * * * * * * * * * * * * * * * * * * * * * * * * * * * * * * * //

dimensions      [1 -1 -2 0 0 0 0];

internalField   nonuniform List<scalar> 
2222
(
0.9603572196
0.9386638001
0.9410477796
0.9473752911
0.9590956336
0.955814249
0.9537844883
0.9612609938
0.9692963246
0.9737366816
0.9737406359
0.9716364624
0.9712136284
0.9727277975
0.9755903296
0.9796518213
0.981460287
0.9805853962
0.4690634474
0.6953232564
0.9330632545
1.005108907
0.999670844
0.9818193854
0.962665245
0.9511594368
0.9507361305
0.9562121522
0.9491702521
0.956919833
0.9655361939
0.9683669861
0.97091762
0.97045563
0.969270836
0.9703834655
0.97462063
0.9778458452
0.9804065914
0.9810287225
0.979261172
0.4404482138
0.6217609707
0.8661061787
0.9669038933
0.9821166227
0.9813648936
0.9733870224
0.9637236006
0.9558097278
0.9482726633
0.9483483097
0.9621164947
0.9622034775
0.9608528122
0.9640292785
0.9691248056
0.9737981511
0.9761304757
0.9775588416
0.9771561641
0.9773388471
0.9776020186
0.9773267154
0.4136759085
0.5131275291
0.771404908
0.9075314669
0.9659879229
0.98422474
0.97810413
0.9703875339
0.9572428273
0.9466337211
0.95347827
0.9592867942
0.9565431455
0.9553309014
0.961191416
0.9712309635
0.9760423047
0.9770812184
0.9773252808
0.9753949149
0.9748955253
0.9760092847
0.9786603036
0.3783763966
0.4227959865
0.6451004619
0.8521337636
0.9325330036
0.9668832426
0.9779345688
0.9700232838
0.958159622
0.952919182
0.9586881086
0.9589869905
0.9570852589
0.959270992
0.9659135322
0.9717619976
0.9736876462
0.9741367845
0.9748511471
0.9758171751
0.9770782459
0.9781254046
0.9794983144
0.3281470241
0.3637167445
0.4890898539
0.8097036581
0.9241894508
0.9584215171
0.961817828
0.95654296
0.9486365628
0.9571596891
0.9585210343
0.9525798601
0.9574742621
0.9650555864
0.9695744766
0.9722942907
0.9713964672
0.9713669987
0.9726384103
0.9755416032
0.9784343387
0.9796996272
0.9804000216
0.9795859481
0.3024234761
0.3140226913
0.3809399975
0.6713691924
0.9361883041
0.9656781187
0.9560687919
0.9479674057
0.9427734501
0.9566408154
0.9520668379
0.9488247782
0.9608789407
0.965506628
0.9672661105
0.9687925351
0.9703068364
0.9712187451
0.9732390069
0.9759345546
0.978187952
0.9790318004
0.9796114598
0.9786463321
0.2818171628
0.2817146101
0.2974045343
0.4806009218
0.8720446296
0.9791794392
0.9708012721
0.951726826
0.9468316737
0.9569471499
0.9471865191
0.9518094532
0.962661142
0.9644697428
0.9622103476
0.9637792416
0.9676908722
0.9723863304
0.9760240955
0.9771982856
0.9778603571
0.9777995271
0.9779158379
0.9779797423
0.2794552291
0.2780448163
0.2774205708
0.3382375502
0.6651986798
0.9506087065
0.9738682436
0.9631576628
0.9581845949
0.955979664
0.948904181
0.9593565906
0.9646935728
0.9597473874
0.9570008225
0.9614891482
0.9678391497
0.9735258332
0.9764572098
0.9771450775
0.9766103331
0.9761307634
0.9767381501
0.9773084004
0.2797140249
0.2783766441
0.2810767849
0.2788828079
0.4786163271
0.8048041302
0.9642145714
0.9755430671
0.9691288416
0.9552269919
0.9590909269
0.9668644559
0.9616587337
0.9556881656
0.9573207213
0.9639402878
0.9700192239
0.9739594798
0.9756928566
0.9749051305
0.9754823895
0.9759416399
0.9771240285
0.9781267932
0.2819115846
0.2792522706
0.2837342866
0.277078222
0.3311427721
0.6471380946
0.9039972187
0.9794204715
0.9745063632
0.9608833167
0.969805793
0.9648118267
0.9565919336
0.9560128759
0.9603858315
0.9671712844
0.9716270251
0.9722959624
0.9721293378
0.9731809614
0.9753131438
0.9768151509
0.9785634444
0.9793526682
0.2837272543
0.2807069497
0.282390021
0.2797206456
0.2815656395
0.5161495912
0.8153516193
0.9520308432
0.9553355403
0.9663139391
0.9724497333
0.9552029199
0.9531168113
0.9592195938
0.9644339419
0.9687861998
0.9696135996
0.9688687711
0.9705911559
0.973449997
0.9763189656
0.9778961913
0.9793019775
0.9796610344
0.9789900034
0.2840079524
0.2810489376
0.2816193484
0.2826039131
0.2771599267
0.3545925671
0.7411571426
0.9105958724
0.941929641
0.9683540982
0.9621995219
0.9450583046
0.9528499177
0.9626520897
0.9649149172
0.9638193512
0.9644672146
0.9668789668
0.9710318188
0.9749073136
0.9773440168
0.9778746073
0.9784496756
0.9785588899
0.9778772768
0.2836454094
0.2807013385
0.2807321125
0.2836512105
0.2789002655
0.285823711
0.5702486222
0.8824915565
0.9417270419
0.9672749419
0.9467125304
0.9464307187
0.9619838489
0.9657689957
0.960656901
0.9584350673
0.9611613951
0.9661972662
0.9719571503
0.9756865745
0.9773216996
0.9772887598
0.9775574558
0.9776912883
0.9772390667
0.2832832529
0.2802375806
0.2803921723
0.2840638974
0.2814757201
0.2776980928
0.3694672961
0.7821135359
0.9539204956
0.9652397065
0.944110851
0.9573366321
0.9702341252
0.9659329464
0.9566392519
0.9567666765
0.9617508393
0.9672195387
0.9727201616
0.9752782432
0.9758373641
0.9759620571
0.9766973966
0.9772500709
0.9772413949
0.2834850762
0.2802032437
0.2801878356
0.2834340899
0.282360703
0.2778053047
0.2934888496
0.5638059719
0.9058730115
0.9420014486
0.9522303052
0.9718197771
0.9729035761
0.9600193027
0.9559483504
0.9603751041
0.9653487358
0.9694189039
0.9727185983
0.972952264
0.97394111
0.975093578
0.9766688369
0.9776625512
0.9781141844
0.284056551
0.2806305374
0.2815510113
0.2828595963
0.283080442
0.2806132634
0.2803408246
0.4041739826
0.7523554311
0.9206744533
0.9711276901
0.9774628653
0.9652349872
0.957774459
0.9600555667
0.9662815882
0.9684650942
0.9691483791
0.9687598037
0.970301588
0.9736645549
0.9758015288
0.9777744912
0.9789269693
0.9793917216
0.2847679731
0.281215673
0.2826510736
0.2826681001
0.2833979228
0.2824321345
0.2805959161
0.3124578422
0.6325706601
0.9178817728
0.9766795581
0.9689221147
0.955181729
0.9568550412
0.9633242974
0.9672873015
0.9651618649
0.9629496243
0.9659929778
0.9703155742
0.9747873648
0.9771291292
0.9785133938
0.979213565
0.9790850396
0.2855436591
0.2818337386
0.2829678824
0.2822096167
0.2837865125
0.2838031339
0.2803291682
0.2855931991
0.496930794
0.8781687644
0.9713521424
0.9431496238
0.9514017805
0.9684145598
0.9689048591
0.9622630939
0.9574382113
0.9595924613
0.9663424642
0.9719416258
0.9756175804
0.977238183
0.9768936949
0.9775054472
0.977407795
0.9765025287
0.2864404156
0.2826813259
0.2832035061
0.2817851433
0.2831347952
0.2829001206
0.2823534388
0.2819353657
0.3366885464
0.7038107243
0.9082722707
0.933755347
0.9634428722
0.975981215
0.9687994848
0.9545952165
0.9542712119
0.959129764
0.9665465977
0.9718679643
0.9740924142
0.974280372
0.9746522217
0.9759419631
0.9765847085
0.9762370452
0.287072553
0.2844646469
0.2833606037
0.2817376682
0.2829374938
0.2823946263
0.2831261346
0.2820754237
0.2893030955
0.5147367605
0.8325265588
0.9436207398
0.9736600345
0.9795913076
0.9600257265
0.9551430563
0.9575766007
0.9653353767
0.9679151218
0.9699291628
0.9705492869
0.9718506841
0.9735546319
0.9752433822
0.9763621666
0.9762641325
0.286390132
0.2864029542
0.2835885421
0.2817472127
0.2829008293
0.2823383515
0.2826270606
0.2827284897
0.2812761156
0.3880813077
0.7720027682
0.951007239
0.9782787718
0.9687300988
0.9586911619
0.9576237543
0.9674228153
0.9679971283
0.9670889774
0.9664621613
0.9693175859
0.9716680903
0.9751017467
0.9768858143
0.978129291
0.9777748431
0.2865885596
0.2874157361
0.2839422627
0.2817337457
0.2828982866
0.2826149885
0.2827669682
0.2832673558
0.280450791
0.3023472506
0.6210874019
0.9252723142
0.970349484
0.9528023586
0.9584817747
0.9702460033
0.971693764
0.9665845802
0.9633874898
0.9643442396
0.969497997
0.9739733932
0.9770180168
0.9782426407
0.9788001505
0.9779151412
0.2873771462
0.2881862623
0.2845690627
0.281957447
0.2828944006
0.2828460538
0.282765899
0.2835629947
0.2806737023
0.283034436
0.4290717404
0.7967022362
0.9308729449
0.9461115734
0.970345623
0.9768080308
0.9700217587
0.9610042138
0.9597469534
0.9628694312
0.9700891175
0.9744706944
0.9768496586
0.977917944
0.9779932257
0.9769034184
0.2881741271
0.2876811332
0.2855789375
0.2829910839
0.282752914
0.2830726474
0.2832858087
0.2840049685
0.2824809689
0.2808101671
0.3234676859
0.6607598203
0.8935789396
0.9598602491
0.9803750595
0.9749576694
0.9599642279
0.9573282171
0.9590371224
0.9661466665
0.9706290916
0.9729266292
0.975083452
0.9759415079
0.9759596276
0.9753900669
0.9758315746
0.2888346746
0.2856788268
0.2876276644
0.2839818233
0.2828004091
0.2831203463
0.2835166477
0.284635796
0.2834137289
0.2809649573
0.2868024344
0.5246373082
0.87164596
0.9693948155
0.9791583832
0.9623075705
0.9546765265
0.9557957766
0.9636870873
0.9672406075
0.9687911276
0.9702700397
0.9722964292
0.9735345821
0.9742711487
0.974497012
0.9748326564
0.2892991312
0.2851808766
0.2886823473
0.2848113166
0.2830813787
0.2833105535
0.2835969928
0.2849556814
0.2840940271
0.2820974425
0.282174289
0.3534575825
0.7516047672
0.9557908263
0.9739744165
0.9505432945
0.9527144082
0.9647510986
0.9685418299
0.966360425
0.9662087705
0.9675833965
0.9704223667
0.9727983514
0.9747931675
0.9757337757
0.975921031
0.2892397838
0.2854888947
0.2890741817
0.2854804865
0.2833180696
0.2831821645
0.2836573826
0.2849488131
0.2844648246
0.2828707233
0.281867301
0.291540966
0.5416020633
0.8693304847
0.9454434223
0.9486190572
0.9661447261
0.9743317988
0.9694094815
0.9646460339
0.9637724135
0.9663211796
0.9717315211
0.9750569837
0.9769052563
0.9772601931
0.9771543693
0.2886580681
0.2858164869
0.2891978312
0.285953184
0.2836537167
0.2832991118
0.2836603635
0.2849374323
0.2850634166
0.2833851566
0.2833819407
0.2834137309
0.3946250445
0.7397437124
0.9185867364
0.9655491322
0.9774831977
0.9752535556
0.9630469555
0.9604692784
0.9624675978
0.9684524556
0.9740591837
0.9767114884
0.9778542651
0.9774646403
0.9772806548
0.288454822
0.2869834895
0.2889819889
0.286496179
0.2837505166
0.2832054792
0.2835290251
0.284933366
0.2853794304
0.2837442077
0.2839129292
0.2832720972
0.306002581
0.6382202341
0.9127957769
0.9756867909
0.9785663385
0.9647777419
0.9577104303
0.9579061423
0.9657719431
0.9710654973
0.9739219392
0.9752322524
0.9762039675
0.9758172852
0.9758055459
0.2885590456
0.2889987993
0.2884510846
0.2867835946
0.2839380277
0.2833158464
0.2834688034
0.2848137568
0.2859314325
0.2840153364
0.2842044124
0.2831561009
0.2847569708
0.4686453098
0.8686542911
0.9690299287
0.9717011454
0.9519810503
0.9548482348
0.9628618745
0.9700205404
0.9702240013
0.971268453
0.9723239692
0.9734597864
0.9735216007
0.9737553985
0.2886345864
0.2894798685
0.2881110829
0.2875530181
0.2841678577
0.2834391683
0.2835173979
0.2846820786
0.2866736482
0.2844923348
0.2840826214
0.2840621422
0.283232643
0.3199994748
0.6881566494
0.9258128422
0.944919624
0.948796615
0.9636926748
0.9707413622
0.9694491246
0.9676550657
0.967844089
0.9696709661
0.9713365711
0.9725266639
0.9726566707
0.9749632359
0.2895716158
0.2890930548
0.2878217336
0.2887276683
0.2845116771
0.2838327648
0.2836459932
0.2844511488
0.2870935883
0.285557353
0.2839134955
0.2843120034
0.2836068983
0.2858270576
0.4836271926
0.8140625926
0.9264959582
0.9602516722
0.9750713332
0.9724270998
0.9655701896
0.9641753134
0.9665111483
0.9690974539
0.9725345454
0.9748083077
0.9741205534
0.9763877796
0.291231645
0.2870446511
0.2879057758
0.2895577281
0.2856205837
0.2844367845
0.2838429093
0.2840517378
0.2873705855
0.2861698791
0.2845983554
0.2842383575
0.2843888044
0.2835016256
0.3584966101
0.7281853421
0.9285385278
0.9729737319
0.9748624457
0.9658553145
0.9604324995
0.9628265463
0.9676483703
0.9723481766
0.9754733916
0.9767562171
0.9757588754
0.9773648738
0.2917149728
0.2863123756
0.2885139781
0.2896074405
0.2867803584
0.2850607491
0.2840908212
0.283781043
0.287363595
0.286335949
0.2850807633
0.2843605984
0.2846226217
0.2836799403
0.29339889
0.5981953874
0.9170650709
0.9709398644
0.970372738
0.9540709463
0.9587174584
0.9650292577
0.9726806527
0.9746127778
0.9755260631
0.9759292511
0.975083188
0.9764983543
0.2916979546
0.286230183
0.2890636642
0.2891624365
0.287068551
0.2853516182
0.284307335
0.2837443179
0.2871922472
0.2865736248
0.28507254
0.2847919915
0.2844329667
0.2839031238
0.2839426429
0.4011966442
0.822660201
0.9579166077
0.9464205153
0.9524686444
0.9654774998
0.9727086134
0.974421482
0.9731898705
0.9730312062
0.973391819
0.9727179365
0.9740609263
0.291762449
0.2863716554
0.2890420125
0.2886459259
0.2870959787
0.2854868116
0.2845084235
0.2837956458
0.2869692034
0.286822921
0.2852687139
0.28491718
0.2843097431
0.2842845388
0.2837301363
0.3060486018
0.6162641462
0.8791051263
0.9380247372
0.9611984585
0.9749848337
0.975701766
0.9720513476
0.9681099248
0.9687994683
0.9699514394
0.9704491385
0.9718823855
0.2909769346
0.2876129556
0.2887488539
0.2883433679
0.2873482167
0.2856717623
0.2846540464
0.2839067062
0.286767435
0.2869204023
0.2854930553
0.2854144749
0.2845572747
0.2841757757
0.2839178001
0.2858198925
0.4719314925
0.8074345117
0.9474477803
0.973863168
0.9774579638
0.972293734
0.9637826591
0.9641961784
0.9668040701
0.9685292362
0.9692974324
0.9712510899
0.9739669875
0.2894910649
0.2898182142
0.2879958231
0.2883608895
0.2878712699
0.2860416112
0.2850026928
0.2840328188
0.2860444584
0.2869366649
0.2857838684
0.2859091663
0.2851446546
0.2842669127
0.2844648416
0.2842415508
0.3435585421
0.7388180406
0.9504755502
0.9731791267
0.971647436
0.9587856684
0.9611372254
0.9631508972
0.9669785674
0.9710972759
0.972179656
0.9740577584
0.9758573366
0.2894019987
0.2904281692
0.2870188356
0.2884752506
0.2881035444
0.2863798235
0.2852640482
0.2841334801
0.2854863191
0.287160814
0.2862106444
0.2861544651
0.2853805456
0.28461193
0.2846765294
0.2841401119
0.2911833196
0.562283244
0.91099358
0.9681620124
0.9497156996
0.954884637
0.9611032793
0.9674936822
0.9728656924
0.9751488296
0.9747175041
0.9754398055
0.9766834218
0.290223539
0.2905686627
0.2866107802
0.2883247116
0.2880970677
0.2866212978
0.2854781166
0.2837825459
0.2853907372
0.2876267011
0.2866348075
0.2861515037
0.2854068264
0.2848610928
0.284492642
0.2846536326
0.284831037
0.3854970955
0.7552033939
0.9304718785
0.9407273247
0.9571072883
0.9712598564
0.9757875036
0.9759389124
0.9748504606
0.9738122934
0.9742391102
0.9753762144
0.292839857
0.2898347219
0.2864794683
0.2879257887
0.2879745254
0.2867874844
0.2856743682
0.2839213713
0.2856346206
0.2877580556
0.286767472
0.2856083913
0.2852484989
0.2848630552
0.2845474531
0.2849464836
0.2850174892
0.3067841321
0.6147398229
0.8784328481
0.9504618119
0.9730501754
0.9792455066
0.9771049332
0.974173781
0.9723770501
0.9711533956
0.9712312938
0.9727014044
0.2942298926
0.2873612027
0.2866060013
0.2875221665
0.2877698235
0.2868986743
0.2859095336
0.28435309
0.2861040321
0.2878341272
0.2866720179
0.2855032205
0.2851863704
0.2846937753
0.2846356941
0.2850299958
0.2849418777
0.2873997779
0.4833289742
0.8443260964
0.9684063423
0.9804179353
0.9793128705
0.9719827469
0.9658173736
0.9665797473
0.9667161702
0.9675002066
0.9700117041
0.2945956815
0.2869412182
0.2884697588
0.2872040574
0.287452759
0.2869320367
0.2861190563
0.2851051343
0.286523232
0.2878759788
0.2866102521
0.2854343643
0.2851923698
0.2845621767
0.2848303941
0.2849333547
0.2854085912
0.2854443839
0.3374706391
0.7429259662
0.9585840188
0.9786256541
0.9679229155
0.9590013987
0.9607421767
0.9640627377
0.9655246721
0.966966297
0.9694980334
0.2944708409
0.2870224691
0.2897934922
0.2868961861
0.2868531258
0.2866107688
0.2862756912
0.2856046461
0.2864541052
0.2873703804
0.286212695
0.2854901662
0.2854609462
0.2847348037
0.2850560161
0.285014191
0.285498932
0.2852463694
0.2912291014
0.5417254035
0.8865040094
0.9606182505
0.9481797015
0.9551965539
0.9603252147
0.9652662001
0.9681747742
0.9695611397
0.9712804431
0.9732416236
0.2924792858
0.2873188236
0.2901264075
0.2866456254
0.2864298793
0.2864477902
0.2864319517
0.2853546394
0.2853596239
0.2864229337
0.2859824294
0.2856013871
0.2857948277
0.2849922861
0.2852955483
0.2851201268
0.2853860424
0.28537604
0.2855714649
0.3917286676
0.7451065516
0.9163560479
0.9454395736
0.9595059453
0.9702064857
0.9741686341
0.973752673
0.9734317338
0.9739389401
0.9750586514
0.2889695479
0.2899619023
0.2901373072
0.2866347816
0.286265442
0.2862965861
0.2864441033
0.2852264204
0.2849224801
0.2861184119
0.2858308222
0.2855395568
0.2857881076
0.285029355
0.2853551465
0.2851894011
0.2853077855
0.2857077966
0.2855283308
0.3077925496
0.6394771141
0.8871880351
0.9622182439
0.9770443225
0.9797987517
0.9783315452
0.974843424
0.9732679504
0.9734676557
0.9747097541
0.2878523111
0.2934104916
0.2892209609
0.2864303071
0.2857563651
0.2862196698
0.2864397045
0.2856154547
0.2853116468
0.2863561269
0.2858628949
0.2853745675
0.2856227768
0.284986709
0.2852106684
0.2852984665
0.2853547625
0.2858207483
0.2854950285
0.2873683511
0.4917261761
0.8795464945
0.9766345098
0.9846284798
0.9813463576
0.9766935703
0.9728301258
0.9710395114
0.9713572489
0.9735399295
0.2877898373
0.2938187151
0.2875870014
0.2857901339
0.2847333718
0.2857633027
0.2865870621
0.2860494097
0.2857854121
0.2867357114
0.2860815682
0.2851789984
0.2855062878
0.2850171373
0.2849047008
0.2852215798
0.2854696103
0.2858014138
0.2857150829
0.2852279133
0.33700839
0.7511248738
0.966014763
0.9823667802
0.9708195929
0.9645457558
0.9632037765
0.963868402
0.9654626914
0.9686132996
0.2897541399
0.2935631655
0.286974187
0.2851062763
0.2840125575
0.2853324896
0.286922607
0.2865347757
0.285545058
0.286607691
0.2859415911
0.2848642838
0.2853477028
0.2849834742
0.2846084466
0.2853583817
0.2854685079
0.2856541357
0.2856813827
0.2851794948
0.2906639454
0.5407352167
0.8800026237
0.9571669445
0.9492815202
0.9562298363
0.9589717123
0.9613115861
0.9635977579
0.9662430245
0.2925911108
0.2932261365
0.2861929383
0.2848230829
0.2837765857
0.2850646059
0.2867349658
0.2863291296
0.2849173134
0.2857931037
0.2856703746
0.2845265578
0.2852272288
0.2849565833
0.2845654442
0.2853731547
0.2852643368
0.2853865177
0.2854192155
0.2850239085
0.2847841384
0.4034725014
0.7564866286
0.9174988644
0.9441023716
0.9575119688
0.9611695235
0.9640573435
0.964972795
0.966209264
0.2931840237
0.2910726046
0.2864496822
0.2858501638
0.2831962651
0.2845803958
0.2859295359
0.2863606863
0.2847872213
0.2852644897
0.285178258
0.2842486242
0.2851258057
0.2849227253
0.2846749081
0.2852781753
0.2849592717
0.284826092
0.2846996833
0.284691917
0.2844763588
0.3084913534
0.6631928156
0.8957599502
0.9589621161
0.9729384777
0.9743099698
0.9734255339
0.9715077432
0.9703641479
0.9722281963
0.2931997017
0.2875526451
0.2897664536
0.2872787382
0.2832589628
0.2841886149
0.2855628241
0.2866546449
0.2848978525
0.2849440702
0.2846645402
0.2841182067
0.2848549557
0.2847589796
0.2848511651
0.285116173
0.2847396703
0.2844666195
0.2842995139
0.2844227317
0.2842453136
0.2865567186
0.5057636222
0.8938234492
0.9762970439
0.9838588354
0.9815641515
0.9773418012
0.9743459077
0.9733690878
0.9749943734
0.2931509692
0.2865071554
0.2915527371
0.287333622
0.2836923741
0.2836561771
0.285052307
0.2868118038
0.285039197
0.2848698223
0.2844828026
0.2842180905
0.2845175572
0.2844155599
0.2848318052
0.2850585219
0.2847186517
0.2843084991
0.2841368341
0.2842304597
0.284511798
0.2845617449
0.3446691126
0.7700441647
0.9684915348
0.9830638533
0.980090648
0.9750437087
0.9730109275
0.9726341277
0.9745484501
0.2928030327
0.2866568166
0.2916069287
0.2870692408
0.2832569104
0.2824973068
0.2837290114
0.2864919928
0.2851715655
0.2848436365
0.284553164
0.2843391065
0.2841566292
0.2844164312
0.2847168195
0.2850495876
0.284781918
0.2843520191
0.2841567283
0.2843062154
0.2847048655
0.2846128864
0.2918891078
0.5592468093
0.8963568092
0.9675306272
0.9604909311
0.9602982035
0.9626187456
0.9669007896
0.9721195442
0.2884638225
0.2905062398
0.2912526041
0.2873271313
0.282556115
0.2814232804
0.2822709615
0.2861821869
0.2853104154
0.2847120119
0.2843871036
0.2841458893
0.2835850591
0.2845835407
0.2845555666
0.2849966372
0.2847812981
0.2842948766
0.2840897733
0.2842738226
0.2847023994
0.2845387936
0.284938083
0.421544171
0.7721103747
0.9228604364
0.9440761011
0.9521688421
0.9557331394
0.9591267326
0.9643035576
0.2840095476
0.2946060009
0.2910449866
0.2876593161
0.2820744552
0.2809347772
0.281585944
0.2858980135
0.2853886945
0.2845841427
0.2838636176
0.2835234459
0.2832663783
0.2844667022
0.2842525613
0.2849253427
0.2847027871
0.2842079071
0.2838645701
0.2841001804
0.2844425124
0.2845355929
0.2845448097
0.3136121572
0.6798488718
0.8928233219
0.9445644209
0.9548128021
0.9570264015
0.9584043399
0.961632403
0.2834061821
0.2957046807
0.2906635648
0.2879713835
0.2818636778
0.2806315949
0.2812601829
0.2852422015
0.2853582776
0.2844733818
0.2836445446
0.2830560424
0.2831493144
0.2840835994
0.2838411219
0.2846698896
0.2843610567
0.2838235034
0.2832790264
0.2834823938
0.2837856768
0.2840740734
0.2840774068
0.287099079
0.5309731626
0.8967868106
0.9669667925
0.9742862421
0.9703581256
0.9650159921
0.9637198828
0.2851806766
0.2960688987
0.2893436612
0.288334779
0.2817805399
0.2803691202
0.280899818
0.2842717533
0.2854743319
0.2843698069
0.2834949047
0.2829646986
0.282797293
0.2831958484
0.2836278973
0.2842855866
0.2839908952
0.2834629935
0.2829582646
0.2830467072
0.2831500907
0.2835211429
0.2838791539
0.2841957072
0.3579983719
0.7959990227
0.9668202626
0.9807564341
0.9781967008
0.9747533105
0.9722750584
0.2879659734
0.2959010044
0.2889199005
0.2887397159
0.2818648845
0.2802752059
0.2803663871
0.2833943063
0.2853894113
0.2843713756
0.2834208275
0.2829696628
0.2820599784
0.2826670573
0.2836214848
0.2841583348
0.283870326
0.2833187162
0.2828258294
0.2828122681
0.2828111598
0.2833415327
0.2837778307
0.2838531262
0.2940191083
0.5936243095
0.9355465264
0.9791131488
0.9775657996
0.9747498565
0.9738380696
0.9749046147
0.288716245
0.2928184067
0.2892982717
0.2892055704
0.2821245671
0.2804977024
0.279967905
0.2826162935
0.2850079408
0.2843886384
0.283335003
0.2828059966
0.2817732741
0.282531823
0.2835953292
0.2841402625
0.2838968595
0.2833047095
0.2827422469
0.2826055807
0.2826470113
0.2833209347
0.2837082646
0.2837062674
0.2841961346
0.4401552948
0.7953159009
0.9552755844
0.9665478342
0.9703866138
0.972362466
0.9739167488
0.2892913907
0.2864429475
0.2920666333
0.2900025988
0.2823185785
0.2805618417
0.2796216998
0.2817510765
0.2844431703
0.2840294283
0.2831244727
0.2825473906
0.2816922786
0.2824206372
0.2832624767
0.2839883697
0.2838645758
0.2832315315
0.2825796689
0.2821308096
0.2825429797
0.2832051379
0.2836036569
0.2835866062
0.2837373635
0.3222945332
0.6808737428
0.8963659573
0.9416982151
0.952424555
0.9592216987
0.9678597897
0.289093516
0.2844506162
0.2941626594
0.2908957342
0.2825915879
0.2804554892
0.2791141408
0.2807034555
0.2834230132
0.2835970029
0.2830243316
0.282367506
0.2815730693
0.2818600024
0.2826870998
0.2837385559
0.2837430412
0.2830575961
0.2821519819
0.2816182868
0.2822530947
0.2827967757
0.2834277097
0.2835132851
0.2831913754
0.2867754559
0.565542353
0.8589007874
0.9342654832
0.9471414964
0.9517328104
0.9586837487
0.2880272262
0.2844604874
0.2945885467
0.2915963906
0.2823775066
0.2801508413
0.2786711444
0.2799492557
0.2827085823
0.2833546914
0.2829538536
0.2822826825
0.281390972
0.2812897603
0.2823727855
0.2832766978
0.283318518
0.2826224758
0.2817445009
0.2813952223
0.2818176317
0.2823536785
0.2830551032
0.2830491089
0.2830545816
0.2831171433
0.3843343005
0.8256151976
0.9508662254
0.9533164922
0.9531389076
0.9579636564
0.2851782846
0.2860539711
0.294483307
0.2920185831
0.2823299779
0.2796479611
0.2784925699
0.2794860498
0.282228436
0.2831463826
0.2829208469
0.2821290377
0.2811417917
0.2809969261
0.2822592718
0.2829769078
0.2827664128
0.2822258264
0.2815997004
0.2813337424
0.2815954267
0.2820531666
0.2825614538
0.2825081012
0.2825702577
0.2822959635
0.29837878
0.6576716573
0.9398107161
0.9733232624
0.9678622542
0.962253807
0.2779623381
0.2899217336
0.2938726016
0.2919691723
0.2817279698
0.2792854326
0.2784310939
0.2791464083
0.2817676437
0.2829432975
0.2826745219
0.2819155165
0.2809988584
0.2807633352
0.2819218772
0.2824788562
0.2825013462
0.2820597299
0.2815601206
0.2812464702
0.2814945663
0.2818242038
0.2821319561
0.2822266668
0.2823040277
0.2821778093
0.2829174156
0.4596456604
0.8715666004
0.9760000174
0.9751765965
0.9743255808
0.2730089201
0.2908530284
0.2915591767
0.2918928599
0.2816911345
0.2791128363
0.2787053996
0.2792206809
0.281219118
0.2823624758
0.2822530426
0.2816523156
0.2807879791
0.2805607294
0.2812593986
0.2820324259
0.2824212048
0.2820063617
0.2814661499
0.2809808555
0.2811417897
0.281540504
0.2818378968
0.2820804872
0.2822310805
0.281923579
0.2817693581
0.3441667374
0.7090452675
0.9602846583
0.9765952259
0.9764824647
0.9755104556
0.272057645
0.2908277857
0.2898858284
0.2918337893
0.282907804
0.2791712248
0.2791768898
0.2793223622
0.2807183469
0.2816836513
0.2817511965
0.2812352699
0.2806295305
0.2804090233
0.2809369571
0.2818050167
0.2823952438
0.2819155524
0.2811410841
0.280481349
0.2805672009
0.2810737134
0.2815911201
0.2819853525
0.282086748
0.2817501004
0.2815365103
0.2875335955
0.5874430715
0.8695826591
0.9655345618
0.9753427566
0.9784589813
0.2740215065
0.2905155996
0.2891892104
0.2928997291
0.2843045828
0.2796109093
0.2793651837
0.2791909278
0.2802889617
0.2811539675
0.2813344022
0.2808650006
0.2804712446
0.2803160695
0.2808500852
0.2816830399
0.2821302563
0.2815113297
0.2807433192
0.2801732877
0.2802374061
0.2808035391
0.2814473992
0.2817918514
0.2818345949
0.281556298
0.2810290118
0.2818693505
0.4416576055
0.7873626639
0.9193652386
0.9539142438
0.9713011183
0.2779259444
0.2896363833
0.2888268384
0.2956778649
0.2847463996
0.2796687002
0.2795188373
0.2790092066
0.2798603291
0.2807493823
0.2810362024
0.2805802569
0.2802142245
0.2798721838
0.2805474882
0.2812785542
0.2815299403
0.2811158767
0.2805366393
0.2800570155
0.2801290993
0.2806874093
0.2811590165
0.2813131476
0.2812812273
0.2811562388
0.2807760021
0.2806619273
0.3131966394
0.7172663621
0.8920515604
0.9405458897
0.9539772639
0.2789865377
0.2870255104
0.2891619295
0.29759483
0.2848078356
0.2792795223
0.2795167638
0.2789305077
0.2795475066
0.2804225194
0.2808019937
0.2803840577
0.2800563343
0.2794896316
0.2799522924
0.2806458653
0.2811978617
0.2809166158
0.2804112042
0.2800392349
0.2801400926
0.2806803688
0.2810616542
0.280873484
0.280934144
0.2809257678
0.2805945911
0.2804108377
0.2845015047
0.5540338418
0.9017855841
0.9433322648
0.9476676337
0.2795178627
0.2802341857
0.2911900026
0.298204759
0.2845866687
0.2775735824
0.2787230271
0.2788960601
0.2795183514
0.2801487195
0.28061948
0.2802720024
0.2799603273
0.2793149755
0.2797531522
0.280404803
0.2810288732
0.2807864523
0.2803200124
0.2799443008
0.2800485817
0.2805036771
0.2807505648
0.280540509
0.2807110227
0.2807191293
0.2805042268
0.2803603008
0.280376971
0.3832982507
0.83074149
0.9642508979
0.9582365346
0.2797487898
0.2747596565
0.2918161904
0.2980343227
0.2845439549
0.2768439505
0.2775284371
0.2785302927
0.2795797277
0.2800147798
0.2804310801
0.2801427853
0.2797547449
0.2792077987
0.2796741555
0.2803424529
0.2809061123
0.2804229748
0.280020768
0.2796710045
0.2796715194
0.2800494719
0.2802913589
0.2803058377
0.2805241897
0.2806671697
0.280424375
0.2802061955
0.2802559112
0.3027936695
0.6572959819
0.952758082
0.9777893994
0.2791633122
0.273195737
0.290902425
0.297737252
0.2854202791
0.2770463198
0.2772046792
0.2782803821
0.2796547385
0.2798059995
0.2802623968
0.2800040643
0.2794495604
0.2790947199
0.2795418753
0.2800721751
0.2805375859
0.280052367
0.2797915403
0.2793691266
0.279236544
0.2797367619
0.2801125912
0.2801512187
0.2803436412
0.2805659859
0.2802406122
0.2799507736
0.2799926343
0.2812520338
0.4944649621
0.8710259433
0.9784239408
0.2728914184
0.2732762087
0.2895841433
0.2979733923
0.2884257454
0.2788485645
0.2775751854
0.2784434841
0.2796290489
0.279558579
0.2798374239
0.2797676771
0.279171268
0.2789373522
0.2791793641
0.2798622314
0.2802905268
0.2798685449
0.2795960159
0.2792301505
0.2790621161
0.2796579003
0.2800712479
0.2800565685
0.2801547119
0.2803660206
0.280175082
0.2796649725
0.2796699697
0.2800606576
0.3702923721
0.7294053583
0.9664579181
0.9801944371
0.2641630083
0.2770948891
0.2881862077
0.2976436806
0.2905576373
0.2805418978
0.2783007805
0.2789651405
0.2794733588
0.2792885255
0.2791825059
0.2796207168
0.279044829
0.2787872067
0.2787265813
0.2793697165
0.2799595587
0.2797976978
0.2795486861
0.2791515566
0.2789905284
0.2795969794
0.2800163658
0.279900828
0.2799496814
0.2801358244
0.2799860641
0.2795291953
0.2795415853
0.2796462864
0.2917549835
0.6355207967
0.8919590746
0.9779947605
0.2622883068
0.279229086
0.2846084882
0.2967557023
0.2913503807
0.2810732854
0.2787180223
0.2792985848
0.2789293699
0.2788931815
0.2788193198
0.2795834174
0.279225549
0.2786394343
0.2783979138
0.2791120526
0.2798180717
0.2797776503
0.2795024206
0.2791286574
0.2789427693
0.2794129527
0.2797364679
0.2797178353
0.2796020566
0.2798776246
0.2798572382
0.2794745326
0.279445746
0.2794645153
0.2810032956
0.5055276275
0.8262860819
0.9506398775
0.2631239768
0.2793041662
0.2808901914
0.2954943757
0.2915804546
0.2812092373
0.2782281633
0.2788590235
0.2789458148
0.2784987809
0.2785459183
0.279777544
0.2793562971
0.2785154577
0.2781543106
0.2788724816
0.2796022377
0.2797243532
0.2794597169
0.2790246759
0.2787719301
0.2788322924
0.2793089442
0.2793199347
0.2792897212
0.2797499685
0.2797573026
0.2794084676
0.2793299792
)
;

boundaryField
{
    inlet
    {
        type            fixedValue;
        value           nonuniform 0();
    }
    outlet
    {
        type            zeroGradient;
    }
    bottom
    {
        type            slip;
    }
    top
    {
        type            slip;
    }
    obstacle
    {
        type            zeroGradient;
    }
    defaultFaces
    {
        type            empty;
    }
    procBoundary21to15
    {
        type            processor;
        value           nonuniform List<scalar> 
24
(
0.9464883578
0.9393245012
0.9457046471
0.9525609213
0.9540743761
0.9600199263
0.9597602348
0.9615235989
0.9639502948
0.9712797964