/*--------------------------------*- C++ -*----------------------------------*\
  =========                 |
  \\      /  F ield         | OpenFOAM: The Open Source CFD Toolbox
   \\    /   O peration     | Website:  https://openfoam.org
    \\  /    A nd           | Version:  7
     \\/     M anipulation  |
\*---------------------------------------------------------------------------*/
FoamFile
{
    version     2.0;
    format      ascii;
    class       volScalarField;
    location    "4.5";
    object      rho;
}
// * * * * * * * * * * * * * * * * * * * * * * * * * * * * * * * * * * * * * //

dimensions      [1 -3 0 0 0 0 0];

internalField   nonuniform List<scalar> 
555
(
1.265627917
1.265434211
1.264215954
1.258078524
1.258319357
1.257935545
1.257489398
1.257085775
1.256995498
1.256963613
1.256834631
1.257119781
1.25832108
1.259899327
1.261381464
1.26215594
1.26256464
1.262493254
1.263177982
1.26358674
1.263437991
1.262208718
1.258614729
1.25941569
1.259988232
1.261069888
1.261463051
1.2615372
1.261009202
1.260189977
1.259422445
1.259772797
1.2605796
1.261480369
1.262315188
1.262679105
1.262654848
1.262175514
1.262084438
1.262055845
1.263135471
1.26023642
1.262647946
1.264457976
1.265942045
1.266136354
1.26643031
1.266248189
1.265927708
1.265211377
1.264019951
1.262825684
1.262738475
1.263347014
1.263271612
1.263083264
1.262361305
1.262015973
1.26255475
1.263884411
1.264638028
1.267179736
1.268992331
1.269752393
1.270028403
1.27028985
1.270229165
1.27016982
1.270211847
1.269423803
1.267658171
1.266126907
1.265423935
1.264997233
1.264463412
1.263399988
1.262874517
1.263463454
1.265360047
1.269722924
1.271588995
1.273217815
1.273970555
1.274063246
1.274096812
1.274091815
1.274291895
1.274767143
1.274359329
1.273191797
1.271627198
1.270195004
1.268976082
1.267180087
1.266017108
1.265350383
1.265821232
1.267889122
1.275606399
1.276848054
1.278234643
1.278651761
1.278407457
1.278379539
1.278746038
1.279186314
1.279882871
1.279659605
1.279072536
1.277889568
1.276339251
1.274818927
1.272554201
1.270629376
1.269830286
1.270004746
1.272381049
1.282638931
1.28355864
1.283889019
1.282807429
1.281888839
1.281848147
1.282976935
1.284109419
1.28537183
1.285914114
1.285624374
1.284427677
1.282757513
1.280929884
1.279852927
1.278155361
1.277461778
1.277729463
1.27980353
1.290070684
1.290582811
1.289619459
1.289108396
1.288115404
1.287527372
1.28819376
1.289194463
1.290414619
1.291621849
1.29216153
1.291385999
1.289863278
1.28841931
1.287867467
1.287578393
1.288185175
1.2894777
1.289716013
1.299047011
1.298603396
1.298123187
1.296991841
1.29596288
1.29616947
1.296843587
1.297747201
1.298664484
1.298855972
1.298002286
1.296877803
1.296388774
1.29649782
1.298285562
1.301059319
1.301526571
1.299768375
1.309446182
1.308757816
1.308346746
1.307161229
1.305916362
1.306008155
1.306524631
1.306886962
1.307231802
1.30696378
1.306048064
1.305144592
1.304751878
1.305773928
1.310286095
1.312414867
1.312242809
1.310111007
1.320273412
1.320008918
1.31968945
1.318740697
1.317677537
1.317219179
1.317377321
1.317541147
1.3175403
1.316534731
1.315722657
1.315099942
1.315100685
1.316342191
1.319894839
1.322760358
1.322943427
1.321209358
1.331890438
1.331922846
1.331788942
1.331196941
1.33059593
1.330183572
1.330157569
1.329913336
1.329008436
1.327649589
1.326882804
1.32640772
1.326675243
1.328833856
1.330091526
1.33140519
1.33265955
1.332034266
1.34324776
1.343420806
1.343474452
1.343502539
1.343228854
1.343217157
1.343346095
1.343073005
1.342192365
1.340559116
1.339851777
1.339953513
1.340854244
1.341984124
1.341237168
1.340837875
1.341213962
1.340874653
1.353763723
1.354089305
1.354569292
1.355091502
1.355241597
1.356037525
1.356749235
1.356416458
1.35544412
1.354224312
1.35382407
1.354525884
1.355397083
1.354505181
1.35271226
1.349955187
1.348254877
1.348865748
1.364230668
1.364693511
1.365377958
1.36641756
1.367071868
1.368339355
1.368955575
1.368708919
1.368479525
1.36824058
1.368494303
1.368674706
1.368098199
1.366282017
1.362995721
1.357294445
1.355551121
1.358507689
1.373683483
1.374644051
1.376007228
1.377401771
1.378152112
1.379136071
1.379481751
1.379421269
1.379758341
1.380176153
1.380659547
1.379938383
1.378895833
1.376712881
1.371457907
1.366941156
1.366047007
1.369082358
1.382157406
1.384010448
1.385231474
1.386292319
1.387624065
1.388476545
1.388507596
1.388752845
1.388894388
1.389124413
1.389578664
1.388966715
1.387122888
1.383680524
1.379187276
1.377583042
1.377126203
1.379515324
1.39017263
1.392689446
1.393697924
1.393953365
1.394932788
1.39592601
1.396100833
1.396474747
1.396444051
1.39635466
1.395669909
1.394759842
1.391512214
1.387442792
1.386849098
1.387278349
1.38760314
1.390717237
1.397585096
1.399956592
1.400919245
1.400800893
1.401048572
1.401407533
1.401189654
1.401593756
1.40183424
1.401695921
1.400021411
1.397463588
1.393244614
1.391335743
1.392454129
1.396715801
1.398807491
1.39936829
1.404650413
1.406118988
1.406820556
1.406562138
1.405654129
1.404380993
1.403263351
1.403582305
1.40420622
1.4036344
1.401177696
1.397930525
1.395459803
1.396450927
1.399143785
1.402393749
1.405708181
1.405837989
1.410209744
1.410947503
1.411035756
1.41028124
1.40821251
1.405768216
1.403893013
1.403846887
1.40403298
1.402994692
1.401021891
1.399660193
1.400542365
1.402108158
1.406058053
1.408755876
1.410409105
1.409828778
1.413586022
1.413824003
1.413310808
1.412017302
1.409616583
1.407590141
1.406957313
1.406292794
1.405084554
1.40430083
1.404031218
1.40440758
1.406094578
1.408690012
1.411231555
1.412693162
1.412937438
1.410867181
1.414567531
1.413818421
1.4126839
1.411392282
1.410346761
1.410329288
1.409519045
1.408114623
1.407656433
1.407996341
1.408855164
1.411062716
1.414749413
1.415756121
1.415000875
1.412453652
1.409881761
1.413860868
1.413034007
1.413047326
1.413546063
1.413392516
1.412898836
1.41295854
1.411968574
1.411610238
1.412193349
1.413095102
1.41573494
1.418935124
1.418534675
1.41496062
1.41133146
1.410102745
1.413640319
1.414291
1.415528423
1.416205692
1.416170307
1.415892274
1.416219021
1.416140518
1.415653236
1.416623466
1.419204737
1.420708385
1.420552356
1.418328977
1.413535431
1.411530124
1.411283985
1.415111443
1.416486434
1.418180794
1.418714002
1.419069218
1.419246272
1.418775219
1.417857713
1.418156031
1.419437606
1.420825519
1.422397527
1.420579655
1.415677389
1.412502007
1.412048166
1.412282921
1.416476658
1.418538935
1.419388585
1.41995656
1.420452736
1.420962975
1.420552832
1.420652329
1.420941182
1.420956603
1.420707642
1.419554068
1.415426885
1.411553367
1.411845262
1.412046108
1.412523516
1.416513197
1.419129454
1.419945611
1.420518876
1.420333731
1.420517638
1.421191944
1.422057831
1.421991359
1.421198256
1.419283693
1.414317331
1.409145684
1.409042331
1.410812889
1.411766874
1.412366361
1.416150139
1.418308421
1.41887567
1.419048875
1.418422129
1.417962575
1.418534603
1.419492266
1.419238051
1.417081388
1.412589178
1.407970869
1.407799252
1.409249942
1.410313638
1.411154631
1.412006975
1.415597455
1.416407344
1.416025361
1.41538601
1.414368683
1.41359144
1.413614147
1.413442784
1.412387418
1.410216073
1.407733722
1.40728639
1.408108566
1.409791527
1.41092061
1.411672965
1.412036941
1.413844038
1.41318291
1.412042065
1.411275346
1.410398726
1.409960183
1.409713504
1.408903443
1.40811615
1.407811675
1.407684279
1.407774851
)
;

boundaryField
{
    inlet
    {
        type            calculated;
        value           nonuniform 0();
    }
    outlet
    {
        type            calculated;
        value           nonuniform List<scalar> 
31
(
1.262436215
1.26337061
1.263933098
1.265309269
1.267718895
1.272094953
1.279325675
1.289553915
1.299865582
1.310242097
1.321358185
1.332311807
1.341224304
1.349025762
1.358393722
1.368889849
1.379334372
1.390407692
1.399272106
1.405828733
1.40998663
1.411179602
1.410100857
1.410153371
1.411239725
1.412196795
1.412366447
1.412135861
1.411786921
1.411929821
1.264404286
)
;
    }
    bottom
    {
        type            calculated;
        value           nonuniform 0();
    }
    top
    {
        type            calculated;
        value           nonuniform 0();
    }
    obstacle
    {
        type            calculated;
        value           nonuniform 0();
    }
    defaultFaces
    {
        type            empty;
    }
    procBoundary23to17
    {
        type            processor;
        value           nonuniform List<scalar> 
20
(
1.267312521
1.267387734
1.266203985
1.257924074
1.258176282
1.257710699
1.257231062
1.256673395
1.256474875
1.256512582
1.256474408
1.256969351
1.258326028
1.260333861
1.261408232
1.262065553
1.262425602
1.263517286
1.264734406
1.264734406
)
;
    }
    procBoundary23to22
    {
        type            processor;
        value           nonuniform List<scalar> 
32
(
1.256713731
1.257224018
1.25891511
1.26338242
1.268521477
1.274580745
1.281819082
1.289977657
1.298805197
1.298805197
1.309224807
1.320054591
1.331489744
1.342794161
1.353293037
1.363634353
1.372675562
1.380280403
1.387864017
1.395194135
1.402749693
1.409127962
1.413253226
1.414902639
1.414902639
1.414455642
1.414148478
1.413807391
1.413511778
1.413389559
1.413628889
1.414077963
)
;
    }
    procBoundary23to28
    {
        type            processor;
        value           uniform 1.413720641;
    }
    procBoundary23to29
    {
        type            processor;
        value           nonuniform List<scalar> 
18
(
1.409175362
1.410648174
1.411308894
1.412143763
1.412364923
1.410454176
1.409394604
1.408814968
1.408574692
1.408029106
1.407553865
1.407011031
1.406096105
1.405959708
1.406195154
1.40708124
1.409175362
1.408525714
)
;
    }
}


// ************************************************************************* //
