/*--------------------------------*- C++ -*----------------------------------*\
  =========                 |
  \\      /  F ield         | OpenFOAM: The Open Source CFD Toolbox
   \\    /   O peration     | Website:  https://openfoam.org
    \\  /    A nd           | Version:  7
     \\/     M anipulation  |
\*---------------------------------------------------------------------------*/
FoamFile
{
    version     2.0;
    format      ascii;
    class       volVectorField;
    location    "2.7";
    object      U;
}
// * * * * * * * * * * * * * * * * * * * * * * * * * * * * * * * * * * * * * //

dimensions      [0 1 -1 0 0 0 0];

internalField   nonuniform List<vector> 
80000
(
(3 2.310791065e-17 0)
(3 -4.238979027e-16 0)
(3 8.481684812e-16 0)
(3 1.947000477e-15 0)
(3 2.433524626e-15 0)
(3 4.779538805e-15 0)
(3 4.997832131e-15 0)
(3 3.456302761e-15 0)
(3 2.992479527e-15 0)
(3 1.285014955e-15 0)
(3 1.078430406e-15 0)
(3 1.954490785e-15 0)
(3 1.287093042e-15 0)
(3 7.015644533e-16 0)
(3 1.021598898e-15 0)
(3 -1.523082558e-16 0)
(3 -6.37653476e-17 0)
(3 -5.386014751e-16 0)
(3 -2.919371272e-15 0)
(3 -3.213300625e-15 0)
(3 -1.115442647e-15 0)
(3 -1.055173929e-16 0)
(3 -4.860913871e-16 0)
(3 -1.846014922e-15 0)
(3 -2.707824532e-15 0)
(3 -2.567487599e-15 0)
(3 -1.169160917e-15 0)
(3 1.358818749e-15 0)
(3 2.349059682e-15 0)
(3 1.141804929e-15 0)
(3 1.647727405e-16 0)
(3 -5.261907342e-16 0)
(3 -2.691093774e-15 0)
(3 -2.484316665e-15 0)
(3 1.00473485e-15 0)
(3 3.665924565e-15 0)
(3 4.165898132e-15 0)
(3 2.658687489e-15 0)
(3 2.449294224e-15 0)
(3 8.222893219e-16 0)
(3 -5.374331022e-18 0)
(3 -7.142247924e-16 0)
(3 -1.909092046e-15 0)
(3 1.030211505e-18 0)
(3 -2.313131599e-16 0)
(3 -1.375521832e-15 0)
(3 -1.974706558e-15 0)
(3 -8.812133326e-16 0)
(3 5.091833561e-16 0)
(3 -2.670915018e-16 0)
(3 -1.078684588e-15 0)
(3 -2.344593606e-15 0)
(3 -3.975480806e-16 0)
(3 2.073989171e-15 0)
(3 2.478417321e-15 0)
(3 1.009671839e-15 0)
(3 1.154380328e-15 0)
(3 3.904356286e-16 0)
(3 -9.233016685e-16 0)
(3 -2.654179647e-15 0)
(3 -3.449224785e-15 0)
(3 -1.827917995e-15 0)
(3 -9.029237428e-16 0)
(3 1.585959847e-16 0)
(3 1.296273591e-15 0)
(3 3.514721322e-15 0)
(3 3.881980498e-15 0)
(3 2.313455862e-15 0)
(3 -1.132419386e-16 0)
(3 -1.664816301e-15 0)
(3 -9.065787554e-16 0)
(3 1.525252884e-15 0)
(3 1.734914737e-15 0)
(3 -1.256996262e-15 0)
(3 -2.054839958e-15 0)
(3 -1.168021763e-15 0)
(3 2.725834747e-16 0)
(3 -6.20694966e-16 0)
(3 -2.050202925e-15 0)
(3 -2.537942012e-15 0)
(3 -8.180966337e-16 0)
(3 -2.250471921e-15 0)
(3 -2.864925447e-15 0)
(3 -2.111355374e-15 0)
(3 -3.010508072e-15 0)
(3 -3.620067449e-15 0)
(3 -1.942394163e-15 0)
(3 -1.284928677e-15 0)
(3 -8.053776921e-16 0)
(3 -1.86868397e-15 0)
(3 -1.719383289e-15 0)
(3 -1.409015333e-15 0)
(3 -1.418679419e-15 0)
(3 -3.354095879e-15 0)
(3 -3.153888084e-15 0)
(3 -3.61472884e-15 0)
(3 -2.852548476e-15 0)
(3 -2.602030046e-15 0)
(3 -2.594010539e-15 0)
(3 -6.573007673e-16 0)
(3 1.376480157e-16 0)
(3 2.869445495e-16 0)
(3 1.181697941e-15 0)
(3 2.686942236e-15 0)
(3 3.392380201e-15 0)
(3 4.511392886e-15 0)
(3 4.012465325e-15 0)
(3 4.369687108e-15 0)
(3 3.734077991e-15 0)
(3 2.073445703e-15 0)
(3 2.11411822e-15 0)
(3 2.1446909e-15 0)
(3 2.069869493e-15 0)
(3 2.171317444e-15 0)
(3 1.87841458e-15 0)
(3 2.898912814e-16 0)
(3 -1.456102116e-15 0)
(3 -1.453824276e-15 0)
(3 -2.337441925e-15 0)
(3 -2.34253978e-15 0)
(3 -2.672517048e-16 0)
(3 1.771376304e-15 0)
(3 9.200062667e-16 0)
(3 -2.875548296e-16 0)
(3 -2.313666856e-16 0)
(3 -4.830115923e-16 0)
(3 -7.791221396e-16 0)
(3 1.393933378e-15 0)
(3 1.815897358e-15 0)
(3 2.325113683e-16 0)
(3 -2.544539386e-17 0)
(3 -8.431388399e-16 0)
(3 -1.284259485e-15 0)
(3 -1.247574104e-15 0)
(3 2.886648881e-15 0)
(3 7.100812199e-15 0)
(3 8.997645163e-15 0)
(3 7.157628768e-15 0)
(3 4.732560185e-15 0)
(3 6.264033802e-17 0)
(3 -2.569739841e-15 0)
(3 -3.724817803e-15 0)
(3 -1.166484304e-15 0)
(3 8.144541081e-16 0)
(3 1.865137495e-15 0)
(3 1.67945306e-15 0)
(3 4.038494098e-16 0)
(3 1.004833477e-15 0)
(3 -3.833458782e-16 0)
(3 -7.254500809e-16 0)
(3 -9.850040775e-16 0)
(3 -2.775468002e-15 0)
(3 -3.015644669e-15 0)
(3 1.52970568e-15 0)
(3 2.820208088e-15 0)
(3 6.367025683e-16 0)
(3 7.116507813e-16 0)
(3 2.841152547e-16 0)
(3 -3.163182535e-15 0)
(3 -5.723232714e-15 0)
(3 -6.638599639e-15 0)
(3 -2.166783788e-15 0)
(3 1.500517336e-15 0)
(3 2.977908009e-15 0)
(3 4.171697193e-15 0)
(3 6.353024047e-15 0)
(3 6.339901576e-15 0)
(3 5.725658449e-15 0)
(3 2.712400071e-15 0)
(3 -5.370111083e-17 0)
(3 -3.494857525e-16 0)
(3 -1.563945865e-16 0)
(3 -1.80936396e-15 0)
(3 -4.447717722e-15 0)
(3 -2.851305526e-15 0)
(3 -2.334491037e-15 0)
(3 -1.155388873e-15 0)
(3 -3.306325039e-16 0)
(3 -1.824763406e-15 0)
(3 -2.490080504e-15 0)
(3 -2.546084194e-15 0)
(3 -5.286593129e-15 0)
(3 -5.463543054e-15 0)
(3 -4.645164325e-15 0)
(3 -3.642747913e-15 0)
(3 -5.402041665e-15 0)
(3 -2.588016976e-15 0)
(3 -7.606727566e-16 0)
(3 -2.573100673e-16 0)
(3 -9.114556461e-16 0)
(3 -1.048972611e-15 0)
(3 -1.065058286e-15 0)
(3 -1.385361977e-15 0)
(3 -6.317447728e-15 0)
(3 -5.426182473e-15 0)
(3 -5.890458181e-15 0)
(3 -3.145463328e-15 0)
(3 -1.729930579e-15 0)
(3 -5.774730055e-16 0)
(3 3.518067909e-16 0)
(3 -5.112530538e-16 0)
(3 2.022734511e-16 0)
(3 -6.594597682e-17 0)
(3 1.185396575e-15 0)
(3 1.522468732e-15 0)
(3 1.520632371e-15 0)
(3 1.699553075e-15 0)
(3 3.868484877e-15 0)
(3 3.488774871e-15 0)
(3 1.963953104e-15 0)
(3 7.605522396e-16 0)
(3 1.527661081e-16 0)
(3 1.047329171e-15 0)
(3 8.057186161e-16 0)
(3 -9.317001006e-16 0)
(3 -3.097441696e-16 0)
(3 -2.019557013e-15 0)
(3 -3.752085804e-16 0)
(3 1.623832463e-16 0)
(3 -3.369346107e-18 0)
(3 4.361522467e-16 0)
(3 1.532705264e-15 0)
(3 1.740304634e-15 0)
(3 1.383356102e-15 0)
(3 8.366929577e-16 0)
(3 1.351259889e-15 0)
(3 9.858575825e-16 0)
(3 3.508795472e-16 0)
(3 -2.580891182e-16 0)
(3 1.613995925e-15 0)
(3 1.171610699e-15 0)
(3 6.774664676e-16 0)
(3 2.579988406e-15 0)
(3 3.250898807e-15 0)
(3 4.982673555e-15 0)
(3 7.39545338e-15 0)
(3 7.705574092e-15 0)
(3 5.033572696e-15 0)
(3 3.15156162e-15 0)
(3 2.113254924e-15 0)
(3 -4.538927441e-16 0)
(3 -6.789985194e-16 0)
(3 5.232578352e-16 0)
(3 -4.44746899e-16 0)
(3 -1.403718327e-15 0)
(3 -1.39104865e-15 0)
(3 -1.607408907e-15 0)
(3 -1.600084498e-15 0)
(3 -8.265875903e-16 0)
(3 -9.887021966e-17 0)
(3 1.077600153e-15 0)
(3 1.512025455e-15 0)
(3 7.056463585e-16 0)
(3 1.477705156e-15 0)
(3 1.03382719e-15 0)
(3 1.123858189e-15 0)
(3 7.802664715e-16 0)
(3 -2.543626228e-15 0)
(3 -7.901486066e-15 0)
(3 -7.978540267e-15 0)
(3 -9.418814342e-15 0)
(3 -6.80548328e-15 0)
(3 -3.847011866e-15 0)
(3 -1.091374103e-15 0)
(3 -5.586889448e-16 0)
(3 1.845280054e-15 0)
(3 3.534681909e-15 0)
(3 5.411883949e-15 0)
(3 4.815375951e-15 0)
(3 5.401137135e-15 0)
(3 1.14605041e-15 0)
(3 7.739443431e-16 0)
(3 1.595577628e-15 0)
(3 2.017509245e-15 0)
(3 -6.374810997e-16 0)
(3 -2.565480355e-15 0)
(3 -4.254908622e-15 0)
(3 -3.739949456e-15 0)
(3 -3.564324256e-15 0)
(3 -3.505877362e-15 0)
(3 -4.947572384e-15 0)
(3 -4.577404427e-15 0)
(3 -4.297460643e-15 0)
(3 -4.826008443e-15 0)
(3 -5.290263213e-15 0)
(3 -4.510701003e-15 0)
(3 -5.598416721e-15 0)
(3 -4.096049796e-15 0)
(3 -3.42369508e-15 0)
(3 -1.668823879e-15 0)
(3 -2.512470264e-15 0)
(3 -3.286511214e-15 0)
(3 -3.686859745e-15 0)
(3 -5.472547494e-15 0)
(3 -4.934658376e-15 0)
(3 -5.66867848e-15 0)
(3 -5.207188988e-15 0)
(3 -4.110975747e-15 0)
(3 -2.533180506e-15 0)
(3 -2.108241939e-15 0)
(3 1.57142898e-16 0)
(3 -2.871697116e-16 0)
(3 -1.391124913e-15 0)
(3 2.332177604e-16 0)
(3 1.008862478e-15 0)
(3 8.115455614e-16 0)
(3 5.761130213e-16 0)
(3 3.025056031e-17 0)
(3 -5.795299773e-16 0)
(3 -1.00522509e-15 0)
(3 5.78843391e-16 0)
(3 6.660155613e-16 0)
(3 8.139010879e-16 0)
(3 7.884951002e-16 0)
(3 -4.582018766e-16 0)
(3 -4.918687105e-16 0)
(3 -9.184121751e-17 0)
(3 8.04776203e-16 0)
(3 8.518824228e-16 0)
(3 3.537987509e-16 0)
(3 -1.57148699e-15 0)
(3 -6.889105163e-16 0)
(3 9.726975019e-16 0)
(3 7.484732502e-16 0)
(3 -1.138573781e-15 0)
(3 -9.126306719e-16 0)
(3 -1.231921575e-15 0)
(3 -1.523124911e-15 0)
(3 -4.902418082e-16 0)
(3 8.287324407e-16 0)
(3 1.512240386e-15 0)
(3 1.540482739e-15 0)
(3 1.928876429e-15 0)
(3 2.342840693e-15 0)
(3 5.876841457e-15 0)
(3 7.846911156e-15 0)
(3 6.18504429e-15 0)
(3 3.511436897e-15 0)
(3 2.081154888e-15 0)
(3 2.997647418e-16 0)
(3 -2.391647306e-15 0)
(3 2.065983199e-16 0)
(3 6.353104124e-16 0)
(3 2.670678547e-16 0)
(3 -2.432622353e-15 0)
(3 -4.21804491e-15 0)
(3 -4.169527264e-15 0)
(3 -3.445529928e-15 0)
(3 4.738088508e-16 0)
(3 2.248087165e-15 0)
(3 4.51616706e-15 0)
(3 5.204954084e-15 0)
(3 5.954536195e-15 0)
(3 4.358408115e-15 0)
(3 1.093199818e-15 0)
(3 -4.791601628e-16 0)
(3 -1.730576516e-15 0)
(3 -5.800826404e-15 0)
(3 -9.651841278e-15 0)
(3 -9.306205748e-15 0)
(3 -9.786921005e-15 0)
(3 -7.726866529e-15 0)
(3 -6.69599032e-15 0)
(3 -6.025258067e-15 0)
(3 -3.305918484e-15 0)
(3 6.331990099e-16 0)
(3 3.079336513e-15 0)
(3 4.982112563e-15 0)
(3 4.034281877e-15 0)
(3 3.509601092e-15 0)
(3 2.631139713e-15 0)
(3 1.718489489e-15 0)
(3 2.24362879e-15 0)
(3 1.764878439e-15 0)
(3 1.031529739e-15 0)
(3 5.37464156e-16 0)
(3 -3.819532021e-16 0)
(3 -1.541562677e-15 0)
(3 -3.570111008e-15 0)
(3 -5.096119576e-15 0)
(3 -4.816584682e-15 0)
(3 -1.713744324e-15 0)
(3 -1.618291344e-15 0)
(3 -1.949548963e-15 0)
(3 -2.826341255e-15 0)
(3 -3.646507744e-15 0)
(3 -4.395759934e-15 0)
(3 -3.079059181e-15 0)
(3 -1.370384936e-15 0)
(3 9.993674795e-17 0)
(3 -2.646957264e-15 0)
(3 -6.968034424e-15 0)
(3 -6.436258697e-15 0)
(3 -2.702301717e-15 0)
(3 -4.649150186e-15 0)
(3 -5.869966829e-15 0)
(3 -5.227595818e-15 0)
(3 -4.054255797e-15 0)
(3 -3.221414227e-15 0)
(3 -2.439163147e-15 0)
(3 -1.617012644e-16 0)
(3 -1.15118802e-15 0)
(3 -1.96025375e-15 0)
(3 -1.758161251e-15 0)
(3 -2.128722154e-15 0)
(3 -1.117407493e-15 0)
(3 -1.490886346e-15 0)
(3 -1.032132051e-15 0)
(3 -9.852642702e-16 0)
(3 6.950778266e-17 0)
(3 1.283097535e-15 0)
(3 1.918563654e-15 0)
(3 3.103970654e-15 0)
(3 2.774690171e-15 0)
(3 1.906115006e-16 0)
(3 -2.072161131e-15 0)
(3 9.383516454e-16 0)
(3 8.350217799e-16 0)
(3 3.306598614e-17 0)
(3 -2.461674692e-15 0)
(3 -2.872106377e-15 0)
(3 -2.145598825e-15 0)
(3 -1.788172478e-16 0)
(3 -4.289024849e-16 0)
(3 -3.561877623e-16 0)
(3 -1.209812936e-15 0)
(3 -2.476294642e-15 0)
(3 -1.756063081e-15 0)
(3 -1.29789512e-15 0)
(3 -7.554058963e-16 0)
(3 -3.447083092e-16 0)
(3 -8.472231992e-16 0)
(3 -5.298602742e-16 0)
(3 1.953441859e-15 0)
(3 3.32444546e-15 0)
(3 4.063177454e-15 0)
(3 1.165678914e-15 0)
(3 6.312014388e-16 0)
(3 5.29078246e-16 0)
(3 -1.464030447e-15 0)
(3 -3.114748994e-15 0)
(3 -3.520990957e-15 0)
(3 -2.816814583e-15 0)
(3 -2.410169499e-15 0)
(3 -3.396791643e-15 0)
(3 -5.890760559e-15 0)
(3 -2.034092059e-15 0)
(3 5.791609212e-16 0)
(3 2.791958199e-15 0)
(3 6.094851466e-15 0)
(3 7.540126612e-15 0)
(3 7.516742753e-15 0)
(3 7.58760574e-15 0)
(3 8.413700503e-15 0)
(3 7.121288014e-15 0)
(3 1.37321867e-15 0)
(3 -6.861888637e-16 0)
(3 -5.885272189e-15 0)
(3 -7.154898181e-15 0)
(3 -7.943216339e-15 0)
(3 -8.246775349e-15 0)
(3 -5.660575586e-15 0)
(3 -4.839215696e-15 0)
(3 -3.494733935e-15 0)
(3 -2.626053281e-15 0)
(3 -2.600145765e-15 0)
(3 -1.492056007e-16 0)
(3 2.458371664e-15 0)
(3 4.35305875e-15 0)
(3 3.189589306e-15 0)
(3 4.521530173e-15 0)
(3 3.157351123e-15 0)
(3 1.319381313e-15 0)
(3 1.311819804e-15 0)
(3 2.59670935e-15 0)
(3 4.789274508e-15 0)
(3 4.233748e-15 0)
(3 1.561902222e-15 0)
(3 1.019332338e-15 0)
(3 -1.446528829e-15 0)
(3 -4.830348094e-15 0)
(3 -4.465896811e-15 0)
(3 -5.994388456e-15 0)
(3 -5.150475008e-15 0)
(3 -3.9571491e-15 0)
(3 -3.535478162e-15 0)
(3 -2.410011694e-15 0)
(3 1.156434259e-16 0)
(3 8.851807946e-16 0)
(3 -5.646442528e-16 0)
(3 -1.918475578e-15 0)
(3 -1.767167321e-15 0)
(3 -2.889976349e-15 0)
(3 -3.894950801e-15 0)
(3 -7.346193272e-15 0)
(3 -8.199947686e-15 0)
(3 -7.065002835e-15 0)
(3 -5.474190916e-16 0)
(3 1.180733366e-15 0)
(3 8.248478116e-16 0)
(3 -6.04390528e-16 0)
(3 4.505225501e-16 0)
(3 1.227385576e-15 0)
(3 -1.51750304e-15 0)
(3 -1.632256783e-15 0)
(3 -6.320618475e-16 0)
(3 5.691135803e-16 0)
(3 1.220643201e-15 0)
(3 1.59816977e-15 0)
(3 2.817921319e-15 0)
(3 1.342980867e-15 0)
(3 4.757364381e-16 0)
(3 5.227412154e-16 0)
(3 -4.154366325e-16 0)
(3 -1.483277053e-15 0)
(3 -9.173734341e-16 0)
(3 -6.71380874e-16 0)
(3 -7.730370476e-16 0)
(3 -1.402146839e-15 0)
(3 -2.21182765e-15 0)
(3 -9.240028129e-16 0)
(3 -7.806061384e-16 0)
(3 -1.395193421e-15 0)
(3 -3.186587417e-15 0)
(3 -3.178783417e-15 0)
(3 -3.94742907e-15 0)
(3 -4.024887252e-15 0)
(3 -2.914838435e-15 0)
(3 -2.740935745e-15 0)
(3 -2.568387489e-15 0)
(3 -1.849893161e-15 0)
(3 -1.115730201e-15 0)
(3 1.807339079e-15 0)
(3 3.408721959e-15 0)
(3 1.535565162e-15 0)
(3 -8.293041106e-16 0)
(3 -1.586800619e-15 0)
(3 -7.46438395e-16 0)
(3 -1.353036164e-15 0)
(3 -2.039282827e-15 0)
(3 -3.783213373e-15 0)
(3 -6.455155543e-15 0)
(3 -5.790712615e-15 0)
(3 -5.890806218e-15 0)
(3 -4.462915949e-15 0)
(3 -5.152947659e-15 0)
(3 -9.846730579e-16 0)
(3 3.77169754e-15 0)
(3 5.176333614e-15 0)
(3 6.77309877e-15 0)
(3 8.709056425e-15 0)
(3 8.557974155e-15 0)
(3 1.003134439e-14 0)
(3 9.129647081e-15 0)
(3 8.824395111e-15 0)
(3 6.406657619e-15 0)
(3 -1.005848311e-15 0)
(3 -6.642721829e-15 0)
(3 -6.185581574e-15 0)
(3 -5.491002429e-15 0)
(3 -3.937373898e-15 0)
(3 -3.079311064e-15 0)
(3 -3.350767022e-15 0)
(3 -2.487107641e-15 0)
(3 -3.032823803e-15 0)
(3 -4.773669129e-15 0)
(3 -3.670146869e-15 0)
(3 -2.330102169e-15 0)
(3 -1.452899747e-15 0)
(3 -4.415179539e-16 0)
(3 8.989267504e-16 0)
(3 1.979462035e-15 0)
(3 3.301322225e-15 0)
(3 4.771620134e-15 0)
(3 6.393857096e-15 0)
(3 5.995970451e-15 0)
(3 5.074496853e-15 0)
(3 4.792674115e-15 0)
(3 2.379802442e-15 0)
(3 -2.148420123e-15 0)
(3 -6.505718097e-15 0)
(3 -9.346241619e-15 0)
(3 -9.525004744e-15 0)
(3 -9.773612258e-15 0)
(3 -7.73493897e-15 0)
(3 -3.370113083e-15 0)
(3 1.009310692e-15 0)
(3 1.250011791e-15 0)
(3 1.877835012e-16 0)
(3 -2.143188549e-15 0)
(3 -1.637546923e-15 0)
(3 -1.754048455e-15 0)
(3 -1.349842453e-15 0)
(3 -4.530590888e-15 0)
(3 -5.621709967e-15 0)
(3 -6.487608803e-15 0)
(3 -5.542588387e-15 0)
(3 -2.517645997e-15 0)
(3 2.411143591e-15 0)
(3 3.265672839e-15 0)
(3 6.834668592e-16 0)
(3 1.812316939e-15 0)
(3 1.528005599e-15 0)
(3 6.312125299e-16 0)
(3 3.153928105e-16 0)
(3 -6.81729747e-16 0)
(3 2.422706894e-16 0)
(3 -2.160305556e-16 0)
(3 6.159793214e-16 0)
(3 1.052838452e-15 0)
(3 1.672608605e-15 0)
(3 2.082411207e-16 0)
(3 -2.14507245e-15 0)
(3 -3.295505331e-15 0)
(3 -1.314870436e-15 0)
(3 5.765163882e-16 0)
(3 -3.049694344e-16 0)
(3 -4.638741752e-16 0)
(3 -5.02112811e-16 0)
(3 -3.821550099e-16 0)
(3 2.316741019e-16 0)
(3 -2.374840255e-16 0)
(3 -3.693593431e-15 0)
(3 -4.111739858e-15 0)
(3 -4.963334485e-15 0)
(3 -4.382902485e-15 0)
(3 -2.776806351e-15 0)
(3 -1.517385249e-15 0)
(3 -1.589140585e-15 0)
(3 1.68566754e-18 0)
(3 1.580808341e-15 0)
(3 4.112985427e-15 0)
(3 4.82904592e-15 0)
(3 4.198284789e-15 0)
(3 1.389628952e-15 0)
(3 -2.211994143e-15 0)
(3 -2.270043379e-15 0)
(3 -4.671345805e-16 0)
(3 -5.430470249e-16 0)
(3 -3.050447692e-15 0)
(3 -4.869628869e-15 0)
(3 -5.898764096e-15 0)
(3 -4.078363057e-15 0)
(3 -1.702889864e-15 0)
(3 8.449953594e-17 0)
(3 2.609090104e-16 0)
(3 1.381048091e-15 0)
(3 4.036073051e-15 0)
(3 7.435464588e-15 0)
(3 8.021115826e-15 0)
(3 8.397595242e-15 0)
(3 9.03901832e-15 0)
(3 1.12300782e-14 0)
(3 1.026532322e-14 0)
(3 8.855948763e-15 0)
(3 5.392168666e-15 0)
(3 1.734712446e-15 0)
(3 -1.177606805e-16 0)
(3 -2.068163488e-15 0)
(3 -1.311763053e-15 0)
(3 1.194111619e-15 0)
(3 1.368564846e-15 0)
(3 -9.626410183e-16 0)
(3 -1.188591165e-15 0)
(3 -2.427877115e-15 0)
(3 -1.669146025e-15 0)
(3 -1.997758051e-15 0)
(3 -5.046684167e-16 0)
(3 2.190057233e-17 0)
(3 3.166332529e-17 0)
(3 1.058589794e-15 0)
(3 3.339636705e-15 0)
(3 6.6615176e-15 0)
(3 9.503852532e-15 0)
(3 9.263121006e-15 0)
(3 7.071668571e-15 0)
(3 6.139519589e-15 0)
(3 5.168280784e-15 0)
(3 2.903242809e-15 0)
(3 1.314950299e-15 0)
(3 9.703364014e-16 0)
(3 -7.14248221e-15 0)
(3 -9.207958273e-15 0)
(3 -9.633935613e-15 0)
(3 -7.30469257e-15 0)
(3 -2.232229851e-15 0)
(3 -7.033149519e-16 0)
(3 -8.542124461e-16 0)
(3 -1.652915845e-15 0)
(3 -7.653233563e-16 0)
(3 -1.220628238e-15 0)
(3 -3.299876262e-15 0)
(3 -1.270954548e-15 0)
(3 -1.43138572e-15 0)
(3 -2.971456601e-15 0)
(3 -4.787985036e-15 0)
(3 -4.78533397e-15 0)
(3 5.255964392e-16 0)
(3 3.856604318e-15 0)
(3 4.047731804e-15 0)
(3 -1.403381061e-16 0)
(3 -2.036289116e-15 0)
(3 -2.348200551e-15 0)
(3 -9.662946671e-16 0)
(3 -2.24722871e-16 0)
(3 2.163091722e-16 0)
(3 -6.128020036e-16 0)
(3 -2.404348087e-15 0)
(3 -1.836981556e-15 0)
(3 -1.027195237e-15 0)
(3 -1.586698355e-16 0)
(3 1.673267998e-16 0)
(3 -1.626936322e-16 0)
(3 -6.052736012e-16 0)
(3 -7.301233365e-16 0)
(3 -1.139803503e-15 0)
(3 -1.349215048e-15 0)
(3 -2.380818887e-15 0)
(3 -2.680681498e-15 0)
(3 -1.684155765e-15 0)
(3 -2.059249823e-15 0)
(3 -3.607378274e-15 0)
(3 -4.04085652e-15 0)
(3 -4.517613646e-15 0)
(3 -4.448042643e-15 0)
(3 -3.009946085e-15 0)
(3 -1.319033314e-15 0)
(3 1.939431026e-16 0)
(3 1.616658527e-15 0)
(3 3.736624538e-15 0)
(3 3.306205928e-15 0)
(3 2.755148307e-15 0)
(3 2.644915972e-15 0)
(3 2.790813528e-15 0)
(3 2.53441835e-15 0)
(3 -9.746592125e-17 0)
(3 -1.326142199e-15 0)
(3 -9.525209545e-16 0)
(3 -2.463506525e-15 0)
(3 -3.179839242e-15 0)
(3 -4.079873699e-15 0)
(3 -4.424993524e-15 0)
(3 -3.7224736e-15 0)
(3 -2.401682237e-15 0)
(3 1.408166231e-15 0)
(3 2.221537225e-15 0)
(3 5.757175424e-15 0)
(3 7.464200459e-15 0)
(3 8.122406411e-15 0)
(3 8.606567935e-15 0)
(3 9.228693094e-15 0)
(3 1.05012053e-14 0)
(3 8.787944274e-15 0)
(3 7.795590299e-15 0)
(3 1.006771809e-14 0)
(3 1.019465103e-14 0)
(3 8.318794461e-15 0)
(3 5.838635017e-15 0)
(3 2.062414615e-15 0)
(3 -7.092340695e-16 0)
(3 -6.146928199e-16 0)
(3 -2.371829019e-16 0)
(3 -4.418623828e-16 0)
(3 -6.969833491e-17 0)
(3 -7.214823237e-16 0)
(3 -3.737333527e-16 0)
(3 -8.016959324e-16 0)
(3 -1.185090192e-15 0)
(3 -1.396141898e-16 0)
(3 -4.380831566e-16 0)
(3 1.409780776e-16 0)
(3 1.07090177e-15 0)
(3 3.339339029e-15 0)
(3 6.119122624e-15 0)
(3 6.924454551e-15 0)
(3 7.936077059e-15 0)
(3 6.306318186e-15 0)
(3 4.467083558e-15 0)
(3 3.164415945e-15 0)
(3 3.823470185e-15 0)
(3 3.988263345e-15 0)
(3 1.706521332e-15 0)
(3 -6.886129307e-15 0)
(3 -8.367389639e-15 0)
(3 -4.15118647e-15 0)
(3 -4.248913346e-16 0)
(3 -1.039678258e-15 0)
(3 -7.045462005e-16 0)
(3 -1.631240514e-15 0)
(3 -1.252626227e-15 0)
(3 -3.473853045e-15 0)
(3 -4.043551729e-15 0)
(3 -5.642790344e-16 0)
(3 1.165661281e-15 0)
(3 -9.848154755e-16 0)
(3 -4.786256998e-15 0)
(3 -3.911125783e-15 0)
(3 1.750614678e-15 0)
(3 2.411212093e-15 0)
(3 3.698052694e-15 0)
(3 -4.598534504e-16 0)
(3 -9.289952869e-16 0)
(3 -6.376442646e-16 0)
(3 1.406613603e-16 0)
(3 9.998303082e-16 0)
(3 1.748257203e-15 0)
(3 1.881831593e-15 0)
(3 1.174545748e-15 0)
(3 -1.719896504e-15 0)
(3 -1.755819548e-15 0)
(3 -1.958737498e-15 0)
(3 -9.504700905e-16 0)
(3 4.354423319e-16 0)
(3 9.066348192e-17 0)
(3 -1.864236356e-15 0)
(3 -2.09647595e-15 0)
(3 -2.621482651e-15 0)
(3 -3.264270194e-15 0)
(3 -3.472696571e-15 0)
(3 -3.644806589e-15 0)
(3 -5.673542469e-15 0)
(3 -5.124137814e-15 0)
(3 -3.968164056e-15 0)
(3 -2.863547168e-15 0)
(3 -2.034875918e-15 0)
(3 -1.329907636e-15 0)
(3 -1.441967722e-16 0)
(3 3.469663941e-16 0)
(3 1.320197992e-15 0)
(3 8.861271119e-16 0)
(3 1.097910053e-15 0)
(3 6.472998453e-16 0)
(3 2.324379971e-15 0)
(3 2.823764185e-15 0)
(3 2.218089413e-15 0)
(3 6.142879899e-16 0)
(3 2.905421613e-16 0)
(3 -1.876314957e-15 0)
(3 -4.272126841e-15 0)
(3 -3.632867305e-15 0)
(3 -3.898190492e-15 0)
(3 -2.243979653e-15 0)
(3 -2.378873181e-15 0)
(3 -1.966381478e-15 0)
(3 8.90304535e-16 0)
(3 5.357354326e-15 0)
(3 4.947393729e-15 0)
(3 3.801566019e-15 0)
(3 3.812866557e-15 0)
(3 5.532171446e-15 0)
(3 8.867517243e-15 0)
(3 9.712680036e-15 0)
(3 8.722894393e-15 0)
(3 8.0383128e-15 0)
(3 6.927168426e-15 0)
(3 7.748387943e-15 0)
(3 9.076328805e-15 0)
(3 9.857283781e-15 0)
(3 8.837777364e-15 0)
(3 5.244290933e-15 0)
(3 -2.024756069e-15 0)
(3 -1.183640886e-15 0)
(3 1.405710852e-16 0)
(3 5.486193453e-16 0)
(3 2.170408018e-15 0)
(3 2.083571648e-15 0)
(3 8.255979075e-16 0)
(3 -1.535774164e-15 0)
(3 -3.120951102e-15 0)
(3 -1.723914268e-16 0)
(3 -3.290447341e-16 0)
(3 -1.948150462e-16 0)
(3 -6.046597579e-16 0)
(3 -8.579526312e-16 0)
(3 1.398331993e-15 0)
(3 6.340459327e-15 0)
(3 6.892813081e-15 0)
(3 5.397829365e-15 0)
(3 4.933022148e-15 0)
(3 3.299339276e-15 0)
(3 1.39379665e-15 0)
(3 -1.438850811e-16 0)
(3 -2.882678862e-15 0)
(3 -2.654588113e-15 0)
(3 5.119278802e-16 0)
(3 1.067041636e-15 0)
(3 1.060795484e-15 0)
(3 8.928321321e-16 0)
(3 -8.180558447e-16 0)
(3 -3.299287151e-15 0)
(3 -2.988114858e-15 0)
(3 -3.782233859e-15 0)
(3 -3.094652597e-15 0)
(3 -1.261120444e-15 0)
(3 -2.930362963e-15 0)
(3 -7.13262935e-15 0)
(3 -6.264555569e-15 0)
(3 -3.048062838e-15 0)
(3 -6.816828895e-16 0)
(3 1.459049591e-15 0)
(3 8.766746999e-18 0)
(3 -2.290046314e-16 0)
(3 9.620939945e-16 0)
(3 1.317162023e-15 0)
(3 1.448848392e-15 0)
(3 1.235443671e-15 0)
(3 2.0284525e-15 0)
(3 2.012865427e-15 0)
(3 2.000408513e-15 0)
(3 -1.717243486e-15 0)
(3 -3.504378436e-15 0)
(3 -2.680089854e-15 0)
(3 -2.702722193e-15 0)
(3 -3.097625163e-15 0)
(3 -3.264104285e-15 0)
(3 -3.793140892e-15 0)
(3 -4.430825378e-15 0)
(3 -4.16062925e-15 0)
(3 -3.415735648e-15 0)
(3 -4.886526292e-15 0)
(3 -6.648978298e-15 0)
(3 -6.800080869e-15 0)
(3 -4.622749659e-15 0)
(3 -2.664568419e-15 0)
(3 -1.454529099e-16 0)
(3 3.562433252e-16 0)
(3 6.760291682e-16 0)
(3 2.902816144e-16 0)
(3 -1.588386307e-16 0)
(3 -6.396036729e-16 0)
(3 4.594820975e-16 0)
(3 1.065311998e-15 0)
(3 9.048473292e-16 0)
(3 8.7982787e-16 0)
(3 5.75256716e-16 0)
(3 -2.404883874e-16 0)
(3 -1.684578975e-15 0)
(3 -2.886205959e-15 0)
(3 -2.858977374e-15 0)
(3 -3.257243245e-15 0)
(3 -2.367050957e-15 0)
(3 3.535245919e-17 0)
(3 -1.440010584e-16 0)
(3 2.164988677e-17 0)
(3 1.45748302e-15 0)
(3 4.736989728e-15 0)
(3 4.504419496e-15 0)
(3 4.30102209e-15 0)
(3 4.800936556e-15 0)
(3 5.296825148e-15 0)
(3 6.074296745e-15 0)
(3 5.073221091e-15 0)
(3 8.135895358e-15 0)
(3 9.307467066e-15 0)
(3 6.59846842e-15 0)
(3 6.053265989e-15 0)
(3 7.690298518e-15 0)
(3 7.767189458e-15 0)
(3 8.798160142e-15 0)
(3 8.313369898e-15 0)
(3 6.988916935e-15 0)
(3 3.716727034e-15 0)
(3 1.105314693e-15 0)
(3 -4.83790646e-16 0)
(3 1.097115414e-15 0)
(3 1.77662261e-15 0)
(3 1.455673963e-15 0)
(3 -5.570876521e-16 0)
(3 -1.304598082e-15 0)
(3 -2.89975373e-16 0)
(3 -4.937508446e-16 0)
(3 -3.38119667e-16 0)
(3 1.583767698e-15 0)
(3 2.467561871e-15 0)
(3 3.221716221e-16 0)
(3 1.393631906e-15 0)
(3 3.765391422e-15 0)
(3 5.429633282e-15 0)
(3 5.554227052e-15 0)
(3 4.742879778e-15 0)
(3 1.80808891e-15 0)
(3 -1.035593676e-15 0)
(3 -1.181949891e-15 0)
(3 3.02631582e-15 0)
(3 9.987853472e-16 0)
(3 -1.128075581e-17 0)
(3 9.577728995e-16 0)
(3 3.901105396e-16 0)
(3 -2.024385274e-15 0)
(3 -5.257535982e-15 0)
(3 -4.178426812e-15 0)
(3 -2.616601831e-15 0)
(3 -3.911233177e-15 0)
(3 -3.579810369e-15 0)
(3 -4.066624346e-15 0)
(3 -6.808906449e-15 0)
(3 -7.871131294e-15 0)
(3 -6.064553412e-15 0)
(3 -1.692146069e-15 0)
(3 8.074822832e-17 0)
(3 5.876679623e-16 0)
(3 2.253997852e-16 0)
(3 7.948792928e-16 0)
(3 5.011481601e-16 0)
(3 2.482691222e-16 0)
(3 9.836010306e-16 0)
(3 1.113476642e-15 0)
(3 1.186720126e-15 0)
(3 1.683732897e-15 0)
(3 1.352466151e-15 0)
(3 4.863849513e-17 0)
(3 -2.155343882e-15 0)
(3 -2.751693478e-15 0)
(3 -2.06862539e-15 0)
(3 -2.098145308e-15 0)
(3 -2.79299217e-15 0)
(3 -3.468814298e-15 0)
(3 -3.713342591e-15 0)
(3 -4.408168554e-15 0)
(3 -4.612199731e-15 0)
(3 -4.607182403e-15 0)
(3 -3.881050662e-15 0)
(3 -2.221387573e-15 0)
(3 -2.080540051e-15 0)
(3 -1.98938926e-15 0)
(3 -1.60974578e-15 0)
(3 -1.963579401e-15 0)
(3 -2.29728527e-15 0)
(3 -1.980198813e-15 0)
(3 -1.696363513e-15 0)
(3 -5.058458064e-16 0)
(3 4.778946711e-16 0)
(3 -1.448641905e-15 0)
(3 -1.116310825e-15 0)
(3 -1.68001341e-15 0)
(3 -2.441571295e-15 0)
(3 -4.488193028e-15 0)
(3 -3.472957707e-15 0)
(3 -3.028989695e-15 0)
(3 -3.223779295e-15 0)
(3 -2.585959914e-15 0)
(3 -1.392638746e-15 0)
(3 -1.096446205e-15 0)
(3 -4.253615269e-16 0)
(3 5.74989697e-16 0)
(3 3.142036776e-15 0)
(3 6.493402163e-15 0)
(3 7.963526335e-15 0)
(3 7.430285281e-15 0)
(3 6.035116349e-15 0)
(3 5.020918692e-15 0)
(3 4.49297885e-15 0)
(3 5.924535578e-15 0)
(3 8.513075239e-15 0)
(3 8.864472654e-15 0)
(3 7.126896144e-15 0)
(3 7.480976152e-15 0)
(3 7.072507137e-15 0)
(3 6.078689249e-15 0)
(3 6.3290886e-15 0)
(3 6.632330639e-15 0)
(3 4.78182564e-15 0)
(3 2.114086013e-15 0)
(3 2.222410181e-15 0)
(3 2.114247064e-15 0)
(3 1.402716803e-15 0)
(3 1.239546864e-15 0)
(3 -1.719086266e-17 0)
(3 -2.803151483e-15 0)
(3 -3.644647517e-15 0)
(3 -1.746563027e-15 0)
(3 -1.101816416e-16 0)
(3 9.958390377e-16 0)
(3 1.589011039e-15 0)
(3 1.384457639e-15 0)
(3 1.902075969e-15 0)
(3 2.698849537e-15 0)
(3 2.765102586e-15 0)
(3 3.246719371e-15 0)
(3 4.103778292e-15 0)
(3 4.459942189e-15 0)
(3 2.446332479e-15 0)
(3 4.240336586e-15 0)
(3 3.400881903e-15 0)
(3 1.224758304e-15 0)
(3 8.751319367e-16 0)
(3 -1.619546088e-16 0)
(3 -2.209166713e-15 0)
(3 -3.603032693e-15 0)
(3 -4.467559909e-15 0)
(3 -1.322729812e-15 0)
(3 -1.172213762e-15 0)
(3 -3.889111839e-15 0)
(3 -5.234830434e-15 0)
(3 -3.656025696e-15 0)
(3 -1.821755476e-15 0)
(3 -2.441627821e-15 0)
(3 -1.697979981e-15 0)
(3 -7.043651099e-16 0)
(3 5.306951031e-16 0)
(3 4.703247743e-16 0)
(3 1.099709312e-15 0)
(3 3.313760119e-16 0)
(3 3.511595047e-16 0)
(3 3.351618099e-16 0)
(3 3.288233528e-16 0)
(3 1.470775846e-16 0)
(3 1.066560187e-15 0)
(3 8.033906736e-16 0)
(3 1.430022046e-15 0)
(3 7.517123108e-16 0)
(3 -2.083799886e-15 0)
(3 -2.671332912e-15 0)
(3 -1.004680618e-15 0)
(3 -1.140555046e-15 0)
(3 -1.279259112e-15 0)
(3 -2.049221069e-15 0)
(3 -3.154290483e-15 0)
(3 -3.526054137e-15 0)
(3 -2.292851736e-15 0)
(3 -4.296653778e-16 0)
(3 3.321709723e-16 0)
(3 -7.346172824e-16 0)
(3 -2.217310063e-15 0)
(3 -2.228483147e-15 0)
(3 -2.117305781e-15 0)
(3 -2.371177555e-15 0)
(3 -2.429859744e-15 0)
(3 -2.515124795e-15 0)
(3 -2.094524751e-15 0)
(3 -2.544726734e-15 0)
(3 -6.048946327e-16 0)
(3 -2.975341829e-16 0)
(3 -3.278091484e-16 0)
(3 -2.29287714e-16 0)
(3 -8.222748708e-16 0)
(3 -1.09720673e-15 0)
(3 -2.062877006e-15 0)
(3 -3.603440617e-15 0)
(3 -3.404553226e-15 0)
(3 -3.117831196e-15 0)
(3 -3.844510632e-15 0)
(3 -3.279672678e-15 0)
(3 -1.406862823e-15 0)
(3 1.880299491e-16 0)
(3 1.496003557e-15 0)
(3 5.862330269e-15 0)
(3 6.114672782e-15 0)
(3 5.266875483e-15 0)
(3 5.427675341e-15 0)
(3 6.371984586e-15 0)
(3 6.950000958e-15 0)
(3 6.968529036e-15 0)
(3 7.519421768e-15 0)
(3 8.955258644e-15 0)
(3 8.740306968e-15 0)
(3 5.494524851e-15 0)
(3 5.793735298e-15 0)
(3 5.503790759e-15 0)
(3 6.04707273e-15 0)
(3 5.305780987e-15 0)
(3 6.209204669e-15 0)
(3 6.448740519e-15 0)
(3 6.621615929e-15 0)
(3 4.562096548e-15 0)
(3 3.180906603e-15 0)
(3 3.186355571e-15 0)
(3 2.574658688e-15 0)
(3 -3.531830331e-16 0)
(3 1.174671731e-16 0)
(3 -5.968758912e-16 0)
(3 -2.219829667e-15 0)
(3 -1.860422597e-15 0)
(3 -1.414942158e-15 0)
(3 -9.854668641e-17 0)
(3 1.362409467e-16 0)
(3 2.951415547e-15 0)
(3 5.617267761e-15 0)
(3 6.424478423e-15 0)
(3 6.197828186e-15 0)
(3 6.660219366e-15 0)
(3 7.804855762e-15 0)
(3 1.141869245e-14 0)
(3 7.223594787e-15 0)
(3 4.272282433e-15 0)
(3 3.46156946e-15 0)
(3 2.049629067e-15 0)
(3 -1.370088779e-15 0)
(3 -3.969962108e-15 0)
(3 -2.67945162e-15 0)
(3 -1.246531323e-15 0)
(3 7.384616417e-16 0)
(3 6.676955909e-16 0)
(3 -1.570646908e-15 0)
(3 -2.666284056e-15 0)
(3 -7.306853936e-16 0)
(3 2.359669641e-15 0)
(3 2.126051151e-15 0)
(3 1.445710789e-15 0)
(3 1.301520677e-15 0)
(3 -3.116165603e-17 0)
(3 1.555023398e-17 0)
(3 -1.111646267e-15 0)
(3 -6.915000034e-16 0)
(3 -1.559119283e-15 0)
(3 -2.899453117e-15 0)
(3 -2.268520608e-15 0)
(3 -4.086638166e-16 0)
(3 1.30708275e-15 0)
(3 2.415811393e-16 0)
(3 -2.183171544e-15 0)
(3 -2.762660452e-15 0)
(3 -1.755610259e-15 0)
(3 -3.404835058e-16 0)
(3 7.690850241e-16 0)
(3 9.783262904e-16 0)
(3 -5.884610928e-16 0)
(3 -1.817781237e-15 0)
(3 -7.134634543e-16 0)
(3 1.304018949e-16 0)
(3 -2.560941955e-16 0)
(3 -6.959407117e-18 0)
(3 -3.473589584e-16 0)
(3 -1.295690083e-15 0)
(3 -8.990705276e-16 0)
(3 -1.3385464e-15 0)
(3 -1.789425303e-15 0)
(3 -6.356150887e-16 0)
(3 9.377521299e-17 0)
(3 -6.226526672e-16 0)
(3 -1.852529139e-15 0)
(3 -2.673194357e-15 0)
(3 7.322326477e-17 0)
(3 5.251961522e-16 0)
(3 1.770343418e-16 0)
(3 1.67190913e-16 0)
(3 1.223945788e-15 0)
(3 6.706398263e-16 0)
(3 -2.772242349e-15 0)
(3 -4.799415063e-15 0)
(3 -4.665325913e-15 0)
(3 -3.642461525e-15 0)
(3 -1.695854614e-15 0)
(3 7.517648831e-17 0)
(3 2.667648897e-15 0)
(3 2.182805417e-15 0)
(3 1.595212419e-15 0)
(3 3.786611952e-15 0)
(3 3.641543768e-15 0)
(3 4.569044674e-15 0)
(3 2.347905313e-15 0)
(3 3.317517452e-15 0)
(3 4.096970041e-15 0)
(3 4.735279836e-15 0)
(3 4.829772067e-15 0)
(3 5.401327968e-15 0)
(3 2.878825421e-15 0)
(3 3.212547071e-15 0)
(3 4.8648053e-15 0)
(3 6.124577209e-15 0)
(3 7.409564782e-15 0)
(3 7.633051439e-15 0)
(3 7.327876339e-15 0)
(3 6.169844351e-15 0)
(3 3.657501081e-15 0)
(3 2.495319397e-15 0)
(3 2.765289434e-15 0)
(3 1.917775534e-15 0)
(3 7.00282632e-16 0)
(3 -6.998488589e-16 0)
(3 -1.770967887e-15 0)
(3 -2.705094805e-15 0)
(3 -2.069918893e-15 0)
(3 -2.007494824e-15 0)
(3 -1.068390348e-15 0)
(3 8.445381529e-16 0)
(3 5.341183611e-15 0)
(3 5.952055847e-15 0)
(3 9.947269017e-15 0)
(3 1.157497795e-14 0)
(3 1.083615777e-14 0)
(3 1.283538617e-14 0)
(3 1.488955047e-14 0)
(3 1.027801512e-14 0)
(3 7.14678981e-15 0)
(3 4.150700652e-15 0)
(3 1.956053386e-15 0)
(3 -1.466835062e-15 0)
(3 -3.072637871e-15 0)
(3 -2.727952257e-15 0)
(3 -2.259162624e-15 0)
(3 8.745066177e-16 0)
(3 2.805002942e-15 0)
(3 2.020375841e-15 0)
(3 -2.486961237e-15 0)
(3 -3.861911394e-15 0)
(3 -2.063292074e-15 0)
(3 -2.678318556e-15 0)
(3 -2.062993446e-15 0)
(3 1.363506999e-15 0)
(3 -1.411137586e-16 0)
(3 1.713250462e-16 0)
(3 -7.165005051e-16 0)
(3 -2.157146789e-15 0)
(3 -3.518917193e-15 0)
(3 -3.430526324e-15 0)