/*--------------------------------*- C++ -*----------------------------------*\
  =========                 |
  \\      /  F ield         | OpenFOAM: The Open Source CFD Toolbox
   \\    /   O peration     | Website:  https://openfoam.org
    \\  /    A nd           | Version:  7
     \\/     M anipulation  |
\*---------------------------------------------------------------------------*/
FoamFile
{
    version     2.0;
    format      ascii;
    class       volScalarField;
    location    "0.9";
    object      T;
}
// * * * * * * * * * * * * * * * * * * * * * * * * * * * * * * * * * * * * * //

dimensions      [0 0 0 1 0 0 0];

internalField   nonuniform List<scalar> 
2222
(
1.09824294
1.098290902
1.097436738
1.09605076
1.095145267
1.095054214
1.095518701
1.095768993
1.095653472
1.095464914
1.09513095
1.095117221
1.095591295
1.095883207
1.096100476
1.096172997
1.095955632
1.095126071
0.9607445067
1.052216005
1.089139899
1.099924002
1.100221639
1.097551606
1.094477198
1.092671006
1.091674961
1.091701121
1.093518097
1.095252693
1.095072327
1.094762769
1.094722713
1.094761401
1.094721965
1.094523989
1.094232166
1.0944846
1.094889362
1.09493756
1.094286827
0.940207609
1.020636249
1.071608384
1.092009668
1.096275909
1.094080668
1.089769921
1.087353107
1.086995588
1.088933643
1.091152078
1.092103218
1.092562764
1.092662579
1.092868723
1.093248405
1.093103355
1.092424128
1.092219182
1.092481479
1.09315493
1.093386251
1.092932139
0.9314756487
0.9961547068
1.057364895
1.081993171
1.087813501
1.085897774
1.084132825
1.082723071
1.083921017
1.085749685
1.086337978
1.086931916
1.087802261
1.088802555
1.089723256
1.090265346
1.090182576
1.089717237
1.089486358
1.090253455
1.090965554
1.091135923
1.090725697
0.9273044235
0.9736267125
1.038279401
1.072513513
1.079588663
1.077616922
1.07713125
1.078641923
1.080841734
1.08113417
1.080820487
1.081356403
1.0826565
1.084406526
1.08556951
1.085896703
1.085986537
1.086065631
1.086614884
1.087374155
1.087614313
1.087701886
1.087365508
0.9249138442
0.9517680468
1.007359385
1.055949845
1.073411141
1.0723499
1.073143697
1.07530596
1.076128549
1.075601727
1.075782096
1.076353391
1.078255652
1.079713728
1.080487913
1.080823349
1.081236606
1.081886902
1.082739942
1.083177744
1.083368459
1.08343209
1.083282965
1.082848818
0.9210539417
0.9411288973
0.9887877631
1.04088828
1.066757341
1.070227403
1.071614279
1.07160768
1.070538087
1.069508587
1.070193708
1.072047729
1.0738818
1.074758454
1.075160822
1.075487512
1.076079461
1.076760664
1.077294592
1.0776554
1.078136556
1.07871687
1.07870145
1.078319266
0.917774251
0.9372355447
0.9788060624
1.03235712
1.061751109
1.06867098
1.069646262
1.068469582
1.065099124
1.064420396
1.065588454
1.067648298
1.068773773
1.069316719
1.069709634
1.070364846
1.070926628
1.071316278
1.071435447
1.071660401
1.07224979
1.073165301
1.073533678
1.073399658
0.9166783658
0.9301754518
0.9617810352
1.018535097
1.057835909
1.064827833
1.065691474
1.062489046
1.060700396
1.060481497
1.061832266
1.062660358
1.063260499
1.063446699
1.064181067
1.065261709
1.065933055
1.066141828
1.065929663
1.065893631
1.066496524
1.067372175
1.067781243
1.06783034
0.915104602
0.9210627856
0.9422762118
0.9905442076
1.046595601
1.059476987
1.058698244
1.056088829
1.056208519
1.057384046
1.057687859
1.05777895
1.057309337
1.0580508
1.058848092
1.059800884
1.060365669
1.060336387
1.060322503
1.060626201
1.061219435
1.061724271
1.061907113
1.061790249
0.9121110543
0.917462384
0.931066229
0.9669589913
1.020453938
1.04928821
1.04992371
1.05061909
1.052459106
1.053045777
1.052879525
1.051837577
1.05220428
1.053081186
1.05381491
1.054253778
1.054540176
1.054655882
1.054819405
1.055513301
1.055904656
1.0562172
1.05607888
1.05574256
0.9109016777
0.9161161789
0.9229845826
0.9527472459
0.9957931691
1.032270759
1.043555865
1.046642059
1.048067224
1.047812274
1.046519253
1.046289278
1.047151163
1.048312948
1.048813596
1.048879413
1.048791201
1.048952818
1.049469619
1.04996003
1.050289255
1.050480704
1.050310394
1.04968947
1.049146941
0.9109860994
0.9140395172
0.9169972356
0.9375050951
0.9798998389
1.019291114
1.037938018
1.04243881
1.042826626
1.041443782
1.040020298
1.040661614
1.041983238
1.04279256
1.043227552
1.043321503
1.043372603
1.043596538
1.043883125
1.044275742
1.044269711
1.044246333
1.044085211
1.043739222
1.043301652
0.9092319904
0.9112257926
0.9120963808
0.9207901846
0.961263721
1.010498818
1.032484734
1.036570502
1.036565089
1.034273192
1.033915231
1.035185475
1.036160577
1.036704605
1.037012078
1.037465238
1.037703331
1.037928355
1.038172588
1.038120725
1.0378573
1.037965462
1.038043474
1.037991687
1.037903134
0.9089364939
0.9087842203
0.9081194563
0.912376271
0.9395568706
0.9915343953
1.02445341
1.029956911
1.028280782
1.027634051
1.028095858
1.029148627
1.029449545
1.029352722
1.029910824
1.030946381
1.031827299
1.032116188
1.031948599
1.031697509
1.031814761
1.032053606
1.032179956
1.032387391
1.032480574
0.9081649919
0.9069311932
0.9053569126
0.9067226868
0.9231218101
0.9653567722
1.008207952
1.019771012
1.020301307
1.02149688
1.022536122
1.022823208
1.022167903
1.022503977
1.023460645
1.024517295
1.025335759
1.02566614
1.02554062
1.025659168
1.026119878
1.026447813
1.026606697
1.026827867
1.026822199
0.9068868734
0.9055519452
0.9010768568
0.8986591998
0.9100315039
0.9469877885
0.9870130945
1.008244099
1.014397132
1.016754261
1.017053165
1.016046091
1.015903947
1.016893755
1.017910826
1.018666588
1.019124854
1.019456529
1.019592066
1.020013033
1.02070209
1.020936524
1.021029644
1.021270516
1.021100755
0.9059566634
0.9043913138
0.8981705674
0.8922069046
0.8974609208
0.9294944055
0.9704793979
0.9982399075
1.00988445
1.011987037
1.011074295
1.010290866
1.010852994
1.012104208
1.01297923
1.013401367
1.013662111
1.013958628
1.014231719
1.014812776
1.015354327
1.015347971
1.015460885
1.01537227
1.015035043
0.9043259297
0.9035202576
0.8970331356
0.889019944
0.8887172662
0.9087758329
0.9563143899
0.9903255084
1.005075701
1.007412815
1.005461301
1.005707164
1.006669848
1.007767116
1.008260864
1.008490019
1.00881234
1.009189115
1.009531474
1.009994721
1.010094789
1.009908294
1.010101327
1.009873314
1.0095242
1.009510905
0.9030650317
0.9026813461
0.896256997
0.8866412382
0.8827766625
0.8943955814
0.9361148848
0.9810464196
1.000411704
1.001935347
1.001029764
1.002037456
1.002903203
1.003284291
1.003326262
1.003763111
1.004375548
1.00495345
1.005322328
1.005382085
1.005266
1.005228301
1.005486634
1.005283927
1.00495741
1.004843041
0.9026147239
0.9019309836
0.8954852418
0.8842369344
0.8778954659
0.8859842528
0.9170974655
0.9670517072
0.9930026705
0.9966280623
0.9974901338
0.9987161995
0.9988710918
0.9984735946
0.9986253565
0.9994448034
1.00034306
1.001003769
1.001260146
1.001212575
1.001315943
1.001564691
1.001874051
1.0018661
1.001637064
1.001529569
0.9031963485
0.901369039
0.8951520949
0.8825935351
0.8733646615
0.8773335826
0.9045364593
0.9507301437
0.9823418749
0.992550343
0.9945006998
0.9953241346
0.9948833598
0.994541424
0.9951804139
0.9959428786
0.9967290753
0.9972565958
0.9975456758
0.9977757195
0.9981901267
0.9987051724
0.9990918108
0.9992853716
0.9991787904
0.9991466071
0.9030980391
0.900921566
0.8946801833
0.881498999
0.8695499016
0.8683666282
0.8896648867
0.9356447113
0.9738788396
0.9890853977
0.9919742756
0.9923438017
0.9919185989
0.9924125329
0.9931845508
0.9938132914
0.9940793187
0.9943187754
0.9945916017
0.9950260794
0.9956868305
0.9963258868
0.9967721637
0.9971215765
0.9972282293
0.9973310121
0.9030128942
0.9007161794
0.8943918239
0.8808988766
0.8666874147
0.8621691592
0.874078478
0.9168362781
0.9623792224
0.9842215204
0.9898084463
0.9901414539
0.9902923413
0.9912617319
0.992081576
0.9924845979
0.9924591615
0.9926456263
0.9930089903
0.99349671
0.994016225
0.9945949764
0.9950567281
0.995463629
0.9956623917
0.9958663722
0.9028435992
0.9006188994
0.8940165133
0.87992926
0.8645174962
0.8577130815
0.864201734
0.8946519622
0.9459843512
0.978318395
0.9872682198
0.988551766
0.9894689602
0.990607396
0.9913122884
0.9914190303
0.9914343307
0.9918087804
0.9923335788
0.9928187224
0.99326162
0.9938147457
0.9943299742
0.9946504292
0.9945231343
0.994661206
0.9949211299
0.9021132678
0.9003181606
0.893407452
0.8790179482
0.8627315108
0.8539043704
0.8579423982
0.8811732868
0.9291176355
0.9703738899
0.9843062097
0.9876086457
0.9891510134
0.9900537676
0.9901477951
0.9901083732
0.9905290948
0.9912544033
0.991895847
0.9924313987
0.9929460518
0.9933295695
0.9938500545
0.9941348122
0.993842649
0.9938592399
0.9940188764
0.9019798954
0.8999335983
0.893217448
0.8785577362
0.8617045231
0.8509165417
0.851919693
0.8731613242
0.9195173217
0.9651223744
0.983516815
0.9874573025
0.9883810161
0.9884308247
0.9881463167
0.9886600037
0.9896359833
0.9905982285
0.9913658998
0.9919669751
0.992501537
0.9928941086
0.9934732003
0.9938372172
0.9936380686
0.9934826081
0.9934058985
0.9022948149
0.8999720411
0.8933015411
0.8789626605
0.8612239941
0.8487043456
0.8469263461
0.8620498024
0.9096900023
0.9621558637
0.9839004952
0.9871232386
0.9871709116
0.9866838961
0.9871529812
0.9883544123
0.9893835153
0.9901988395
0.9906937708
0.9912567197
0.9919382451
0.9925121459
0.9930541696
0.9936084505
0.993630436
0.9933731775
0.9931980298
0.9033743237
0.9004414779
0.8938522764
0.8792008051
0.8607839288
0.8471063207
0.8433585387
0.8514094414
0.887829475
0.9456638079
0.9778132415
0.9850921851
0.9861163178
0.986585603
0.9875866988
0.9889170982
0.9898115549
0.9902080287
0.9905482076
0.9909289905
0.9914844505
0.9921089213
0.992777352
0.9934582319
0.993522237
0.9933593879
0.9932299247
0.90460543
0.9012732071
0.8943701901
0.8793167797
0.8602205377
0.8454766386
0.8403838231
0.8451564109
0.8680550945
0.9192822037
0.9630540078
0.9808521916
0.9859223314
0.9873090194
0.9887834654
0.989933134
0.9905515851
0.9904797533
0.990745001
0.9912374807
0.9917081925
0.9923154116
0.9930410026
0.9938322425
0.993965179
0.9936119944
0.9936213612
0.9059261413
0.9023807137
0.8951313129
0.8796178239
0.8596188344
0.843948036
0.837911228
0.8409576909
0.859602513
0.9022580258
0.9509585307
0.9783411618
0.9868410931
0.9890290509
0.9901784924
0.9908546825
0.9908620075
0.9909591382
0.9914317457
0.9920153623
0.9924712892
0.9929966272
0.9937321315
0.9945406588
0.9946587559
0.9942056489
0.9941821002
0.9069191138
0.9036298474
0.8958652692
0.8800737187
0.8592592938
0.8427085943
0.8361445913
0.8370246518
0.8533299049
0.8956761838
0.9478257643
0.9801698075
0.989055159
0.9903461399
0.991068703
0.9910477328
0.9911346641
0.9916553914
0.9923109522
0.9927266825
0.993174177
0.9937384671
0.9945771522
0.9952474189
0.9953246153
0.994650684
0.9946587485
0.994874551
0.9077584698
0.9047134738
0.8962708115
0.8803416029
0.8591387
0.8417784985
0.8346246254
0.8345416743
0.8444332226
0.8836455489
0.942133073
0.9800041387
0.9900734341
0.9912867055
0.9909498562
0.9909447738
0.9916494028
0.9922630192
0.992806507
0.9932228071
0.9935085091
0.9941027424
0.9950672635
0.9956004556
0.9955835547
0.9949758781
0.9950714746
0.9951925585
0.9085984685
0.9054492997
0.8967507235
0.880512511
0.8591586276
0.8413457731
0.8334030358
0.832807473
0.8389132101
0.8651153223
0.9239335283
0.9742750823
0.9898730468
0.9910915027
0.9906770063
0.9915690625
0.9924171561
0.9929629382
0.9931967406
0.9933771394
0.9938677015
0.9946905252
0.9954612486
0.9958588694
0.9960487533
0.9955804074
0.9955110648
0.9954699492
0.9091337595
0.9058538773
0.8971795203
0.8808346946
0.8595475117
0.8411901943
0.83251018
0.8313126858
0.8363223731
0.8554384869
0.9025199195
0.9589162257
0.9848506919
0.9904686579
0.9918412538
0.9932832243
0.9941461759
0.9943284961
0.9940768039
0.9941978543
0.994615696
0.995428791
0.9959463863
0.9964217857
0.9967532354
0.9962871164
0.9960220723
0.9958300866
0.9099559413
0.9060098608
0.8974025208
0.8810987119
0.8603078436
0.8415798493
0.8318933983
0.8303210469
0.8337133886
0.8504060684
0.8894364549
0.9435323813
0.9785656085
0.9903446655
0.9939319947
0.9955292647
0.9959741394
0.9956540651
0.9956375175
0.9958161707
0.9962572052
0.9966966489
0.9971531174
0.9977964783
0.9982339156
0.9979019473
0.9973347024
0.9971912037
0.9116304465
0.9060334829
0.8974256963
0.8813022653
0.8608202515
0.8419437146
0.8315095646
0.8295823691
0.8313394419
0.8434594318
0.8793711404
0.9338422293
0.9735119206
0.9923796165
0.9964211424
0.9972358833
0.9971581991
0.997119257
0.9974552316
0.9978991908
0.9981667023
0.9984661068
0.9988231803
0.9996441513
1.000207078
0.9998365628
0.9991825017
0.9989812624
0.9121915512
0.9060880632
0.8973765486
0.8814899409
0.8610995012
0.8422503565
0.8314835906
0.8290484849
0.8302406378
0.8375445745
0.8642433417
0.9192996697
0.9714268529
0.9941000107
0.9980656125
0.9984164581
0.9981805941
0.9987179252
0.9993839119
0.9996556754
0.9999161984
1.000181599
1.00065571
1.00163247
1.002229544
1.001795925
1.001073775
1.000886372
1.000881441
0.9121550695
0.9065159085
0.8973322825
0.8815188674
0.861221362
0.8424846218
0.8313648817
0.8286675296
0.8296186529
0.8351486938
0.8542941886
0.9014398387
0.9650000463
0.9946254178
0.9989371818
0.9987297364
0.9993231723
1.00020421
1.000916223
1.001150921
1.001249908
1.0014909
1.002339897
1.003517439
1.003934677
1.003296755
1.002538685
1.002420706
1.002463144
0.9119717066
0.9065477023
0.8970653106
0.8813568099
0.861260811
0.8427498196
0.8313495173
0.8283122426
0.8291429787
0.8337944122
0.8492698027
0.8893744411
0.9510018768
0.9901168369
0.9979795525
0.9994165782
1.000813376
1.001931854
1.002234288
1.002157143
1.002299501
1.002766627
1.003827191
1.004914306
1.005136258
1.004421815
1.003803712
1.003802123
1.003916244
0.9115533294
0.9063003843
0.8964326717
0.8811385496
0.8612879005
0.8430107958
0.8315827796
0.8281688303
0.8286821956
0.8320767863
0.8444092543
0.8785573412
0.9373801012
0.9828268068
0.9968395341
1.000399399
1.002719714
1.003325161
1.003235093
1.003279823
1.003501103
1.00392507
1.00502267
1.005875061
1.005968311
1.005264156
1.0047615
1.004818852
1.004875739
0.9110336571
0.9057971506
0.8956876732
0.8807713112
0.8612830348
0.8432628955
0.8320139167
0.8280182668
0.8282416706
0.8309050756
0.8396001084
0.8658648561
0.9204172106
0.9724367494
0.9957376506
1.002385918
1.004267575
1.004481746
1.004306403
1.004356011
1.004638586
1.005178499
1.005833011
1.006283553
1.006636356
1.006146186
1.005679992
1.005709979
1.005877498
0.9109563511
0.9050473826
0.8949230205
0.880341361
0.8612484796
0.8435322418
0.8325975023
0.8283349269
0.8279211529
0.830428448
0.8374998665
0.8557471696
0.9004648588
0.9597363444
0.9934201479
1.004008052
1.005406702
1.00515415
1.005235317
1.005695101
1.006056172
1.006313957
1.006609021
1.006936845
1.007531692
1.00749235
1.006948292
1.006868557
1.006969689
0.911105991
0.9044125124
0.8943140403
0.8799363418
0.8611768
0.843792564
0.8332385909
0.8286962137
0.8277784329
0.8300647715
0.8364481904
0.8512485848
0.8860836139
0.9443081417
0.9906559015
1.004496461
1.005679676
1.005878805
1.006396784
1.006856774
1.006981544
1.007171219
1.007379388
1.007839024
1.008800352
1.009174408
1.008327229
1.007976666
1.007981706
0.9110997875
0.9042466392
0.8938205291
0.8795905031
0.8611738112
0.8438889622
0.8336103819
0.8289899946
0.8276350834
0.8298449028
0.8351849527
0.8475252353
0.8781952125
0.9321477498
0.9853530563
1.004183122
1.005601405
1.006595195
1.007485876
1.007650146
1.007578633
1.007663677
1.007977777
1.008841139
1.010146457
1.010475414
1.009328058
1.008879284
1.008872773
1.008846838
0.9110698357
0.9045127141
0.8936029325
0.8794539879
0.8611639584
0.8438722475
0.8337537295
0.8291960462
0.8277460787
0.8297971587
0.8341723031
0.8431038849
0.8688465465
0.923101734
0.9766653697
1.001200779
1.005903059
1.007591231
1.008217842
1.008021829
1.007921166
1.008103306
1.008594165
1.009846492
1.011037391
1.010935136
1.009732976
1.009298052
1.009288791
1.009262514
0.9110963376
0.9048821257
0.8937340544
0.8793813119
0.8609265971
0.8437160536
0.8337717852
0.829291035
0.8279559658
0.8298596108
0.8338165172
0.8406677664
0.8584365521
0.9075920607
0.9679532064
0.9980464102
1.006529527
1.008423283
1.008522408
1.008216187
1.008267065
1.00850983
1.009269104
1.01039149
1.011272069
1.01107057
1.009928007
1.009552461
1.009350944
1.00936295
0.9111780505
0.905088314
0.8940193138
0.8791696508
0.8603896038
0.8431383752
0.8336658479
0.8293337795
0.8280923586
0.8298931902
0.833734088
0.839747839
0.8524757967
0.8871142098
0.9499738885
0.9916790284
1.005903459
1.008639245
1.008393803
1.008523153
1.008808306
1.009186146
1.009711562
1.010532394
1.011219669
1.011037715
1.009921512
1.009544339
1.009605921
1.009738958
0.9113092312
0.9052356953
0.8940799448
0.8786834608
0.8593226789
0.8423896391
0.8333735305
0.829374923
0.8281841447
0.8298230512
0.8336520125
0.839101621
0.8494994744
0.8744077571
0.9268399423
0.9806030396
1.004209903
1.008612261
1.008531928
1.009241663
1.009497458
1.009644873
1.009892797
1.010512289
1.011030433
1.010858228
1.009991975
1.00975181
1.009856395
1.010132921
0.9115680824
0.9054650756
0.8940848206
0.8779743425
0.8582864614
0.8416088333
0.833101107
0.8294476003
0.8281971546
0.8296813351
0.8334309074
0.838381078
0.8466175667
0.8680445219
0.9118105933
0.9686339568
1.001512055
1.007845253
1.009051477
1.009997594
1.009839202
1.009663494
1.009797754
1.010296011
1.01066371
1.010858029
1.010302666
1.010173798
1.01030034
1.010547656
0.9121014909
0.9058745666
0.8940356924
0.8770874066
0.8571592707
0.8407225704
0.8329113174
0.8295702087
0.8282144856
0.8296760909
0.8333493912
0.8380231952
0.8442181824
0.8612964488
0.904516811
0.9607634805
0.9975307122
1.007578753
1.009894651
1.010037819
1.009689365
1.009519384
1.009625915
1.010109142
1.010634949
1.011435787
1.011098366
1.010721489
1.010744138
1.010895993
0.9123216309
0.9067013342
0.8942450053
0.8764717879
0.856026709
0.8398795153
0.8325374542
0.8295918444
0.8282677955
0.8297739219
0.8334787386
0.8379646677
0.8429934445
0.8546968004
0.8928881146
0.9547267287
0.9947651787
1.007904411
1.010319368
1.00978234
1.009421188
1.009474413
1.009702803
1.010260263
1.011286427
1.012245108
1.01172709
1.011040729
1.010943501
1.011008536
1.010995199
0.9122593371
0.9081731261
0.8950690642
0.8760079189
0.8549560629
0.8389193371
0.8320329349
0.8295319234
0.8286105401
0.8300167748
0.8336015438
0.8379951947
0.8423158269
0.8502987278
0.8757906051
0.9375445321
0.9897142599
1.007218433
1.009884069
1.009703025
1.009628457
1.009825463
1.010296514
1.011085287
1.012100861
1.012593023
1.01182677
1.011066665
1.0109756
1.01104557
1.011174719
0.9128517743
0.9099997269
0.896369245
0.8758286817
0.8539280021
0.837855808
0.8314178746
0.829423394
0.8289436439
0.8305173034
0.8337602885
0.8379607355
0.8416602216
0.8478325466
0.8653798362
0.9119412108
0.9729331317
1.002225091
1.008613358
1.009745167
1.010170698
1.010734146
1.011125122
1.011718621
1.012260596
1.01244813
1.011640078
1.01102799
1.010988712
1.011210135
1.011481516
0.9136426031
0.9117058418
0.8977852428
0.8758537437
0.853044571
0.8368704556
0.8307900081
0.8292502895
0.8290337495
0.8308932345
0.8340264952
0.837921699
0.8412563651
0.8461994555
0.8607269499
0.8955617366
0.951465162
0.9937778762
1.007482919
1.010215
1.011041199
1.011291286
1.011282733
1.011635091
1.012023367
1.01221303
1.011449203
1.011030429
1.011130653
1.011667463
1.011905967
0.9144599944
0.9132490894
0.8991531998
0.8761942384
0.8523932559
0.8360699108
0.8302443546
0.828996715
0.8290156792
0.8311179576
0.8343784175
0.8380253428
0.8411277036
0.8449550423
0.8560668314
0.8895099433
0.9416419582
0.9884075816
1.007269641
1.010977941
1.011454414
1.011142102
1.011040176
1.011328523
1.011631034
1.01210041
1.011590798
1.011211029
1.011442544
1.012016147
1.012062284
0.915648995
0.9147135554
0.9003333693
0.8764490769
0.8518394271
0.8354683537
0.8298232994
0.8287083529
0.8288743753
0.8312941632
0.8346899418
0.8381483386
0.8410575792
0.8439250088
0.8512389315
0.8797281693
0.9367928536
0.9874695744
1.008248152
1.011129855
1.011100939
1.010698869
1.01064638
1.010888864
1.011476389
1.012300876
1.012233223
1.011635916
1.011602318
1.01199614
1.011978657
0.916928529
0.9161076345
0.9011368357
0.8762828169
0.8514630701
0.8351435621
0.8295404027
0.8284999259
0.8287792588
0.8314783098
0.8348761324
0.838281755
0.8410891913
0.8433989086
0.8482049587
0.8664496193
0.9213009658
0.9815399497
1.006861103
1.010772169
1.010332182
1.010284645
1.010327747
1.010689798
1.01156385
1.012888071
1.012785523
1.011825419
1.01148218
1.01173935
1.011749542
0.9169926826
0.9173768636
0.9017499812
0.8761949296
0.8513459966
0.8350342548
0.8293855794
0.8283344958
0.8288277188
0.8317363617
0.8351313944
0.8384207225
0.8411304572
0.8431759137
0.846926617
0.8593527101
0.8984313205
0.9628114682
1.000810759
1.008628048
1.009843308
1.010121079
1.010265093
1.010921337
1.012004083
1.013152105
1.012843396
1.011721843
1.011334371
1.011512943
1.011626181
0.9172384867
0.9186037828
0.9024657417
0.8761953958
0.8513396631
0.8350349055
0.8293204109
0.8281973902
0.8289150727
0.8320520341
0.8354352775
0.8385572706
0.8411557522
0.8431058597
0.846192771
0.8558732567
0.8849390493
0.9413809241
0.9889630773
1.006057762
1.009642655
1.010356316
1.010897477
1.011480911
1.012117602
1.012988138
1.012608064
1.011552348
1.011316224
1.011523426
1.011936136
1.011864502
0.9179303181
0.91959713
0.9033248007
0.8763373997
0.85142711
0.8352835313
0.8293158279
0.8281618844
0.8289655144
0.8323249096
0.8359418104
0.8387365793
0.841183662
0.8431043809
0.8452471931
0.8523976591
0.8778639946
0.9279999681
0.9783821973
1.003768599
1.010271633
1.011036984
1.011476352
1.011613829
1.011900152
1.012519675
1.012275837
1.011441472
1.011381581
1.011829989
1.012407338
1.012209263
0.9184830014
0.9199215171
0.9035650056
0.8770656713
0.8518782374
0.8356305103
0.8293858607
0.8282747742
0.8290426807
0.8325579071
0.8364707575
0.8391297951
0.8413490177
0.8430215987
0.8444799534
0.8488683409
0.867292444
0.91609523
0.9738648659
1.00420552
1.011113157
1.011332438
1.011094386
1.011217065
1.011370582
1.011983563
1.012118726
1.011456707
1.011491813
1.012146135
1.012518014
1.012176922
0.91860051
0.9198778074
0.9034234684
0.8772850309
0.8521853771
0.8357594419
0.8295336447
0.8285532111
0.8290964914
0.8327256827
0.8368543878
0.8395598168
0.8415195392
0.8428900816
0.8441313162
0.8471944756
0.8592059275
0.8992257235
0.9640717586
1.002220905
1.01076255
1.011270732
1.01054963
1.010686238
1.011024071
1.011793616
1.012236929
1.011528552
1.011458184
1.012079683
1.012284985
1.011860603
0.9182924918
0.9193376332
0.9028540394
0.8770369482
0.8522742239
0.8359412287
0.8299231761
0.8287734741
0.8291759318
0.8328296957
0.8371224888
0.8398521451
0.8415577308
0.8427949352
0.8439066257
0.846551833
0.8556513592
0.8862679564
0.9461081762
0.9951061465
1.008978276
1.010356754
1.010400782
1.010493133
1.010952832
1.012065862
1.012559991
1.011637961
1.01137078
1.011762364
1.012090915
1.011614113
0.9169505642
0.9181752375
0.9019343009
0.8766956976
0.8523354263
0.8364114734
0.8303446509
0.8289290466
0.8293738244
0.8329006966
0.837329233
0.8400139381
0.8414993166
0.8427918092
0.8438418867
0.8458300678
0.8526748156
0.8771660529
0.9305041307
0.9833697169
1.004594602
1.009461135
1.010352683
1.010783371
1.011476253
1.012622554
1.012787642
1.011718817
1.011282541
1.01151875
1.012079995
1.011616252
0.9141691613
0.9165855157
0.9009276872
0.8764437278
0.8525659964
0.8369062074
0.8305284428
0.8290472254
0.8296115517
0.8330096102
0.8374013119
0.8400825075
0.8415181626
0.8428151156
0.8438279677
0.845220839
0.8494522149
0.8675459202
0.9156536163
0.9708083366
1.000664979
1.009090349
1.01076342
1.011451048
1.011949015
1.012535379
1.012714142
1.011652952
1.011273832
1.011467801
1.01215588
1.011818916
0.9119748648
0.9149649653
0.9002532111
0.8764256769
0.8528751857
0.837055424
0.8305864933
0.8292101084
0.8298614723
0.8331012033
0.8374137457
0.8401403571
0.8416585499
0.8432116314
0.8440734114
0.8449191684
0.8475655335
0.8589934225
0.8982249701
0.960307945
0.9984872758
1.010089119
1.01126576
1.011732849
1.011788883
1.012142506
1.012529279
1.01163277
1.011315691
1.011537104
1.012345394
1.0119928
1.011962933
0.9104806461
0.9139790065
0.899863301
0.876218399
0.8528854808
0.8369962034
0.8305657401
0.8293430448
0.8300224722
0.8331832444
0.8374873939
0.840319294
0.8422577833
0.8435514359
0.8441033097
0.8446726941
0.8466703663
0.8550108138
0.8846514953
0.9455185143
0.9945279268
1.010118633
1.011312049
1.011462615
1.011155314
1.011693881
1.012341005
1.011577226
1.01123694
1.011599687
1.012484943
1.012035244
1.011838482
0.9092405741
0.9134136108
0.8995186106
0.8757653635
0.8526444507
0.8367256754
0.8306508354
0.8294948509
0.8302194105
0.8333626103
0.8376223328
0.8406657182
0.8426477479
0.8435953684
0.8440264595
0.8446031742
0.8459937846
0.852463846
0.8763286662
0.9291279485
0.9868866416
1.009132311
1.011031637
1.010584887
1.010591291
1.011405124
1.01224895
1.011359831
1.010959855
1.011388133
1.012424599
1.012000696
1.011663075
0.9082437353
0.9121807554
0.8995362461
0.8750935618
0.8518310355
0.8364952677
0.8307165388
0.8296544622
0.8304223759
0.8336285284
0.837812783
0.8409047148
0.8427165447
0.8435273794
0.8439864738
0.8445981586
0.8456963586
0.8496957684
0.8679402055
0.9167418211
0.9743531579
1.003448194
1.00913624
1.009694109
1.010328261
1.01153009
1.012378882
1.011309005
1.010735837
1.011134275
1.012147182
1.011737731
1.011490454
0.9074457855
0.9102931527
0.8994903079
0.8743391803
0.8509705794
0.8362761631
0.8307401035
0.8298063216
0.8306225724
0.8339489409
0.8380249452
0.8410121225
0.8427002749
0.8434945244
0.8440046416
0.8447078555
0.8455072834
0.8480127559
0.8596506472
0.9003947949
0.9608438542
0.9968698832
1.007352067
1.009471055
1.010561347
1.011754032
1.012445368
1.011351692
1.010604226
1.010829267
1.0119002
1.011507482
1.011438427
0.9066413363
0.9085401092
0.8987279078
0.8732074269
0.8501152881
0.8359624722
0.8306539005
0.8299246917
0.8308287763
0.8342974815
0.8382349621
0.8410066088
0.8427359819
0.8436744033
0.844359734
0.8449802874
0.8454633627
0.8471999248
0.8551011194
0.8839222064
0.9454487668
0.9889609104
1.005859679
1.010192946
1.011055082
1.011702465
1.012291376
1.011369704
1.010420668
1.010559287
1.011772254
1.011546014
1.0115693
0.9058415351
0.9070975283
0.8977000453
0.8719668094
0.8492071914
0.8354002549
0.8304003261
0.8298742299
0.8310780323
0.8346455629
0.838503542
0.8411146593
0.8429251945
0.8440293775
0.8446447309
0.845026435
0.8453218078
0.8463739476
0.8526207282
0.8752703348
0.9268321572
0.9840072982
1.006847552
1.010847774
1.011157048
1.011239756
1.011877315
1.011243913
1.010273241
1.01037629
1.011835706
1.011764305
1.011617553
0.905203061
0.9060509556
0.8967236276
0.8708305075
0.8479046165
0.83470055
0.8298234104
0.8297346246
0.8313750401
0.8350206766
0.8387943282
0.8412581184
0.8431058246
0.8441275474
0.8446549129
0.8449392141
0.8451717538
0.8458231941
0.8499363063
0.868922115
0.913740762
0.975770935
1.005963877
1.010891074
1.010617419
1.010437881
1.01148048
1.011169964
1.01031528
1.010460923
1.011950019
1.011862324
1.01141949
0.9045783583
0.9052628455
0.8958355214
0.8691592373
0.846297711
0.8336124362
0.829372445
0.8297877867
0.8318033502
0.8354161234
0.8390849985
0.8413953462
0.843127052
0.8441175895
0.844614484
0.8448611351
0.8450875851
0.8456157569
0.8481452468
0.860833465
0.9035821934
0.9626706627
1.001917071
1.010355082
1.009159934
1.010152831
1.011361046
1.011467009
1.010380864
1.010565022
1.011917005
1.011725614
1.011089272
1.011483319
0.9042977969
0.9046386188
0.8949304927
0.8673703357
0.8441725931
0.8321802944
0.8289949142
0.8300031336
0.8321878392
0.8358111555
0.8393647282
0.8414339107
0.8432187818
0.8442154391
0.8446199731
0.844890917
0.845141662
0.8454590665
0.8472773176
0.8552598611
0.8875236833
0.9502633731
0.9928595098
1.006682705
1.008856705
1.010180979
1.011547416
1.011859989
1.010305991
1.010397875
1.011647713
1.011480028
1.010850053
1.011196625
0.9045971907
0.9042401347
0.8939973995
0.8657741984
0.8420632346
0.8310575616
0.8287029404
0.8298900407
0.8324318166
0.8362177716
0.8396302174
0.8415093623
0.843108789
0.8442772682
0.8448550524
0.8452324822
0.8454184657
0.8455502331
0.8465832542
0.8525136277
0.874558873
0.9317918328
0.9835788662
1.003446511
1.009157447
1.011028715
1.012086252
1.01206192
1.010139364
1.010052768
1.011303268
1.011329399
1.010753128
1.011055253
0.905585043
0.9040542898
0.8935055724
0.8646802189
0.8405345564
0.830163852
0.8283125243
0.8296839742
0.832685304
0.836658147
0.8399077598
0.8416026012
0.8431596748
0.8443912722
0.8451636405
0.8454517285
0.8455075981
0.8455406811
0.8460009099
0.8502735779
0.8680574622
0.9120975486
0.9731456233
1.000591197
1.010128327
1.011538161
1.012345579
0.9067677474
0.903855219
)
;

boundaryField
{
    inlet
    {
        type            fixedValue;
        value           nonuniform 0();
    }
    outlet
    {
        type            inletOutlet;
        inletValue      nonuniform 0();
        value           nonuniform 0();
    }
    bottom
    {
        type            slip;
    }
    top
    {
        type            slip;
    }
    obstacle
    {
        type            zeroGradient;
    }
    defaultFaces
    {
        type            empty;
    }
    procBoundary21to15
    {
        type            processor;
        value           nonuniform List<scalar> 
24
(
1.098406733
1.09822533
1.099669381
1.098434555
1.097105814
1.095626403
1.094932929
1.095335162
1.095533032
1.095428744
1.095172178
1.094995077
1.095587715
1.096578488
1.096783038
1.096721841
1.096413443
1.0954714
0.9822372888
1.091408826
1.103655369
1.105108588
1.101882786
1.101882786
)
;
    }
    procBoundary21to22
    {
        type            processor;
        value           nonuniform List<scalar> 
69
(
1.094086113
1.093300339
1.092110385
1.090022641
1.086803052
1.086803052
1.082182125
1.077717254
1.073057782
1.067550534
1.061456266
1.055224923
1.055224923
1.048570968
1.042785548
1.037584938
1.032477099
1.026827336
1.020934681
1.014995739
1.014995739
1.00943784
1.004789124
1.001371788
0.9990158061
0.9974177878
0.9961535069
0.9961535069
0.9952831089
0.9941157633
0.9933566598
0.9931335135
0.9932485579
0.9937045626
0.9943866135
0.9943866135
0.995048022
0.9952409493
0.995339449
0.9957614029
0.9972279246
0.9989466852
0.9989466852
1.000780256
1.002357252
1.003854256
1.004870652
1.006075111