/*--------------------------------*- C++ -*----------------------------------*\
  =========                 |
  \\      /  F ield         | OpenFOAM: The Open Source CFD Toolbox
   \\    /   O peration     | Website:  https://openfoam.org
    \\  /    A nd           | Version:  7
     \\/     M anipulation  |
\*---------------------------------------------------------------------------*/
FoamFile
{
    version     2.0;
    format      ascii;
    class       volVectorField;
    location    "0.6";
    object      U;
}
// * * * * * * * * * * * * * * * * * * * * * * * * * * * * * * * * * * * * * //

dimensions      [0 1 -1 0 0 0 0];

internalField   nonuniform List<vector> 
555
(
(3 1.655028888e-14 0)
(3 1.581074614e-14 0)
(3 1.627123723e-14 0)
(3 1.583143163e-14 0)
(3 1.363465084e-14 0)
(3 1.220643773e-14 0)
(3 1.058047106e-14 0)
(3 8.767464728e-15 0)
(3 7.589939539e-15 0)
(3 5.774431388e-15 0)
(3 4.644962127e-15 0)
(3 1.801652393e-15 0)
(3 -3.633649887e-15 0)
(3 -1.013809169e-14 0)
(3 -2.149124732e-14 0)
(3 -3.749523512e-14 0)
(3 -6.333506758e-14 0)
(3 -1.267407088e-13 0)
(3 -1.889995173e-13 0)
(3 -3.109111948e-13 0)
(3 -3.379826256e-13 0)
(3 -5.397136457e-13 0)
(3 -4.802889308e-13 0)
(3 -2.968510067e-10 0)
(3 1.949744867e-15 0)
(3 6.618880537e-15 0)
(3 7.867082412e-15 0)
(3 9.403593659e-15 0)
(3 9.760966501e-15 0)
(3 1.109988463e-14 0)
(3 1.311426914e-14 0)
(3 1.373312705e-14 0)
(3 1.303080103e-14 0)
(3 1.299184597e-14 0)
(3 1.164146592e-14 0)
(3 1.118750388e-14 0)
(3 1.166495142e-14 0)
(3 1.032133159e-14 0)
(3 7.615640373e-15 0)
(3 7.240541859e-15 0)
(3 7.03854772e-15 0)
(3 7.019465989e-15 0)
(3 6.052423561e-15 0)
(3 4.167461316e-15 0)
(3 2.709082496e-15 0)
(3 2.119962739e-15 0)
(3 2.396027056e-15 0)
(3 2.41260712e-15 0)
(3 1.676312783e-15 0)
(3 -1.710025875e-15 0)
(3 -6.301485072e-15 0)
(3 -1.670627877e-14 0)
(3 -4.152784902e-14 0)
(3 -7.988446328e-14 0)
(3 -1.215169963e-13 0)
(3 -1.713570807e-13 0)
(3 -5.143979628e-12 0)
(3 5.81992541e-15 0)
(3 5.854474456e-15 0)
(3 7.410828904e-15 0)
(3 9.470268003e-15 0)
(3 1.050522058e-14 0)
(3 1.081706508e-14 0)
(3 1.123368952e-14 0)
(3 1.179675945e-14 0)
(3 1.018272328e-14 0)
(3 9.088540227e-15 0)
(3 1.133738986e-14 0)
(3 8.931933334e-15 0)
(3 9.499877216e-15 0)
(3 7.788717516e-15 0)
(3 5.044356352e-15 0)
(3 4.341395971e-15 0)
(3 4.618165133e-15 0)
(3 5.394929969e-15 0)
(3 5.888788196e-15 0)
(3 2.772986895e-15 0)
(3 -1.942779675e-16 0)
(3 -3.734472076e-16 0)
(3 -1.378483415e-16 0)
(3 7.270104235e-16 0)
(3 1.415373432e-15 0)
(3 2.231849336e-15 0)
(3 2.521022244e-15 0)
(3 2.661052856e-15 0)
(3 1.762063586e-15 0)
(3 -1.75594592e-15 0)
(3 -6.100225607e-15 0)
(3 -1.664976128e-14 0)
(3 -5.25839395e-14 0)
(3 1.1135974e-14 0)
(3 9.006658389e-15 0)
(3 5.621514394e-15 0)
(3 5.889551708e-15 0)
(3 7.828352232e-15 0)
(3 1.052985868e-14 0)
(3 1.047999365e-14 0)
(3 8.680360623e-15 0)
(3 5.566521547e-15 0)
(3 1.491762021e-15 0)
(3 2.345591133e-15 0)
(3 2.385714757e-15 0)
(3 8.366453705e-16 0)
(3 2.680555511e-16 0)
(3 8.518849861e-16 0)
(3 1.875773993e-15 0)
(3 3.282603048e-15 0)
(3 3.212393163e-15 0)
(3 2.611989157e-15 0)
(3 1.616172269e-15 0)
(3 6.516528692e-16 0)
(3 8.153615263e-16 0)
(3 3.364153868e-16 0)
(3 9.40361176e-16 0)
(3 3.162289384e-15 0)
(3 4.945653718e-15 0)
(3 4.930682293e-15 0)
(3 4.719990659e-15 0)
(3 5.244506738e-15 0)
(3 5.907026335e-15 0)
(3 8.029780441e-15 0)
(3 8.394039998e-15 0)
(3 6.304491994e-15 0)
(3 1.186380679e-14 0)
(3 1.065566377e-14 0)
(3 7.12828331e-15 0)
(3 3.778133748e-15 0)
(3 5.132282911e-15 0)
(3 8.509589598e-15 0)
(3 9.611068446e-15 0)
(3 6.247141445e-15 0)
(3 4.33840374e-15 0)
(3 2.946248981e-15 0)
(3 9.7866698e-16 0)
(3 -3.364878896e-16 0)
(3 -1.526721668e-15 0)
(3 -1.411829127e-15 0)
(3 -1.687757538e-15 0)
(3 -1.753497754e-15 0)
(3 -2.56222294e-16 0)
(3 1.177195257e-15 0)
(3 7.754031834e-16 0)
(3 6.509858788e-16 0)
(3 1.086387475e-15 0)
(3 1.855847369e-15 0)
(3 2.253997416e-15 0)
(3 5.134466167e-15 0)
(3 6.035361886e-15 0)
(3 5.809312635e-15 0)
(3 6.621417217e-15 0)
(3 7.137754467e-15 0)
(3 8.046861831e-15 0)
(3 1.06102556e-14 0)
(3 1.291165672e-14 0)
(3 1.280465922e-14 0)
(3 1.041071781e-14 0)
(3 7.272054235e-15 0)
(3 7.343098509e-15 0)
(3 5.598632362e-15 0)
(3 4.515289032e-15 0)
(3 3.254006701e-15 0)
(3 1.089680088e-15 0)
(3 2.083595811e-16 0)
(3 1.418929215e-15 0)
(3 1.236100283e-15 0)
(3 8.585146372e-16 0)
(3 -9.290331983e-16 0)
(3 -1.409652071e-15 0)
(3 -9.774853075e-16 0)
(3 -9.275607224e-16 0)
(3 -7.400104742e-16 0)
(3 -1.378146398e-15 0)
(3 -3.464407698e-15 0)
(3 -5.140713707e-15 0)
(3 -5.629459073e-15 0)
(3 -6.206832048e-15 0)
(3 -4.544366834e-15 0)
(3 -3.41206246e-15 0)
(3 -2.40792447e-15 0)
(3 3.420285282e-16 0)
(3 2.51171885e-15 0)
(3 4.068204886e-15 0)
(3 6.894065385e-15 0)
(3 7.937174981e-15 0)
(3 8.924841258e-15 0)
(3 1.038501601e-14 0)
(3 1.151934187e-14 0)
(3 1.200295936e-14 0)
(3 8.783012613e-15 0)
(3 -2.750356323e-15 0)
(3 -2.023500377e-15 0)
(3 -1.105315637e-15 0)
(3 -9.59734543e-16 0)
(3 -2.101285293e-15 0)
(3 -5.029386961e-15 0)
(3 -4.618235825e-15 0)
(3 -3.848404052e-15 0)
(3 -5.876231677e-15 0)
(3 -6.970375825e-15 0)
(3 -7.633536461e-15 0)
(3 -7.220642364e-15 0)
(3 -6.989796393e-15 0)
(3 -5.487867111e-15 0)
(3 -4.686475328e-15 0)
(3 -5.108136038e-15 0)
(3 -8.324057202e-15 0)
(3 -1.085670209e-14 0)
(3 -1.11390103e-14 0)
(3 -1.188648533e-14 0)
(3 -9.631971097e-15 0)
(3 -7.800765202e-15 0)
(3 -5.195416118e-15 0)
(3 -1.057870172e-15 0)
(3 8.062607484e-16 0)
(3 3.65816994e-15 0)
(3 4.478341352e-15 0)
(3 4.779232795e-15 0)
(3 5.183727834e-15 0)
(3 7.71789077e-15 0)
(3 9.812501144e-15 0)
(3 1.167451791e-14 0)
(3 1.246237924e-14 0)
(3 -1.047910066e-14 0)
(3 -9.702956606e-15 0)
(3 -9.832859992e-15 0)
(3 -9.519955119e-15 0)
(3 -9.691470037e-15 0)
(3 -9.23430432e-15 0)
(3 -1.069381471e-14 0)
(3 -1.368192863e-14 0)
(3 -1.537525314e-14 0)
(3 -1.510524054e-14 0)
(3 -1.441375689e-14 0)
(3 -1.311399184e-14 0)
(3 -1.385339175e-14 0)
(3 -1.535165499e-14 0)
(3 -1.87333952e-14 0)
(3 -1.962553169e-14 0)
(3 -1.985334442e-14 0)
(3 -1.940208565e-14 0)
(3 -1.826820989e-14 0)
(3 -1.65289133e-14 0)
(3 -1.330414712e-14 0)
(3 -8.472708336e-15 0)
(3 -5.966362873e-15 0)
(3 -5.967890842e-15 0)
(3 -4.733092968e-15 0)
(3 -1.469002642e-15 0)
(3 -4.995920277e-16 0)
(3 -7.386139314e-16 0)
(3 -5.344831172e-16 0)
(3 1.774025628e-15 0)
(3 2.676984063e-15 0)
(3 3.797317207e-15 0)
(3 5.705274485e-15 0)
(3 -1.810226706e-14 0)
(3 -1.818678572e-14 0)
(3 -1.833482288e-14 0)
(3 -1.804248664e-14 0)
(3 -1.801751103e-14 0)
(3 -1.737104401e-14 0)
(3 -1.639007728e-14 0)
(3 -1.542058901e-14 0)
(3 -1.539001063e-14 0)
(3 -1.575258416e-14 0)
(3 -1.810201364e-14 0)
(3 -1.885164603e-14 0)
(3 -1.922731495e-14 0)
(3 -2.206322258e-14 0)
(3 -2.511595182e-14 0)
(3 -2.738361579e-14 0)
(3 -2.79392186e-14 0)
(3 -2.768605269e-14 0)
(3 -2.573288678e-14 0)
(3 -2.111833206e-14 0)
(3 -1.788143767e-14 0)
(3 -1.805230215e-14 0)
(3 -1.601984425e-14 0)
(3 -1.491262198e-14 0)
(3 -1.26937821e-14 0)
(3 -1.061854172e-14 0)
(3 -1.007505772e-14 0)
(3 -9.328527652e-15 0)
(3 -6.420980285e-15 0)
(3 -5.883064158e-15 0)
(3 -4.477914457e-15 0)
(3 -4.110691181e-15 0)
(3 -3.14150325e-15 0)
(3 -1.552459386e-14 0)
(3 -1.694667217e-14 0)
(3 -1.819003274e-14 0)
(3 -1.940539405e-14 0)
(3 -1.87076121e-14 0)
(3 -1.834510125e-14 0)
(3 -1.739082222e-14 0)
(3 -1.691194497e-14 0)
(3 -1.671142556e-14 0)
(3 -1.62525483e-14 0)
(3 -1.712534059e-14 0)
(3 -1.895813839e-14 0)
(3 -2.020054029e-14 0)
(3 -2.21690974e-14 0)
(3 -2.264083123e-14 0)
(3 -2.414908517e-14 0)
(3 -2.347594587e-14 0)
(3 -2.24799512e-14 0)
(3 -2.190310801e-14 0)
(3 -2.129029182e-14 0)
(3 -2.13950259e-14 0)
(3 -2.141092128e-14 0)
(3 -2.136875968e-14 0)
(3 -2.016039456e-14 0)
(3 -1.975524267e-14 0)
(3 -1.652702948e-14 0)
(3 -1.227060229e-14 0)
(3 -8.449393079e-15 0)
(3 -3.733475038e-15 0)
(3 -4.354664225e-15 0)
(3 -5.822493929e-15 0)
(3 -6.409310434e-15 0)
(3 -6.357922255e-15 0)
(3 -1.128614812e-14 0)
(3 -1.133030685e-14 0)
(3 -1.216583723e-14 0)
(3 -1.301025869e-14 0)
(3 -1.504702742e-14 0)
(3 -1.648315184e-14 0)
(3 -1.759745384e-14 0)
(3 -1.857167677e-14 0)
(3 -1.826240435e-14 0)
(3 -1.632737082e-14 0)
(3 -1.553484874e-14 0)
(3 -1.614961076e-14 0)
(3 -1.636833815e-14 0)
(3 -1.480825019e-14 0)
(3 -1.277702833e-14 0)
(3 -1.225264464e-14 0)
(3 -1.217586074e-14 0)
(3 -1.267604561e-14 0)
(3 -1.326839302e-14 0)
(3 -1.443029461e-14 0)
(3 -1.348895121e-14 0)
(3 -1.224304979e-14 0)
(3 -1.113995318e-14 0)
(3 -1.090766853e-14 0)
(3 -1.084927398e-14 0)
(3 -1.174594564e-14 0)
(3 -1.246209581e-14 0)
(3 -1.282224292e-14 0)
(3 -1.12139902e-14 0)
(3 -1.077155936e-14 0)
(3 -1.137382516e-14 0)
(3 -1.192093687e-14 0)
(3 -1.047514301e-14 0)
(3 -1.262655785e-14 0)
(3 -1.364690931e-14 0)
(3 -1.358379215e-14 0)
(3 -1.326704901e-14 0)
(3 -1.483647352e-14 0)
(3 -1.574800624e-14 0)
(3 -1.658105315e-14 0)
(3 -1.548249565e-14 0)
(3 -1.438928586e-14 0)
(3 -1.244987723e-14 0)
(3 -1.165407274e-14 0)
(3 -1.03096926e-14 0)
(3 -9.095716112e-15 0)
(3 -8.384009044e-15 0)
(3 -4.838588326e-15 0)
(3 -1.719268516e-15 0)
(3 -1.708848494e-15 0)
(3 -1.994509845e-15 0)
(3 -2.125548832e-15 0)
(3 -1.695482107e-15 0)
(3 -3.222384965e-15 0)
(3 -4.531825037e-15 0)
(3 -7.020647346e-15 0)
(3 -8.017950255e-15 0)
(3 -8.731214189e-15 0)
(3 -9.125589703e-15 0)
(3 -1.041347099e-14 0)
(3 -1.120061134e-14 0)
(3 -1.000345967e-14 0)
(3 -8.888368859e-15 0)
(3 -4.864309257e-15 0)
(3 -4.193494145e-15 0)
(3 -1.481809982e-15 0)
(3 -1.698663006e-14 0)
(3 -1.877337059e-14 0)
(3 -1.879098366e-14 0)
(3 -1.713961568e-14 0)
(3 -1.594345573e-14 0)
(3 -1.654354856e-14 0)
(3 -1.580457451e-14 0)
(3 -1.435646143e-14 0)
(3 -1.36513395e-14 0)
(3 -1.193729766e-14 0)
(3 -9.705758085e-15 0)
(3 -8.614677547e-15 0)
(3 -7.943535848e-15 0)
(3 -7.117226242e-15 0)
(3 -5.491426239e-15 0)
(3 -1.704811555e-15 0)
(3 1.847957509e-15 0)
(3 2.787366385e-15 0)
(3 2.390393716e-15 0)
(3 2.110934915e-15 0)
(3 -3.11488062e-16 0)
(3 -5.475295766e-15 0)
(3 -8.37694983e-15 0)
(3 -1.00093823e-14 0)
(3 -1.064995633e-14 0)
(3 -1.076758632e-14 0)
(3 -1.044033099e-14 0)
(3 -9.583364752e-15 0)
(3 -7.825699553e-15 0)
(3 -5.930398662e-15 0)
(3 -3.092012249e-15 0)
(3 -4.464717605e-16 0)
(3 3.884882415e-15 0)
(3 -1.427824393e-14 0)
(3 -1.399615896e-14 0)
(3 -1.447419748e-14 0)
(3 -1.530072031e-14 0)
(3 -1.464474862e-14 0)
(3 -1.286395799e-14 0)
(3 -1.208542657e-14 0)
(3 -1.110840829e-14 0)
(3 -9.308195126e-15 0)
(3 -8.848728058e-15 0)
(3 -9.24471875e-15 0)
(3 -1.015869813e-14 0)
(3 -7.805568784e-15 0)
(3 -6.421041515e-15 0)
(3 -8.081840115e-15 0)
(3 -9.161054958e-15 0)
(3 -8.155280358e-15 0)
(3 -6.69882204e-15 0)
(3 -5.778328991e-15 0)
(3 -5.916114851e-15 0)
(3 -7.472892702e-15 0)
(3 -8.070406348e-15 0)
(3 -7.850586416e-15 0)
(3 -8.17965894e-15 0)
(3 -9.440125212e-15 0)
(3 -1.013906794e-14 0)
(3 -9.052966967e-15 0)
(3 -6.86625193e-15 0)
(3 -4.314043617e-15 0)
(3 -1.653134325e-15 0)
(3 2.000033139e-15 0)
(3 5.150234507e-15 0)
(3 7.845828122e-15 0)
(3 -1.429387087e-14 0)
(3 -1.140334652e-14 0)
(3 -1.101812676e-14 0)
(3 -1.317679343e-14 0)
(3 -1.397015344e-14 0)
(3 -1.283201275e-14 0)
(3 -1.255714801e-14 0)
(3 -8.811746229e-15 0)
(3 -6.227078785e-15 0)
(3 -4.808956006e-15 0)
(3 -5.192820972e-15 0)
(3 -7.099923353e-15 0)
(3 -6.746433202e-15 0)
(3 -7.227823118e-15 0)
(3 -8.894548765e-15 0)
(3 -9.991990083e-15 0)
(3 -9.44783879e-15 0)
(3 -8.17426934e-15 0)
(3 -8.174374427e-15 0)
(3 -8.803574674e-15 0)
(3 -9.843800252e-15 0)
(3 -9.794605664e-15 0)
(3 -1.009863447e-14 0)
(3 -1.047959638e-14 0)
(3 -1.00447899e-14 0)
(3 -8.237160255e-15 0)
(3 -4.668439008e-15 0)
(3 -2.99057316e-15 0)
(3 -2.430507986e-15 0)
(3 -7.718158274e-16 0)
(3 3.949074861e-16 0)
(3 2.810911389e-15 0)
(3 3.143971296e-15 0)
(3 -5.482416231e-15 0)
(3 -6.035577278e-15 0)
(3 -7.405167307e-15 0)
(3 -7.925483553e-15 0)
(3 -6.417774525e-15 0)
(3 -6.306628676e-15 0)
(3 -5.12020249e-15 0)
(3 -5.285985144e-15 0)
(3 -5.548340241e-15 0)
(3 -7.368195293e-15 0)
(3 -6.955478275e-15 0)
(3 -6.203293956e-15 0)
(3 -5.828832792e-15 0)
(3 -6.573215613e-15 0)
(3 -4.218521316e-15 0)
(3 -4.185537097e-15 0)
(3 -4.069852433e-15 0)
(3 -4.864696391e-15 0)
(3 -5.614871214e-15 0)
(3 -6.622961329e-15 0)
(3 -5.9390736e-15 0)
(3 -6.345404808e-15 0)
(3 -7.117418088e-15 0)
(3 -7.90826732e-15 0)
(3 -8.620604519e-15 0)
(3 -7.249071842e-15 0)
(3 -6.163215366e-15 0)
(3 -4.65542297e-15 0)
(3 -3.094328883e-15 0)
(3 -3.021229206e-15 0)
(3 -3.617655929e-15 0)
(3 -4.319518012e-15 0)
(3 -4.373308247e-15 0)
(3 -4.937736011e-16 0)
(3 -2.848248793e-15 0)
(3 -2.791511896e-15 0)
(3 -2.679364262e-15 0)
(3 -1.351977462e-15 0)
(3 5.143543762e-16 0)
(3 7.526640158e-16 0)
(3 7.04435979e-16 0)
(3 5.017770034e-16 0)
(3 -7.022993565e-16 0)
(3 -2.236728495e-15 0)
(3 -3.335033327e-15 0)
(3 -3.295316522e-15 0)
(3 -3.097748186e-15 0)
(3 -2.108354411e-15 0)
(3 -2.972524937e-15 0)
(3 -3.566722583e-15 0)
(3 -5.883984541e-15 0)
(3 -6.75014486e-15 0)
(3 -6.477836156e-15 0)
(3 -5.957904375e-15 0)
(3 -5.210493916e-15 0)
(3 -4.15251635e-15 0)
(3 -4.412292276e-15 0)
(3 -4.853761939e-15 0)
(3 -5.018172559e-15 0)
(3 -5.964221357e-15 0)
(3 -7.226665724e-15 0)
(3 -7.004186636e-15 0)
(3 -6.611835175e-15 0)
(3 -6.706093574e-15 0)
(3 -7.669479461e-15 0)
(3 -8.219657316e-15 0)
(3 3.382517794e-15 0)
(3 3.536540871e-15 0)
(3 3.846808297e-15 0)
)
;

boundaryField
{
    inlet
    {
        type            fixedValue;
        value           nonuniform 0();
    }
    outlet
    {
        type            inletOutlet;
        inletValue      nonuniform 0();
        value           nonuniform 0();
    }
    bottom
    {
        type            slip;
    }
    top
    {
        type            slip;
    }
    obstacle
    {
        type            slip;
    }
    defaultFaces
    {
        type            empty;
    }
    procBoundary26to20
    {
        type            processor;
        value           nonuniform List<vector> 
34
(
(3 1.752548189e-14 0)
(3 1.77452582e-14 0)
(3 1.676788823e-14 0)
(3 1.566631715e-14 0)
(3 1.555080563e-14 0)
(3 1.376967923e-14 0)
(3 1.19209552e-14 0)
(3 7.999490229e-15 0)
(3 1.352004084e-15 0)
(3 -7.974318594e-15 0)
(3 -1.978973725e-14 0)
(3 -4.169715244e-14 0)
(3 -6.911440186e-14 0)
(3 -1.205389913e-13 0)
(3 -1.624084742e-13 0)
(3 -2.138377366e-13 0)
(3 -2.264386102e-13 0)
(3 -5.462651366e-13 0)
(3 -5.615542726e-13 0)
(3 -5.771158419e-13 0)
(3 -5.102563777e-13 0)
(3 -1.227796064e-12 0)
(3 2.564556003e-10 0)
(3.000000005 -3.765610511e-09 0)
(3 7.900561595e-15 0)
(3 9.621525181e-15 0)
(3 1.200911942e-14 0)
(3 1.313003862e-14 0)
(3 1.405761403e-14 0)
(3 1.495976698e-14 0)
(3 1.633171931e-14 0)
(3 1.615939751e-14 0)
(3 1.69344245e-14 0)
(3 1.69344245e-14 0)
)
;
    }
    procBoundary26to25
    {
        type            processor;
        value           nonuniform List<vector> 
16
(
(3 3.571884515e-16 0)
(3 4.41365968e-15 0)
(3 1.024627187e-14 0)
(3 1.149991023e-14 0)
(3 7.905630737e-15 0)
(3 -8.557378331e-17 0)
(3 -9.412775326e-15 0)
(3 -1.763792305e-14 0)
(3 -1.594820833e-14 0)
(3 -1.147663813e-14 0)
(3 -1.198895722e-14 0)
(3 -1.582083194e-14 0)
(3 -1.429747684e-14 0)
(3 -1.523465382e-14 0)
(3 -6.429175466e-15 0)
(3 -2.164071415e-16 0)
)
;
    }
    procBoundary26to27
    {
        type            processor;
        value           nonuniform List<vector> 4((2.999999963 8.091809997e-08 0) (3 6.218524061e-10 0) (3 1.9686925e-12 0) (3 8.536626513e-15 0));
    }
    procBoundary26to31
    {
        type            processor;
        value           uniform (3 3.713833346e-15 0);
    }
    procBoundary26to32
    {
        type            processor;
        value           nonuniform List<vector> 
34
(
(3 3.702014778e-15 0)
(3 4.270237945e-15 0)
(3 5.833885903e-15 0)
(3 6.641715521e-15 0)
(3 4.386715957e-15 0)
(3 3.179521407e-15 0)
(3 4.301508508e-15 0)
(3 3.122924158e-15 0)
(3 1.103516315e-15 0)
(3 5.146143747e-16 0)
(3 -1.73279631e-16 0)
(3 -2.37798595e-15 0)
(3 -3.448162848e-15 0)
(3 -4.060838123e-15 0)
(3 -4.726644642e-15 0)
(3 -4.332629977e-15 0)
(3 -4.732827981e-15 0)
(3 -6.357344645e-15 0)
(3 -8.256010459e-15 0)
(3 -9.093803227e-15 0)
(3 -9.880569851e-15 0)
(3 -9.271750371e-15 0)
(3 -1.10499543e-14 0)
(3 -1.012978572e-14 0)
(3 -9.26102933e-15 0)
(3 -6.888602976e-15 0)
(3 -4.53144401e-15 0)
(3 -4.595912358e-15 0)
(3 -3.844940022e-15 0)
(3 -3.672329132e-15 0)
(3 1.00340189e-14 0)
(3 1.103255721e-14 0)
(3 3.702014778e-15 0)
(3 1.121824262e-14 0)
)
;
    }
    procBoundary26to33
    {
        type            processor;
        value           nonuniform List<vector> 
13
(
(3 6.645713173e-15 0)
(3 6.804721493e-15 0)
(3 9.807888922e-15 0)
(3 6.870493484e-15 0)
(3 3.309395547e-15 0)
(3 2.828092465e-15 0)
(3 2.124131434e-16 0)
(3 2.844018184e-15 0)
(3 4.083134976e-15 0)
(3 5.109736251e-15 0)
(3 3.086158046e-15 0)
(3 -3.344480679e-15 0)
(3 -6.539411509e-15 0)
)
;
    }
}


// ************************************************************************* //
