/*--------------------------------*- C++ -*----------------------------------*\
  =========                 |
  \\      /  F ield         | OpenFOAM: The Open Source CFD Toolbox
   \\    /   O peration     | Website:  https://openfoam.org
    \\  /    A nd           | Version:  7
     \\/     M anipulation  |
\*---------------------------------------------------------------------------*/
FoamFile
{
    version     2.0;
    format      ascii;
    class       volScalarField;
    location    "2";
    object      p;
}
// * * * * * * * * * * * * * * * * * * * * * * * * * * * * * * * * * * * * * //

dimensions      [1 -1 -2 0 0 0 0];

internalField   nonuniform List<scalar> 
555
(
1
1
1
1
1
1
1
1
1
1
1
1
1
1
1
1
1
1
1
1
1
1
1
1
1
1
1
1
1
1
1
1
1
1
1
1
1
1
1
1
1
1
1
1
1
1
1
1
1
1
1
1
1
1
1
1
1
1
1
1
1
1
1
1
1
1
1
1
1
1
1
1
1
1
1
1
1
0.9999999991
1
1
1
1
1
1
1
1
1
1
1
1
1
1
1
1
1
1
1
1
1
1
1
1
1
1
1
1
1
1.000000001
1.000000006
1.000000271
0.9999999803
1
1
1
1
1
1
1
1
1
1
1
1
1
1
1
1
1
1
1
1
1
1
1
1
1
1.000000001
1.000000013
1.000000075
1.000000447
1.000001996
1.000008433
1.000056465
1.000019791
1
1
1
1
1
1
1
1
1
1
1
1
1
1
1
1
1
1
1
1
1
1.000000003
1.00000002
1.000000125
1.000000654
1.000003019
1.000012326
1.000044692
1.000144948
1.000431325
1.001114117
1.003016947
1.004684449
1
1
1
1
1
1
1
1
1
1
1
1
1
1
1
1
1.000000001
1.000000005
1.000000035
1.000000205
1.000001031
1.000004541
1.000017909
1.000062508
1.000198624
1.000559755
1.001462016
1.003442743
1.007328516
1.014843854
1.026468763
1.045516985
1.066635709
1
1
1
1
1
1
1
1
1
1
1
1
1.000000001
1.00000001
1.000000063
1.000000344
1.000001683
1.000007047
1.000026876
1.000089875
1.000277854
1.000752449
1.001908644
1.004355392
1.009139043
1.017609283
1.031126865
1.051964131
1.080417971
1.115964877
1.155467575
1.202560088
1.248549812
1
1
1
1
1
1
1
1
1.000000003
1.000000021
1.000000124
1.000000622
1.00000281
1.000011208
1.00004059
1.000130617
1.000392949
1.001026967
1.002563922
1.005607759
1.011458158
1.021399739
1.037311719
1.059553916
1.091322686
1.130572104
1.169360649
1.214826973
1.264027069
1.309643443
1.347561864
1.372058409
1.396141258
1
1
1
1.000000001
1.000000008
1.000000048
1.000000255
1.000001199
1.000005007
1.000018794
1.000065429
1.00019902
1.000561827
1.001451158
1.003363317
1.007241085
1.014492118
1.025856899
1.04522962
1.070830923
1.102240743
1.143705306
1.190115713
1.236117998
1.282854063
1.32226652
1.357532287
1.396294454
1.42157135
1.437873865
1.451194875
1.458399581
1.466250578
1.000000024
1.000000126
1.000000585
1.000002484
1.000009618
1.000033414
1.000107308
1.000313964
1.000827403
1.002049012
1.004646811
1.009450641
1.018455443
1.032475025
1.052942104
1.083767539
1.117991885
1.157395234
1.208639371
1.255479884
1.298400601
1.338913273
1.36707924
1.393918283
1.424048372
1.432388405
1.440104947
1.44780492
1.44898643
1.450713179
1.458230862
1.465466936
1.468707532
1.000019809
1.000063326
1.000184499
1.000512408
1.001300412
1.002954775
1.006479999
1.012739089
1.023081813
1.040818018
1.064010411
1.095009025
1.137718518
1.180799209
1.228366362
1.276559277
1.315752635
1.362284764
1.395783017
1.417409968
1.439533309
1.457974202
1.464540063
1.473208646
1.479945436
1.479798726
1.478577963
1.476861075
1.474301828
1.470536471
1.467792243
1.466282652
1.464978971
1.002049729
1.00441559
1.008934674
1.017384058
1.03010039
1.049897717
1.079087157
1.111030091
1.153551751
1.205184191
1.248055009
1.295359608
1.336010497
1.367114651
1.406347588
1.424213274
1.433331232
1.446241154
1.451616645
1.454471761
1.459840483
1.465456554
1.469639135
1.472573002
1.477466816
1.478962096
1.478327614
1.477035828
1.475598555
1.47414291
1.472270992
1.469866665
1.466570437
1.040010354
1.061539583
1.093386952
1.133388263
1.17423588
1.224877474
1.274057101
1.318536364
1.366402399
1.397597306
1.422238601
1.451871693
1.46606781
1.47296357
1.484167486
1.487548671
1.486885965
1.486179875
1.485179682
1.483192123
1.479830066
1.475378793
1.469991014
1.465108932
1.463926935
1.463791183
1.463475358
1.462103946
1.460270997
1.458287647
1.456622237
1.455158951
1.452926195
1.198631523
1.243425391
1.291945463
1.329195768
1.367598601
1.40623879
1.422391759
1.437985453
1.4546346
1.460034482
1.465737913
1.470650255
1.473177941
1.476639081
1.482019836
1.487338994
1.487604582
1.48680821
1.485305159
1.482834563
1.480082368
1.477248359
1.472831472
1.466619291
1.460294867
1.456217083
1.453503952
1.451474768
1.449345644
1.448245442
1.448159507
1.447717547
1.447462992
1.406070845
1.433638132
1.457355775
1.466980101
1.479985613
1.489551317
1.489519078
1.491054708
1.491671103
1.490727364
1.489012514
1.486057867
1.482116656
1.475350563
1.467655851
1.466566702
1.466635193
1.465417826
1.463310465
1.460082451
1.457524094
1.455849052
1.453662575
1.450385501
1.446936036
1.44608143
1.445340559
1.444334763
1.443187179
1.443230707
1.443696444
1.444343587
1.446254942
1.446970935
1.470587103
1.485053595
1.490962937
1.493074397
1.492370701
1.491318441
1.488357094
1.482775951
1.479440833
1.477359976
1.474228198
1.468680143
1.461064011
1.456609344
1.455432553
1.453725579
1.451036251
1.449476053
1.449649366
1.450281733
1.45001011
1.449125488
1.449051875
1.449491873
1.450048426
1.450009874
1.449561326
1.449402518
1.449565419
1.449249779
1.449085124
1.449730174
1.436233841
1.43746986
1.439058959
1.440039271
1.440796822
1.442327722
1.445281484
1.448693311
1.451234508
1.453013833
1.454684677
1.456139844
1.457138009
1.457277547
1.456977269
)
;

boundaryField
{
    inlet
    {
        type            fixedValue;
        value           nonuniform 0();
    }
    outlet
    {
        type            zeroGradient;
    }
    bottom
    {
        type            slip;
    }
    top
    {
        type            slip;
    }
    obstacle
    {
        type            zeroGradient;
    }
    defaultFaces
    {
        type            empty;
    }
    procBoundary14to7
    {
        type            processor;
        value           nonuniform List<scalar> 2(1 1);
    }
    procBoundary14to8
    {
        type            processor;
        value           nonuniform List<scalar> 
35
(
1
1
1
1
1
1
1
1
1
1
1
1
1
1
1
1
1
1
1
1
1
1
1
1
1
1
1
1
1
1
1
1
1
1
1
)
;
    }
    procBoundary14to9
    {
        type            processor;
        value           nonuniform List<scalar> 
17
(
1.000000022
1.000003143
1.000194019
1.004537785
1.046851702
1.184109097
1.350786406
1.426855773
1.469755585
1.471555699
1.461169741
1.455016538
1.448557605
1.446368264
1.441936796
1.382318726
1.088648925
)
;
    }
    procBoundary14to13
    {
        type            processor;
        value           nonuniform List<scalar> 
16
(
1
1
1
1
1
1
1
1
1
1.000000004
1.000005788
1.000867318
1.023178501
1.151887707
1.371505114
1.432389255
)
;
    }
    procBoundary14to20
    {
        type            processor;
        value           nonuniform List<scalar> 
19
(
1.550794619
1.534833978
1.523758866
1.508529478
1.488243102
1.477244612
1.472146948
1.465974121
1.458599301
1.455709675
1.45386402
1.451130745
1.446002751
1.441560394
1.441072965
1.44003878
1.437505174
1.436122439
1.436122439
)
;
    }
}


// ************************************************************************* //
