/*--------------------------------*- C++ -*----------------------------------*\
  =========                 |
  \\      /  F ield         | OpenFOAM: The Open Source CFD Toolbox
   \\    /   O peration     | Website:  https://openfoam.org
    \\  /    A nd           | Version:  7
     \\/     M anipulation  |
\*---------------------------------------------------------------------------*/
FoamFile
{
    version     2.0;
    format      ascii;
    class       volScalarField;
    location    "2";
    object      rho;
}
// * * * * * * * * * * * * * * * * * * * * * * * * * * * * * * * * * * * * * //

dimensions      [1 -3 0 0 0 0 0];

internalField   nonuniform List<scalar> 
555
(
1.40000504
1.40000504
1.40000504
1.40000504
1.40000504
1.40000504
1.40000504
1.40000504
1.40000504
1.40000504
1.40000504
1.40000504
1.40000504
1.40000504
1.40000504
1.40000504
1.40000504
1.40000504
1.40000504
1.40000504
1.40000504
1.40000504
1.40000504
1.40000504
1.40000504
1.40000504
1.40000504
1.40000504
1.40000504
1.40000504
1.40000504
1.40000504
1.40000504
1.40000504
1.40000504
1.40000504
1.40000504
1.40000504
1.40000504
1.40000504
1.40000504
1.40000504
1.40000504
1.40000504
1.40000504
1.40000504
1.40000504
1.40000504
1.40000504
1.40000504
1.40000504
1.40000504
1.40000504
1.40000504
1.40000504
1.40000504
1.40000504
1.40000504
1.40000504
1.40000504
1.40000504
1.40000504
1.40000504
1.40000504
1.40000504
1.40000504
1.40000504
1.40000504
1.40000504
1.40000504
1.40000504
1.40000504
1.40000504
1.40000504
1.40000504
1.40000504
1.400005041
1.400005039
1.40000504
1.40000504
1.40000504
1.40000504
1.40000504
1.40000504
1.40000504
1.40000504
1.40000504
1.40000504
1.40000504
1.40000504
1.40000504
1.40000504
1.40000504
1.40000504
1.40000504
1.40000504
1.40000504
1.40000504
1.40000504
1.40000504
1.40000504
1.40000504
1.40000504
1.40000504
1.40000504
1.40000504
1.40000504
1.400005041
1.400005046
1.400005312
1.400005016
1.40000504
1.40000504
1.40000504
1.40000504
1.40000504
1.40000504
1.40000504
1.40000504
1.40000504
1.40000504
1.40000504
1.40000504
1.40000504
1.40000504
1.40000504
1.40000504
1.40000504
1.40000504
1.40000504
1.40000504
1.40000504
1.40000504
1.40000504
1.40000504
1.40000504
1.400005042
1.400005053
1.400005116
1.400005488
1.400007039
1.400013477
1.400061467
1.400025156
1.40000504
1.40000504
1.40000504
1.40000504
1.40000504
1.40000504
1.40000504
1.40000504
1.40000504
1.40000504
1.40000504
1.40000504
1.40000504
1.40000504
1.40000504
1.40000504
1.40000504
1.40000504
1.40000504
1.40000504
1.400005041
1.400005043
1.400005061
1.400005166
1.400005696
1.400008062
1.400017368
1.4000497
1.400149741
1.400435084
1.401114396
1.403004189
1.404654859
1.40000504
1.40000504
1.40000504
1.40000504
1.40000504
1.40000504
1.40000504
1.40000504
1.40000504
1.40000504
1.40000504
1.40000504
1.40000504
1.40000504
1.40000504
1.40000504
1.400005041
1.400005045
1.400005075
1.400005245
1.400006073
1.400009585
1.400022948
1.400067486
1.400203237
1.400562856
1.401460081
1.403425217
1.407271087
1.414686541
1.426114148
1.44473252
1.465237536
1.40000504
1.40000504
1.40000504
1.40000504
1.40000504
1.40000504
1.40000504
1.40000504
1.40000504
1.40000504
1.40000504
1.40000504
1.400005041
1.40000505
1.400005103
1.400005385
1.400006725
1.400012091
1.400031908
1.400094801
1.400282199
1.400754503
1.401903165
1.404329357
1.409057713
1.41740051
1.430679993
1.451014717
1.478583699
1.512738089
1.550427037
1.594907141
1.638117216
1.40000504
1.40000504
1.40000504
1.40000504
1.40000504
1.40000504
1.40000504
1.400005041
1.400005043
1.400005061
1.400005165
1.400005663
1.400007853
1.400016252
1.400045604
1.400135425
1.400396811
1.401027546
1.40255286
1.405567026
1.411347979
1.421127707
1.436704322
1.458375972
1.489068686
1.526652691
1.563651875
1.606543296
1.652310525
1.694287913
1.729215253
1.751760248
1.773754008
1.40000504
1.40000504
1.40000504
1.400005041
1.400005048
1.400005088
1.400005295
1.400006241
1.400010052
1.400023835
1.400070408
1.400203627
1.400564799
1.401448814
1.403345511
1.407179977
1.414333332
1.425510028
1.444416254
1.469242723
1.499568019
1.53920108
1.583112526
1.626421627
1.669904678
1.706153091
1.738270115
1.773471516
1.796314241
1.810977261
1.822868202
1.829265869
1.836247401
1.400005065
1.400005167
1.400005626
1.400007527
1.400014664
1.400038442
1.400112191
1.400318197
1.400829132
1.402041848
1.404616605
1.409364691
1.418225573
1.431969771
1.451925159
1.481724523
1.514606624
1.552239791
1.600478434
1.644102311
1.683985666
1.721339858
1.747125096
1.771412923
1.798460835
1.80592778
1.81293213
1.819974972
1.821015255
1.82250387
1.829120359
1.835487381
1.838377641
1.400024852
1.400068328
1.400189209
1.400515764
1.401299372
1.402940265
1.406427795
1.412607106
1.422773573
1.440088191
1.462633966
1.492588349
1.533386584
1.574251145
1.619011116
1.663793545
1.699849456
1.742494742
1.772897815
1.792411012
1.812202286
1.828603997
1.83442936
1.842141129
1.848159421
1.848036421
1.846973027
1.845469267
1.843194925
1.839822589
1.837354183
1.835981848
1.834842334
1.402043113
1.404389101
1.408853999
1.417170712
1.429646305
1.448943705
1.477173871
1.507893941
1.548414706
1.596974379
1.637109899
1.681143967
1.718478174
1.746751119
1.782189209
1.798306666
1.806630425
1.818371829
1.823158542
1.825626962
1.830329417
1.835277546
1.839017419
1.841643545
1.845997208
1.847251788
1.846675087
1.84551761
1.844250969
1.842972892
1.841309779
1.839146138
1.836191662
1.43930097
1.460229385
1.490931676
1.529157236
1.567990925
1.615620943
1.661254439
1.702222236
1.746029789
1.774327942
1.796519092
1.823008975
1.835585251
1.841697893
1.851608163
1.854786134
1.854233818
1.853624255
1.852719836
1.850908249
1.847876227
1.84392676
1.839185254
1.834930264
1.833821584
1.833671098
1.833372579
1.832143567
1.830527972
1.828783595
1.827297933
1.825969067
1.823950987
1.590717412
1.632585434
1.677667271
1.712055436
1.747221769
1.782297262
1.7968653
1.810897595
1.825848227
1.830669884
1.835750024
1.840070858
1.842255589
1.845288561
1.850008056
1.854820049
1.855022313
1.854306398
1.85294819
1.850720781
1.848259274
1.845744008
1.841820291
1.836293266
1.830599033
1.826898522
1.824430268
1.822590577
1.820675615
1.819674603
1.819563405
1.819128501
1.818878927
1.782457158
1.807036032
1.828205569
1.836867665
1.848419608
1.85676278
1.856591117
1.85788756
1.858524529
1.857705379
1.856187908
1.8535314
1.849974273
1.843880053
1.837015249
1.836058184
1.83610633
1.834998305
1.833082834
1.830172947
1.827888856
1.826388173
1.824423208
1.821481227
1.818349098
1.817532916
1.816852747
1.815942763
1.81490644
1.814920454
1.815310387
1.815877145
1.817569285
1.820919927
1.841351671
1.853553293
1.858502206
1.859979027
1.858984347
1.857830018
1.855073185
1.850042021
1.847052325
1.845184627
1.842363024
1.83735918
1.830488255
1.826494707
1.825455851
1.823940925
1.821548554
1.820081122
1.820213663
1.820767803
1.820533375
1.819729227
1.819655277
1.820058906
1.820575613
1.820547537
1.820157038
1.820041351
1.820199799
1.819919754
1.819769225
1.820347563
1.807813972
1.8089154
1.810348208
1.811251142
1.811941891
1.813315392
1.815978476
1.819054575
1.821331596
1.822941968
1.824462404
1.82580812
1.826693394
1.826828595
1.826564859
)
;

boundaryField
{
    inlet
    {
        type            calculated;
        value           nonuniform 0();
    }
    outlet
    {
        type            calculated;
        value           nonuniform 0();
    }
    bottom
    {
        type            calculated;
        value           nonuniform 0();
    }
    top
    {
        type            calculated;
        value           nonuniform 0();
    }
    obstacle
    {
        type            calculated;
        value           nonuniform List<scalar> 
15
(
1.807813972
1.8089154
1.810348208
1.811251142
1.811941891
1.813315392
1.815978476
1.819054575
1.821331596
1.822941968
1.824462404
1.82580812
1.826693394
1.826828595
1.826564859
)
;
    }
    defaultFaces
    {
        type            empty;
    }
    procBoundary14to7
    {
        type            processor;
        value           nonuniform List<scalar> 2(1.40000504 1.40000504);
    }
    procBoundary14to8
    {
        type            processor;
        value           nonuniform List<scalar> 
35
(
1.40000504
1.40000504
1.40000504
1.40000504
1.40000504
1.40000504
1.40000504
1.40000504
1.40000504
1.40000504
1.40000504
1.40000504
1.40000504
1.40000504
1.40000504
1.40000504
1.40000504
1.40000504
1.40000504
1.40000504
1.40000504
1.40000504
1.40000504
1.40000504
1.40000504
1.40000504
1.40000504
1.40000504
1.40000504
1.40000504
1.40000504
1.40000504
1.40000504
1.40000504
1.40000504
)
;
    }
    procBoundary14to9
    {
        type            processor;
        value           nonuniform List<scalar> 
17
(
1.400005062
1.400008185
1.400198949
1.404521395
1.446143441
1.577506981
1.732084096
1.801172526
1.839321951
1.84089211
1.831477134
1.825876904
1.820012518
1.817897069
1.813656685
1.756788319
1.453280142
)
;
    }
    procBoundary14to13
    {
        type            processor;
        value           nonuniform List<scalar> 
16
(
1.40000504
1.40000504
1.40000504
1.40000504
1.40000504
1.40000504
1.40000504
1.40000504
1.40000504
1.400005044
1.400010832
1.400868733
1.422861213
1.546789303
1.751480815
1.808404891
)
;
    }
    procBoundary14to20
    {
        type            processor;
        value           nonuniform List<scalar> 
19
(
1.908121193
1.894310579
1.884780701
1.871474841
1.853593507
1.843971126
1.839600131
1.834197719
1.827659318
1.825110784
1.823487299
1.821060021
1.816463725
1.812496567
1.812099586
1.811202169
1.808951621
1.807717275
1.807717275
)
;
    }
}


// ************************************************************************* //
