/*--------------------------------*- C++ -*----------------------------------*\
  =========                 |
  \\      /  F ield         | OpenFOAM: The Open Source CFD Toolbox
   \\    /   O peration     | Website:  https://openfoam.org
    \\  /    A nd           | Version:  7
     \\/     M anipulation  |
\*---------------------------------------------------------------------------*/
FoamFile
{
    version     2.0;
    format      ascii;
    class       volScalarField;
    location    "2.3";
    object      rho;
}
// * * * * * * * * * * * * * * * * * * * * * * * * * * * * * * * * * * * * * //

dimensions      [1 -3 0 0 0 0 0];

internalField   nonuniform List<scalar> 
22
(
1.40000504
1.40000504
1.400005675
1.40004135
1.400005042
1.400024673
1.400561773
1.400005342
1.400363851
1.405326983
1.43396974
1.400029013
1.40403393
1.430809043
1.488167378
1.400882129
1.426212881
1.499018887
1.539664277
1.413867503
1.493562989
1.567004999
)
;

boundaryField
{
    inlet
    {
        type            calculated;
        value           nonuniform 0();
    }
    outlet
    {
        type            calculated;
        value           nonuniform 0();
    }
    bottom
    {
        type            calculated;
        value           nonuniform List<scalar> 4(1.40000504 1.40000504 1.400005675 1.40004135);
    }
    top
    {
        type            calculated;
        value           nonuniform 0();
    }
    obstacle
    {
        type            calculated;
        value           nonuniform 0();
    }
    defaultFaces
    {
        type            empty;
    }
    procBoundary3to2
    {
        type            processor;
        value           nonuniform List<scalar> 5(1.40000504 1.40000504 1.40000504 1.400005039 1.400005039);
    }
    procBoundary3to4
    {
        type            processor;
        value           nonuniform List<scalar> 6(1.400959358 1.407551877 1.407551877 1.490976708 1.537162065 1.53930635);
    }
    procBoundary3to8
    {
        type            processor;
        value           nonuniform List<scalar> 2(1.4000052 1.400090645);
    }
    procBoundary3to9
    {
        type            processor;
        value           nonuniform List<scalar> 5(1.562012119 1.490222624 1.577076709 1.562012119 1.572387391);
    }
}


// ************************************************************************* //
