/*--------------------------------*- C++ -*----------------------------------*\
  =========                 |
  \\      /  F ield         | OpenFOAM: The Open Source CFD Toolbox
   \\    /   O peration     | Website:  https://openfoam.org
    \\  /    A nd           | Version:  7
     \\/     M anipulation  |
\*---------------------------------------------------------------------------*/
FoamFile
{
    version     2.0;
    format      ascii;
    class       volScalarField;
    location    "3.3";
    object      rho;
}
// * * * * * * * * * * * * * * * * * * * * * * * * * * * * * * * * * * * * * //

dimensions      [1 -3 0 0 0 0 0];

internalField   nonuniform List<scalar> 
2222
(
1.824398587
1.821648022
1.819900783
1.820087393
1.820946747
1.820847724
1.819806268
1.809430609
1.80771356
1.807703806
1.808621741
1.80986842
1.810604445
1.811252496
1.81251512
1.814740897
1.817413268
1.819692831
1.821691096
1.823688184
1.825553372
1.826548441
1.82699918
1.827048911
1.826853809
1.826668906
1.826134031
1.825460831
1.824664823
1.823859547
1.823608818
1.82356067
1.823549382
1.809431166
1.807713606
1.807703501
1.808621005
1.809868383
1.810605102
1.811252991
1.812515211
1.814741009
1.81741323
1.819692437
1.821690828
1.823687675
1.825552975
1.826548604
1.826999647
1.827049224
1.826854058
1.826668979
1.826134038
1.825460849
1.824664821
1.823859547
1.823608826
1.823560686
1.823549422
1.823677318
1.823995161
1.8242928
1.82435661
1.824322808
1.824209539
1.824063899
1.824033253
1.824097746
1.824376717
1.824804702
1.824923472
1.824820319
1.824571329
1.824231345
1.824065659
1.824014975
1.824012404
1.824202498
1.824451642
1.824444173
1.824336126
1.824143215
1.823971086
1.823919999
1.823903036
1.823945967
1.824123623
1.824193135
1.824138651
1.824042609
1.823952239
1.823915409
1.823899078
1.823907486
1.824008838
1.824108705
1.824089858
1.824033787
1.823987945
1.823973939
1.82439853
1.821648955
1.819900857
1.820086585
1.820946087
1.820848175
1.81980714
1.819600995
1.820109946
1.820588156
1.820595738
1.820406813
1.82056957
1.820728257
1.820405441
1.819723626
1.819535978
1.819882709
1.821018987
1.822387551
1.822866649
1.822921592
1.82299411
1.823146
1.82330468
1.823424064
1.823684397
1.824212874
1.824769549
1.824934233
1.824901633
1.824719803
1.82434483
1.824008965
1.823949998
1.823977518
1.824176687
1.824417231
1.824452236
1.82440017
1.824237947
1.82400952
1.823920077
1.823913962
1.823991903
1.824197851
1.824348809
1.824357978
1.82432678
1.824216419
1.824033364
1.823961074
1.823954344
1.824002198
1.824103165
1.824136342
1.824119545
1.824087678
1.824037142
1.824008638
1.824002748
1.824021847
1.8240986
1.824195254
1.824221107
1.824206669
1.824197484
1.836709952
1.835791017
1.833664268
1.830904255
1.829365713
1.828023515
1.825715425
1.821961466
1.820144631
1.819050674
1.817750431
1.816217521
1.815788562
1.815681969
1.815214865
1.814967573
1.815315505
1.816376674
1.818513139
1.821271811
1.823680632
1.824997228
1.825407096
1.825476603
1.82531483
1.824788775
1.824515871
1.824481585
1.824525179
1.824459632
1.824315883
1.824134736
1.823884709
1.823649472
1.823627101
1.823715876
1.82394426
1.82423328
1.824389605
1.824451094
1.824484337
1.824452336
1.824334329
1.824276482
1.824284506
1.824326944
1.824413164
1.824452703
1.824467687
1.824452962
1.824343115
1.824205764
1.82416456
1.824169061
1.824193798
1.824273679
1.824361728
1.82438897
1.824399561
1.824400551
1.824375689
1.824353815
1.824355764
1.824384663
1.82441351
1.824416171
1.824415146
1.85450102
1.854359247
1.853808717
1.852016939
1.8496597
1.847293074
1.843759425
1.838453518
1.833710191
1.829664326
1.826549277
1.823015042
1.821350499
1.820972232
1.820261657
1.81923304
1.81834502
1.818162826
1.818537335
1.819916731
1.820943394
1.821528684
1.821853192
1.821940497
1.822067016
1.822225517
1.822485768
1.823038567
1.823596784
1.823675614
1.823778197
1.824033007
1.824288005
1.824368402
1.824456956
1.824629958
1.82477184
1.824813068
1.824802282
1.824772361
1.824706922
1.824607199
1.824483319
1.824380017
1.824310888
1.824283569
1.824297303
1.824326816
1.824371474
1.824410125
1.824430626
1.824405772
1.82442019
1.824464497
1.8245206
1.824616672
1.824701203
1.824733728
1.824742794
1.824721728
1.824647785
1.824595452
1.824606135
1.824616779
1.824601271
1.824552526
1.824523003
1.853461513
1.853547743
1.853210618
1.851866333
1.849495177
1.845572401
1.840053505
1.835909607
1.833808097
1.833993448
1.833957842
1.833105024
1.830930747
1.830086782
1.829262858
1.827531353
1.8254705
1.823610303
1.821641579
1.820471229
1.819399871
1.818811686
1.818887587
1.819006079
1.819102018
1.819256302
1.819811808
1.82086749
1.821901268
1.822454893
1.822833271
1.823351752
1.823881416
1.824049132
1.824162023
1.824331835
1.824484578
1.824515764
1.824493441
1.824493898
1.824569022
1.824591476
1.824592288
1.824566342
1.824496066
1.824458673
1.824495968
1.824589182
1.824723303
1.824827884
1.824866469
1.824879853
1.82485525
1.824826308
1.824884532
1.824957399
1.824976093
1.824963478
1.824944135
1.824917031
1.824896616
1.824844832
1.824761516
1.824685042
1.824643163
1.824599927
1.824592502
1.799926833
1.812625485
1.820227408
1.823208895
1.827432967
1.831257318
1.835104347
1.83972548
1.844547483
1.846047436
1.846036215
1.846361468
1.845559983
1.844389789
1.843315243
1.841511364
1.838585821
1.835295529
1.831760366
1.827557774
1.823935738
1.820634981
1.820024146
1.820268895
1.820379297
1.820476559
1.820640194
1.820734995
1.820937378
1.821421677
1.821961636
1.822668917
1.823363525
1.823680805
1.823712161
1.823567502
1.823437925
1.823485072
1.823566344
1.82370012
1.824073703
1.824418922
1.824507838
1.824548124
1.82459106
1.824661839
1.824757418
1.824892619
1.825071588
1.825158054
1.825164066
1.825140403
1.825072938
1.825017588
1.824973927
1.824954548
1.824971583
1.825028547
1.825051688
1.825044997
1.824986105
1.824910566
1.824882944
1.824874621
1.824878881
1.82490772
1.824937946
1.679132938
1.720239696
1.75612399
1.778205916
1.800056691
1.819752562
1.828952672
1.838862228
1.846220221
1.846079119
1.845807803
1.845579538
1.844451619
1.84270722
1.839991869
1.836918882
1.833962302
1.833200203
1.832693404
1.83237094
1.831190643
1.829439503
1.828593841
1.82846103
1.828183001
1.827040872
1.825395209
1.824295755
1.823396572
1.822457141
1.821450174
1.821065057
1.82108659
1.821136058
1.821048903
1.821042658
1.821212129
1.821525525
1.821985881
1.822662376
1.823492503
1.824359955
1.824895311
1.825017906
1.825059417
1.825065656
1.825065801
1.825076737
1.825141904
1.825289
1.825315124
1.825260028
1.825083455
1.824852821
1.824685262
1.824659871
1.824687824
1.8247753
1.824889113
1.824940737
1.824950929
1.824947858
1.824953466
1.824975428
1.825020269
1.825107656
1.825212474
1.494592682
1.527051999
1.572222284
1.615351406
1.654864586
1.695896871
1.724818678
1.755244209
1.781941588
1.79223665
1.805244898
1.814055592
1.816395459
1.820201478
1.824320862
1.82850733
1.833771367
1.839370445
1.84151223
1.841752469
1.842242276
1.842310868
1.841656165
1.840576935
1.839010815
1.83629256
1.833073341
1.829148026
1.826115984
1.823667446
1.821682985
1.821472502
1.821751705
1.822131944
1.822153204
1.822059176
1.821910716
1.82194909
1.822171086
1.822665699
1.82332152
1.823877663
1.824068628
1.8240088
1.82383369
1.823702916
1.82374456
1.823855658
1.824061641
1.824473108
1.824821293
1.824919794
1.824918399
1.824860982
1.82481492
1.82483039
1.824895631
1.825062732
1.825264583
1.825324594
1.825314043
1.825262505
1.82517376
1.825132003
1.825140458
1.82518111
1.825298465
1.409563268
1.4174888
1.431104423
1.451413667
1.475455698
1.509609322
1.548834553
1.588719565
1.634154121
1.671820777
1.708854218
1.746302471
1.769489622
1.7920235
1.812393159
1.820584217
1.829324492
1.838857022
1.839164431
1.838451202
1.839883686
1.839768013
1.838872952
1.836748118
1.833877994
1.830373662
1.829010834
1.82990504
1.830085462
1.829589866
1.828541994
1.827737869
1.827765125
1.828159265
1.827895493
1.82661405
1.825363932
1.824611237
1.824025339
1.823427252
1.822997013
1.822690517
1.822313457
1.822047418
1.822015617
1.822090066
1.822239506
1.82247698
1.82291947
1.82351982
1.824113371
1.82456575
1.824826863
1.824894838
1.824929885
1.824990591
1.825109931
1.825348087
1.825567694
1.825597445
1.825573006
1.825449107
1.82521045
1.825037214
1.825020462
1.825055425
1.825227845
1.400200346
1.400540863
1.401346113
1.403170294
1.40657727
1.412809929
1.423544181
1.438549333
1.46201758
1.492508216
1.523358889
1.566054967
1.609237923
1.647008825
1.690171839
1.718848098
1.745321592
1.774726445
1.785036534
1.795769661
1.808789623
1.811445118
1.815364334
1.820206746
1.823989938
1.828222003
1.832505237
1.837190936
1.838749375
1.839747544
1.83985757
1.839198184
1.838237319
1.836893938
1.834687938
1.831649633
1.829248777
1.826702766
1.824841217
1.823209608
1.822741876
1.822729213
1.822583101
1.822529264
1.822536536
1.822597993
1.822882627
1.823380354
1.823796364
1.824109704
1.824157572
1.824077862
1.824041298
1.824033254
1.823989216
1.824058518
1.824228678
1.824519946
1.824895177
1.825109034
1.825185645
1.825178413
1.82513938
1.825130123
1.825157596
1.825223858
1.825370173
1.400005643
1.400007665
1.400015105
1.40004076
1.400118778
1.400325449
1.400865303
1.402056672
1.404478321
1.40937408
1.417123324
1.429918984
1.450185468
1.473822704
1.506209889
1.545563223
1.583054571
1.627523709
1.667239802
1.700517817
1.73904069
1.763557497
1.782498463
1.805591401
1.816145959
1.822126396
1.831837949
1.834808488
1.834292896
1.835637105
1.836130019
1.835547104
1.833854899
1.83127764
1.828336888
1.826725004
1.82704472
1.828248812
1.82854073
1.828319975
1.827600238
1.827487721
1.827871405
1.827756492
1.826921917
1.825829301
1.825268286
1.824866295
1.824179242
1.823604013
1.823245127
1.822943888
1.822913964
1.822953749
1.822990606
1.823092629
1.823279631
1.823594589
1.824014926
1.824328413
1.824643708
1.824994694
1.825207599
1.825234486
1.825247385
1.825278835
1.825379288
1.40000504
1.400005042
1.400005049
1.400005095
1.400005322
1.40000632
1.400010296
1.400024481
1.400068935
1.400199865
1.400540469
1.401325553
1.403116338
1.406543255
1.412535144
1.423201577
1.438163865
1.459882015
1.491177465
1.522205582
1.560876972
1.606492624
1.64196271
1.682544129
1.715189751
1.737958789
1.768257259
1.78180638
1.790107741
1.803159559
1.807947431
1.810781425
1.815325402
1.820496855
1.824543766
1.828167042
1.832877602
1.836274114
1.837384983
1.837275415
1.836613676
1.835775093
1.834907868
1.833440264
1.831063799
1.828975451
1.826647255
1.824954405
1.823743255
1.822986978
1.822917122
1.82296987
1.823181156
1.82343163
1.823588459
1.823810066
1.824129211
1.824309758
1.824435622
1.82450596
1.824402146
1.824403884
1.824486982
1.824628937
1.824634032
1.824611939
1.824712315
1.40000504
1.40000504
1.40000504
1.40000504
1.40000504
1.400005041
1.400005044
1.400005064
1.400005169
1.400005664
1.400007743
1.40001536
1.400041256
1.4001211
1.400330201
1.400866104
1.402089241
1.404464867
1.409303321
1.417364671
1.429382307
1.449327264
1.473777556
1.503556668
1.543534089
1.581343163
1.622343007
1.664059186
1.695679685
1.732214258
1.760657054
1.777939274
1.797016124
1.813251132
1.818263589
1.824704711
1.831726871
1.832088729
1.832290934
1.833225568
1.832719149
1.830973192
1.828766856
1.826609653
1.825444983
1.825698152
1.826962706
1.827465337
1.827637565
1.827218576
1.826964961
1.827260595
1.827627658
1.827346845
1.826498053
1.825801863
1.825258899
1.824517831
1.823918734
1.823655935
1.823420062
1.823455429
1.823590017
1.823797612
1.82389271
1.823947766
1.824086382
1.40000504
1.40000504
1.40000504
1.40000504
1.40000504
1.40000504
1.40000504
1.40000504
1.40000504
1.40000504
1.400005042
1.40000505
1.400005099
1.400005341
1.400006396
1.400010557
1.400025389
1.400071724
1.400205457
1.400558945
1.401356807
1.403120993
1.406673878
1.41262041
1.423060036
1.438742597
1.459193002
1.489879211
1.523133376
1.557423546
1.603296612
1.641739166
1.67671207
1.713132156
1.735546982
1.758873041
1.781216631
1.787999346
1.797112981
1.806149336
1.80822138
1.811376861
1.816752383
1.82160555
1.825526736
1.829854563
1.83442769
1.835250859
1.835166764
1.834601127
1.833779544
1.833129247
1.832081334
1.830340651
1.828517738
1.826569047
1.825012585
1.824054549
1.823418961
1.823325715
1.823410952
1.823623507
1.824073375
1.824625438
1.824968109
1.82494456
1.824825274
1.40000504
1.40000504
1.40000504
1.40000504
1.40000504
1.40000504
1.40000504
1.40000504
1.40000504
1.40000504
1.40000504
1.40000504
1.40000504
1.40000504
1.400005041
1.400005044
1.400005067
1.400005182
1.400005718
1.400007954
1.400016128
1.400043159
1.400127432
1.400349827
1.400891447
1.402171166
1.404629542
1.409301584
1.417812612
1.42983053
1.4487921
1.475099772
1.503463788
1.541394534
1.582291069
1.620657894
1.662066147
1.695264819
1.72597826
1.757733208
1.776720156
1.793952823
1.809244765
1.815147609
1.820880244
1.828574366
1.830150437
1.830125715
1.830850087
1.830585539
1.828996567
1.827019676
1.825051076
1.824097885
1.824399285
1.8256133
1.826399651
1.826989424
1.82719454
1.827108251
1.827040801
1.827146372
1.827066817
1.826752369
1.826373611
1.825811791
1.825013156
1.40000504
1.40000504
1.40000504
1.40000504
1.40000504
1.40000504
1.40000504
1.40000504
1.40000504
1.40000504
1.40000504
1.40000504
1.40000504
1.40000504
1.40000504
1.40000504
1.40000504
1.40000504
1.40000504
1.400005042
1.400005052
1.400005106
1.400005379
1.400006557
1.400011107
1.400027139
1.400077489
1.400217395
1.400590406
1.401445571
1.403221245
1.406921543
1.413159405
1.423274272
1.439693041
1.460363015
1.489369992
1.525207139
1.558941981
1.600371569
1.641203795
1.677314136
1.712146034
1.734260542
1.755957266
1.778671294
1.78552043
1.793713314
1.804130445
1.806645634
1.809555975
1.815243064
1.820149589
1.823692298
1.827531195
1.832273334
1.833710249
1.833863656
1.833493366
1.832782093
1.831858724
1.830488675
1.828939675
1.827639946
1.826077978
1.824960804
1.82416323
1.40000504
1.40000504
1.40000504
1.40000504
1.40000504
1.40000504
1.40000504
1.40000504
1.40000504
1.40000504
1.40000504
1.40000504
1.40000504
1.40000504
1.40000504
1.40000504
1.40000504
1.40000504
1.40000504
1.40000504
1.40000504
1.40000504
1.40000504
1.400005041
1.400005045
1.400005071
1.400005205
1.400005814
1.400008322
1.400017537
1.400047158
1.400137591
1.400383083
1.400951218
1.402289916
1.404938659
1.409703029
1.418376347
1.431026566
1.449978152
1.476365147
1.505703988
1.5430241
1.583101562
1.621588538
1.663592806
1.69641963
1.723685476
1.756422675
1.77587102
1.791778232
1.808304258
1.814270597
1.818027326
1.824781844
1.828372138
1.82888148
1.829546516
1.829140669
1.827565907
1.825617176
1.823424261
1.823416819
1.82371318
1.824478427
1.825729992
1.826535708
1.40000504
1.40000504
1.40000504
1.40000504
1.40000504
1.40000504
1.40000504
1.40000504
1.40000504
1.40000504
1.40000504
1.40000504
1.40000504
1.40000504
1.40000504
1.40000504
1.40000504
1.40000504
1.40000504
1.40000504
1.40000504
1.40000504
1.40000504
1.40000504
1.40000504
1.40000504
1.40000504
1.400005041
1.400005042
1.400005054
1.400005119
1.400005437
1.400006809
1.400011993
1.400030006
1.400086323
1.400241222
1.400642582
1.401570591
1.403500016
1.407307553
1.413907252
1.424635044
1.441241403
1.462200427
1.49155312
1.528781263
1.562176473
1.602169685
1.643869764
1.677069881
1.712950953
1.737146138
1.754784115
1.776334223
1.785369333
1.792425563
1.802390977
1.806054124
1.808292148
1.813563489
1.819903505
1.82365354
1.826321651
1.829665354
1.833093497
1.833057098
1.40000504
1.40000504
1.40000504
1.40000504
1.40000504
1.40000504
1.40000504
1.40000504
1.40000504
1.40000504
1.40000504
1.40000504
1.40000504
1.40000504
1.40000504
1.40000504
1.40000504
1.40000504
1.40000504
1.40000504
1.40000504
1.40000504
1.40000504
1.40000504
1.40000504
1.40000504
1.40000504
1.40000504
1.40000504
1.40000504
1.40000504
1.40000504
1.400005041
1.400005047
1.400005078
1.400005242
1.400005969
1.400008908
1.400019648
1.400053975
1.400154769
1.400429735
1.40106482
1.402507274
1.405360414
1.410486921
1.419641584
1.433025609
1.452101705
1.479757001
1.510134768
1.54604387
1.587049043
1.625150935
1.666930727
1.700388986
1.725355535
1.75441109
1.778201921
1.792307586
1.805797158
1.816110825
1.817892849
1.820225538
1.825358855
1.828608694
1.828546837
1.40000504
1.40000504
1.40000504
1.40000504
1.40000504
1.40000504
1.40000504
1.40000504
1.40000504
1.40000504
1.40000504
1.40000504
1.40000504
1.40000504
1.40000504
1.40000504
1.40000504
1.40000504
1.40000504
1.40000504
1.40000504
1.40000504
1.40000504
1.40000504
1.40000504
1.40000504
1.40000504
1.40000504
1.40000504
1.40000504
1.40000504
1.40000504
1.40000504
1.40000504
1.40000504
1.40000504
1.400005041
1.400005043
1.400005059
1.400005141
1.40000553
1.400007201
1.400013439
1.400034724
1.400099709
1.400279702
1.400732671
1.401776959
1.403893004
1.408082352
1.415108956
1.426666687
1.443993342
1.466208912
1.494988253
1.533781749
1.569799711
1.605263934
1.648543002
1.681864599
1.713469121
1.742086321
1.759549531
1.770301975
1.786612572
1.794827867
1.800318969
1.40000504
1.40000504
1.40000504
1.40000504
1.40000504
1.40000504
1.40000504
1.40000504
1.40000504
1.40000504
1.40000504
1.40000504
1.40000504
1.40000504
1.40000504
1.40000504
1.40000504
1.40000504
1.40000504
1.40000504
1.40000504
1.40000504
1.40000504
1.40000504
1.40000504
1.40000504
1.40000504
1.40000504
1.40000504
1.40000504
1.40000504
1.40000504
1.40000504
1.40000504
1.40000504
1.40000504
1.40000504
1.40000504
1.40000504
1.40000504
1.40000504
1.400005042
1.400005049
1.400005091
1.4000053
1.400006228
1.400009852
1.40002309
1.40006409
1.40018516
1.400499919
1.401253502
1.402828177
1.406121718
1.411650969
1.421595811
1.436011084
1.456377622
1.483678902
1.517771951
1.552455863
1.591574373
1.633919332
1.671494856
1.704978605
1.731515477
1.75589098
1.40000504
1.40000504
1.40000504
1.40000504
1.40000504
1.40000504
1.40000504
1.40000504
1.40000504
1.40000504
1.40000504
1.40000504
1.40000504
1.40000504
1.40000504
1.40000504
1.40000504
1.40000504
1.40000504
1.40000504
1.40000504
1.40000504
1.40000504
1.40000504
1.40000504
1.40000504
1.40000504
1.40000504
1.40000504
1.40000504
1.40000504
1.40000504
1.40000504
1.40000504
1.40000504
1.40000504
1.40000504
1.40000504
1.40000504
1.40000504
1.40000504
1.40000504
1.40000504
1.40000504
1.40000504
1.400005041
1.400005044
1.400005066
1.400005176
1.400005694
1.400007833
1.400015896
1.40004201
1.400123402
1.400335758
1.400886366
1.402059233
1.404621094
1.409037915
1.417344353
1.42936787
1.448318464
1.471510577
1.503387652
1.538549504
1.579187586
1.613908719
1.40000504
1.40000504
1.40000504
1.40000504
1.40000504
1.40000504
1.40000504
1.40000504
1.40000504
1.40000504
1.40000504
1.40000504
1.40000504
1.40000504
1.40000504
1.40000504
1.40000504
1.40000504
1.40000504
1.40000504
1.40000504
1.40000504
1.40000504
1.40000504
1.40000504
1.40000504
1.40000504
1.40000504
1.40000504
1.40000504
1.40000504
1.40000504
1.40000504
1.40000504
1.40000504
1.40000504
1.40000504
1.40000504
1.40000504
1.40000504
1.40000504
1.40000504
1.40000504
1.40000504
1.40000504
1.40000504
1.40000504
1.40000504
1.40000504
1.40000504
1.400005042
1.400005053
1.400005112
1.400005403
1.400006646
1.400011517
1.400028298
1.400082246
1.400228514
1.400629416
1.401497776
1.403459163
1.407018917
1.413900245
1.42413636
1.441246347
1.459005781
1.40000504
1.40000504
1.40000504
1.40000504
1.40000504
1.40000504
1.40000504
1.40000504
1.40000504
1.40000504
1.40000504
1.40000504
1.40000504
1.40000504
1.40000504
1.40000504
1.40000504
1.40000504
1.40000504
1.40000504
1.40000504
1.40000504
1.40000504
1.40000504
1.40000504
1.40000504
1.40000504
1.40000504
1.40000504
1.40000504
1.40000504
1.40000504
1.40000504
1.40000504
1.40000504
1.40000504
1.40000504
1.40000504
1.40000504
1.40000504
1.40000504
1.40000504
1.40000504
1.40000504
1.40000504
1.40000504
1.40000504
1.40000504
1.40000504
1.40000504
1.40000504
1.40000504
1.40000504
1.40000504
1.400005041
1.400005046
1.400005078
1.40000524
1.400005965
1.400008981
1.400019708
1.400055534
1.40015797
1.400441861
1.40108374
1.40285224
1.404323394
1.40000504
1.40000504
1.40000504
1.40000504
1.40000504
1.40000504
1.40000504
1.40000504
1.40000504
1.40000504
1.40000504
1.40000504
1.40000504
1.40000504
1.40000504
1.40000504
1.40000504
1.40000504
1.40000504
1.40000504
1.40000504
1.40000504
1.40000504
1.40000504
1.40000504
1.40000504
1.40000504
1.40000504
1.40000504
1.40000504
1.40000504
1.40000504
1.40000504
1.40000504
1.40000504
1.40000504
1.40000504
1.40000504
1.40000504
1.40000504
1.40000504
1.40000504
1.40000504
1.40000504
1.40000504
1.40000504
1.40000504
1.40000504
1.40000504
1.40000504
1.40000504
1.40000504
1.40000504
1.40000504
1.40000504
1.40000504
1.40000504
1.40000504
1.400005041
1.400005043
1.40000506
1.400005153
1.400005579
1.400007498
1.400013651
1.400066775
1.400030534
1.40000504
1.40000504
1.40000504
1.40000504
1.40000504
1.40000504
1.40000504
1.40000504
1.40000504
1.40000504
1.40000504
1.40000504
1.40000504
1.40000504
1.40000504
1.40000504
1.40000504
1.40000504
1.40000504
1.40000504
1.40000504
1.40000504
1.40000504
1.40000504
1.40000504
1.40000504
1.40000504
1.40000504
1.40000504
1.40000504
1.40000504
1.40000504
1.40000504
1.40000504
1.40000504
1.40000504
1.40000504
1.40000504
1.40000504
1.40000504
1.40000504
1.40000504
1.40000504
1.40000504
1.40000504
1.40000504
1.40000504
1.40000504
1.40000504
1.40000504
1.40000504
1.40000504
1.40000504
1.40000504
1.40000504
1.40000504
1.40000504
1.40000504
1.40000504
1.40000504
1.40000504
1.40000504
1.40000504
1.400005042
1.400005049
1.400005373
1.40000498
1.40000504
1.40000504
1.40000504
1.40000504
1.40000504
1.40000504
1.40000504
1.40000504
1.40000504
1.40000504
1.40000504
1.40000504
1.40000504
1.40000504
1.40000504
1.40000504
1.40000504
1.40000504
1.40000504
1.40000504
1.40000504
1.40000504
1.40000504
1.40000504
1.40000504
1.40000504
1.40000504
1.40000504
1.40000504
1.40000504
1.40000504
1.40000504
1.40000504
1.40000504
1.40000504
1.40000504
1.40000504
1.40000504
1.40000504
1.40000504
1.40000504
1.40000504
1.40000504
1.40000504
1.40000504
1.40000504
1.40000504
1.40000504
1.40000504
1.40000504
1.40000504
1.40000504
1.40000504
1.40000504
1.40000504
1.40000504
1.40000504
1.40000504
1.40000504
1.40000504
1.40000504
1.40000504
1.40000504
1.40000504
1.40000504
1.400005041
1.400005028
1.40000504
1.40000504
1.40000504
1.40000504
1.40000504
1.40000504
1.40000504
1.40000504
1.40000504
1.40000504
1.40000504
1.40000504
1.40000504
1.40000504
1.40000504
1.40000504
1.40000504
1.40000504
1.40000504
1.40000504
1.40000504
1.40000504
1.40000504
1.40000504
1.40000504
1.40000504
1.40000504
1.40000504
1.40000504
1.40000504
1.40000504
1.40000504
1.40000504
1.40000504
1.40000504
1.40000504
1.40000504
1.40000504
1.40000504
1.40000504
1.40000504
1.40000504
1.40000504
1.40000504
1.40000504
1.40000504
1.40000504
1.40000504
1.40000504
1.40000504
1.40000504
1.40000504
1.40000504
1.40000504
1.40000504
1.40000504
1.40000504
1.40000504
1.40000504
1.40000504
1.40000504
1.40000504
1.40000504
1.40000504
1.40000504
1.40000504
1.40000504
1.40000504
1.40000504
1.40000504
1.40000504
1.40000504
1.40000504
1.40000504
1.40000504
1.40000504
1.40000504
1.40000504
1.40000504
1.40000504
1.40000504
1.40000504
1.40000504
1.40000504
1.40000504
1.40000504
1.40000504
1.40000504
1.40000504
1.40000504
1.40000504
1.40000504
1.40000504
1.40000504
1.40000504
1.40000504
1.40000504
1.40000504
1.40000504
1.40000504
1.40000504
1.40000504
1.40000504
1.40000504
1.40000504
1.40000504
1.40000504
1.40000504
1.40000504
1.40000504
1.40000504
1.40000504
1.40000504
1.40000504
1.40000504
1.40000504
1.40000504
1.40000504
1.40000504
1.40000504
1.40000504
1.40000504
1.40000504
1.40000504
1.40000504
1.40000504
1.40000504
1.40000504
1.40000504
1.40000504
1.40000504
1.40000504
1.40000504
1.40000504
1.40000504
1.40000504
1.40000504
1.40000504
1.40000504
1.40000504
1.40000504
1.40000504
1.40000504
1.40000504
1.40000504
1.40000504
1.40000504
1.40000504
1.40000504
1.40000504
1.40000504
1.40000504
1.40000504
1.40000504
1.40000504
1.40000504
1.40000504
1.40000504
1.40000504
1.40000504
1.40000504
1.40000504
1.40000504
1.40000504
1.40000504
1.40000504
1.40000504
1.40000504
1.40000504
1.40000504
1.40000504
1.40000504
1.40000504
1.40000504
1.40000504
1.40000504
1.40000504
1.40000504
1.40000504
1.40000504
1.40000504
1.40000504
1.40000504
1.40000504
1.40000504
1.40000504
1.40000504
1.40000504
1.40000504
1.40000504
1.40000504
1.40000504
1.40000504
1.40000504
1.40000504
1.40000504
1.40000504
1.40000504
1.40000504
1.40000504
1.40000504
1.40000504
1.40000504
1.40000504
1.40000504
1.40000504
1.40000504
1.40000504
1.40000504
1.40000504
1.40000504
1.40000504
1.40000504
1.40000504
1.40000504
1.40000504
1.40000504
1.40000504
1.40000504
1.40000504
1.40000504
1.40000504
1.40000504
1.40000504
1.40000504
1.40000504
1.40000504
1.40000504
1.40000504
1.40000504
1.40000504
1.40000504
1.40000504
1.40000504
1.40000504
1.40000504
1.40000504
1.40000504
1.40000504
1.40000504
1.40000504
1.40000504
1.40000504
1.40000504
1.40000504
1.40000504
1.40000504
1.40000504
1.40000504
1.40000504
1.40000504
1.40000504
1.40000504
1.40000504
1.40000504
1.40000504
1.40000504
1.40000504
1.40000504
1.40000504
1.40000504
1.40000504
1.40000504
1.40000504
1.40000504
1.40000504
1.40000504
1.40000504
1.40000504
1.40000504
1.40000504
1.40000504
1.40000504
1.40000504
1.40000504
1.40000504
1.40000504
1.40000504
1.40000504
1.40000504
1.40000504
1.40000504
1.40000504
1.40000504
1.40000504
1.40000504
1.40000504
1.40000504
1.40000504
1.40000504
1.40000504
1.40000504
1.40000504
1.40000504
1.40000504
1.40000504
1.40000504
1.40000504
1.40000504
1.40000504
1.40000504
1.40000504
1.40000504
1.40000504
1.40000504
1.40000504
1.40000504
1.40000504
1.40000504
1.40000504
1.40000504
1.40000504
1.40000504
1.40000504
1.40000504
1.40000504
1.40000504
1.40000504
1.40000504
1.40000504
1.40000504
1.40000504
1.40000504
1.40000504
1.40000504
1.40000504
1.40000504
1.40000504
1.40000504
1.40000504
1.40000504
1.40000504
1.40000504
1.40000504
1.40000504
1.40000504
1.40000504
1.40000504
1.40000504
1.40000504
1.40000504
1.40000504
1.40000504
1.40000504
1.40000504
1.40000504
1.40000504
1.40000504
1.40000504
1.40000504
1.40000504
1.40000504
1.40000504
1.40000504
1.40000504
1.40000504
1.40000504
1.40000504
1.40000504
1.40000504
1.40000504
1.40000504
1.40000504
1.40000504
1.40000504
1.40000504
1.40000504
1.40000504
1.40000504
1.40000504
1.40000504
1.40000504
1.40000504
1.40000504
1.40000504
1.40000504
1.40000504
1.40000504
1.40000504
1.40000504
)
;

boundaryField
{
    inlet
    {
        type            calculated;
        value           nonuniform 0();
    }
    outlet
    {
        type            calculated;
        value           nonuniform 0();
    }
    bottom
    {
        type            calculated;
        value           nonuniform 0();
    }
    top
    {
        type            calculated;
        value           nonuniform 0();
    }
    obstacle
    {
        type            calculated;
        value           nonuniform List<scalar> 
93
(
1.809431166
1.807713606
1.807703501
1.808621005
1.809868383
1.810605102
1.811252991
1.812515211
1.814741009
1.81741323
1.819692437
1.821690828
1.823687675
1.825552975
1.826548604
1.826999647
1.827049224
1.826854058
1.826668979
1.826134038
1.825460849
1.824664821
1.823859547
1.823608826
1.823560686
1.823549422
1.823677318
1.823995161
1.8242928
1.82435661
1.824322808
1.824209539
1.824063899
1.824033253
1.824097746
1.824376717
1.824804702
1.824923472
1.824820319
1.824571329
1.824231345
1.824065659
1.824014975
1.824012404
1.824202498
1.824451642
1.824444173
1.824336126
1.824143215
1.823971086
1.823919999
1.823903036
1.823945967
1.824123623
1.824193135
1.824138651
1.824042609
1.823952239
1.823915409
1.823899078
1.823907486
1.824008838
1.824108705
1.824089858
1.824033787
1.823987945
1.823973939
1.809430609
1.80771356
1.807703806
1.808621741
1.80986842
1.810604445
1.811252496
1.81251512
1.814740897
1.817413268
1.819692831
1.821691096
1.823688184
1.825553372
1.826548441
1.82699918
1.827048911
1.826853809
1.826668906
1.826134031
1.825460831
1.824664823
1.823859547
1.823608818
1.82356067
1.823549382
)
;
    }
    defaultFaces
    {
        type            empty;
    }
    procBoundary20to13
    {
        type            processor;
        value           nonuniform List<scalar> 2(1.826166537 1.81189237);
    }
    procBoundary20to14
    {
        type            processor;
        value           nonuniform List<scalar> 
28
(
1.836710699
1.835791572
1.833662787
1.830903401
1.829367135
1.828024836
1.825714416
1.819600702
1.819600702
1.820109996
1.820588655
1.820596324
1.820407462
1.820570048
1.820727939
1.820404889
1.819723385
1.819535813
1.81988251
1.821018832
1.822387505
1.822866585
1.82292157
1.822994114
1.823146052
1.823304719
1.823424045
1.82367719
)
;
    }
    procBoundary20to19
    {
        type            processor;
        value           nonuniform List<scalar> 
33
(
1.811892446
1.826166154
1.836463996
1.853797499
1.853887248
1.790896391
1.641502741
1.464693822
1.404591362
1.400068467
1.400005163
1.40000504
1.40000504
1.40000504
1.40000504
1.40000504
1.40000504
1.40000504
1.40000504
1.40000504
1.40000504
1.40000504
1.40000504
1.40000504
1.40000504
1.40000504
1.40000504
1.40000504
1.40000504
1.40000504
1.40000504
1.40000504
1.40000504
)
;
    }
    procBoundary20to25
    {
        type            processor;
        value           nonuniform List<scalar> 2(1.40000504 1.40000504);
    }
    procBoundary20to26
    {
        type            processor;
        value           nonuniform List<scalar> 
69
(
1.40000504
1.40000504
1.40000504
1.40000504
1.40000504
1.40000504
1.40000504
1.40000504
1.40000504
1.40000504
1.40000504
1.40000504
1.40000504
1.40000504
1.40000504
1.40000504
1.40000504
1.40000504
1.40000504
1.40000504
1.40000504
1.40000504
1.40000504
1.40000504
1.40000504
1.40000504
1.40000504
1.40000504
1.40000504
1.40000504
1.40000504
1.40000504
1.40000504
1.40000504
1.40000504
1.40000504
1.40000504
1.40000504
1.40000504
1.40000504
1.40000504
1.40000504
1.40000504
1.40000504
1.40000504
1.40000504
1.40000504
1.40000504
1.40000504
1.40000504
1.40000504
1.40000504
1.40000504
1.40000504
1.40000504
1.40000504
1.40000504
1.40000504