/*--------------------------------*- C++ -*----------------------------------*\
  =========                 |
  \\      /  F ield         | OpenFOAM: The Open Source CFD Toolbox
   \\    /   O peration     | Website:  https://openfoam.org
    \\  /    A nd           | Version:  7
     \\/     M anipulation  |
\*---------------------------------------------------------------------------*/
FoamFile
{
    version     2.0;
    format      ascii;
    class       volScalarField;
    location    "4.7";
    object      rho;
}
// * * * * * * * * * * * * * * * * * * * * * * * * * * * * * * * * * * * * * //

dimensions      [1 -3 0 0 0 0 0];

internalField   nonuniform List<scalar> 
5000
(
1.40000504
1.40000504
1.40000504
1.40000504
1.40000504
1.40000504
1.40000504
1.40000504
1.40000504
1.40000504
1.40000504
1.40000504
1.40000504
1.40000504
1.40000504
1.40000504
1.40000504
1.40000504
1.40000504
1.40000504
1.40000504
1.40000504
1.40000504
1.40000504
1.40000504
1.40000504
1.40000504
1.40000504
1.40000504
1.40000504
1.40000504
1.40000504
1.40000504
1.40000504
1.40000504
1.40000504
1.40000504
1.40000504
1.40000504
1.40000504
1.40000504
1.40000504
1.40000504
1.40000504
1.40000504
1.40000504
1.40000504
1.40000504
1.40000504
1.40000504
1.40000504
1.40000504
1.40000504
1.40000504
1.40000504
1.40000504
1.40000504
1.40000504
1.40000504
1.40000504
1.40000504
1.40000504
1.40000504
1.40000504
1.40000504
1.40000504
1.40000504
1.40000504
1.40000504
1.40000504
1.40000504
1.40000504
1.40000504
1.40000504
1.40000504
1.40000504
1.40000504
1.40000504
1.40000504
1.40000504
1.40000504
1.40000504
1.40000504
1.40000504
1.40000504
1.40000504
1.40000504
1.40000504
1.40000504
1.40000504
1.40000504
1.40000504
1.40000504
1.40000504
1.40000504
1.40000504
1.40000504
1.40000504
1.40000504
1.40000504
1.40000504
1.40000504
1.40000504
1.40000504
1.40000504
1.40000504
1.40000504
1.40000504
1.40000504
1.40000504
1.40000504
1.40000504
1.40000504
1.40000504
1.40000504
1.40000504
1.40000504
1.40000504
1.40000504
1.40000504
1.40000504
1.40000504
1.40000504
1.40000504
1.40000504
1.40000504
1.40000504
1.40000504
1.40000504
1.40000504
1.40000504
1.40000504
1.40000504
1.40000504
1.40000504
1.40000504
1.40000504
1.40000504
1.40000504
1.40000504
1.40000504
1.40000504
1.40000504
1.40000504
1.40000504
1.40000504
1.40000504
1.40000504
1.40000504
1.40000504
1.40000504
1.40000504
1.40000504
1.40000504
1.40000504
1.40000504
1.40000504
1.40000504
1.40000504
1.40000504
1.40000504
1.40000504
1.40000504
1.40000504
1.40000504
1.40000504
1.40000504
1.40000504
1.40000504
1.40000504
1.40000504
1.40000504
1.40000504
1.40000504
1.40000504
1.40000504
1.40000504
1.40000504
1.40000504
1.40000504
1.40000504
1.40000504
1.40000504
1.40000504
1.40000504
1.40000504
1.40000504
1.40000504
1.40000504
1.40000504
1.40000504
1.40000504
1.40000504
1.40000504
1.40000504
1.40000504
1.40000504
1.40000504
1.40000504
1.40000504
1.40000504
1.40000504
1.40000504
1.40000504
1.40000504
1.40000504
1.40000504
1.40000504
1.40000504
1.40000504
1.40000504
1.40000504
1.40000504
1.40000504
1.40000504
1.40000504
1.40000504
1.40000504
1.40000504
1.40000504
1.40000504
1.40000504
1.40000504
1.40000504
1.40000504
1.40000504
1.40000504
1.40000504
1.40000504
1.40000504
1.40000504
1.40000504
1.40000504
1.40000504
1.40000504
1.40000504
1.40000504
1.40000504
1.40000504
1.40000504
1.40000504
1.40000504
1.40000504
1.40000504
1.40000504
1.40000504
1.40000504
1.40000504
1.40000504
1.40000504
1.40000504
1.40000504
1.40000504
1.40000504
1.40000504
1.40000504
1.40000504
1.40000504
1.40000504
1.40000504
1.40000504
1.40000504
1.40000504
1.40000504
1.40000504
1.40000504
1.40000504
1.40000504
1.40000504
1.40000504
1.40000504
1.40000504
1.40000504
1.40000504
1.40000504
1.40000504
1.40000504
1.40000504
1.40000504
1.40000504
1.40000504
1.40000504
1.40000504
1.40000504
1.40000504
1.40000504
1.40000504
1.40000504
1.40000504
1.40000504
1.40000504
1.40000504
1.40000504
1.40000504
1.40000504
1.40000504
1.40000504
1.40000504
1.40000504
1.40000504
1.40000504
1.40000504
1.40000504
1.40000504
1.40000504
1.40000504
1.40000504
1.40000504
1.40000504
1.40000504
1.40000504
1.40000504
1.40000504
1.40000504
1.40000504
1.40000504
1.40000504
1.40000504
1.40000504
1.40000504
1.40000504
1.40000504
1.40000504
1.40000504
1.40000504
1.40000504
1.40000504
1.40000504
1.40000504
1.40000504
1.40000504
1.40000504
1.40000504
1.40000504
1.40000504
1.40000504
1.40000504
1.40000504
1.40000504
1.40000504
1.40000504
1.40000504
1.40000504
1.40000504
1.40000504
1.40000504
1.40000504
1.40000504
1.40000504
1.40000504
1.40000504
1.40000504
1.40000504
1.40000504
1.40000504
1.40000504
1.40000504
1.40000504
1.40000504
1.40000504
1.40000504
1.40000504
1.40000504
1.40000504
1.40000504
1.40000504
1.40000504
1.40000504
1.40000504
1.40000504
1.40000504
1.40000504
1.40000504
1.40000504
1.40000504
1.40000504
1.40000504
1.40000504
1.40000504
1.40000504
1.40000504
1.40000504
1.40000504
1.40000504
1.40000504
1.40000504
1.40000504
1.40000504
1.40000504
1.40000504
1.40000504
1.40000504
1.40000504
1.40000504
1.40000504
1.40000504
1.40000504
1.40000504
1.40000504
1.40000504
1.40000504
1.40000504
1.40000504
1.40000504
1.40000504
1.40000504
1.40000504
1.40000504
1.40000504
1.40000504
1.40000504
1.40000504
1.40000504
1.40000504
1.40000504
1.40000504
1.40000504
1.40000504
1.40000504
1.40000504
1.40000504
1.40000504
1.40000504
1.40000504
1.40000504
1.40000504
1.40000504
1.40000504
1.40000504
1.40000504
1.40000504
1.40000504
1.40000504
1.40000504
1.40000504
1.40000504
1.40000504
1.40000504
1.40000504
1.40000504
1.40000504
1.40000504
1.40000504
1.40000504
1.40000504
1.40000504
1.40000504
1.40000504
1.40000504
1.40000504
1.40000504
1.40000504
1.40000504
1.40000504
1.40000504
1.40000504
1.40000504
1.40000504
1.40000504
1.40000504
1.40000504
1.40000504
1.40000504
1.40000504
1.40000504
1.40000504
1.40000504
1.40000504
1.40000504
1.40000504
1.40000504
1.40000504
1.40000504
1.40000504
1.40000504
1.40000504
1.40000504
1.40000504
1.40000504
1.40000504
1.40000504
1.40000504
1.40000504
1.40000504
1.40000504
1.40000504
1.40000504
1.40000504
1.40000504
1.40000504
1.40000504
1.40000504
1.40000504
1.40000504
1.40000504
1.40000504
1.40000504
1.40000504
1.40000504
1.40000504
1.40000504
1.40000504
1.40000504
1.40000504
1.40000504
1.40000504
1.40000504
1.40000504
1.40000504
1.40000504
1.40000504
1.40000504
1.40000504
1.40000504
1.40000504
1.40000504
1.40000504
1.40000504
1.40000504
1.40000504
1.40000504
1.40000504
1.40000504
1.40000504
1.40000504
1.40000504
1.40000504
1.40000504
1.40000504
1.40000504
1.40000504
1.40000504
1.40000504
1.40000504
1.40000504
1.40000504
1.40000504
1.40000504
1.40000504
1.40000504
1.40000504
1.40000504
1.40000504
1.40000504
1.40000504
1.40000504
1.40000504
1.40000504
1.40000504
1.40000504
1.40000504
1.40000504
1.40000504
1.40000504
1.40000504
1.40000504
1.40000504
1.40000504
1.40000504
1.40000504
1.40000504
1.40000504
1.40000504
1.40000504
1.40000504
1.40000504
1.40000504
1.40000504
1.40000504
1.40000504
1.40000504
1.40000504
1.40000504
1.40000504
1.40000504
1.40000504
1.40000504
1.40000504
1.40000504
1.40000504
1.40000504
1.40000504
1.40000504
1.40000504
1.40000504
1.40000504
1.40000504
1.40000504
1.40000504
1.40000504
1.40000504
1.40000504
1.40000504
1.40000504
1.40000504
1.40000504
1.40000504
1.40000504
1.40000504
1.40000504
1.40000504
1.40000504
1.40000504
1.40000504
1.40000504
1.40000504
1.40000504
1.40000504
1.40000504
1.40000504
1.40000504
1.40000504
1.40000504
1.40000504
1.40000504
1.40000504
1.40000504
1.40000504
1.40000504
1.40000504
1.40000504
1.40000504
1.40000504
1.40000504
1.40000504
1.40000504
1.40000504
1.40000504
1.40000504
1.40000504
1.40000504
1.40000504
1.40000504
1.40000504
1.40000504
1.40000504
1.40000504
1.40000504
1.40000504
1.40000504
1.40000504
1.40000504
1.40000504
1.40000504
1.40000504
1.40000504
1.40000504
1.40000504
1.40000504
1.40000504
1.40000504
1.40000504
1.40000504
1.40000504
1.40000504
1.40000504
1.40000504
1.40000504
1.40000504
1.40000504
1.40000504
1.40000504
1.40000504
1.40000504
1.40000504
1.40000504
1.40000504
1.40000504
1.40000504
1.40000504
1.40000504
1.40000504
1.40000504
1.40000504
1.40000504
1.40000504
1.40000504
1.40000504
1.40000504
1.40000504
1.40000504
1.40000504
1.40000504
1.40000504
1.40000504
1.40000504
1.40000504
1.40000504
1.40000504
1.40000504
1.40000504
1.40000504
1.40000504
1.40000504
1.40000504
1.40000504
1.40000504
1.40000504
1.40000504
1.40000504
1.40000504
1.40000504
1.40000504
1.40000504
1.40000504
1.40000504
1.40000504
1.40000504
1.40000504
1.40000504
1.40000504
1.40000504
1.40000504
1.40000504
1.40000504
1.40000504
1.40000504
1.40000504
1.40000504
1.40000504
1.40000504
1.40000504
1.40000504
1.40000504
1.40000504
1.40000504
1.40000504
1.40000504
1.40000504
1.40000504
1.40000504
1.40000504
1.40000504
1.40000504
1.40000504
1.40000504
1.40000504
1.40000504
1.40000504
1.40000504
1.40000504
1.40000504
1.40000504
1.40000504
1.40000504
1.40000504
1.40000504
1.40000504
1.40000504
1.40000504
1.40000504
1.40000504
1.40000504
1.40000504
1.40000504
1.40000504
1.40000504
1.40000504
1.40000504
1.40000504
1.40000504
1.40000504
1.40000504
1.40000504
1.40000504
1.40000504
1.40000504
1.40000504
1.40000504
1.40000504
1.40000504
1.40000504
1.40000504
1.40000504
1.40000504
1.40000504
1.40000504
1.40000504
1.40000504
1.40000504
1.40000504
1.40000504
1.40000504
1.40000504
1.40000504
1.40000504
1.40000504
1.40000504
1.40000504
1.40000504
1.40000504
1.40000504
1.40000504
1.40000504
1.40000504
1.40000504
1.40000504
1.40000504
1.40000504
1.40000504
1.40000504
1.40000504
1.40000504
1.40000504
1.40000504
1.40000504
1.40000504
1.40000504
1.40000504
1.40000504
1.40000504
1.40000504
1.40000504
1.40000504
1.40000504
1.40000504
1.40000504
1.40000504
1.40000504
1.40000504
1.40000504
1.40000504
1.40000504
1.40000504
1.40000504
1.40000504
1.40000504
1.40000504
1.40000504
1.40000504
1.40000504
1.40000504
1.40000504
1.40000504
1.40000504
1.40000504
1.40000504
1.40000504
1.40000504
1.40000504
1.40000504
1.40000504
1.40000504
1.40000504
1.40000504
1.40000504
1.40000504
1.40000504
1.40000504
1.40000504
1.40000504
1.40000504
1.40000504
1.40000504
1.40000504
1.40000504
1.40000504
1.40000504
1.40000504
1.40000504
1.40000504
1.40000504
1.40000504
1.40000504
1.40000504
1.40000504
1.40000504
1.40000504
1.40000504
1.40000504
1.40000504
1.40000504
1.40000504
1.40000504
1.40000504
1.40000504
1.40000504
1.40000504
1.40000504
1.40000504
1.40000504
1.40000504
1.40000504
1.40000504
1.40000504
1.40000504
1.40000504
1.40000504
1.40000504
1.40000504
1.40000504
1.40000504
1.40000504
1.40000504
1.40000504
1.40000504
1.40000504
1.40000504
1.40000504
1.40000504
1.40000504
1.40000504
1.40000504
1.40000504
1.40000504
1.40000504
1.40000504
1.40000504
1.40000504
1.40000504
1.40000504
1.40000504
1.40000504
1.40000504
1.40000504
1.40000504
1.40000504
1.40000504
1.40000504
1.40000504
1.40000504
1.40000504
1.40000504
1.40000504
1.40000504
1.40000504
1.40000504
1.40000504
1.40000504
1.40000504
1.40000504
1.40000504
1.40000504
1.40000504
1.40000504
1.40000504
1.40000504
1.40000504
1.40000504
1.40000504
1.40000504
1.40000504
1.40000504
1.40000504
1.40000504
1.40000504
1.40000504
1.40000504
1.40000504
1.40000504
1.40000504
1.40000504
1.40000504
1.40000504
1.40000504
1.40000504
1.40000504
1.40000504
1.40000504
1.40000504
1.40000504
1.40000504
1.40000504
1.40000504
1.40000504
1.40000504
1.40000504
1.40000504
1.40000504
1.40000504
1.40000504
1.40000504
1.40000504
1.40000504
1.40000504
1.40000504
1.40000504
1.40000504
1.40000504
1.40000504
1.40000504
1.40000504
1.40000504
1.40000504
1.40000504
1.40000504
1.40000504
1.40000504
1.40000504
1.40000504
1.40000504
1.40000504
1.40000504
1.40000504
1.40000504
1.40000504
1.40000504
1.40000504
1.40000504
1.400005023
1.40000504
1.40000504
1.40000504
1.40000504
1.40000504
1.40000504
1.40000504
1.40000504
1.40000504
1.40000504
1.40000504
1.40000504
1.40000504
1.40000504
1.40000504
1.40000504
1.40000504
1.40000504
1.40000504
1.40000504
1.40000504
1.40000504
1.40000504
1.400005046
1.400004674
1.40000504
1.40000504
1.40000504
1.40000504
1.40000504
1.40000504
1.40000504
1.40000504
1.40000504
1.40000504
1.40000504
1.40000504
1.40000504
1.40000504
1.40000504
1.40000504
1.40000504
1.40000504
1.40000504
1.40000504
1.400005043
1.400005062
1.400005164
1.40000782
1.400003347
1.40000504
1.40000504
1.40000504
1.40000504
1.40000504
1.40000504
1.40000504
1.40000504
1.40000504
1.40000504
1.40000504
1.40000504
1.40000504
1.40000504
1.40000504
1.400005041
1.400005048
1.400005087
1.400005305
1.400006276
1.400010577
1.40002601
1.400076606
1.400349303
1.400379655
1.40000504
1.40000504
1.40000504
1.40000504
1.40000504
1.40000504
1.40000504
1.40000504
1.40000504
1.40000504
1.40000504
1.400005043
1.400005058
1.400005156
1.400005625
1.400007552
1.40001476
1.400037995
1.400113504
1.400312804
1.400877216
1.402085593
1.404918284
1.410265518
1.416939467
1.40000504
1.40000504
1.40000504
1.40000504
1.40000504
1.40000504
1.40000504
1.400005044
1.400005076
1.400005275
1.400006229
1.400010113
1.400023897
1.400066346
1.400188657
1.400483854
1.401220286
1.402746848
1.406166093
1.411917061
1.423015607
1.438868199
1.463920124
1.495176401
1.529548568
1.40000504
1.40000504
1.40000504
1.400005042
1.40000508
1.400005375
1.400006998
1.400013838
1.400038838
1.4001136
1.400322644
1.400806148
1.401940819
1.404093936
1.40838128
1.41521362
1.427563293
1.445202908
1.472338976
1.50462479
1.54622744
1.590733413
1.637521749
1.685767068
1.723782905
1.40000505
1.400005205
1.400006743
1.400015524
1.400053189
1.400176035
1.400520736
1.401313328
1.403077125
1.406304767
1.412141444
1.421137969
1.435794856
1.45509909
1.482373292
1.516191826
1.557229698
1.604006656
1.648518766
1.689587237
1.725488469
1.76289768
1.78806073
1.810245833
1.819145481
1.40003222
1.400154715
1.400638501
1.401896588
1.404684548
1.409759274
1.418551561
1.43098278
1.44964496
1.473615335
1.503677736
1.53822374
1.579482066
1.622851481
1.668640191
1.716895416
1.758492558
1.794211812
1.810601454
1.824713539
1.846050507
1.855368485
1.855930937
1.858389744
1.858532902
1.40355774
1.410938707
1.425568073
1.444697017
1.470429983
1.500789272
1.533451428
1.566049086
1.605725061
1.641640154
1.671986973
1.706610129
1.737388305
1.763168009
1.782099498
1.797463367
1.813224736
1.82894314
1.841956065
1.852001054
1.861094227
1.861515182
1.859549567
1.854437985
1.853528599
1.454751803
1.519076087
1.58575008
1.650956708
1.70911233
1.762312284
1.807923393
1.853487489
1.885877338
1.909141481
1.933437199
1.956933294
1.960051647
1.957043817
1.949580351
1.93967749
1.927848906
1.913540293
1.896997471
1.880589385
1.863097386
1.851033522
1.842371445
1.836465105
1.834176738
1.40000504
1.40000504
1.40000504
1.40000504
1.40000504
1.40000504
1.40000504
1.40000504
1.40000504
1.40000504
1.400005041
1.400005054
1.400005639
1.40001795
1.400230219
1.40219381
1.414837747
1.462372265
1.576045122
1.743963031
1.884110483
2.007731995
2.057939454
2.033889822
1.947751892
1.40000504
1.40000504
1.40000504
1.40000504
1.40000504
1.40000504
1.40000504
1.40000504
1.40000504
1.40000504
1.400005056
1.40000555
1.40001966
1.400201603
1.402279015
1.413202181
1.455996971
1.535189526
1.634213808
1.722686521
1.824878448
1.890996236
1.960999161
1.955357325
1.90849777
1.40000504
1.40000504
1.40000504
1.40000504
1.40000504
1.40000504
1.40000504
1.40000504
1.40000504
1.40000505
1.400005577
1.400016254
1.400227881
1.401890029
1.414688863
1.451817944
1.537631957
1.629557479
1.68323658
1.703597723
1.736476719
1.785254286
1.842976928
1.886022661
1.853973723
1.40000504
1.40000504
1.40000504
1.40000504
1.40000504
1.40000504
1.40000504
1.40000504
1.400005048
1.400005375
1.400017244
1.400170368
1.402222971
1.412249247
1.457932418
1.539694051
1.623019511
1.685066189
1.702752191
1.700918523
1.694281182
1.692372718
1.694989361
1.732921157
1.722431041
1.40000504
1.40000504
1.40000504
1.40000504
1.40000504
1.40000504
1.40000504
1.400005046
1.400005363
1.400012938
1.400192948
1.401672011
1.414195715
1.452384292
1.541751012
1.643762888
1.691786701
1.700553462
1.701483274
1.689930899
1.658095369
1.607276517
1.572401703
1.574552385
1.59445219
1.40000504
1.40000504
1.40000504
1.40000504
1.40000504
1.40000504
1.400005044
1.400005257
1.400013755
1.400134955
1.401960311
1.411415872
1.457168111
1.545914257
1.629092456
1.695190373
1.71255815
1.709319697
1.692207357
1.652605686
1.601068751
1.541500478
1.476660349
1.450525625
1.463455365
1.40000504
1.40000504
1.40000504
1.40000504
1.40000504
1.400005043
1.400005194
1.400010748
1.4001572
1.401465163
1.413165153
1.451673119
1.542443031
1.660216146
1.693766942
1.704058067
1.710234406
1.696152386
1.656616854
1.599349807
1.529780386
1.478870586
1.411502043
1.368972879
1.345666537
1.40000504
1.40000504
1.40000504
1.40000504
1.400005042
1.400005176
1.400009888
1.400107613
1.401727894
1.410717385
1.455384715
1.548782299
1.635054579
1.711507104
1.719581542
1.714721729
1.696566842
1.654501702
1.592298846
1.530416623
1.459751994
1.40708981
1.355079269
1.305381411
1.260165677
1.40000504
1.40000504
1.40000504
1.400005041
1.400005102
1.40000903
1.400103092
1.401243231
1.412117125
1.450475912
1.543466037
1.670773894
1.697211391
1.712451695
1.718099497
1.700333866
1.653172008
1.591035745
1.516254935
1.45625818
1.393385791
1.337066329
1.292475306
1.239802621
1.185653945
1.40000504
1.40000504
1.40000504
1.40000509
1.400007131
1.400083947
1.401266149
1.409524612
1.453750083
1.547767353
1.640888563
1.725693457
1.728953701
1.722638199
1.700342398
1.652802975
1.581442382
1.512146605
1.439881063
1.378935475
1.327497744
1.270204708
1.232363811
1.185609202
1.152899244
1.40000504
1.40000504
1.400005053
1.400006929
1.400053545
1.401049271
1.409956118
1.447500454
1.542953958
1.673971755
1.708521628
1.728566242
1.729877753
1.70650454
1.651687134
1.579710826
1.501292396
1.430864575
1.365724499
1.303041256
1.254497352
1.201344661
1.160276768
1.128841849
1.130870898
1.40000504
1.400005049
1.400005663
1.400052638
1.400728239
1.409116911
1.447121885
1.546076073
1.653882136
1.739414382
1.739398438
1.733297975
1.706505899
1.65049796
1.569443981
1.493379002
1.414948929
1.350690987
1.29299335
1.233165225
1.192700017
1.153687435
1.131083163
1.120382696
1.128551333
1.40000504
1.400005475
1.400023261
1.400758617
1.40676027
1.448008512
1.540665022
1.670072214
1.717812538
1.745594654
1.742368987
1.713203942
1.645089817
1.566898407
1.478700526
1.400684001
1.331148155
1.261984798
1.212637673
1.15847023
1.122726371
1.110389234
1.114272622
1.120049259
1.178007983
1.40000504
1.400018843
1.400347092
1.40713631
1.43958893
1.544073184
1.669884237
1.747877842
1.74545822
1.742683467
1.713160593
1.646787778
1.555724491
1.463031304
1.385984771
1.309983972
1.249357794
1.191790035
1.148094802
1.124722721
1.104980038
1.106000868
1.120220563
1.16302662
1.264111689
1.400005156
1.400286229
1.404042119
1.440403574
1.539995399
1.659426876
1.748142016
1.764464802
1.756708708
1.713537822
1.637759757
1.542606301
1.451354832
1.363220565
1.282212066
1.21479443
1.159630164
1.115289123
1.095102136
1.100548527
1.108651626
1.13579271
1.193632711
1.275023784
1.354137604
1.400018548
1.403520244
1.429616788
1.531978773
1.695233904
1.740581041
1.759025745
1.758385973
1.720523814
1.636694149
1.531011971
1.435500933
1.340715111
1.268624735
1.199922063
1.136349228
1.11027869
1.091305973
1.089186057
1.100364546
1.152718453
1.22920529
1.298960432
1.340420129
1.371694361
1.400597534
1.426685537
1.524619865
1.660377321
1.774694015
1.778797165
1.769823318
1.721707298
1.628863534
1.520900733
1.406478087
1.315778709
1.230732345
1.14930394
1.109511065
1.079341859
1.083673612
1.088200097
1.117059821
1.17768634
1.263910502
1.335211704
1.375207555
1.383087247
1.382340702
1.411587565
1.511719486
1.698261845
1.753554473
1.778076348
1.775714905
1.728466306
1.624997594
1.502215081
1.392428239
1.289152007
1.205104843
1.144102491
1.090041237
1.063419991
1.064938087
1.079237754
1.128882055
1.222518441
1.316337982
1.354141741
1.366735234
1.384562373
1.388890083
1.387258914
1.489816868
1.660950473
1.802176011
1.803289157
1.790887056
1.728096417
1.615321296
1.488363001
1.353168345
1.249924983
1.161875303
1.0858864
1.058291992
1.060568443
1.063821427
1.090524021
1.166140968
1.272150524
1.316597823
1.356631358
1.370161731
1.371778138
1.378326855
1.384600559
1.384927225
1.683559435
1.771180282
1.805183458
1.801305404
1.735587689
1.612639003
1.452250871
1.339632094
1.228892284
1.12180228
1.077456124
1.032700803
1.034128265
1.051919621
1.108712091
1.204563434
1.298112082
1.367597267
1.374109436
1.377325639
1.377670847
1.378350953
1.379401015
1.380715201
1.381667256
1.823272933
1.835184621
1.818315703
1.739038196
1.586255634
1.433844856
1.279704368
1.146180432
1.080042747
1.019933245
1.024190714
1.030350743
1.059879159
1.151974037
1.251391695
1.338535454
1.355015844
1.374124297
1.380786738
1.379994109
1.378762172
1.377581459
1.377882296
1.378573102
1.379828866
1.83953195
1.832668891
1.746246803
1.581930997
1.389062117
1.237446543
1.136858332
1.041843374
0.9834694821
0.9856659208
1.004305927
1.087288922
1.205063656
1.286337854
1.344776827
1.373105026
1.373350904
1.373931485
1.377124002
1.37688155
1.376371288
1.376915459
1.378418394
1.37982067
1.381340941
1.852329512
1.762921556
1.551698325
1.338957336
1.162375838
1.027060311
0.9799017634
0.9789981331
0.9813123778
1.023396119
1.12731203
1.246470226
1.33775983
1.357997239
1.370553862
1.381775757
1.377843465
1.372073443
1.372243325
1.373559791
1.37526991
1.377313451
1.379912682
1.382351407
1.383445791
1.777831865
1.545301544
1.308563411
1.127898594
1.028759449
0.9430674646
0.9323295441
0.9547584358
1.046269655
1.206201725
1.323819394
1.349757634
1.382973395
1.387066983
1.380733231
1.378538224
1.376906013
1.376351092
1.377498294
1.379594894
1.381509546
1.383451409
1.385708284
1.386416819
1.386627893
1.454335211
1.01686426
0.9823764966
0.964933922
0.9637239759
0.9576946258
0.9939250811
1.140754735
1.307649812
1.354116454
1.398349686
1.394402291
1.391008589
1.386060217
1.386486736
1.386812021
1.387138583
1.388159793
1.389952371
1.391392193
1.392017011
1.392887041
1.394069391
1.394391863
1.393574386
0.8857447173
0.7892195542
0.8263412046
0.8899589854
0.9450411182
0.9967481166
1.13498644
1.322654718
1.406995823
1.406018373
1.41487817
1.40797786
1.398807212
1.392336267
1.391469691
1.392369608
1.395408327
1.397972772
1.399804964
1.400642577
1.40121403
1.400997565
1.398946253
1.398859194
1.398535564
0.8468486603
0.784283028
0.8216952045
0.8902249542
0.9511788666
1.027397534
1.192934764
1.355557493
1.405158777
1.39938089
1.407221075
1.402074706
1.399711771
1.397393786
1.398147744
1.397466536
1.399698095
1.402411179
1.40310615
1.402707971
1.403768351
1.405125318
1.403681137
1.399110377
1.397922621
0.8378896544
0.7811449515
0.8177522855
0.8889412088
0.9568161991
1.055083964
1.246739663
1.38344238
1.406618066
1.393394411
1.403983981
1.398285329
1.395115599
1.396272205
1.399650753
1.399042016
1.400331971
1.402487363
1.402350069
1.400167578
1.40024205
1.403832124
1.404547667
1.399080933
1.396620655
0.8279433486
0.7797696934
0.8192743167
0.887602592
0.9662263934
1.091862675
1.313499606
1.420012802
1.422051336
1.395822088
1.402669419
1.395710298
1.391545908
1.392527673
1.397656767
1.397839898
1.397660225
1.399715626
1.400397771
1.398255057
1.397309638
1.39937453
1.402423662
1.399541008
1.395142439
0.820152331
0.7779059898
0.823257673
0.8870326496
0.9799256737
1.14518179
1.356153976
1.442912694
1.443904158
1.407796086
1.413569325
1.404200202
1.390672751
1.388696117
1.394573229
1.395529769
1.395560846
1.39708805
1.39810546
1.396287952
1.39444645
1.395743075
1.399054778
1.402017696
1.397093414
0.8134571515
0.7782447872
0.8259897059
0.8922121261
1.0055163
1.206875721
1.376304884
1.443979883
1.445434341
1.416348711
1.421997312
1.411919103
1.396031017
1.388857343
1.39376636
1.397405081
1.398430592
1.399035115
1.401515792
1.40214771
1.399440629
1.396010513
1.398581059
1.403732337
1.401196846
0.8072207716
0.7793139784
0.8274941441
0.9000033333
1.033840864
1.242781849
1.389237216
1.432650315
1.432742145
1.411678394
1.418430755
1.409330669
1.399510292
1.394083921
1.398205879
1.401855458
1.404106569
1.404758771
1.405588078
1.406132525
1.405666871
1.403694397
1.402328327
1.402656203
1.401223169
0.8015200865
0.7827118442
0.8304914607
0.9139722641
1.068953508
1.265381922
1.400093097
1.414222342
1.410178446
1.39808294
1.406702432
1.400196346
1.395617961
1.396011101
1.399331233
1.400769554
1.402978668
1.404334496
1.403359681
1.402835416
1.404713312
1.40594564
1.402914775
1.399028231
1.397632049
0.7992414003
0.7859986831
0.8350807145
0.9304614441
1.10641455
1.315383891
1.403985756
1.401131872
1.391808855
1.382400341
1.392152094
1.388479172
1.388565473
1.390624992
1.393047197
1.39293452
1.395126994
1.39707228
1.396279977
1.395350439
1.397498613
1.400127173
1.398504035
1.393784455
1.392928478
0.7968064685
0.7892023192
0.8413102969
0.9485006612
1.163836475
1.372822686
1.401392817
1.398943573
1.388425017
1.376386881
1.38469706
1.379834721
1.378633942
1.379984605
1.383144522
1.382517172
1.384541108
1.387149091
1.387281389
1.386066718
1.387181908
1.390909163
1.391847983
1.389443975
1.388291058
0.794696278
0.7940672372
0.8503508731
0.9823700093
1.248397507
1.384600348
1.395366762
1.397762985
1.388139905
1.370487068
1.374896862
1.36708047
1.364201623
1.366032706
1.372305382
1.373394902
1.375576034
1.378788968
1.379837683
1.378945622
1.378911368
1.381663901
1.384299712
1.383737685
1.381640299
0.7967532321
0.801023095
0.8617618078
1.020370501
1.288616354
1.370406639
1.381830067
1.384309175
1.37860769
1.360998064
1.363596054
1.353459917
1.349562598
1.352152348
1.361290599
1.363900592
1.36601932
1.368789401
1.370435231
1.37071983
1.370248745
1.371182568
1.373703561
1.374009176
1.37170978
0.799402832
0.8068680855
0.8799417889
1.061985977
1.295129014
1.361742772
1.363572087
1.36320757
1.358414033
1.349535776
1.354159264
1.34352206
1.338282918
1.341112207
1.350267467
1.353288057
1.355137646
1.356972732
1.358218627
1.359045564
1.359709165
1.360018058
1.361024135
1.361034409
1.358437832
0.8026380072
0.815614047
0.9026295596
1.103979525
1.324323133
1.363193306
1.349619123
1.330584946
1.331294861
1.331144692
1.338927359
1.332465325
1.328884423
1.33160746
1.337372527
1.338795366
1.340724632
1.342754089
1.344330861
1.345395399
1.347419849
1.348163235
1.347162709
1.346006886
1.342462884
0.8072182678
0.8293926659
0.9272536902
1.15065958
1.353735514
1.346601431
1.32253705
1.312925552
1.311077436
1.314259786
1.323593226
1.318827753
1.317968075
1.318511573
1.321103236
1.32205419
1.324479298
1.325669055
1.326644817
1.330162056
1.333391895
1.333527141
1.330992024
1.328044923
1.326177933
0.8155760689
0.8405579793
0.9661576086
1.230235709
1.354129046
1.333422409
1.31025325
1.304372141
1.300580967
1.300188758
1.307795509
1.305127812
1.304255131
1.302275362
1.303292036
1.303703321
1.306580677
1.307840152
1.308189539
1.309929294
1.314607789
1.316855002
1.314499842
1.311703679
1.310156665
0.8223449747
0.8544085899
1.025947886
1.294288352
1.34639539
1.32245329
1.300902243
1.303528262
1.299357486
1.290682454
1.292202704
1.286799235
1.286298108
1.286149895
1.288626038
1.289569605
1.292472793
1.293560632
1.293237832
1.29401006
1.296257083
1.29919335
1.299011024
1.297571466
1.296552728
0.829837852
0.8774685637
1.075990687
1.308645465
1.341182955
1.305586013
1.292005143
1.297250678
1.29253166
1.280989676
1.277552414
1.271313778
1.271683257
1.274584354
1.278187328
1.278809846
1.281470072
1.282870103
1.282261369
1.281597644
1.281715266
1.284528921
1.285554808
1.285553207
1.284671905
0.8384721564
0.9054083626
1.119131428
1.321437184
1.332840808
1.294108106
1.273895891
1.280858754
1.278713126
1.267370911
1.267352728
1.261472086
1.261555191
1.265427072
1.269814657
1.269291182
1.271379998
1.273560672
1.2733359
1.27233716
1.272037425
1.273476915
1.274274
1.273859549
1.272216216
0.8492121617
0.9417293675
1.176123149
1.33640152
1.324582272
1.270821915
1.248152135
1.255356622
1.260453808
1.257169949
1.259673655
1.253244929
1.251667907
1.254631139
1.25875078
1.259224816
1.26112218
1.263206718
1.263672885
1.264596751
1.264729031
1.264230776
1.26442202
1.2636279
1.261514756
0.8610182862
0.9946318218
1.251585394
1.342013469
1.302331936
1.245906109
1.232846986
1.240918692
1.248239416
1.249827291
1.252418804
1.244396967
1.243300253
1.245598031
1.24976121
1.250120661
1.252041668
1.253995444
1.255497836
1.256838991
1.258140491
1.257523999
1.257948586
1.256980183
1.254542589
0.8702753513
1.05353201
1.293309257
1.328569633
1.284352726
1.236075169
1.232189582
1.235823563
1.239597418
1.239977223
1.243551727
1.238704252
1.239810616
1.240230566
1.243155479
1.241821972
1.245226079
1.24740834
1.248945075
1.251422801
1.255088088
1.255964968
1.254797011
1.253017001
1.250298596
0.8746437933
1.090786772
1.31070473
1.316961645
1.270816758
1.232908372
1.237064198
1.242834398
1.235671126
1.22795231
1.231807966
1.231445622
1.234305375
1.233772865
1.237079955
1.240536205
1.24244259
1.24248125
1.243756252
1.248534867
1.252808623
1.253708919
1.251210833
1.2495236
1.249237763
0.8514554799
1.118784717
1.306623108
1.294903994
1.247901759
1.224241505
1.238493863
1.248285064
1.23491798
1.226000265
1.230224386
1.22729853
1.230734096
1.231578549
1.236164954
1.24112638
1.240735909
1.240445656
1.24113347
1.245934169
1.248835896
1.250099758
1.24937508
1.249475046
1.250824563
0.8689297534
1.18931222
1.303115301
1.28219489
1.229953701
1.21430342
1.231939306
1.242356026
1.233905162
1.22812206
1.231489962
1.228565669
1.231999414
1.233728204
1.238179369
1.239933278
1.242191743
1.242670607
1.24208853
1.244799941
1.247777997
1.249981505
1.250702279
1.251017222
1.251982609
0.8708171314
1.212678522
1.314835549
1.293853277
1.233368443
1.213170206
1.218650058
1.228232645
1.230336016
1.231345703
1.236919485
1.232937675
1.235598821
1.238027361
1.242801308
1.2418366
1.245302631
1.247600845
1.247249718
1.246668871
1.249262212
1.250942699
1.252083641
1.252836881
1.250914881
0.8529474979
1.143124692
1.304292987
1.309139856
1.248796239
1.211635995
1.214619411
1.225762926
1.231904936
1.236608653
1.240046167
1.235134316
1.236231891
1.239385783
1.243901804
1.242214967
1.245286202