/*--------------------------------*- C++ -*----------------------------------*\
  =========                 |
  \\      /  F ield         | OpenFOAM: The Open Source CFD Toolbox
   \\    /   O peration     | Website:  https://openfoam.org
    \\  /    A nd           | Version:  7
     \\/     M anipulation  |
\*---------------------------------------------------------------------------*/
FoamFile
{
    version     2.0;
    format      ascii;
    class       volVectorField;
    location    "0.9";
    object      U;
}
// * * * * * * * * * * * * * * * * * * * * * * * * * * * * * * * * * * * * * //

dimensions      [0 1 -1 0 0 0 0];

internalField   nonuniform List<vector> 
80000
(
(3 1.513783853e-16 0)
(3 -2.109039868e-16 0)
(3 -1.084546151e-16 0)
(3 -1.141660506e-15 0)
(3 -1.527022349e-15 0)
(3 -1.762692342e-15 0)
(3 -2.266907975e-15 0)
(3 -2.00113509e-15 0)
(3 -1.846890399e-15 0)
(3 -1.768633191e-15 0)
(3 -1.89239994e-15 0)
(3 -1.676046118e-15 0)
(3 -2.216744567e-15 0)
(3 -1.727611241e-15 0)
(3 -3.796612565e-16 0)
(3 2.603364101e-15 0)
(3 5.082838143e-15 0)
(3 4.675315378e-15 0)
(3 3.081778845e-15 0)
(3 3.733993784e-15 0)
(3 5.441471632e-15 0)
(3 6.288416813e-15 0)
(3 5.642681809e-15 0)
(3 4.229961829e-15 0)
(3 6.350421126e-16 0)
(3 -3.68521517e-15 0)
(3 -4.344737794e-15 0)
(3 -4.498015017e-15 0)
(3 -9.112014574e-15 0)
(3 -1.241820825e-14 0)
(3 -1.269158066e-14 0)
(3 -9.750364793e-15 0)
(3 -7.688438255e-15 0)
(3 -2.258450253e-15 0)
(3 6.145935692e-15 0)
(3 5.148285764e-15 0)
(3 4.269596334e-15 0)
(3 1.68873785e-15 0)
(3 -2.324737856e-15 0)
(3 -3.588572741e-15 0)
(3 -1.919306071e-15 0)
(3 1.595677933e-17 0)
(3 9.686248857e-16 0)
(3 2.554696503e-15 0)
(3 5.430156526e-15 0)
(3 4.781575049e-15 0)
(3 8.439477183e-15 0)
(3 7.828931421e-15 0)
(3 8.514581593e-15 0)
(3 1.054439656e-14 0)
(3 1.163419441e-14 0)
(3 1.063747744e-14 0)
(3 1.000713472e-14 0)
(3 1.025881157e-14 0)
(3 1.265384314e-14 0)
(3 1.369123139e-14 0)
(3 1.5948616e-14 0)
(3 1.316961579e-14 0)
(3 1.183312699e-14 0)
(3 8.152246412e-15 0)
(3 6.668466844e-15 0)
(3 6.806550432e-15 0)
(3 7.031333187e-15 0)
(3 4.947567516e-15 0)
(3 3.455512378e-15 0)
(3 -2.654171359e-16 0)
(3 -9.677906433e-15 0)
(3 -8.797064302e-15 0)
(3 -2.109482859e-15 0)
(3 1.621636534e-15 0)
(3 2.319277538e-15 0)
(3 2.446110987e-15 0)
(3 4.266412173e-15 0)
(3 3.657725137e-15 0)
(3 2.232234456e-15 0)
(3 -2.331573688e-15 0)
(3 -8.102838174e-15 0)
(3 -1.009148181e-14 0)
(3 -6.887336401e-15 0)
(3 -5.270624547e-15 0)
(3 -3.03904862e-15 0)
(3 -8.981559218e-16 0)
(3 3.749115589e-15 0)
(3 3.159460189e-15 0)
(3 6.003819002e-16 0)
(3 1.596058939e-15 0)
(3 1.877552283e-15 0)
(3 5.316491336e-15 0)
(3 9.716556638e-15 0)
(3 7.383966965e-15 0)
(3 5.789052356e-15 0)
(3 6.684067703e-15 0)
(3 8.154739845e-15 0)
(3 9.782619118e-15 0)
(3 8.165301171e-15 0)
(3 8.315444301e-15 0)
(3 1.38365142e-14 0)
(3 1.459290825e-14 0)
(3 1.288663902e-14 0)
(3 7.119374701e-15 0)
(3 -6.890125707e-16 0)
(3 -3.870335542e-16 0)
(3 5.60743608e-16 0)
(3 5.563260195e-16 0)
(3 -5.782992153e-16 0)
(3 -1.111389974e-15 0)
(3 -4.026319858e-15 0)
(3 -5.353606953e-15 0)
(3 -5.490125284e-15 0)
(3 -5.085622182e-15 0)
(3 -3.590390778e-15 0)
(3 -4.180841046e-15 0)
(3 -4.007497078e-15 0)
(3 -2.941779525e-15 0)
(3 -1.071855728e-15 0)
(3 3.755458291e-15 0)
(3 6.415753312e-15 0)
(3 5.44685255e-15 0)
(3 4.58717801e-15 0)
(3 6.56685138e-15 0)
(3 7.701055539e-15 0)
(3 6.137115469e-15 0)
(3 4.077257554e-15 0)
(3 -1.606015794e-15 0)
(3 -6.454630919e-15 0)
(3 -1.015083718e-14 0)
(3 -1.367430427e-14 0)
(3 -1.195699153e-14 0)
(3 -9.827160621e-15 0)
(3 -7.866317227e-15 0)
(3 -6.174105191e-15 0)
(3 -4.234515033e-15 0)
(3 7.61908333e-16 0)
(3 9.450929068e-15 0)
(3 1.93091744e-14 0)
(3 2.019869264e-14 0)
(3 1.667806294e-14 0)
(3 3.950819489e-15 0)
(3 -8.980007729e-15 0)
(3 -9.63469935e-15 0)
(3 -5.934470677e-15 0)
(3 4.835531281e-17 0)
(3 4.70556969e-15 0)
(3 6.511586871e-15 0)
(3 6.985067192e-15 0)
(3 5.669250797e-15 0)
(3 5.456132862e-15 0)
(3 4.763974933e-15 0)
(3 6.01704294e-15 0)
(3 7.815181056e-15 0)
(3 1.080831406e-14 0)
(3 9.175364974e-15 0)
(3 8.465308943e-15 0)
(3 8.808505808e-15 0)
(3 1.06756981e-14 0)
(3 1.174672059e-14 0)
(3 1.608203318e-14 0)
(3 1.558847696e-14 0)
(3 1.446039895e-14 0)
(3 9.689664381e-15 0)
(3 8.904739796e-15 0)
(3 7.0432312e-15 0)
(3 6.905976797e-15 0)
(3 4.393159719e-15 0)
(3 2.524174258e-15 0)
(3 -1.775747142e-15 0)
(3 -9.2059102e-15 0)
(3 -1.006936355e-14 0)
(3 -2.892049322e-15 0)
(3 6.849309974e-15 0)
(3 9.892139507e-15 0)
(3 9.790771798e-15 0)
(3 9.355165063e-15 0)
(3 8.178894292e-15 0)
(3 3.014613311e-15 0)
(3 -7.736251488e-15 0)
(3 -1.242694184e-14 0)
(3 -1.008654981e-14 0)
(3 -1.883401178e-16 0)
(3 6.52312465e-15 0)
(3 8.61845355e-15 0)
(3 1.298861986e-14 0)
(3 1.053305224e-14 0)
(3 7.285654923e-15 0)
(3 2.436763312e-15 0)
(3 2.85024979e-15 0)
(3 4.072629499e-15 0)
(3 8.240039233e-15 0)
(3 1.103757183e-14 0)
(3 1.051152472e-14 0)
(3 1.067977366e-14 0)
(3 1.533569967e-14 0)
(3 1.890146036e-14 0)
(3 2.312096518e-14 0)
(3 2.462964851e-14 0)
(3 2.123644772e-14 0)
(3 2.112106211e-14 0)
(3 1.4898446e-14 0)
(3 1.128390663e-14 0)
(3 7.568559766e-15 0)
(3 -7.538201482e-16 0)
(3 1.756308873e-16 0)
(3 6.872042037e-16 0)
(3 8.162451748e-16 0)
(3 -3.698429304e-16 0)
(3 -8.99989342e-16 0)
(3 -1.310771971e-15 0)
(3 -1.918617638e-15 0)
(3 -2.83695323e-15 0)
(3 -4.501919303e-15 0)
(3 -4.604053972e-15 0)
(3 -3.956128079e-15 0)
(3 -3.639109611e-15 0)
(3 -2.452765997e-15 0)
(3 -9.227309582e-16 0)
(3 -7.684628538e-16 0)
(3 -3.746489408e-15 0)
(3 -3.535298701e-15 0)
(3 -1.407428221e-15 0)
(3 -2.584853318e-16 0)
(3 -7.361735031e-16 0)
(3 -2.074343111e-15 0)
(3 -5.80186238e-15 0)
(3 -1.072747079e-14 0)
(3 -1.340601135e-14 0)
(3 -1.365146937e-14 0)
(3 -1.173429578e-14 0)
(3 -9.136757586e-15 0)
(3 -5.199785716e-15 0)
(3 -4.538443354e-15 0)
(3 -5.359587356e-15 0)
(3 -5.233785861e-15 0)
(3 -3.728030511e-15 0)
(3 2.559309076e-15 0)
(3 6.989130487e-15 0)
(3 1.021797414e-14 0)
(3 5.986705159e-15 0)
(3 -1.601309264e-15 0)
(3 -7.013374002e-15 0)
(3 -9.576029246e-15 0)
(3 -6.434451015e-15 0)
(3 -3.218021283e-15 0)
(3 -1.269052729e-15 0)
(3 -9.959665555e-16 0)
(3 -2.681447708e-15 0)
(3 -1.906989053e-15 0)
(3 -6.836873327e-15 0)
(3 -8.60500095e-15 0)
(3 -4.816960092e-15 0)
(3 -1.61410695e-15 0)
(3 -5.854604832e-16 0)
(3 -1.756119863e-15 0)
(3 -1.813093113e-15 0)
(3 -3.846675607e-17 0)
(3 4.589284893e-15 0)
(3 9.625935529e-15 0)
(3 1.760946047e-14 0)
(3 2.270710005e-14 0)
(3 1.845604683e-14 0)
(3 1.400367989e-14 0)
(3 1.270386539e-14 0)
(3 8.935580871e-15 0)
(3 1.212226767e-15 0)
(3 4.469221697e-16 0)
(3 3.330982747e-16 0)
(3 -1.748627101e-15 0)
(3 -3.328746462e-15 0)
(3 -4.851117019e-15 0)
(3 -3.086942774e-15 0)
(3 -3.462053459e-16 0)
(3 4.00306065e-15 0)
(3 3.925812129e-15 0)
(3 6.915190191e-16 0)
(3 -3.771132844e-15 0)
(3 -1.264269898e-14 0)
(3 -1.700816763e-14 0)
(3 -1.462223637e-14 0)
(3 -1.072637995e-14 0)
(3 -5.012942267e-15 0)
(3 7.532143149e-15 0)
(3 1.382213086e-14 0)
(3 1.401329291e-14 0)
(3 1.35461014e-14 0)
(3 1.266152036e-14 0)
(3 9.039003157e-15 0)
(3 3.279991779e-15 0)
(3 1.572896101e-16 0)
(3 2.541689779e-15 0)
(3 4.555759228e-15 0)
(3 8.193105991e-15 0)
(3 1.263593805e-14 0)
(3 1.894061439e-14 0)
(3 2.268773041e-14 0)
(3 2.695424265e-14 0)
(3 2.93952554e-14 0)
(3 3.018129997e-14 0)
(3 3.058793334e-14 0)
(3 2.754700723e-14 0)
(3 2.681941445e-14 0)
(3 2.090142886e-14 0)
(3 1.479224092e-15 0)
(3 1.31328046e-15 0)
(3 -9.015362066e-16 0)
(3 -1.407475609e-15 0)
(3 -3.295048164e-15 0)
(3 -4.023557148e-15 0)
(3 -1.931179474e-15 0)
(3 -9.992080969e-18 0)
(3 -1.440842373e-15 0)
(3 -1.04167005e-15 0)
(3 -1.012811452e-15 0)
(3 -8.74833532e-16 0)
(3 -4.036823579e-16 0)
(3 -8.128139361e-16 0)
(3 -2.630168886e-15 0)
(3 -7.727852087e-15 0)
(3 -1.08083173e-14 0)
(3 -8.719478284e-15 0)
(3 -8.291234333e-15 0)
(3 -7.433939205e-15 0)
(3 -6.830593876e-15 0)
(3 -5.531317724e-15 0)
(3 -5.46837425e-15 0)
(3 -5.139002624e-15 0)
(3 -5.342065399e-15 0)
(3 -5.765389421e-15 0)
(3 -2.449611833e-15 0)
(3 -7.042100763e-16 0)
(3 3.09337511e-15 0)
(3 4.720252669e-15 0)
(3 1.322368548e-15 0)
(3 2.157636157e-15 0)
(3 3.0713964e-15 0)
(3 8.354210234e-15 0)
(3 1.273174212e-14 0)
(3 1.339771336e-14 0)
(3 1.072473834e-14 0)
(3 6.205347129e-15 0)
(3 1.853500961e-15 0)
(3 -4.787397828e-15 0)
(3 -5.652106478e-15 0)
(3 -6.544310637e-15 0)
(3 -1.172228995e-14 0)
(3 -1.288588825e-14 0)
(3 -1.141652933e-14 0)
(3 -8.38167328e-15 0)
(3 -7.721550328e-15 0)
(3 -9.524077498e-15 0)
(3 -8.610660661e-15 0)
(3 -9.095060996e-15 0)
(3 -1.196438295e-14 0)
(3 -7.154787934e-15 0)
(3 -5.625700887e-15 0)
(3 -7.079577813e-16 0)
(3 9.807088181e-15 0)
(3 2.113862088e-14 0)
(3 2.409270346e-14 0)
(3 2.391605465e-14 0)
(3 1.977656247e-14 0)
(3 1.323113267e-14 0)
(3 7.332482086e-15 0)
(3 2.343740575e-15 0)
(3 1.427687308e-15 0)
(3 1.371116839e-15 0)
(3 2.322235872e-15 0)
(3 4.885172971e-15 0)
(3 6.055454286e-15 0)
(3 6.560571432e-15 0)
(3 4.529765738e-15 0)
(3 5.598182641e-15 0)
(3 6.919756104e-15 0)
(3 4.685489672e-15 0)
(3 -2.860147155e-15 0)
(3 -8.01217528e-15 0)
(3 -1.452665401e-14 0)
(3 -1.905010898e-14 0)
(3 -1.506747865e-14 0)
(3 -1.274576844e-14 0)
(3 -5.815677265e-15 0)
(3 4.353680468e-15 0)
(3 1.142510192e-15 0)
(3 -3.86553613e-15 0)
(3 2.618920371e-15 0)
(3 4.855673959e-15 0)
(3 3.849935766e-15 0)
(3 3.726645569e-16 0)
(3 -3.046256129e-16 0)
(3 5.405356815e-16 0)
(3 2.705784348e-15 0)
(3 3.509276457e-15 0)
(3 7.684044654e-15 0)
(3 1.440320998e-14 0)
(3 1.930778938e-14 0)
(3 2.273985554e-14 0)
(3 2.517609131e-14 0)
(3 2.576968277e-14 0)
(3 2.85213357e-14 0)
(3 2.859575483e-14 0)
(3 2.927019444e-14 0)
(3 2.613082356e-14 0)
(3 6.62303677e-16 0)
(3 -7.369045394e-17 0)
(3 1.045112542e-16 0)
(3 -5.754903152e-16 0)
(3 1.582050605e-16 0)
(3 8.649840632e-16 0)
(3 1.955055237e-15 0)
(3 2.005227925e-15 0)
(3 1.341668746e-15 0)
(3 2.769285161e-15 0)
(3 3.323724867e-15 0)
(3 9.535342131e-16 0)
(3 5.771063364e-16 0)
(3 -2.49583934e-15 0)
(3 -5.052643891e-15 0)
(3 -8.910083324e-15 0)
(3 -9.961628709e-15 0)
(3 -7.203738351e-15 0)
(3 -5.38856726e-15 0)
(3 -4.429931183e-15 0)
(3 -2.475794841e-15 0)
(3 -7.510457128e-16 0)
(3 1.248634983e-15 0)
(3 4.049908611e-15 0)
(3 3.568583645e-15 0)
(3 2.382929743e-15 0)
(3 2.654398355e-15 0)
(3 2.830592795e-15 0)
(3 3.109030071e-15 0)
(3 2.957098004e-15 0)
(3 2.946598216e-15 0)
(3 6.349591967e-15 0)
(3 1.167141195e-14 0)
(3 1.92937677e-14 0)
(3 1.950891663e-14 0)
(3 1.729556704e-14 0)
(3 1.380621072e-14 0)
(3 1.041895978e-14 0)
(3 6.873149142e-15 0)
(3 6.502390728e-16 0)
(3 -2.358238002e-16 0)
(3 -2.275454461e-15 0)
(3 -1.800153324e-15 0)
(3 -4.179465404e-15 0)
(3 -6.063606183e-15 0)
(3 -9.510241671e-15 0)
(3 -1.046089405e-14 0)
(3 -1.346625365e-14 0)
(3 -1.730849595e-14 0)
(3 -2.038837708e-14 0)
(3 -1.782324218e-14 0)
(3 -1.241919724e-14 0)
(3 -4.809793188e-15 0)
(3 3.694702082e-15 0)
(3 1.200136048e-14 0)
(3 1.458099914e-14 0)
(3 1.822912544e-14 0)
(3 1.781820924e-14 0)
(3 1.63108697e-14 0)
(3 1.277683954e-14 0)
(3 6.903476286e-15 0)
(3 2.026541151e-15 0)
(3 1.361626315e-15 0)
(3 2.262111616e-15 0)
(3 4.351537328e-15 0)
(3 9.524447352e-15 0)
(3 1.267432314e-14 0)
(3 1.544006809e-14 0)
(3 1.647069828e-14 0)
(3 1.398437938e-14 0)
(3 1.193647216e-14 0)
(3 8.495886488e-15 0)
(3 6.718370534e-15 0)
(3 6.438502829e-15 0)
(3 4.586357662e-15 0)
(3 1.05963162e-16 0)
(3 -3.625452468e-15 0)
(3 -3.427167634e-15 0)
(3 -1.068875397e-16 0)
(3 2.163839686e-15 0)
(3 -3.26285102e-15 0)
(3 -1.679767165e-15 0)
(3 6.54453609e-17 0)
(3 -3.059174761e-15 0)
(3 -4.879531433e-15 0)
(3 -3.313589133e-15 0)
(3 6.066694699e-15 0)
(3 8.128421895e-15 0)
(3 7.966668766e-15 0)
(3 7.164014965e-15 0)
(3 7.134044644e-15 0)
(3 7.776040941e-15 0)
(3 1.235006007e-14 0)
(3 1.545224915e-14 0)
(3 2.127185686e-14 0)
(3 2.221335105e-14 0)
(3 2.346126382e-14 0)
(3 2.513398252e-14 0)
(3 2.620361417e-14 0)
(3 2.840719538e-14 0)
(3 -8.128219017e-16 0)
(3 -4.680719124e-16 0)
(3 8.439366514e-16 0)
(3 2.16149824e-15 0)
(3 3.476218814e-15 0)
(3 5.89328348e-15 0)
(3 5.783598525e-15 0)
(3 3.799813993e-15 0)
(3 4.761508219e-15 0)
(3 3.346408561e-15 0)
(3 2.174760705e-15 0)
(3 3.082177e-16 0)
(3 -1.392551697e-15 0)
(3 -4.870783124e-15 0)
(3 -6.697785009e-15 0)
(3 -7.686545684e-15 0)
(3 -9.799936696e-15 0)
(3 -9.816969379e-15 0)
(3 -7.316353583e-15 0)
(3 -4.808377687e-15 0)
(3 -1.70723276e-15 0)
(3 -1.352186784e-15 0)
(3 -2.666105249e-15 0)
(3 -2.384186469e-15 0)
(3 -1.489591968e-15 0)
(3 -8.635983435e-16 0)
(3 -2.050346291e-15 0)
(3 -1.210139591e-15 0)
(3 -1.179869689e-15 0)
(3 2.821213948e-15 0)
(3 7.112451151e-15 0)
(3 1.98530993e-14 0)
(3 2.650279933e-14 0)
(3 2.399901243e-14 0)
(3 1.494923846e-14 0)
(3 8.04622639e-15 0)
(3 6.728120095e-15 0)
(3 5.563215254e-15 0)
(3 3.212960663e-15 0)
(3 7.546285907e-16 0)
(3 2.194045641e-15 0)
(3 3.412663649e-15 0)
(3 7.104803351e-15 0)
(3 6.865488035e-15 0)
(3 3.69193521e-15 0)
(3 -2.050900752e-15 0)
(3 -4.481786784e-15 0)
(3 -5.75014732e-15 0)
(3 -1.21777522e-14 0)
(3 -1.610595504e-14 0)
(3 -1.504362383e-14 0)
(3 -1.286807214e-14 0)
(3 -1.034819864e-14 0)
(3 -9.380451596e-15 0)
(3 -4.32144475e-15 0)
(3 -1.674634266e-15 0)
(3 2.900587814e-15 0)
(3 9.059088004e-15 0)
(3 1.295355593e-14 0)
(3 1.346974054e-14 0)
(3 1.003192667e-14 0)
(3 2.417054847e-15 0)
(3 -5.257517512e-16 0)
(3 6.510489443e-16 0)
(3 3.792869044e-15 0)
(3 7.450717763e-15 0)
(3 1.304200814e-14 0)
(3 1.553698028e-14 0)
(3 1.618296478e-14 0)
(3 1.535512896e-14 0)
(3 1.171059342e-14 0)
(3 1.002313322e-14 0)
(3 1.120265819e-14 0)
(3 1.369657422e-14 0)
(3 1.919420626e-14 0)
(3 1.814612523e-14 0)
(3 7.261249276e-15 0)
(3 3.688309923e-15 0)
(3 4.495019196e-15 0)
(3 3.825076264e-15 0)
(3 1.361300326e-15 0)
(3 -8.892508447e-16 0)
(3 -2.598128935e-15 0)
(3 -5.890753897e-15 0)
(3 -5.512760554e-15 0)
(3 -2.729147104e-15 0)
(3 -3.805887187e-15 0)
(3 -3.129672561e-15 0)
(3 -3.442662474e-15 0)
(3 -3.402039766e-15 0)
(3 -4.322648374e-15 0)
(3 -2.532171822e-15 0)
(3 1.409551232e-15 0)
(3 6.443003385e-15 0)
(3 1.362052891e-14 0)
(3 1.842312322e-14 0)
(3 1.917618918e-14 0)
(3 2.35179091e-14 0)
(3 2.789242573e-14 0)
(3 2.872287592e-14 0)
(3 4.679605058e-16 0)
(3 -1.368732174e-16 0)
(3 4.999480494e-16 0)
(3 1.365046074e-15 0)
(3 2.540267823e-15 0)
(3 1.754932761e-15 0)
(3 6.245987581e-16 0)
(3 7.802041336e-16 0)
(3 1.231688579e-15 0)
(3 -8.854530542e-16 0)
(3 -2.801699331e-15 0)
(3 -2.878467997e-15 0)
(3 -4.626777336e-15 0)
(3 -5.944526972e-15 0)
(3 -7.475082866e-15 0)
(3 -6.171938854e-15 0)
(3 -5.473239504e-15 0)
(3 -6.188318001e-15 0)
(3 -5.987162638e-15 0)
(3 -5.136114236e-15 0)
(3 -4.480470123e-15 0)
(3 -4.31980596e-15 0)
(3 -4.290762289e-15 0)
(3 -3.353504042e-15 0)
(3 -1.38924022e-15 0)
(3 7.051668999e-16 0)
(3 1.7983972e-15 0)
(3 3.583370534e-15 0)
(3 7.725085313e-15 0)
(3 1.416444363e-14 0)
(3 2.252843749e-14 0)
(3 2.781885917e-14 0)
(3 3.048040507e-14 0)
(3 2.471797584e-14 0)
(3 1.542422781e-14 0)
(3 1.4249828e-14 0)
(3 1.150450181e-14 0)
(3 9.787153731e-15 0)
(3 6.012841889e-15 0)
(3 3.538646812e-15 0)
(3 4.288886182e-15 0)
(3 1.008178674e-14 0)
(3 1.647621334e-14 0)
(3 1.366777033e-14 0)
(3 9.675503631e-15 0)
(3 7.312595167e-15 0)
(3 5.014035228e-15 0)
(3 4.789953982e-15 0)
(3 1.337237944e-15 0)
(3 5.251661907e-16 0)
(3 -8.320699499e-16 0)
(3 -8.523710256e-16 0)
(3 -1.453183459e-15 0)
(3 -1.612082394e-15 0)
(3 -3.365069735e-15 0)
(3 -2.566999837e-15 0)
(3 -2.74504701e-15 0)
(3 -2.226924728e-15 0)
(3 -7.600338896e-16 0)
(3 5.667863581e-17 0)
(3 4.555711683e-16 0)
(3 1.095930572e-15 0)
(3 5.069135463e-15 0)
(3 4.378788072e-15 0)
(3 4.993319282e-15 0)
(3 8.487981675e-15 0)
(3 1.270944149e-14 0)
(3 1.156835117e-14 0)
(3 9.149323298e-15 0)
(3 6.718582122e-15 0)
(3 5.214549649e-15 0)
(3 2.947601132e-15 0)
(3 3.668789323e-15 0)
(3 6.522850654e-15 0)
(3 1.685169635e-14 0)
(3 2.555778367e-14 0)
(3 2.403073304e-14 0)
(3 1.109297897e-14 0)
(3 6.192846738e-15 0)
(3 3.981804548e-15 0)
(3 5.675592251e-15 0)
(3 3.259524591e-15 0)
(3 -3.16231284e-15 0)
(3 -9.175591296e-15 0)
(3 -1.203483556e-14 0)
(3 -1.437177248e-14 0)
(3 -1.562389111e-14 0)
(3 -1.48754681e-14 0)
(3 -2.055414468e-14 0)
(3 -1.968946719e-14 0)
(3 -1.891770918e-14 0)
(3 -1.629442724e-14 0)
(3 -1.566907202e-14 0)
(3 -8.614980405e-15 0)
(3 2.700982839e-18 0)
(3 7.541035271e-15 0)
(3 1.261641652e-14 0)
(3 1.801870562e-14 0)
(3 2.306562202e-14 0)
(3 2.900593e-14 0)
(3 8.135066748e-16 0)
(3 8.928499833e-16 0)
(3 7.266389098e-16 0)
(3 4.588501829e-16 0)
(3 1.42928182e-15 0)
(3 1.162776777e-15 0)
(3 1.646594117e-15 0)
(3 2.915704175e-15 0)
(3 2.862638797e-15 0)
(3 1.740329071e-15 0)
(3 1.892260302e-15 0)
(3 1.464161474e-15 0)
(3 2.03673368e-15 0)
(3 2.107996548e-15 0)
(3 2.243804074e-15 0)
(3 3.746929087e-15 0)
(3 3.789846571e-15 0)
(3 5.793861774e-15 0)
(3 5.676118249e-15 0)
(3 4.576944139e-15 0)
(3 4.361793772e-15 0)
(3 5.531133197e-15 0)
(3 8.657401417e-15 0)
(3 1.061542266e-14 0)
(3 1.04607011e-14 0)
(3 1.10088012e-14 0)
(3 1.142039504e-14 0)
(3 1.37044625e-14 0)
(3 1.383900071e-14 0)
(3 1.472584163e-14 0)
(3 1.821583786e-14 0)
(3 1.679577107e-14 0)
(3 1.182004293e-14 0)
(3 6.071688823e-15 0)
(3 2.181117944e-15 0)
(3 1.562275516e-15 0)
(3 1.708295268e-15 0)
(3 2.880507316e-15 0)
(3 6.259783059e-15 0)
(3 1.054333299e-14 0)
(3 1.347216388e-14 0)
(3 1.728100905e-14 0)
(3 2.167884493e-14 0)
(3 1.941875286e-14 0)
(3 1.629209231e-14 0)
(3 1.821624434e-14 0)
(3 1.804531439e-14 0)
(3 1.971757889e-14 0)
(3 1.86686664e-14 0)
(3 1.719057396e-14 0)
(3 9.840618279e-15 0)
(3 7.26327615e-15 0)
(3 6.958234156e-15 0)
(3 5.690723978e-15 0)
(3 -3.689174607e-17 0)
(3 -3.231753458e-15 0)
(3 -5.346179097e-15 0)
(3 -5.807969091e-15 0)
(3 -5.602633445e-15 0)
(3 -4.492455399e-15 0)
(3 -1.873620192e-15 0)
(3 2.691162792e-15 0)
(3 5.939184458e-15 0)
(3 8.121514309e-15 0)
(3 1.203684268e-14 0)
(3 1.218275902e-14 0)
(3 1.562989963e-14 0)
(3 1.980800039e-14 0)
(3 1.458146606e-14 0)
(3 9.017992153e-15 0)
(3 9.012102651e-15 0)
(3 1.341713864e-14 0)
(3 1.679373681e-14 0)
(3 2.12334132e-14 0)
(3 2.345092845e-14 0)
(3 2.97346623e-14 0)
(3 3.211197122e-14 0)
(3 2.968584124e-14 0)
(3 1.471427712e-14 0)
(3 7.958822045e-15 0)
(3 9.692675799e-15 0)
(3 9.391156993e-15 0)
(3 3.462736355e-15 0)
(3 -5.947184256e-15 0)
(3 -1.386525887e-14 0)
(3 -1.695976945e-14 0)
(3 -2.329640366e-14 0)
(3 -2.766697789e-14 0)
(3 -3.512187073e-14 0)
(3 -3.404566296e-14 0)
(3 -3.633322426e-14 0)
(3 -3.637803405e-14 0)
(3 -3.199215985e-14 0)
(3 -2.706439046e-14 0)
(3 -1.820299737e-14 0)
(3 -7.546504129e-15 0)
(3 2.005624506e-15 0)
(3 7.526673485e-15 0)
(3 1.299559138e-14 0)
(3 2.23871869e-14 0)
(3 -7.353674346e-16 0)
(3 -3.992586741e-16 0)
(3 -2.445491475e-17 0)
(3 2.25170288e-16 0)
(3 2.032756336e-15 0)
(3 4.980954439e-15 0)
(3 7.474389298e-15 0)
(3 6.823259752e-15 0)
(3 8.568471121e-15 0)
(3 1.170025095e-14 0)
(3 1.285186951e-14 0)
(3 1.277542764e-14 0)
(3 1.224264142e-14 0)
(3 1.07777529e-14 0)
(3 8.673891576e-15 0)
(3 6.116950159e-15 0)
(3 7.628360033e-15 0)
(3 1.067303988e-14 0)
(3 1.251612423e-14 0)
(3 1.320407091e-14 0)
(3 1.561370123e-14 0)
(3 1.796338493e-14 0)
(3 1.752211709e-14 0)
(3 1.648399748e-14 0)
(3 1.497783181e-14 0)
(3 1.212784488e-14 0)
(3 1.251815007e-14 0)
(3 1.156375588e-14 0)
(3 1.082408515e-14 0)
(3 6.955606569e-15 0)
(3 3.04870722e-15 0)
(3 -9.659825091e-16 0)
(3 -1.02849729e-14 0)
(3 -1.667127864e-14 0)
(3 -1.561470391e-14 0)
(3 -1.504597922e-14 0)
(3 -1.08812657e-14 0)
(3 -1.388749104e-15 0)
(3 9.014532422e-15 0)
(3 1.340641509e-14 0)
(3 1.259952023e-14 0)
(3 1.411972514e-14 0)
(3 1.590257838e-14 0)
(3 2.027364348e-14 0)
(3 2.331997095e-14 0)
(3 2.358224914e-14 0)
(3 1.999512996e-14 0)
(3 1.847850164e-14 0)
(3 1.5231131e-14 0)
(3 1.102286594e-14 0)
(3 7.021274586e-15 0)
(3 5.637257023e-15 0)
(3 6.429256674e-15 0)
(3 9.204640923e-15 0)
(3 1.18529185e-14 0)
(3 1.380895182e-14 0)
(3 1.435816279e-14 0)
(3 9.54528455e-15 0)
(3 7.522829787e-15 0)
(3 7.583028195e-15 0)
(3 9.719850235e-15 0)
(3 1.065910312e-14 0)
(3 1.101587054e-14 0)
(3 1.242068439e-14 0)
(3 1.62423897e-14 0)
(3 1.184988238e-14 0)
(3 1.00726218e-14 0)
(3 1.151764575e-14 0)
(3 1.500042899e-14 0)
(3 1.182017454e-14 0)
(3 1.211025077e-14 0)
(3 1.30568719e-14 0)
(3 1.53179444e-14 0)
(3 2.101698802e-14 0)
(3 2.70672235e-14 0)
(3 3.182448227e-14 0)
(3 3.509105292e-14 0)
(3 3.729284082e-14 0)
(3 3.149677043e-14 0)
(3 1.981877488e-14 0)
(3 1.293950551e-14 0)
(3 1.026226756e-14 0)
(3 5.114275193e-15 0)
(3 1.343843303e-15 0)
(3 -6.606487134e-15 0)
(3 -1.196648952e-14 0)
(3 -2.370663266e-14 0)
(3 -3.505845213e-14 0)
(3 -4.658755307e-14 0)
(3 -4.838275766e-14 0)
(3 -4.422556113e-14 0)
(3 -3.822308363e-14 0)
(3 -3.741205137e-14 0)
(3 -3.435521113e-14 0)
(3 -2.602800301e-14 0)
(3 -1.652874191e-14 0)
(3 -9.432552342e-15 0)
(3 -8.830757115e-16 0)
(3 5.291540067e-15 0)
(3 1.267261024e-14 0)
(3 -1.776058731e-15 0)
(3 -1.448518473e-15 0)
(3 -8.776824898e-17 0)
(3 -6.249615732e-16 0)
(3 -2.185470185e-16 0)
(3 2.4641368e-16 0)
(3 1.786939884e-15 0)
(3 3.384967845e-15 0)
(3 4.12009766e-15 0)
(3 4.9972256e-15 0)
(3 4.225381387e-15 0)
(3 2.326186327e-15 0)
(3 1.220931105e-15 0)
(3 2.298386828e-15 0)
(3 2.427514721e-15 0)
(3 3.17723461e-15 0)
(3 5.231508759e-15 0)
(3 5.400885405e-15 0)
(3 6.160198732e-15 0)
(3 8.384348296e-15 0)
(3 1.081758218e-14 0)
(3 1.219499937e-14 0)
(3 1.202187501e-14 0)
(3 1.168293915e-14 0)
(3 9.614322429e-15 0)
(3 6.55835519e-15 0)
(3 6.656115054e-15 0)
(3 5.974439158e-15 0)
(3 4.962963744e-15 0)
(3 8.938105513e-16 0)
(3 -7.476596871e-15 0)
(3 -1.160375202e-14 0)
(3 -1.164291858e-14 0)
(3 -9.361675879e-15 0)
(3 -5.039619401e-15 0)
(3 -5.53339848e-15 0)
(3 -5.289968041e-15 0)
(3 9.176346488e-16 0)
(3 6.368030115e-15 0)
(3 7.358322059e-15 0)
(3 7.629596858e-15 0)
(3 8.152023359e-15 0)
(3 3.646030371e-15 0)
(3 6.685162738e-15 0)
(3 1.637593564e-14 0)
(3 1.957680642e-14 0)
(3 1.933245642e-14 0)
(3 1.823387751e-14 0)
(3 1.691627674e-14 0)
(3 1.435017876e-14 0)
(3 1.236687938e-14 0)
(3 1.292463243e-14 0)
(3 1.378645554e-14 0)
(3 1.50185865e-14 0)
(3 2.146725122e-14 0)
(3 2.022255254e-14 0)
(3 2.026112242e-14 0)
(3 2.244842625e-14 0)
(3 1.897154654e-14 0)
(3 1.693061229e-14 0)
(3 1.431610724e-14 0)
(3 1.133217994e-14 0)
(3 1.10531323e-14 0)
(3 1.258531607e-14 0)
(3 1.349234476e-14 0)
(3 1.400665008e-14 0)
(3 1.17957655e-14 0)
(3 8.76552674e-15 0)
(3 8.141150518e-15 0)
(3 6.372165156e-15 0)
(3 6.074301617e-15 0)
(3 7.444058787e-15 0)
(3 1.084902286e-14 0)
(3 1.571567004e-14 0)
(3 2.036379575e-14 0)
(3 3.050808536e-14 0)
(3 4.226627668e-14 0)
(3 4.807464908e-14 0)
(3 4.279063184e-14 0)
(3 3.322184552e-14 0)
(3 1.540545594e-14 0)
(3 8.714910639e-15 0)
(3 8.168975786e-15 0)
(3 4.964787272e-15 0)
(3 -2.536293114e-15 0)
(3 -1.267019197e-14 0)
(3 -1.986688751e-14 0)
(3 -2.633713403e-14 0)
(3 -3.337887661e-14 0)
(3 -3.618582294e-14 0)
(3 -3.013525435e-14 0)
(3 -2.685664477e-14 0)
(3 -2.485192662e-14 0)
(3 -2.096748071e-14 0)
(3 -1.827608482e-14 0)
(3 -1.676799222e-14 0)
(3 -1.061709366e-14 0)
(3 -7.062818103e-16 0)
(3 7.201219614e-15 0)
(3 2.776719736e-15 0)
(3 1.160472339e-15 0)
(3 -4.645402669e-16 0)
(3 -7.843644809e-16 0)
(3 -8.594408216e-16 0)
(3 -2.977667597e-15 0)
(3 -5.671704315e-15 0)
(3 -6.303637094e-15 0)
(3 -4.796304448e-15 0)
(3 -4.640783564e-15 0)
(3 -6.782188351e-15 0)
(3 -9.205552495e-15 0)
(3 -9.702406632e-15 0)
(3 -9.395728659e-15 0)
(3 -6.154629434e-15 0)
(3 -2.339499579e-15 0)
(3 3.790585992e-15 0)
(3 3.97439427e-15 0)
(3 4.56599726e-15 0)
(3 5.41339789e-15 0)
(3 7.206960294e-15 0)
(3 5.38741123e-15 0)
(3 4.294095178e-15 0)
(3 5.286564322e-15 0)
(3 5.645758306e-15 0)
(3 7.962931105e-15 0)
(3 8.300277144e-15 0)
(3 4.476918918e-15 0)
(3 1.074219991e-15 0)
(3 -7.46075429e-16 0)
(3 -2.497379368e-15 0)
(3 -4.523897388e-15 0)
(3 -6.556488136e-15 0)
(3 -4.084621228e-15 0)
(3 -1.759286579e-15 0)
(3 -2.02310912e-15 0)
(3 -3.552930852e-15 0)
(3 -1.534748047e-15 0)
(3 3.865875719e-15 0)
(3 4.309853412e-15 0)
(3 5.777436268e-16 0)
(3 -1.022540761e-15 0)
(3 4.119960614e-16 0)
(3 -5.239871324e-15 0)
(3 -2.816657118e-15 0)
(3 5.391256433e-15 0)
(3 7.022338993e-15 0)
(3 6.259689e-15 0)
(3 5.401697501e-15 0)
(3 7.312979492e-15 0)
(3 1.344946152e-14 0)
(3 1.835952788e-14 0)
(3 2.002604808e-14 0)
(3 2.243989447e-14 0)
(3 2.419150865e-14 0)
(3 2.650543657e-14 0)
(3 2.720273021e-14 0)
(3 2.60739218e-14 0)
(3 2.413498094e-14 0)
(3 2.05658373e-14 0)
(3 1.842173449e-14 0)
(3 1.380929496e-14 0)
(3 1.192993455e-14 0)
(3 1.017637145e-14 0)
(3 1.058285743e-14 0)
(3 1.010726192e-14 0)
(3 1.01087414e-14 0)
(3 6.21508385e-15 0)
(3 1.322477961e-15 0)
(3 -4.314139417e-15 0)
(3 -4.136427792e-15 0)
(3 2.657212712e-15 0)
(3 6.66726351e-15 0)
(3 1.342660929e-14 0)
(3 1.608339319e-14 0)
(3 2.165589685e-14 0)
(3 2.667626027e-14 0)
(3 3.554641097e-14 0)
(3 3.769304904e-14 0)
(3 3.57728526e-14 0)
(3 3.053442902e-14 0)
(3 2.77088244e-14 0)
(3 1.888950975e-14 0)
(3 8.91687596e-15 0)
(3 8.570329565e-16 0)
(3 -2.612490079e-15 0)
(3 -8.141439078e-15 0)
(3 -1.194515193e-14 0)
(3 -1.564442198e-14 0)
(3 -1.609292137e-14 0)
(3 -1.765217578e-14 0)
(3 -2.452461378e-14 0)
(3 -2.586126151e-14 0)
(3 -2.141648237e-14 0)
(3 -1.347944119e-14 0)
(3 -1.083658794e-14 0)
(3 -1.444121775e-14 0)
(3 -1.354628254e-14 0)
(3 -1.356638051e-14 0)
(3 -1.155877463e-14 0)
(3 -5.44349619e-15 0)
(3 1.313786759e-15 0)
(3 8.252937538e-16 0)
(3 8.770334977e-16 0)
(3 9.875190348e-16 0)
(3 -4.221769397e-16 0)
(3 -2.637026257e-15 0)
(3 -4.998216923e-15 0)
(3 -8.326641428e-15 0)
(3 -1.008408241e-14 0)
(3 -1.195132827e-14 0)
(3 -1.175065791e-14 0)
(3 -9.881284345e-15 0)
(3 -7.091536698e-15 0)
(3 -4.196175391e-15 0)
(3 -1.363776703e-16 0)
(3 7.195572868e-15 0)
(3 1.010179348e-14 0)
(3 9.57706241e-15 0)
(3 7.139853345e-15 0)
(3 3.452560939e-15 0)
(3 1.253500227e-15 0)
(3 8.621854096e-17 0)
(3 3.935384735e-16 0)
(3 1.516358377e-16 0)
(3 2.669312679e-15 0)
(3 6.100687714e-15 0)
(3 7.313710448e-15 0)
(3 4.605864226e-15 0)
(3 2.045006241e-15 0)
(3 1.265947884e-15 0)
(3 1.994295026e-15 0)
(3 3.188685258e-15 0)
(3 5.459527332e-15 0)
(3 3.254781224e-15 0)
(3 -1.187024853e-15 0)
(3 -3.014203115e-15 0)
(3 -2.436285509e-15 0)
(3 -3.476627029e-15 0)
(3 -7.801118244e-16 0)
(3 -3.703288126e-15 0)
(3 -7.957009488e-15 0)
(3 -9.965799793e-15 0)
(3 -1.029533369e-14 0)
(3 -6.603751347e-15 0)
(3 -4.168813044e-15 0)
(3 -1.240953928e-15 0)
(3 -2.153482886e-16 0)
(3 -8.065337975e-16 0)
(3 5.199401616e-15 0)
(3 1.410526616e-14 0)
(3 1.914355839e-14 0)
(3 2.399609705e-14 0)
(3 2.437289913e-14 0)
(3 2.759483896e-14 0)
(3 2.759003236e-14 0)
(3 2.858610262e-14 0)
(3 2.587392851e-14 0)
(3 2.413431028e-14 0)
(3 2.315129476e-14 0)
(3 2.292835609e-14 0)
(3 2.261716491e-14 0)
(3 1.841756357e-14 0)
(3 1.682955859e-14 0)
(3 1.38727323e-14 0)
(3 9.737053283e-15 0)
(3 6.986945286e-15 0)
(3 -3.576665965e-16 0)
(3 -4.247605775e-15 0)
(3 -1.093092546e-14 0)
(3 -9.395680647e-15 0)
(3 -6.856580862e-15 0)
(3 -3.479677543e-15 0)
(3 2.872619093e-15 0)
(3 5.612209806e-15 0)
(3 1.457922279e-14 0)
(3 2.133384484e-14 0)
(3 2.123399657e-14 0)
(3 1.920375475e-14 0)
(3 1.919540352e-14 0)
(3 1.726802138e-14 0)
(3 1.558070125e-14 0)
(3 1.441866713e-14 0)
(3 7.813931577e-15 0)
(3 -2.174972762e-15 0)
(3 -1.551490836e-15 0)
(3 1.489571281e-16 0)
(3 2.71541165e-15 0)
(3 6.116819517e-15 0)
(3 4.099953945e-15 0)
(3 -8.104286251e-16 0)
(3 -7.031520303e-15 0)
(3 -8.356162327e-15 0)
(3 -6.947140026e-15 0)
(3 -5.681258628e-15 0)
(3 -5.857914941e-15 0)
(3 -8.489787211e-15 0)
(3 -1.262576339e-14 0)
(3 -1.385575671e-14 0)
(3 -1.551658876e-14 0)
(3 -1.099328775e-14 0)
(3 3.9244885e-16 0)
(3 2.542804824e-15 0)
(3 1.463952693e-15 0)
(3 6.222526174e-16 0)
(3 -3.702520067e-17 0)
(3 6.467398109e-16 0)
(3 8.774263969e-16 0)
(3 -1.697497818e-15 0)
(3 -6.326247216e-15 0)
(3 -5.999534579e-15 0)
(3 -4.490405243e-15 0)
(3 -3.486869943e-15 0)
(3 -1.401053995e-15 0)
(3 1.278661303e-15 0)
(3 4.339466828e-15 0)
(3 5.458820671e-15 0)
(3 7.094147064e-15 0)
(3 4.543100638e-15 0)
(3 1.030450848e-15 0)
(3 -5.405937712e-15 0)
(3 -6.484444622e-15 0)
(3 -6.874162743e-15 0)
(3 -4.674287711e-15 0)
(3 -3.938668917e-15 0)
(3 -2.438834734e-15 0)
(3 1.809852206e-15 0)
(3 2.534618064e-15 0)
(3 3.436293827e-15 0)
(3 1.929306155e-15 0)
(3 4.051386778e-15 0)
(3 8.532076145e-15 0)
(3 9.254932556e-15 0)
(3 6.037818908e-15 0)
(3 1.906309162e-15 0)
(3 -5.746253107e-15 0)
(3 -1.018975817e-14 0)
(3 -6.957621954e-15 0)
(3 -1.34267671e-15 0)
(3 -3.304809904e-16 0)
(3 -9.084306075e-16 0)
(3 -4.45210185e-15 0)
(3 -8.20196233e-15 0)
(3 -8.880766837e-15 0)
(3 -9.245905417e-15 0)
(3 -8.654740461e-15 0)
(3 -4.995695809e-15 0)
(3 6.606377939e-16 0)
(3 1.940998484e-15 0)
(3 9.892755301e-15 0)
(3 1.536827904e-14 0)
(3 2.479251614e-14 0)
(3 2.683352523e-14 0)
(3 2.65111738e-14 0)
(3 2.516323795e-14 0)
(3 2.000553198e-14 0)
(3 1.278075137e-14 0)
(3 1.147711454e-14 0)
(3 1.264085715e-14 0)
(3 1.543453058e-14 0)
(3 1.740390864e-14 0)
(3 2.189227766e-14 0)
(3 2.085701453e-14 0)
(3 1.973005632e-14 0)
(3 1.82293686e-14 0)
(3 1.013658069e-14 0)
(3 3.653163963e-15 0)
(3 -3.257250031e-15 0)
(3 -8.005776341e-15 0)
(3 -7.632265718e-15 0)
(3 -5.473690982e-15 0)
(3 -2.598336995e-15 0)
(3 -6.236952686e-16 0)
(3 5.480923188e-15 0)
(3 7.423859348e-15 0)
(3 8.629230894e-15 0)
(3 8.305776823e-15 0)
(3 6.555941053e-15 0)
(3 5.952188038e-15 0)
(3 5.948437586e-15 0)
(3 6.007622955e-15 0)
(3 3.679239233e-15 0)
(3 7.062116848e-16 0)
(3 -1.138544632e-15 0)
(3 -5.048135228e-16 0)
(3 1.991637572e-15 0)
(3 4.24516887e-15 0)
(3 5.941753621e-15 0)
(3 7.217772239e-15 0)
(3 6.435205485e-15 0)
(3 7.36041629e-15 0)
(3 7.270219545e-15 0)
(3 7.51714671e-15 0)
(3 4.186830979e-15 0)
(3 2.26207249e-15 0)
(3 8.952447239e-16 0)
(3 -1.88318354e-16 0)
(3 -2.333221284e-15 0)
(3 -4.183115981e-15 0)
(3 1.171358488e-15 0)
(3 4.543281143e-15 0)
(3 2.770776445e-16 0)
(3 -1.268109607e-15 0)
(3 -2.186633243e-15 0)
(3 -1.91477696e-15 0)
(3 -1.325701171e-15 0)
(3 1.147521575e-15 0)
(3 1.039250624e-15 0)
(3 8.454504038e-16 0)
(3 6.978420012e-16 0)
(3 1.072294458e-15 0)
(3 1.110175298e-15 0)
(3 3.908677082e-16 0)
(3 1.498066655e-16 0)
(3 -1.227231452e-15 0)
(3 -1.819078356e-15 0)
(3 -3.897468978e-15 0)