/*--------------------------------*- C++ -*----------------------------------*\
  =========                 |
  \\      /  F ield         | OpenFOAM: The Open Source CFD Toolbox
   \\    /   O peration     | Website:  https://openfoam.org
    \\  /    A nd           | Version:  7
     \\/     M anipulation  |
\*---------------------------------------------------------------------------*/
FoamFile
{
    version     2.0;
    format      ascii;
    class       volScalarField;
    location    "5";
    object      T;
}
// * * * * * * * * * * * * * * * * * * * * * * * * * * * * * * * * * * * * * //

dimensions      [0 0 0 1 0 0 0];

internalField   nonuniform List<scalar> 
555
(
0.9894846562
0.9903497061
0.9911377297
0.991664926
0.9918333991
0.9919215286
0.9916739321
0.9911084991
0.990955208
0.9909867299
0.9909514988
0.9908404845
0.9905773887
0.9903342513
0.9902748837
0.990301027
0.9905811684
0.9885573016
0.9891730709
0.9896986088
0.9901629543
0.9904925761
0.9907544201
0.9906833861
0.9905218541
0.9902746332
0.9900044411
0.9897485801
0.98961151
0.9893006588
0.988805607
0.9890813267
0.9895245841
0.9902002775
0.9877953499
0.9880820776
0.9885302866
0.9888198666
0.9890955121
0.9894135646
0.9897109276
0.9898735528
0.9898764675
0.9896625648
0.9892395865
0.9887126513
0.9883242021
0.9885149676
0.9887850473
0.989534129
0.9902447121
0.9874543084
0.987443389
0.9875881272
0.9877654406
0.9879715142
0.9883138496
0.9886827856
0.9891214395
0.989209133
0.9892757402
0.9891544245
0.9888651744
0.9886495526
0.9886963166
0.9891130085
0.9897827801
0.9903040003
0.9870995777
0.9870223483
0.9868338304
0.9869007126
0.9873089098
0.9876998316
0.9880035584
0.9882531351
0.9884399853
0.9885074627
0.9884655468
0.9882541966
0.9882409588
0.9885999068
0.9893900565
0.9899167652
0.9903253451
0.9866936849
0.9866847378
0.9865865704
0.9866284152
0.9868738203
0.9871996486
0.9874857727
0.9876531076
0.9877171944
0.9877398027
0.9877701668
0.9877061592
0.9879008614
0.9885017745
0.9891962031
0.9896358716
0.9900251217
0.9863514388
0.9865160681
0.9865609828
0.986613671
0.9867862787
0.9869996001
0.9872426153
0.9873566874
0.9873537821
0.9873406449
0.9873631922
0.9875219023
0.987867425
0.9884429201
0.9887521391
0.9891263425
0.9896167622
0.9862031767
0.9866768666
0.9870583736
0.9873895539
0.9876605992
0.987823623
0.9878429339
0.9877242197
0.9876275015
0.9876055294
0.9876487335
0.9878457007
0.9881708874
0.9884136784
0.988741248
0.9889836244
0.9894067735
0.9871677225
0.987704188
0.9882766098
0.9888554957
0.9891832242
0.9893787737
0.98932886
0.989144782
0.9888716775
0.9887437756
0.9887579763
0.9888752167
0.9889818509
0.9888903693
0.9891798674
0.9893770118
0.9898549176
0.9893967523
0.9895760574
0.9900838637
0.9906656596
0.9911367706
0.9913761372
0.9915180739
0.9914653129
0.9913813819
0.9912999595
0.991223835
0.9910967156
0.990792273
0.9905075559
0.9901764763
0.9903081786
0.9905375268
0.9911359839
0.9929034602
0.9931550007
0.993466904
0.9937740433
0.9939793788
0.9941033438
0.9941683414
0.9940901387
0.9941392477
0.9942098653
0.9941836513
0.9940382845
0.9936940933
0.9933874095
0.9929931427
0.992812626
0.9931059608
0.9936014145
0.9970084518
0.9973541369
0.997387
0.9972669463
0.9971906148
0.9972567311
0.9972274978
0.9971723079
0.9972621801
0.9974073386
0.997397758
0.9973253892
0.9971396999
0.9969693845
0.9970354882
0.9970205026
0.9971943758
0.9973660694
1.001553819
1.001988738
1.001994391
1.001601177
1.00113287
1.000995668
1.000895153
1.000893393
1.000916308
1.001051384
1.001068435
1.001084664
1.001083427
1.001122704
1.001434817
1.001680866
1.001843651
1.00180775
1.006780019
1.00700859
1.00700922
1.006703445
1.006020312
1.005636789
1.005446034
1.005429539
1.005422385
1.005533514
1.005567827
1.00559972
1.005711464
1.006023748
1.006419716
1.006780474
1.006920351
1.006779536
1.012560418
1.012715879
1.012668798
1.012286947
1.011681784
1.011138911
1.010789457
1.010710096
1.010669412
1.010702918
1.010770734
1.010943581
1.011233906
1.011732202
1.012228456
1.01258884
1.01270745
1.01248771
1.018805727
1.018908421
1.018837249
1.018546273
1.01798951
1.017408286
1.017046713
1.016857809
1.016814162
1.016732224
1.016826284
1.017167515
1.017664723
1.018275213
1.018860609
1.019157772
1.01926683
1.018985731
1.025532334
1.025527798
1.02554209
1.025416483
1.025035728
1.02451706
1.02418079
1.024020731
1.023928659
1.023878938
1.024004958
1.02441204
1.024872865
1.025367755
1.025906105
1.026457212
1.026588591
1.026247091
1.032899599
1.033019373
1.033122302
1.033016276
1.032866918
1.032476623
1.032097553
1.031907611
1.03188491
1.031853543
1.032020127
1.032418916
1.032895165
1.033330932
1.033819818
1.034236832
1.0343724
1.034184417
1.040979104
1.041158519
1.041328488
1.041396463
1.041470929
1.041191805
1.040944908
1.040771739
1.040889006
1.040909223
1.041203274
1.04160778
1.042088481
1.042316329
1.042516599
1.042749067
1.04289967
1.042831357
1.049827145
1.050255599
1.050679984
1.050851476
1.050866754
1.0506472
1.050515073
1.050374448
1.050289569
1.050578205
1.051077116
1.051358211
1.051579453
1.051618336
1.05163162
1.051872113
1.052051853
1.052484528
1.059255893
1.060065084
1.060320115
1.060208158
1.060002383
1.059912062
1.059755567
1.059756297
1.059725454
1.060074342
1.060523352
1.060707786
1.060806806
1.060857332
1.061009454
1.061308979
1.06171676
1.062296738
1.0688986
1.069350585
1.069254709
1.06905024
1.068852549
1.068850074
1.068698146
1.068795977
1.068980112
1.069284604
1.069534175
1.069700957
1.069777334
1.069890608
1.070218088
1.070580627
1.070918142
1.071311216
1.07692667
1.077819228
1.078089384
1.078008012
1.077671248
1.077427842
1.07744672
1.077416123
1.077631596
1.077928018
1.078017135
1.078085364
1.078173009
1.078239959
1.078415715
1.078779645
1.079258294
1.079545722
1.07966963
1.085306916
1.085992252
1.086102865
1.085890094
1.085650438
1.085471082
1.085283257
1.085510399
1.085785208
1.085919734
1.085829833
1.085634557
1.085490815
1.085588256
1.085946349
1.086454011
1.0869085
1.087135762
1.087079067
1.092735819
1.093104067
1.092864389
1.09290109
1.092811843
1.09263199
1.092355196
1.092379607
1.092468071
1.092579128
1.092344098
1.09195437
1.091451138
1.091423401
1.091899778
1.09263551
1.093143334
1.093343147
1.093029212
1.098985782
1.09886784
1.098840793
1.099138326
1.099000311
1.098745088
1.098489224
1.098320873
1.098213184
1.098034641
1.09775444
1.097118915
1.09651247
1.096408994
1.096682399
1.097199655
1.097651579
1.097804454
1.097417908
1.103350373
1.103346459
1.103839977
1.10408576
1.103929728
1.10354996
1.103237265
1.102846074
1.102634393
1.10225738
1.101729408
1.100790956
1.100349251
1.10025166
1.100271211
1.100482078
1.100879996
1.10102521
1.100830555
1.106350111
1.106895716
1.107476959
1.107662335
1.107454868
1.107029124
1.106766034
1.106261863
1.105701531
1.104896561
1.103957697
1.103273532
1.103147954
1.103022996
1.102926937
1.102946021
1.103071354
1.10321401
1.103129954
1.108565785
1.109346765
1.10997382
1.110035585
1.109922259
1.109472454
1.10880236
1.108250139
1.10735786
1.106046814
1.105229422
1.105195824
1.10521425
1.105043907
1.104747072
1.10453627
1.104499535
1.104567556
1.104492871
1.109954752
1.110890258
1.111455818
1.111284721
1.110970849
1.110522557
1.109751489
1.108383654
1.107288646
1.106697586
1.10661539
1.106828483
1.107019185
1.106924646
1.106531293
1.105946664
1.105584964
1.105528471
1.10559915
1.110853009
1.111612592
1.111759787
1.111585479
1.111315473
1.110705641
1.109671409
1.108799608
1.108030252
1.107703431
1.107667302
1.107830179
1.107976594
1.107941321
1.107743407
1.107306363
)
;

boundaryField
{
    inlet
    {
        type            fixedValue;
        value           nonuniform 0();
    }
    outlet
    {
        type            inletOutlet;
        inletValue      uniform 1;
        value           nonuniform List<scalar> 
30
(
0.9905665643
0.9902230237
0.9902073875
0.9902709279
0.9903368003
0.9900833464
0.9897787107
0.9895811901
0.9900373832
0.9912288297
0.993509282
0.9971248098
1.001627173
1.006671843
1.012428357
1.018968027
1.026282878
1.034246208
1.043025849
1.052737394
1.062322951
1.071233203
1.079584717
1.086905421
1.092831427
1.097317147
1.100846868
1.103289405
1.104612372
1.105826976
)
;
    }
    bottom
    {
        type            slip;
    }
    top
    {
        type            slip;
    }
    obstacle
    {
        type            zeroGradient;
    }
    defaultFaces
    {
        type            empty;
    }
    procBoundary17to11
    {
        type            processor;
        value           nonuniform List<scalar> 
17
(
0.9909062964
0.9913142047
0.9919129577
0.9923999414
0.9927224864
0.9927700455
0.9923561097
0.9919121505
0.9919274159
0.9921022629
0.9922619281
0.9923518859
0.9923874148
0.9922764241
0.9920332892
0.9916630111
0.9913658477
)
;
    }
    procBoundary17to16
    {
        type            processor;
        value           nonuniform List<scalar> 
32
(
0.9888518313
0.9879950374
0.9877697707
0.9875977775
0.9871662897
0.9865708704
0.9860606227
0.9859413708
0.9869876062
0.9869876062
0.9896452048
0.9928500211
0.9965286314
1.000939832
1.006224663
1.012345125
1.018647801
1.025607662
1.032960418
1.040719537
1.049259162
1.05820468
1.067610039
1.067610039
1.075921309
1.084233324
1.091755104
1.098232466
1.102914507
1.105908027
1.108154484
1.109590402
)
;
    }
    procBoundary17to22
    {
        type            processor;
        value           uniform 1.110548917;
    }
    procBoundary17to23
    {
        type            processor;
        value           nonuniform List<scalar> 
20
(
1.106878348
1.106693005
1.106653685
1.111301391
1.111573139
1.111579864
1.111168149
1.110543093
1.10995982
1.109174591
1.108537336
1.108088524
1.107921406
1.107948206
1.108134991
1.108224343
1.108249113
1.108180804
1.106878348
1.107977731
)
;
    }
}


// ************************************************************************* //
