/*--------------------------------*- C++ -*----------------------------------*\
  =========                 |
  \\      /  F ield         | OpenFOAM: The Open Source CFD Toolbox
   \\    /   O peration     | Website:  https://openfoam.org
    \\  /    A nd           | Version:  7
     \\/     M anipulation  |
\*---------------------------------------------------------------------------*/
FoamFile
{
    version     2.0;
    format      ascii;
    class       volVectorField;
    location    "1.1";
    object      U;
}
// * * * * * * * * * * * * * * * * * * * * * * * * * * * * * * * * * * * * * //

dimensions      [0 1 -1 0 0 0 0];

internalField   nonuniform List<vector> 5((3 -3.937262261e-16 0) (3 -1.918486882e-15 0) (3 -1.515149582e-15 0) (3 -5.835598404e-16 0) (3 -3.999066991e-16 0));

boundaryField
{
    inlet
    {
        type            fixedValue;
        value           uniform (3 0 0);
    }
    outlet
    {
        type            inletOutlet;
        inletValue      nonuniform 0();
        value           nonuniform 0();
    }
    bottom
    {
        type            slip;
    }
    top
    {
        type            slip;
    }
    obstacle
    {
        type            slip;
    }
    defaultFaces
    {
        type            empty;
    }
    procBoundary0to1
    {
        type            processor;
        value           uniform (3 -9.705742795e-16 0);
    }
    procBoundary0to6
    {
        type            processor;
        value           nonuniform List<vector> 4((3 -9.454948682e-17 0) (3 4.917398549e-16 0) (3 -9.454948682e-17 0) (3 3.230748679e-15 0));
    }
}


// ************************************************************************* //
