/*--------------------------------*- C++ -*----------------------------------*\
  =========                 |
  \\      /  F ield         | OpenFOAM: The Open Source CFD Toolbox
   \\    /   O peration     | Website:  https://openfoam.org
    \\  /    A nd           | Version:  7
     \\/     M anipulation  |
\*---------------------------------------------------------------------------*/
FoamFile
{
    version     2.0;
    format      ascii;
    class       volScalarField;
    location    "2.1";
    object      T;
}
// * * * * * * * * * * * * * * * * * * * * * * * * * * * * * * * * * * * * * //

dimensions      [0 0 0 1 0 0 0];

internalField   nonuniform List<scalar> 
2222
(
1.733116208
1.828492682
1.871112685
1.885622257
1.878282533
0.5596843535
0.5654842161
0.5604520132
0.5627261849
0.5660547174
0.5646983671
0.5641167168
0.5771189738
0.5833026305
0.5916827089
0.5998266361
0.6073295182
0.6145293363
0.6203757244
0.6234067526
0.6260942917
0.6290916303
0.6322316301
0.6330036909
0.6351805347
0.6378704077
0.6388912374
0.6415734416
0.6429560372
0.6448847065
0.6464518105
0.6477549355
0.6542996003
1.336032996
1.690263377
1.81096741
1.864926987
1.89054056
1.887365841
0.5605459073
0.5656522373
0.5632121154
0.5629215405
0.5656583479
0.564311921
0.5693869443
0.5780125899
0.5837306661
0.593274346
0.6016190291
0.6100179126
0.6163803819
0.623399254
0.6281034642
0.6316791018
0.6330579281
0.6351006845
0.6375947684
0.6375473472
0.6396132917
0.6411736036
0.6420281488
0.6449234362
0.6456369327
0.6474889011
0.6488964908
0.6527839777
1.099987704
1.612219006
1.790161516
1.860052036
1.89846205
1.897339072
0.5602914322
0.5635953006
0.5654950265
0.5640158322
0.5661533248
0.5649953417
0.5757154706
0.5799584743
0.586207193
0.5940364027
0.604136185
0.6114913539
0.617693978
0.6249205413
0.6299481233
0.634056215
0.6375099858
0.6389173714
0.6407104134
0.6427003365
0.6417968429
0.6447044603
0.6459538713
0.6462409374
0.6484875339
0.6489146748
0.650690992
0.6528082796
0.8787686725
1.528974819
1.75944284
1.854121024
1.903502408
1.905858013
0.5568324096
0.5611139026
0.5661326353
0.5709547534
0.5705758331
0.5715397177
0.5785124629
0.5816641483
0.5917994913
0.5988060241
0.6065597954
0.6137485815
0.6217317457
0.6258726518
0.631844947
0.6350929422
0.6389748067
0.6418378532
0.6430678675
0.6450695941
0.6466001081
0.6472593567
0.6497294328
0.6500181239
0.6513087901
0.6533326071
0.6540883059
0.6534264589
0.7083909579
1.432649755
1.719243336
1.835043663
1.900250508
1.90785366
0.5516917403
0.560725672
0.5661596969
0.5771930682
0.5797666062
0.5802244861
0.5793537242
0.5904088275
0.5960057616
0.6053022281
0.614176569
0.6211567994
0.6261799568
0.6304500078
0.6347332282
0.6375204949
0.6396739699
0.6427774494
0.6452563039
0.6463072191
0.6484939624
0.6498532157
0.6512613683
0.6532159551
0.6540081311
0.655628112
0.6567152352
0.6575674438
0.6607853406
1.343412246
1.672921283
1.804012067
1.88515448
1.90470188
1.911972934
0.5492720869
0.560878576
0.5663545529
0.5793940359
0.584886903
0.5842229681
0.5794637391
0.595146484
0.6011129086
0.6091162792
0.6184000087
0.6258689468
0.6315220672
0.6356557805
0.6373961938
0.6413333501
0.6426093326
0.6436410223
0.6466218874
0.6479173555
0.6492800749
0.6515638689
0.6529303864
0.6542862031
0.656152629
0.65683362
0.6582117415
0.6596843782
0.6605356113
1.071408456
1.582460708
1.762875402
1.858607615
1.894281906
1.910822158
0.5490493591
0.5625000687
0.5671178031
0.5791254227
0.5869306708
0.586035904
0.5815915727
0.5963830008
0.6039504343
0.6127594029
0.6206964785
0.6280684319
0.6346267488
0.6395102974
0.6431096944
0.6450627854
0.6481164076
0.6483592927
0.6480776792
0.6511045154
0.651289832
0.6521651204
0.6549917334
0.6558169079
0.6568014025
0.6580120865
0.6587086047
0.6609221635
0.6620757347
0.8370839677
1.496011108
1.719302284
1.827236792
1.873537043
1.900534346
0.5494727177
0.5701421663
0.572063932
0.5779870335
0.587732828
0.5875316312
0.5921082311
0.5973046728
0.6043718627
0.615764286
0.6228756516
0.6294521646
0.635377147
0.6419742336
0.6463767473
0.6492151906
0.6512556809
0.6531549517
0.6537082005
0.6539027321
0.6558771222
0.6561480951
0.6564168128
0.6585248837
0.6585749912
0.6601349554
0.6607539292
0.6614479892
0.662983933
0.6872364906
1.393733779
1.678794495
1.796795763
1.852195171
1.884312652
0.5531996402
0.575888873
0.5788871784
0.5786243363
0.5884307517
0.5893136342
0.5998197749
0.6022190755
0.6078674912
0.6171740259
0.6269987581
0.6338247337
0.6387773393
0.6427836146
0.6478063518
0.6515423381
0.6536820551
0.6554046985
0.6569538657
0.657654723
0.6587587523
0.6602425851
0.6609734429
0.660932232
0.6627839774
0.6631801237
0.6646794281
0.664822315
0.6646217624
0.6673862505
1.283107771
1.631585761
1.766891414
1.832775805
1.873968112
0.560007633
0.5774028387
0.5816697279
0.5830532553
0.5921954754
0.5983542775
0.6023559957
0.6064729024
0.6165980355
0.6252784196
0.6324917009
0.6391767803
0.6451772347
0.6482111524
0.6495386915
0.652594179
0.6561861051
0.6570231179
0.658343118
0.6602120144
0.6610917277
0.661963891
0.6636928734
0.6646376591
0.665114591
0.6664211147
0.6669359915
0.6681786309
0.6683916796
0.6677284233
1.025121093
1.545315723
1.72974124
1.811891845
1.862563797
0.5637515867
0.5743893842
0.5827929594
0.5969535999
0.6021640482
0.6082091666
0.6034397804
0.6148280784
0.6220218267
0.6323814912
0.6392267784
0.6453408019
0.6496880174
0.6540493024
0.6562539774
0.6567908579
0.6578475068
0.6602527401
0.6599820184
0.6611752163
0.6633161119
0.6637873679
0.6647335627
0.6664251971
0.6671279757
0.667786123
0.6687541006
0.6695972406
0.671197912
0.6694474988
0.8223014871
1.469121781
1.699906156
1.791892998
1.851005097
0.5649421259
0.5718495794
0.5854443638
0.6061860981
0.6100109783
0.6123365937
0.6054078434
0.6196416907
0.6263327435
0.6355686226
0.6436544214
0.6495684092
0.6540379574
0.6573750039
0.6606129259
0.6628184083
0.6630069949
0.6632285013
0.6645896403
0.6646250152
0.6646495772
0.6663342422
0.6670941093
0.6672274716
0.6689685792
0.6686527301
0.669912954
0.6708963559
0.6724082308
0.6730106332
0.6916616795
1.378828441
1.672821648
1.773944862
1.841833872
0.5636250153
0.5721173482
0.5885450616
0.6097417115
0.617208507
0.6153971749
0.6129901383
0.6209549661
0.6321147135
0.6398337781
0.645239355
0.6512556524
0.6569502601
0.6610785852
0.6635475668
0.6655066292
0.6677122159
0.6673339852
0.6680515544
0.66959946
0.6688961788
0.6685110263
0.6705525892
0.6705778909
0.6701535259
0.6718907725
0.6719340398
0.6724110694
0.673441093
0.6754661201
0.6745931859
1.271090875
1.628995543
1.75413891
1.833766636
1.904156259
0.5606296032
0.573965419
0.5917506852
0.6095949227
0.623576425
0.622343114
0.6265735132
0.6240361529
0.6351111384
0.6445150876
0.6511876757
0.6549403976
0.6591811089
0.664064072
0.6671068132
0.6673484924
0.6695381912
0.6712580586
0.6711731586
0.6717210989
0.6730976632
0.6728760567
0.6732509656
0.6746658071
0.6744047798
0.6750645967
0.6761257555
0.6760088214
0.6755591619
0.6765142339
0.67695641
1.019759884
1.541643294
1.724681698
1.817786946
1.898420113
0.5606914356
0.5893093089
0.6062313251
0.6109130286
0.631303685
0.6350028612
0.6322693274
0.6365926199
0.6404756641
0.6531298801
0.658433675
0.6635459
0.6670645588
0.6684118915
0.6698600335
0.6715601929
0.671286458
0.6730237533
0.6741788522
0.6738380734
0.674697568
0.6756178562
0.6761715863
0.6767808991
0.6774008854
0.6774517751
0.6779759274
0.6788591714
0.6791448839
0.6778653933
0.6789980226
0.8246809009
1.466270454
1.686749425
1.791564483
1.881692271
0.5637833337
0.6090442936
0.6152151751
0.6208598131
0.6408929891
0.6444480872
0.635527396
0.6435315576
0.6518571436
0.659168507
0.6642671602
0.6690152874
0.6725107755
0.6753669507
0.6756609223
0.6761044993
0.6767264062
0.6763054779
0.6760510697
0.6771438755
0.6770990057
0.6769189602
0.6781845033
0.6787985125
0.6787316659
0.6796549297
0.6794638262
0.6801556326
0.6813228725
0.6812046745
0.6806598834
0.6998558746
1.373716258
1.64547145
1.762416871
1.857987967
0.5801688801
0.6190909505
0.6242608639
0.6420896175
0.6468425706
0.6492088668
0.6393851122
0.6464886378
0.6568897003
0.6657136607
0.670428762
0.6728691673
0.675311619
0.6783541848
0.6806635015
0.6805443228
0.6808033507
0.6819309705
0.6805166251
0.6800383795
0.6812344316
0.6809844833
0.6801928268
0.6812968058
0.6813888895
0.6811016826
0.6818650899
0.6818004891
0.6823924159
0.683602527
0.6828398449
0.6830970642
1.261095839
1.60085945
1.7323502
1.828556898
0.6022253701
0.6204616672
0.6390867291
0.6588398385
0.6574036944
0.6583907253
0.6534124123
0.6564475443
0.6622663055
0.6695254768
0.6744196368
0.6781999672
0.6806776453
0.6812453527
0.6829791967
0.6844783509
0.6840608816
0.6844446888
0.6848644294
0.6839594847
0.6838700132
0.6843391592
0.684543248
0.6841355623
0.6845513695
0.6843866846
0.6848761037
0.6850657502
0.6848857407
0.6850973254
0.6854737194
0.6852641942
1.017784742
1.516857915
1.695217921
1.795581451
0.6189770002
0.6208402245
0.6484208292
0.6685296359
0.6747048471
0.6806915303
0.6628514435
0.6661350843
0.6722910283
0.6777499725
0.6812621194
0.684229904
0.6865475709
0.6879859508
0.6881048545
0.6876613651
0.6879547807
0.6874602444
0.6870798288
0.6871370143
0.6870327352
0.6864915125
0.6868180434
0.6873014699
0.6867927635
0.6872747297
0.68728815
0.6874260581
0.6876183901
0.6872577116
0.687505115
0.6874109075
0.8292023383
1.42811448
1.654723137
1.766077762
0.6345126808
0.6583592585
0.6716298073
0.6745695504
0.6839380779
0.6915457743
0.6704788189
0.671863607
0.6794735751
0.6858905969
0.689091119
0.6905851721
0.6913748104
0.6923225489
0.6928549657
0.6926691948
0.6919270609
0.6916252811
0.6909192406
0.6899478857
0.6900120044
0.689863072
0.6893627876
0.6895725996
0.6893683668
0.6892034833
0.6893237611
0.6893217439
0.689510909
0.6895164135
0.6892829428
0.6892551916
0.7133234714
1.36605411
1.62431805
1.743002225
0.7104249577
0.7250864676
0.7188409024
0.7024403735
0.7019409302
0.7033469914
0.6801397124
0.6807828909
0.6862345991
0.6907807724
0.6935638313
0.6944949137
0.6951959554
0.6951117826
0.6953286287
0.6949079747
0.6940453639
0.6934881942
0.6928293016
0.691734691
0.6915794188
0.6912862144
0.6908729901
0.6908485724
0.6905813742
0.6904548488
0.6904962402
0.6904228287
0.6904609306
0.6904080837
0.6902529283
0.6901671473
0.6914423378
1.233414387
1.582017255
1.718452407
0.8671392558
0.8345317017
0.8017632982
0.7773953112
0.7575291765
0.725609842
0.7094953227
0.7102921015
0.7125441229
0.7125152699
0.7115568837
0.7099986142
0.7085924822
0.7071588236
0.7060543624
0.7045986226
0.7029648675
0.7017069084
0.7006618262
0.6992625945
0.6987518123
0.6982148478
0.6975027191
0.697197115
0.6966280859
0.6962954925
0.69605918
0.695802092
0.6956088021
0.6953227193
0.6949854748
0.6948478343
0.692908671
0.873056565
1.408582942
1.640569329
1.73750513
0.8828708089
0.8789694086
0.8691223944
0.853293433
0.8337872284
0.8178771445
0.8063648909
0.7947243279
0.7826104203
0.7712182327
0.7615018403
0.7540279614
0.7480428334
0.7427605966
0.7382333671
0.734143587
0.7302766607
0.726914933
0.7246585443
0.7222583772
0.7203254653
0.7188263822
0.71707116
0.7156460469
0.7143846385
0.7133379565
0.7122974265
0.7114272556
0.7105159476
0.709679671
0.7088222118
0.7083065737
0.7072268034
0.7076428698
0.9387239471
1.449148674
1.643310371
0.8824417935
0.8822797108
0.8813427595
0.8781532958
0.8718404121
0.8618270671
0.8486425412
0.8341592917
0.8201736691
0.8078941571
0.7975507166
0.789055807
0.7816698335
0.7751164338
0.7687454863
0.7635696039
0.7589802163
0.7542726863
0.750688004
0.7481429213
0.7444710435
0.7417998803
0.7397230692
0.737027836
0.7350346225
0.7332408976
0.7313669474
0.7298097605
0.7281186374
0.7266170796
0.7255358089
0.7239867524
0.7228136329
0.7214984534
0.7259695208
1.046681476
1.478420586
0.8818215102
0.8817107908
0.8816233205
0.8813915858
0.8805508398
0.8782024945
0.8734621115
0.8662078094
0.8571234038
0.8470757918
0.8367640176
0.826610454
0.8167843941
0.8077636763
0.7992120948
0.7916587652
0.7855098785
0.7800203743
0.7744167622
0.7706099911
0.766519048
0.7622655864
0.7591635633
0.7560096202
0.7531539163
0.750512884
0.7479717314
0.7458556048
0.7434920228
0.741614566
0.7398188905
0.7380536074
0.7366376798
0.7350603608
0.7322644226
0.7507257669
1.122346874
0.8813116412
0.8812033795
0.8812049366
0.8811818599
0.8811123856
0.8808804634
0.8801659789
0.8783359286
0.8747361743
0.8690244788
0.8614005927
0.8523983388
0.8428557132
0.8333849425
0.8248151482
0.8167700788
0.8096681161
0.8039154896
0.7979044183
0.7920495223
0.7875266243
0.7830885168
0.7787036779
0.7750045431
0.7716690543
0.7682970937
0.765062643
0.762287722
0.7597960124
0.7572062696
0.7548153351
0.7528706449
0.7507868766
0.7487962514
0.7469374053
0.7446583896
0.7851196686
0.8810984158
0.881044827
0.881049922
0.8810540552
0.8810311278
0.8809548867
0.8808372566
0.8806206812
0.8800712765
0.8786919829
0.8759384295
0.8715613581
0.8656960639
0.8587173526
0.8512548017
0.843586636
0.8357742296
0.8282179037
0.8213663839
0.8142632612
0.808015769
0.8027550287
0.797675327
0.7929763455
0.7887598188
0.7848257627
0.7811283586
0.777554429
0.7745227726
0.7717254221
0.7688890314
0.7661879349
0.7640757843
0.7614622523
0.7595342074
0.7567726481
0.7552624106
0.8811723152
0.8810911489
0.8810142789
0.8809782844
0.8809267386
0.880884209
0.8808521549
0.8808269505
0.8807714717
0.8805992665
0.8800977462
0.8788999433
0.8765946942
0.8729173252
0.8678087926
0.8615895674
0.8546709545
0.8472399112
0.8401232502
0.8333987678
0.8270649042
0.8210972593
0.8157649378
0.8108190324
0.8058137338
0.801211666
0.7974767621
0.7932212678
0.7896963694
0.7865578724
0.7832213151
0.78031928
0.7773425256
0.7747563026
0.7723827992
0.7699425688
0.7659570183
0.8815326492
0.8813917585
0.8812115834
0.8810247934
0.8809247353
0.880872474
0.8808768521
0.8809018276
0.8808829162
0.8808209433
0.8807356615
0.880554883
0.8801137512
0.8791214725
0.8772505053
0.8742675189
0.8701851506
0.8651891911
0.8594390164
0.8534235405
0.847285475
0.8409459443
0.8347050502
0.8288806306
0.8231710214
0.8178965334
0.8131183885
0.808654609
0.8046071404
0.8004833525
0.7970294614
0.7936353052
0.7901816356
0.787344978
0.7845588983
0.7819448315
0.7791184172
0.8816801962
0.8816400164
0.881518806
0.8812893709
0.8811303018
0.8810809676
0.881046982
0.8809920811
0.8809021731
0.8807988739
0.8807193535
0.8806676441
0.880639541
0.880526866
0.8801452603
0.8792797629
0.8776842387
0.8751479569
0.8715466257
0.8669860508
0.8616407272
0.8558900825
0.8499493229
0.8439564542
0.8384787891
0.8332583942
0.8280406232
0.8236412931
0.8190589924
0.8147499469
0.8106793852
0.8070994633
0.8034550813
0.8002010357
0.7969559787
0.7938739696
0.7913309239
0.8815136103
0.8814989131
0.8813986263
0.8813487227
0.8813679801
0.8813592241
0.8812982791
0.8811452014
0.880948087
0.8808104854
0.8807140558
0.8807159772
0.8807622243
0.8807628998
0.8807123791
0.8805339471
0.8801651363
0.8794557999
0.8781568506
0.8760486879
0.8730141568
0.8691883553
0.864707422
0.8597871006
0.8546564041
0.8494029087
0.8441909013
0.8389106251
0.8339024952
0.8291399313
0.8245929316
0.8203195938
0.8163551186
0.8128561991
0.8088981008
0.8057583548
0.8026895086
0.8808898316
0.8811249767
0.881262954
0.8814016744
0.8814959626
0.8815097923
0.8814853122
0.8813839259
0.8812077037
0.8810390083
0.8808930417
0.8808499536
0.8808325927
0.8808089963
0.8807691142
0.8807117067
0.8806158226
0.8804653357
0.8801841507
0.8795867795
0.8784458473
0.8765570687
0.8738477868
0.8703688126
0.866169926
0.8615595334
0.8566517931
0.8516571638
0.8467089337
0.8420074631
0.8375512718
0.8329748672
0.8290963131
0.8249366246
0.8211372365
0.8178058738
0.8139655713
0.8796358205
0.8802234476
0.8809372245
0.8813003364
0.8813425384
0.8813616202
0.8812969011
0.8812228677
0.881259934
0.8812656194
0.8811886155
0.8810555465
0.8808911709
0.8807959125
0.8807731847
0.8808002547
0.8807946124
0.8807182206
0.8805789154
0.8804199464
0.8801626772
0.8796542957
0.8787120442
0.8771457587
0.8748849217
0.8719174412
0.8683397876
0.8643979403
0.8600725985
0.8556026697
0.85105792
0.8464514975
0.8420047642
0.8373856046
0.8335428096
0.8294402952
0.8254880832
0.8779385043
0.8785190819
0.8793270383
0.8802671074
0.8805428984
0.8806731639
0.8808337099
0.8810718551
0.881280319
0.8814040268
0.8813930344
0.8812931159
0.8810855612
0.8809168104
0.8809001832
0.8809275879
0.8809185821
0.8808355928
0.8806888975
0.8805619315
0.8804896541
0.8804082081
0.8802467115
0.8798249449
0.8789692352
0.877552524
0.8755211267
0.8727902709
0.8695112375
0.8656865211
0.8615504065
0.8573079754
0.8528807363
0.8486970943
0.8446388773
0.8404256211
0.8368903409
0.8772851119
0.8775433003
0.8779087946
0.8785785423
0.8793232373
0.8797269783
0.880184573
0.880663169
0.8810872469
0.8813110794
0.8813061858
0.8812445721
0.8810946376
0.880998065
0.8809995015
0.8809877237
0.8809591467
0.8808886593
0.8807969804
0.8806671195
0.8806080589
0.8806173796
0.8806150099
0.8805580093
0.880363242
0.8799465782
0.8792134389
0.878033237
0.8762866447
0.8739573411
0.8710404754
0.8677464962
0.8640613433
0.860294284
0.8561892732
0.8522689092
0.8482007807
0.878325745
0.8780401809
0.8779418886
0.8779749237
0.8781365864
0.8784100295
0.8788828275
0.8794186833
0.8799066124
0.880406833
0.8807674712
0.8810414342
0.8811764816
0.8811780605
0.8811099924
0.8810365008
0.8810039453
0.8809740628
0.8809392568
0.8808605162
0.8808083461
0.8807874676
0.8807493203
0.880698434
0.8806331097
0.880539993
0.8803696899
0.8800393701
0.8794159591
0.8783579082
0.87678254
0.8746079856
0.8719501519
0.8687441309
0.8653042886
0.8615296869
0.8577278013
0.8805087923
0.8787667003
0.8777342428
0.8777821523
0.8779014595
0.8779946208
0.8781726271
0.8783795611
0.8786342215
0.879050897
0.879669952
0.8803904339
0.8809860162
0.8810467392
0.8809984048
0.8808179414
0.8807555893
0.8808335511
0.8810017513
0.8810245371
0.881000694
0.8809302303
0.8808222939
0.8807503845
0.8807384427
0.8807354281
0.8807003574
0.8806107055
0.8804353713
0.8801163949
0.8795641056
0.8786691803
0.8773133062
0.8754555104
0.8730794778
0.8702919759
0.867195474
0.8833315574
0.881656104
0.8789713569
0.8785570103
0.8788939378
0.8787962116
0.8786615578
0.8785488754
0.8782820235
0.8782406443
0.8784466567
0.8788873791
0.8796682951
0.8803407088
0.8804509696
0.8805217574
0.8806158566
0.8808007204
0.8810138828
0.881095709
0.8810884265
0.8810218425
0.8809115925
0.8808704717
0.8808979712
0.8808939831
0.8808508658
0.880771288
0.8806737021
0.8805723233
0.8804368252
0.8801926872
0.8797270119
0.8789255762
0.8776714118
0.875958215
0.8737160206
0.8923776936
0.8894967987
0.8851737573
0.8816077529
0.8806928445
0.8796551868
0.8785803762
0.8783640951
0.8785309404
0.8784712072
0.8781043785
0.8780430103
0.8782847782
0.8788984192
0.8795105588
0.8800269193
0.8804417819
0.8806616828
0.8808535894
0.8809811036
0.8809792925
0.880912381
0.8808909428
0.8809522579
0.8810043973
0.8809860978
0.8809291755
0.8808428734
0.8807800961
0.8807471148
0.8807126344
0.8806481569
0.880520986
0.8802699378
0.879832559
0.8791079171
0.87803798
0.9013762657
0.8960924509
0.8926404808
0.8872745041
0.8841815893
0.8825583847
0.8797610824
0.8790241372
0.8796962766
0.8798049234
0.8789168707
0.8780846265
0.8780800393
0.8782435224
0.8785936203
0.8790213961
0.879465017
0.8797700442
0.880017453
0.8803386817
0.8806241229
0.8808111105
0.8809407679
0.881032378
0.8810422923
0.8810138351
0.8809544125
0.8809087585
0.8808991928
0.8809004077
0.8808755385
0.8808166628
0.8807340472
0.8806349816
0.8805035695
0.8802925342
0.8799268235
0.9135265464
0.9069598701
0.9032025275
0.8985323661
0.8927136484
0.8895836759
0.885769294
0.8817383006
0.8809251519
0.8808542675
0.8798572514
0.8783003211
0.87810853
0.8783055909
0.8784905558
0.8786750523
0.8788054536
0.8789530016
0.8791565497
0.8795420539
0.8800977266
0.8806195788
0.8808099268
0.8809158802
0.8808937177
0.8808074599
0.880811219
0.8808643981
0.8809613672
0.8809867298
0.8809702865
0.8809272303
0.8808501614
0.8807942149
0.8807561872
0.8807000387
0.880591718
0.9259572014
0.9187158683
0.9122396324
0.9072029647
0.9009452999
0.8963583538
0.8937266416
0.888718882
0.8832854272
0.8828015793
0.8824137195
0.8805736766
0.879555352
0.879553107
0.8790764131
0.8787012504
0.8786989125
0.8787588573
0.878754708
0.8788605087
0.8791410429
0.8795823239
0.879929949
0.88016043
0.8803709851
0.880574861
0.8807578966
0.8809257766
0.881007203
0.8810101336
0.8809720068
0.8808834147
0.8808787643
0.8809031455
0.8808997121
0.8808730665
0.8808148401
0.9386741526
0.9315468056
0.9242057658
0.9184845519
0.9125648293
0.9064855128
0.9033049036
0.8992704178
0.8918077745
0.8877272539
0.8869273159
0.8847306724
0.8815298016
0.8806268054
0.8801374598
0.8790257405
0.8787055675
0.8788110742
0.8789562509
0.878852146
0.8788367921
0.8788875649
0.8790820723
0.8793480212
0.8797261647
0.8802368253
0.8806084255
0.880789986
0.880898121
0.8808905658
0.8808298909
0.8808330132
0.8808876422
0.8809615297
0.8809673293
0.8809546098
0.8809173145
0.9509050216
0.9436527073
0.9363214163
0.9297548825
0.9236123853
0.9160412939
0.9103694082
0.9073293018
0.9025255584
0.8946898095
0.8919481674
0.8906414527
0.8865329732
0.8826691968
0.8826813243
0.8818651152
0.8800885714
0.8799603665
0.8799127741
0.8793904591
0.8788073849
0.8787751201
0.878829018
0.8788891324
0.8790460598
0.8793406829
0.8797054382
0.8799805507
0.8802542552
0.8805036913
0.8806709295
0.8808007566
0.8809064624
0.8809636158
0.8809650402
0.8809341955
0.8808703886
0.9631448194
0.955625389
0.9480838524
0.9410772917
0.9353929841
0.9285625122
0.9205533569
0.9167334139
0.9136409804
0.9069573567
0.9000365948
0.8978510016
0.894690389
0.8889665759
0.8866725841
0.8854852689
0.8826915712
0.8808342115
0.8804523221
0.8800760916
0.8791088774
0.8789085557
0.8790971083
0.8790933951
0.8789864124
0.8789641622
0.8790581699
0.8792662855
0.8795589818
0.8799487438
0.8803635987
0.8806162126
0.8807395106
0.8808227308
0.8808640305
0.8808492722
0.880838079
0.9747858954
0.9674271418
0.9599415107
0.9520507833
0.9458673597
0.9403956764
0.9323900441
0.9248960518
0.9214247905
0.9171443068
0.9096463586
0.90455243
0.9021292306
0.8975695763
0.8918588324
0.8902711952
0.8882671355
0.8836520537
0.8822053561
0.8824746186
0.8815291751
0.8803683484
0.8801326461
0.8797779135
0.8791575789
0.8788743757
0.8789284883
0.8790278135
0.8791327278
0.8793115599
0.8795804096
0.8798651832
0.8801157405
0.8803737147
0.8806122192
0.8807655597
0.880845435
0.9850450085
0.9781732794
0.9714389764
0.9638560345
0.955957655
0.9505625866
0.9448967202
0.9362904825
0.9303048756
0.9271032053
0.9216554098
0.914453051
0.9107901727
0.9073142768
0.9008948
0.8967700313
0.8949681838
0.8907792801
0.8863207091
0.8852851448
0.8841588329
0.8817717321
0.8805235872
0.8802393995
0.879876747
0.8791659767
0.8790907029
0.8792702471
0.879338747
0.8792488911
0.879266026
0.8793513292
0.879541458
0.8798075431
0.8801002327
0.8804376218
0.880657516
0.9930923221
0.9875703988
0.9813637131
0.9751046506
0.9674329398
0.9599800445
0.9549504735
0.9485578833
0.9402510711
0.9353037096
0.930966658
0.9241712537
0.9184794071
0.9152315997
0.9104560096
0.9039710268
0.9010345846
0.8986052194
0.8932427808
0.8891454968
0.8883597014
0.8861587112
0.8825812611
0.8823587656
0.8823780929
0.8812376022
0.880124685
0.8799881119
0.879748336
0.8793671604
0.8792694244
0.8793730019
0.8794280855
0.8794197304
0.8794522584
0.8796327929
0.8799395896
0.9978251421
0.994648721
0.9898773854
0.9843059282
0.978357914
0.9708268394
0.9640769838
0.9589037856
0.9518290073
0.9446427413
0.9402771705
0.9349687157
0.9282298007
0.9241217362
0.9203733906
0.9140778236
0.9087552597
0.9063724299
0.9025410662
0.8963293252
0.8937970095
0.892047256
0.88797136
0.8849412904
0.8843445498
0.8831525848
0.880968196
0.8801639359
0.8800400138
0.8797025221
0.8793154115
0.8793997567
0.8794249514
0.8792522721
0.8791907872
0.8792319302
0.8793771378
0.9996160158
0.9984153843
0.9959585798
0.9919136081
0.986959223
0.9812289374
0.9741120658
0.9680356627
0.9623602569
0.9549594796
0.9490734306
0.9443935506
0.9377870165
0.9318062192
0.9281910805
0.9234056559
0.9168497999
0.9130947641
0.9103659691
0.9052889555
0.8997639921
0.8977328955
0.8952458235
0.8900125956
0.8874238721
0.8869291616
0.8847930131
0.8819369703
0.8819035653
0.8817809347
0.8808391962
0.8799906486
0.8796615277
0.8793844393
0.8792382954
0.879256438
0.8794698349
0.9999681381
0.99971727
0.9988793997
0.9969774794
0.9936395721
0.989277264
0.9837932328
0.9773137696
0.9716577773
0.9654112824
0.9583703246
0.9533685851
0.9480468312
0.941046105
0.9365091566
0.9329334875
0.927068301
0.9212887639
0.9182551571
0.9144946915
0.9083651466
0.9044428985
0.9024338569
0.8983702248
0.8930029105
0.8913983452
0.889801547
0.8861500541
0.8838993909
0.8834711246
0.8825059893
0.8808575178
0.8803540064
0.8803731255
0.8800818135
0.8796847303
0.8796662586
0.9999988451
0.9999721276
0.9998044894
0.9992112148
0.9977549
0.9950599199
0.9912538461
0.9861349197
0.9803564509
0.9748705983
0.9682478073
0.961963825
0.9572226347
0.9510011281
0.9443837633
0.9404756533
0.9359959372
0.9294949865
0.9250418026
0.922048586
0.9172501405
0.9114683191
0.9086748709
0.9060661248
0.9009338239
0.8963641414
0.8948978027
0.8924738253
0.8877437495
0.8859995607
0.885475152
0.8836040714
0.881682302
0.8816425514
0.8812836679
0.8803293276
0.8797415868
0.9999999827
0.9999984675
0.9999799388
0.9998670139
0.9994481108
0.9983469296
0.9962034834
0.9929150394
0.9882882635
0.9831516677
0.9776996451
0.9710825898
0.9655486493
0.960636304
0.9538736591
0.9482789757
0.944624543
0.9392709097
0.9331952002
0.9298611506
0.9262661276
0.9203555127
0.9156745201
0.9132477642
0.9096039238
0.9038811987
0.9007993261
0.8990369775
0.8950622149
0.8905721803
0.8893430441
0.8878266796
0.8848245357
0.8831139227
0.8827516133
0.8818934874
0.880410177
0.9999999999
0.9999999528
0.9999987912
0.9999863725
0.9999109114
0.9996170579
0.9987957419
0.9971095087
0.9943065095
0.9902412918
0.9856390214
0.9802354916
0.9739717977
0.968935032
0.9635486261
0.9567683663
0.952077691
0.9478916957
0.9415858055
0.936426614
0.9333857659
0.9289423913
0.9229396562
0.9194940057
0.9168535843
0.9122915275
0.9071662304
0.9047503356
0.9022442874
0.8973236625
0.8933071636
0.892274711
0.8902352237
0.8861504158
0.8853965562
0.8851283642
0.8834959323
1
0.9999999992
0.9999999576
0.9999991607
0.9999910708
0.9999412111
0.9997369215
0.9991327844
0.9978188611
0.9954691826
0.991973789
0.9878112402
0.9825700827
0.97685752
0.9720220743
0.966167561
0.9598946147
0.9558028871
0.951010927
0.9444950913
0.940569536
0.9374259204
0.932006016
0.9266975143
0.92390262
0.9204780294
0.915058078
0.9110671733
0.9089068249
0.9054618139
0.9000915659
0.8974691703
0.8959495727
0.8923738402
0.8884567138
0.8874265701
0.8863372147
1
1
0.9999999991
0.9999999693
0.9999994549
0.9999943096
0.9999617758
0.9998213227
0.9993828643
0.9983688594
0.996435207
0.9934754396
0.9896982672
0.984752963
0.9796221045
0.9747931015
0.9686506201
0.9631148286
0.9590970647
0.9534995958
0.9474000011
0.9439847581
0.9400864742
0.9341484667
0.9299871996
0.9273087149
0.9230655555
0.9176990701
0.9147711007
0.9123861123
0.9081586184
0.9032359599
0.9009985551
0.8988872348
0.8944558461
0.8909675272
0.8904620913
1
1
1
0.9999999993
0.99999998
0.9999996616
0.9999964589
0.9999755106
0.9998801554
0.9995661413
0.9987919088
0.9972297722
0.9947501362
0.9913400111
0.9868036169
0.9821726843
0.9772789188
0.9711816381
0.966305076
0.9620861941
0.9559940408
0.9508196827
0.9476733615
0.9430183918
0.9372509244
0.9340933829
0.9310178399
0.9257809634
0.9211464834
0.9187735043
0.9157356588
0.910749307
0.9068557459
0.904940284
0.9019573912
0.8970281835
0.8945600482
1
1
1
1
0.9999999996
0.9999999878
0.9999997972
0.9999978438
0.9999845443
0.9999206957
0.9996987657
0.9991147841
0.9978741909
0.9958143489
0.9927744995
0.988707435
0.9844705882
0.979535321
0.9737734411
0.9693300554
0.9646464444
0.9584461155
0.9541020189
0.950570209
0.9450596307
0.9399689088
0.9372236863
0.9335648823
0.9280490315
0.9244167402
0.9220806655
0.9183493373
0.9133782573
0.9104612238
0.9083541859
0.9046266994
0.8997288826
1
1
1
1
1
0.9999999997
0.9999999929
0.999999882
0.999998714
0.999990396
0.9999482624
0.9997934632
0.9993590012
0.9983891971
0.9966914694
0.9940279219
0.9904432009
0.9865143983
0.981638318
0.9763672637
0.9721167932
0.9669968567
0.9611384639
0.957410385
0.9534523364
0.9475442678
0.9434984666
0.9408547084
0.9363772473
0.9310275161
0.928193979
0.9254722031
0.9208679922
0.9164444262
0.9141929152
0.9116227343
0.9070377692
1
1
1
1
1
1
0.9999999999
0.999999996
0.9999999332
0.9999992482
0.9999941265
0.9999667392
0.9998601926
0.9995417396
0.998794682
0.9974078415
0.9951164291
0.9919922331
0.9883289048
0.9836361867
0.9788767075
0.9746392994
0.9691867823
0.9639189964
0.9603683415
0.9557196546
0.9498898923
0.9464914081
0.943400606
0.9383038503
0.9337152046
0.9312872393
0.9280954141
0.9231291608
0.9195512506
0.9174830909
0.9143514701
1
1
1
1
1
1
1
0.9999999999
0.9999999979
0.9999999631
0.999999569
0.9999964664
0.9999789398
0.9999066057
0.9996767483
0.9991092667
0.9979886966
0.996052484
0.9933485192
0.9899427526
0.9855493749
0.9812299663
0.9769218666
0.9713919386
0.9667309456
0.9631520743
0.9579972249
0.9527242735
0.9498139811
0.9462478138
0.9408037756
0.9371464473
0.9347326693
0.930722213
)
;

boundaryField
{
    inlet
    {
        type            fixedValue;
        value           nonuniform 0();
    }
    outlet
    {
        type            inletOutlet;
        inletValue      nonuniform 0();
        value           nonuniform 0();
    }
    bottom
    {
        type            slip;
    }
    top
    {
        type            slip;
    }
    obstacle
    {
        type            zeroGradient;
    }
    defaultFaces
    {
        type            empty;
    }
    procBoundary27to20
    {
        type            processor;
        value           nonuniform List<scalar> 
34
(
0.8834467232
0.883180423
0.8825556387
0.8818657785
0.8813752367
0.8811474584
0.8812791039
0.8816096726
0.8816577674
0.8814794234
0.8806099637
0.879206908
0.8777864653
0.8772087938
0.8779725676
0.8812171859
0.8853441714
0.8960461446
0.9050918584
0.9168586367
0.9309467782
0.9433303397
0.9553990644
0.9683361163
0.9796159625
0.9890937775
0.9958109954
0.9990471854
0.9998985561
0.9999954235
0.9999999239
0.9999999996
1
1
)
;
    }
    procBoundary27to21
    {
        type            processor;