/*--------------------------------*- C++ -*----------------------------------*\
  =========                 |
  \\      /  F ield         | OpenFOAM: The Open Source CFD Toolbox
   \\    /   O peration     | Website:  https://openfoam.org
    \\  /    A nd           | Version:  7
     \\/     M anipulation  |
\*---------------------------------------------------------------------------*/
FoamFile
{
    version     2.0;
    format      ascii;
    class       volScalarField;
    location    "3.1";
    object      rho;
}
// * * * * * * * * * * * * * * * * * * * * * * * * * * * * * * * * * * * * * //

dimensions      [1 -3 0 0 0 0 0];

internalField   nonuniform List<scalar> 
2222
(
2.194665679
2.107937044
2.031532671
1.95417469
1.88477509
1.827278696
1.772155136
1.716702219
1.668398347
1.623158534
1.575375508
1.533358616
1.497672813
1.463555319
1.425666398
1.397293205
1.373194967
1.400005413
1.412895017
1.937771738
2.845338246
3.251885874
3.294235461
3.286138777
3.293844957
3.29747998
3.289070545
3.251081586
3.171824226
3.064881893
2.925700233
2.801967539
2.694315255
2.568879075
2.448875327
2.347552029
2.251056004
2.146791584
2.061787976
1.987617711
1.91308232
1.844386436
1.788022839
1.734659658
1.680701667
1.633281024
1.589160758
1.542937088
1.501986104
1.467604663
1.434958692
1.398484537
1.3705425
1.347218131
1.400027248
1.495818046
2.450745843
3.090002822
3.272665205
3.291671977
3.298726316
3.303975269
3.302060907
3.287132265
3.227340316
3.137541119
3.023524663
2.878351025
2.751151083
2.642506445
2.517743027
2.397779208
2.29695004
2.202210799
2.099147449
2.015425068
1.943211382
1.871538735
1.803780953
1.748824949
1.697106635
1.644527968
1.598157346
1.555386498
1.510979687
1.471029608
1.437727461
1.406235155
1.371050371
1.343654688
1.321043827
1.400973155
1.806815391
2.861914663
3.204254029
3.258101415
3.285582917
3.307186667
3.310397902
3.303395578
3.274722828
3.200381012
3.099016105
2.978335993
2.828906099
2.698868245
2.588897844
2.465109808
2.345093179
2.245030078
2.152240032
2.050879986
1.968494785
1.898405175
1.829486588
1.763037419
1.709267084
1.659172391
1.608269209
1.562865848
1.521107785
1.478082347
1.439286795
1.407537655
1.377620491
1.34409987
1.317349598
1.295599447
1.42327344
2.327074175
3.071890461
3.23740782
3.283784556
3.304084164
3.318788235
3.318643375
3.306723299
3.259595161
3.168103188
3.05518008
2.928897419
2.776169643
2.64394889
2.533090118
2.410774546
2.290787729
2.192034516
2.101432467
2.00226571
1.921068356
1.853149691
1.787326275
1.72248323
1.669948009
1.621421831
1.572104728
1.527735903
1.487186311
1.445897944
1.408355498
1.37780682
1.349005657
1.31671044
1.290330095
1.268902936
1.617604649
2.845190168
3.201414104
3.268257486
3.293613939
3.308086527
3.318747602
3.314258009
3.290470422
3.233545232
3.128799753
3.006575453
2.876493258
2.721795865
2.588020734
2.476580704
2.356227815
2.236203395
2.138571566
2.050360467
1.954171838
1.874228103
1.808607481
1.745582359
1.68233509
1.630951861
1.584148348
1.536561331
1.493104997
1.453593403
1.413715182
1.377265056
1.348076681
1.320681005
1.290326244
1.264806573
1.243993142
2.1233013
3.140294827
3.261750245
3.288553017
3.30022388
3.311837539
3.320891091
3.310784635
3.276078295
3.204511895
3.085420338
2.955443527
2.822646668
2.66671919
2.531729451
2.419619198
2.301143681
2.181281307
2.08513156
1.999137621
1.905914624
1.827425953
1.764157135
1.703979374
1.642757158
1.592497339
1.54691611
1.50068534
1.458364484
1.420155182
1.381941069
1.346686197
1.318612824
1.292178548
1.262855821
1.237385434
1.216955231
2.814487597
3.196171637
3.220406234
3.254468307
3.28993866
3.313858229
3.322282624
3.30572204
3.258326663
3.172250527
3.040724629
2.903464489
2.767476863
2.610477172
2.474138269
2.361336711
2.244711229
2.124927649
2.029980454
1.946359689
1.856982878
1.78013138
1.719188367
1.661669902
1.602476777
1.553511054
1.509545033
1.46513928
1.424021116
1.386927519
1.350119255
1.316160268
1.289639296
1.264542253
1.236770157
1.212107335
1.192110683
3.285023449
3.327073204
3.280507835
3.284650757
3.304301609
3.323605005
3.322116866
3.293800866
3.231642915
3.131406556
2.988424726
2.845212778
2.708033597
2.55127016
2.414076357
2.301116611
2.186695289
2.06767887
1.974525771
1.893374355
1.807738525
1.732657775
1.674150967
1.619379011
1.562517057
1.514798262
1.472015152
1.42887099
1.388976939
1.35325255
1.317897422
1.284991066
1.259204917
1.234888743
1.208460037
1.184393153
1.165268199
3.310987819
3.334611097
3.331883387
3.333646063
3.339530952
3.340036147
3.323125468
3.276776716
3.196359472
3.081789823
2.92893437
2.78171384
2.644589218
2.489584046
2.352681883
2.240331164
2.128626502
2.010480788
1.918672552
1.840201422
1.758839467
1.685516862
1.629220522
1.576955831
1.522342741
1.475855998
1.434477222
1.393057915
1.354678346
1.320374433
1.286668046
1.255217146
1.230613503
1.207203585
1.181933575
1.158552793
1.139926976
3.335234105
3.323423949
3.326651137
3.340935331
3.349817962
3.345750089
3.320327572
3.258755891
3.161527797
3.033927797
2.871540794
2.719186497
2.581246543
2.42721157
2.2899177
2.178568566
2.069961192
1.953525878
1.863679334
1.787741208
1.710008588
1.6385579
1.584549741
1.534822893
1.482660514
1.437360669
1.397276768
1.357342447
1.320049369
1.286452793
1.253717144
1.22314937
1.199594179
1.177502489
1.153848456
1.131386617
1.113826352
3.32567072
3.318311276
3.323946073
3.33582588
3.344801599
3.338708006
3.310035883
3.237900635
3.127305152
2.988913833
2.817878586
2.659713219
2.518372296
2.363466379
2.225560568
2.114669133
2.008838588
1.894939189
1.80765338
1.734874282
1.661361951
1.591987051
1.540127889
1.492586743
1.442448427
1.398486946
1.360004781
1.322061787
1.286574384
1.254648152
1.223543946
1.194259213
1.171459372
1.150027712
1.127332878
1.105547815
1.088531834
3.317040282
3.322258389
3.325152175
3.327213367
3.331306676
3.323881674
3.290506148
3.209235405
3.089211786
2.943620795
2.76576306
2.601330907
2.455791885
2.299233765
2.158876863
2.048102941
1.944758549
1.833919971
1.750146435
1.681242486
1.611805751
1.544902106
1.495198889
1.449794999
1.401954678
1.359623954
1.322450573
1.285477237
1.250711801
1.219772656
1.190349246
1.162572205
1.141254423
1.121355588
1.100301509
1.079576189
1.063636915
3.32278128
3.32665315
3.325437038
3.325021635
3.322889804
3.308883105
3.265283643
3.171672943
3.041639735
2.889760057
2.706687246
2.537794118
2.389870714
2.23257111
2.090735337
1.980197962
1.879086287
1.771636848
1.691329613
1.626606374
1.562152484
1.49833493
1.450721061
1.407182942
1.361372
1.320804044
1.285432526
1.250474008
1.217498315
1.18794857
1.159887226
1.133355002
1.112963769
1.093814965
1.07381206
1.054059488
1.038884418
3.329823921
3.326500038
3.325829703
3.325539
3.32036986
3.297634849
3.240070989
3.128592602
2.983987195
2.823029195
2.634863705
2.464381387
2.317420875
2.162925467
2.021634187
1.912803804
1.814649432
1.710881851
1.633446351
1.572631114
1.512727855
1.451969382
1.406393625
1.364757716
1.320913375
1.281129319
1.246218555
1.212437544
1.180981655
1.153407583
1.127475484
1.102617474
1.083952245
1.06626749
1.047767077
1.029214767
1.014868914
3.327826876
3.325470833
3.327033185
3.326338024
3.317501786
3.28520489
3.211518999
3.079268076
2.917727653
2.747245215
2.553923253
2.382295402
2.23861081
2.089872945
1.952337745
1.847204795
1.753327941
1.653755752
1.578416635
1.520107274
1.464060051
1.406330604
1.363148171
1.323813848
1.28267742
1.244421551
1.210413045
1.17796335
1.147961845
1.121682711
1.097058049
1.073309666
1.055782442
1.039452333
1.022121148
1.003813695
0.989916151
3.323420033
3.326604614
3.32844908
3.326799416
3.312966396
3.268579297
3.176342946
3.022780528
2.845493009
2.665362909
2.467124734
2.295819417
2.155840351
2.014312013
1.882457864
1.782606615
1.693762727
1.59954216
1.5267831
1.4701182
1.416435205
1.360921212
1.319183178
1.281152492
1.241494415
1.203955585
1.171237342
1.141004673
1.113280505
1.08897797
1.066307084
1.04465989
1.028748941
1.013425421
0.9968573883
0.979257084
0.966407814
3.324406016
3.32892455
3.329241223
3.325849841
3.305089616
3.245395064
3.133004848
2.958417656
2.766541257
2.580087414
2.37928715
2.207999437
2.07148256
1.936831114
1.811280658
1.717785774
1.635090614
1.546861063
1.476860317
1.42137286
1.369192175
1.316046148
1.276629984
1.241248737
1.203710495
1.167266525
1.135911449
1.10697866
1.080138726
1.057270442
1.036675859
1.016887313
1.001679469
0.9868359594
0.9713808181
0.9553843412
0.9428202379
3.328423345
3.329761889
3.329783353
3.323869865
3.292833071
3.214406087
3.079979394
2.885208014
2.682043267
2.490791847
2.289139438
2.120597119
1.9875505
1.85889014
1.73891197
1.651354525
1.57476156
1.493220406
1.426973517
1.373523691
1.321800625
1.268919218
1.229480123
1.195353286
1.160270528
1.126375617
1.097746183
1.071143427
1.046689205
1.026784315
1.008445642
0.9893123144
0.9750029677
0.9615015826
0.9475477737
0.9322461886
0.920325066
3.329829277
3.330583078
3.330160601
3.319612987
3.274593755
3.174022411
3.016866498
2.803340651
2.590229468
2.397282111
2.198167412
2.032743829
1.903771117
1.780817703
1.665865785
1.58390148
1.513226954
1.437810988
1.375527432
1.325675789
1.276481094
1.225979835
1.187334601
1.153730046
1.120466584
1.088347354
1.060851436
1.036416584
1.015050064
0.996436159
0.9785165675
0.9606800545
0.9484128336
0.9364648877
0.9233067769
0.9080462824
0.8965346656
3.329429636
3.331478783
3.329634524
3.31180479
3.24890945
3.1233842
2.942853356
2.712459005
2.493036774
2.299897234
2.104136106
1.944487708
1.820626528
1.703551003
1.593479057
1.516148038
1.450225684
1.380419636
1.321880938
1.274197103
1.226928712
1.177924539
1.140201095
1.108848397
1.077996284
1.048182666
1.02435768
1.003632188
0.984525526
0.9667126862
0.9499975039
0.9348379439
0.9237031511
0.9120020611
0.898891795
0.8844345101
0.8746168951
3.330196455
3.332390422
3.327589332
3.299174638
3.214078382
3.06102875
2.858014941
2.613684052
2.38997437
2.198985864
2.009391903
1.85566228
1.737470884
1.626896963
1.522000235
1.449176815
1.387313088
1.323798828
1.269888606
1.226155343
1.182366185
1.13593108
1.09951799
1.06879786
1.038587871
1.010542964
0.9899066747
0.9708674662
0.9525843358
0.9375205778
0.923384615
0.9083722558
0.8969549552
0.8862162772
0.8748729197
0.8623032777
0.8525747634
3.332216474
3.332636866
3.322567327
3.279687569
3.168162577
2.986225408
2.762308465
2.507414995
2.283049039
2.095842354
1.912698696
1.76636657
1.654878906
1.5516288
1.452491957
1.383584103
1.324274042
1.263523054
1.210950186
1.171041735
1.132559003
1.090869726
1.057793872
1.029419548
1.001538104
0.9760508713
0.95695534
0.9397705224
0.9246031436
0.9113676926
0.897401149
0.8819530048
0.8722331289
0.8635927032
0.8536498321
0.8403755584
0.8303193078
3.333479896
3.330985741
3.312802939
3.251522669
3.109616386
2.898545696
2.656560887
2.394993784
2.172485375
1.990764273
1.816297177
1.677415117
1.573058834
1.476716536
1.383255077
1.32057595
1.266849945
1.210607717
1.160556584
1.122886205
1.08756798
1.049619797
1.019073047
0.9926098977
0.966484397
0.9423149192
0.924736034
0.9104693396
0.8969535708
0.8835728238
0.8703454361
0.8585588635
0.8492201279
0.8395986911
0.8289918013
0.8157080526
0.8080669991
3.332226314
3.326373192
3.297843823
3.213103714
3.037322193
2.798006098
2.541489446
2.277415572
2.059495586
1.884999849
1.719134499
1.588782427
1.492627785
1.402976192
1.314821564
1.254214143
1.202587081
1.15034249
1.103529637
1.070857301
1.041208413
1.008248431
0.9816635903
0.958688104
0.934754304
0.9118898564
0.8963458687
0.8825096556
0.8691510802
0.8587070306
0.8486310116
0.8369167605
0.8265332048
0.8169417226
0.8075778136
0.7976393244
0.790468406
3.328136017
3.317934849
3.27596711
3.162713762
2.950597221
2.685597654
2.418429222
2.155397034
1.944141838
1.778291209
1.622601273
1.501360255
1.412495883
1.331614172
1.253092402
1.197275645
1.148216144
1.098830498
1.054795542
1.024423165
0.9974263568
0.967491947
0.9443666048
0.9244415368
0.9028415915
0.8823201069
0.867091669
0.8544911413
0.843874596
0.8341572236
0.8232657973
0.8097499359
0.8013286747
0.7945459912
0.7867103474
0.7761714389
0.7689915719
3.32183259
3.305257335
3.245425312
3.098324606
2.84902708
2.561204168
2.287873925
2.02987292
1.827447624
1.671645851
1.526938289
1.415286285
1.331570336
1.255253402
1.181107806
1.129879977
1.086995303
1.0436094
1.004599079
0.9790510735
0.9557135712
0.929669608
0.910260917
0.8927733682
0.8734234808
0.8551153962
0.8408446374
0.829472118
0.8191030063
0.8084684439
0.7985286498
0.7910322461
0.7839853657
0.7756959658
0.7663546882
0.7527616309
0.7474027718
3.313904166
3.289383938
3.205693955
3.018505506
2.731467166
2.425659189
2.151021529
1.900101051
1.709567759
1.564386485
1.431105008
1.33133097
1.258633644
1.19029049
1.121149568
1.073232132
1.033720901
0.9939112461
0.9577986651
0.9349291148
0.914467607
0.891722796
0.8744782542
0.8596508037
0.8434189792
0.8271788036
0.814620805
0.8030677865
0.7918353979
0.7841027691
0.7772055262
0.7681667427
0.7584593364
0.749879515
0.741401979
0.7327807155
0.7299601966
3.304071346
3.270928417
3.154954351
2.921030651
2.598087171
2.278895874
2.007759223
1.767269171
1.592086481
1.459302437
1.33352313
1.238738459
1.173225157
1.113951875
1.052559867
1.012497752
0.9803660135
0.9461541532
0.9142685262
0.8950271502
0.8772058587
0.8563243491
0.8413446654
0.829578286
0.8154405065
0.8007559545
0.7893313702
0.778462163
0.7689381394
0.7619439483
0.7538218037
0.7415208358
0.7357646292
0.7318245676
0.7250658496
0.7151447772
0.7119669083
3.294561375
3.247629148
3.086925268
2.802183438
2.446760442
2.121104961
1.859737659
1.632298554
1.47290427
1.357226359
1.248721105
1.164450044
1.103722555
1.048895622
0.9927407704
0.9576529159
0.9295507177
0.8991376358
0.8706325657
0.8544556226
0.8392967517
0.8215269907
0.8088758722
0.7981057876
0.7852297466
0.7738518079
0.763918076
0.7535284903
0.7441435028
0.7357037659
0.7280137727
0.7227584506
0.7178960089
0.7118184815
0.7031605061
0.6903580833
0.6877745766
3.287554206
3.215405346
2.99741307
2.659515551
2.278299675
1.953055971
1.70593747
1.499236595
1.351261273
1.240863606
1.143351248
1.071882798
1.024509783
0.9810032519
0.9337347795
0.9070601835
0.8849266246
0.8583622471
0.8320641249
0.8183864566
0.8055316861
0.7898211982
0.7785273309
0.7693567162
0.7598372055
0.7498742686
0.7396997942
0.7292977452
0.7208356787
0.715173274
0.7100024008
0.7023543551
0.6944817967
0.6870419209
0.6797250409
0.6736851661
0.6722673535
3.281239548
3.169127159
2.880751781
2.487473985
2.09082042
1.775355869
1.546264436
1.369763
1.246220425
1.149593213
1.060497658
0.9964025887
0.9562415174
0.918796716
0.8772831795
0.8557986715
0.838324034
0.8155997586
0.7923316516
0.7808607683
0.7703482042
0.7571929705
0.7478654862
0.7409774146
0.7317363012
0.7216203314
0.7134888031
0.7057806712
0.6987098113
0.692607183
0.6854144522
0.6737896824
0.670971695
0.6695498487
0.6645744725
0.6568649678
0.6549863899
3.272984572
3.099406022
2.726534266
2.281878225
1.883507835
1.593863644
1.380769432
1.215593432
1.112697908
1.039310756
0.9667897152
0.9171474945
0.892342612
0.8646403384
0.8290212683
0.8132011969
0.7996428837
0.7796730828
0.7574322127
0.7475731592
0.7388453724
0.7276708208
0.7199131727
0.7138066405
0.7061783871
0.6994262157
0.6929979419
0.6843765606
0.6754967444
0.6685582918
0.6621621095
0.6590806962
0.656760866
0.6532565718
0.6462097191
0.637181379
0.6348747175
3.258891528
2.993084632
2.524747459
2.044156323
1.649736033
1.410658763
1.243750359
1.10124341
1.012759612
0.9525721586
0.8838259658
0.8464136099
0.8316785098
0.8103499455
0.7776880109
0.7676694071
0.7584288882
0.7420523136
0.7224258221
0.713612648
0.7063260082
0.6961769549
0.6897028293
0.6855111287
0.6806117464
0.6732793608
0.6647248595
0.6558504606
0.6498258588
0.6476826357
0.6453304864
0.6415288605
0.6367059938
0.6300802618
0.6231584381
0.6196722355
0.6190592346
3.231256452
2.828282254
2.261184507
1.774462714
1.401710064
1.185867159
1.06354444
0.9562984823
0.9068998142
0.8704438211
0.8108107874
0.788033551
0.7812036189
0.7638649373
0.7323227326
0.7279449719
0.7228181896
0.7099035296
0.6934411723
0.6847835864
0.6774024575
0.6661887122
0.6616859687
0.659178749
0.6531798126
0.6475782965
0.644702441
0.6398830724
0.6349129702
0.6307046031
0.6248260613
0.6153401158
0.6122568146
0.612325322
0.6110497605
0.6077743418
0.60627958
3.168577434
2.578759291
1.908280781
1.495725012
1.203866814
1.032478202
0.9234228295
0.838608283
0.818608076
0.7923832694
0.7457138726
0.7274681181
0.7244776319
0.7113652428
0.6856976169
0.6842632619
0.682299962
0.6728702899
0.6590624357
0.6526917359
0.6469058631
0.6362011719
0.6318035
0.6301272334
0.6269272016
0.6258031757
0.6236821624
0.6157750357
0.607969741
0.6033359523
0.5999825823
0.5995962727
0.6005463562
0.6005733025
0.5970775293
0.5914287558
0.5897860375
3.018566482
2.2155126
1.502877622
1.124952143
0.9267351638
0.867350193
0.7996143087
0.7479448305
0.7493152858
0.734276846
0.6950576726
0.6821981242
0.6798288155
0.6678961792
0.6459549272
0.6447734178
0.6444605527
0.6381510911
0.6273667465
0.6253349248
0.6215190043
0.6112569672
0.6074825157
0.6082727474
0.6064774289
0.6028432775
0.597787626
0.5934075289
0.5923875908
0.5917553415
0.5905296449
0.5884197453
0.585703078
0.5812209899
0.5767878019
0.5765545003
0.5768502436
2.631128484
1.695715013
1.25572648
0.9561244685
0.7692994361
0.7392211203
0.6922558578
0.6564270489
0.6603084241
0.6515755249
0.6243761335
0.6248579744
0.6268669926
0.6187420717
0.60443553
0.6045229826
0.6052749923
0.5994681932
0.5933260363
0.5950601496
0.593327979
0.5879223491
0.5850720217
0.5825527102
0.5771433724
0.5755575454
0.5772825052
0.5790468324
0.5790191483
0.5775925406
0.5738213625
0.5691121571
0.5676712193
0.5672233099
0.568036414
0.5667402795
0.5661935871
1.801273306
0.8405961269
0.8478448272
0.7934315934
0.7116085297
0.6744989849
0.633976492
0.6046771982
0.6021684967
0.5943612408
0.5831128235
0.5849378161
0.5887075584
0.5842814482
0.5773302748
0.577882802
0.5797776303
0.5765776656
0.5744259993
0.5755238487
0.5751941266
0.5703828112
0.5660027121
0.5657768217
0.5686512362
0.5704788558
0.5712430702
0.5685453903
0.5656803778
0.5633754056
0.5619410748
0.5633858708
0.5642797252
0.5644976833
0.5609491249
0.5607486622
0.5611393176
0.5244988107
0.5114944772
0.6608790516
0.7151336248
0.6809749524
0.6514715423
0.6125339239
0.5856531988
0.5811320749
0.5727449775
0.5676837855
0.5710610692
0.5756367115
0.5718522702
0.5678337639
0.5684329002
0.5708788271
0.5686284017
0.5681276138
0.5692122173
0.5688952534
0.56489473
0.5652986888
0.5654794041
0.5668295624
0.5666429034
0.5646671778
0.5629039742
0.5623046708
0.5609150649
0.5612460016
0.5607200874
0.561463927
0.5616070384
0.5606972145
0.5584522537
0.4528182972
0.465879388
0.6205607015
0.6933125131
0.6677094474
0.6411326122
0.6023409562
0.5802757093
0.5760661934
0.5682818919
0.5657066112
0.568840524
0.5729331459
0.5688034617
0.5658545485
0.5670280654
0.5692056113
0.5668686913
0.5664058005
0.5677576369
0.5675646935
0.564039545
0.5640334847
0.5653241978
0.5655515295
0.566233224
0.5634448277
0.5627226569
0.5616678147
0.5606590821
0.5616939929
0.5608961131
0.5613120481
0.5614514924
0.5607079469
0.5585945015
0.454344691
0.4502788975
0.5892435716
0.674934847
0.6577123981
0.6318996142
0.5930951059
0.575208681
0.5710153713
0.5640266519
0.562521953
0.5660620573
0.5699036201
0.5650984905
0.5631136628
0.5644779236
0.5671794183
0.5656025643
0.5657940398
0.5668244976
0.5662599047
0.5621830898
0.5640589153
0.5650341245
0.5654413233
0.5649517718
0.5621646228
0.5622946975
0.5608218384
0.5609395054
0.561833164
0.5612848376
0.5613480883
0.5617838307
0.5605934442
0.5593516306
0.4571017303
0.4260982488
0.5618168683
0.6583421181
0.6544609722
0.6249930332
0.5888128434
0.5721480181
0.5659146807
0.5603586096
0.5602927734
0.5636261237
0.5671845752
0.5631506291
0.5626963046
0.5635751376
0.5655427779
0.5640451238
0.5651755898
0.5662161039
0.5652292113
0.561979614
0.5633855869
0.5655439025
0.5651719838
0.5634896386
0.5611139367
0.5617676483
0.5601721236
0.5612714981
0.5619598223
0.5617467963
0.5613744666
0.5616299709
0.5610427441
0.5613097082
0.4592697995
0.4147198962
0.5526772204
0.646797243
0.6508600136
0.6193878696
0.5857907881
0.571218648
0.5634877812
0.558837603
0.5598408271
0.5629861706
0.5653206549
0.562038179
0.5618567783
0.5623140987
0.5638555977
0.5624715125
0.5641998083
0.5652402305
0.5643535459
0.5616744773
0.563236616
0.5651039175
0.5649522687
0.5638518779
0.5609854756
0.5615009351
0.5604876205
0.5618800256
0.5622376488
0.5620813887
0.5616581991
0.5625052477
0.5625063385
0.5747612184
0.4566341709
0.4166315004
0.5475865806
0.6323769874
0.6426430243
0.6112688133
0.5801997307
0.5692224208
0.5616975951
0.5576242649
0.5585565788
0.5617419514
0.5634032153
0.5601004839
0.5612343336
0.5604811461
0.5614547617
0.5622545522
0.5639944773
0.5649077194
0.5644101339
0.5619947331
0.5634923097
0.5649341302
0.565296897
0.5635240811
0.561813374
0.5613387924
0.561154114
0.5626157872
0.562786363
0.5629451708
0.5631015678
0.5632188104
0.5631829703
0.6373348619
0.4548429491
0.4218349626
0.5410901358
0.6216221142
0.6325173307
0.6019897503
0.5739946713
0.5654285724
0.55962843
0.5554229147
0.5559750366
0.5589974783
0.5606645669
0.5583986352
0.5603606315
0.56009708
0.5609028918
0.5622073016
0.563964291
0.5649004818
0.5642227296
0.5625150606
0.5641107115
0.5651898881
0.5648784631
0.5632186869
0.5624428924
0.5615490928
0.5622464499
0.5635890112
0.5640923573
0.5641446369
0.5643879675
0.5645750993
0.5662756873
0.7639994163
0.4330788567
0.4341613782
0.5339245162
0.6168270705
0.6280737249
0.5981029925
0.572976626
0.5635304979
0.5572636622
0.5528501146
0.5548397266
0.5567525036
0.5584805333
0.558283587
0.5601520336
0.5602768398
0.5609206713
0.5620283917
0.5640893439
0.5650267849
0.5641942975
0.5632560948
0.5651875966
0.5661379666
0.5639496132
0.5631200779
0.5634705807
0.562366732
0.5638153804
0.5645539268
0.5652133192
0.5655857648
0.5661679117
0.5653502707
0.5784428141
0.9383747781
0.4079233026
0.4414601149
0.5339883484
0.6144895555
0.6250846677
0.5965810525
0.5729480813
0.5633735585
0.5559254667
0.552267538
0.5545142295
0.5564479083
0.5583472299
0.5582821111
0.5599822689
0.5602362724
0.5610649317
0.5622789774
0.5646917998
0.565516126
0.5645942198
0.5642403672
0.5664312615
0.5660221994
0.5642652766
0.5635663939
0.564283495
0.5636807935
0.5654764977
0.5656488655
0.5660794567
0.5666481006
0.5685682792
0.5674991991
0.6316362589
1.020403327
0.401921865
0.4405214789
0.5327151414
0.6088130759
0.6229682612
0.59492579
0.5740460733
0.563575057
0.5555291375
0.5522309171
0.5547924978
0.5567461696
0.5584160378
0.5586442832
0.5600251921
0.5600262911
0.5610975306
0.5628020132
0.5655895616
0.566372264
0.5655354742
0.5651721094
0.5665003344
0.5663617969
0.564379361
0.5638472372
0.5651288496
0.5653227021
0.5678650728
0.5679679981
0.5684309315
0.5686940019
0.5695172934
0.5712148211
0.7741865205
0.3969782845
0.4374376947
0.5291073824
0.5975487693
0.6190407365
0.5926193531
0.5742737226
0.5638408571
0.555409522
0.5522137007
0.5543198736
0.5566614824
0.5585936555
0.5591774536
0.5603338181
0.5603349134
0.5615639635
0.5636148055
0.5664084286
0.5671060657
0.5664992739
0.5664355039
0.5677389938
0.5663190088
0.5645369283
0.5647614437
0.5662776748
0.5670027893
0.5692108712
0.5702175769
0.5711203506
0.5709442468
0.5713725209
0.5811750784
0.8836988741
0.3946650478
0.4390591632
0.5262970114
0.5864135241
0.6124270464
0.5893940965
0.5740088516
0.5635453958
0.5554053844
0.5519961735
0.5538449688
0.556383618
0.5582765587
0.5597693554
0.5608619002
0.5607339691
0.5619004098
0.5642071281
0.5671149205
0.5682832878
0.5676335367
0.5680952486
0.5678118677
0.5663562737
0.5651553014
0.5658781442
0.5675030599
0.56839459
0.5697769936
0.5705486007
0.5715039501
0.5711118891
0.5734216472
0.6387373316
0.9962941046
0.3962282279
0.4410346862
0.5243242485
0.5833373832
0.6059619741
0.5879114909
0.5733677514
0.5625842716
0.5547793322
0.5516702851
0.5538673061
0.5557561315
0.5579443157
0.5605803732
0.5617175483
0.5618791349
0.56298915
0.5649678504
0.5679750442
0.5695226328
0.5697341987
0.5699493036
0.5680231226
0.5665437549
0.5659843046
0.5674261784
0.5690478171
0.5701841627
0.5706458212
0.5711295135
0.5714838318
0.5718587676
0.5755399864
0.7411641378
1.145413355
0.4078994451
0.4418449544
0.522230158
0.5826993145
0.6047542257
0.5880849487
0.5735560854
0.5621553863
0.5535858847
0.5520572879
0.5541393811
0.5560945949
0.5583495447
0.5615218853
0.5629447096
0.5636706336
0.5648723569
0.5666204878
0.56969204
0.5707690253
0.5711799391
0.5714609589
0.5682626485
0.5669231443
0.5671861185
0.5695128289
0.5717488273
0.573399363
0.5730080959
0.5733105672
0.5726932708
0.5731039072
0.5874159565
0.9069498137
1.205442719
0.4362743414
0.4430196239
0.5210291042
0.5842068066
0.6038348658
0.5899665141
0.5753705407
0.562899969
0.5540131526
0.552739215
0.5547956827
0.556934732
0.5591909322
0.5625099883
0.5639105714
0.5648457615
0.5661215385
0.5682910061
0.5713663325
0.5725355675
0.5723680508
0.5738002931
0.5698171047
0.5679304757
0.5683639915
0.5707862897
0.5731157609
0.5752805213
0.576051029
0.5765872033
0.5753154882
0.5753538366
0.6321847945
1.046774419
1.193844129
0.4467177893
0.4449675999
0.5202155501
0.5837377849
0.6026974633
0.5913319465
0.5778301941
0.5638207132
0.5550824397
0.5538296711
0.5560594393
0.5583388094
0.5608430251
0.5640268741
0.5651514928
0.5656635374
0.5665189022
0.56903364
0.5720303012
0.5738220007
0.5741144309
0.5752752406
0.5720975949
0.5694389699
0.5696942277
0.5717197433
0.5737444148
0.5755851309
0.5764455818
0.5772808448
0.5756646027
0.5793452199
0.764489251
1.091001965
1.204595593
0.4457707594
0.4457345249
0.5177073785
0.5821361608
0.601476805
0.5914534177
0.5786329991
0.5644711361
0.5559451638
0.5549729759
0.557099518
0.5593009582
0.562437674
0.5660111053
0.5671310063
0.5671947831
0.5671574572
0.5695694807
0.5724412326
0.5742652831
0.5754673098
0.5758309985
0.5734607723
0.5715495563
0.5715805411
0.5731756566
0.5748101943
0.575930488
0.5762633743
0.5767425963
0.5761466746
0.5883506492
0.8967461538
1.145295698
1.233535058
0.4437056397
0.4473814782
0.5154828956
0.5790751937
0.5996217291
0.5912599234
0.579182033
0.565090851
0.5565209593
0.5556271878
0.5575342507
0.55997341
0.5633411437
0.5668756673
0.5681792255
0.569193061
0.568967876
0.5708035995
0.5733788225
0.5750027593
0.576189321
0.5761758582
0.5742065404
0.5735000176
0.5732714231
0.5756652348
0.5773307442
0.5777871371
0.577158425
0.5769265305
0.5769679547
0.6432128193
0.9887682538
1.221551584
0.440078384
0.4504883403
0.5159671271
0.5762358766
0.5959413694
0.5905363139
0.5791408114
0.5651820618
0.5566538909
0.5560640053
0.5577150525
0.5601744555
0.5640548393
0.5675570562
0.5687256273
0.5702227587
0.5716656717
0.5733992998
0.5756608455
0.5766251059
0.5764103794
0.5763431688
0.5748065909
0.5745160935
0.5741359723
0.5767615216
0.57885994
0.5803571658
0.5800605486
0.5785806001
0.5794389452
0.747525816
1.127558768
1.245409117
0.4242663048
0.4574265724
0.5168434669
0.5765885496
0.5958760109
0.5905214579
0.5796412355
0.5655645439
0.5571094537
0.5566219184
0.5582336697
0.56082013
0.5651436788
0.5686780836
0.5696536401
0.5708538487
0.572485807
0.5747667897
0.5772967863
0.5774386539
0.5762624031
0.5761107289
0.5752417898
0.5753927631
0.574844901
0.5771265771
0.5786910345
0.5806192741
0.581358458
0.5792565133
0.5924850792
0.9009110732
1.205911285
1.247944793
0.4203157575
0.4682594031
0.5178691014
0.5780786281
0.5961445092
0.5918616348
0.5813267232
0.5666931249
0.558100329
0.5575368401
0.5595897385
0.5624499711
0.5672389738
0.5710554926
0.5718039405
0.5720121909
0.5725939312
0.5749353981
0.577645915
0.5784683803
0.5770360033
0.5762924397
0.5756959712
0.5764238733
0.5756190627
0.5775519832
0.5792116097
0.5800299246
0.5813698974
0.5798552007
0.6408727558
1.054458295
1.220443526
1.235511858
0.4210594894
0.4740944413
0.5188789238
0.5780782922
0.5963798221
0.5936047865
0.583439976
0.5682008027
0.5597391033
0.5592786308
0.5614749929
0.5645000476
0.5697825314
0.5730631844
0.5739424111
0.5739731759
0.5731749435
0.5750840914
0.5776401739
0.5792107436
0.578690224
0.5771845041
0.5764834483
0.5776510272
0.5770977061
0.5789303566
0.580519659
0.5798012272
0.5812291557
0.5824733892
0.7818069182
1.115669844
1.210071396
1.228602622
0.420960038
0.4748621249
0.5192649777
0.5776011912
0.5955950324
0.5935588932
0.5839898034
0.5689933983
0.561326373
0.5606935257
0.5622749048
0.5655087538
0.5706922049
0.5735840574
0.574698085
0.5753253778
0.5747145308
0.5760218182
0.5783314415
0.5795126171
0.5797156804
0.5783655856
0.5773054407
0.578437208
0.5793205396
)
;

boundaryField
{
    inlet
    {
        type            calculated;
        value           nonuniform 0();
    }
    outlet
    {
        type            calculated;
        value           nonuniform 0();
    }
    bottom
    {
        type            calculated;
        value           nonuniform 0();
    }
    top
    {
        type            calculated;
        value           nonuniform 0();
    }
    obstacle
    {
        type            calculated;
        value           nonuniform List<scalar> 
23
(
0.5244988107
0.4528182972
0.454344691
0.4571017303
0.4592697995
0.4566341709
0.4548429491
0.4330788567
0.4079233026
0.401921865
0.3969782845
0.3946650478
0.3962282279
0.4078994451
0.4362743414
0.4467177893
0.4457707594
0.4437056397
0.440078384
0.4242663048
0.4203157575
0.4210594894
0.420960038
)
;
    }
    defaultFaces
    {
        type            empty;
    }
    procBoundary9to3
    {
        type            processor;
        value           nonuniform List<scalar> 
38
(
2.242349013
2.153984766
2.075374372
1.995377299
1.925586777
1.866730073
1.809804305
1.752920137
1.703515788
1.656929297
1.60741447
1.564615101
1.527960261
1.492681604
1.453562956
1.42454522
1.399508863
1.400005046
1.401297551
1.553981611
2.397063375
3.172669615
3.285333699
3.274566348
3.281107653
3.288151015
3.287100027
3.260252559
3.19730061
3.100580263
2.970132869
2.851804813
2.745783441
2.620102849
2.500304073
2.398603133
2.299899975
2.299899975
)
;
    }
    procBoundary9to4
    {
        type            processor;