/*--------------------------------*- C++ -*----------------------------------*\
  =========                 |
  \\      /  F ield         | OpenFOAM: The Open Source CFD Toolbox
   \\    /   O peration     | Website:  https://openfoam.org
    \\  /    A nd           | Version:  7
     \\/     M anipulation  |
\*---------------------------------------------------------------------------*/
FoamFile
{
    version     2.0;
    format      ascii;
    class       volVectorField;
    location    "3.9";
    object      U;
}
// * * * * * * * * * * * * * * * * * * * * * * * * * * * * * * * * * * * * * //

dimensions      [0 1 -1 0 0 0 0];

internalField   nonuniform List<vector> 
138
(
(3 6.128897656e-15 0)
(3 7.447458344e-15 0)
(3 7.969964009e-15 0)
(3 6.277182208e-15 0)
(3 6.510792238e-15 0)
(3 5.939897025e-15 0)
(3 6.025263515e-15 0)
(3 5.56771539e-15 0)
(3 6.377605812e-15 0)
(3 5.186863298e-15 0)
(3 5.181749104e-15 0)
(3 4.545188466e-16 0)
(3 4.942901017e-17 0)
(3 3.660822703e-16 0)
(3 7.312755713e-16 0)
(3 -1.571690696e-15 0)
(3 -1.468613327e-15 0)
(3 1.444092345e-16 0)
(3 1.781649005e-15 0)
(3 3.4213486e-15 0)
(3 2.810406349e-15 0)
(3 2.537915719e-15 0)
(3 6.047501626e-16 0)
(3 1.625899697e-15 0)
(3 4.315835165e-15 0)
(3 5.527129561e-15 0)
(3 5.476189542e-15 0)
(3 6.902685339e-15 0)
(3 -8.569630743e-16 0)
(3 -1.253257485e-15 0)
(3 -3.476230453e-16 0)
(3 2.785979778e-16 0)
(3 3.876151228e-16 0)
(3 -2.998331995e-16 0)
(3 -4.565597286e-16 0)
(3 -9.678381544e-16 0)
(3 -1.5131245e-15 0)
(3 -1.095910442e-15 0)
(3 -2.96185224e-15 0)
(3 -4.142138605e-15 0)
(3 -3.680897934e-15 0)
(3 -2.064374457e-16 0)
(3 3.452863341e-15 0)
(3 9.195274547e-15 0)
(3 1.214623185e-14 0)
(3 -5.996997462e-16 0)
(3 1.240308876e-15 0)
(3 1.246059803e-15 0)
(3 1.591201898e-15 0)
(3 2.142920339e-15 0)
(3 3.027963503e-15 0)
(3 2.445933627e-15 0)
(3 1.062415091e-15 0)
(3 2.455973982e-16 0)
(3 1.372376317e-16 0)
(3 -1.140630559e-15 0)
(3 -4.808288655e-16 0)
(3 -2.455690778e-15 0)
(3 -1.78176231e-15 0)
(3 5.034677666e-16 0)
(3 4.345778728e-15 0)
(3 6.438466114e-15 0)
(3 9.748885985e-16 0)
(3 6.235822732e-16 0)
(3 -2.328404837e-16 0)
(3 1.112957102e-16 0)
(3 8.886247572e-16 0)
(3 6.394221193e-16 0)
(3 -1.373986668e-16 0)
(3 -8.391056902e-17 0)
(3 -1.043401489e-16 0)
(3 -2.327262879e-15 0)
(3 -4.051458732e-15 0)
(3 -5.836855063e-15 0)
(3 -4.936496317e-15 0)
(3 -1.527111587e-15 0)
(3 -8.394550277e-16 0)
(3 1.658288457e-15 0)
(3 2.365980663e-15 0)
(3 -2.65694184e-16 0)
(3 -4.640286441e-15 0)
(3 -6.348974582e-15 0)
(3 -5.273439959e-15 0)
(3 -2.487029107e-15 0)
(3 -3.052790713e-15 0)
(3 -4.561096083e-15 0)
(3 -6.93016577e-15 0)
(3 -6.164320968e-15 0)
(3 -5.57200868e-15 0)
(3 -5.648359042e-15 0)
(3 -4.387126286e-15 0)
(3 -1.979540941e-15 0)
(3 1.217083831e-16 0)
(3 1.406147437e-16 0)
(3 -1.216707016e-15 0)
(3 -4.112822887e-15 0)
(3 -3.814994352e-15 0)
(3 -4.294253548e-15 0)
(3 -4.167079587e-15 0)
(3 -4.315830905e-15 0)
(3 -4.461154125e-15 0)
(3 -6.790223532e-15 0)
(3 -6.204797737e-15 0)
(3 -4.867835892e-15 0)
(3 -4.923305203e-15 0)
(3 -3.613061556e-15 0)
(3 -2.363875452e-15 0)
(3 3.064555446e-16 0)
(3 -1.237373557e-16 0)
(3 -1.96510742e-15 0)
(3 -4.74750156e-15 0)
(3 -1.026646105e-14 0)
(3 -1.711655292e-14 0)
(3 4.019147141e-16 0)
(3 3.058923405e-15 0)
(3 3.727588635e-15 0)
(3 4.92790832e-15 0)
(3 5.269245366e-16 0)
(3 -8.678562238e-16 0)
(3 -2.237890267e-15 0)
(3 -9.900799528e-16 0)
(3 -1.799320552e-15 0)
(3 -2.291981386e-15 0)
(3 -2.787013152e-15 0)
(3 -2.77780781e-15 0)
(3 -4.299573872e-15 0)
(3 -6.035710397e-15 0)
(3 -9.687385786e-15 0)
(3 -1.112741331e-14 0)
(3 -1.050676864e-14 0)
(3 1.117556167e-15 0)
(3 3.23629824e-15 0)
(3 3.758444193e-15 0)
(3 3.776707635e-15 0)
(3 3.17097313e-15 0)
(3 1.84712363e-15 0)
(3 -2.74981946e-16 0)
(3 -9.169551811e-16 0)
)
;

boundaryField
{
    inlet
    {
        type            fixedValue;
        value           uniform (3 0 0);
    }
    outlet
    {
        type            inletOutlet;
        inletValue      nonuniform 0();
        value           nonuniform 0();
    }
    bottom
    {
        type            slip;
    }
    top
    {
        type            slip;
    }
    obstacle
    {
        type            slip;
    }
    defaultFaces
    {
        type            empty;
    }
    procBoundary18to12
    {
        type            processor;
        value           nonuniform List<vector> 
18
(
(3 4.928301637e-15 0)
(3 4.574574579e-15 0)
(3 1.308027222e-15 0)
(3 1.809331886e-15 0)
(3 2.467772152e-15 0)
(3 5.120763784e-15 0)
(3 1.706670163e-15 0)
(3 2.865854805e-15 0)
(3 1.71840698e-15 0)
(3 2.420454281e-15 0)
(3 6.657453889e-16 0)
(3 6.062656442e-16 0)
(3 2.741756702e-15 0)
(3 3.151709182e-15 0)
(3 3.372130731e-15 0)
(3 3.688895845e-15 0)
(3 5.117049617e-15 0)
(3 5.117049617e-15 0)
)
;
    }
    procBoundary18to19
    {
        type            processor;
        value           nonuniform List<vector> 8((3 3.679753827e-15 0) (3 9.367744324e-15 0) (3 1.457308007e-14 0) (3 9.095058515e-15 0) (3 2.077928041e-15 0) (3 -4.971679401e-15 0) (3 -1.708502226e-14 0) (3 -1.241119351e-14 0));
    }
    procBoundary18to24
    {
        type            processor;
        value           nonuniform List<vector> 
18
(
(3 -2.455254645e-15 0)
(3 -3.153545023e-15 0)
(3 -5.658804907e-15 0)
(3 -8.323188989e-15 0)
(3 -8.627871329e-15 0)
(3 -8.487161947e-15 0)
(3 -7.239221172e-15 0)
(3 -5.017208478e-15 0)
(3 7.569748643e-16 0)
(3 2.684581294e-16 0)
(3 1.046785106e-15 0)
(3 1.616145182e-16 0)
(3 1.923766619e-16 0)
(3 -8.731563349e-17 0)
(3 -3.970802552e-15 0)
(3 -3.450037748e-15 0)
(3 -2.455254645e-15 0)
(3 -4.222150743e-15 0)
)
;
    }
}


// ************************************************************************* //
