/*--------------------------------*- C++ -*----------------------------------*\
  =========                 |
  \\      /  F ield         | OpenFOAM: The Open Source CFD Toolbox
   \\    /   O peration     | Website:  https://openfoam.org
    \\  /    A nd           | Version:  7
     \\/     M anipulation  |
\*---------------------------------------------------------------------------*/
FoamFile
{
    version     2.0;
    format      ascii;
    class       volScalarField;
    location    "0.5";
    object      T;
}
// * * * * * * * * * * * * * * * * * * * * * * * * * * * * * * * * * * * * * //

dimensions      [0 0 0 1 0 0 0];

internalField   nonuniform List<scalar> 
2222
(
1
1
1
1
1
1
1
1
1
1
1
1
1
1
1
1
1
1
1.000000004
1.000000604
1.000018215
1.000591374
1.00786613
1.050453429
1.165670229
1.280549332
1.373271635
1.415959993
1.422324915
1.417428756
1.404643514
1.391434741
1
1
1
1
1
1
1
1
1
1
1
1
1
1
1
1
1
1.000000004
1.000000221
1.000019284
1.000342591
1.005676171
1.035427777
1.111592015
1.178898147
1.245045824
1.297988779
1.349232581
1.378093306
1.398047818
1.398353333
1.389508414
1
1
1
1
1
1
1
1
1
1
1
1
1
1
1
1
1.000000001
1.000000163
1.000006531
1.000325972
1.003560132
1.031201365
1.094039175
1.172076918
1.192917153
1.209116484
1.237656669
1.286696495
1.350724471
1.383251288
1.390195914
1.385175475
1
1
1
1
1
1
1
1
1
1
1
1
1
1
1
1.000000001
1.000000048
1.000004484
1.000115036
1.003219894
1.021783869
1.088929645
1.162093647
1.204921925
1.20470694
1.203736093
1.205343029
1.218298902
1.262634993
1.317794154
1.360076254
1.370920759
1
1
1
1
1
1
1
1
1
1
1
1
1
1
1
1.000000033
1.000001962
1.00008683
1.001367289
1.018275659
1.079495905
1.14721372
1.195100457
1.210701376
1.209971819
1.206905223
1.200925008
1.195552995
1.202558965
1.238825862
1.296239754
1.349232255
1
1
1
1
1
1
1
1
1
1
1
1
1
1
1.000000014
1.000001152
1.000048279
1.001126205
1.01055346
1.062722293
1.151907419
1.198578551
1.208953374
1.210994302
1.209829168
1.204749783
1.196659995
1.188909958
1.182730254
1.186834736
1.215003267
1.269318569
1
1
1
1
1
1
1
1
1
1
1
1
1
1.000000006
1.000000497
1.000025314
1.000708527
1.009052843
1.04581782
1.13571268
1.193854912
1.213258155
1.211522729
1.209710054
1.206571493
1.200276162
1.192062383
1.184731115
1.178799993
1.171677092
1.173736313
1.193012965
1
1
1
1
1
1
1
1
1
1
1
1
1.000000002
1.000000252
1.000012341
1.000358852
1.006325274
1.040568798
1.115712263
1.190422759
1.206766591
1.213468136
1.213587391
1.210657794
1.203563816
1.195639333
1.187775686
1.18153043
1.175520668
1.16850254
1.162246588
1.162252761
1
1
1
1
1
1
1
1
1
1
1
1.000000001
1.000000095
1.000007039
1.000208803
1.003313331
1.033757412
1.101256479
1.18163585
1.214057107
1.21389194
1.214355461
1.213472953
1.207871344
1.199549432
1.191298389
1.183606661
1.177504147
1.171881595
1.165626871
1.158306595
1.152009192
1
1
1
1
1
1
1
1
1
1
1
1.00000006
1.000002693
1.000127214
1.002287448
1.019723453
1.095415202
1.17042594
1.210896126
1.217165661
1.216585685
1.215138025
1.210382392
1.20263967
1.194511642
1.186668182
1.17940916
1.173862781
1.168032752
1.161739011
1.154443366
1.148220867
1
1
1
1
1
1
1
1
1
1
1.000000017
1.000001853
1.000049099
1.001500251
1.014689839
1.07253717
1.159148905
1.210383432
1.213827326
1.215291244
1.214906994
1.211688844
1.205323897
1.196872706
1.189496955
1.18215334
1.17560572
1.170372807
1.164293722
1.157595656
1.1506886
1.145123221
1
1
1
1
1
1
1
1
1
1.000000009
1.000000458
1.000037624
1.000599033
1.011138607
1.054735827
1.151015181
1.199743172
1.221943875
1.220791112
1.217917824
1.213444044
1.207180624
1.199716843
1.19185069
1.185209817
1.177834597
1.171717531
1.166573531
1.16032179
1.153120872
1.14674248
1.141784436
1
1
1
1
1
1
1
1
1.000000003
1.000000339
1.000009745
1.000500197
1.005082922
1.046509819
1.129373345
1.201232847
1.210595329
1.219637622
1.221332037
1.217744438
1.210619472
1.202589931
1.194133968
1.186983341
1.180867556
1.173674608
1.167836854
1.162378988
1.155864117
1.148449699
1.142862816
1.138009476
1
1
1
1
1
1
1
1.000000001
1.000000089
1.000008415
1.000153862
1.00430743
1.028140518
1.11004119
1.196472227
1.224548973
1.220172012
1.219404097
1.218915558
1.214005561
1.206303653
1.197779405
1.188703887
1.182176655
1.176300277
1.16939719
1.163971301
1.158178091
1.151015452
1.143451036
1.138693354
1.133839589
1
1
1
1
1
1
1.000000001
1.000000052
1.000001999
1.00013799
1.00168457
1.023322767
1.090683554
1.169559772
1.218581222
1.22845261
1.226504142
1.222481938
1.216424666
1.208547534
1.201152465
1.192450311
1.183919387
1.178187753
1.171997372
1.165081831
1.15960092
1.153340226
1.145748984
1.138934114
1.134706742
1.129538486
1
1
1
1
1
1
1.000000017
1.000001523
1.000035642
1.001480353
1.01204549
1.073636155
1.171546492
1.208080467
1.218433272
1.226132592
1.225572595
1.220795871
1.212706053
1.204132615
1.196683932
1.187464888
1.18034975
1.174917767
1.167667818
1.160390221
1.154945823
1.148686744
1.141204352
1.134912103
1.130638195
1.125094731
1
1
1
1
1
1.000000007
1.0000004
1.00003095
1.000474897
1.010162603
1.052577748
1.138764918
1.213700157
1.229975894
1.227079519
1.22541334
1.222570121
1.216685519
1.208003039
1.200722008
1.192875404
1.183112437
1.176848533
1.171109747
1.163041615
1.155951792
1.150619474
1.144382957
1.136827416
1.13095276
1.126564112
1.120623627
1
1
1
1
1.000000003
1.00000024
1.000007926
1.000426213
1.004314614
1.043093884
1.129855312
1.190489259
1.219179573
1.231180954
1.229905215
1.226436442
1.219742316
1.211652879
1.203018397
1.197015809
1.188562603
1.179125638
1.173246699
1.166611933
1.158041577
1.151580923
1.146481429
1.140067024
1.132135708
1.126487952
1.122124638
1.115980226
1
1
1
1.000000001
1.000000086
1.000005981
1.00012233
1.003840165
1.024998826
1.106066985
1.19717774
1.225793239
1.224162345
1.225858977
1.225800912
1.222127578
1.215251954
1.206050883
1.198116177
1.192379153
1.183432188
1.175237004
1.169327371
1.161653334
1.153261941
1.147505691
1.142344929
1.135169007
1.126747205
1.121815686
1.117789622
1.111384488
1
1
1.000000001
1.00000003
1.000001843
1.000102918
1.001378502
1.021534875
1.085295142
1.166754378
1.220891669
1.231832329
1.229523934
1.225525395
1.222333794
1.217086966
1.210125195
1.200956269
1.193851185
1.187105138
1.177420911
1.170668765
1.164809055
1.156604149
1.148661619
1.143228513
1.13772517
1.129632924
1.121439609
1.117392004
1.11344273
1.106563593
1
1
1.00000002
1.000001019
1.000031811
1.001172149
1.010390928
1.070737907
1.167266998
1.207971426
1.221340104
1.230583085
1.229700943
1.226288093
1.219355746
1.212550826
1.204929134
1.19628836
1.189813484
1.181881088
1.172223001
1.166440397
1.160324059
1.151742001
1.144301757
1.13889777
1.132877487
1.12399663
1.116635235
1.113199246
1.109214634
1.101907137
1
1.000000004
1.000000508
1.000022211
1.000408939
1.008502478
1.047413382
1.138171905
1.21557004
1.232869936
1.23019743
1.228643101
1.226716181
1.221818773
1.215075315
1.208537097
1.199896799
1.191532375
1.185051888
1.176328716
1.167807341
1.162662822
1.156092561
1.1471024
1.13988905
1.134482508
1.127977099
1.118868669
1.112282627
1.108926861
1.104565831
1.096689211
1.000000004
1.000000148
1.000009058
1.000314506
1.003651287
1.037980149
1.124727384
1.188183685
1.224845314
1.234914225
1.233648483
1.229925824
1.224153565
1.216826807
1.210235873
1.203634298
1.19460283
1.186899319
1.179952735
1.170591469
1.16329574
1.158381154
1.151309044
1.141967641
1.135248994
1.129978713
1.123122649
1.114027614
1.107999868
1.104389814
1.099595679
1.09147272
1.000000107
1.000003805
1.000119807
1.002881678
1.021916823
1.098636056
1.19688232
1.218536262
1.225812782
1.232733135
1.232265345
1.227933894
1.220707352
1.212099677
1.205460027
1.198210379
1.189469582
1.182641796
1.174995215
1.164988419
1.158447719
1.153556433
1.145969484
1.136715994
1.13090397
1.125716787
1.118466283
1.109519153
1.103549907
1.099655721
1.094581235
1.086722951
1.000002244
1.00006419
1.001227006
1.017041125
1.078333157
1.162756217
1.225144385
1.234993979
1.232425175
1.231065542
1.22873923
1.223940617
1.216452689
1.208450884
1.201686147
1.193006239
1.184289628
1.177955904
1.169783336
1.159820895
1.153658933
1.148432425
1.140123827
1.131803395
1.126839912
1.12142794
1.11373446
1.104870284
1.09907093
1.09516042
1.090008694
1.08220509
1.000035635
1.00077308
1.008827584
1.062558963
1.162182456
1.204791505
1.226189995
1.236220996
1.235090387
1.231838138
1.225587204
1.219049238
1.211393304
1.204771971
1.197831366
1.187965476
1.179421345
1.173110915
1.164526301
1.155001279
1.149067187
1.143041679
1.134264446
1.127340274
1.122567769
1.116521422
1.108731411
1.100451935
1.09487982
1.090911516
1.085247748
1.077039826
1.000437602
1.006227485
1.04204134
1.132759311
1.217903831
1.225419737
1.226732213
1.231860103
1.232078341
1.228184557
1.221525812
1.213952023
1.205751636
1.19974137
1.192802473
1.182997757
1.175089227
1.16843632
1.158971151
1.150028265
1.144238885
1.137295421
1.12861892
1.122784595
1.117559067
1.11126503
1.104020841
1.09611337
1.090479566
1.086264473
1.079842696
1.071388392
1.0039159
1.031295681
1.115540042
1.188733546
1.231806684
1.236697306
1.233307371
1.231615664
1.229064306
1.22348821
1.21691932
1.208992603
1.200556594
1.194260735
1.186739364
1.177443699
1.170667352
1.163564084
1.153182298
1.14510186
1.139261178
1.131517242
1.123620756
1.117811059
1.111824636
1.105935845
1.099448717
1.091463574
1.085751163
1.081358751
1.074198449
1.066225271
1.022114826
1.093135
1.191520796
1.214147103
1.228270001
1.237663147
1.236727429
1.23271844
1.225600413
1.2180592
1.211720517
1.203988953
1.196085208
1.18939609
1.180676913
1.171873036
1.16598637
1.158315825
1.147749766
1.140482621
1.133943283
1.125772506
1.118877288
1.112643011
1.106425012
1.101261519
1.094606382
1.08593139
1.080750433
1.076610364
1.06913077
1.062103692
1.075795765
1.164965689
1.226984018
1.229466753
1.231077587
1.23419807
1.233295021
1.229052141
1.221596769
1.213814423
1.206885991
1.198425479
1.191166012
1.184351842
1.174712261
1.166703811
1.161045536
1.152515459
1.142338585
1.135540521
1.128168275
1.120525475
1.114347191
1.107255878
1.101117932
1.096371851
1.089202377
1.080606991
1.07634284
1.072205432
1.064040382
1.057823838
1.1491536
1.207818931
1.23578925
1.238024821
1.236037264
1.233295973
1.229471768
1.224219341
1.21679084
1.209893946
1.202039412
1.192371489
1.185622074
1.178545663
1.168806312
1.161900335
1.155660313
1.145823129
1.136882379
1.130384731
1.12262238
1.115801868
1.109364856
1.101423785
1.096062068
1.091595063
1.083666363
1.075540724
1.072043407
1.067603507
1.058902453
1.053717643
1.208847438
1.222864908
1.231116173
1.236790444
1.235942434
1.231910227
1.225911496
1.218558569
1.211294875
1.205370325
1.196671865
1.186860379
1.18047567
1.172471046
1.163065581
1.157064611
1.149791132
1.139383632
1.131811805
1.124891976
1.117152858
1.111135383
1.104027422
1.095719322
1.091208777
1.086656348
1.077907085
1.070838893
1.067788915
1.062655406
1.053843929
1.049681777
1.234132275
1.234683325
1.233919966
1.234815766
1.233589272
1.229057938
1.222420445
1.213799101
1.20652086
1.200087683
1.190281243
1.181807654
1.175582903
1.166360941
1.157961579
1.152010109
1.143260847
1.133467684
1.127107394
1.119823905
1.112551688
1.10637625
1.097691181
1.089782644
1.086371403
1.081739447
1.072451174
1.066551414
1.0633753
1.057069265
1.04904399
1.045726526
1.236241256
1.238752178
1.237168063
1.2342534
1.230130073
1.224859174
1.218051153
1.209373825
1.202155309
1.193991764
1.183314446
1.17684341
1.170425608
1.160446478
1.15303918
1.146289325
1.13657785
1.128802838
1.122645637
1.114364581
1.107436909
1.100981961
1.091501802
1.085023303
1.081998569
1.076505697
1.066469863
1.061914373
1.058595596
1.051457901
1.045034269
1.041716251
1.231123199
1.235420264
1.235449246
1.232520789
1.226534161
1.220153411
1.212464129
1.204598009
1.197673216
1.187743041
1.177594776
1.171903592
1.164112245
1.154343768
1.14807868
1.140277083
1.130593316
1.124153688
1.117099218
1.108323097
1.102387991
1.095740922
1.085984471
1.080509721
1.077175926
1.070317487
1.060812144
1.057599576
1.053659844
1.045849544
1.040748319
1.036941632
1.234046484
1.233892188
1.232946429
1.228883997
1.222562588
1.215343795
1.206733354
1.199803524
1.192460069
1.18143911
1.172918933
1.16668813
1.157160214
1.148828767
1.142706062
1.133428557
1.12488459
1.119194571
1.111053162
1.102775813
1.097658711
1.090304211
1.080449452
1.075834193
1.071989419
1.06378255
1.05602589
1.053130725
1.047843023
1.04016265
1.03639953
1.032029386
1.237421851
1.233340126
1.228835147
1.223373856
1.217460863
1.209914486
1.201647614
1.194990015
1.186007743
1.175250222
1.168506074
1.160789875
1.150143256
1.143438441
1.136638854
1.12676478
1.120018714
1.113855557
1.104137094
1.097100657
1.092629144
1.084561166
1.075374768
1.071217119
1.066339344
1.05704993
1.051412526
1.048202121
1.04161007
1.035440793
1.032307438
1.026903788
1.236351145
1.23207832
1.225370625
1.218310935
1.211609635
1.203581587
1.196547486
1.189625707
1.17900494
1.169851898
1.163453791
1.15378685
1.144015095
1.13829015
1.130094856
1.120690461
1.115192242
1.107896966
1.097484225
1.092078622
1.08757595
1.078241605
1.070008543
1.066189064
1.060205625
1.051246295
1.047080898
1.042949486
1.035652741
1.031198699
1.02799287
1.021223834
1.23424416
1.229487812
1.221887732
1.214220156
1.205808903
1.197178108
1.191072378
1.183229581
1.172175096
1.165027475
1.157782875
1.14682177
1.139012838
1.133036909
1.123171072
1.115181874
1.110151399
1.101513058
1.091520395
1.086961411
1.081667682
1.07123273
1.06492524
1.061312562
1.054267282
1.046296286
1.042382116
1.036938576
1.030051433
1.026921268
1.023392662
1.015420204
1.230994474
1.224660845
1.217593394
1.210207898
1.200362899
1.191553485
1.185055026
1.175626061
1.166122139
1.160166495
1.151169653
1.140077587
1.133982641
1.127193309
1.116596838
1.110171936
1.104674285
1.094413054
1.085646306
1.081663843
1.075408365
1.065120399
1.060370656
1.05607075
1.047777435
1.041267432
1.037402921
1.03105039
1.025277883
1.022586793
1.018346468
1.009461591
1.227305595
1.2196203
1.212926488
1.205120615
1.194623646
1.186388754
1.178528699
1.167595057
1.160291038
1.154441873
1.143767702
1.134205988
1.128917505
1.12062463
1.110041432
1.104614783
1.098343551
1.087243424
1.080361017
1.076396499
1.068772368
1.059312979
1.055393081
1.050000636
1.041485976
1.036653385
1.032421024
1.025259911
1.020390312
1.017736618
1.012759622
1.003844038
1.223233775
1.215160713
1.208278977
1.198981094
1.188597069
1.181075204
1.171486321
1.160070569
1.154314558
1.147772822
1.13644355
1.129130037
1.123453314
1.113170441
1.103502963
1.098846604
1.09172722
1.080574801
1.075084794
1.070616515
1.061721777
1.054069186
1.050259537
1.043596557
1.035944984
1.031997557
1.02688483
1.019159261
1.015233832
1.01261552
1.007025273
0.9986012594
1.218227687
1.210910203
1.203459204
1.1923303
1.182613862
1.175179772
1.164024691
1.153578684
1.148328682
1.140337207
1.129338059
1.123779387
1.117314509
1.1057231
1.09759499
1.09306473
1.084697932
1.074125741
1.069800634
1.064827359
1.055649078
1.049497753
1.04478872
1.036769766
1.030541728
1.027015467
1.021005583
1.01348478
1.010238985
1.007455172
1.001077527
0.9931462718
1.212267375
1.205573744
1.197522162
1.185561599
1.176886126
1.168685944
1.156344008
1.147490698
1.141892166
1.132165084
1.122519733
1.118147509
1.11090179
1.098975921
1.091988156
1.087024068
1.077415091
1.068420102
1.064679892
1.058770857
1.04969866
1.044404545
1.038713956
1.030413282
1.0256512
1.022074616
1.015042494
1.007946079
1.005053612
1.001981019
0.9948375789
0.9876419714
1.206025757
1.199155509
1.190183793
1.178857287
1.171202571
1.161620053
1.148691137
1.141331958
1.135122862
1.124123903
1.116221271
1.112082254
1.103769803
1.092298932
1.086392243
1.080915596
1.070316685
1.06295627
1.059190732
1.052182752
1.044044401
1.039350585
1.03281249
1.024954791
1.020804186
1.016718895
1.008665191
1.00244574
0.9999551251
0.996661708
0.9889799063
0.982756587
1.200054735
1.192434189
1.182272422
1.172215635
1.165034665
1.154098927
1.141726484
1.135334997
1.128114765
1.116303993
1.109896832
1.105599104
1.096398935
1.086118143
1.080804477
1.074351439
1.063168762
1.057545575
1.053483956
1.045739878
1.038952267
1.034161881
1.0265307
1.019258195
1.015546844
1.011060339
1.00260465
0.9974139714
0.9950951952
0.9914523795
0.9833895839
0.9780435837
1.194008964
1.185630464
1.174493224
1.165498989
1.158324646
1.146500274
1.135339989
1.129183499
1.120582042
1.10893097
1.103746094
1.098974203
1.088754577
1.079785908
1.074989828
1.067653992
1.057253751
1.052622767
1.047402845
1.038975047
1.033358517
1.028282964
1.019933631
1.013679577
1.010330812
1.005398373
0.9967055357
0.9923180264
0.9900540695
0.9860542231
0.9779658337
0.9735655004
1.187465867
1.178412274
1.166791311
1.15847202
1.150976673
1.138693041
1.129127737
1.123007561
1.113121723
1.102089367
1.097444733
1.091948517
1.081061367
1.073808077
1.069205383
1.06086243
1.05169676
1.047117215
1.040321765
1.03223197
1.027831765
1.022414559
1.013642831
1.00814862
1.004846354
0.9993155473
0.9906680992
0.9870439806
0.9848716237
0.9805792282
0.9727307055
0.968749366
1.18082501
1.170854842
1.159070839
1.151311072
1.143350497
1.131050059
1.122841444
1.116382504
1.105123519
1.095151058
1.091046535
1.084843888
1.073788502
1.067948159
1.062916248
1.053589956
1.046171816
1.041339175
1.033449774
1.026522568
1.022439279
1.015991435
1.006851181
1.002290369
0.9991901953
0.9932635953
0.9850962418
0.9819980668
0.9797709064
0.9750961711
0.967358103
0.9637629471
1.174073799
1.162961866
1.151478449
1.144342213
1.135645088
1.123203709
1.116133544
1.109397995
1.097423767
1.088874093
1.084670223
1.077034274
1.066353068
1.061895907
1.056300267
1.047066087
1.041095358
1.035290914
1.026458793
1.020558735
1.016515017
1.009224616
1.000626196
0.9968712763
0.9937869467
0.9872743664
0.9793853437
0.976521507
0.9741640179
0.969108798
0.9616707824
0.9583835873
1.167173051
1.15506644
1.14418904
1.13725468
1.12741072
1.115505963
1.109521559
1.102192968
1.089494983
1.082329369
1.077914378
1.068998707
1.060185627
1.056165105
1.049320662
1.040659152
1.035353041
1.028393393
1.019545073
1.014811258
1.010829105
1.002962213
0.9950549833
0.9915338185
0.9881678005
0.9809504057
0.9736168955
0.9711828304
0.9688527768
0.9635533579
0.9564232348
0.9533588495
1.159896392
1.146825484
1.136976072
1.130032517
1.11889618
1.108029643
1.102684931
1.094290406
1.081640041
1.07599258
1.071057189
1.061132611
1.054223937
1.049626609
1.041518933
1.034363054
1.029596022
1.021807916
1.013500513
1.009195117
1.004822237
0.9962448011
0.9890867089
0.9858945477
0.9823596407
0.9747757662
0.968078674
0.9657321674
0.9632699026
0.957671317
0.9508741908
0.9480463815
1.15182263
1.138242363
1.129813571
1.122397696
1.1098055
1.100753975
1.09589028
1.086312379
1.074624736
1.069664737
1.063341354
1.053129619
1.048068178
1.042832223
1.034659469
1.02894895
1.023852637
1.01478896
1.007008251
1.003075124
0.9985041124
0.9898806904
0.9838102714
0.9808416661
0.9770870729
0.96899725
0.9628060881
0.9605049263
0.9578970538
0.9520058157
0.9455798998
0.9429190711
1.143031491
1.1295357
1.122632873
1.114454224
1.101266712
1.094313646
1.089052348
1.07759755
1.067582309
1.063070993
1.055452965
1.046666522
1.042324355
1.035935003
1.028007269
1.022989631
1.017298507
1.007516341
1.000848415
0.997364202
0.9926770604
0.9841013372
0.978449903
0.9753168091
0.9711238038
0.9627223953
0.9571727437
0.9550063009
0.95234683
0.9463452818
0.9403086683
0.937715162
1.133512732
1.121637637
1.115851203
1.106290297
1.093324309
1.087956092
1.081738454
1.069135258
1.061625824
1.05674074
1.047856874
1.040613075
1.035979455
1.028427319
1.021390919
1.017074676
1.011098889
1.001386222
0.9955297181
0.9919808857
0.9867829122
0.9779355517
0.9728416978
0.9698297368
0.9654844671
0.9571904987
0.9522731996
0.9500629053
0.9472298096
0.9409188311
0.9351110169
0.9324835225
1.124214226
1.114820687
1.108850574
1.097070872
1.08589122
1.08166195
1.074072925
1.061603301
1.055789148
1.049688957
1.040144701
1.034556466
1.029636506
1.021649232
1.015560373
1.011396995
1.004800504
0.9950528708
0.9897003543
0.9860845889
0.9804732431
0.9717806784
0.9671126344
0.9641614455
0.9596769488
0.9515768222
0.9470757703
0.9448034379
0.9417905639
0.9352558453
0.9298413662
0.9273293508
1.115100928
1.108095181
1.101239077
1.087859187
1.079509812
1.07506037
1.06509438
1.053993922
1.049554656
1.042622248
1.03389755
1.029023929
1.02314333
1.01462951
1.009252136
1.005215239
0.9982299749
0.9889978788
0.984325205
0.9807829813
0.9748802075
0.9662474628
0.9617617151
0.9587124229
0.9539679699
0.9459656149
0.9418177825
0.9395086034
0.9363557174
0.9297499189
0.9248427407
0.922475816
1.107137213
1.101499884
1.092796977
1.078805466
1.07290279
1.0676699
1.055967053
1.047753946
1.043505836
1.035485185
1.027463535
1.022650639
1.015809065
1.00743586
1.002944115
0.9991597249
0.9920593795
0.9832988309
0.9786575194
0.9748556807
0.9684190983
0.9598527448
0.9557362839
0.952803756
0.9480200474
0.9403663144
0.9365645748
0.934273798
0.9310476313
0.924539585
0.9200887712
0.917776638
1.09437891
1.083116324
1.070617736
1.06647436
1.060102714
1.04792093
1.041651113
1.03647641
1.027353625
1.020592829
1.016258556
1.009041088
1.001200526
0.9971403658
0.9932873191
0.9857493966
0.9772039261
0.9727174974
0.9688194554
0.9620530484
0.9539278817
0.9501942453
0.9473420897
0.9424764331
0.9350689113
0.9314199316
0.9290509496
0.9256530472
0.9191615059
0.9150397958
0.9127167732
1.086860705
1.073630265
1.063993355
1.059871889
1.051297831
1.039641433
1.035053624
1.029270689
1.020154292
1.014406598
1.010022867
1.002077272
0.994461885
0.990554243
0.9865269073
0.9786474677
0.9704856487
0.9662288867
0.9623847549
0.95561513
0.948096997
0.9446038438
0.9417513254
0.9367573487
0.9295635534
0.926074422
0.9236675524
0.920122638
0.9137196406
0.9099215876
0.9076259927
1.078653816
1.063865171
1.056880841
1.052513774
1.042454641
1.033006228
1.028786124
1.021751616
1.012644313
1.007631529
1.003212496
0.9948567045
0.987904367
0.9843377208
0.9803196793
0.9722653135
0.9644550086
0.9602423568
0.9563100404
0.9494054111
0.9423339467
0.9389303666
0.935984296
0.9307217239
0.9236310592
0.9203780215
0.9180820138
0.9145658616
0.908501985
0.9049615155
0.9025881903
1.069087444
1.054461242
1.049821646
1.045038875
1.034179826
1.026270773
1.021554484
1.013151999
1.004769771
1.000676633
0.9963784095
0.9879197292
0.981316379
0.9776873743
0.9734521248
0.9651637864
0.957716136
0.9536913848
0.9497895103
0.9429058206
0.9363519625
0.9331086136
0.9301446507
0.9247551512
0.9179785004
0.9149097663
0.9126805536
0.909215741
0.9034546462
0.9000695355
0.897558537
1.059126944
1.046354522
1.042397466
1.036222315
1.024887177
1.018821342
1.014159037
1.00528527
0.9979253363
0.9941059746
0.9895421722
0.9806998458
0.9745155595
0.9709549619
0.9665910641
0.9581523632
0.9511517111
0.9472892393
0.9433911455
0.9365156272
0.9304096571
0.9273106043
0.9243546588
0.9189176658
0.9124250546
0.9093326435
0.9070111111
0.9034539665
0.8979012373
0.8948126382
0.8923657856
1.048106139
1.037782428
1.034411007
1.027234291
1.016870473
1.011742582
1.006431813
0.996725805
0.9899857837
0.9863025979
0.9814725665
0.9725689271
0.9668931166
0.963559684
0.9592525308
0.9509149126
0.944438223
0.9408130909
0.9369944423
0.9302822738
0.924612987
0.921558873
0.9185497395
0.9129615977
0.9066364043
0.9035747882
0.9012307005
0.897708328
0.8925472569
0.8897667365
0.8873951573
1.037526647
1.030076491
1.026541322
1.01819942
1.008713347
1.003889696
0.9978490466
0.9879067778
0.982295128
0.9789399841
0.9739951593
0.965035414
0.9597401026
0.9564796638
0.9521111716
0.9438145151
0.9377804356
0.9342845705
0.9304604693
0.923797686
0.9184042839
0.9153607223
0.9123069944
0.9066657205
0.9007633812
0.8979078582
0.8956200352
0.8922033685
0.8873722797
0.8847387626
0.8823833171
1.028112868
1.022281323
1.017749376
1.008048645
0.9998756605
0.9955513182
0.9890579988
0.9794151194
0.9743787497
0.9709816512
0.965705439
0.9566993308
0.9519247769
0.9489235117
0.9446542923
0.9366067666
0.9310685639
0.9277119402
0.9238776204
0.9172908125
0.9121919959
0.909193752
0.9061664321
0.9006571333
0.8951920994
0.8924020663
0.8900453574
0.8865820068
0.8819920513
0.8794801832
0.8771317178
1.018456998
1.014085706
1.008858042
0.9987143192
0.9918315295
0.9875299495
0.9803870159
0.9710632871
0.9665641755
0.9631302129
0.9575065559
0.9485309163
0.9442483104
0.9414277746
0.9371945309
0.9294045712
0.9243014851
0.9210578497
0.9172334933
0.9108330326
0.9059873057
0.9029521725
0.8998628062
0.8943196102
0.8891764181
0.8865295395
0.8841394454
0.8807170579
0.8764070651
0.8738811743
0.871504938
1.01002642
1.005706488
0.9990272312
0.9886293407
0.9827937055
0.9784523247
0.9708962895
0.9622915462
0.958320221
0.9549294073
0.9490697972
0.940275541
0.9365499243
0.9339722623
0.929870962
0.9224911394
0.9177538902
0.9145425412
0.9106767681
0.9043907029
0.8996702748
0.8965519636
0.8933752576
0.8878553249
0.8831580777
0.8806972986
0.8783246759
0.8749190626
0.8706927197
0.8681572517
0.8658602578
1.001383617
0.9966355151
0.9885737079
0.9792326624
0.9745881516
0.9702045024
0.9622357619
0.9542244213
0.950476354
0.9469706929
0.9407494911
0.9322010276
0.9288666099
0.9263984548
0.9223426197
0.9152770139
0.9108338248
0.9076852847
0.903805884
0.897644481
0.8931454995
0.890063671
0.8868864993
0.8815410766
0.8772378428
0.874833573
0.8724272217
0.8690568828
0.8649655455
0.8623952906
0.8601461144
0.9926499644
0.9872456733
0.9782007954
0.9704353727
0.9660880418
0.9612203722
0.9528495561
0.945579392
0.9421858018
0.9387030562
0.9323253825
0.9242198558
0.9212845976
0.9188994973
0.9148766262
0.9081564985
0.9039873908
0.9009191678
0.8970779442
0.8911151188
0.8868156666
0.8837323135
0.8805105303
0.8752889285
0.8713297098
)
;

boundaryField
{
    inlet
    {
        type            fixedValue;
        value           nonuniform 0();
    }
    outlet
    {
        type            inletOutlet;
        inletValue      nonuniform 0();
        value           nonuniform 0();
    }
    bottom
    {
        type            slip;
    }
    top
    {
        type            slip;
    }
    obstacle
    {
        type            zeroGradient;
    }
    defaultFaces
    {
        type            empty;
    }
    procBoundary4to3
    {
        type            processor;
        value           nonuniform List<scalar> 
62
(
1
1
1
1
1
1
1
1
1
1
1
1
1
1
1
1
1
1
1
1
1
1
1
1
1.000000015
1.00000051
1.000012176
1.000191908
1.002018737
1.013291437
1.055422486
1.129977801
1.192916575
1.216841649
1.226939714
1.238689377
1.24016278
1.237786188
1.235831678
1.23561992
1.233604279
1.230081069
1.225345567
1.220364996
1.215184634
1.209674204
1.203318103
1.196269155
1.189421584
1.182765461
1.175821749
1.168638592
1.161145893
1.153700329
1.146148742
1.138279333
1.129694701
1.12026901
1.100107774
1.100107774
1.093242414
1.086625941
)
;
    }
    procBoundary4to5
    {
        type            processor;
        value           nonuniform List<scalar> 
69
(
1.375079787
1.374165569
1.374905563
1.373466233
1.370065373
1.322938348
1.242638064
1.173588487
1.150122213
1.143407857
1.139201187
1.135552433
1.131168077
1.126744342
1.122193438
1.117776302
1.113097
1.108498805
1.103740018
1.099195318
1.094737055
1.090061482
1.085652135
1.081773047
1.077600207
1.072885662
1.068039649
1.063622101
1.059562627
1.055110004
1.050592979
1.045971291
1.041227353
1.035856339
1.029851131
1.024392579
1.01902239
1.013667403
1.008801237
1.004126763
0.9998312691
0.9954297665
0.9905533932
0.9855580789
0.9809393536
0.9762730471
0.9717832385
0.9667331143
0.9616334329
0.9562122934
0.9511293792
0.9458293913
0.9406757185
0.9354072494
0.9300365383
0.9248438321
0.9199741893
0.9152224521
0.9100929543
0.9050054773
0.8998926279
0.894685613
0.8894696382
0.8845109669
0.8794709964
0.8742501315
0.8686618201
0.8632609732
0.8576713806
)
;
    }
    procBoundary4to9
    {
        type            processor;
        value           nonuniform List<scalar> 9(1.079256375 1.071316414 1.062392833 1.052482046 1.042627419 1.031678242 1.020939776 1.01023446 0.9988361269);
    }
    procBoundary4to10
    {
        type            processor;
        value           nonuniform List<scalar> 
32
(
0.868981061
0.8665925887
0.8633552622
0.8593827345
0.856915741
0.8548427622
0.9848965899
0.9780040343
0.9685100148
0.9623395757
0.9578571091
0.9523443179
0.9436996245
0.9371395784
0.9338313207
0.9302688383
0.9237727396
0.9162818321
0.9137137914
0.9114368155
0.907508504
0.9010969992
0.8970501526
0.8939883292
0.8901391999
0.8843514612
0.8802997297
0.8772414525
0.8739960768
0.8690741163
0.868981061
0.8654202885
)
;
    }
}


// ************************************************************************* //
