/*--------------------------------*- C++ -*----------------------------------*\
  =========                 |
  \\      /  F ield         | OpenFOAM: The Open Source CFD Toolbox
   \\    /   O peration     | Website:  https://openfoam.org
    \\  /    A nd           | Version:  7
     \\/     M anipulation  |
\*---------------------------------------------------------------------------*/
FoamFile
{
    version     2.0;
    format      ascii;
    class       volScalarField;
    location    "3.3";
    object      p;
}
// * * * * * * * * * * * * * * * * * * * * * * * * * * * * * * * * * * * * * //

dimensions      [1 -1 -2 0 0 0 0];

internalField   nonuniform List<scalar> 
138
(
1
1
1
1
1
1
1
1
1
1
1
1
1
1
1
1
1
1
1
1
1
1
1
1
1
1
1
1
1
1
1
1
1
1
1
1
1.000000009
1
1
1
1
1
1
1
1.000000008
1.000000296
1
1
1
1
1
1
1.000000004
1.000000287
1.000006947
1
1
1
1
1
1.000000004
1.000000166
1.000007376
1.000115452
1
1
1
1
1.000000002
1.000000168
1.000004486
1.000130238
1.001311786
1
1
1
1.000000001
1.000000078
1.000004765
1.000081255
1.00152292
1.009912277
1
1
1
1.000000047
1.000002208
1.000087394
1.000994616
1.01128568
1.049126256
1
1
1.000000025
1.000001792
1.000044766
1.001072109
1.008117094
1.052225509
1.153923431
1
1.000000003
1.000000884
1.000043265
1.00064419
1.008630505
1.043502635
1.14645397
1.29853813
1
1.000000187
1.000021351
1.000673662
1.006081632
1.044449022
1.146620841
1.263307258
1.364137881
1.000000002
1.000007408
1.000359749
1.006332992
1.037559673
1.13709939
1.301151955
1.344195596
1.366767826
1.00000038
1.000184618
1.003990757
1.037823279
1.134450857
1.268676814
1.386061931
1.388163938
1.378741499
1.000026823
1.002767794
)
;

boundaryField
{
    inlet
    {
        type            fixedValue;
        value           nonuniform 0();
    }
    outlet
    {
        type            zeroGradient;
    }
    bottom
    {
        type            slip;
    }
    top
    {
        type            slip;
    }
    obstacle
    {
        type            zeroGradient;
    }
    defaultFaces
    {
        type            empty;
    }
    procBoundary3to2
    {
        type            processor;
        value           nonuniform List<scalar> 10(1 1 1 1 1 1 1 1 1 1);
    }
    procBoundary3to4
    {
        type            processor;
        value           nonuniform List<scalar> 
15
(
1
1
1.000000014
1.000000456
1.00001029
1.000161638
1.001746502
1.012624681
1.056428893
1.150462926
1.256231854
1.334948817
1.368598329
1.367669575
1.335999732
)
;
    }
    procBoundary3to8
    {
        type            processor;
        value           nonuniform List<scalar> 7(1 1 1 1 1 0.9999999974 0.9999999156);
    }
    procBoundary3to9
    {
        type            processor;
        value           nonuniform List<scalar> 10(1.028184982 1.132453102 1.297207862 1.360597497 1.390753912 1.388199853 1.342607959 1.000924717 1.028184982 1.023059687);
    }
}


// ************************************************************************* //
