/*--------------------------------*- C++ -*----------------------------------*\
  =========                 |
  \\      /  F ield         | OpenFOAM: The Open Source CFD Toolbox
   \\    /   O peration     | Website:  https://openfoam.org
    \\  /    A nd           | Version:  7
     \\/     M anipulation  |
\*---------------------------------------------------------------------------*/
FoamFile
{
    version     2.0;
    format      ascii;
    class       volVectorField;
    location    "4.5";
    object      U;
}
// * * * * * * * * * * * * * * * * * * * * * * * * * * * * * * * * * * * * * //

dimensions      [0 1 -1 0 0 0 0];

internalField   nonuniform List<vector> 
22
(
(3.000000021 -2.423274471e-08 0)
(2.999999947 1.263662705e-07 0)
(2.99999956 5.961040928e-07 0)
(3.000000002 -2.560936879e-09 0)
(3.000000002 -2.713157114e-09 0)
(3 -9.450029056e-10 0)
(3.000000015 -1.291226169e-08 0)
(3 -2.077766317e-10 0)
(3 -5.648203481e-10 0)
(3 -8.762059546e-10 0)
(3.000000001 -1.419179026e-09 0)
(3 -1.379381811e-12 0)
(3 -2.004742013e-11 0)
(3 -9.381102246e-15 0)
(3 -9.188289859e-15 0)
(3 -6.355502471e-15 0)
(3 -2.535931349e-15 0)
(3 -4.784278138e-15 0)
(3 -6.858875184e-15 0)
(3 2.011863996e-15 0)
(3 2.30295915e-15 0)
(3 -3.683921018e-16 0)
)
;

boundaryField
{
    inlet
    {
        type            fixedValue;
        value           nonuniform 0();
    }
    outlet
    {
        type            inletOutlet;
        inletValue      nonuniform 0();
        value           nonuniform 0();
    }
    bottom
    {
        type            slip;
    }
    top
    {
        type            slip;
    }
    obstacle
    {
        type            slip;
    }
    defaultFaces
    {
        type            empty;
    }
    procBoundary25to19
    {
        type            processor;
        value           nonuniform List<vector> 7((2.999992708 1.178331473e-05 0) (2.999943133 9.52602005e-05 0) (2.999781343 0.0004004278921 0) (3 -2.91109529e-15 0) (3 -4.224487888e-15 0) (3 -3.343590887e-15 0) (3 -2.91109529e-15 0));
    }
    procBoundary25to24
    {
        type            processor;
        value           nonuniform List<vector> 2((3 -7.412568601e-15 0) (3 -1.71286536e-15 0));
    }
    procBoundary25to26
    {
        type            processor;
        value           nonuniform List<vector> 4((2.999995492 8.125501144e-06 0) (2.999995492 8.125501144e-06 0) (2.999999987 3.263071355e-08 0) (3.000000001 -1.418021592e-09 0));
    }
    procBoundary25to30
    {
        type            processor;
        value           uniform (3 1.322984676e-15 0);
    }
    procBoundary25to31
    {
        type            processor;
        value           nonuniform List<vector> 8((3 -6.792886725e-11 0) (3 -2.054129127e-10 0) (3 9.10521642e-16 0) (3 -6.792886725e-11 0) (3 -4.416039616e-14 0) (3 -5.961093544e-16 0) (3 -1.15445885e-16 0) (3 -5.387146615e-16 0));
    }
}


// ************************************************************************* //
