/*--------------------------------*- C++ -*----------------------------------*\
  =========                 |
  \\      /  F ield         | OpenFOAM: The Open Source CFD Toolbox
   \\    /   O peration     | Website:  https://openfoam.org
    \\  /    A nd           | Version:  7
     \\/     M anipulation  |
\*---------------------------------------------------------------------------*/
FoamFile
{
    version     2.0;
    format      ascii;
    class       volScalarField;
    location    "4.6";
    object      p;
}
// * * * * * * * * * * * * * * * * * * * * * * * * * * * * * * * * * * * * * //

dimensions      [1 -1 -2 0 0 0 0];

internalField   nonuniform List<scalar> 
2223
(
0.8489050945
0.8383768315
0.8156262
0.7937578264
0.7871441658
0.7761830484
0.7552398786
0.7437245902
0.7355111319
0.7184058323
0.7033856371
0.6971427097
0.6873079143
0.6714502795
0.665358251
0.661203672
0.6504894596
0.640234107
0.6352962366
0.6275816596
0.6153931483
0.6092590173
0.6044425597
0.5947814083
0.5886408736
0.5871651165
1.002783161
0.9632321488
0.9431961292
0.9292198403
0.8995809355
0.8756481013
0.8650498703
0.8456937033
0.8192358018
0.8086133016
0.7970363898
0.7739824364
0.7611778804
0.7551254181
0.7418549645
0.725221266
0.7175938663
0.7085122485
0.6907837027
0.6817124469
0.6763285018
0.6653863797
0.6538839953
0.6503466271
0.6452133368
0.6339956315
0.6264648893
0.6215195701
0.612443027
0.600621872
0.5961375262
1.03762445
0.9998881318
0.9719743972
0.9575612181
0.9305791637
0.9013324846
0.8898052125
0.8734784651
0.8456548337
0.8320712225
0.821769467
0.799475395
0.7827787589
0.7755990081
0.762510505
0.7433029703
0.7354508872
0.7282731974
0.7124778122
0.7003010041
0.69411277
0.6835897126
0.6691673692
0.6637861986
0.6582264506
0.6461502892
0.6390985606
0.636240427
0.6300130938
0.6199894818
0.6132333508
1.069340992
1.036568508
1.002747809
0.986719653
0.9628498346
0.9290338888
0.9145094049
0.899836359
0.8711919598
0.8544900177
0.8454149288
0.8261851559
0.8056679088
0.796661829
0.7845373387
0.7631892492
0.752716909
0.7454478511
0.7300441891
0.7168620956
0.7122353438
0.7044103399
0.6901367437
0.68161515
0.6752292106
0.6626090316
0.6523830603
0.6484353424
0.6418360246
0.6309964279
0.6264871163
1.10167727
1.071571637
1.032313118
1.014280393
0.9946413518
0.9605575361
0.9414921717
0.9274308021
0.899647063
0.877745715
0.8676035434
0.8496129444
0.8259100117
0.8172208992
0.8079410054
0.7880339328
0.7743796844
0.7662951877
0.7513340304
0.734580012
0.7281065052
0.7199189271
0.7041109123
0.6956836655
0.69129592
0.6817449916
0.6702294617
0.6647161592
0.6584542874
0.6457377484
0.638795576
1.133717741
1.107759859
1.067287498
1.043155826
1.024090698
0.9900830337
0.9666636619
0.9537972854
0.9293693539
0.9033161358
0.8918218619
0.8757946202
0.8491333784
0.8371440522
0.8277017852
0.8076085939
0.791961104
0.7853185391
0.773732778
0.7561366994
0.7474032543
0.7393042037
0.7223925788
0.7112028317
0.7060417536
0.69656619
0.6837534177
0.679081439
0.6747163091
0.6640273774
0.6546869711
1.165264374
1.140838876
1.102702531
1.073416463
1.054822869
1.022670323
0.9928733198
0.9791740708
0.9575103924
0.9282730512
0.9156006525
0.9020086618
0.8756926173
0.859525792
0.8497404749
0.8301081734
0.8108498169
0.8039386525
0.7935620391
0.7747512396
0.7651397329
0.7584434801
0.7439056223
0.729849177
0.7232249984
0.7140885785
0.6987562088
0.6921715976
0.6872558146
0.6763032243
0.6662868424
1.198672889
1.173780719
1.137853063
1.102511428
1.083747452
1.056221121
1.022550988
1.006215176
0.9862556687
0.9536776391
0.9378926528
0.9257308134
0.9004924641
0.8810974994
0.8721103231
0.8556649693
0.8334867009
0.8237826731
0.8134582166
0.7929084766
0.7808522957
0.7745539765
0.7615234259
0.7461455467
0.7404885122
0.7337574637
0.7194147759
0.709565901
0.7037150775
0.6927293038
0.6795099117
1.231549304
1.205343536
1.174191135
1.135298375
1.113113968
1.087624739
1.050684641
1.0318703
1.015083361
0.9833363246
0.9625989646
0.9504930072
0.9266746306
0.9026350886
0.892955953
0.8784870561
0.8544016858
0.8433747703
0.8349633979
0.816258832
0.8008962121
0.7936599773
0.781392851
0.763175797
0.7558943081
0.7491862601
0.7342256635
0.7229238422
0.7187686338
0.7111457912
0.6976426554
1.265940569
1.235922061
1.207586087
1.168188628
1.142605253
1.120028271
1.082608816
1.057876694
1.041762055
1.011939264
0.986470767
0.9748479631
0.9545019569
0.9266769021
0.9147462499
0.9017510807
0.8761357579
0.861874209
0.8540522821
0.8370878874
0.8188995726
0.811855519
0.802172393
0.7836753316
0.7734337869
0.7665780717
0.7515951062
0.7369185192
0.7325982177
0.7261604664
0.7121140143
1.299763582
1.26672274
1.240092803
1.202078522
1.170934261
1.149956967
1.116133087
1.085974647
1.069406009
1.042017873
1.010287081
0.9975641067
0.9806993883
0.9513726491
0.9368856234
0.9257686526
0.901824803
0.8826796443
0.8739849697
0.8582779415
0.836375166
0.8289108776
0.821170178
0.8032472329
0.7907314092
0.7848222007
0.772819772
0.7554452093
0.7484839237
0.7421709154
0.7271261453
1.331602106
1.296833255
1.270275773
1.236839304
1.201303087
1.179207009
1.148517265
1.112970501
1.095556948
1.073104078
1.038647532
1.021745198
1.006410365
0.9761805272
0.9572118286
0.9474414015
0.9266049366
0.9034599439
0.8944398678
0.8817678108
0.8583523344
0.847091726
0.839282225
0.8214049626
0.8051235324
0.799825906
0.7906364129
0.7725704298
0.7644367999
0.7599511947
0.748097001
1.360157232
1.32730037
1.299027232
1.269346257
1.231846393
1.20744485
1.181521919
1.143647693
1.121482412
1.101502046
1.066851467
1.045270392
1.032008749
1.004849111
0.9795687109
0.9691983922
0.9513199264
0.9243517555
0.9137001764
0.9032996089
0.8805652112
0.8655054719
0.8585729707
0.8436841875
0.8235960701
0.8165967934
0.8087401583
0.7902559881
0.7787302235
0.7746970756
0.7650089053
1.38441603
1.356006424
1.326780365
1.300097153
1.26417315
1.234704953
1.211381215
1.175619479
1.148082257
1.129812291
1.097709761
1.068757646
1.055503954
1.032842625
1.002953681
0.9909825574
0.9765646729
0.948354344
0.9332552681
0.9237849184
0.9025717595
0.8825504225
0.8760771954
0.8646694085
0.8431750871
0.8334334966
0.8269699836
0.8110128198
0.7946674013
0.7891229867
0.7810012196
1.404661626
1.381644525
1.353425103
1.32782206
1.296388581
1.263137345
1.239801419
1.207780244
1.174139384
1.155907339
1.129637193
1.09581018
1.079584153
1.060176477
1.027020349
1.011177277
0.9996797061
0.9739993615
0.953585943
0.9448214972
0.9274743398
0.9028877666
0.893758494
0.8838478741
0.8618248429
0.8486895525
0.8437713809
0.8317844307
0.8132396377
0.8055716407
0.7987812083
1.420821774
1.402841099
1.378544826
1.353375786
1.326157114
1.292073461
1.266540658
1.239593394
1.203383908
1.181218884
1.158835105
1.123419043
1.102797106
1.086940113
1.056012681
1.032891312
1.021606856
0.9991958419
0.9730798589
0.9640058493
0.9507634317
0.9250751231
0.9122003209
0.9038058668
0.8843264679
0.8654985977
0.8593503436
0.8492789231
0.8300708864
0.820133861
0.8141538252
1.433075354
1.419487709
1.400348318
1.376814425
1.352812705
1.32182804
1.292645033
1.268273826
1.233956521
1.206467148
1.186812297
1.154230317
1.126280438
1.111065999
1.084776347
1.055652351
1.043500774
1.025603293
0.9958282086
0.9829860048
0.9720749452
0.9476762945
0.9300322446
0.9225149187
0.9071397099
0.8853052453
0.8763387022
0.867407112
0.8493092767
0.8361265042
0.8292859764
1.441569112
1.43191366
1.41781557
1.397868874
1.375953016
1.349675359
1.319261289
1.295065468
1.265034777
1.232164816
1.212154811
1.185180354
1.152362052
1.135027276
1.112980926
1.079688802
1.064055171
1.049839064
1.021434191
1.003012157
0.9930551762
0.9720549425
0.9490341714
0.9401294458
0.9272954845
0.9046205586
0.8930544965
0.8851975782
0.8698275144
0.8545297441
0.8458060216
1.446966453
1.440627048
1.430660873
1.415506494
1.396173667
1.374148479
1.345718997
1.320046963
1.294429087
1.260749207
1.236836815
1.213566526
1.179300864
1.158050555
1.139995974
1.108246288
1.086068721
1.07245427
1.046715854
1.022481313
1.012688269
0.996242371
0.9709853809
0.9590335917
0.9475674708
0.9257932517
0.9105060512
0.9018761976
0.8873840757
0.8712973173
0.8629512155
1.449856038
1.44627186
1.439674282
1.429003922
1.413276374
1.39472695
1.370845957
1.344431124
1.320773697
1.289836476
1.261641381
1.240413678
1.2088411
1.181447832
1.164240803
1.136415061
1.108988463
1.09502034
1.073524347
1.044854043
1.032118684
1.01789605
0.9926250154
0.9775703293
0.9671822176
0.947922686
0.9299834939
0.9201277714
0.9057507998
0.8868353836
0.8784022093
1.451136991
1.44937662
1.445565151
1.438533488
1.42698736
1.411666298
1.392512517
1.368030246
1.345009812
1.318178367
1.287287168
1.265103871
1.237815319
1.206635934
1.188084267
1.164165325
1.132917726
1.116580077
1.09864794
1.069810815
1.05289188
1.039486894
1.015224398
0.9964495505
0.9858790458
0.9681969675
0.9485070698
0.9387663191
0.9262884811
0.9052329851
0.8940960014
1.451736903
1.45091625
1.449058829
1.444852305
1.437139458
1.425336584
1.410227601
1.38968595
1.367247443
1.343847505
1.314034841
1.289394521
1.265050375
1.232611502
1.210977564
1.190628242
1.15979162
1.139136561
1.122238616
1.094239603
1.073446756
1.060622363
1.038895676
1.017048973
1.00550141
0.9889182906
0.9662439068
0.9558437844
0.9456517445
0.9246091372
0.9090025012
1.452100507
1.451767797
1.450893973
1.448539919
1.443841087
1.435668945
1.424056007
1.408043043
1.387694552
1.366580075
1.339877441
1.313329134
1.290739405
1.260348776
1.234353974
1.214882971
1.186142554
1.161877634
1.145691485
1.120368188
1.095557137
1.081480055
1.061183388
1.036696072
1.024869522
1.010872537
0.9863642347
0.972884273
0.9643909624
0.9461690468
0.9245788683
1.452226876
1.452281522
1.45164697
1.450450835
1.447871355
1.442850523
1.434520933
1.42251307
1.405623659
1.386618413
1.363817788
1.337162311
1.314561936
1.287419769
1.258781556
1.238737543
1.212629266
1.184892914
1.167934132
1.145526889
1.118656862
1.103299156
1.084826373
1.057289632
1.04307076
1.031415843
1.00799497
0.989474534
0.9818209801
0.9683916709
0.9454197574
1.449114418
1.451582286
1.451943087
1.451376931
1.450081746
1.447344766
1.44201649
1.43339572
1.420415577
1.403876203
1.38464237
1.360324682
1.337385966
1.313047673
1.283688731
1.261832932
1.238485719
1.209420646
1.190444616
1.169914357
1.141226718
1.123949077
1.108209042
1.080976758
1.062037913
1.051301104
1.031215711
1.007139293
0.9973223679
0.9870980435
0.968330209
1.440175772
1.448863072
1.451563897
1.45170359
1.451153521
1.449913771
1.446991432
1.441255121
1.43190212
1.418476537
1.402290582
1.381488607
1.358966602
1.336815521
1.309198487
1.285043032
1.263048341
1.233914009
1.212397563
1.194082422
1.165848454
1.144540475
1.130102133
1.105519211
1.081247539
1.069919226
1.054392773
1.029829452
1.013976088
1.003035066
0.9880342648
1.439183889
1.448904553
1.4484572
1.451028633
1.451512674
1.451314907
1.450053732
1.446629617
1.440270957
1.430181538
1.4168713
1.399876617
1.379188276
1.358452044
1.333576429
1.308203398
1.287005944
1.259515592
1.234159786
1.216584996
1.191026274
1.165434759
1.150969683
1.130756232
1.103301847
1.087761393
1.074167486
1.053326151
1.034226996
1.019726352
1.004792915
1.432463595
1.434056692
1.439825721
1.448568768
1.451690193
1.45188377
1.451425118
1.449845556
1.446019293
1.43907209
1.428672646
1.415058951
1.397363145
1.378211454
1.356386918
1.331050991
1.309546136
1.285002378
1.257116847
1.238242296
1.216117153
1.187375992
1.170076753
1.153570473
1.128524339
1.108183495
1.092809733
1.073835815
1.055531484
1.039043338
1.020524744
1.374089965
1.405080946
1.438340068
1.448593887
1.448636823
1.451374634
1.451806565
1.451204848
1.449316481
1.44512793
1.437834653
1.427338029
1.413010364
1.395776973
1.376797008
1.353427288
1.331113283
1.309072744
1.281125339
1.258990461
1.239748093
1.212524652
1.190023027
1.173478386
1.151622093
1.130276916
1.112820864
1.093182432
1.075982327
1.06108654
1.039777254
1.270800739
1.381839613
1.431998944
1.433698744
1.440189886
1.449013655
1.451628904
1.451648968
1.450754936
1.448861314
1.444519061
1.436979821
1.425977254
1.411256846
1.394576696
1.374245714
1.351749411
1.331125144
1.306046627
1.280552891
1.260951925
1.237194198
1.212267321
1.19348742
1.172806213
1.152129771
1.134403253
1.112750626
1.093557167
1.081386473
1.064180113
1.158493641
1.293232695
1.374132219
1.405413257
1.43806533
1.449180937
1.448540175
1.45043766
1.451072145
1.450499211
1.448523418
1.443956782
1.436192578
1.424538587
1.409903347
1.392712776
1.371664446
1.351078906
1.329170028
1.303689487
1.281980025
1.260016358
1.235438416
1.214671737
1.193183385
1.172187581
1.156189523
1.135830198
1.111134891
1.097557347
1.085597767
1.06207577
1.157337513
1.269542923
1.380811873
1.432154123
1.434170357
1.440236103
1.447928774
1.450797267
1.450861985
1.450300156
1.448422937
1.443739966
1.435365368
1.423156846
1.408416735
1.390215036
1.370024408
1.349812029
1.326472152
1.303584531
1.281748286
1.258071461
1.23720237
1.215388482
1.190905749
1.174530058
1.15882125
1.134220017
1.113634987
1.102526245
1.015607977
1.055595192
1.156926708
1.290681342
1.374525805
1.405029064
1.436893169
1.448361282
1.447656595
1.44944749
1.45069421
1.450389405
1.448298484
1.443067503
1.434097712
1.421772246
1.406431611
1.387959228
1.368681947
1.347530869
1.325269584
1.303521382
1.279510604
1.258259832
1.238928977
1.213551907
1.191536269
1.177549699
1.158368456
1.13337305
1.11774531
1.002520383
1.013058957
1.060890496
1.15512651
1.267828061
1.378737291
1.431697146
1.433973034
1.439367021
1.447080969
1.450767615
1.450995196
1.450181487
1.44776223
1.442323596
1.433028344
1.420358253
1.404423917
1.386476435
1.366786896
1.345499318
1.325011219
1.301933175
1.278120501
1.259767361
1.238324679
1.211950214
1.194319107
1.179207896
1.157199264
1.134749563
1.000266611
1.002029979
1.015189195
1.054312216
1.154412399
1.287146946
1.375288333
1.404973541
1.434345883
1.447926372
1.44824012
1.449602003
1.45042725
1.449846571
1.447334544
1.441419675
1.431895994
1.418851864
1.402953551
1.385021459
1.364429708
1.344381805
1.323994976
1.299560121
1.27872899
1.260536669
1.236174907
1.212381698
1.196504818
1.179639931
1.157816779
1.000019215
1.000212996
1.002437223
1.012694161
1.059312941
1.152933929
1.266485202
1.376599781
1.430611167
1.4343995
1.439671314
1.446536392
1.449966247
1.450260259
1.449371162
1.446602024
1.440716502
1.431053549
1.41761307
1.401800432
1.383046195
1.362592716
1.343675639
1.321734195
1.298198814
1.279659964
1.259758001
1.235301835
1.214057882
1.197171635
1.179889697
1.000000959
1.000015633
1.000258241
1.001967944
1.014771808
1.053192218
1.152587371
1.284199862
1.377132762
1.405936594
1.430609704
1.447437227
1.447594459
1.448139521
1.449278123
1.448922694
1.44639943
1.440255445
1.430049
1.416521028
1.400387696
1.380807185
1.361502125
1.342185466
1.319416066
1.29812097
1.279260557
1.258448771
1.236126387
1.214900092
1.197551649
1.000000034
1.000000823
1.000018668
1.000206632
1.00236734
1.012430035
1.0581197
1.151551782
1.265968296
1.374188531
1.429496395
1.436109515
1.43871064
1.444297516
1.448340571
1.449235919
1.448695146
1.445882967
1.439398056
1.42893064
1.41538386
1.398512776
1.379233426
1.360418716
1.340059815
1.31844516
1.297807588
1.277823986
1.258340874
1.236437889
1.214558753
1.000000001
1.000000032
1.000000929
1.000015042
1.000251131
1.001920406
1.014440428
1.052395712
1.150928102
1.280641837
1.379596103
1.406763266
1.426940578
1.445414586
1.446757107
1.447127211
1.448166984
1.448107716
1.445267239
1.43846648
1.427808326
1.414004986
1.39690689
1.378249615
1.358735372
1.338542201
1.317851785
1.296128046
1.277350695
1.258859421
1.234995668
1
1.000000001
1.000000032
1.000000777
1.000018075
1.000200772
1.00229999
1.012219395
1.05680267
1.149578299
1.265784108
1.370429931
1.428367318
1.437770564
1.438871175
1.443210045
1.447235117
1.447987607
1.447565989
1.444455083
1.437332592
1.426621425
1.412503594
1.395740142
1.376905483
1.357178444
1.33799348
1.316083009
1.294552802
1.277966574
1.258163215
1
1
1.000000001
1.00000003
1.000000895
1.000014444
1.000243599
1.001875152
1.014073149
1.051319394
1.148795606
1.277373735
1.38135736
1.407385714
1.425869079
1.44443802
1.446795556
1.446615937
1.446699883
1.446581164
1.443544418
1.436420841
1.425418082
1.41135616
1.39465491
1.375220434
1.356481394
1.33689807
1.313721219
1.294415239
1.277877276
1
1
1
1.000000001
1.000000031
1.000000736
1.00001748
1.000195879
1.002227243
1.011973555
1.055327937
1.147860722
1.266658216
1.366741815
1.425808312
1.439327138
1.440072744
1.443197982
1.446154216
1.446246266
1.445924453
1.44283257
1.435540283
1.424316111
1.410294829
1.392953677
1.373877188
1.355759361
1.334909922
1.312643283
1.294656976
1
1
1
1
1.000000001
1.000000028
1.000000866
1.000013994
1.000236428
1.001832496
1.013711093
1.050501918
1.14730501
1.275484831
1.380844266
1.407705315
1.426566557
1.444352583
1.446808662
1.445841175
1.445511849
1.445097256
1.442074936
1.434499619
1.423044646
1.40873114
1.391166821
1.372946787
1.354417994
1.333182974
1.312379166
1
1
1
1
1
1.000000001
1.00000003
1.000000703
1.000016915
1.000191977
1.002161412
1.011789979
1.054024167
1.146758316
1.266726222
1.363183096
1.423088394
1.440068236
1.440576022
1.44296202
1.445549731
1.445250885
1.444823503
1.441213103
1.433130847
1.421481603
1.406798478
1.38960989
1.371774253
1.352820145
1.332374462
1
1
1
1
1
1
1.000000001
1.000000026
1.000000834
1.000013593
1.000229529
1.001793182
1.013320314
1.049940143
1.145055617
1.273765236
1.379767718
1.406629063
1.426025419
1.443830675
1.446658533
1.445593512
1.444948505
1.444253521
1.440076421
1.431496357
1.419589151
1.405009459
1.388207304
1.370234621
1.351827905
1.331522434
1
1
1
1
1
1
1
1.000000001
1.000000029
1.000000671
1.000016284
1.000187742
1.002088328
1.011619059
1.052509978
1.14524946
1.266395146
1.359840974
1.421519417
1.439528212
1.440228897
1.443142287
1.446009647
1.445071017
1.443250868
1.438759494
1.430172938
1.418196603
1.403519927
1.386492793
1.368816942
1.350934267
1
1
1
1
1
1
1
1
1.000000001
1.000000024
1.000000801
1.000013201
1.000222637
1.001752917
1.012864952
1.049366469
1.14225644
1.273181466
1.380026334
1.40456283
1.42435934
1.443608455
1.446550472
1.445455523
1.4441713
1.442365576
1.437621354
1.428729346
1.416475099
1.40175084
1.384774367
1.367708863
1
1
1
1
1
1
1
1
1
1.000000001
1.000000027
1.000000647
1.000015693
1.000183488
1.002006899
1.011451327
1.05107723
1.14451416
1.266639467
1.355725974
1.419809518
1.439479087
1.440028997
1.442448234
1.445227413
1.444538675
1.442046391
1.436752994
1.42750329
1.41515568
1.400095849
1.383212209
1
1
1
1
1
1
1
1
1
1
1.000000001
1.000000022
1.000000768
1.000012798
1.000214866
1.001718873
1.012411358
1.049283655
1.139558467
1.271526956
1.381259989
1.403810322
1.422691023
1.441891231
1.445266739
1.444549391
1.443807101
1.441595843
1.436025589
1.426382849
1.41355555
1.398244747
1
1
1
1
1
1
1
1
1
1
1
1.000000001
1.000000026
1.000000621
1.000015075
1.000179245
1.001928996
1.011359215
1.04966036
1.143639425
1.266870052
1.352361445
1.418563664
1.438361947
1.438363109
1.441067231
1.444445595
1.444109344
1.441382595
1.43521721
1.425145742
1.412139828
1
1
1
1
1
1
1
1
1
1
1
1
1.000000001
1.000000021
1.000000734
1.000012392
1.000206937
1.001695508
1.011929449
1.049343304
1.136531789
1.268825545
1.383322929
1.404097601
1.420029008
1.439586154
1.444487216
1.444195435
1.443616062
1.440828596
1.434305177
1.424008422
1
1
1
1
1
1
1
1
1
1
1
1
1
1
1.000000024
1.000000599
1.00001451
1.000175815
1.001852647
1.011266087
1.048123589
1.142391888
1.267852781
1.349238826
1.416662608
1.436408631
1.437478344
1.440637853
1.44371257
1.443427224
1.44036175
1.433460931
1
1
1
1
1
1
1
1
1
1
1
1
1
1
1.000000001
1.00000002
1.000000708
1.000012064
1.000199057
1.0016744
1.011400286
1.049361577
1.134280878
1.265363181
1.384298943
1.404918683
1.419480067
1.437321745
1.443437336
1.443107176
1.442321854
1.43930973
1
1
1
1
1
1
1
1
1
1
1
1
1
1
1
1
1.000000023
1.00000058
1.00001397
1.000172254
1.001772982
1.011164441
1.046722944
1.141183233
1.268527667
1.346358666
1.414316868
1.436285911
1.436613032
1.439025193
1.442171055
1.441989022
1
1
1
1
1
1
1
1
1
1
1
1
1
1
1
1
1.000000001
1.000000019
1.00000068
1.000011716
1.000190155
1.001652476
1.010868573
1.049458657
1.132897206
1.261504557
1.383412322
1.408863853
1.420158751
1.433920075
1.441721659
1.441781647
1
1
1
1
1
1
1
1
1
1
1
1
1
1
1
1
1
1
1.000000022
1.000000558
1.000013366
1.000168006
1.001691505
1.011136876
1.045491235
1.13971444
1.268360806
1.344682053
1.412165082
1.435123611
1.435420556
1.437367787
1
1
1
1
1
1
1
1
1
1
1
1
1
1
1
1
1
1
1
1.000000018
1.000000652
1.000011378
1.000180999
1.001644612
1.010330343
1.049325388
1.131548746
1.257735513
1.380496898
1.412094664
1.421393508
1.431822189
1
1
1
1
1
1
1
1
1
1
1
1
1
1
1
1
1
1
1
1
1.000000021
1.000000541
1.000012826
1.000164556
1.001599752
1.01106802
1.044284593
1.138092905
1.266308683
1.342355575
1.411095878
1.434076074
1
1
1
1
1
1
1
1
1
1
1
1
1
1
1
1
1
1
1
1
1
1.000000017
1.00000063
1.00001109
1.000170568
1.001632804
1.009857623
1.048826216
1.129996495
1.254033491
1.377930545
1.413799038
1
1
1
1
1
1
1
1
1
1
1
1
1
1
1
1
1
1
1
1
1
1
1.00000002
1.000000526
1.000012254
1.000161463
1.001517456
1.01093261
1.04327529
1.136629295
1.26468106
1.339773458
1
1
1
1
1
1
1
1
1
1
1
1
1
1
1
1
1
1
1
1
1
1
1
1.000000017
1.000000609
1.000010854
1.000160923
1.001615311
1.009509159
1.048329045
1.128834832
1.250621667
1
1
1
1
1
1
1
1
1
1
1
1
1
1
1
1
1
1
1
1
1
1
1
1
1.00000002
1.000000512
1.00001167
1.000158375
1.00144487
1.0108439
1.042332373
1.13488266
1
1
1
1
1
1
1
1
1
1
1
1
1
1
1
1
1
1
1
1
1
1
1
1
1
1.000000016
1.000000582
1.000010601
1.000150824
1.001607428
1.009125034
1.047678022
1
1
1
1
1
1
1
1
1
1
1
1
1
1
1
1
1
1
1
1
1
1
1
1
1
1
1.000000019
1.000000494
1.00001098
1.000156172
1.001356878
1.010721786
1
1
1
1
1
1
1
1
1
1
1
1
1
1
1
1
1
1
1
1
1
1
1
1
1
1
1
1.000000016
1.000000549
1.000010368
1.000138852
1.001600482
1
1
1
1
1
1
1
1
1
1
1
1
1
1
1
1
1
1
1
1
1
1
1
1
1
1
1
1
1.000000018
1.000000478
1.000010112
1.000156509
1
1
1
1
1
1
1
1
1
1
1
1
1
1
1
1
1
1
1
1
1
1
1
1
1
1
1
1
1
1.000000015
1.00000051
1.000010396
1
1
1
1
1
1
1
1
1
1
1
1
1
1
1
1
1
1
1
1
1
1
1
1
1
1
1
1
1
1
1.000000017
1.000000471
1
1
1
1
1
1
1
1
1
1
1
1
1
1
1
1
1
1
1
1
1
1
1
1
1
1
1
1
1
1
1
1.000000015
1
1
1
1
1
1
1
1
1
1
1
1
1
1
1
1
1
1
1
1
1
1
1
1
1
1
1
1
1
1
1
1
1
1
1
1
1
1
1
1
1
1
1
1
1
1
1
1
1
1
1
1
1
1
1
1
1
1
1
1
1
1
1
1
)
;

boundaryField
{
    inlet
    {
        type            fixedValue;
        value           nonuniform 0();
    }
    outlet
    {
        type            zeroGradient;
    }
    bottom
    {
        type            slip;
    }
    top
    {
        type            slip;
    }
    obstacle
    {
        type            zeroGradient;
    }
    defaultFaces
    {
        type            empty;
    }
    procBoundary34to27
    {
        type            processor;
        value           nonuniform List<scalar> 9(1.026192728 1.057968407 1.08923587 1.124841982 1.160257907 1.197781144 1.235479901 1.270975649 1.304650591);
    }
    procBoundary34to28
    {
        type            processor;
        value           nonuniform List<scalar> 
32
(
0.8243254593
0.814045716
0.7904380206
0.7727359841
0.7650955954
0.7510488152
0.730346567
0.7218226272
0.7136240357
0.696083004
0.6851141786
0.6805055528
0.6708472518
0.6568506771
0.6500864274
0.6436482034
0.6300868802
0.6225409954
0.6185693701
0.6109670858
0.6006574868
0.5976406846
0.5923440236
0.5833899256
0.5803747247
0.5801761965
0.9689332607
0.9326332421
0.9168475056
0.9001616011
0.8675272926
0.8675272926
)
;
    }
    procBoundary34to29
    {
        type            processor;
        value           uniform 0.5831187469;
    }
    procBoundary34to33
    {
        type            processor;
        value           nonuniform List<scalar> 
61
(
1.334844881
1.362138463
1.385991572
1.406306345
1.422604363
1.4345958
1.442520581
1.4473909
1.450285106
1.451500942
1.452010727
1.452315811
1.451851973
1.449698509
1.449330073
1.433909424
1.40567494
1.382665832
1.295074589
1.158870264
1.056590083
1.013383281
1.002098145
1.000221628
1.000016352
1.000000865
1.000000034
1.000000001
1
1
1
1
1
1
1
1
1
1
1
1
1
1
1
1
1
1
1
1
1
1
1
1
1
1
1
1
1
1
1
1
1
)
;
    }
    procBoundary34to35
    {
        type            processor;
        value           nonuniform List<scalar> 
71
(
0.5904694695
0.6077044807
0.6229025747
0.6344997107
0.650344463
0.6635895769
0.6754243557
0.6911019052
0.7047927524
0.7162697292
0.7333893563
0.748458191
0.7636979587
0.7840235811
0.8025554424
0.8186810403
0.8345183913
0.8526841039
0.8698637785
0.8870143668
0.9032354952
0.9173629816
0.9323204758
0.9505749064
0.9709959984
0.9906308109
1.007008697
1.020542482
1.038536495
1.063411154
1.086935464
1.105801902
1.120506958
1.136820661
1.159014948
1.181021395
1.199138846
1.214813165
1.233682185
1.256305538
1.276559899
1.293852386
1.311465341
1.311465341
1.310203864
1.330280522
1.349818836
1.366504247
1.381665038
1.396668052
1.410664736
1.422767437
1.432409282
1.439019176
1.441160842
1.440761978
1.439926414
1.434361655
1.422343242
1.410012009
1.376189482
1.263690409
1.127764186
1.041545176
1.008867464
1.001300906
1.000130571
1.000009289
1.000000457
1.000000015
1
)
;
    }
}


// ************************************************************************* //
