/*--------------------------------*- C++ -*----------------------------------*\
  =========                 |
  \\      /  F ield         | OpenFOAM: The Open Source CFD Toolbox
   \\    /   O peration     | Website:  https://openfoam.org
    \\  /    A nd           | Version:  7
     \\/     M anipulation  |
\*---------------------------------------------------------------------------*/
FoamFile
{
    version     2.0;
    format      ascii;
    class       volScalarField;
    location    "3.8";
    object      p;
}
// * * * * * * * * * * * * * * * * * * * * * * * * * * * * * * * * * * * * * //

dimensions      [1 -1 -2 0 0 0 0];

internalField   nonuniform List<scalar> 5(1.02530419 1.009476158 1.027697457 1.010069749 1.027499378);

boundaryField
{
    inlet
    {
        type            fixedValue;
        value           nonuniform 0();
    }
    outlet
    {
        type            zeroGradient;
    }
    bottom
    {
        type            slip;
    }
    top
    {
        type            slip;
    }
    obstacle
    {
        type            zeroGradient;
    }
    defaultFaces
    {
        type            empty;
    }
    procBoundary29to22
    {
        type            processor;
        value           nonuniform List<scalar> 3(1.058659607 1.055741694 1.046889575);
    }
    procBoundary29to23
    {
        type            processor;
        value           nonuniform List<scalar> 2(1.025559887 1.009434049);
    }
    procBoundary29to35
    {
        type            processor;
        value           nonuniform List<scalar> 3(1.010251511 1.010251511 1.029259657);
    }
}


// ************************************************************************* //
