/*--------------------------------*- C++ -*----------------------------------*\
  =========                 |
  \\      /  F ield         | OpenFOAM: The Open Source CFD Toolbox
   \\    /   O peration     | Website:  https://openfoam.org
    \\  /    A nd           | Version:  7
     \\/     M anipulation  |
\*---------------------------------------------------------------------------*/
FoamFile
{
    version     2.0;
    format      ascii;
    class       volScalarField;
    location    "4.9";
    object      p;
}
// * * * * * * * * * * * * * * * * * * * * * * * * * * * * * * * * * * * * * //

dimensions      [1 -1 -2 0 0 0 0];

internalField   nonuniform List<scalar> 
555
(
1.558350949
1.534368201
1.513484363
1.501449457
1.491101843
1.480420507
1.472264056
1.46770554
1.462666263
1.454608942
1.450021454
1.44870092
1.447004971
1.443959717
1.439876253
1.438926059
1.439161138
1.437743963
1.558351735
1.534369199
1.513484178
1.501448346
1.491101347
1.480420687
1.472264076
1.467705522
1.462666596
1.45460946
1.450021152
1.448700629
1.447004822
1.443959838
1.439876363
1.438925813
1.439161071
1.437744255
1.436297669
1.43629239
1.437171635
1.439374399
1.441890528
1.443819765
1.445502759
1.447585835
1.450690954
1.453564013
1.455453189
1.456266145
1.457151612
1.45719835
1.456718527
1.450908217
1.463343515
1.481854599
1.494470204
1.495605007
1.492215732
1.48910166
1.487931048
1.48567785
1.48063617
1.474689169
1.471381623
1.468560575
1.464911628
1.459074163
1.453432693
1.452380194
1.451600975
1.450115715
1.448952129
1.44877225
1.449419623
1.45056706
1.450598919
1.449920493
1.449156642
1.44924514
1.44928459
1.449052066
1.44931096
1.449822087
1.449932201
1.450065409
1.408256888
1.429847624
1.451853219
1.474329137
1.481453016
1.488625418
1.491978441
1.490978166
1.490367206
1.489416372
1.486962165
1.48406358
1.481936158
1.478693231
1.474287542
1.468267552
1.463444417
1.461876716
1.461606912
1.460292025
1.457619765
1.455394419
1.454407561
1.452695244
1.449572567
1.445617767
1.443374851
1.443053135
1.442471615
1.442661905
1.443527658
1.44518082
1.447897443
1.197655403
1.24438976
1.289211914
1.335255338
1.366530614
1.398506118
1.432185619
1.440819849
1.450383516
1.45956916
1.461996819
1.466185416
1.474575526
1.481108887
1.4830824
1.48536631
1.488150713
1.487954226
1.486152996
1.482770686
1.479002659
1.475602146
1.472240174
1.4684185
1.462913787
1.456677922
1.452051729
1.450027202
1.448962955
1.447566958
1.447134819
1.447853236
1.448969854
1.039175907
1.063624938
1.09237525
1.132187771
1.177802062
1.222263151
1.274351221
1.31974248
1.358564721
1.40290317
1.427984029
1.447118386
1.46786579
1.476321915
1.47918797
1.48529436
1.488228259
1.487702085
1.486105387
1.482790061
1.477659257
1.472197861
1.46849515
1.466659033
1.465555775
1.464301423
1.463294337
1.462048527
1.460514845
1.458573408
1.456014033
1.45383386
1.452711255
1.002017752
1.004488303
1.009004637
1.017010826
1.030727085
1.049401426
1.076926198
1.115327286
1.152794384
1.199516466
1.25288101
1.295234223
1.34048123
1.37133888
1.393315321
1.421529762
1.438704242
1.44459508
1.453728834
1.457433774
1.457844324
1.462339213
1.471508209
1.473389314
1.474472278
1.477200971
1.479798255
1.479570311
1.477777884
1.474714525
1.471124057
1.46729746
1.464696683
1.000019819
1.000063108
1.000186885
1.000502815
1.00128943
1.003010408
1.006317938
1.012904621
1.023510609
1.039673224
1.065418234
1.09613438
1.133743344
1.181849577
1.228108424
1.276668466
1.321343106
1.354642574
1.391334362
1.426113112
1.442927161
1.456792035
1.469509612
1.471537146
1.473785641
1.477938431
1.479118788
1.478833794
1.477557722
1.473021012
1.466718614
1.461681687
1.462142899
1.000000024
1.000000126
1.000000582
1.000002462
1.000009551
1.000033823
1.000106937
1.000314557
1.000841181
1.002033399
1.004599785
1.009611447
1.018064833
1.032602121
1.05351489
1.081351748
1.120832737
1.162428569
1.202894115
1.253087525
1.299038024
1.339688669
1.375319683
1.395571099
1.411986867
1.431788772
1.440944731
1.447543952
1.453067463
1.45541459
1.4583627
1.463121902
1.467444338
1
1
1
1.000000001
1.000000008
1.000000049
1.000000255
1.000001198
1.000005021
1.000018892
1.000063752
1.000201469
1.00056005
1.001437125
1.00341866
1.007279409
1.014403661
1.026480877
1.043920266
1.070392724
1.104613547
1.142612278
1.187690697
1.235388683
1.282975201
1.327530732
1.360410167
1.387869532
1.416248835
1.441498265
1.45364552
1.462055817
1.464977466
1
1
1
1
1
1
1
1
1.000000003
1.000000021
1.000000121
1.000000629
1.000002811
1.000011309
1.000040821
1.000131914
1.000387714
1.001035732
1.002516894
1.005597768
1.011497337
1.021240968
1.037655068
1.059977965
1.089636762
1.128972769
1.174624524
1.218563166
1.259651622
1.303419989
1.341770596
1.385040551
1.398793173
1
1
1
1
1
1
1
1
1
1
1
1
1.000000001
1.00000001
1.000000064
1.000000343
1.000001654
1.000006991
1.000026901
1.000089709
1.000278519
1.000754527
1.001928289
1.004289585
1.009198055
1.017598345
1.031717544
1.051055051
1.080030836
1.116095867
1.157708105
1.202979857
1.24420916
1
1
1
1
1
1
1
1
1
1
1
1
1
1
1
1
1.000000001
1.000000005
1.000000036
1.000000204
1.000001041
1.000004544
1.00001806
1.000061604
1.000200679
1.0005546
1.001477679
1.003371418
1.007523255
1.014270795
1.027258128
1.045390254
1.066997843
1
1
1
1
1
1
1
1
1
1
1
1
1
1
1
1
1
1
1
1
1
1.000000003
1.00000002
1.000000123
1.000000667
1.000002941
1.000012508
1.000043372
1.000150064
1.000414853
1.001166756
1.002844171
1.004799675
1
1
1
1
1
1
1
1
1
1
1
1
1
1
1
1
1
1
1
1
1
1
1
1
1
1.000000001
1.000000012
1.000000077
1.000000446
1.000002021
1.000008383
1.000056028
1.000020569
1
1
1
1
1
1
1
1
1
1
1
1
1
1
1
1
1
1
1
1
1
1
1
1
1
1
1
1
1
1.000000001
1.000000006
1.000000275
0.9999999751
1
1
1
1
1
1
1
1
1
1
1
1
1
1
1
1
1
1
1
1
1
1
1
1
1
1
1
1
1
1
1
1
0.9999999952
1
1
1
1
1
1
1
1
1
)
;

boundaryField
{
    inlet
    {
        type            fixedValue;
        value           nonuniform 0();
    }
    outlet
    {
        type            zeroGradient;
    }
    bottom
    {
        type            slip;
    }
    top
    {
        type            slip;
    }
    obstacle
    {
        type            zeroGradient;
    }
    defaultFaces
    {
        type            empty;
    }
    procBoundary20to13
    {
        type            processor;
        value           uniform 1.578048815;
    }
    procBoundary20to14
    {
        type            processor;
        value           nonuniform List<scalar> 
19
(
1.450907382
1.463343333
1.481855429
1.494470176
1.495604825
1.492215389
1.489101855
1.487931257
1.485677831
1.480635749
1.474689156
1.471381971
1.468560876
1.464911633
1.459073709
1.453432574
1.452380371
1.451601017
1.436297545
)
;
    }
    procBoundary20to19
    {
        type            processor;
        value           nonuniform List<scalar> 
16
(
1.578048713
1.436427106
1.36852549
1.149053123
1.022970945
1.000879439
1.000005862
1.000000004
1
1
1
1
1
1
1
1
)
;
    }
    procBoundary20to25
    {
        type            processor;
        value           uniform 1;
    }
    procBoundary20to26
    {
        type            processor;
        value           nonuniform List<scalar> 
34
(
1
1
1
1
1
1
1
1
1
1
1
1
1
1
1
1
1
1
1
1
1
1
1
0.9999999998
1
1
1
1
1
1
1
1
1
1
)
;
    }
    procBoundary20to27
    {
        type            processor;
        value           nonuniform List<scalar> 
16
(
1.091427086
1.383404093
1.442436603
1.446876066
1.448903155
1.455462093
1.46172732
1.472246459
1.472467718
1.444547292
1.375373924
1.186950179
1.039308958
1.003362171
1.000125043
1.000002305
)
;
    }
}


// ************************************************************************* //
