/*--------------------------------*- C++ -*----------------------------------*\
  =========                 |
  \\      /  F ield         | OpenFOAM: The Open Source CFD Toolbox
   \\    /   O peration     | Website:  https://openfoam.org
    \\  /    A nd           | Version:  7
     \\/     M anipulation  |
\*---------------------------------------------------------------------------*/
FoamFile
{
    version     2.0;
    format      ascii;
    class       volVectorField;
    location    "4";
    object      U;
}
// * * * * * * * * * * * * * * * * * * * * * * * * * * * * * * * * * * * * * //

dimensions      [0 1 -1 0 0 0 0];

internalField   nonuniform List<vector> 5((3.000991097 0.03305710191 0) (2.969218995 0.08177680651 0) (2.977404967 0.0175613142 0) (2.903539624 0.05305123234 0) (2.928745318 0.01241428958 0));

boundaryField
{
    inlet
    {
        type            fixedValue;
        value           nonuniform 0();
    }
    outlet
    {
        type            inletOutlet;
        inletValue      nonuniform 0();
        value           nonuniform 0();
    }
    bottom
    {
        type            slip;
    }
    top
    {
        type            slip;
    }
    obstacle
    {
        type            slip;
    }
    defaultFaces
    {
        type            empty;
    }
    procBoundary10to4
    {
        type            processor;
        value           uniform (3.008261956 0.07818185192 0);
    }
    procBoundary10to15
    {
        type            processor;
        value           nonuniform List<vector> 4((3.001203499 0.1100288217 0) (3.001203499 0.1100288217 0) (2.865469793 0.2075034899 0) (2.832954855 0.1438046299 0));
    }
    procBoundary10to16
    {
        type            processor;
        value           nonuniform List<vector> 2((2.834174986 0.03077624299 0) (2.891585564 0.006105228858 0));
    }
    procBoundary10to17
    {
        type            processor;
        value           nonuniform List<vector> 3((2.984005494 -0.001246195258 0) (2.967987266 -0.004556108184 0) (2.936195058 -0.001968586357 0));
    }
}


// ************************************************************************* //
