/*--------------------------------*- C++ -*----------------------------------*\
  =========                 |
  \\      /  F ield         | OpenFOAM: The Open Source CFD Toolbox
   \\    /   O peration     | Website:  https://openfoam.org
    \\  /    A nd           | Version:  7
     \\/     M anipulation  |
\*---------------------------------------------------------------------------*/
FoamFile
{
    version     2.0;
    format      ascii;
    class       volScalarField;
    location    "4.8";
    object      T;
}
// * * * * * * * * * * * * * * * * * * * * * * * * * * * * * * * * * * * * * //

dimensions      [0 0 0 1 0 0 0];

internalField   nonuniform List<scalar> 
2222
(
1.893193738
1.869488369
1.846250045
1.82353472
1.801396098
1.779885591
1.759065619
1.739020833
1.719819005
1.701515175
1.684026654
1.667179465
1.65069345
1.634380363
1.618171695
1.602200015
1.586569012
1.571425039
1.556754458
1.542541262
1.528642087
1.515012027
1.501551594
1.488337326
1.475376124
1.46276952
1.450467214
1.438358542
1.426078213
1.414625514
1.403615101
1.392835579
1.894356868
1.870471465
1.847085325
1.824267618
1.802067811
1.78052675
1.759690006
1.739620059
1.720369442
1.701988612
1.684397184
1.667436823
1.650859982
1.634507906
1.618319893
1.602401048
1.586811137
1.5716611
1.556948215
1.542686644
1.5287693
1.515160649
1.501750721
1.488553718
1.475569304
1.462843688
1.45065223
1.438047649
1.428074833
1.417474316
1.406511918
1.39568273
1.897366295
1.873163655
1.849514426
1.826494429
1.804149091
1.782509084
1.76159615
1.741441706
1.722076145
1.703541776
1.685763595
1.668607534
1.651868867
1.635420541
1.619202078
1.60327977
1.587667656
1.572442057
1.557615216
1.54322979
1.529216834
1.51554851
1.502105181
1.488868124
1.475803373
1.463022488
1.450602288
1.438348063
1.426351083
1.414871502
1.403671904
1.392749336
1.902725176
1.878029237
1.853957556
1.830594905
1.807984711
1.786146484
1.765071692
1.744752956
1.725186052
1.706394933
1.688316198
1.670864156
1.653902827
1.637339704
1.621093831
1.605167739
1.589522831
1.57420447
1.559236924
1.544684655
1.5305232
1.51674449
1.503240378
1.489940769
1.476767839
1.463859452
1.451176801
1.439114789
1.426980126
1.415339993
1.404024539
1.392979816
1.908339275
1.883336685
1.859014344
1.835462525
1.812727066
1.790815583
1.769686111
1.749281748
1.729551301
1.710495263
1.692069097
1.674250201
1.656990549
1.640244819
1.623915295
1.607932013
1.592205265
1.576755362
1.561620482
1.546879909
1.532549418
1.51863665
1.505054039
1.491708933
1.478513927
1.465552167
1.452742331
1.440639334
1.428561626
1.416730735
1.405177316
1.393917039
1.912309145
1.88729114
1.863004305
1.839547671
1.816962934
1.795228105
1.774250671
1.753903544
1.734098432
1.714834401
1.696110527
1.677983165
1.66049152
1.64362152
1.627249273
1.611231963
1.595441046
1.57987843
1.564587848
1.549650272
1.535121412
1.521029081
1.507324643
1.493918493
1.48073374
1.467743531
1.454892723
1.442655858
1.430540441
1.418613821
1.406893261
1.39540902
1.914245966
1.889474421
1.865442889
1.842275273
1.820013255
1.798598892
1.777868435
1.757621998
1.73778092
1.718355059
1.699390275
1.681034492
1.663414716
1.646526061
1.6302057
1.614241594
1.598474499
1.582889985
1.567537443
1.552487986
1.53782356
1.523589302
1.509779619
1.496323937
1.483176586
1.4701983
1.457376714
1.444934942
1.432678794
1.420701006
1.408923801
1.397312704
1.914908719
1.890383584
1.86657901
1.843628102
1.821573293
1.800337385
1.779723695
1.759563715
1.739753225
1.7202825
1.701232973
1.682830736
1.665253295
1.648473183
1.632286898
1.616436769
1.600746823
1.585189139
1.569840718
1.554780057
1.540081556
1.525788872
1.511927536
1.498451211
1.485359752
1.472452784
1.459714668
1.447147219
1.434794208
1.4228536
1.411137771
1.399478635
1.913545228
1.889085974
1.865446548
1.842764569
1.821041098
1.800123983
1.779769776
1.759820615
1.740168742
1.720811133
1.701875016
1.683595177
1.666138805
1.649466827
1.633376281
1.617610959
1.601993058
1.586472007
1.571156514
1.556173055
1.541564941
1.527327468
1.513488539
1.500018414
1.486976609
1.474183075
1.461578495
1.449002798
1.436587125
1.424672156
1.413068063
1.401428614
1.911222895
1.887017216
1.863687506
1.841384459
1.820091021
1.799593881
1.779581142
1.759798496
1.740196084
1.720822749
1.701877369
1.683625771
1.666220831
1.649599089
1.633554766
1.617853036
1.602335149
1.586910682
1.571662951
1.556774397
1.54234598
1.528256286
1.514505345
1.501080868
1.488051643
1.475332509
1.462832318
1.450280528
1.437812073
1.425885577
1.414469876
1.402998871
1.908067326
1.884138214
1.861121863
1.839180142
1.81829984
1.798227414
1.778593855
1.759100432
1.73963702
1.720326259
1.701443033
1.683258945
1.665907064
1.649317957
1.63330512
1.617642338
1.602187961
1.586837115
1.571632414
1.556777109
1.542519162
1.528631322
1.515010407
1.501639484
1.488561596
1.475875955
1.463531889
1.451064103
1.438529802
1.426379396
1.414987036
1.403849116
1.904143547
1.88043403
1.857714486
1.836131247
1.815632069
1.795929253
1.776623854
1.757391484
1.738126104
1.719003168
1.700331805
1.682342664
1.665124971
1.648597918
1.632628307
1.61700146
1.60160762
1.58637535
1.571309503
1.556510817
1.542260673
1.528534727
1.515095953
1.501857098
1.488742606
1.475790372
1.463299017
1.451034787
1.438746196
1.426770749
1.415190902
1.404003909
1.900464952
1.876836704
1.85427127
1.832892622
1.812608794
1.793128342
1.774036973
1.754945313
1.735787046
1.716829109
1.698397649
1.680665789
1.663666581
1.647264891
1.631366265
1.615781974
1.600445626
1.585346191
1.570456432
1.555763421
1.541555431
1.528057316
1.514834158
1.501560835
1.488517851
1.475591518
1.462998111
1.450981268
1.438660017
1.426563789
1.414895501
1.403907397
1.895803348
1.872530809
1.850287464
1.82916384
1.809000822
1.789545212
1.770520541
1.751586628
1.732661341
1.713995092
1.695808799
1.678204015
1.661249371
1.644911948
1.629121735
1.61370252
1.598527862
1.583631478
1.569085151
1.554801369
1.540710456
1.527082267
1.514161565
1.501035166
1.48786457
1.474916794
1.462176478
1.450347677
1.438598052
1.426738792
1.41509626
1.403820091
1.892401073
1.869243638
1.847119179
1.826067029
1.805849975
1.786244475
1.767125582
1.748227957
1.729422802
1.710916978
1.692824952
1.675253638
1.65831033
1.642036359
1.626361369
1.611110872
1.596079976
1.581323074
1.567035244
1.553102925
1.539354613
1.5258497
1.512907339
1.50022994
1.48712519
1.47435648
1.461603264
1.449115032
1.438881877
1.428334034
1.416503069
1.404175857
1.889143
1.866063545
1.843991374
1.822934631
1.802716196
1.783030825
1.763692951
1.744710124
1.726117859
1.707828947
1.689765084
1.672177371
1.655198114
1.638922286
1.623328082
1.608266745
1.593353544
1.578558238
1.56432654
1.550655987
1.537373881
1.524110818
1.510943641
1.499262822
1.488365695
1.476042
1.462881185
1.448860604
1.43598068
1.424234491
1.41329548
1.402707642
1.887439192
1.864194951
1.841887768
1.820505044
1.800021722
1.780130829
1.760576073
1.741773854
1.723687951
1.705654617
1.687622641
1.670037886
1.653035006
1.636720126
1.62107838
1.605956692
1.590996701
1.576301027
1.562206707
1.548720104
1.53563511
1.52257598
1.509814264
1.497685656
1.484207986
1.47099924
1.458578905
1.446752819
1.434406101
1.422947072
1.412352115
1.40199369
1.885690687
1.862503217
1.840118096
1.818465697
1.797569286
1.777381461
1.757976173
1.739517494
1.721933776
1.704668575
1.687463394
1.670469293
1.653786403
1.637366888
1.621058686
1.604978061
1.590130653
1.576520961
1.563158239
1.549848623
1.536817726
1.523966367
1.51073998
1.495858425
1.481481739
1.468153114
1.455965365
1.445452243
1.435213635
1.424295444
1.413772297
1.403705216
1.885747812
1.862374898
1.839659101
1.817618155
1.7963391
1.77587887
1.756320572
1.73736572
1.718647281
1.700436383
1.682816705
1.665403433
1.648352718
1.631773339
1.615588532
1.599903408
1.585239094
1.57134528
1.55770334
1.544355071
1.531249533
1.518376238
1.505431491
1.492360295
1.479051987
1.466103287
1.454175883
1.44259952
1.430960882
1.419817747
1.409242468
1.39948812
1.8866392
1.863086242
1.840056993
1.817682207
1.796080583
1.775398401
1.755599347
1.736295105
1.717320257
1.698680096
1.680548203
1.662883138
1.645743689
1.629122698
1.613058489
1.597628507
1.582797296
1.568537241
1.554610247
1.541010027
1.527869802
1.514940556
1.502064557
1.48957715
1.477131175
1.464613047
1.452493418
1.440545894
1.428954847
1.417884591
1.407209044
1.39728067
1.887839031
1.86398077
1.840525485
1.817745682
1.795906858
1.775121372
1.755215682
1.735830763
1.71674361
1.697913198
1.679573192
1.661780849
1.644518402
1.627776624
1.611770005
1.596800886
1.582177293
1.567130279
1.552477143
1.538668177
1.525268661
1.511959019
1.498866891
1.486549118
1.475887236
1.465366297
1.453485176
1.441641957
1.430352729
1.419329663
1.408297196
1.396549077
1.889923951
1.865531519
1.841579209
1.818446974
1.796470385
1.775608274
1.755542433
1.735928673
1.716557085
1.697443194
1.678762721
1.660564982
1.642889398
1.625800332
1.609399509
1.593589516
1.578273234
1.563596909
1.549550283
1.535861564
1.522453254
1.509447329
1.496942578
1.484815772
1.472929273
1.460656053
1.448483722
1.436735347
1.425883969
1.415196665
1.404243501
1.393562132
1.892362039
1.867563038
1.843144887
1.819696817
1.797534101
1.776517902
1.756259652
1.736434172
1.716880048
1.697572385
1.678567893
1.660013045
1.642071624
1.624845939
1.608380972
1.592543052
1.577164458
1.562440218
1.548363584
1.534372235
1.520515845
1.507325826
1.494808579
1.482406678
1.469953458
1.457560736
1.445510436
1.433915238
1.423126476
1.4129859
1.402502008
1.392183301
1.89462715
1.869599998
1.845081094
1.821623827
1.799345029
1.778032794
1.757389181
1.737201172
1.717393922
1.697907288
1.678755614
1.660094738
1.642074351
1.624788051
1.608274768
1.592309523
1.576759193
1.561671801
1.546980548
1.532617481
1.518711413
1.505446325
1.492715824
1.480138611
1.467768684
1.455853743
1.443933013
1.432275506
1.421000873
1.411465727
1.403080048
1.393343349
1.896020999
1.870884201
1.846485149
1.823286395
1.80122353
1.779955852
1.759143953
1.738638812
1.718434634
1.698537117
1.679032252
1.660126707
1.642018791
1.624756126
1.60827453
1.592309393
1.576682689
1.561316037
1.546258968
1.531773642
1.517812758
1.504165296
1.49095621
1.478301705
1.466014511
1.454391597
1.443021393
1.431572426
1.420393718
1.410196789
1.399662318
1.389020659
1.896026146
1.871065061
1.847106443
1.82437706
1.802561346
1.781381565
1.760600698
1.740113144
1.719815688
1.699643163
1.679783599
1.660599923
1.642372643
1.625085376
1.608525165
1.592391601
1.576497771
1.560771095
1.545358176
1.530463114
1.516218034
1.502653347
1.489702207
1.477422592
1.465252817
1.453635399
1.443342223
1.432741429
1.421643653
1.409491996
1.397265698
1.386386197
1.895161644
1.870532485
1.847176196
1.824982673
1.80348291
1.78247471
1.761825828
1.741388247
1.721017902
1.700687615
1.680685194
1.66142975
1.643182337
1.625885106
1.609229248
1.592887658
1.576700047
1.560616553
1.544853984
1.529678298
1.515257718
1.501671835
1.488761511
1.476310922
1.464151828
1.452187365
1.440049443
1.428177107
1.416977937
1.405747328
1.394743271
1.384112951
1.892229444
1.868478325
1.846052484
1.824363687
1.803232577
1.782575514
1.762290086
1.742104046
1.721800881
1.701503035
1.681618945
1.662536294
1.644355768
1.626937552
1.609988402
1.593250405
1.576659888
1.560352332
1.544562821
1.52951213
1.51525287
1.501675241
1.48860878
1.475935125
1.463540917
1.451249945
1.438849914
1.426977638
1.415421339
1.403962253
1.39316143
1.382358951
1.886096033
1.864492764
1.843489714
1.822766968
1.802275033
1.78203222
1.761995927
1.741960122
1.721780312
1.701745878
1.682277719
1.663593898
1.645656552
1.62826047
1.611102753
1.593996127
1.577012107
1.560453501
1.54451892
1.529394062
1.515143791
1.501602799
1.488519252
1.475704142
1.463157858
1.45079138
1.438610814
1.426841105
1.414848048
1.40292455
1.391867403
1.381356997
1.877728439
1.858273108
1.838466293
1.818968116
1.799718967
1.780461294
1.761041234
1.741305809
1.721372681
1.701673259
1.68265235
1.664324979
1.646505867
1.629009753
1.611654557
1.594407886
1.577434646
1.560959705
1.545111903
1.529996581
1.51562173
1.501882568
1.488569751
1.475434441
1.462535305
1.44991525
1.437585464
1.425452098
1.413328112
1.401392433
1.390207699
1.380535977
1.866184393
1.850262229
1.831266339
1.812924799
1.795047522
1.777041257
1.758619929
1.739602684
1.72029124
1.701246122
1.682709624
1.664684594
1.646981079
1.629457827
1.611994979
1.594679711
1.577779491
1.561420681
1.545690026
1.530624638
1.516169424
1.502239736
1.488742393
1.47554831
1.462527184
1.449634526
1.437022405
1.424667643
1.412648121
1.401275245
1.390386492
1.379369307
1.856232561
1.840858118
1.822328457
1.805082827
1.788381444
1.771571484
1.754296242
1.736408499
1.718275924
1.70022349
1.682239291
1.66432265
1.646599433
1.629086204
1.611772108
1.594791816
1.57835003
1.562352537
1.546785091
1.531675868
1.517008451
1.502749651
1.488863951
1.47533303
1.462104746
1.449162067
1.436579217
1.424220797
1.412141809
1.400637384
1.389539572
1.378611469
1.836318436
1.828218907
1.812915107
1.796371949
1.780298309
1.764384177
1.74812387
1.731475039
1.714785377
1.697979349
1.680861041
1.663390891
1.645761274
1.628245249
1.611116968
1.594521707
1.578479827
1.562836171
1.547487405
1.532442486
1.517703215
1.503321983
1.489306877
1.475618093
1.462171707
1.448934494
1.436066637
1.423640095
1.411858436
1.400731208
1.389889135
1.379291273
1.804809484
1.817851918
1.804268636
1.787062104
1.770978907
1.755594567
1.740258515
1.725044369
1.709875372
1.694116931
1.677677169
1.660798544
1.643778509
1.626922796
1.610467416
1.594477469
1.57882198
1.563387077
1.548081743
1.532934026
1.517982046
1.503374359
1.489208461
1.475456229
1.462086246
1.449105017
1.436527098
1.4242718
1.412353135
1.400791454
1.389538208
1.378599122
1.730024932
1.799803134
1.79174173
1.776685598
1.761004263
1.746188848
1.731632208
1.717682384
1.703614944
1.688589346
1.67279108
1.656684523
1.640614831
1.624812667
1.60934765
1.594105691
1.578797952
1.563449599
1.54810925
1.532927551
1.518068405
1.503591604
1.489389912
1.475457514
1.461863402
1.448725811
1.435980772
1.423606211
1.411672958
1.400237737
1.389165633
1.378326179
1.611225905
1.781770991
1.780246374
1.76744464
1.752284263
1.737697378
1.723526932
1.710198916
1.696368482
1.681723296
1.666631083
1.651452329
1.636517948
1.621977254
1.607674713
1.59330631
1.578543473
1.563365773
1.547946236
1.532571844
1.517606234
1.503200488
1.489196151
1.475583358
1.462293692
1.449282627
1.43660345
1.424407593
1.412658544
1.401219948
1.389974857
1.378900649
1.453863083
1.724657584
1.767039334
1.759585727
1.746392534
1.732236935
1.718231449
1.703403995
1.688633767
1.673914987
1.659212382
1.644867517
1.63125014
1.618202491
1.605088337
1.591424537
1.577088654
1.562225681
1.547096681
1.532034038
1.517271328
1.502862311
1.488759985
1.475159503
1.461986177
1.449099449
1.436447469
1.424109579
1.412091659
1.400415162
1.38904447
1.377883213
1.329665587
1.615741088
1.757340058
1.751946259
1.735672645
1.718727773
1.704653552
1.690982401
1.677335552
1.663773682
1.650432737
1.637585231
1.625367874
1.613545228
1.60136743
1.588269007
1.57436827
1.559934145
1.545246636
1.530621525
1.516223846
1.502183577
1.488542822
1.475260281
1.462156695
1.449228707
1.436582348
1.424379053
1.412602163
1.401116841
1.389791066
1.378586398
1.279907308
1.466861165
1.719691199
1.740035261
1.728956351
1.712469689
1.696917167
1.682147557
1.667835386
1.654704071
1.642387599
1.630575312
1.619040482
1.60751187
1.595700976
1.58331925
1.57022749
1.556565542
1.542637774
1.528751772
1.515035617
1.501545154
1.488243623
1.475081064
1.462082233
1.449308086
1.436791981
1.424544813
1.412566427
1.400867972
1.389411215
1.378119374
1.262722594
1.32810655
1.620631324
1.728314234
1.722498576
1.707928671
1.690688441
1.674565234
1.660018329
1.647306118
1.635714509
1.624032833
1.612202003
1.600604587
1.589089858
1.577231958
1.564772994
1.551934303
1.538956071
1.525952443
1.512938562
1.499899946
1.486902092
1.474000715
1.461178907
1.448451248
1.435972188
1.42393379
1.412258041
1.400766011
1.389379886
1.378117928
1.253389041
1.262180454
1.482933576
1.70510916
1.715132095
1.703252613
1.685685687
1.668788717
1.653373805
1.639097091
1.626077689
1.614397029
1.603443383
1.59256445
1.581565053
1.570374909
1.558816366
1.546865497
1.534644102
1.522352293
1.510111616
1.497938848
1.485736361
1.473407558
1.460992965
1.448618712
1.436316951
1.424128668
1.412144375
1.400511787
1.389216722
1.378136097
1.246071149
1.240076679
1.333378895
1.622698924
1.704421007
1.697140762
1.681537298
1.664584719
1.648604955
1.633533576
1.619758382
1.607333568
1.595696815
1.584418961
1.573419349
1.562637535
1.551794853
1.5407519
1.529494681
1.518080992
1.506588291
1.495047057
1.483392854
1.471552001
1.45945902
1.447178349
1.43476744
1.422564277
1.410914046
1.399613395
1.388344153
1.377161369
1.238321889
1.229351455
1.248440115
1.501063543
1.690517914
1.689685021
1.677623494
1.661010765
1.644161359
1.628263187
1.613700532
1.600441531
1.588100628
1.57636635
1.565150771
1.554448802
1.544010618
1.533652781
1.5233021
1.512849397
1.502227579
1.491468037
1.480522826
1.469243687
1.457540424
1.445664575
1.433908642
1.422412647
1.411000191
1.399709521
1.388656792
1.377791395
1.232255854
1.220566594
1.219892851
1.348492218
1.623796839
1.679707307
1.67353462
1.658396192
1.640811932
1.624271363
1.608922884
1.594772555
1.581623297
1.569230342
1.557587642
1.546829766
1.53672997
1.526983701
1.517411763
1.507631974
1.497532136
1.487277603
1.476786149
1.46596911
1.454796304
1.443425352
1.432014609
1.420605981
1.409227116
1.398309094
1.387746851
1.376962058
1.227015612
1.212501451
1.206397197
1.24192322
1.517156509
1.671747511
1.668534291
1.654851035
1.637880145
1.621286883
1.605283553
1.590104744
1.575985412
1.562886818
1.550732993
1.539558991
1.529320295
1.51970211
1.510262801
1.500901243
1.491631983
1.482227676
1.47225237
1.461751043
1.450994207
1.44028861
1.429652084
1.418948947
1.408294177
1.397758378
1.387092955
1.376406723
1.22100985
1.206411222
1.196601809
1.199950194
1.37219493
1.625166932
1.657783743
1.65065226
1.63551984
1.618262727
1.60129519
1.585451836
1.570949411
1.557635787
1.545309586
1.533842162
1.523357113
1.513713379
1.504356548
1.49519127
1.485962928
1.476540795
1.466865758
1.457040663
1.447186353
1.437149773
1.426771035
1.416347956
1.406023561
1.395764438
1.385656077
1.375759793
1.213913406
1.200963259
1.18826753
1.183835246
1.245801585
1.528332636
1.650639412
1.646396778
1.633034261
1.6150594
1.597510603
1.581516593
1.566962935
1.553456149
1.54060077
1.528460121
1.517174823
1.506571822
1.496578975
1.487268543
1.478258241
1.469297228
1.460457173
1.451501348
1.442065504
1.432190954
1.422475034
1.413138101
1.4036249
1.393874622
1.384012763
1.373884669
1.206068704
1.195692218
1.1809372
1.174279403
1.185080242
1.399279087
1.622990576
1.636262329
1.627193944
1.611245184
1.594209407
1.57819932
1.563565417
1.550002371
1.537016178
1.524318404
1.511945565
1.500409931
1.490284748
1.48125158
1.472339099
1.46328285
1.454582347
1.445865507
1.436815808
1.427797755
1.418812314
1.409534632
1.400196695
1.390818072
1.38125487
1.371835042
1.197923251
1.189271459
1.174678103
1.166281333
1.16430519
1.261293395
1.539149457
1.625198774
1.620025781
1.607368909
1.591494861
1.575878722
1.561123727
1.547071309
1.533478071
1.520382426
1.507895875
1.496077176
1.484888692
1.474509511
1.465165025
1.456456571
1.447940969
1.439418326
1.430879776
1.422386285
1.413765502
1.404983037
1.396184482
1.387463914
1.378832611
1.369869468
1.19041562
1.18156813
1.169667623
1.157968377
1.153465314
1.177629265
1.426667448
1.611424078
1.612027944
1.602499773
1.587972652
1.573102824
1.558515902
1.544161806
1.529962826
1.5162098
1.503197812
1.491023849
1.479756879
1.469327705
1.459852392
1.450792817
1.441638147
1.433103553
1.425036851
1.417027563
1.408871515
1.400636754
1.392292804
1.3839023
1.375373206
1.366521151
1.183712346
1.173393939
1.163939736
1.151261019
1.145208654
1.147446615
1.286821812
1.547848149
1.599675517
1.595845945
1.584473059
1.570064447
1.555330475
1.541040642
1.527257476
1.513707373
1.500283514
1.487250757
1.475177433
1.464056098
1.45391913
1.444651752
1.435685716
1.427116778
1.419042249
1.410971705
1.402844973
1.394866241
1.387068207
1.379550811
1.371817178
1.363609239
1.177063198
1.16575303
1.156890829
1.145798944
1.137647916
1.13392351
1.179234616
1.45114857
1.592981217
1.591173313
1.580350228
1.565283058
1.550944104
1.537191129
1.523599671
1.510171524
1.496929589
1.484113622
1.47184813
1.460165609
1.449079152
1.43908146
1.430175179
1.421750625
1.413471948
1.405283573
1.397374852
1.389907586
1.382685643
1.375253854
1.367500451
1.359708067
1.170158749
1.158725084
1.148767221
1.14030639
1.130237973
1.12522854
1.132747643
1.3228707
1.555684435
1.579319049
1.573025441
1.560187472
1.546618741
1.533720579
1.520809464
1.507537111
1.49397087
1.480932237
1.468469626
1.45661286
1.445621705
1.435234659
1.424992033
1.415441544
1.406903605
1.399022317
1.39142809
1.384073542
1.376879824
1.369651548
1.362571543
1.355636186
1.162861714
1.151876048
1.140631855
1.134025823
1.124065575
1.117926665
1.115012231
1.196508407
1.470040062
1.570332845
1.567147828
1.557042526
1.542914455
1.529039339
1.5161063
1.503718539
1.491313991
1.47866673
1.465825804
1.453011069
1.441099618
1.430277672
1.420491671
1.411342664
1.402586198
1.394412523
1.386709283
1.379350106
1.372297657
1.365514709
1.358657992
1.35147129
1.155090372
1.145088646
1.13303107
1.126509074
1.118629461
1.109874044
1.10476198
1.124494588
1.357390187
1.55243487
1.559603456
1.552258416
1.539159939
1.525522056
1.512715748
1.500166913
1.487735835
1.475246482
1.462819433
1.45073304
1.438921417
1.427663534
1.417086447
1.406838312
1.397390382
1.388792764
1.380754669
1.373162925
1.366014875
1.359379083
1.352847469
1.346411113
1.146603444
1.138083542
1.12589969
1.118608202
1.112631054
1.10315373
1.096697391
1.098195697
1.227124187
1.487942496
1.548180466
1.543953264
1.533791465
1.521461509
1.509053134
1.496811089
1.484580841
1.471968407
1.459059299
1.446813596
1.435179128
1.423656019
1.412700807
1.402853692
1.393619531
1.384698124
1.37630477
1.368674352
1.361652669
1.355206486
1.348686138
1.341854857
1.130563935
1.119048088
1.110539899
1.105471801
1.09693618
1.088506997
1.084325006
1.128336091
1.388545577
1.538635406
1.538300098
1.530919585
1.518339286
1.504785358
1.491791403
1.479768452
1.468211337
1.456683504
1.444967718
1.43323463
1.421980917
1.411424904
1.4010502
1.390889885
1.381297313
1.3723707
1.364101684
1.356445363
1.349414678
1.342942516
1.337282684
1.122121449
1.112270453
1.102655741
1.098041271
1.091324681
1.081475368
1.075879397
1.084190054
1.266805472
1.50222165
1.529573556
1.523836493
1.512149039
1.499594289
1.487942032
1.476319901
1.464293828
1.452619639
1.441360615
1.430262699
1.419021963
1.407694609
1.39674732
1.38672375
1.37745938
1.368715966
1.360394553
1.352814005
1.34584767
1.339488503
1.333294277
1.113786596
1.104891037
1.095343361
1.08980742
1.084480649
1.074677745
1.067616354
1.066051749
1.148822046
1.419684518
1.519473009
1.517215308
1.508133224
1.495437139
1.483310162
1.472103325
1.461253309
1.450212985
1.439072169
1.427931974
1.4170704
1.406552191
1.396184087
1.386138765
1.376259461
1.366659451
1.357547208
1.349364549
1.341754263
1.334961535
1.329214152
1.105583608
1.096752395
1.088664503
1.081708132
1.077229665
1.068775344
1.059507233
1.056431661
1.07981717
1.310739314
1.500775728
1.510588797
1.504805937
1.49314228
1.480090891
1.467774305
1.456643487
1.446061862
1.435866799
1.425661962
1.415258835
1.404392166
1.393390728
1.382788775
1.37276818
1.363460126
1.355092581
1.347293298
1.339644002
1.332879706
1.325806382
1.097491055
1.088077134
1.081212437
1.073809057
1.069305995
1.062513375
1.052456448
1.047734073
1.050880157
1.187308481
1.444737465
1.501592309
1.497067708
1.486868191
1.475257509
1.464271285
1.453735279
1.443218167
1.432975783
1.422601883
1.412201929
1.401988096
1.392406607
1.382639637
1.373032452
1.36359203
1.354281503
1.345216644
1.336733638
1.329140681
1.321838826
1.089725731
1.079821808
1.073528799
1.066706985
1.061369838
1.055907641
1.04596741
1.039792935
1.039036736
1.090330661
1.351770525
1.490934232
1.491022611
1.484421367
1.47297153
1.461332774
1.450354941
1.439776951
1.429945431
1.420572881
1.411242087
1.401330931
1.391157578
1.380948891
1.371205505
1.361313905
1.352368915
1.343951615
1.335876334
1.327910208
1.320752888
1.08131089
1.071360296
1.065143528
1.05937263
1.053227913
1.048509842
1.039987015
1.032375967
1.029866579
1.042154085
1.237704579
1.460946573
1.484411268
1.480182245
1.469947159
1.458186104
1.447202833
1.436792787
1.426975022
1.417720191
1.408772658
1.399536321
1.390419846
1.38087628
1.371483985
1.361835982
1.352787045
1.343097497
1.334479146
1.325582977
1.318223637
1.073444199
1.063770293
1.056988082
1.052081646
1.045672163
1.040658153
1.033892761
1.025616265
1.022787953
1.025226703
1.121850616
1.391530746
1.474822497
1.473197949
1.465513552
1.454983692
1.444866818
1.435392887
1.425939691
1.416473074
1.406855297
1.3975633
1.388586401
1.379476849
1.370001102
1.360507673
1.351143818
1.341899853
1.334231688
1.325661052
1.318148455
1.065104419
1.055719631
1.048629539
1.044381207
1.038569375
1.032602803
1.027191885
1.019466899
1.016244544
1.015537697
1.04729934
1.291461228
1.460044137
1.46859331
1.463813036
1.454072753
1.443122908
1.433059303
1.423574892
1.415013124
1.405990796
1.397013572
1.387853052
1.379239426
1.370027533
1.361014536
1.35175375
1.342824368
1.333546719
1.324315065
1.315541106
1.057036284
1.048062798
1.040804315
1.036791549
1.031766015
1.025590957
1.020451219
1.014566495
1.010661785
1.00912276
1.016758339
1.172721724
1.416775364
1.463321438
1.460446352
1.452015511
1.441242846
1.431863044
1.422428006
1.413477353
1.403962667
1.395190761
1.38606733
1.378018559
1.368774622
1.359966536
1.35009046
1.341884606
1.332212316
1.324491915
1.315713415
1.048544674
1.040526935
1.032861127
1.029303122
1.025045586
1.019150929
1.01371904
1.009936757
1.005864101
1.003744077
1.004625447
1.070809428
1.339018702
1.453852705
1.454586722
1.449303954
1.439580968
1.430417304
1.421191899
1.412558257
1.403070406
1.394304061
1.384760234
1.376584647
1.367419647
1.359834589
1.350307886
1.342498667
1.332974431
1.326205276
1.316598047
1.040372546
1.032769927
1.025469902
1.022234375
1.01878105
1.013598802
1.007433777
1.005201733
1.001825987
0.9994296564
0.9981799199
1.017244959
1.234321705
1.429893978
1.451591896
1.448261507
1.439388716
1.429669685
1.419783312
1.410926868
1.401455179
1.39307074
1.383995639
1.376102347
1.366844111
1.359194774
1.350547849
1.34371829
1.334978936
1.330510349
1.338348965
1.032436361
1.024636614
1.018606352
1.015591587
1.013106693
1.008843236
1.002513755
1.000987774
0.9986642206
0.9955894995
0.9927830468
0.9963462098
1.11848385
1.374282303
1.44623761
1.445447428
1.438967026
1.428913179
1.418286145
1.409058989
1.400040691
1.391753345
1.383020637
1.375331685
1.367183072
1.359833519
1.351980356
1.346191661
1.352033119
1.373079033
1.411508271
1.025328745
1.016808441
1.012193007
1.009854728
1.007807148
1.004126678
0.9982281609
0.9964123229
0.9949722583
0.9917363146
0.98874014
0.9888227668
1.034279406
1.289154394
1.434001683
1.441109231
1.436889289
1.427486394
1.417001086
1.408478664
1.4001098
1.391852259
1.383403346
1.375867608
1.36852461
1.361917881
1.36682386
)
;

boundaryField
{
    inlet
    {
        type            fixedValue;
        value           nonuniform 0();
    }
    outlet
    {
        type            inletOutlet;
        inletValue      nonuniform 0();
        value           nonuniform 0();
    }
    bottom
    {
        type            slip;
    }
    top
    {
        type            slip;
    }
    obstacle
    {
        type            zeroGradient;
    }
    defaultFaces
    {
        type            empty;
    }
    procBoundary4to3
    {
        type            processor;
        value           nonuniform List<scalar> 
62
(
1.917370554
1.918714138
1.922071693
1.927965949
1.933919724
1.937935075
1.939605774
1.939988894
1.938584237
1.936010796
1.932611421
1.928551713
1.924863264
1.919892246
1.916435531
1.913082054
1.911524632
1.90972345
1.909882301
1.910791
1.912189799
1.914721302
1.917324236
1.919805721
1.921318737
1.921198668
1.919682277
1.915838995
1.906253814
1.893276347
1.873203718
1.8322427
1.742263399
1.610619387
1.445682245
1.337285186
1.299930739
1.285642656
1.276443169
1.268842042
1.262113905
1.25673676
1.2515966
1.245201354
1.237618637
1.229379688
1.221295979
1.214284657
1.208027806
1.201475261
1.194293206
1.186666927
1.178648318
1.170271951
1.162393695
1.154640239
1.138346263
1.138346263
1.130160823
1.122342698
1.114359069
1.106095893
)
;
    }
    procBoundary4to5
    {
        type            processor;
        value           nonuniform List<scalar> 
69
(
1.382107726
1.384990319
1.382027338
1.38217762
1.382967185
1.384248365
1.385991765
1.388027774
1.389902869
1.391415431
1.392356707
1.392872381
1.393235758
1.393048099
1.393004386
1.391966224
1.39160894
1.393411294
1.389399655
1.387299587
1.38611145
1.383615133
1.382015318
1.38293608
1.378365369
1.376070527
1.374473761
1.37128376
1.3706802
1.371482179
1.368345987
1.367926698
1.368904234
1.367970633
1.367627551
1.367939345
1.366795504
1.36751635
1.36690609
1.367014858
1.367091494
1.366120618
1.36694337
1.365887652
1.365944657
1.365459779
1.363508022
1.362405459
1.360411814
1.35755668
1.355193716
1.351833155
1.348187067
1.344199715
1.339916899
1.335288416
1.331565847
1.327212471
1.324061531
1.319449303
1.315897606
1.31366913
1.310904336
1.309129747
1.307455484
1.308517426
1.316666544
1.363902325
1.446749765
)
;
    }
    procBoundary4to9
    {
        type            processor;
        value           nonuniform List<scalar> 9(1.098073781 1.089376124 1.081152734 1.072180601 1.063809375 1.055301814 1.04721167 1.03900229 1.031246538);
    }
    procBoundary4to10
    {
        type            processor;
        value           nonuniform List<scalar> 
32
(
1.385987757
1.420411972
1.454324386
1.466342559
1.018520419
1.010126658
1.006186159
1.004938898
1.003084873
1.000064163
0.9946894108
0.9928310811
0.9919503498
0.9888419364
0.9853499598
0.9833298772
0.9950128723
1.183277572
1.404535767
1.438525968