/*--------------------------------*- C++ -*----------------------------------*\
  =========                 |
  \\      /  F ield         | OpenFOAM: The Open Source CFD Toolbox
   \\    /   O peration     | Website:  https://openfoam.org
    \\  /    A nd           | Version:  7
     \\/     M anipulation  |
\*---------------------------------------------------------------------------*/
FoamFile
{
    version     2.0;
    format      ascii;
    class       volScalarField;
    location    "3";
    object      rho;
}
// * * * * * * * * * * * * * * * * * * * * * * * * * * * * * * * * * * * * * //

dimensions      [1 -3 0 0 0 0 0];

internalField   nonuniform List<scalar> 
2222
(
4.175048675
4.214504421
4.213354212
4.213316458
4.214863953
4.287951521
4.284920442
4.281866579
4.279453216
4.278067726
4.277074672
4.276891095
4.33595756
4.332421622
4.329801251
4.327891651
4.326573496
4.326463945
4.328043956
4.330580647
4.332453374
4.363969248
4.362859714
4.361751986
4.360214411
4.357674053
4.353947469
4.349113372
4.343525242
4.338347736
4.334846782
4.333722401
4.334512066
0.7146700028
0.7159215736
0.7184687733
0.7231306814
0.7264950471
0.7279569838
0.7293102061
0.7309322759
0.7320708279
0.7331547764
0.7354688866
0.7389434723
0.7396440361
0.7394668043
0.7383893613
0.7370909525
0.7365984832
0.7362043508
0.735574353
0.7343782826
0.7326754173
0.7313540338
0.7304422027
0.729003449
0.7271529765
0.7265401456
0.7265762908
0.7265130343
0.726124637
0.7257365443
0.7257712533
0.7259743703
0.7260724083
0.7260797958
0.726022893
0.7261016603
0.7261373762
0.7261098235
0.7260504574
0.7260379375
0.7260220932
0.7259804486
0.7258638472
0.7257147606
0.7256315162
0.7256176088
0.7256213696
0.7256291197
0.7256375733
0.7256220272
0.7255591715
0.725556404
0.7256153874
0.7257532906
0.7259833211
0.7261109131
0.7261671715
0.7262398237
0.7263808577
0.7265862717
0.7268001832
0.7269185459
0.7269729005
0.7270347495
0.7271104869
0.7272089743
0.72731941
0.6942396863
0.6980188726
0.7041037393
0.7107429202
0.7153398267
0.7174503929
0.7185427023
0.7200155794
0.7219529029
0.7229788358
0.7241770585
0.7265461408
0.7282342939
0.7282797265
0.7274978356
0.7270338559
0.7273129656
0.728372527
0.7294993336
0.7296013528
0.72971691
0.7303026146
0.7312701845
0.731867931
0.7323587659
0.7332319139
0.7340659205
0.7342109252
0.7339527513
0.7330551138
0.7327422546
0.732708718
0.7325499723
0.7320666818
0.7313581027
0.7307971953
0.7303037554
0.7298313643
0.7294518345
0.7292078077
0.7290499163
0.7288255098
0.7284274948
0.7282351176
0.7282252606
0.728259225
0.7283144195
0.7283102989
0.7283004655
0.728298209
0.7282674318
0.7282553576
0.7282990535
0.728432236
0.7285309588
0.7285501651
0.7285376118
0.7284770893
0.7284751177
0.7285111341
0.7285172778
0.7285059034
0.7284792999
0.7284280072
0.728342588
0.7282705484
0.7281287378
0.6998696248
0.7021217548
0.7046406947
0.7073114307
0.7098715976
0.7098322976
0.7088743333
0.709173215
0.7114867923
0.7151751451
0.7168461676
0.7177811383
0.7191215918
0.7209139337
0.7219815381
0.7230558033
0.7247090972
0.7276176275
0.7311276684
0.7334229363
0.7346955779
0.7356119617
0.7367176067
0.7375842287
0.7380529944
0.7388469477
0.7395141229
0.7394901342
0.7390509873
0.7381698529
0.7377863234
0.7376932283
0.7375714601
0.7371918253
0.7364453205
0.7355238632
0.7348270901
0.734477929
0.734228014
0.7340113234
0.7338733104
0.7337261006
0.7333776258
0.7330618141
0.7330028173
0.7330309422
0.7331924016
0.7332414257
0.7331812977
0.7329653965
0.7327382042
0.7326669718
0.7326405092
0.7325841182
0.7324811461
0.732345281
0.7321378377
0.731871201
0.7316286352
0.7314837325
0.7314146906
0.7313222937
0.7311814882
0.7310116729
0.7309283539
0.7309171188
0.7307265593
0.7230899006
0.719362078
0.7137465597
0.7090257071
0.70592293
0.7014797326
0.6981301488
0.6981042152
0.6990310626
0.699329103
0.6994696656
0.6998090818
0.7009007084
0.7029449233
0.7049974437
0.7067307917
0.7085500014
0.7112954773
0.7152339794
0.7188024433
0.7214803778
0.7233734551
0.7251554095
0.7279066266
0.7306015763
0.732412405
0.7335848085
0.7350373202
0.7356068167
0.7359043557
0.7363729018
0.7371529823
0.738006614
0.7382053703
0.7380438988
0.7376223704
0.7376587026
0.7381535986
0.7390174515
0.7394455883
0.7394498346
0.7394946873
0.7394975173
0.7393298643
0.7391736437
0.7391416162
0.7391368201
0.7390778683
0.7387730396
0.7380437982
0.7372826288
0.73690021
0.7367322704
0.736505706
0.7361944283
0.7358599365
0.7355181672
0.7351784412
0.7348230495
0.7345806142
0.7345109182
0.7345141617
0.7344849515
0.7343867799
0.7343348206
0.7343632283
0.7342509111
0.7438845784
0.7357630124
0.7270223926
0.7171751328
0.7131792106
0.7100012763
0.7046216632
0.7033958437
0.7041116667
0.7036024808
0.7023604657
0.7027449041
0.7040500837
0.7054728338
0.7075789899
0.7099000222
0.7115701519
0.7125222446
0.7124651141
0.7130637527
0.714017441
0.7144568656
0.7146010846
0.7153521009
0.7171554218
0.7190281065
0.7203205712
0.721854505
0.724131387
0.7265464
0.7286621265
0.7306965683
0.7327285615
0.7344227753
0.7358318949
0.7369102647
0.7377457548
0.7387280294
0.7398452576
0.7401114026
0.7400472792
0.739988402
0.7399635257
0.7398650259
0.7397591795
0.7398580767
0.7400106278
0.7399731707
0.7397375005
0.7393533533
0.7390283027
0.7389343106
0.7389261726
0.7389500814
0.7388718382
0.7386724335
0.7384129565
0.7382624943
0.7381762949
0.7379824332
0.737880093
0.7379076549
0.7379328912
0.7378661084
0.7375583555
0.7372751596
0.737076715
0.8343497288
0.8219004168
0.8097032522
0.7922473584
0.7822838531
0.7749771293
0.7629809968
0.7535965219
0.7492109326
0.743663017
0.7348246034
0.7302329389
0.7267548605
0.7225261467
0.7189249928
0.7169555794
0.7142253555
0.7104505613
0.7074626621
0.7071603086
0.7066694118
0.7053367561
0.7054205228
0.7061066548
0.7062643125
0.706433013
0.7068042784
0.7076455889
0.7092952279
0.7113522596
0.7132925887
0.7150069587
0.7169948299
0.7191779045
0.7217427369
0.7247108251
0.7272670792
0.7292541506
0.7314607406
0.7331745296
0.733950207
0.7343241392
0.7349688446
0.7359776766
0.7365230311
0.7369981888
0.7376097192
0.7378756734
0.7378877058
0.7377890769
0.7378014126
0.7381092821
0.7387654358
0.7394795156
0.7397800147
0.7397845271
0.7397509111
0.7398267767
0.7399988342
0.7401569408
0.7402524743
0.7402350917
0.7401729452
0.740008911
0.7395989043
0.7390922415
0.7387111636
0.9241042919
0.9055040177
0.8894146802
0.866883021
0.8478033041
0.8355773679
0.8225794253
0.804198034
0.7910875978
0.7815187109
0.7695981092
0.7570239438
0.7486491748
0.7415243623
0.7319751422
0.7261617833
0.7228484614
0.7185053628
0.7125536116
0.7118356504
0.7116269373
0.7098363211
0.7089426857
0.7096018627
0.7099638094
0.7094717756
0.7095653346
0.7105622026
0.7123845528
0.7133417475
0.7141283625
0.7151387943
0.7149022567
0.7142888081
0.714342368
0.7149789
0.7164549261
0.7172988826
0.7179730872
0.7192087926
0.7211455682
0.7226170734
0.7239363794
0.7257692183
0.7280381331
0.729935239
0.7314443177
0.7326367066
0.7335797394
0.7345689783
0.7356301274
0.7364809296
0.7371511204
0.7380011097
0.7384588529
0.7384594515
0.7383502204
0.7384088398
0.7386623226
0.7389842197
0.7391259326
0.7391668516
0.7391916397
0.7391798714
0.739011273
0.7388706478
0.7388952046
1.026476007
1.00419914
0.9876688009
0.9654078526
0.9403846192
0.9240780948
0.9105630771
0.8908409517
0.873102517
0.8605008406
0.8475380858
0.8307040517
0.8202494745
0.8120572873
0.7991376806
0.7870869447
0.7808273441
0.7738723639
0.7619323312
0.755477493
0.7512480094
0.7451580147
0.7387829809
0.7354829544
0.7319330135
0.7268340343
0.7237235553
0.7221435769
0.7195433497
0.7163530743
0.7145108508
0.7137761193
0.7117607876
0.7098371048
0.7098244576
0.7100470936
0.7099547764
0.7098591279
0.7099731557
0.7103077485
0.7109397206
0.711770904
0.7126713568
0.7137763684
0.7153369941
0.7173738601
0.7191022813
0.7207870408
0.722571275
0.7243364926
0.7263751296
0.7285555955
0.7301153442
0.7312124677
0.7324411724
0.7334129089
0.7337557951
0.7340770745
0.7348522599
0.7359962222
0.7362390673
0.7363849365
0.7366777114
0.7371446404
0.7372252014
0.7372665978
0.7375272815
1.133254215
1.105168184
1.085345429
1.063401992
1.036632005
1.015960953
0.999199396
0.9769923166
0.9556881068
0.9402724185
0.925373207
0.9048094006
0.8888255377
0.8774434492
0.8639121622
0.8465638973
0.8342202752
0.8245151945
0.8114584453
0.79852792
0.7898006819
0.7815377676
0.7700486008
0.7612329509
0.7548901661
0.7476972444
0.7389138774
0.7340558975
0.7304900128
0.725922063
0.7210545882
0.7196092853
0.7179844051
0.7150008924
0.714461685
0.7146707846
0.7139916926
0.7131207652
0.7134084594
0.7144937732
0.7145331352
0.7145655929
0.7150541664
0.7160476387
0.7166655612
0.7165935194
0.7168674419
0.7172503418
0.7172440039
0.7172561766
0.717584969
0.7185202026
0.7198618239
0.7207717009
0.7216051674
0.7228233114
0.7244345012
0.7257941553
0.7271194545
0.7286411386
0.7302376112
0.7313645029
0.7322807231
0.7331628515
0.7341024856
0.7349291797
0.735950693
1.233488923
1.204343607
1.182870887
1.161727556
1.132257282
1.109058045
1.092016175
1.069462245
1.043304202
1.025923718
1.01134698
0.9897218105
0.9697230463
0.9557882376
0.942074098
0.9228901409
0.9079669593
0.8966966256
0.8831208926
0.8673707394
0.856983727
0.8482260066
0.8347350105
0.8223511499
0.8147233691
0.8074535646
0.7955297898
0.7871646838
0.7816769864
0.774878376
0.7657642909
0.7602104092
0.7555076663
0.7484289469
0.7439088908
0.7411543879
0.7372710361
0.7318956762
0.7295343348
0.7275845006
0.7247036562
0.7219382752
0.7207865289
0.7192880769
0.717091203
0.7151901791
0.714998311
0.714633893
0.713493288
0.7132930475
0.7135437512
0.7137099897
0.7138097469
0.7139848154
0.7142841093
0.7148048167
0.71557294
0.7165240594
0.7175445613
0.7186220162
0.720036023
0.7216848063
0.7232520716
0.7246576942
0.7261321017
0.7275225701
0.7296200529
1.317952149
1.292978864
1.271275538
1.253007612
1.226840451
1.200026169
1.181303564
1.161064085
1.133861376
1.11272693
1.096680652
1.075015874
1.052427863
1.036214932
1.021277308
0.9999929381
0.9822776563
0.9696162526
0.9555078697
0.9367404067
0.9228912268
0.9123341126
0.8985945469
0.8829678031
0.8716916888
0.8622643347
0.8493970603
0.8373495688
0.8285089928
0.8197091734
0.8076658634
0.7981479912
0.7912662243
0.7832555112
0.7732489255
0.7666372672
0.7613166321
0.7539324101
0.7465136845
0.7418781174
0.7380324068
0.7323617323
0.728886871
0.726966755
0.7246136751
0.7207831994
0.7198008128
0.719396192
0.7179339266
0.7170588055
0.7174547081
0.7175223812
0.7168159804
0.7167051109
0.7171930442
0.7179035645
0.7180916496
0.7184033565
0.7191259186
0.7193137107
0.7190720259
0.7189452409
0.719042958
0.719328805
0.7196459917
0.7199772722
0.7208845633
1.372246927
1.358649412
1.342037591
1.327362692
1.308695476
1.284430366
1.264981705
1.247082984
1.221164088
1.197958522
1.1814206
1.160702058
1.13490873
1.116935972
1.102337183
1.080463012
1.059364923
1.045147305
1.031327142
1.010937604
0.9945775424
0.9826241816
0.9686622088
0.9509406905
0.9383736359
0.9283511449
0.9143842221
0.8999149889
0.8901632469
0.8814036291
0.8678676399
0.8562696038
0.8484536197
0.8408004213
0.8290575692
0.8201254312
0.8136162223
0.8061051673
0.7961473982
0.789676933
0.7846369096
0.7771515184
0.7701468175
0.7658519019
0.761332315
0.7539341457
0.7494129726
0.7463681232
0.7422701685
0.7377678138
0.7356670904
0.7334293417
0.7297883216
0.7270597796
0.7258456011
0.7240705868
0.7219131114
0.7208242228
0.7202449571
0.7189492115
0.7172265998
0.7167405641
0.716790664
0.716537624
0.7163594395
0.7165248175
0.7167028069
1.394816601
1.390668908
1.383744659
1.375556642
1.36561006
1.350356624
1.334141317
1.320006055
1.300332027
1.277132911
1.260054345
1.24257543
1.217282718
1.19640241
1.18130904
1.160965024
1.137666232
1.121349882
1.107160758
1.085970434
1.067180856
1.054063988
1.040010558
1.020248636
1.005473331
0.9946002505
0.9807479633
0.9637694177
0.951645873
0.941922711
0.9283460842
0.9145108347
0.904510744
0.8954617616
0.882799263
0.8715485478
0.8631017011
0.8542621012
0.8426052256
0.8334627154
0.8266194061
0.8183506658
0.8081667286
0.800770001
0.7948516276
0.7867124692
0.7781858845
0.7725190999
0.7676277704
0.7605365112
0.7546420936
0.7504347183
0.745901894
0.739748109
0.7361630025
0.7336973413
0.7305883261
0.7270944031
0.7258756783
0.724555938
0.7219827155
0.7207877174
0.7207231272
0.7201457736
0.719365376
0.7195989478
0.7195256611
1.39960017
1.399036442
1.397794967
1.395593391
1.392369808
1.386952052
1.378743087
1.369975664
1.358946984
1.342646123
1.327140256
1.313273387
1.29299262
1.271572956
1.256219305
1.238556444
1.214325528
1.196163448
1.18227547
1.161714099
1.140068298
1.125643108
1.112161701
1.091441714
1.074245974
1.062274071
1.048588499
1.029837534
1.016135016
1.005751423
0.9917953104
0.975886645
0.9650231662
0.9558385329
0.9419646818
0.9288036294
0.9198017184
0.9112836262
0.898198603
0.887647105
0.88009991
0.8721008057
0.8605040894
0.8517891843
0.8451613456
0.8372995188
0.8274176773
0.8205911254
0.8151067183
0.8073796815
0.7993529885
0.7939087359
0.788987996
0.7812786126
0.7752810515
0.7713326224
0.7668243892
0.760592482
0.7564869717
0.7530722916
0.7479956334
0.7440271316
0.7414418972
0.7385817916
0.7352252164
0.7330846861
0.7307436823
1.39999493
1.399969452
1.399891286
1.399684566
1.399238869
1.398321446
1.396459393
1.393534985
1.389477688
1.382753009
1.373600245
1.364485881
1.352384856
1.335541148
1.321116559
1.307422207
1.286801342
1.267109366
1.253185033
1.235525769
1.212687187
1.196329235
1.183148634
1.162968983
1.143408511
1.13026438
1.11691482
1.096838556
1.08120088
1.070166049
1.05653779
1.038623343
1.026006217
1.016289216
1.00259885
0.9874376783
0.976822216
0.9678109761
0.9545788078
0.9422016274
0.933252743
0.9245460737
0.9121472301
0.901751748
0.8940034705
0.8854531933
0.8743618988
0.8657413872
0.8590637663
0.8506827681
0.8408703505
0.8334107926
0.8273431385
0.8191679843
0.810926193
0.8048905692
0.7994133256
0.7916659334
0.7848459546
0.7797934977
0.7743866496
0.767502107
0.7625041691
0.758519419
0.7535931597
0.7488017295
0.7436590934
1.400004972
1.400004668
1.400003262
1.399997653
1.399978792
1.399922719
1.399767512
1.399401649
1.398693829
1.39731989
1.39474396
1.39111862
1.386232385
1.378283637
1.368536737
1.359204511
1.346162512
1.329334649
1.315919029
1.302173957
1.281625029
1.263815464
1.250988048
1.233164113
1.211724833
1.197160291
1.184585111
1.164632357
1.146637556
1.13467443
1.121660906
1.102442346
1.08806749
1.077720599
1.064146359
1.047175656
1.03549273
1.026229015
1.012529082
0.9982799004
0.9885980981
0.9799521121
0.9665296513
0.9546772498
0.9464057644
0.9381317761
0.9257182839
0.9160446152
0.9088586537
0.9006493603
0.8894874361
0.8813724211
0.8750178145
0.8668329141
0.8573974742
0.8507192905
0.8450594316
0.8369220745
0.8290266966
0.8231780225
0.8178792777
0.8103264383
0.8041201503
0.7991442396
0.793868941
0.7879655028
0.7807028476
1.40000504
1.400005039
1.400005033
1.400004994
1.400004788
1.40000384
1.399999956
1.399986251
1.399945477
1.399836217
1.399559948
1.398975253
1.397941547
1.396021351
1.392695229
1.388440886
1.382738304
1.373703767
1.36370665
1.354234148
1.340389258
1.323946435
1.311535948
1.297724436
1.277537883
1.261314978
1.249298647
1.231520392
1.211614612
1.198394894
1.186184827
1.166729154
1.150281349
1.139244237
1.126344661
1.107848373
1.094620201
1.084967651
1.071609702
1.055516103
1.044519391
1.035609605
1.022193681
1.008705467
0.9993513737
0.9908471592
0.9780262676
0.966844075
0.9587426438
0.9502907246
0.938379574
0.9289329448
0.9218587449
0.9134405622
0.9029397988
0.8949170776
0.8885061259
0.8799648566
0.8708975388
0.8639441267
0.8577222016
0.8495869067
0.8420826139
0.8360569902
0.8295637306
0.8228496949
0.8142272209
1.40000504
1.40000504
1.40000504
1.40000504
1.40000504
1.400005036
1.400005011
1.400004877
1.400004255
1.400001711
1.399992402
1.399963008
1.399884622
1.399692385
1.399243917
1.398384509
1.396973289
1.394441688
1.39038809
1.385598267
1.379125179
1.369228177
1.359219614
1.3496276
1.335181718
1.31940519
1.307845773
1.293900191
1.27432423
1.259622456
1.248251368
1.230534421
1.212003959
1.199945897
1.188051336
1.169167259
1.154031225
1.143779988
1.131041448
1.113443701
1.10116102
1.091973026
1.078647238
1.063427598
1.053246384
1.044702831
1.031372612
1.01861817
1.009882809
1.001573958
0.9887553405
0.9781673483
0.9705853144
0.9623398976
0.9506254631
0.9417946133
0.9350448224
0.9265167424
0.9161960653
0.9088511765
0.9026444346
0.8939908295
0.8854863132
0.8793129116
0.872741331
0.8654476718
0.8559440344
1.40000504
1.40000504
1.40000504
1.40000504
1.40000504
1.40000504
1.40000504
1.40000504
1.400005038
1.400005023
1.400004941
1.400004546
1.400002915
1.399996931
1.399977141
1.399920691
1.399784381
1.399474449
1.398802137
1.397626703
1.395803543
1.392624233
1.387915131
1.38268816
1.375494792
1.364963643
1.355134601
1.34544613
1.330602396
1.315623153
1.304802324
1.290764918
1.271953247
1.258516168
1.247625031
1.230120011
1.212959973
1.201872638
1.190191769
1.171897714
1.157914953
1.148319623
1.135719214
1.118950586
1.107533467
1.098796009
1.08566862
1.071291203
1.061608286
1.053242436
1.04019196
1.028218885
1.01988546
1.011598881
0.9992573892
0.9892280251
0.9818649165
0.9733588479
0.9622266605
0.9538008508
0.9471168609
0.9384493402
0.9289255894
0.9216666051
0.9148724132
0.9071136386
0.8969929815
1.40000504
1.40000504
1.40000504
1.40000504
1.40000504
1.40000504
1.40000504
1.40000504
1.40000504
1.40000504
1.40000504
1.400005039
1.40000503
1.400004983
1.400004748
1.400003733
1.399999963
1.399987438
1.399949585
1.399851102
1.399633435
1.399168966
1.398226269
1.396710689
1.394459418
1.390630829
1.385371267
1.379798671
1.37195796
1.361028822
1.351478133
1.341690335
1.326648038
1.312548111
1.302350684
1.288248438
1.270303432
1.257987888
1.247464083
1.230229077
1.214296712
1.20401101
1.192496407
1.174923078
1.161995546
1.152935066
1.140390524
1.124473
1.113822646
1.105411734
1.092348129
1.078831087
1.069809044
1.061624203
1.048680225
1.037429677
1.029548707
1.021208924
1.009099022
0.9998338315
0.9928316533
0.9839906705
0.9735615576
0.9656733829
0.9587092927
0.9504683419
0.9398646806
1.40000504
1.40000504
1.40000504
1.40000504
1.40000504
1.40000504
1.40000504
1.40000504
1.40000504
1.40000504
1.40000504
1.40000504
1.40000504
1.40000504
1.400005039
1.400005035
1.400005009
1.400004877
1.400004283
1.400001964
1.399994156
1.399970434
1.399904294
1.399746112
1.399423062
1.398769283
1.397520947
1.395661118
1.392980909
1.388527253
1.382838349
1.377000452
1.368590428
1.357476388
1.348274323
1.338394536
1.323327942
1.310110318
1.300426398
1.286294771
1.26927463
1.257937689
1.247690626
1.230796003
1.216031417
1.206434102
1.195010842
1.178124342
1.166128439
1.157524908
1.145054528
1.130047379
1.120077972
1.11189162
1.098923429
1.086292772
1.077742647
1.069516674
1.056865007
1.046461369
1.039026348
1.03020335
1.018898168
1.010177307
1.003002016
0.9944954624
0.9832109586
1.40000504
1.40000504
1.40000504
1.40000504
1.40000504
1.40000504
1.40000504
1.40000504
1.40000504
1.40000504
1.40000504
1.40000504
1.40000504
1.40000504
1.40000504
1.40000504
1.40000504
1.40000504
1.400005038
1.400005024
1.400004953
1.400004627
1.400003289
1.399998523
1.399983839
1.39994267
1.39983579
1.399599079
1.399148323
1.398275292
1.396700679
1.39451041
1.391414864
1.386387022
1.380392984
1.374354224
1.365456334
1.354340183
1.345512072
1.335535134
1.320602542
1.308265163
1.299005185
1.284875832
1.268813814
1.258317632
1.24823696
1.231743192
1.218082321
1.209072159
1.197654477
1.181558313
1.170444565
1.162184227
1.149635824
1.135562107
1.126287341
1.11818626
1.105282147
1.093616532
1.08566543
1.076986028
1.064931806
1.055395212
1.047802648
1.039243847
1.027174728
1.40000504
1.40000504
1.40000504
1.40000504
1.40000504
1.40000504
1.40000504
1.40000504
1.40000504
1.40000504
1.40000504
1.40000504
1.40000504
1.40000504
1.40000504
1.40000504
1.40000504
1.40000504
1.40000504
1.40000504
1.40000504
1.400005039
1.400005032
1.400004996
1.400004824
1.400004102
1.400001374
1.399992435
1.39996705
1.399900819
1.399739434
1.399406387
1.398809779
1.397694848
1.395789447
1.393296479
1.389806775
1.384272325
1.378093953
1.371904739
1.36260126
1.35164415
1.343196471
1.333105239
1.318433662
1.306952053
1.298020726
1.283906183
1.268839545
1.259109038
1.249099838
1.233043741
1.220431084
1.21191112
1.200393762
1.185129088
1.174875772
1.166836302
1.154185279
1.141176093
1.132572449
1.124199721
1.111465756
1.101114131
1.093071126
1.084553967
1.071587976
1.40000504
1.40000504
1.40000504
1.40000504
1.40000504
1.40000504
1.40000504
1.40000504
1.40000504
1.40000504
1.40000504
1.40000504
1.40000504
1.40000504
1.40000504
1.40000504
1.40000504
1.40000504
1.40000504
1.40000504
1.40000504
1.40000504
1.40000504
1.40000504
1.40000504
1.400005037
1.400005019
1.400004933
1.400004557
1.400003101
1.399998014
1.399982555
1.399941796
1.399841992
1.399612118
1.399167873
1.398412845
1.39704196
1.394818357
1.392061116
1.388202484
1.382243064
1.375989688
1.369680004
1.360046275
1.349383387
1.341306394
1.331078267
1.316797161
1.306143713
1.297441896
1.283351415
1.269314978
1.260250215
1.250176384
1.234632038
1.223079576
1.214972707
1.203165587
1.188914793
1.179478974
1.171464863
1.158504714
1.147052943
1.138651246
1.130158749
1.116703723
1.40000504
1.40000504
1.40000504
1.40000504
1.40000504
1.40000504
1.40000504
1.40000504
1.40000504
1.40000504
1.40000504
1.40000504
1.40000504
1.40000504
1.40000504
1.40000504
1.40000504
1.40000504
1.40000504
1.40000504
1.40000504
1.40000504
1.40000504
1.40000504
1.40000504
1.40000504
1.40000504
1.40000504
1.400005039
1.400005031
1.40000499
1.400004803
1.400004055
1.40000136
1.399992587
1.399967699
1.399906387
1.399764367
1.399453211
1.398887776
1.397967615
1.396334864
1.393820798
1.390841794
1.386639629
1.380348137
1.374119394
1.367697966
1.357814455
1.347559024
1.339825393
1.329414845
1.315641167
1.305794782
1.297208768
1.283168404
1.27018551
1.261758071
1.251407918
1.23655043
1.22599752
1.218158405
1.205884595
1.192995686
1.184214978
1.175779929
1.16244841
1.40000504
1.40000504
1.40000504
1.40000504
1.40000504
1.40000504
1.40000504
1.40000504
1.40000504
1.40000504
1.40000504
1.40000504
1.40000504
1.40000504
1.40000504
1.40000504
1.40000504
1.40000504
1.40000504
1.40000504
1.40000504
1.40000504
1.40000504
1.40000504
1.40000504
1.40000504
1.40000504
1.40000504
1.40000504
1.40000504
1.40000504
1.40000504
1.400005036
1.400005018
1.400004931
1.400004562
1.400003188
1.39999857
1.399984452
1.399946837
1.399859781
1.399667299
1.399264705
1.398573807
1.397487912
1.395595131
1.392833635
1.38967377
1.385150487
1.37862885
1.372499903
1.365961602
1.35590711
1.346168378
1.338709898
1.328118507
1.314939062
1.305867605
1.297244639
1.283355439
1.271470845
1.263470353
1.252835621
1.238812681
1.229174513
1.221010697
1.208217243
1.40000504
1.40000504
1.40000504
1.40000504
1.40000504
1.40000504
1.40000504
1.40000504
1.40000504
1.40000504
1.40000504
1.40000504
1.40000504
1.40000504
1.40000504
1.40000504
1.40000504
1.40000504
1.40000504
1.40000504
1.40000504
1.40000504
1.40000504
1.40000504
1.40000504
1.40000504
1.40000504
1.40000504
1.40000504
1.40000504
1.40000504
1.40000504
1.40000504
1.40000504
1.40000504
1.400005039
1.400005031
1.400004994
1.400004823
1.400004149
1.40000181
1.39999441
1.399973072
1.399919334
1.399801838
1.399552007
1.399050733
1.398237914
1.396986216
1.394848463
1.391887246
1.388585157
1.383755903
1.37713482
1.371143055
1.364454388
1.354375529
1.34515248
1.337914665
1.327136635
1.314798054
1.306186689
1.297480899
1.28421354
1.273033258
1.264963094
1.253018125
1.40000504
1.40000504
1.40000504
1.40000504
1.40000504
1.40000504
1.40000504
1.40000504
1.40000504
1.40000504
1.40000504
1.40000504
1.40000504
1.40000504
1.40000504
1.40000504
1.40000504
1.40000504
1.40000504
1.40000504
1.40000504
1.40000504
1.40000504
1.40000504
1.40000504
1.40000504
1.40000504
1.40000504
1.40000504
1.40000504
1.40000504
1.40000504
1.40000504
1.40000504
1.40000504
1.40000504
1.40000504
1.40000504
1.40000504
1.400005037
1.400005021
1.400004949
1.400004642
1.4000035
1.399999766
1.399988653
1.39995797
1.399885319
1.399733191
1.399420717
1.398819785
1.397890653
1.396481
1.394112373
1.391032962
1.387564317
1.382511201
1.375893572
1.370020074
1.363114344
1.353349482
1.344591878
1.337074888
1.326853555
1.315269887
1.306694639
1.29560115
1.40000504
1.40000504
1.40000504
1.40000504
1.40000504
1.40000504
1.40000504
1.40000504
1.40000504
1.40000504
1.40000504
1.40000504
1.40000504
1.40000504
1.40000504
1.40000504
1.40000504
1.40000504
1.40000504
1.40000504
1.40000504
1.40000504
1.40000504
1.40000504
1.40000504
1.40000504
1.40000504
1.40000504
1.40000504
1.40000504
1.40000504
1.40000504
1.40000504
1.40000504
1.40000504
1.40000504
1.40000504
1.40000504
1.40000504
1.40000504
1.40000504
1.40000504
1.400005039
1.400005033
1.400005004
1.400004876
1.400004357
1.400002548
1.399996965
1.399981016
1.399939459
1.399844718
1.399656931
1.399274821
1.398584134
1.397548138
1.395966853
1.393448585
1.390272389
1.386627342
1.381383371
1.375111026
1.368989009
1.361936437
1.352954344
1.344672303
1.334662376
1.40000504
1.40000504
1.40000504
1.40000504
1.40000504
1.40000504
1.40000504
1.40000504
1.40000504
1.40000504
1.40000504
1.40000504
1.40000504
1.40000504
1.40000504
1.40000504
1.40000504
1.40000504
1.40000504
1.40000504
1.40000504
1.40000504
1.40000504
1.40000504
1.40000504
1.40000504
1.40000504
1.40000504
1.40000504
1.40000504
1.40000504
1.40000504
1.40000504
1.40000504
1.40000504
1.40000504
1.40000504
1.40000504
1.40000504
1.40000504
1.40000504
1.40000504
1.40000504
1.40000504
1.40000504
1.40000504
1.400005038
1.400005027
1.400004976
1.400004761
1.400003951
1.400001235
1.399993335
1.399971646
1.399917082
1.39980131
1.399570499
1.399125838
1.398353813
1.397216548
1.395464186
1.392875856
1.389662019
1.385694844
1.380543826
1.374750937
1.367165862
1.40000504
1.40000504
1.40000504
1.40000504
1.40000504
1.40000504
1.40000504
1.40000504
1.40000504
1.40000504
1.40000504
1.40000504
1.40000504
1.40000504
1.40000504
1.40000504
1.40000504
1.40000504
1.40000504
1.40000504
1.40000504
1.40000504
1.40000504
1.40000504
1.40000504
1.40000504
1.40000504
1.40000504
1.40000504
1.40000504
1.40000504
1.40000504
1.40000504
1.40000504
1.40000504
1.40000504
1.40000504
1.40000504
1.40000504
1.40000504
1.40000504
1.40000504
1.40000504
1.40000504
1.40000504
1.40000504
1.400005039
1.400005036
1.400005017
1.400004933
1.400004601
1.400003385
1.399999593
1.39998885
1.399960471
1.39989317
1.399753132
1.399483029
1.398973901
1.39814679
1.39688929
1.395006112
1.392508783
1.388528927
1.40000504
1.40000504
1.40000504
1.40000504
1.40000504
1.40000504
1.40000504
1.40000504
1.40000504
1.40000504
1.40000504
1.40000504
1.40000504
1.40000504
1.40000504
1.40000504
1.40000504
1.40000504
1.40000504
1.40000504
1.40000504
1.40000504
1.40000504
1.40000504
1.40000504
1.40000504
1.40000504
1.40000504
1.40000504
1.40000504
1.40000504
1.40000504
1.40000504
1.40000504
1.40000504
1.40000504
1.400005039
1.400005032
1.400005002
1.400004874
1.40000438
1.400002696
1.39999757
1.399983662
1.399948216
1.399867686
1.399705226
1.399388248
1.398867395
1.397724596
1.40000504
1.40000504
1.40000504
1.40000504
1.40000504
1.40000504
1.40000504
1.40000504
1.40000504
1.40000504
1.40000504
1.40000504
1.40000504
1.40000504
1.40000504
1.40000504
1.40000504
1.40000504
1.40000504
1.40000504
1.40000504
1.40000504
1.40000504
1.40000504
1.40000504
1.40000504
1.400005038
1.400005028
1.400004981
1.400004795
1.400004113
1.400001857
1.399995354
1.399977493
1.399938919
1.3997867
1.40000504
1.40000504
1.40000504
1.40000504
1.40000504
1.40000504
1.40000504
1.40000504
1.40000504
1.40000504
1.40000504
1.40000504
1.40000504
1.40000504
1.40000504
1.40000504
1.400005036
1.400005021
1.400004956
1.40000469
1.400003913
1.399995966
1.40000504
1.40000504
1.40000504
1.40000504
1.400005039
1.400005035
1.400004901
)
;

boundaryField
{
    inlet
    {
        type            calculated;
        value           nonuniform 0();
    }
    outlet
    {
        type            calculated;
        value           nonuniform 0();
    }
    bottom
    {
        type            calculated;
        value           nonuniform 0();
    }
    top
    {
        type            calculated;
        value           nonuniform 0();
    }
    obstacle
    {
        type            calculated;
        value           nonuniform List<scalar> 
79
(
0.7146700028
0.7159215736
0.7184687733
0.7231306814
0.7264950471
0.7279569838
0.7293102061
0.7309322759
0.7320708279
0.7331547764
0.7354688866
0.7389434723
0.7396440361
0.7394668043
0.7383893613
0.7370909525
0.7365984832
0.7362043508
0.735574353
0.7343782826
0.7326754173
0.7313540338
0.7304422027
0.729003449
0.7271529765
0.7265401456
0.7265762908
0.7265130343
0.726124637
0.7257365443
0.7257712533
0.7259743703
0.7260724083
0.7260797958
0.726022893
0.7261016603
0.7261373762
0.7261098235
0.7260504574
0.7260379375
0.7260220932
0.7259804486
0.7258638472
0.7257147606
0.7256315162
0.7256176088
0.7256213696
0.7256291197
0.7256375733
0.7256220272
0.7255591715
0.725556404
0.7256153874
0.7257532906
0.7259833211
0.7261109131
0.7261671715
0.7262398237
0.7263808577
0.7265862717
0.7268001832
0.7269185459
0.7269729005
0.7270347495
0.7271104869
0.7272089743
0.72731941
4.363969248
4.362859714
4.361751986
4.360214411
4.357674053
4.353947469
4.349113372
4.343525242
4.338347736
4.334846782
4.333722401
4.334512066
)
;
    }
    defaultFaces
    {
        type            empty;
    }
    procBoundary20to13
    {
        type            processor;
        value           nonuniform List<scalar> 8(4.17614126 4.216387569 4.290784341 4.341116649 4.365607447 0.7136681079 0.6914529486 0.6987975714);
    }
    procBoundary20to14
    {
        type            processor;
        value           nonuniform List<scalar> 
17
(
4.1679696
4.175528317
4.175528317
4.17765762
4.181152159
4.218859229
4.218859229
4.222534565
4.22479297
4.277891884
4.277891884
4.279977646
4.333407108
4.333407108
4.33338691
4.331676872
4.335884465
)
;
    }
    procBoundary20to19
    {
        type            processor;
        value           nonuniform List<scalar> 
27
(
0.7262877876
0.7562172401
0.8541488831
0.9494818578
1.057840859
1.163249308