/*--------------------------------*- C++ -*----------------------------------*\
  =========                 |
  \\      /  F ield         | OpenFOAM: The Open Source CFD Toolbox
   \\    /   O peration     | Website:  https://openfoam.org
    \\  /    A nd           | Version:  7
     \\/     M anipulation  |
\*---------------------------------------------------------------------------*/
FoamFile
{
    version     2.0;
    format      ascii;
    class       volScalarField;
    location    "3.4";
    object      T;
}
// * * * * * * * * * * * * * * * * * * * * * * * * * * * * * * * * * * * * * //

dimensions      [0 0 0 1 0 0 0];

internalField   nonuniform List<scalar> 
555
(
1
1
1
1
1
1
1
1
1
1
1
1
1
1
1
1
1
1
1
1
1
1
1
1
1
1
1
1
1
1
1
1
1
1
1
1
1
1
1
1
1
1
1
1
1
1
1
1
1
1
1
1
1
1
1
1
1
1
1
1
1
1
1
1
1
1
1
1
1
1
1
1
1
1
1
1
1
1
1
1
1
1
1
1
1
1
1
1
1
1
1
1
1
1
1
1
1
1
1
1
1
1
1
1
1
1
1
1
1
1
1
1
1
1
1
1
1
1
1
1
1
1
1
1
1
1
1
1
1
1
1
1
1
1
1
1
1
1
1
1
1
1
1
1
1
1
1
1
1
1
1
1
1
1
1
1
1
1
1
1
1
1
1
1
1
1
1
1
1
1
1
1
1
1
1
1
1
1
1
1
1
1
1
1
1
1
1
1
1
1
1
1
1
1
1
1
1
1
1
1
1
1
1
1
1
1
1
1
1
1
1
1
1
1
1
1
1
1
1
1
1
1
1
1
1
1
1
1
1
1
1
1
1
1
1
1
1
1
1
1
1
1
1
1
1
1
1
1
1
1
1
1
1
1
1
1
1
1
1
1
1
1
1
1
1
1
1
1
1
1.000000001
1.000000019
1
1
1
1
1
1
1
1
1
1
1
1
1
1
1
1
1.000000025
1.000000572
1
1
1
1
1
1
1
1
1
1
1
1
1
1
1.000000001
1.000000018
1.000000691
1.000011322
1
1
1
1
1
1
1
1
1
1
1
1
1
1
1.000000023
1.000000527
1.000012472
1.000140517
1
1
1
1
1
1
1
1
1
1
1
1
1
1.000000016
1.000000658
1.00001043
1.000146303
1.001194497
1
1
1
1
1
1
1
1
1
1
1
1
1.00000002
1.00000047
1.000012077
1.000131969
1.001205792
1.006583054
1
1
1
1
1
1
1
1
1
1
1
1.000000013
1.000000591
1.000009315
1.000143938
1.001131359
1.006517023
1.024466196
1
1
1
1
1
1
1
1
1
1
1.000000016
1.000000396
1.00001108
1.000120731
1.001180564
1.006293357
1.023967054
1.055848165
1
1
1
1
1
1
1
1
1
1.00000001
1.000000491
1.000007974
1.000135678
1.001052245
1.006367045
1.023872432
1.055086163
1.085364405
1
1
1
1
1
1
1
1
1.000000012
1.000000311
1.000009634
1.00010775
1.001122943
1.005988637
1.02349796
1.055304085
1.089433609
1.10031144
1
1
1
1
1
1
1
1.000000007
1.00000038
1.000006576
1.000124695
1.000970483
1.006176664
1.023157046
1.054255403
1.086256984
1.107029819
1.110751089
1
1
1
1
1
1
1.000000007
1.000000225
1.00000807
1.000094561
1.001065986
1.005738612
1.023014835
1.054888709
1.089421466
1.100691426
1.108188965
1.111951688
1
1
1
1
1
1.000000004
1.000000273
1.000005238
1.00011246
1.000895116
1.006030254
1.022654431
1.053660951
1.087208863
1.108004207
1.111189974
1.110981053
1.111155762
1
1
1
1
1.000000004
1.00000015
1.000006563
1.000082095
1.001009718
1.005539241
1.022656729
1.05474978
1.089491142
1.100990805
1.10904886
1.112568804
1.112074562
1.110163407
1
1
1
1.000000002
1.000000182
1.000003981
1.000099402
1.000822133
1.005935374
1.022328542
1.05331256
1.087987364
1.108823511
1.111621392
1.112068972
1.112279011
1.110939403
1.106345116
1
1
1.000000001
1.000000074
1.000004793
1.000067532
1.000934194
1.00530804
1.022509646
1.055179666
1.089268034
1.100922737
1.10982476
1.113487944
1.11321517
1.111583538
1.107086554
1.09923877
1
1
1.000000074
1.000002238
1.000077927
1.000714881
1.005678536
1.021929063
1.053189328
1.089108037
1.109316179
1.112016507
1.112989345
1.113460663
)
;

boundaryField
{
    inlet
    {
        type            fixedValue;
        value           nonuniform 0();
    }
    outlet
    {
        type            inletOutlet;
        inletValue      nonuniform 0();
        value           nonuniform 0();
    }
    bottom
    {
        type            slip;
    }
    top
    {
        type            slip;
    }
    obstacle
    {
        type            zeroGradient;
    }
    defaultFaces
    {
        type            empty;
    }
    procBoundary3to2
    {
        type            processor;
        value           nonuniform List<scalar> 
18
(
1
1
1
1
1
1
1
1
1
1
1
1
1
1
1
1
1
1
)
;
    }
    procBoundary3to4
    {
        type            processor;
        value           nonuniform List<scalar> 
30
(
1
1
1
1
1
1
1
1
1
1
1
1
1.000000001
1.000000026
1.000000688
1.000012337
1.000145594
1.001206285
1.0065327
1.023980085
1.055684423
1.089207107
1.105593764
1.107479015
1.110237159
1.111188242
1.109653705
1.10552505
1.098261932
1.088385508
)
;
    }
    procBoundary3to8
    {
        type            processor;
        value           nonuniform List<scalar> 
14
(
1
1
1
1
1
1
1
1
1
1
1
1
1
1
)
;
    }
    procBoundary3to9
    {
        type            processor;
        value           nonuniform List<scalar> 
19
(
1.112288026
1.107872468
1.099995854
1.089168539
1
1.000000009
1.000002329
1.000043975
1.000784774
1.004853806
1.022080692
1.055295397
1.089300551
1.101246561
1.110867893
1.114464249
1.114239553
1.112288026
1.112824873
)
;
    }
}


// ************************************************************************* //
