/*--------------------------------*- C++ -*----------------------------------*\
  =========                 |
  \\      /  F ield         | OpenFOAM: The Open Source CFD Toolbox
   \\    /   O peration     | Website:  https://openfoam.org
    \\  /    A nd           | Version:  7
     \\/     M anipulation  |
\*---------------------------------------------------------------------------*/
FoamFile
{
    version     2.0;
    format      ascii;
    class       volVectorField;
    location    "4.4";
    object      U;
}
// * * * * * * * * * * * * * * * * * * * * * * * * * * * * * * * * * * * * * //

dimensions      [0 1 -1 0 0 0 0];

internalField   nonuniform List<vector> 5((3.010331551 0.1127121847 0) (2.92490544 0.2356136669 0) (3.001235391 0.109931075 0) (2.86546384 0.2075520328 0) (2.832931872 0.1438229077 0));

boundaryField
{
    inlet
    {
        type            fixedValue;
        value           nonuniform 0();
    }
    outlet
    {
        type            inletOutlet;
        inletValue      nonuniform 0();
        value           nonuniform 0();
    }
    bottom
    {
        type            slip;
    }
    top
    {
        type            slip;
    }
    obstacle
    {
        type            slip;
    }
    defaultFaces
    {
        type            empty;
    }
    procBoundary15to4
    {
        type            processor;
        value           uniform (3.008262255 0.0781833648 0);
    }
    procBoundary15to9
    {
        type            processor;
        value           nonuniform List<vector> 3((2.980061331 -0.04204736925 0) (2.960647675 -0.01293871352 0) (2.960647675 -0.01293871352 0));
    }
    procBoundary15to10
    {
        type            processor;
        value           nonuniform List<vector> 4((3.000992986 0.03302955256 0) (2.969174544 0.08176559854 0) (2.969174544 0.08176559854 0) (2.903382254 0.05327946072 0));
    }
    procBoundary15to21
    {
        type            processor;
        value           uniform (2.751401234 0.09475498459 0);
    }
}


// ************************************************************************* //
