/*--------------------------------*- C++ -*----------------------------------*\
  =========                 |
  \\      /  F ield         | OpenFOAM: The Open Source CFD Toolbox
   \\    /   O peration     | Website:  https://openfoam.org
    \\  /    A nd           | Version:  7
     \\/     M anipulation  |
\*---------------------------------------------------------------------------*/
FoamFile
{
    version     2.0;
    format      ascii;
    class       volScalarField;
    location    "5";
    object      rho;
}
// * * * * * * * * * * * * * * * * * * * * * * * * * * * * * * * * * * * * * //

dimensions      [1 -3 0 0 0 0 0];

internalField   nonuniform List<scalar> 
2222
(
3.068057295
3.014806699
2.957544713
2.90151732
2.845578857
2.789443366
2.733195001
2.679184208
2.62968719
2.584081395
2.540961959
2.498132169
2.456598086
2.414633837
2.371623896
2.328886869
2.286452356
2.244396402
2.204048243
2.166266535
2.130779126
2.096709753
2.063344423
2.030611248
1.998628309
1.967270526
1.936670562
1.906976734
1.878096907
1.849337348
1.824965159
1.783951491
3.075283489
3.018482863
2.96338608
2.904160686
2.845168875
2.790639138
2.741575509
2.695401711
2.64836209
2.603010404
2.558860789
2.515466053
2.473376851
2.430269675
2.386548584
2.344490161
2.302964538
2.261333072
2.221013931
2.18297712
2.146952434
2.112218426
2.078291159
2.045136109
2.012792626
1.981166999
1.950343997
1.92038367
1.891342095
1.862376571
1.837655441
1.796178113
3.085496601
3.014227712
2.953369804
2.897328712
2.83971106
2.784855691
2.734957826
2.686326405
2.638822674
2.593034714
2.547968098
2.50395243
2.459317085
2.412883929
2.367592955
2.326659207
2.287965538
2.247645888
2.207586918
2.169341069
2.13292706
2.097949084
2.064151906
2.031496669
1.99979933
1.968736957
1.938289312
1.908483704
1.879414456
1.850325569
1.825529504
1.784226322
3.107646633
3.033016692
2.968845041
2.911379677
2.853780419
2.799629398
2.747793011
2.696797283
2.647841684
2.600999723
2.554274919
2.504698607
2.454870339
2.405330771
2.360649482
2.319900706
2.282007759
2.242562952
2.20332933
2.165660628
2.129546754
2.094658827
2.06086253
2.028243017
1.996679595
1.965849957
1.935672395
1.906044893
1.877047054
1.847936196
1.82308215
1.781861014
3.062880378
3.009197461
2.955095975
2.890629806
2.831506211
2.777835608
2.725743357
2.676221329
2.628958469
2.581529022
2.534532203
2.49034598
2.446524163
2.402975618
2.361488697
2.320242541
2.28091326
2.242376103
2.204394367
2.167030214
2.130741322
2.095645434
2.061753169
2.029083201
1.997429431
1.966481484
1.936207432
1.906488035
1.877459696
1.848305008
1.823333355
1.781991755
3.023922281
3.012748224
2.958121738
2.884560753
2.827734099
2.773085513
2.719320168
2.66936665
2.622220996
2.574355051
2.52671205
2.481530404
2.438499436
2.406976135
2.371507707
2.330117882
2.285897213
2.249818804
2.214369904
2.178321817
2.142530074
2.107462275
2.073404457
2.04052052
2.008666392
1.977569612
1.947164324
1.917236888
1.88799064
1.858535906
1.833180881
1.791293958
2.981840487
2.975322029
2.932565397
2.881015547
2.833002913
2.775023172
2.71962473
2.668066396
2.618205348
2.569651649
2.523384039
2.478070846
2.433679035
2.390518164
2.351216449
2.311906056
2.274583568
2.237192357
2.200053963
2.163867197
2.128217414
2.093289875
2.059489909
2.026910312
1.99526998
1.964330061
1.93420955
1.9046064
1.875711648
1.84650157
1.821198353
1.779423212
2.713663252
2.835851769
2.895493405
2.883933062
2.837817419
2.776429184
2.722820283
2.668480603
2.614971037
2.566115885
2.52065042
2.473877426
2.427417615
2.383254756
2.343549364
2.30540626
2.269221724
2.23273858
2.196963703
2.1618898
2.126530737
2.091721328
2.058119425
2.025724373
1.994141788
1.963163854
1.933028155
1.903456864
1.874668752
1.845546499
1.820222965
1.778328825
2.296193082
2.636435739
2.859495762
2.853945532
2.810641497
2.764514517
2.722436454
2.668207539
2.614282053
2.565056825
2.517404053
2.468714801
2.421988808
2.379085019
2.340622913
2.305514788
2.267857301
2.232567996
2.20360822
2.170364578
2.135198189
2.100463365
2.066909558
2.034397613
2.002593505
1.971457114
1.94125799
1.911696161
1.882879278
1.853628287
1.828069933
1.785746916
2.026320706
2.261957928
2.636100672
2.731328633
2.777499566
2.766995801
2.726990449
2.672710075
2.616709032
2.564564066
2.512807307
2.463136419
2.418036218
2.375555309
2.336464116
2.299729399
2.262862365
2.22796725
2.19144732
2.155394095
2.119831975
2.085164736
2.051667514
2.019280886
1.987691874
1.956908105
1.927224719
1.898229866
1.870016213
1.841348874
1.816141425
1.774022037
1.930084977
1.994527209
2.247970262
2.560390586
2.755188653
2.746407868
2.696891515
2.653336491
2.616289035
2.564881599
2.510157979
2.461603614
2.417546466
2.374707307
2.335107555
2.297415818
2.261374303
2.225755203
2.189315868
2.153417748
2.118112715
2.083588649
2.050092208
2.017646742
1.98602806
1.955354717
1.925884959
1.897141731
1.869117585
1.840573288
1.815375159
1.773169168
1.894517154
1.896222558
1.966775325
2.226209438
2.594682098
2.633522714
2.6597098
2.655225598
2.626514743
2.573388802
2.518948357
2.472783681
2.428829506
2.384549309
2.343423274
2.305014207
2.269084325
2.233562638
2.197562695
2.161418658
2.125740497
2.091022922
2.057473357
2.025026667
1.993448449
1.962892255
1.933535872
1.904950192
1.87697549
1.848391021
1.823064336
1.780489754
1.877909901
1.854439073
1.857479921
1.947982566
2.233558842
2.487496769
2.650295484
2.646602945
2.595385309
2.540739607
2.498708348
2.456063804
2.409732721
2.365528289
2.32398871
2.284674235
2.248417323
2.213542397
2.178754491
2.143780183
2.108989257
2.074823818
2.041611042
2.009455702
1.97814907
1.947977411
1.919075757
1.891025756
1.863536087
1.835496855
1.810464396
1.76811946
1.864128478
1.838655283
1.818618622
1.826908554
1.920875299
2.204021175
2.54056492
2.55444181
2.552157539
2.536119391
2.50087068
2.454820256
2.407214666
2.365039686
2.322716546
2.282304117
2.245738493
2.211077609
2.17649346
2.141621965
2.106862118
2.072688239
2.039530457
2.007547742
1.976500288
1.946598934
1.917830619
1.889812066
1.862282367
1.834248793
1.809204396
1.766834313
1.842580535
1.823081704
1.799608617
1.782200113
1.791306789
1.914082602
2.225391998
2.404817992
2.53852472
2.534203125
2.510820215
2.466109815
2.41939265
2.37764737
2.33283349
2.290340855
2.252836379
2.217671419
2.182729443
2.147792863
2.113212856
2.079253618
2.04621986
2.014235435
1.98320337
1.953341677
1.924581262
1.896543515
1.868985671
1.840885117
1.815829363
1.77342733
1.821183986
1.8045481
1.78367957
1.759488864
1.745197354
1.765963313
1.890256991
2.1706676
2.46268187
2.497023381
2.474429513
2.438222946
2.405124834
2.362940119
2.314831525
2.272039695
2.234078181
2.197767242
2.162510626
2.128481843
2.095098722
2.061909404
2.029369241
1.997786822
1.96717209
1.937649084
1.909079022
1.881145044
1.853637662
1.825701975
1.800941283
1.759443367
1.804496564
1.783493248
1.766371965
1.745217355
1.722818476
1.713766781
1.732731801
1.887763136
2.191267141
2.350333061
2.435383393
2.433125549
2.405334171
2.35594669
2.30841091
2.268260295
2.229540589
2.191657534
2.156354373
2.123132301
2.090615701
2.058044119
2.02574988
1.994164467
1.96346929
1.933707579
1.904974591
1.877042921
1.849628837
1.821763926
1.79728438
1.756281494
1.784144633
1.764140241
1.745525864
1.72899797
1.708722043
1.687522258
1.677441322
1.712514545
1.868329684
2.153172555
2.399004992
2.411405785
2.383814768
2.345403137
2.310965371
2.271148053
2.229129246
2.190160587
2.155161057
2.122150722
2.089919056
2.057892556
2.026026762
1.994486198
1.963620281
1.933458956
1.904451381
1.876457108
1.849162565
1.82147873
1.797509972
1.757124745
1.766802873
1.747602625
1.729034125
1.709236823
1.693510279
1.674450645
1.650350943
1.648040857
1.683154873
1.87593188
2.200524973
2.296850765
2.343596859
2.340245526
2.321743347
2.282604675
2.236988113
2.197099546
2.161821206
2.128372143
2.095958524
2.064123406
2.032546326
2.000885843
1.969580383
1.938840507
1.909347335
1.881024923
1.853626155
1.826131457
1.802777199
1.763356242
1.750540361
1.731288716
1.711642193
1.690739546
1.675375139
1.661841395
1.635996805
1.614882408
1.615007811
1.675364971
1.884728227
2.135401556
2.318306989
2.332868838
2.30018516
2.255349602
2.218073775
2.182397879
2.145728686
2.110651164
2.078531103
2.047543684
2.016337368
1.984567336
1.953015346
1.921817472
1.892415265
1.864648713
1.838251656
1.811964027
1.789534609
1.750872154
1.734633784
1.715735241
1.694868349
1.673787974
1.657103555
1.644260345
1.623906655
1.596245496
1.58396774
1.59279854
1.659640444
1.883984814
2.177874062
2.260535957
2.259553273
2.24712044
2.217013212
2.18005068
2.141689323
2.106983522
2.075502105
2.044348602
2.012642766
1.980740891
1.949362284
1.918417724
1.88949332
1.862342165
1.836663174
1.810897399
1.788619859
1.750227253
1.717252417
1.700107927
1.679158153
1.656040943
1.639386162
1.625163591
1.608629394
1.585185771
1.565626851
1.558086179
1.565900803
1.658336171
1.898035462
2.108403341
2.240488947
2.238451842
2.222555778
2.189029849
2.150515455
2.116540856
2.084619905
2.051872245
2.018747823
1.986348505
1.95477897
1.923793512
1.894889652
1.867985952
1.842438072
1.8165491
1.794056895
1.755519454
1.700213229
1.684456479
1.662068094
1.6386778
1.621645641
1.60815183
1.589912041
1.570937288
1.552755322
1.536902972
1.527659934
1.544636311
1.638289889
1.888400787
2.158536352
2.205502957
2.190161186
2.159659331
2.131300317
2.101366814
2.066468892
2.03111978
1.998344669
1.967978651
1.938317405
1.909902634
1.882585624
1.856049478
1.829413007
1.802198703
1.779737939
1.742000178
1.68272956
1.667505178
1.644144579
1.621931063
1.605220363
1.591268759
1.572609957
1.552707214
1.540381063
1.524351819
1.50467216
1.498804611
1.51609329
1.651151807
1.918822639
2.09120063
2.153002731
2.151837013
2.132256363
2.097855956
2.058992642
2.024180146
1.992649102
1.963008789
1.933989651
1.906996121
1.879318307
1.85116406
1.823599746
1.797108397
1.775871044
1.739106872
1.664085455
1.649825346
1.626796449
1.605190071
1.589653726
1.574621496
1.554905954
1.536199511
1.523852786
1.512703463
1.490706937
1.47147877
1.470045184
1.505701938
1.650790629
1.905700409
2.11617343
2.14069242
2.122338439
2.086252937
2.051490008
2.019442933
1.98775252
1.956780127
1.926669502
1.898785428
1.872732229
1.848246714
1.824959315
1.802179607
1.781738551
1.744845364
1.646194324
1.631576674
1.608569466
1.588192102
1.57384519
1.558882469
1.537373125
1.520036934
1.508244364
1.498068426
1.479547414
1.453791056
1.444429987
1.449495618
1.490530952
1.668886032
1.943008453
2.066631908
2.083610382
2.078087951
2.052734911
2.019818683
1.986700817
1.954875697
1.924988506
1.896675809
1.868926289
1.842018363
1.81546784
1.787778744
1.764318498
1.726263211
1.627680487
1.612636533
1.590023052
1.571307306
1.558075881
1.543362502
1.520285678
1.502842689
1.492877599
1.48165953
1.46469636
1.44211979
1.427656057
1.422627086
1.427977908
1.489463014
1.685006575
1.929710945
2.056419833
2.068811374
2.054190448
2.025659811
1.992595554
1.960212247
1.930379761
1.899833706
1.866707304
1.835622518
1.807757033
1.779750144
1.756390948
1.719035952
1.611070039
1.595564219
1.572487728
1.554746388
1.542434872
1.527465826
1.503189091
1.486044007
1.476945003
1.46642961
1.446964829
1.428784268
1.415297929
1.404536154
1.398089666
1.408448741
1.480902448
1.708615331
1.954166547
2.026917067
2.020758657
2.000818581
1.973605099
1.94403376
1.913982181
1.88491562
1.857239192
1.82950235
1.802512756
1.774744348
1.752019345
1.715131049
1.594095149
1.577532785
1.55339993
1.536810683
1.525739371
1.510974565
1.486154537
1.470178889
1.461405088
1.451245284
1.431280167
1.412412907
1.404252076
1.39262838
1.378435568
1.373357591
1.388007399
1.494482332
1.729106783
1.932782681
1.998923435
1.99040037
1.968890932
1.938982857
1.907042563
1.87689574
1.849875657
1.822940239
1.796684206
1.770930191
1.749833398
1.713836576
1.577753743
1.560117244
1.534947482
1.519310827
1.508988446
1.49450167
1.46954416
1.454563825
1.446397614
1.435745946
1.41575632
1.397434567
1.389472773
1.381292066
1.363873011
1.349672994
1.349789869
1.376030873
1.505328309
1.739784046
1.930311701
1.970811886
1.955337362
1.927956021
1.8978556
1.868887911
1.842087756
1.815681387
1.791998003
1.773356906
1.754258763
1.718144605
1.560703805
1.542304136
1.516580869
1.502017758
1.492334419
1.478197688
1.453683226
1.439632395
1.431828472
1.420593301
1.399409165
1.383169755
1.374785922
1.367424122
1.352466594
1.333610511
1.327454406
1.331952573
1.367729725
1.519533411
1.755991879
1.917641827
1.934184761
1.918910495
1.892869289
1.863946956
1.835182011
1.808285027
1.784291143
1.759464305
1.737639821
1.700845992
1.543795872
1.525103346
1.499315015
1.485391006
1.475883694
1.461645094
1.437328178
1.424189874
1.416645992
1.405145304
1.382996969
1.36837069
1.361390306
1.352777777
1.339177693
1.322093442
1.311425253
1.306928984
1.312502814
1.359995932
1.540021116
1.768197275
1.903652938
1.90391094
1.891264769
1.865206163
1.833582117
1.804058201
1.777607505
1.751577828
1.729190295
1.692918686
1.527217958
1.508334378
1.482495798
1.468938352
1.459376011
1.444795979
1.420864787
1.409067515
1.401948974
1.390131099
1.367753588
1.35388445
1.348160626
1.338921221
1.322135374
1.309820284
1.299510502
1.290226476
1.285333507
1.293962896
1.360847123
1.566057234
1.788713162
1.87673126
1.873245231
1.855983197
1.828913241
1.799954561
1.773948184
1.749621547
1.727851224
1.68987449
1.5100084
1.490868635
1.465116008
1.452127208
1.442729627
1.427917708
1.404534254
1.393883451
1.387148263
1.374769257
1.352367506
1.33997466
1.334547146
1.325196
1.306439761
1.294432598
1.288707361
1.278317015
1.266305976
1.262700268
1.277067531
1.37394562
1.594210765
1.790639493
1.849373413
1.840141396
1.81967662
1.793565861
1.767069443
1.740486079
1.719878931
1.685469692
1.492745997
1.473641404
1.448498923
1.436158032
1.426855252
1.411522733
1.388531353
1.378864251
1.372400574
1.359299281
1.337056829
1.326320418
1.320737228
1.310562274
1.291472262
1.279775849
1.275897936
1.268189286
1.25205474
1.243148497
1.245100948
1.270692738
1.396409363
1.623353164
1.792904097
1.823071734
1.81026404
1.787027371
1.760266563
1.732052007
1.71196934
1.679315356
1.475031447
1.455892769
1.431448793
1.419910975
1.410831165
1.394980197
1.372481056
1.363644268
1.357311228
1.343435529
1.321530608
1.312237487
1.306663999
1.29511292
1.276387755
1.266536946
1.261937983
1.255713281
1.241156542
1.226942296
1.222677082
1.226874109
1.264899723
1.422605658
1.640788343
1.788265646
1.793903871
1.782207005
1.758349881
1.729716524
1.706017298
1.670370907
1.457203459
1.43823431
1.415035967
1.404271628
1.395319672
1.378575969
1.356366944
1.348142167
1.341730727
1.326923209
1.306226629
1.298519791
1.29312553
1.280642753
1.262274652
1.254615794
1.249598158
1.24169616
1.229553567
1.215443585
1.207026286
1.203983366
1.210827831
1.265998906
1.448758383
1.669952622
1.768592568
1.766193244
1.751241552
1.725935912
1.70158931
1.666161439
1.439525265
1.420789656
1.398487533
1.388315843
1.379412593
1.361838025
1.340472063
1.333131394
1.326736937
1.311335216
1.292406844
1.285224789
1.279286539
1.265657717
1.247758845
1.24111548
1.236347126
1.226661918
1.213603625
1.204566427
1.194918778
1.186916418
1.182832978
1.193314263
1.276420119
1.476841974
1.685067301
1.742679834
1.734058185
1.71537185
1.693739252
1.6578812
1.422471939
1.403520954
1.382111995
1.372585402
1.363760147
1.345485617
1.325444587
1.318569118
1.311922627
1.295771343
1.278531762
1.271982974
1.265561018
1.250697528
1.234091037
1.227913622
1.2233185
1.21272192
1.198176041
1.191964276
1.185313571
1.173786303
1.164939742
1.164877253
1.185916278
1.296663208
1.515940525
1.685394617
1.716288999
1.705906171
1.687159561
1.652452348
1.40548906
1.38629893
1.365767461
1.356855917
1.348042773
1.329156766
1.310450764
1.303840337
1.296707462
1.279844437
1.264095627
1.257837756
1.250859158
1.234910852
1.219965113
1.214401437
1.209557149
1.198685983
1.184906234
1.178564613
1.17450949
1.163955864
1.149417316
1.143981651
1.146778141
1.181575452
1.326507977
1.538591918
1.681131779
1.692055038
1.682809454
1.651052639
1.388441417
1.368600927
1.348998537
1.340743028
1.331925626
1.312581697
1.295578698
1.289345885
1.28183629
1.264403003
1.250280325
1.24432923
1.236857541
1.219992873
1.206627718
1.201630676
1.196282954
1.184450925
1.172305259
1.166043649
1.161714759
1.153519348
1.137960361
1.128975254
1.126985537
1.134437388
1.18579646
1.359811121
1.572011898
1.665844244
1.665268091
1.646153555
1.370955891
1.350853938
1.332654329
1.32508433
1.316140715
1.296442042
1.280621057
1.274187525
1.265839424
1.247840499
1.235278423
1.229777448
1.222002423
1.204960559
1.19320781
1.188595945
1.182901586
1.169869818
1.15920597
1.154039412
1.148812732
1.140308547
1.127630721
1.1166163
1.111889526
1.111143262
1.121880864
1.201403689
1.39911573
1.585980396
1.644872576
1.633899995
1.353616306
1.333523877
1.316809199
1.30962935
1.300288735
1.280063171
1.265766899
1.259535482
1.250546887
1.232300971
1.221414601
1.216199378
1.207930471
1.190725011
1.18032922
1.175785024
1.169598287
1.155639975
1.145730964
1.141935337
1.136396696
1.125672067
1.115131564
1.10679353
1.09957833
1.095161018
1.095848419
1.118170425
1.229057833
1.429838582
1.59897303
1.62022783
1.336883788
1.316760529
1.301134745
1.293993331
1.283884896
1.26337731
1.25033255
1.244181568
1.234542337
1.21660345
1.207211957
1.202215855
1.19348248
1.176536978
1.16742843
1.162922575
1.156114166
1.141747897
1.132960448
1.129724015
1.124473938
1.112249574
1.101634594
1.097386734
1.090398919
1.081249624
1.077333118
1.08177932
1.117110834
1.260046283
1.475570827
1.588435358
1.32050768
1.300050097
1.285676259
1.278755829
1.267993059
1.247527341
1.236014912
1.229933702
1.219446951
1.201764075
1.193487217
1.18849061
1.179052333
1.162271335
1.154368782
1.150051246
1.142690013
1.1282855
1.121088296
1.11786987
1.112639912
1.100246214
1.089193974
1.086222922
1.081534464
1.070146303
1.062458184
1.062350573
1.069859297
1.128536805
1.296612553
1.512232301
1.303704115
1.282647148
1.269165004
1.262270477
1.25069828
1.230880666
1.220828043
1.214875052
1.20366043
1.186621878
1.179424744
1.174517004
1.164581417
1.148485601
1.141655013
1.137480063
1.129591681
1.115399055
1.109412737
1.106180724
1.100254927
1.088009647
1.078085615
1.074401649
1.070788071
1.061003253
1.048726289
1.046658217
1.048195934
1.064163219
1.142237854
1.385434138
1.286573459
1.265115508
1.253262566
1.246761057
1.234549707
1.215785601
1.206855074
1.200742095
1.188409255
1.172013467
1.16562168
1.160709468
1.150192452
1.134871065
1.128896518
1.124796758
1.116247203
1.102240463
1.097309955
1.094267161
1.087428896
1.074403247
1.066804935
1.062800773
1.058112102
1.049945035
1.039054458
1.033025345
1.032050934
1.035507112
1.057192686
1.241609899
1.268306357
1.247251056
1.236983674
1.230759248
1.218083811
1.200675882
1.19243035
1.18603759
1.172764436
1.157420678
1.151778165
1.146859968
1.13582275
1.121453231
1.116112849
1.112009005
1.102759334
1.089346231
1.085236143
1.082320327
1.074714491
1.061025497
1.055868306
1.052563982
1.04649843
1.037589543
1.030493208
1.024389227
1.018750879
1.018354128
1.021629333
1.127019796
1.251349842
1.23132776
1.222425189
1.216112606
1.202505583
1.186014654
1.178063798
1.171213234
1.156913283
1.142812627
1.137940734
1.133102581
1.121590176
1.108261086
1.103446239
1.099262774
1.089129947
1.076588125
1.07324028
1.070323252
1.061911969
1.048665119
1.044456166
1.041803601
1.034677899
1.023681231
1.019331657
1.015600631
1.008506643
1.004522311
1.002972204
1.053366082
1.233967712
1.215246657
1.207182727
1.200550202
1.186101213
1.170709127
1.16326891
1.156213961
1.141493657
1.128951618
1.124561708
1.119645845
1.107655667
1.095371141
1.090889371
1.086538971
1.075638727
1.064446965
1.061679583
1.058640746
1.049511074
1.0379055
1.034151504
1.031626566
1.024330937
1.01271162
1.008717968
1.006393465
0.9994735517
0.992216121
0.9876615873
1.00923609
1.217410909
1.199768138
1.192205947
1.185051422
1.169607656
1.155379847
1.148547128
1.141370689
1.126410437
1.115364334
1.111376238
1.106313315
1.093796803
1.082650333
1.078552492
1.073974398
1.062353798
1.05253725
1.050079707
1.046718966
1.036851042
1.026775528
1.023022075
1.019760428
1.011759038
1.001186698
0.9969256956
0.9951458649
0.9899675774
0.9812353449
0.9764226782
0.983919985
1.199437305
1.183189266
1.176339997
1.16896244
1.153206371
1.140442577
1.134156667
1.126810743
1.111882017
1.102167169
1.098328641
1.093004925
1.080190317
1.070243364
1.066361865
1.061456009
1.049395216
1.04110035
1.038783118
1.035096437
1.024616466
1.015974423
1.012483135
1.008468783
0.9991344146
0.9906254338
0.9867596751
0.9845426203
0.9804114974
0.9717878242
0.9670439919
0.9672603764
1.181402905
1.166677491
1.160556133
1.153011958
1.137271177
1.125953533
1.120097923
1.112431285
1.0974237
1.08879652
1.085015014
1.079327016
1.066313901
1.057616441
1.053940256
1.048534672
1.036075399
1.028824928
1.026410057
1.022215772
1.011538149
1.0042965
1.00122575
0.9969994965
0.9870305767
0.9802584774
0.9771178281
0.9739120466
0.9694443509
0.9621796879
0.9580263491
0.9541209764
1.16341151
1.150666835
1.145154312
1.13743083
1.12197692
1.111683993
1.105930254
1.097739613
1.08272372
1.075086509
1.071431258
1.065449202
1.05264283
1.045247113
1.041793046
1.035954473
1.02366198
1.017624074
1.015142904
1.010490594
0.9999229854
0.9935872073
0.9904445776
0.9856245483
0.9752098507
0.9691345271
0.9669199464
0.9635741718
0.9583690752
0.9528544624
0.9485949696
0.943206865
1.146248214
1.135240314
1.129998868
1.121735152
1.106239947
1.096891548
1.091332782
1.082690628
1.067962885
1.061327479
1.05786529
1.051616749
1.039288281
1.032908138
1.029483585
1.023022358
1.011093395
1.005551592
1.002796681
0.9976146033
0.9875487913
0.9823781148
0.9794485623
0.9743826289
0.9649165315
0.95925774
0.9572746623
0.9538251564
0.9476217663
0.9426482274
0.9389090725
0.9328242076
1.129618574
1.119930444
1.114721269
1.105798962
1.090521829
1.082103088
1.076785732
1.067843552
1.053809279
1.04800619
1.044662344
1.038143414
1.026507393
1.021137031
1.017834234
1.010967474
0.9998957378
0.9948999704
0.9918659672
0.9861486426
0.9766888799
0.9719113765
0.9687335165
0.9631737103
0.9540808446
0.9485410875
0.9460577915
0.9425918643
0.9356128774
0.930940577
0.9283868208
0.9229659266
1.113018021
1.104340571
1.099105291
1.089433216
1.074576989
1.067287807
1.0623526
1.053297456
1.040185718
1.034985112
1.031628388
1.024649491
1.013663569
1.008753571
1.005352389
0.9981707071
0.9880155212
0.9832169024
0.979971753
0.973815892
0.9648857213
0.960469314
0.9571117782
0.9508963115
0.9421830908
0.9377013678
0.935167864
0.9320128874
0.9253148126
0.9209033102
0.918963293
0.9137090383
1.096380515
1.088540287
1.08332655
1.073125506
1.059304298
1.053002526
1.048361878
1.039240114
1.027130609
1.022364872
1.018966907
1.011663286
1.001579866
0.997166404
0.9936630949
0.9861201965
0.9765633131
0.9716569528
0.9679572648
0.9611981867
0.9529492327
0.9492162753
0.9461221144
0.9402350439
0.9323053296
0.9278814073
0.9249103849
0.9215174033
0.9150800507
0.9114390305
0.9097204661
0.9042544168
1.079532528
1.07282561
1.06788219
1.057547446
1.045003069
1.039282024
1.034640411
1.025212894
1.013833805
1.009135221
1.005458667
0.9975561303
0.9879964339
0.983860778
0.9803551952
0.9727320787
0.9641685598
0.9599372528
0.9564686533
0.9497861596
0.9423618805
0.9385249552
0.9351758866
0.9290022386
0.9211915921
0.9173786154
0.9145099585
0.9108340264
0.9044236537
0.9018295445
0.8999251023
0.8932496927
1.063691327
1.057746741
1.052886843
1.04247259
1.031084433
1.025661076
1.020914392
1.011095967
1.000442297
0.9961592801
0.9925172672
0.9844929582
0.9759509727
0.9720573911
0.9684126228
0.9606684837
0.952541432
0.9480447059
0.9442986814
0.9373198352
0.930682443
0.9272984212
0.9241838364
0.9182649486
0.9113589461
0.9073483214
0.9045927287
0.900756697
0.8952609755
0.8925646698
0.8897215041
0.8826453111
1.048126472
1.042833113
1.037958136
1.02735354
1.01672043
1.011402161
1.006448534
0.9962598474
0.9863305366
0.9822693764
0.9786175562
0.9705739734
0.9626933088
0.9589829882
0.9553040128
0.9474700256
0.9401642426
0.936338356
0.9327904512
0.9263923065
0.9205130176
0.9171410614
0.9138844636
0.9082417664
0.9014093421
0.8976362212
0.8945974427
0.8900778009
0.8838018266
0.8805018564
0.8768270133
0.8739130333
1.032977476
1.028004017
1.023010245
1.012201335
1.002422619
0.9974474334
0.9925180494
0.9822380173
0.9733185607
0.9696347258
0.9659616814
0.9578145628
0.9506583171
0.9471088041
0.9433911805
0.935832809
0.9292104379
0.9252648243
0.9216777026
0.9152558202
0.9096638722
0.906171337
0.9026620897
0.8969685678
0.8906905412
0.8871796377
0.8837265335
0.8777877781
0.8713107474
0.8698233358
0.8681573257
0.8736453177
1.017975394
1.013106506
1.007834932
0.9967124439
0.9876014321
0.9828879759
0.9778890512
0.9676502478
0.959526852
0.9562514924
0.9528268875
0.945275871
0.9388532906
0.9352994083
0.9314304152
0.9238918005
0.9174866765
0.9134339737
0.9096459673
0.9034414907
0.8984692557
0.8951365386
0.8921204965
0.8860236946
0.8799535458
0.8756914304
0.8712660188
0.8628782843
0.8599129379
0.8621668701
0.8654583645
0.9298866428
1.003032983
0.9982901923
0.9928423387
0.9816781615
0.9737692965
0.9696620079
0.9649620658
0.9553339038
0.9480259785
0.9444175484
0.940509765
0.9324583548
0.9261421349
0.9226186148
0.9186512676
0.9114636969
0.9057817071
0.9021267619
0.8984632178
0.8925047429
0.8874379745
0.884360033
0.8806834195
0.8750333016
0.8685186746
0.8645308949
0.8597897018
0.8566337363
0.8574902107
0.867680606
0.9100727167
1.084178838
0.9877418799
0.9832308533
0.9777178122
0.967021586
0.9598528136
0.9558427045
0.9509768202
0.9412371573
0.9344280217
0.9311297729
0.9273452667
0.9197593704
0.9143927532
0.9110805303
0.9072888497
0.9001713397
0.8946747971
0.8907519751
0.8870154886
0.8809344838
0.8768068441
0.8736405066
0.8694380009
0.8614108375
0.8550580933
0.8519248647
0.8524405944
0.856167614
0.8807194498
0.9647255838
1.109174183
1.280941252
0.9730429431
0.9689469045
0.9635475803
0.9533398935
0.9471587051
0.9434563777
0.93854475
0.9292687264
0.9226934262
0.9191433075
0.9150753221
0.9075837785
0.9022186682
0.8988705786
0.8947231605
0.88788639
0.8826962829
0.8792121782
0.8758668301
0.8700740361
0.8657068156
0.8616863513
0.856896536
0.8486014519
0.8484422194
0.8497144836
0.8589778942
0.9195601138
1.037964187
1.176167982
1.269914684
1.326446736
0.9580511264
0.954334161
0.9491458918
0.939846696
0.9340753344
0.9303020774
0.9253408709
0.9160801962
0.9099103683
0.9062688648
0.9018925225
0.8943124857
0.8896066644
0.8866087839
0.8828960107
0.8765698206
0.871996639
0.8687836616
0.864546689
0.8586280531
0.8529066971
0.8495624185
0.8446882333
0.8434765807
0.8466494587
0.8812224507
0.9640599485
1.113961916
1.255264846
1.341991011
1.355133891
1.348119515
0.9445776561
0.9412036735
0.9361204911
0.9271235605
0.9214419128
0.9174415692
0.9118113597
0.9023332169
0.8965744158
0.8934773687
0.8896492453
0.8831196106
0.8790149797
0.8758271333
0.8720277973
0.8650740203
0.8609743652
0.8573147948
0.8524138427
0.8444495776
0.8408823171
0.8414493692
0.8417199525
0.8561817255
0.9119179887
1.056407462
1.218814481
1.298813328
1.334623753
1.364755494
1.366945574
1.360666272
0.9301213349
0.926781949
0.9215559238
0.9128041944
0.9077704832
0.9042791042
0.8991644404
0.8906639366
0.8853162638
0.8820602081
0.8777792243
0.8712845479
0.866755189
0.8639996998
0.859776444
0.8539653156
0.8492551931
0.8445310797
0.8381495015
0.8325380827
0.8336969219
0.8391905872
0.875910586
0.9846819899
1.140925687
1.228404497
1.310685573
1.32751339
1.333151556
1.348085032
1.357597894
1.358990867
0.9174123216
0.9141430112
0.9088213298
0.9003025127
0.8951896048
0.8913676914
0.8858176635
0.8769697854
0.872159901
0.8691580817
0.8653665509
0.8593863324
0.8562147411
0.8529969021
)
;

boundaryField
{
    inlet
    {
        type            calculated;
        value           nonuniform 0();
    }
    outlet
    {
        type            calculated;
        value           nonuniform List<scalar> 
69
(
1.783945364
1.796173334
1.7842229
1.781858856
1.781990942
1.791295902
1.779427341
1.77833332
1.785753177
1.774029419
1.77317591
1.780496393
1.768125635
1.766840706
1.7734333
1.759447739
1.75628529
1.757126938
1.763354956
1.750868938
1.750222101
1.75551201
1.741990288
1.739096934
1.744832831
1.72624539
1.719023311
1.71512769
1.713838399
1.718151588
1.700845152
1.692927089
1.689898006
1.685457652
1.679298899
1.67035588
1.666145727
1.657864879
1.652440959
1.651052191
1.646136376
1.633879343
1.620215361
1.588427656
1.512234418
1.385443313
1.241618183
1.12701835
1.05336556
1.009232608
0.9839100909
0.9672540974
0.9541129945
0.9432014678
0.9328242576
0.9229604718
0.9137023568
0.9042508975
0.8932500845
0.8826544657
0.873924995
0.8736559218
0.9298954796
1.084173142
1.280942494
1.326494947
1.348191824
1.360722258
1.359013843
)
;
    }
    bottom
    {
        type            calculated;
        value           nonuniform List<scalar> 
32
(
3.068057295
3.014806699
2.957544713
2.90151732
2.845578857
2.789443366
2.733195001
2.679184208
2.62968719
2.584081395
2.540961959
2.498132169
2.456598086
2.414633837
2.371623896
2.328886869
2.286452356
2.244396402
2.204048243
2.166266535
2.130779126
2.096709753
2.063344423
2.030611248
1.998628309
1.967270526
1.936670562
1.906976734
1.878096907
1.849337348
1.824965159
1.783951491
)
;
    }
    top
    {
        type            calculated;
        value           nonuniform 0();
    }
    obstacle
    {
        type            calculated;
        value           nonuniform 0();
    }
    defaultFaces
    {
        type            empty;
    }
    procBoundary5to4
    {
        type            processor;
        value           nonuniform List<scalar> 
69
(
3.132596638
3.138707182
3.149586679
3.151909463
3.102943461
2.950385924
2.732805225
2.329724833
2.0669659
1.975948805
1.936283819
1.921718119
1.903668049
1.88351601
1.863267701
1.843625599
1.827385462
1.81054224
1.794236777
1.775559775
1.758263904
1.738088168
1.717206754
1.69896699
1.679924696
1.661844642
1.643204486
1.626118881
1.608812681
1.592079942
1.574385868
1.556467519
1.539126975
1.521444363
1.503789769
1.485931652
1.467977207
1.449924957
1.432657647
1.415551431
1.398538287
1.381087172
1.363544366
1.346721828
1.33056188
1.314443553