/*--------------------------------*- C++ -*----------------------------------*\
  =========                 |
  \\      /  F ield         | OpenFOAM: The Open Source CFD Toolbox
   \\    /   O peration     | Website:  https://openfoam.org
    \\  /    A nd           | Version:  7
     \\/     M anipulation  |
\*---------------------------------------------------------------------------*/
FoamFile
{
    version     2.0;
    format      ascii;
    class       volScalarField;
    location    "1.7";
    object      p;
}
// * * * * * * * * * * * * * * * * * * * * * * * * * * * * * * * * * * * * * //

dimensions      [1 -1 -2 0 0 0 0];

internalField   nonuniform List<scalar> 
22
(
0.9909951779
0.9962073682
0.9706034426
0.9842381818
0.9901479025
0.995678354
0.9757805121
0.9825041293
0.9912007437
0.9943963057
0.9799334288
0.9893203486
0.9970094593
0.9960897681
0.9811605245
0.990677974
0.9964089578
0.9980791892
0.9836738776
0.9889492403
0.9949517535
0.9972223934
)
;

boundaryField
{
    inlet
    {
        type            fixedValue;
        value           nonuniform 0();
    }
    outlet
    {
        type            zeroGradient;
    }
    bottom
    {
        type            slip;
    }
    top
    {
        type            slip;
    }
    obstacle
    {
        type            zeroGradient;
    }
    defaultFaces
    {
        type            empty;
    }
    procBoundary23to17
    {
        type            processor;
        value           nonuniform List<scalar> 5(0.996282124 0.9983693814 0.9705608204 0.9865440431 0.9865440431);
    }
    procBoundary23to22
    {
        type            processor;
        value           nonuniform List<scalar> 5(1.009718794 1.013668496 1.018057693 1.017320907 1.019224679);
    }
    procBoundary23to29
    {
        type            processor;
        value           nonuniform List<scalar> 4(0.9846018041 0.9887515795 0.9938770358 0.9967784761);
    }
}


// ************************************************************************* //
