/*--------------------------------*- C++ -*----------------------------------*\
  =========                 |
  \\      /  F ield         | OpenFOAM: The Open Source CFD Toolbox
   \\    /   O peration     | Website:  https://openfoam.org
    \\  /    A nd           | Version:  7
     \\/     M anipulation  |
\*---------------------------------------------------------------------------*/
FoamFile
{
    version     2.0;
    format      ascii;
    class       volVectorField;
    location    "1";
    object      U;
}
// * * * * * * * * * * * * * * * * * * * * * * * * * * * * * * * * * * * * * //

dimensions      [0 1 -1 0 0 0 0];

internalField   nonuniform List<vector> 
138
(
(2.898022329 -0.1155110538 0)
(2.894533816 -0.1257037287 0)
(2.884698641 -0.1423432295 0)
(2.883875433 -0.1592722044 0)
(2.875200152 -0.1775227463 0)
(2.869235562 -0.1924062187 0)
(2.86397845 -0.2084844564 0)
(2.858852321 -0.2250207089 0)
(2.855571457 -0.2389220099 0)
(2.854032774 -0.2471768523 0)
(2.898023951 0.1154933951 0)
(2.894533111 0.1257057092 0)
(2.884692527 0.1423587018 0)
(2.883876283 0.1592655033 0)
(2.875203149 0.1775275854 0)
(2.869237429 0.1924038255 0)
(2.86397499 0.2084765557 0)
(2.858851461 0.2250179166 0)
(2.855571583 0.2389264157 0)
(2.854032735 0.2471836007 0)
(2.854445642 0.2556458847 0)
(2.856342863 0.2593158441 0)
(2.858586844 0.2646111258 0)
(2.860369384 0.2626431743 0)
(2.859361496 0.2650350513 0)
(2.860081561 0.2613895285 0)
(2.861092224 0.2637412741 0)
(2.932377258 0.1686053447 0)
(2.923841568 0.1976150906 0)
(2.908688395 0.2358491961 0)
(2.905836852 0.2507578259 0)
(2.891295814 0.2797922271 0)
(2.883451261 0.2954705321 0)
(2.874544994 0.3140184823 0)
(2.868476892 0.3115723575 0)
(2.864643795 0.3118380056 0)
(2.861825385 0.3060850827 0)
(2.858759807 0.2999144467 0)
(2.857781418 0.2898153197 0)
(2.859330918 0.2846326071 0)
(2.861072984 0.2821987034 0)
(2.866871188 0.2794826172 0)
(2.870655856 0.2752009657 0)
(2.873977499 0.2718789546 0)
(2.988223073 0.03069921836 0)
(2.984533678 0.0427417936 0)
(2.979602165 0.06075801569 0)
(2.975236119 0.07661936856 0)
(2.967425239 0.1024275653 0)
(2.964154535 0.1197900569 0)
(2.957713223 0.1492220334 0)
(2.956723273 0.1637831826 0)
(2.947665105 0.1883270416 0)
(2.939808574 0.2093217306 0)
(2.930932715 0.2290031514 0)
(2.928780924 0.235703016 0)
(2.912342178 0.2516458022 0)
(2.904509382 0.2607211043 0)
(2.90237459 0.2617315979 0)
(2.899741714 0.2640001401 0)
(2.898602405 0.2667434316 0)
(2.999056965 0.002004591443 0)
(2.998169739 0.004133692102 0)
(2.996511059 0.008323219274 0)
(2.994376864 0.01388061351 0)
(2.990084167 0.02503413139 0)
(2.986600271 0.03629520975 0)
(2.9790488 0.05898267937 0)
(2.975339471 0.07724890218 0)
(2.963456675 0.1142046671 0)
(2.961131173 0.1327064852 0)
(2.947553653 0.1785784088 0)
(2.945847556 0.1919683443 0)
(2.932297953 0.2245146547 0)
(2.93100543 0.2320100923 0)
(2.915522292 0.2604285655 0)
(2.911489362 0.2648329346 0)
(2.904788897 0.2785866965 0)
(2.999988015 2.01872209e-05 0)
(2.999961323 6.967491125e-05 0)
(2.999894571 0.0001909593291 0)
(2.999726626 0.0005240875375 0)
(2.999385213 0.001175154481 0)
(2.998682159 0.002684992941 0)
(2.997460696 0.005267808075 0)
(2.995524078 0.009768180271 0)
(2.992129843 0.01733687929 0)
(2.987342676 0.02925797151 0)
(2.980726596 0.0463108714 0)
(2.974876816 0.06318530888 0)
(2.962732008 0.09526729658 0)
(2.956107726 0.1161758185 0)
(2.944603275 0.1467483803 0)
(2.939252967 0.1647929017 0)
(2.925548071 0.1968729082 0)
(2.999999984 2.229851765e-08 0)
(2.999999907 1.354972613e-07 0)
(2.999999535 7.263358539e-07 0)
(2.999998081 3.050389491e-06 0)
(2.999993004 1.161073818e-05 0)
(2.999977454 3.829752056e-05 0)
(2.999935517 0.0001121301798 0)
(2.999828764 0.0003084112609 0)
(2.9995859 0.0007469803046 0)
(2.999046363 0.001779477398 0)
(2.997999722 0.003790655208 0)
(2.99599122 0.008000402885 0)
(2.992920676 0.01408681071 0)
(2.98776355 0.02582382294 0)
(2.981284807 0.04027252322 0)
(2.972022026 0.06294902522 0)
(2.962986119 0.08163520394 0)
(3 -3.496374068e-11 0)
(3 4.493092922e-11 0)
(3 -2.721162286e-10 0)
(2.999999999 2.138194716e-09 0)
(2.999999993 8.741616862e-09 0)
(2.999999951 7.53010743e-08 0)
(2.999999782 3.319102928e-07 0)
(2.99999901 1.604735616e-06 0)
(2.999996529 5.600193267e-06 0)
(2.999987348 2.157247242e-05 0)
(2.999962804 6.263934e-05 0)
(2.999884843 0.0002035887924 0)
(2.999712365 0.0005066151219 0)
(2.999240244 0.001422108612 0)
(2.998490666 0.002804383538 0)
(2.996410229 0.007208989746 0)
(2.994739943 0.01009522158 0)
(3 -1.545256715e-11 0)
(3 -1.678406894e-11 0)
(3 -1.724316352e-11 0)
(3 -1.780058382e-11 0)
(3 -1.537097906e-11 0)
(3 -7.863619573e-11 0)
(3 4.781496816e-10 0)
(3 -2.562705185e-10 0)
(2.999999997 6.069859605e-09 0)
)
;

boundaryField
{
    inlet
    {
        type            fixedValue;
        value           nonuniform 0();
    }
    outlet
    {
        type            inletOutlet;
        inletValue      nonuniform 0();
        value           nonuniform 0();
    }
    bottom
    {
        type            slip;
    }
    top
    {
        type            slip;
    }
    obstacle
    {
        type            slip;
    }
    defaultFaces
    {
        type            empty;
    }
    procBoundary20to13
    {
        type            processor;
        value           uniform (2.910007115 -0.08872960418 0);
    }
    procBoundary20to14
    {
        type            processor;
        value           nonuniform List<vector> 
11
(
(2.932378203 -0.1685999661 0)
(2.92383548 -0.1976249514 0)
(2.908691225 -0.2358489218 0)
(2.905842063 -0.2507515046 0)
(2.89129344 -0.2797917462 0)
(2.883447587 -0.2954741563 0)
(2.874544489 -0.314018362 0)
(2.868477909 -0.3115702296 0)
(2.864647852 -0.3118432967 0)
(2.861823337 -0.3060861486 0)
(2.854448868 -0.2556457902 0)
)
;
    }
    procBoundary20to19
    {
        type            processor;
        value           nonuniform List<vector> 8((2.910006867 0.08873014516 0) (2.944837376 0.1364814219 0) (2.992624948 0.01841640055 0) (2.999590426 0.0008458966032 0) (2.999996673 5.571203824e-06 0) (2.999999998 1.539009103e-09 0) (3 -2.652378717e-11 0) (3 -1.032935739e-11 0));
    }
    procBoundary20to26
    {
        type            processor;
        value           nonuniform List<vector> 
18
(
(2.999999983 2.376057202e-08 0)
(2.999999899 1.675175087e-07 0)
(2.999999532 7.34162918e-07 0)
(2.999998026 3.331095119e-06 0)
(2.999992115 1.315045557e-05 0)
(2.999975605 4.239371211e-05 0)
(2.999868922 0.000250184496 0)
(2.999881439 0.0002038230492 0)
(3 -2.160228811e-12 0)
(3 -4.334752727e-12 0)
(3 -7.341156141e-12 0)
(3 -9.813047397e-12 0)
(3 -1.120084059e-11 0)
(3 -1.943893163e-11 0)
(3 -1.960226527e-11 0)
(3 -1.978258013e-11 0)
(2.999999983 2.376057202e-08 0)
(3 -2.160461126e-11 0)
)
;
    }
    procBoundary20to27
    {
        type            processor;
        value           nonuniform List<vector> 7((2.954950321 -0.03223992084 0) (2.891290611 0.2398750965 0) (2.896120951 0.2680330958 0) (2.89647942 0.2753879636 0) (2.924419125 0.2213924027 0) (2.936908351 0.1703215542 0) (2.973733333 0.06065783844 0));
    }
}


// ************************************************************************* //
