/*--------------------------------*- C++ -*----------------------------------*\
  =========                 |
  \\      /  F ield         | OpenFOAM: The Open Source CFD Toolbox
   \\    /   O peration     | Website:  https://openfoam.org
    \\  /    A nd           | Version:  7
     \\/     M anipulation  |
\*---------------------------------------------------------------------------*/
FoamFile
{
    version     2.0;
    format      ascii;
    class       volScalarField;
    location    "4.8";
    object      T;
}
// * * * * * * * * * * * * * * * * * * * * * * * * * * * * * * * * * * * * * //

dimensions      [0 0 0 1 0 0 0];

internalField   nonuniform List<scalar> 
2222
(
1.180931956
1.172194456
1.164698236
1.161575165
1.161712187
1.163668088
1.168269363
1.176264574
1.186632321
1.196281573
1.204197781
1.208132823
1.208901614
1.209308137
1.211699382
1.216831496
1.223816792
1.230804486
0.8867422975
0.9822482577
1.077602991
1.111002523
1.118089069
1.121050351
1.117075028
1.112261693
1.109632837
1.112426549
1.116421077
1.121401603
1.12909565
1.138988563
1.148218624
1.156243116
1.160996615
1.163373929
1.164891725
1.168195977
1.173813178
1.181678286
1.190224736
0.8411644264
0.9210011868
1.020431735
1.067974793
1.070999954
1.074984839
1.074560009
1.073312013
1.072149966
1.075197742
1.080386557
1.085653423
1.092050988
1.099482287
1.106746399
1.113789875
1.119078177
1.123175945
1.126631998
1.130403568
1.135949187
1.143196251
1.150882988
0.8261845696
0.8829606381
0.9897286071
1.048005925
1.053167009
1.052907252
1.053781898
1.053234203
1.054235038
1.05824982
1.064307821
1.069399619
1.074125172
1.079766316
1.085135889
1.089623115
1.092505253
1.09520211
1.097876187
1.100601458
1.104696181
1.110579148
1.116831513
0.8107789126
0.8492791911
0.948108241
1.03350571
1.055230624
1.052345421
1.052522362
1.051745635
1.053522348
1.056105682
1.059886647
1.061077514
1.062557118
1.065328949
1.068626423
1.071838602
1.07400665
1.075660717
1.077037749
1.078701893
1.081456273
1.085824795
1.090347552
0.7837898244
0.8102998018
0.8873390414
1.001669293
1.057173259
1.060708116
1.057565993
1.054681105
1.053448309
1.052038473
1.053179699
1.053248479
1.053570064
1.055229928
1.057362445
1.060440538
1.063093253
1.064792022
1.066278595
1.067685459
1.069834179
1.07260675
1.075227097
1.076861196
0.7600535064
0.778428804
0.8336721245
0.9487319416
1.055098575
1.06362457
1.061249883
1.056554395
1.052043529
1.048316447
1.047839402
1.047571824
1.048382019
1.050210511
1.053007714
1.056302778
1.05928551
1.062053643
1.06367311
1.064736537
1.0661302
1.067712829
1.068994524
1.069429899
0.7416124844
0.7443959971
0.7747450434
0.8981896792
1.02324942
1.063665159
1.06167999
1.056409854
1.048586107
1.043540755
1.044046743
1.04535688
1.046967908
1.049312222
1.052393982
1.05630882
1.05858226
1.059942386
1.060140626
1.060549294
1.061385939
1.06220519
1.06270476
1.062387748
0.7266582965
0.7260329292
0.7258027677
0.8054142456
0.9691972975
1.051346089
1.059102545
1.051344935
1.044656323
1.04224507
1.043423247
1.045647442
1.048131157
1.050519722
1.052393047
1.054654225
1.056191871
1.056271907
1.05669439
1.057080491
1.057763942
1.057908899
1.057664944
1.056934801
0.724382461
0.7226932659
0.7178446422
0.723595406
0.8898501812
1.009157726
1.047311481
1.04578688
1.044896175
1.043280116
1.045396694
1.047062637
1.048609168
1.049511518
1.050676606
1.051488046
1.051887897
1.052702985
1.053613922
1.054204315
1.054695619
1.054617283
1.054494475
1.053840617
0.7226889891
0.722335807
0.7195684217
0.7107826503
0.7715163506
0.9649395902
1.03420984
1.044169461
1.046607991
1.046114726
1.046763341
1.046224292
1.047057679
1.047022532
1.046405405
1.046773326
1.047998297
1.049868046
1.052058902
1.052537725
1.0523277
1.052267916
1.052527086
1.052437514
0.7220688878
0.7227106996
0.7196587286
0.7103389348
0.7093125622
0.8856135459
1.025821992
1.046665374
1.047902881
1.044777379
1.045275639
1.044015518
1.042307889
1.040643411
1.041066089
1.042562677
1.045076305
1.048502692
1.050288003
1.050945187
1.051243294
1.051326219
1.051734321
1.051806676
1.051896215
0.7220695746
0.7236847201
0.7191550988
0.7116886822
0.6992842262
0.7674946191
0.9898623687
1.042701917
1.04568472
1.04162215
1.039198511
1.037013683
1.035147635
1.035940782
1.037597534
1.040778168
1.043676511
1.046321275
1.047434572
1.048153456
1.048785745
1.048985904
1.04945778
1.049520413
1.049500765
0.7227926967
0.7238670037
0.7189382385
0.7114745831
0.6986887355
0.6983178029
0.8844025898
1.02441122
1.04037032
1.0323407
1.02947593
1.03004914
1.030998285
1.033634367
1.03643227
1.038903461
1.041614888
1.042831124
1.044347121
1.045263549
1.046072007
1.04633377
1.04681876
1.046602409
1.046161195
0.72369234
0.7236520487
0.7190556059
0.7102165441
0.6992488159
0.6861633226
0.7644824963
0.9557213824
1.022357255
1.020493742
1.024618318
1.027422804
1.029892191
1.033253892
1.035307343
1.03649255
1.03789338
1.039284402
1.041064797
1.042316197
1.043262
1.043145281
1.043408465
1.042935884
1.042453718
0.7239377526
0.7235103871
0.7182779418
0.7101385136
0.6992417933
0.6859188756
0.6951069116
0.8828939517
0.9962966378
1.018043288
1.025287689
1.028137644
1.030665457
1.033024892
1.032753584
1.032617571
1.033979745
1.036446689
1.038752883
1.039803951
1.040235804
1.039951954
1.040309293
1.040224917
1.040454054
0.723952051
0.723408132
0.7177901104
0.7100711336
0.6995879762
0.6859334993
0.6785466952
0.7953992418
0.9753173635
1.022571989
1.02916315
1.029844484
1.031172644
1.029734406
1.028145447
1.029431464
1.031836322
1.034756454
1.037082664
1.037846634
1.038234095
1.038710039
1.039229715
1.03962081
1.040278638
0.7239293916
0.7232171096
0.7176677341
0.7100583747
0.6991098705
0.6866525864
0.6767294431
0.7030945178
0.9204459826
1.020812491
1.031866687
1.031365041
1.028482737
1.024300755
1.025713383
1.028658508
1.031757687
1.034422581
1.036258091
1.036841046
1.037750124
1.03891077
1.03986288
1.040158676
1.040754886
0.7237881169
0.7226835844
0.7177553125
0.709852677
0.6983353886
0.6866902394
0.6760988992
0.6757584095
0.804121267
0.9971962277
1.030041196
1.02764357
1.022478276
1.022596249
1.026454845
1.029900265
1.03298356
1.034498722
1.035404512
1.036669156
1.038579738
1.039777245
1.040895469
1.040798174
1.041136275
1.041247921
0.7226470454
0.7225234998
0.7186530321
0.7093065804
0.6969491162
0.6859067941
0.6775802134
0.6734400816
0.715599862
0.9206538414
1.009863098
1.019647787
1.02065338
1.025734187
1.030435155
1.033372065
1.033835777
1.033827266
1.035256803
1.037821165
1.040127189
1.040697083
1.041328198
1.040993477
1.041041927
1.040674351
0.7216772268
0.722685204
0.7190900204
0.7085898083
0.696157647
0.6851018465
0.6776490375
0.6727185342
0.6794997799
0.8384146396
0.9823800961
1.01622358
1.024689038
1.032522655
1.034850185
1.035415589
1.033315088
1.034199358
1.036939286
1.039388602
1.040979577
1.041005455
1.041032709
1.040534313
1.040352479
1.039890351
0.7215317371
0.7232327933
0.7191772131
0.7081492087
0.695791095
0.6841346425
0.6761352625
0.6737822492
0.6745305745
0.7466078668
0.9573054008
1.018612644
1.033639165
1.037519484
1.037439387
1.033720497
1.034316295
1.035856969
1.038667949
1.040249793
1.040923574
1.041191673
1.041298047
1.041095576
1.041151787
1.041038673
0.7216190477
0.7234584035
0.7191946525
0.7080677646
0.6956114455
0.6837509817
0.6757006382
0.6740398647
0.6739757902
0.6880196611
0.8842843097
1.020093806
1.038507867
1.039972633
1.034244201
1.03401704
1.035137255
1.037264621
1.039676704
1.041271869
1.041673707
1.042820609
1.044270313
1.044357076
1.044348556
1.044108303
0.7216897119
0.723490823
0.7191228893
0.7081265092
0.6953475857
0.6835822967
0.6757199037
0.6734712842
0.673632391
0.6761049848
0.7748921874
0.9989450449
1.039669356
1.0347701
1.034436397
1.036954745
1.040321806
1.041977575
1.042660218
1.043002611
1.044662281
1.046636644
1.048319694
1.048329035
1.048290592
1.047883987
0.7214686734
0.7234832431
0.7189193185
0.7083042244
0.6951528769
0.683408997
0.6757334928
0.6731328676
0.6740488894
0.6747719779
0.7055487492
0.9112776137
1.021577152
1.03294029
1.038837836
1.044972944
1.047148416
1.046628316
1.044511751
1.045305465
1.048612351
1.051038951
1.052526867
1.052172561
1.051551859
1.050930438
1.05016952
0.7205141091
0.723444199
0.7186447863
0.7085578209
0.6948792036
0.6830874709
0.6756580916
0.6729434757
0.6740404653
0.6744802137
0.6836088158
0.8191932377
0.9900463857
1.036655963
1.048902515
1.052087769
1.051159913
1.047647981
1.047154954
1.048955542
1.052686691
1.054562339
1.055492924
1.054993334
1.054267597
1.053501471
1.052087155
0.7200829586
0.7232431015
0.7185269374
0.709304203
0.6942713257
0.6821539583
0.6749511989
0.6727494287
0.6737087378
0.6757818238
0.6808142187
0.7334869317
0.9565354897
1.043851871
1.054491584
1.055045265
1.050365301
1.048953334
1.050224865
1.052104078
1.055263039
1.056398588
1.05656406
1.056031634
1.05568603
1.055138108
1.054051271
0.7199810481
0.722291435
0.7189475393
0.7098862016
0.6939783688
0.6813211437
0.6741279125
0.6718898181
0.6730984148
0.6758868921
0.6808162841
0.692875087
0.8709465046
1.034320193
1.055171885
1.051931645
1.049722681
1.049946596
1.052198483
1.054948422
1.055524484
1.055825707
1.056508098
1.056965441
1.057404856
1.057265672
1.05673902
0.7197187705
0.7206417604
0.7194747207
0.7099360332
0.6942331853
0.6806639763
0.6733378148
0.6710407684
0.6723724375
0.6756762334
0.6818411838
0.687105579
0.7592787863
0.9825434244
1.047807986
1.045479749
1.049762387
1.053875074
1.056624526
1.056543407
1.055515741
1.055887959
1.05747697
1.058376832
1.059528428
1.059495235
1.059186536
0.7190760947
0.7198498926
0.7195030925
0.7098988007
0.6943305997
0.6802416341
0.6728731582
0.6706194544
0.6719559914
0.6755610224
0.6821386343
0.6870653551
0.7026030721
0.8918896968
1.019815178
1.045627416
1.054915145
1.058870583
1.058448834
1.05646038
1.055597528
1.05662313
1.059172307
1.06088158
1.061766485
1.061858666
1.061528094
0.7186384537
0.7196768183
0.7194515355
0.7097872687
0.6942322514
0.6797660447
0.6725613833
0.6704386206
0.6718750789
0.6755580849
0.6822504349
0.6876244706
0.6919241902
0.7977035163
0.9913025264
1.050790008
1.060076054
1.060751767
1.058046638
1.055189013
1.056263432
1.058521055
1.061440149
1.062502179
1.062912944
1.063276231
1.062637795
0.7182933289
0.7198586509
0.7193763594
0.7095769768
0.6939728253
0.6789525177
0.6719033336
0.6699930894
0.6717024562
0.6754375308
0.6822743157
0.6881845205
0.6908420547
0.71738756
0.941275978
1.046669317
1.060219843
1.059288055
1.054755283
1.055183179
1.057977379
1.060825637
1.061693342
1.062506211
1.063049685
1.063626794
1.063034069
1.063698732
0.7171933024
0.7206467816
0.7192327748
0.7092983982
0.6936834353
0.6784113365
0.6711414656
0.6690675515
0.6715417389
0.6753076071
0.6821619509
0.6882789963
0.6909404979
0.6941238169
0.8342611591
1.023903307
1.056727213
1.052150178
1.053565279
1.055736613
1.059909052
1.060629947
1.060696089
1.061052226
1.062530055
1.063259118
1.062444869
1.062898294
0.7156468804
0.7208106287
0.7189734612
0.7090977834
0.6935172536
0.6780920236
0.6709625111
0.6687571095
0.6707950355
0.6751332123
0.6821484555
0.6882775066
0.6912399605
0.6920378239
0.737317811
0.9516868798
1.037226413
1.04731422
1.055216434
1.058943594
1.059873276
1.059462149
1.058203973
1.059452934
1.061553136
1.063231103
1.062500813
1.062736693
0.715211438
0.7207942384
0.7181992331
0.7094920925
0.6937360679
0.6780192965
0.6709203509
0.6686909699
0.6704331931
0.6747608171
0.682106123
0.6881912095
0.6913055113
0.6919676414
0.6971486607
0.8684944146
1.013540706
1.048880955
1.059635914
1.060048752
1.05838761
1.055863962
1.057173762
1.059186412
1.061988362
1.063648984
1.063033165
1.062895524
0.7158791479
0.7205957885
0.7171033387
0.7097006626
0.6942103945
0.6781221222
0.6706706163
0.6683348514
0.6703132999
0.6746181555
0.6819764548
0.6882138835
0.6911957224
0.6919989666
0.6923819035
0.7711729991
0.9892858737
1.052010844
1.059910033
1.059330948
1.05420103
1.054557119
1.057307751
1.060490604
1.062718035
1.064214464
1.063614777
1.063160648
0.7169913631
0.7190343821
0.7164019278
0.7094114897
0.6941775046
0.6781119008
0.670160459
0.6676099165
0.6700847822
0.6745175141
0.6817017495
0.6881816625
0.6910327313
0.6920181046
0.6917200576
0.7036375182
0.9113995426
1.043789806
1.058680129
1.054137203
1.052834879
1.054561816
1.05949387
1.061378583
1.062331738
1.063766155
1.063224607
1.062812951
0.7170269568
0.7158601419
0.7161935352
0.708949031
0.6937448547
0.6777638009
0.6695897765
0.6671247094
0.6694498568
0.6742376276
0.6815880823
0.6881917375
0.6909226212
0.6918312488
0.6915733523
0.691761372
0.795146812
1.001968307
1.049421327
1.048697253
1.053308984
1.057568122
1.060041538
1.060746341
1.060755619
1.062521394
1.062472937
1.062152424
1.063027907
0.7168669667
0.7144100584
0.7163229681
0.7083663275
0.6931507978
0.6770999162
0.6690747195
0.6667898241
0.6691788788
0.6742312128
0.6817516322
0.6881097795
0.6908130782
0.6915412707
0.6916326666
0.6911405465
0.72111209
0.9321427041
1.030378933
1.048791301
1.057695343
1.059393174
1.059324158
1.058248171
1.059067283
1.061349414
1.061397719
1.061154663
1.062053486
0.7166157322
0.7142356235
0.716565721
0.7077682158
0.6930927777
0.6765398152
0.6685924756
0.6664905381
0.6690811028
0.6742693531
0.6818838523
0.6880932588
0.6908910297
0.691448227
0.6916553231
0.6909613993
0.69333323
0.8526690466
1.013885485
1.053981625
1.059783619
1.058947763
1.055649664
1.055409845
1.057769682
1.06024186
1.061398529
1.06098012
1.061813872
0.7152132406
0.7143320841
0.7166254601
0.7073542835
0.6932251222
0.6764611175
0.6683080899
0.6662790097
0.6690441875
0.6745353299
0.6819621767
0.6879244594
0.6906691824
0.6914887569
0.6915261588
0.6910213143
0.6905324568
0.7525682018
0.9830628537
1.052120663
1.059265559
1.055475803
1.052631363
1.054323232
1.05880689
1.060888857
1.060998579
1.06073391
1.061478962
0.712281125
0.7157464273
0.7165250094
0.7069474492
0.6931185089
0.6766529796
0.6683319836
0.6661931531
0.6690556695
0.6747811597
0.6821172951
0.6878498954
0.6905427721
0.6914613758
0.6913803052
0.6909383245
0.690078458
0.6975647036
0.8904082925
1.039110802
1.054309371
1.050034717
1.05222216
1.055856535
1.05922658
1.060749381
1.060715932
1.06067893
1.061472185
0.7111508188
0.7166866584
0.7164022787
0.7066960444
0.6929938007
0.676682695
0.6683499661
0.6661911783
0.6689020092
0.6748487982
0.6820389703
0.6876540014
0.6904558507
0.6913249924
0.69126417
0.6907443049
0.6900357656
0.6897835757
0.7827639267
0.9871925392
1.041264276
1.048044656
1.055227351
1.057908389
1.05879527
1.059613855
1.059814514
1.060018835
1.0605939
0.7111058327
0.7167866231
0.7154111776
0.7065159749
0.6929312105
0.6767171801
0.6683064258
0.6661591603
0.6683309069
0.6748957742
0.6821083767
0.6877227058
0.690458415
0.6912684383
0.6912479607
0.690609295
0.6901447291
0.6895662397
0.7150682635
0.9291858585
1.030345396
1.051944323
1.057691963
1.058414751
1.056232436
1.057075347
1.058576645
1.059503661
1.059765921
0.712046227
0.716412457
0.7130230638
0.7064780271
0.6929249023
0.6767452441
0.6682303788
0.6659386727
0.6681363763
0.6749964257
0.6822489782
0.687786886
0.6906599198
0.6915251757
0.6912858224
0.6906027142
0.6901429892
0.6894635575
0.6914423214
0.8487954202
1.025864526
1.055956826
1.058699073
1.056701942
1.052901618
1.055390415
1.057725887
1.059126923
1.059721425
1.061094266
0.7149357041
0.7140336981
0.7122987168
0.7065256815
0.6929434378
0.6766995577
0.6681068564
0.6658989509
0.6682122715
0.675085115
0.6823478471
0.687899382
0.6908921878
0.6916398346
0.6915542433
0.6908000278
0.6900889
0.6896308343
0.6891145655
0.7451679438
0.9827044298
1.052844909
1.056926216
1.050868382
1.051821938
1.055587095
1.058643436
1.059099815
1.0594374
1.060728687
0.716001866
0.7118770338
0.7123896887
0.7065464476
0.6929083637
0.6766779256
0.6680510445
0.6659460242
0.6683918724
0.6753218713
0.6828891478
0.688257501
0.6909113925
0.6916340683
0.6917341952
0.6911520977
0.6901856925
0.6896575019
0.688943029
0.6952293975
0.8785734928
1.030989038
1.0471855
1.048857464
1.05347248
1.057562811
1.058563171
1.058543151
1.059223567
1.060504257
0.7160272642
0.7114573488
0.7126479466
0.706579678
0.6928902835
0.6766502909
0.6679909654
0.6659681523
0.66860287
0.6757455249
0.683670351
0.6884760447
0.6907450947
0.6915152483
0.6917797423
0.6913005537
0.6902383237
0.6894792115
0.6888426238
0.6885727671
0.7864153085
0.9859037967
1.04119042
1.049555497
1.056020288
1.057246187
1.057836737
1.057850611
1.058241987
1.059276455
0.7159942987
0.7114797509
0.7129069899
0.7065902207
0.6931452203
0.6770219578
0.6680095665
0.6659388417
0.6688251316
0.6760004841
0.6839484867
0.6884742182
0.6906262521
0.6914704893
0.6917454744
0.6913418818
0.6902778295
0.6893815378
0.6890584414
0.6883436831
0.7142084004
0.9395411405
1.041577475
1.054154836
1.055251628
1.056391771
1.055460201
1.056592741
1.057465694
1.058715914
0.7152734673
0.711557367
0.713755578
0.7065983373
0.6933115514
0.6774880086
0.6683057266
0.6660986826
0.6689744334
0.6761489124
0.6840387942
0.6884304854
0.6906188717
0.6914791532
0.6917172342
0.6913298026
0.6902883836
0.6894347246
0.6891032236
0.6883335353
0.6902699503
0.8509837825
1.028437657
1.05468913
1.054605319
1.051627638
1.053651764
1.05605535
1.057402043
1.058513773
0.7127614694
0.7120971883
0.7151060668
0.7064187138
0.6932711923
0.6775486166
0.6683538024
0.6662230646
0.6690488019
0.6761306466
0.6842225945
0.6884804901
0.6906592071
0.6915341862
0.6917300521
0.6913374063
0.6904277911
0.6897988551
0.6892377622
0.6885660574
0.6881310177
0.7455403021
0.9838443936
1.051867751
1.046907793
1.048919884
1.053181155
1.057560438
1.058379976
1.058904843
0.711430628
0.7141597308
0.7154311392
0.7063209416
0.6931648576
0.6774814532
0.6682086943
0.6661609793
0.6690246748
0.6761305707
0.6846229555
0.6888864229
0.690874712
0.6917436823
0.6920022993
0.6916920628
0.6908651263
0.6899695683
0.6893223329
0.6888313006
0.6882460162
0.6958230151
0.8854990951
1.024791971
1.042589692
1.049548614
1.056133656
1.058646428
1.058108736
1.058438485
1.059043803
0.7114626622
0.7153356411
0.7150792508
0.7064675722
0.6928878164
0.6774357827
0.6679734214
0.6660790713
0.669086717
0.6762049741
0.6849757391
0.6894635666
0.6910955735
0.6921200067
0.6924119119
0.692155155
0.6910793526
0.6900066609
0.6893574595
0.6888447722
0.6882358863
0.6884535337
0.7982368693
0.9931647502
1.04394728
1.054729698
1.057740144
1.058220042
1.057595118
1.057566204
1.057692915
0.7122489995
0.7154719987
0.7124673332
0.7067287695
0.6926727225
0.6771726661
0.667828905
0.6660534389
0.6693590514
0.6764214587
0.6851548398
0.6897505366
0.6913734268
0.6922878174
0.6925164159
0.6922560766
0.6911148583
0.6899729193
0.6893721459
0.6887460544
0.6882839434
0.6880445425
0.7180717453
0.9561918897
1.046031329
1.055435907
1.056895044
1.055603889
1.055432788
1.055599085
1.055900481
0.715774502
0.71480059
0.710447275
0.707015942
0.6925727154
0.6768923771
0.6677865102
0.6660385113
0.6701657985
0.676683439
0.6852908323
0.6899851989
0.6915171703
0.6922059631
0.692458256
0.6922083512
0.6910848953
0.6899737828
0.6893814642
0.6887591387
0.6883598022
0.6880535092
0.6905406915
0.8609889874
1.03352944
1.053658372
1.052289216
1.052163546
1.053635571
1.054542843
1.055240064
0.7182568786
0.7129893263
0.7100617028
0.7075110212
0.6925679774
0.6768196552
0.667927699
0.6662953848
0.6708340358
0.676918018
0.6853506084
0.6901400829
0.6915653149
0.6922053546
0.6924506345
0.6921677393
0.6911039368
0.6900496231
0.6894289745
0.688845757
0.6885226526
0.6883738354
0.6882207766
0.7533569253
0.9771850818
1.045295047
1.045810262
1.051299635
1.053631756
1.055033889
1.056102812
0.7187290071
0.7119608109
0.7100237592
0.708135196
0.692973566
0.6768749343
0.6681118478
0.6667217113
0.6712635247
0.677242201
0.6855144211
0.6903059428
0.6916734833
0.6922771358
0.6925380252
0.6922502323
0.6913005804
0.6902671945
0.6897499875
0.6892343151
0.6888498995
0.6887651665
0.6885378456
0.6992995711
0.901783252
1.022781445
1.045617389
1.054527816
1.056405486
1.056580688
1.056866967
0.7189176433
0.7118720474
0.7102828178
0.7089516283
0.6938397834
0.6768128025
0.6681104916
0.6669167456
0.6715887353
0.6777084108
0.6857976175
0.6905888775
0.6918081974
0.6924278781
0.6928376815
0.6927044982
0.6919365313
0.6907558534
0.6900775681
0.6895499765
0.6890401948
0.6888686389
0.6886240344
0.6893292795
0.8166813584
1.003676289
1.050893481
1.057072322
1.056856141
1.056415515
1.056495627
0.7182970581
0.7119519079
0.711998844
0.7090634803
0.6940603211
0.6763031947
0.66771465
0.6665721101
0.6717241891
0.6782240324
0.6862997378
0.6908724996
0.6921109622
0.6927370752
0.693048849
0.6930093153
0.6922691813
0.6909838397
0.6901975501
0.6896549723
0.6890991772
0.6888513134
0.6886917568
0.6885328058
0.7248993774
0.9706876415
1.049940941
1.056218483
1.055920262
1.055164998
1.055153675
0.715252168
0.7122930726
0.7136375179
0.7090971254
0.6935832476
0.6757194005
0.6672477318
0.6664802221
0.6719703521
0.678798207
0.6866778275
0.6910354778
0.6923805802
0.6930016883
0.6930752994
0.6930503985
0.692324962
0.691041995
0.6902143241
0.6896621831
0.6890910757
0.6888524626
0.6887235439
0.6885331735
0.6917697471
0.8718175128
1.038024887
1.052799174
1.050417353
1.050767621
1.052220246
1.055067903
0.7126347671
0.7134453895
0.7138462892
0.7082859469
0.6930186107
0.6752519483
0.6668757027
0.666483752
0.6725140952
0.679572746
0.687012045
0.6911529938
0.6925292423
0.6930923699
0.6930203412
0.6930454289
0.692313027
0.691092199
0.6902467236
0.6896841632
0.6891369847
0.6889321315
0.688874569
0.6887246973
0.6887479365
0.7668004003
0.9855460052
1.038511201
1.043780287
1.048603835
1.051607237
1.054430513
0.7124206868
0.7160629583
0.7132565214
0.706344889
0.6930093969
0.6751181332
0.666832709
0.6666051584
0.6732401171
0.6804844478
0.6873787481
0.6912701297
0.6926196237
0.6930859081
0.693038233
0.6930749448
0.6923986647
0.6912360459
0.6903426878
0.6898077649
0.6893341844
0.6892080591
0.6892555778
0.6891865106
0.689025418
0.7049602926
0.9240187714
1.024862527
1.041994519
1.050424443
1.054074163
1.055477538
0.7129023288
0.7173133317
0.710496418
0.7056752962
0.6934072709
0.6753464964
0.6671092355
0.6669221828
0.6737538421
0.6813027343
0.6877138966
0.6914614167
0.6927662276
0.6931324502
0.6930954001
0.6932024946
0.692617832
0.6916185217
0.6906367068
0.6902594547
0.6898163434
0.6895352021
0.6894907354
0.6893883115
0.6891261913
0.6904152105
0.8402144524
1.018174033
1.046120969
1.055554223
1.058457305
1.058390272
0.7162565775
0.7173825856
0.7087817478
0.7055556611
0.6937230117
0.6761397209
0.6675801511
0.6671988391
0.6738991205
0.6816864362
0.6879766493
0.6917174115
0.6932563081
0.6932980285
0.6932539083
0.6934344477
0.6930438996
0.6920070369
0.6910129093
0.6905471187
0.6900684796
0.6896718467
0.6895701851
0.6894595743
0.6892924043
0.6893202981
0.7382138627
0.9816888037
1.043220829
1.056620157
1.059164584
1.059005088
0.7205586435
0.7173020008
0.7085456507
0.7056278392
0.6937946793
0.6766065097
0.667776591
0.6671608246
0.6733345899
0.6820948804
0.6882946099
0.6921823982
0.6936035764
0.6936786282
0.6934830162
0.6935414942
0.6931822396
0.6921454749
0.6911545431
0.6906610842
0.6901649486
0.6897119959
0.6895910534
0.6894781266
0.6893119671
0.6893025979
0.6944165607
0.883524963
1.031484915
1.055800202
1.058852049
1.05866591
0.7218554923
0.716533966
0.7084192319
0.70562854
0.693761475
0.6767386233
0.6678287921
0.6665020166
0.6730426834
0.6825535495
0.6887638587
0.6925884379
0.6937516456
0.6939313014
0.6936611058
0.6935423509
0.6932113784
0.6921526352
0.6911913964
0.6906742018
0.6902012404
0.6897463772
0.6896475099
0.6895622486
0.6895102015
0.6894685596
0.6898000048
0.7870084446
0.9845308259
1.045311047
1.052768526
1.054271256
0.7220659799
0.7150795293
0.7083149139
0.7056557139
0.6934854983
0.6768552084
0.6678677696
0.6663294365
0.6730469654
0.6833590817
0.6894551814
0.6928107183
0.693860699
0.6940859202
0.693809657
0.6935671389
0.6931956618
0.6921770485
0.6912233314
0.6906940401
0.6902369661
0.6898090007
0.689774902
0.6898076348
0.6897738332
0.6897710182
0.689916346
0.7152635217
0.9344065165
1.027394117
1.048630292
1.051322559
1.052692653
0.7221627792
0.7146778908
0.7087839129
0.7052795844
0.6932122856
0.6775749734
0.6684003024
0.6663352645
0.6731965847
0.6841103888
0.6901026477
0.6929117475
0.6939761668
0.6941761143
0.6938526805
0.6936254284
0.693217976
0.6921867262
0.6912477126
0.6907801202
0.6904282174
0.6900411134
0.6900855075
0.6901337408
0.6900966891
0.6899833551
0.6899653539
0.692299958
0.8613756868
1.014844287
1.049118634
1.051785138
1.051523839
0.7203915483
0.7148361247
0.7112400746
0.7048998632
0.6926226074
0.6781948236
0.6686581728
0.6663538679
0.6734536863
0.6844904911
0.6904463675
0.6929962067
0.6941292569
0.6943782783
0.6939337808
0.6936790794
0.6932576467
0.6923076457
0.6914319913
0.6910269105
0.6906233205
0.6902533076
0.690286431
0.6902849703
0.6902092026
0.6900844341
0.6901276848
0.6903399096
0.760751296
0.9955225723
1.053099901
1.057075429
1.052240227
0.7160749503
0.7151691656
0.7130171713
0.7047278168
0.6922109254
0.6782798823
0.6685943927
0.6662721798
0.6735630891
0.6846421157
0.6905938854
0.6931015875
0.694350049
0.6947500668
0.6942115997
0.6936974466
0.693338721
0.6925674683
0.6915883571
0.6912119771
0.6909020564
0.690444208
0.6903495898
0.6903330777
0.6902410207
0.6900926258
0.6901724344
0.6902304891
0.7023216637
0.9203219328
1.045499562
1.058955124
1.056527781
0.7134437458
0.7165669246
0.7130963454
0.7036337917
0.6918633235
0.6780182713
0.6683960498
0.6661502262
0.6733289362
0.684479939
0.6908261134
0.6934523993
0.6946663655
0.6950417992
0.6946836594
0.6937425761
0.6933870529
0.6927161008
0.6917435226
0.6913295421
0.6909877511
0.6904811863
0.6903240589
0.6903306392
0.6902576633
0.6901234373
0.6902137112
0.6902359887
0.6909560183
0.8140853415
1.011890678
1.058125212
1.05784872
0.7131947756
0.7194079049
0.7127098234
0.7015164357
0.6918482232
0.6775474298
0.6680894469
0.6660192289
0.6729681906
0.684313991
0.6911740626
0.6938341131
0.6949531667
0.6951801816
0.6948403185
0.6938030342
0.6933995222
0.6927634037
0.6917853657
0.6913384171
0.6910356184
0.6905088958
0.6903181758
0.6903862213
0.6903086429
0.6901834057
0.6903140468
0.690390086
0.6903931942
0.7409669669
0.9546229768
1.046849646
1.058115243
0.7143072868
0.7208551751
0.7116865354
0.7007004595
0.6921615349
0.6772393786
0.667819801
0.6660333845
0.6729670103
0.6843817565
0.6916378541
0.6941817839
0.6951367535
0.6952061344
0.6948554206
0.6937064649
0.6933519735
0.6927938129
0.691769683
0.6912346049
0.691093536
0.6905638403
0.6903399037
0.6904587192
0.6904492522
0.690373001
0.6905180138
0.6906316777
0.6905407733
0.6967000653
0.895627622
1.022008567
1.052881246
0.7184865612
0.7208409399
0.7107716894
0.7005354384
0.6917638638
0.6766136136
0.6676795
0.6660857624
0.6731155169
0.6847137489
0.6920148605
0.6944198431
0.6952223152
0.695209044
0.694832348
0.6936125915
0.6931631193
0.692714061
0.6917511622
0.6911866029
0.6911224077
0.6906799962
0.6904218435
0.6905978437
0.6906330816
0.6905178721
0.6906132767
0.6907161752
0.690589475
0.6912593492
0.8087050806
1.002944385
1.044197484
0.7215070001
0.7206466423
0.7106844148
0.7005107617
0.6911601342
0.6758118589
0.6676093007
0.666664445
0.6736385187
0.6849036269
0.6921734922
0.6944299559
0.6950397589
0.6951931257
0.694843039
0.6935792952
0.6930504877
0.692600256
0.6917862936
0.6911591125
0.6911050605
0.6908512419
0.6905084842
0.6906402757
0.6906908538
0.6905385199
0.6906232052
0.6907222808
0.6906131964
0.690521205
0.7238686691
0.970842412
1.039624415
1.048975402
0.7223043673
0.7201485536
0.7107278926
0.700984803
0.6906267452
0.6751415402
0.6674468568
0.6671536626
0.673983104
0.6849165303
0.6921794869
0.694192606
0.6947833209
0.695083305
0.6949166819
0.6937749681
0.6930469698
0.6925576148
0.6918727871
0.691192609
0.6911558719
0.690887474
0.6905002886
0.690628175
0.690687888
0.6905057166
0.6904560801
0.6906611956
0.6905713258
0.6903116495
0.694795457
0.8787002314
1.039979618
1.051594225
0.7225057311
0.7176516018
0.7112758403
0.7011550243
0.6903374824
0.6745621614
0.6671487655
0.6673561982
0.6741919598
0.6844908698
0.6916422755
0.6938862511
0.6947228259
0.6950388238
0.6949833752
0.6939611502
0.6930174541
0.6926163646
0.6918840518
0.6911827291
0.6911542082
0.6908784518
0.6904497923
0.6904496425
0.690630468
0.6902868821
0.690175161
0.6904194941
0.6904297641
0.6901815954
0.690295568
0.7829023267
1.017814097
1.057368071
0.721792112
0.7158043663
0.7121650963
0.7008809121
0.6896831749
0.6739440392
0.6667900321
0.667450739
0.6744666649
0.6839213528
0.6910089045
0.6937693666
0.6947101668
0.6950481138
0.6949885676
0.6939406598
0.6928858981
0.6925774437
0.6918625184
0.6911267209
0.6911091313
0.6908408276
0.6902187757
0.6900535309
0.6903422864
0.6901552041
0.6900780447
0.6903258391
0.6903653415
)
;

boundaryField
{
    inlet
    {
        type            fixedValue;
        value           nonuniform 0();
    }
    outlet
    {
        type            inletOutlet;
        inletValue      nonuniform 0();
        value           nonuniform 0();
    }
    bottom
    {
        type            slip;
    }
    top
    {
        type            slip;
    }
    obstacle
    {
        type            zeroGradient;
    }
    defaultFaces
    {
        type            empty;
    }
    procBoundary21to15
    {
        type            processor;
        value           nonuniform List<scalar> 
23
(
1.2424824
1.232646006
1.225837285
1.222046328
1.217903834
1.217395269
1.220333417
1.227572145
1.233174192
1.237449588
1.24188688
1.245347495
1.246566559
1.247268129
1.24890948
1.252895425
1.257668071
0.9845202409
1.109087538
1.160963079
1.182749788
1.185706733
1.185706733
)
;
    }
    procBoundary21to22
    {
        type            processor;
        value           nonuniform List<scalar> 
70
(
1.261839429
1.234395328
1.196000067
1.156929929
1.121403849
1.093316348
1.093316348
1.079064697
1.069817564
1.06170183
1.056414706
1.053679208
1.052897306
1.052897306
1.051969544
1.049454464
1.046007461
1.042561161
1.040909852
1.040907082
1.041276853
1.041276853
1.041392034
1.040583085
1.040019746
1.041382119
1.044362118
1.047544282
1.047544282
1.050810123
1.052536426
1.054788059
1.05764579
1.060052987
1.062407749
1.06346982
1.06346982
1.063926207
1.063614456
1.063841552
1.064154244
1.064274561