/*--------------------------------*- C++ -*----------------------------------*\
  =========                 |
  \\      /  F ield         | OpenFOAM: The Open Source CFD Toolbox
   \\    /   O peration     | Website:  https://openfoam.org
    \\  /    A nd           | Version:  7
     \\/     M anipulation  |
\*---------------------------------------------------------------------------*/
FoamFile
{
    version     2.0;
    format      ascii;
    class       volScalarField;
    location    "2.8";
    object      T;
}
// * * * * * * * * * * * * * * * * * * * * * * * * * * * * * * * * * * * * * //

dimensions      [0 0 0 1 0 0 0];

internalField   nonuniform List<scalar> 
560
(
0.8747508995
0.8783857835
0.8999218935
0.9322792868
0.9636427467
0.9836896228
1.001651922
1.001964564
1.00401181
1.004846647
1.004837064
1.00542286
1.005865839
1.006040559
1.00596388
1.005793073
0.8757615571
0.875911141
0.8781826284
0.8884234011
0.9182754496
0.9508141651
0.9807441523
0.9894404422
1.0001806
1.003354167
1.004756192
1.005519229
1.006005426
1.005882509
1.005632751
1.005252024
0.8866843654
0.8804763476
0.8779358129
0.8784399171
0.8834247694
0.9009205705
0.929682338
0.9650200298
0.9937331149
0.9984407703
1.001409575
1.003805725
1.00435613
1.003700759
1.004244145
1.004937791
0.8979147194
0.8903567521
0.8817511887
0.879097086
0.8805608269
0.8827763186
0.8909408239
0.9160600574
0.9489631136
0.9719838756
0.9878428681
0.9979243396
0.9987282198
1.000504601
1.003094808
1.004956356
0.9096686779
0.904749441
0.8958709751
0.8879132827
0.8852938672
0.8831211758
0.8826682913
0.8864212036
0.9003552274
0.9332376212
0.9652253168
0.9885080734
0.9943763809
1.00135707
1.004683053
1.004382634
0.9185456293
0.914060014
0.907840778
0.8994166283
0.8923023983
0.8872380112
0.8835350855
0.8845092766
0.8860916778
0.8949119503
0.9145244107
0.9460088206
0.9776596503
0.9966904926
1.001763709
1.000949446
0.9298826812
0.9240554454
0.9199756658
0.9125223276
0.9048650278
0.8989805525
0.8927707601
0.8891643809
0.8865074734
0.88617935
0.8888573205
0.9037604339
0.9331854551
0.9615853208
0.9803713685
0.9941637519
0.9422485648
0.9339259019
0.9286771217
0.9232059219
0.9157186403
0.9088513689
0.9032008498
0.8961003974
0.890706289
0.8871914882
0.887652321
0.8888730475
0.8968798638
0.917820693
0.9477073934
0.9849482236
0.9538840458
0.9445258603
0.9375590183
0.9331950458
0.9271635492
0.9205262154
0.9142185374
0.9079225142
0.902026755
0.8965712478
0.8924057393
0.8890921431
0.8890093728
0.8925288362
0.9048798448
0.9461956943
0.9644112102
0.9569411626
0.9476872284
0.9417177443
0.9368379027
0.9301694622
0.9235568088
0.9173968256
0.911062061
0.9058219615
0.8999920175
0.8939131777
0.8898341628
0.8906610561
0.8919808479
0.9108325747
0.9743970908
0.968124301
0.9587095244
0.9509410501
0.9451398761
0.9402123077
0.9342290117
0.9276554937
0.9216023528
0.9153431567
0.9107503899
0.9055039296
0.8984192
0.894282386
0.8923773348
0.8943405251
0.9842057954
0.9778200935
0.9706412901
0.9617382331
0.9540095365
0.9488127059
0.9432882915
0.9376528598
0.9310589401
0.9242858538
0.918762294
0.9142413076
0.90870802
0.9009513319
0.8945482777
0.8946986551
0.9942608717
0.9869725307
0.9808156142
0.9731520213
0.9644087951
0.9572339531
0.9512535669
0.9459668651
0.9409789183
0.9347146099
0.9277601137
0.9232887726
0.9190178889
0.9130012027
0.9056479872
0.899377311
1.006320469
0.9958852704
0.9895464429
0.9832487546
0.9749533409
0.9676987444
0.9601104441
0.9542078546
0.9491664716
0.9437709732
0.9370926371
0.9303924148
0.9265255859
0.9225743125
0.9165985026
0.9066210257
1.017965919
1.006814609
0.9984404922
0.9917877603
0.9852619701
0.9775816423
0.9697011206
0.9632223888
0.9567768851
0.9522754006
0.946753299
0.9393366236
0.9337700811
0.9303325375
0.9264694845
0.9173474291
1.027060073
1.01886711
1.008571647
0.999816061
0.9940834825
0.9870838375
0.9794467958
0.9722383398
0.9651109927
0.960039934
0.9552701377
0.9495690162
0.9423142775
0.9366390776
0.9333291902
0.9258417767
1.035021248
1.028255018
1.020151177
1.009499461
1.001968653
0.9956929086
0.9892379472
0.9818071525
0.9739245873
0.9677139237
0.962073423
0.9577833896
0.9520877185
0.9451043734
0.94062762
0.9337581954
1.044378463
1.036081629
1.029373511
1.020914353
1.011398983
1.002940058
0.9977031179
0.9910006339
0.9835456225
0.9765273592
0.9693897484
0.9647656187
0.9598911677
0.9540179788
0.9485531208
0.940891689
1.055142065
1.045083478
1.036582704
1.030316543
1.02206781
1.012167928
1.005175158
0.9988499868
0.993030447
0.9856059173
0.9781049009
0.9723180407
0.9666189222
0.9619317971
0.9566984736
0.9482539779
1.064340989
1.055276512
1.045250539
1.037769463
1.030862971
1.022946489
1.013876498
1.005992222
1.000901954
0.9941247327
0.9873248321
0.9804857738
0.9738107406
0.9693906079
0.964322538
0.9556555719
1.072294416
1.064049936
1.055100622
1.045819984
1.038091372
1.031698851
1.023683373
1.014919709
1.00800204
1.001673254
0.9962602353
0.9888095048
0.9820661879
0.9768075238
0.9709573581
0.9629560576
1.080942962
1.071971315
1.064084569
1.055083356
1.046197102
1.038866829
1.03197252
1.024799153
1.016199601
1.008891662
1.003576471
0.9967625261
0.9910824476
0.9842371116
0.9777659636
0.971113768
1.089797855
1.080867339
1.07217261
1.063865432
1.055424683
1.046547669
1.039124675
1.032671791
1.025138035
1.01765306
1.010413389
1.004188452
0.9992706913
0.9908523152
0.9849753566
0.9827140035
1.097005232
1.089561082
1.080512752
1.07198817
1.064021376
1.055553141
1.04730952
1.03966594
1.033153066
1.02624849
1.018205673
1.012229027
1.005306681
0.9972950725
0.994527539
0.9994453176
1.101915632
1.096613474
1.089114019
1.080662342
1.071976886
1.064150607
1.055879497
1.047592234
1.040673935
1.033379742
1.027034696
1.019564486
1.011437973
1.007186976
1.007581542
1.022488823
1.103514994
1.100966858
1.096087397
1.088813894
1.080197038
1.071986569
1.063844514
1.056392276
1.048224709
1.041240791
1.034192767
1.026131484
1.021641087
1.021831659
1.026391995
1.052842972
1.101596442
1.102365666
1.100829095
1.095817718
1.088541811
1.080073134
1.07219488
1.064012325
1.056483364
1.048756672
1.040486865
1.035512144
1.035987835
1.042613033
1.057625508
1.084611881
1.099473094
1.102789707
1.102405343
1.100235951
1.095275647
1.088399045
1.079955279
1.071674528
1.063918148
1.055550513
1.04995688
1.0507056
1.0564969
1.072213959
1.098594704
1.107628454
1.099488076
1.101284343
1.101425197
1.10131585
1.099657792
1.094986777
1.087665524
1.079811074
1.070906222
1.06523458
1.065800625
1.072941637
1.089894284
1.108820433
1.126605323
1.12371463
1.083164106
1.092780319
1.098809669
1.101749059
1.10130802
1.098835553
1.093976125
1.087187419
1.081094822
1.081950607
1.089394574
1.1055615
1.127251006
1.137078417
1.136253921
1.130286251
1.051288817
1.081179963
1.095970914
1.100703372
1.100611425
1.099932223
1.097824124
1.095948637
1.09826883
1.108257563
1.126248707
1.144318672
1.157381507
1.155180756
1.146688255
1.131936587
1.023530302
1.052963622
1.07790317
1.092673722
1.097975906
1.099367886
1.103190742
1.111375458
1.125841034
1.143858152
1.161197597
1.166735887
1.165616849
1.162631185
1.156861482
1.140789503
1.00692154
1.022688495
1.050332794
1.080374621
1.094584738
1.104425365
1.118820832
1.136500067
1.160953952
1.182719555
1.188427242
1.184147661
1.173583004
1.16408003
1.155818749
1.137708599
1.001321181
1.006518464
1.0239805
1.052610265
1.082500411
1.111553463
1.143335786
1.164559194
1.18276547
1.194104883
1.194563413
1.19078898
1.181191662
1.168287886
1.156608958
1.136745265
1.000163521
1.001324479
1.007481316
1.027715072
1.071122311
1.122615034
1.160692745
1.197431264
1.209085061
1.207385153
1.201028057
1.193228309
1.184540485
1.172048649
1.157945762
1.136271481
)
;

boundaryField
{
    inlet
    {
        type            fixedValue;
        value           nonuniform 0();
    }
    outlet
    {
        type            inletOutlet;
        inletValue      uniform 1;
        value           nonuniform List<scalar> 
35
(
1.005789736
1.005245306
1.004932167
1.004952649
1.004377386
1.000943109
0.9941588947
0.9849473006
0.9461911157
0.910836943
0.8943452699
0.8947019427
0.8993790848
0.9066017071
0.9173288455
0.9258421883
0.9337672554
0.9408947276
0.9482473499
0.9556493262
0.9629593896
0.9711166951
0.9827093703
0.999442714
1.022492868
1.052844749
1.084611274
1.107629817
1.123715619
1.130285907
1.131936822
1.140789113
1.137708061
1.136744123
1.136269095
)
;
    }
    bottom
    {
        type            slip;
    }
    top
    {
        type            slip;
    }
    obstacle
    {
        type            zeroGradient;
    }
    defaultFaces
    {
        type            empty;
    }
    procBoundary35to29
    {
        type            processor;
        value           nonuniform List<scalar> 
16
(
0.8876257895
0.9127240646
0.9523638514
0.987276412
0.9968163666
1.001307478
1.005596635
1.006912209
1.007093357
1.006856702
1.006217962
1.005281648
1.005222741
1.005426196
1.005839745
1.006155104
)
;
    }
    procBoundary35to34
    {
        type            processor;
        value           nonuniform List<scalar> 
35
(
0.8754231424
0.879645484
0.8920936851
0.9024398252
0.91543294
0.9265049294
0.9392984679
0.9510413784
0.9605912162
0.9710627768
0.9819590503
0.992940489
1.004921814
1.016118219
1.025543489
1.034105024
1.04412155
1.055363351
1.064328754
1.072172004
1.081246764
1.090175571
1.097402474
1.101999653
1.103941494
1.10436502
1.101470029
1.092418084
1.080866679
1.052216267
1.023550106
1.006504092
1.00121862
1.000155796
1.000012679
)
;
    }
}


// ************************************************************************* //
