/*--------------------------------*- C++ -*----------------------------------*\
  =========                 |
  \\      /  F ield         | OpenFOAM: The Open Source CFD Toolbox
   \\    /   O peration     | Website:  https://openfoam.org
    \\  /    A nd           | Version:  7
     \\/     M anipulation  |
\*---------------------------------------------------------------------------*/
FoamFile
{
    version     2.0;
    format      ascii;
    class       volVectorField;
    location    "4.9";
    object      U;
}
// * * * * * * * * * * * * * * * * * * * * * * * * * * * * * * * * * * * * * //

dimensions      [0 1 -1 0 0 0 0];

internalField   nonuniform List<vector> 
2222
(
(3 -1.227885921e-14 0)
(3 -1.063234347e-14 0)
(3 -9.874674464e-15 0)
(3 -8.223236557e-15 0)
(3 -4.759811046e-15 0)
(3 -4.495766044e-16 0)
(3 1.944737276e-15 0)
(3 2.303837406e-15 0)
(3 1.336202001e-15 0)
(3 -1.184632162e-14 0)
(3 -1.230794818e-14 0)
(3 -1.312902273e-14 0)
(3 -1.088183737e-14 0)
(3 -6.656201411e-15 0)
(3 -5.499526047e-15 0)
(3 -3.000561877e-15 0)
(3 -2.281749509e-15 0)
(3 -2.528937113e-15 0)
(3 -2.220202757e-15 0)
(3 -2.475664051e-15 0)
(3 -2.611056755e-15 0)
(3 -1.305249648e-15 0)
(3 1.103736478e-15 0)
(3 2.3893858e-15 0)
(3 8.085890405e-16 0)
(3 6.242332495e-17 0)
(3 -4.781824219e-15 0)
(3 -8.569172986e-15 0)
(3 -1.020415867e-14 0)
(3 -1.095127111e-14 0)
(3 -1.400794593e-14 0)
(3 -1.47562712e-14 0)
(3 -1.42336273e-14 0)
(3 -1.433615861e-14 0)
(3 -1.49921782e-14 0)
(3 -1.48269904e-14 0)
(3 -1.367111084e-14 0)
(3 -1.133064653e-14 0)
(3 -1.004855939e-14 0)
(3 -9.206460661e-15 0)
(3 -9.135854362e-15 0)
(3 -1.260570506e-14 0)
(3 -1.382248534e-14 0)
(3 -1.515999236e-14 0)
(3 -1.471552469e-14 0)
(3 -1.246639514e-14 0)
(3 -9.364118269e-15 0)
(3 -1.093749053e-14 0)
(3 -1.155553335e-14 0)
(3 -1.149100572e-14 0)
(3 -1.145812538e-14 0)
(3 -1.259777232e-14 0)
(3 -1.30948161e-14 0)
(3 -1.237581588e-14 0)
(3 -1.141512784e-14 0)
(3 -1.154295504e-14 0)
(3 -1.096099812e-14 0)
(3 -1.012156267e-14 0)
(3 -8.411960936e-15 0)
(3 -4.883469515e-15 0)
(3 -2.799004825e-15 0)
(3 -6.387948615e-15 0)
(3 -9.798575081e-15 0)
(3 -1.159498115e-14 0)
(3 -1.265651747e-14 0)
(3 -1.462945199e-14 0)
(3 -1.706935228e-14 0)
(3 -1.885551621e-14 0)
(3 -1.868467613e-14 0)
(3 -1.766562726e-14 0)
(3 -1.658132777e-14 0)
(3 -1.613966868e-14 0)
(3 -1.53848673e-14 0)
(3 -1.376190622e-14 0)
(3 -1.333963347e-14 0)
(3 -1.131849851e-14 0)
(3 -1.01935084e-14 0)
(3 -1.094561659e-14 0)
(3 -1.168706201e-14 0)
(3 -1.203238819e-14 0)
(3 -1.088221066e-14 0)
(3 -9.766851447e-15 0)
(3 -7.419549376e-15 0)
(3 -4.924440031e-15 0)
(3 -4.750249461e-15 0)
(3 -5.602887915e-15 0)
(3 -8.180492532e-15 0)
(3 -9.690641056e-15 0)
(3 -6.067018549e-15 0)
(3 -4.031655766e-15 0)
(3 -1.557676023e-17 0)
(3 4.343561831e-16 0)
(3 1.451081534e-16 0)
(3 -1.211022777e-15 0)
(3 -1.223642044e-15 0)
(3 1.151098919e-15 0)
(3 5.099495964e-15 0)
(3 7.636375225e-15 0)
(3 8.165394425e-15 0)
(3 8.935837436e-15 0)
(3 1.008225999e-14 0)
(3 1.081014881e-14 0)
(3 1.062083034e-14 0)
(3 1.046425185e-14 0)
(3 9.41745598e-15 0)
(3 7.413835332e-15 0)
(3 5.070711452e-15 0)
(3 3.761706276e-15 0)
(3 3.149284685e-17 0)
(3 -1.69791677e-15 0)
(3 -2.116912871e-15 0)
(3 -5.748447744e-15 0)
(3 -6.217945413e-15 0)
(3 -6.325783234e-15 0)
(3 -1.121471323e-14 0)
(3 -1.391014141e-14 0)
(3 -1.567417695e-14 0)
(3 -1.645884143e-14 0)
(3 -1.797374534e-14 0)
(3 -1.853751003e-14 0)
(3 -1.78173067e-14 0)
(3 -1.718065048e-14 0)
(3 -1.655786815e-14 0)
(3 -1.585890251e-14 0)
(3 -1.645511582e-14 0)
(3 -1.769253587e-14 0)
(3 -1.844159044e-14 0)
(3 -1.813672095e-14 0)
(3 -1.783656646e-14 0)
(3 -1.823169163e-14 0)
(3 -1.821793082e-14 0)
(3 -1.837563708e-14 0)
(3 -1.769576462e-14 0)
(3 -1.822032946e-14 0)
(3 -1.890017035e-14 0)
(3 -1.843172997e-14 0)
(3 -1.765524865e-14 0)
(3 -1.72997612e-14 0)
(3 -1.666860382e-14 0)
(3 -1.561226308e-14 0)
(3 -1.535333072e-14 0)
(3 -1.512224841e-14 0)
(3 -1.379813578e-14 0)
(3 -1.193087877e-14 0)
(3 -1.011706187e-14 0)
(3 -8.272182453e-15 0)
(3 -7.143699915e-15 0)
(3 -8.00676121e-15 0)
(3 -8.81770842e-15 0)
(3 -8.794316684e-15 0)
(3 -8.770820805e-15 0)
(3 -8.858024038e-15 0)
(3 -8.637965065e-15 0)
(3 -8.328055024e-15 0)
(3 -7.833008501e-15 0)
(3 -7.018867199e-15 0)
(3 -5.132138715e-15 0)
(3 -7.166518499e-15 0)
(3 -8.240296732e-15 0)
(3 -7.101107279e-15 0)
(3 -2.397942909e-15 0)
(3 -5.054688163e-17 0)
(3 1.73882758e-15 0)
(3 2.681586764e-15 0)
(3 6.041414489e-15 0)
(3 8.008872221e-15 0)
(3 9.443150167e-15 0)
(3 9.936717348e-15 0)
(3 1.08266616e-14 0)
(3 1.071502892e-14 0)
(3 1.059262007e-14 0)
(3 8.465717301e-15 0)
(3 7.010221788e-15 0)
(3 3.580128008e-15 0)
(3 1.458257764e-17 0)
(3 -1.355591737e-15 0)
(3 -1.681409377e-15 0)
(3 -3.817030233e-15 0)
(3 -3.658075141e-15 0)
(3 -3.56067099e-15 0)
(3 -5.170293151e-15 0)
(3 -7.649596173e-15 0)
(3 -1.329061634e-14 0)
(3 -1.736389366e-14 0)
(3 -1.870058667e-14 0)
(3 -1.962462325e-14 0)
(3 -1.975572466e-14 0)
(3 -1.814801551e-14 0)
(3 -1.829999698e-14 0)
(3 -2.004810063e-14 0)
(3 -2.159009503e-14 0)
(3 -2.297241485e-14 0)
(3 -2.528784051e-14 0)
(3 -2.651326983e-14 0)
(3 -2.713270148e-14 0)
(3 -2.676713922e-14 0)
(3 -2.613644768e-14 0)
(3 -2.51071869e-14 0)
(3 -2.264453448e-14 0)
(3 -2.127033387e-14 0)
(3 -1.975078837e-14 0)
(3 -1.926019599e-14 0)
(3 -1.91348839e-14 0)
(3 -2.009086473e-14 0)
(3 -2.20765449e-14 0)
(3 -2.357616734e-14 0)
(3 -2.430630634e-14 0)
(3 -2.316632776e-14 0)
(3 -2.143577467e-14 0)
(3 -1.989477232e-14 0)
(3 -1.722433592e-14 0)
(3 -1.673018096e-14 0)
(3 -1.602660753e-14 0)
(3 -1.384602699e-14 0)
(3 -1.259657603e-14 0)
(3 -1.100080918e-14 0)
(3 -1.066217412e-14 0)
(3 -8.701119682e-15 0)
(3 -8.251229813e-15 0)
(3 -8.284563483e-15 0)
(3 -8.421540632e-15 0)
(3 -8.205388115e-15 0)
(3 -8.523106243e-15 0)
(3 -9.827642536e-15 0)
(3 -1.372987335e-14 0)
(3 -1.271850326e-14 0)
(3 -9.091454187e-15 0)
(3 -8.10041535e-15 0)
(3 -7.116862097e-15 0)
(3 -5.131352974e-15 0)
(3 -2.046067425e-15 0)
(3 2.269273018e-15 0)
(3 5.289819545e-15 0)
(3 7.533391827e-15 0)
(3 9.28004834e-15 0)
(3 1.033855393e-14 0)
(3 1.004807657e-14 0)
(3 9.410003785e-15 0)
(3 8.446278077e-15 0)
(3 6.466577668e-15 0)
(3 3.813029684e-15 0)
(3 2.928325528e-15 0)
(3 2.949032868e-15 0)
(3 3.988708544e-15 0)
(3 3.103259298e-15 0)
(3 -1.021112088e-14 0)
(3 -1.019607491e-14 0)
(3 -9.406917645e-15 0)
(3 -8.631301591e-15 0)
(3 -1.004839892e-14 0)
(3 -1.575387805e-14 0)
(3 -1.865569786e-14 0)
(3 -1.970012603e-14 0)
(3 -2.029218389e-14 0)
(3 -2.21296941e-14 0)
(3 -2.421516125e-14 0)
(3 -2.53624699e-14 0)
(3 -2.600762644e-14 0)
(3 -2.749891352e-14 0)
(3 -2.821470783e-14 0)
(3 -2.861418107e-14 0)
(3 -3.08853986e-14 0)
(3 -3.263908351e-14 0)
(3 -3.13810346e-14 0)
(3 -2.993869212e-14 0)
(3 -2.875239405e-14 0)
(3 -2.699048514e-14 0)
(3 -2.576619864e-14 0)
(3 -2.504509515e-14 0)
(3 -2.531418603e-14 0)
(3 -2.691305142e-14 0)
(3 -2.67258325e-14 0)
(3 -2.652481648e-14 0)
(3 -2.737471239e-14 0)
(3 -2.758911726e-14 0)
(3 -2.541702796e-14 0)
(3 -2.345169394e-14 0)
(3 -1.964105758e-14 0)
(3 -1.738967221e-14 0)
(3 -1.602915001e-14 0)
(3 -1.542853913e-14 0)
(3 -1.492324372e-14 0)
(3 -1.395745883e-14 0)
(3 -1.44954712e-14 0)
(3 -1.543467572e-14 0)
(3 -1.428019079e-14 0)
(3 -1.289230796e-14 0)
(3 -1.31788879e-14 0)
(3 -1.488818606e-14 0)
(3 -1.618707142e-14 0)
(3 -1.752877487e-14 0)
(3 -1.622944455e-14 0)
(3 -1.707048344e-14 0)
(3 -1.538194831e-14 0)
(3 -1.363465116e-14 0)
(3 -9.853507124e-15 0)
(3 -6.226955399e-15 0)
(3 -2.093231756e-15 0)
(3 -1.139826588e-15 0)
(3 4.829886749e-15 0)
(3 7.741661879e-15 0)
(3 9.243066065e-15 0)
(3 1.185599722e-14 0)
(3 1.208902632e-14 0)
(3 1.18936696e-14 0)
(3 1.11539783e-14 0)
(3 1.116212097e-14 0)
(3 1.145901631e-14 0)
(3 1.152210703e-14 0)
(3 1.143091036e-14 0)
(3 1.19829641e-14 0)
(3 2.429608476e-14 0)
(3 -1.614920673e-14 0)
(3 -1.614501019e-14 0)
(3 -1.426089442e-14 0)
(3 -1.199306653e-14 0)
(3 -1.158685287e-14 0)
(3 -1.299819338e-14 0)
(3 -1.610150614e-14 0)
(3 -1.916945765e-14 0)
(3 -1.975029893e-14 0)
(3 -1.984459941e-14 0)
(3 -1.994767845e-14 0)
(3 -1.998484367e-14 0)
(3 -1.981377921e-14 0)
(3 -1.943011708e-14 0)
(3 -1.979739159e-14 0)
(3 -2.092352434e-14 0)
(3 -2.287406783e-14 0)
(3 -2.562206158e-14 0)
(3 -2.544004383e-14 0)
(3 -2.282580039e-14 0)
(3 -2.133446215e-14 0)
(3 -1.949673963e-14 0)
(3 -1.887669197e-14 0)
(3 -1.971140374e-14 0)
(3 -2.269519181e-14 0)
(3 -2.310658019e-14 0)
(3 -2.303849804e-14 0)
(3 -2.317993264e-14 0)
(3 -2.335161438e-14 0)
(3 -2.300717006e-14 0)
(3 -2.19640024e-14 0)
(3 -1.99057164e-14 0)
(3 -1.703103699e-14 0)
(3 -1.5989942e-14 0)
(3 -1.890646673e-14 0)
(3 -1.968992928e-14 0)
(3 -1.974646039e-14 0)
(3 -1.997327596e-14 0)
(3 -1.966161624e-14 0)
(3 -1.795063265e-14 0)
(3 -1.697056847e-14 0)
(3 -1.812349467e-14 0)
(3 -1.995137023e-14 0)
(3 -2.118656614e-14 0)
(3 -1.94478324e-14 0)
(3 -1.765432625e-14 0)
(3 -1.510400027e-14 0)
(3 -1.462637861e-14 0)
(3 -1.409180923e-14 0)
(3 -1.333034757e-14 0)
(3 -1.260195534e-14 0)
(3 -9.886843667e-15 0)
(3 -9.325026305e-15 0)
(3 -6.716752517e-15 0)
(3 -2.853506255e-15 0)
(3 1.766664035e-15 0)
(3 2.942198604e-15 0)
(3 3.666564517e-15 0)
(3 6.137122223e-15 0)
(3 6.811790844e-15 0)
(3 7.225907731e-15 0)
(3 7.917582217e-15 0)
(3 8.774026281e-15 0)
(3 9.140171948e-15 0)
(3 1.399481111e-14 0)
(3 1.383095977e-14 0)
(3 5.007522924e-12 0)
(3 -1.483800419e-14 0)
(3 -1.377757537e-14 0)
(3 -1.344726236e-14 0)
(3 -1.310810822e-14 0)
(3 -1.271661931e-14 0)
(3 -1.302508158e-14 0)
(3 -1.366616823e-14 0)
(3 -1.47578582e-14 0)
(3 -1.572152715e-14 0)
(3 -1.599218534e-14 0)
(3 -1.589184802e-14 0)
(3 -1.433146317e-14 0)
(3 -1.337098052e-14 0)
(3 -1.272543675e-14 0)
(3 -1.293943259e-14 0)
(3 -1.213542711e-14 0)
(3 -1.08114439e-14 0)
(3 -1.18830054e-14 0)
(3 -1.48729404e-14 0)
(3 -1.51599638e-14 0)
(3 -1.408718848e-14 0)
(3 -1.156834114e-14 0)
(3 -1.137051546e-14 0)
(3 -1.156497755e-14 0)
(3 -1.210898844e-14 0)
(3 -1.479871695e-14 0)
(3 -1.596140828e-14 0)
(3 -1.538779356e-14 0)
(3 -1.407612405e-14 0)
(3 -1.026150824e-14 0)
(3 -8.867275943e-15 0)
(3 -7.865328872e-15 0)
(3 -1.105007697e-14 0)
(3 -1.183548991e-14 0)
(3 -1.472823025e-14 0)
(3 -1.576999817e-14 0)
(3 -1.739851817e-14 0)
(3 -1.806230864e-14 0)
(3 -1.744306512e-14 0)
(3 -1.670982164e-14 0)
(3 -1.625394306e-14 0)
(3 -1.792694006e-14 0)
(3 -2.062298586e-14 0)
(3 -2.084107646e-14 0)
(3 -1.971461361e-14 0)
(3 -1.783634468e-14 0)
(3 -1.72903473e-14 0)
(3 -1.607773419e-14 0)
(3 -1.685029312e-14 0)
(3 -1.561702086e-14 0)
(3 -1.44485011e-14 0)
(3 -1.084079505e-14 0)
(3 -9.87798136e-15 0)
(3 -8.561750912e-15 0)
(3 -6.77381279e-15 0)
(3 -3.668455558e-15 0)
(3 -3.776747318e-15 0)
(3 -2.221195757e-15 0)
(3 9.572052466e-16 0)
(3 5.361365823e-15 0)
(3 7.432971414e-15 0)
(3 7.955760104e-15 0)
(3 9.533314975e-15 0)
(3 1.023231203e-14 0)
(3 1.556404847e-14 0)
(3 -4.712577043e-14 0)
(3 4.851937347e-10 0)
(3 -1.272245946e-14 0)
(3 -1.202416982e-14 0)
(3 -1.347055698e-14 0)
(3 -1.50154138e-14 0)
(3 -1.639701025e-14 0)
(3 -1.674944742e-14 0)
(3 -1.499576678e-14 0)
(3 -1.330518643e-14 0)
(3 -1.249246177e-14 0)
(3 -1.271066796e-14 0)
(3 -1.207052091e-14 0)
(3 -1.081097065e-14 0)
(3 -9.690427075e-15 0)
(3 -6.77812979e-15 0)
(3 -5.639327594e-15 0)
(3 -4.449207011e-15 0)
(3 -3.476510558e-15 0)
(3 -3.347852827e-15 0)
(3 -3.703209899e-15 0)
(3 -5.354175292e-15 0)
(3 -6.18531333e-15 0)
(3 -5.735919968e-15 0)
(3 -6.475005222e-15 0)
(3 -7.15883362e-15 0)
(3 -7.885722727e-15 0)
(3 -7.782587828e-15 0)
(3 -7.007335242e-15 0)
(3 -6.320148287e-15 0)
(3 -1.380774291e-15 0)
(3 3.172620714e-15 0)
(3 4.31252001e-15 0)
(3 1.326345089e-15 0)
(3 -1.00635736e-15 0)
(3 -2.927958781e-15 0)
(3 -2.052826028e-15 0)
(3 -2.964377279e-15 0)
(3 -6.844195525e-15 0)
(3 -9.490770708e-15 0)
(3 -1.15972931e-14 0)
(3 -1.214954129e-14 0)
(3 -1.30974278e-14 0)
(3 -1.256726943e-14 0)
(3 -1.308828251e-14 0)
(3 -1.403597212e-14 0)
(3 -1.53014391e-14 0)
(3 -1.54985527e-14 0)
(3 -1.521406461e-14 0)
(3 -1.465280601e-14 0)
(3 -1.340572075e-14 0)
(3 -1.314161303e-14 0)
(3 -1.291999518e-14 0)
(3 -1.309791642e-14 0)
(3 -1.211650805e-14 0)
(3 -1.163169659e-14 0)
(3 -9.575442725e-15 0)
(3 -7.862317737e-15 0)
(3 -4.730891773e-15 0)
(3 6.703017103e-16 0)
(3 8.147818123e-15 0)
(3 1.101452912e-14 0)
(3 1.381850514e-14 0)
(3 1.009510891e-14 0)
(3 1.994749785e-14 0)
(3 -1.785739154e-13 0)
(3 6.396199912e-14 0)
(3 -2.367664162e-10 0)
(3.000000007 8.159031408e-09 0)
(3 -1.55443099e-14 0)
(3 -1.700461556e-14 0)
(3 -1.810309459e-14 0)
(3 -2.027888556e-14 0)
(3 -2.188667925e-14 0)
(3 -2.229963957e-14 0)
(3 -2.087544137e-14 0)
(3 -1.65930601e-14 0)
(3 -1.243750725e-14 0)
(3 -9.213938399e-15 0)
(3 -8.156193733e-15 0)
(3 -1.015338979e-14 0)
(3 -9.162562361e-15 0)
(3 -6.948316949e-15 0)
(3 -3.907094813e-15 0)
(3 -2.139035303e-15 0)
(3 1.735703692e-15 0)
(3 5.498102275e-15 0)
(3 6.235581504e-15 0)
(3 4.622355639e-15 0)
(3 2.85438149e-15 0)
(3 9.081228256e-16 0)
(3 -3.750669178e-16 0)
(3 -1.481969885e-15 0)
(3 -6.237617051e-16 0)
(3 1.458669987e-15 0)
(3 2.213504306e-15 0)
(3 4.372503717e-15 0)
(3 5.324464145e-15 0)
(3 5.582850139e-15 0)
(3 4.826723485e-15 0)
(3 2.915390517e-15 0)
(3 1.539394427e-15 0)
(3 1.772403937e-15 0)
(3 2.236763999e-15 0)
(3 2.717654885e-15 0)
(3 2.544522243e-15 0)
(3 7.862812411e-16 0)
(3 -1.486101234e-15 0)
(3 -5.328643929e-15 0)
(3 -7.943385828e-15 0)
(3 -8.886018037e-15 0)
(3 -8.163022432e-15 0)
(3 -8.902578242e-15 0)
(3 -1.002348661e-14 0)
(3 -1.108985253e-14 0)
(3 -1.083160842e-14 0)
(3 -9.476776557e-15 0)
(3 -7.851929347e-15 0)
(3 -7.316265587e-15 0)
(3 -8.857181136e-15 0)
(3 -1.063665069e-14 0)
(3 -8.873903716e-15 0)
(3 -8.438779151e-15 0)
(3 -4.967396203e-15 0)
(3 -4.629358694e-15 0)
(3 -3.357315132e-15 0)
(3 -4.586840364e-15 0)
(3 4.760530153e-14 0)
(3 -2.781521922e-13 0)
(3 -2.959253264e-13 0)
(3 -1.274568622e-11 0)
(3 -1.084218618e-10 0)
(2.999999999 -1.074576843e-09 0)
(2.999999997 -5.299057429e-09 0)
(2.999999893 -1.991932757e-07 0)
(3.000000059 5.603385435e-08 0)
(3 -1.571891158e-14 0)
(3 -1.953683574e-14 0)
(3 -2.194378449e-14 0)
(3 -2.416095811e-14 0)
(3 -2.375094569e-14 0)
(3 -2.16916457e-14 0)
(3 -1.752247333e-14 0)
(3 -1.403322377e-14 0)
(3 -1.345013889e-14 0)
(3 -1.331563451e-14 0)
(3 -1.256786687e-14 0)
(3 -1.207084847e-14 0)
(3 -1.030249495e-14 0)
(3 -7.811490936e-15 0)
(3 -4.628798546e-15 0)
(3 6.648040578e-16 0)
(3 6.085744473e-15 0)
(3 9.358725391e-15 0)
(3 9.241923169e-15 0)
(3 8.48537871e-15 0)
(3 7.480743834e-15 0)
(3 5.619175006e-15 0)
(3 3.475307976e-15 0)
(3 2.858749961e-15 0)
(3 4.115995254e-15 0)
(3 7.772598898e-15 0)
(3 1.083701808e-14 0)
(3 1.21235691e-14 0)
(3 1.117715444e-14 0)
(3 9.246419147e-15 0)
(3 6.857141992e-15 0)
(3 6.833991092e-15 0)
(3 7.915312187e-15 0)
(3 9.869295444e-15 0)
(3 9.857101631e-15 0)
(3 8.774639377e-15 0)
(3 9.035957952e-15 0)
(3 9.939529292e-15 0)
(3 9.492876397e-15 0)
(3 4.998088289e-15 0)
(3 -2.576768405e-15 0)
(3 -6.517149117e-15 0)
(3 -8.02144221e-15 0)
(3 -7.700766775e-15 0)
(3 -7.409420568e-15 0)
(3 -7.429924658e-15 0)
(3 -6.616727287e-15 0)
(3 -4.427608646e-15 0)
(3 -5.518467408e-15 0)
(3 -4.718113338e-15 0)
(3 -5.44716577e-15 0)
(3 -7.510973629e-15 0)
(3 -1.024300711e-14 0)
(3 -1.754876147e-14 0)
(3 7.996901852e-14 0)
(3 -2.850205891e-13 0)
(3 -1.749360013e-12 0)
(3 -2.699391722e-11 0)
(3 -2.479045365e-10 0)
(2.999999999 -1.904780241e-09 0)
(2.999999992 -1.224571385e-08 0)
(2.999999958 -6.809547007e-08 0)
(2.999999799 -3.362936489e-07 0)
(2.999999109 -1.505314646e-06 0)
(2.999996891 -5.364366003e-06 0)
(2.999980032 -3.839308966e-05 0)
(2.999988946 -1.68609718e-05 0)
(3 -1.32577574e-14 0)
(3 -1.404457191e-14 0)
(3 -1.262635561e-14 0)
(3 -1.094101949e-14 0)
(3 -9.669231945e-15 0)
(3 -8.935495695e-15 0)
(3 -8.001540092e-15 0)
(3 -8.005659147e-15 0)
(3 -7.313811601e-15 0)
(3 -3.605729228e-15 0)
(3 -2.61259562e-15 0)
(3 -1.904283188e-15 0)
(3 -4.621407435e-16 0)
(3 1.295164667e-15 0)
(3 4.121780632e-15 0)
(3 4.9651988e-15 0)
(3 5.212097009e-15 0)
(3 5.429516218e-15 0)
(3 4.907919329e-15 0)
(3 4.241453254e-15 0)
(3 4.399821505e-15 0)
(3 4.815938304e-15 0)
(3 8.652551658e-15 0)
(3 9.869371894e-15 0)
(3 1.081911157e-14 0)
(3 1.202806446e-14 0)
(3 1.192214677e-14 0)
(3 1.123509175e-14 0)
(3 1.019381233e-14 0)
(3 8.553443952e-15 0)
(3 7.790190927e-15 0)
(3 8.435014654e-15 0)
(3 8.870161561e-15 0)
(3 7.109676195e-15 0)
(3 6.419895002e-15 0)
(3 6.362057482e-15 0)
(3 8.174539257e-15 0)
(3 1.09232457e-14 0)
(3 1.181846602e-14 0)
(3 9.92055533e-15 0)
(3 8.432341626e-15 0)
(3 6.608059789e-15 0)
(3 7.080281873e-16 0)
(3 -3.58542294e-15 0)
(3 -5.588170999e-15 0)
(3 -4.566065569e-15 0)
(3 -6.344222521e-15 0)
(3 -5.297040173e-15 0)
(3 -8.000060889e-15 0)
(3 2.300240197e-14 0)
(3 -3.563094045e-13 0)
(3 2.102852903e-14 0)
(3 -6.135606824e-12 0)
(3 -5.971115038e-11 0)
(3 -5.463438298e-10 0)
(2.999999998 -3.748441148e-09 0)
(2.999999986 -2.311144869e-08 0)
(2.999999925 -1.216989757e-07 0)
(2.999999655 -5.787509651e-07 0)
(2.999998577 -2.426517484e-06 0)
(2.999994745 -9.108319338e-06 0)
(2.999982169 -3.196682449e-05 0)
(2.999947627 -9.399925054e-05 0)
(2.999849537 -0.000283446567 0)
(2.999647065 -0.000660358284 0)
(2.999061137 -0.001913208411 0)
(2.998627847 -0.002621323201 0)
(3 -1.415027962e-15 0)
(3 -1.802604302e-15 0)
(3 1.522024912e-16 0)
(3 1.604172254e-15 0)
(3 1.200059301e-15 0)
(3 1.813913752e-16 0)
(3 -2.91791651e-15 0)
(3 -4.973775856e-15 0)
(3 -4.843945968e-15 0)
(3 -4.371059675e-15 0)
(3 -4.172396607e-15 0)
(3 -4.82889209e-15 0)
(3 -4.217405827e-15 0)
(3 -3.886137072e-15 0)
(3 -1.656863319e-15 0)
(3 -1.171870125e-15 0)
(3 -1.142314754e-15 0)
(3 -2.309995687e-15 0)
(3 -1.883291563e-15 0)
(3 1.064519022e-15 0)
(3 2.741939736e-15 0)
(3 3.185010502e-15 0)
(3 7.713557484e-15 0)
(3 1.110006492e-14 0)
(3 1.332558635e-14 0)
(3 1.276320929e-14 0)
(3 1.151259888e-14 0)
(3 9.035339207e-15 0)
(3 7.472120082e-15 0)
(3 6.904393676e-15 0)
(3 6.706604855e-15 0)
(3 6.428435322e-15 0)
(3 6.107997403e-15 0)
(3 6.228296848e-15 0)
(3 7.196177333e-15 0)
(3 8.866380354e-15 0)
(3 1.00896591e-14 0)
(3 1.149170499e-14 0)
(3 1.21338635e-14 0)
(3 1.307748172e-14 0)
(3 1.249528558e-14 0)
(3 9.858053894e-15 0)
(3 1.002217539e-14 0)
(3 7.683192699e-15 0)
(3 9.927092605e-15 0)
(3 -4.049071625e-14 0)
(3 8.349915711e-14 0)
(3 -1.172129785e-12 0)
(3 -1.294957744e-11 0)
(3 -1.480021236e-10 0)
(2.999999999 -1.11178051e-09 0)
(2.999999995 -7.749640373e-09 0)
(2.999999973 -4.33078276e-08 0)
(2.999999865 -2.234319796e-07 0)
(2.999999411 -9.852073503e-07 0)
(2.999997657 -4.039362588e-06 0)
(2.999991714 -1.439972757e-05 0)
(2.999973054 -4.860689344e-05 0)
(2.999922139 -0.0001407036455 0)
(2.999792281 -0.0003937049638 0)
(2.999498896 -0.000946111452 0)
(2.998888949 -0.002211234539 0)
(2.997720932 -0.00454243707 0)
(2.995749943 -0.008864290193 0)
(2.992632732 -0.01530086712 0)
(2.987821026 -0.02665384915 0)
(2.982511867 -0.03802185431 0)
(3 1.218896814e-14 0)
(3 1.157513662e-14 0)
(3 1.010333662e-14 0)
(3 8.276147233e-15 0)
(3 7.632658743e-15 0)
(3 6.548430912e-15 0)
(3 4.477695957e-15 0)
(3 2.375603202e-15 0)
(3 2.119079399e-15 0)
(3 -3.24850321e-16 0)
(3 -2.082655863e-15 0)
(3 -1.46585738e-15 0)
(3 -1.708175526e-15 0)
(3 -1.266788095e-15 0)
(3 -1.83612914e-15 0)
(3 -2.168342584e-15 0)
(3 -4.716034909e-15 0)
(3 -5.243810594e-15 0)
(3 -4.762426883e-15 0)
(3 -2.632647588e-15 0)
(3 -9.771635723e-16 0)
(3 -9.104544687e-16 0)
(3 1.275943494e-15 0)
(3 6.022537398e-15 0)
(3 8.605949614e-15 0)
(3 7.746213746e-15 0)
(3 7.177557462e-15 0)
(3 7.054410644e-15 0)
(3 6.581999584e-15 0)
(3 5.307893649e-15 0)
(3 3.905417189e-15 0)
(3 2.677634509e-15 0)
(3 2.698190741e-15 0)
(3 4.331972506e-15 0)
(3 7.10522118e-15 0)
(3 1.146185906e-14 0)
(3 1.115651781e-14 0)
(3 1.218952161e-14 0)
(3 1.327377958e-14 0)
(3 1.65690143e-14 0)
(3 -1.198493333e-14 0)
(3 1.195848946e-13 0)
(3 -3.725803956e-13 0)
(3 -2.214078682e-12 0)
(3 -3.784533401e-11 0)
(3 -3.269341821e-10 0)
(2.999999998 -2.459942434e-09 0)
(2.999999991 -1.494535823e-08 0)
(2.999999948 -8.50305628e-08 0)
(2.999999763 -3.916057806e-07 0)
(2.999998977 -1.745415505e-06 0)
(2.999996148 -6.644407229e-06 0)
(2.999986764 -2.338145509e-05 0)
(2.999959666 -7.255962664e-05 0)
(2.999884114 -0.0002131513794 0)
(2.999709722 -0.000549554027 0)
(2.999307336 -0.001332452935 0)
(2.998558199 -0.002863683389 0)
(2.997018237 -0.006038635121 0)
(2.994855356 -0.01073193538 0)
(2.990647099 -0.01990152981 0)
(2.986393387 -0.02965475237 0)
(2.978313633 -0.04816741269 0)
(2.972568142 -0.06304285109 0)
(2.959499599 -0.09419432414 0)
(2.95378538 -0.1092408741 0)
(2.941074856 -0.138201674 0)
(3 2.469955167e-14 0)
(3 2.506558903e-14 0)
(3 2.268630913e-14 0)
(3 1.779028618e-14 0)
(3 1.604482958e-14 0)
(3 1.432304627e-14 0)
(3 1.307823056e-14 0)
(3 9.437372165e-15 0)
(3 8.370610242e-15 0)
(3 6.699019237e-15 0)
(3 5.841103445e-15 0)
(3 4.79975277e-15 0)
(3 3.7033818e-15 0)
(3 1.201540961e-15 0)
(3 -1.656807468e-15 0)
(3 -5.041071214e-15 0)
(3 -6.349962473e-15 0)
(3 -6.179352311e-15 0)
(3 -6.516154932e-15 0)
(3 -5.202581912e-15 0)
(3 -4.441622006e-15 0)
(3 -4.897855162e-15 0)
(3 -3.448449824e-15 0)
(3 -2.128112125e-15 0)
(3 -9.030672044e-16 0)
(3 1.925784888e-15 0)
(3 3.772729909e-15 0)
(3 6.27503214e-15 0)
(3 6.421741059e-15 0)
(3 6.68460956e-15 0)
(3 5.137455217e-15 0)
(3 8.935650899e-16 0)
(3 2.893632915e-15 0)
(3 1.928919408e-15 0)
(3 5.517108201e-15 0)
(3 1.385005536e-14 0)
(3 -1.374050146e-14 0)
(3 1.279249594e-13 0)
(3 -7.445175564e-13 0)
(3 -7.243742762e-12 0)
(3 -9.363060882e-11 0)
(3 -7.465753953e-10 0)
(2.999999997 -5.16700512e-09 0)
(2.999999981 -3.090636221e-08 0)
(2.999999904 -1.56516197e-07 0)
(2.999999564 -7.294825327e-07 0)
(2.99999825 -2.993788967e-06 0)
(2.99999364 -1.109667756e-05 0)
(2.999979184 -3.654633917e-05 0)
(2.999937427 -0.0001161731517 0)
(2.999834906 -0.0003038646514 0)
(2.999587197 -0.0007879255951 0)
(2.99905316 -0.001833444844 0)
(2.998071959 -0.003911741827 0)
(2.996325323 -0.007438170409 0)
(2.99358398 -0.01349031924 0)
(2.988738571 -0.02409831771 0)
(2.983935238 -0.03556315643 0)
(2.975628186 -0.05472758693 0)
(2.969499472 -0.06970352023 0)
(2.956649499 -0.1003580157 0)
(2.951068222 -0.1159839645 0)
(2.937939478 -0.1503451522 0)
(2.935386027 -0.1571015797 0)
(2.92539384 -0.180787175 0)
(2.921865748 -0.1910371883 0)
(2.914695922 -0.2111719397 0)
(3 2.714912675e-14 0)
(3 2.56682869e-14 0)
(3 2.413492779e-14 0)
(3 2.220824044e-14 0)
(3 1.644526049e-14 0)
(3 1.5345023e-14 0)
(3 1.42072094e-14 0)
(3 1.208667768e-14 0)
(3 1.19143191e-14 0)
(3 1.126638458e-14 0)
(3 8.622333642e-15 0)
(3 5.974902627e-15 0)
(3 4.687337443e-15 0)
(3 2.156643094e-15 0)
(3 6.64871939e-16 0)
(3 -2.1182886e-15 0)
(3 -3.652637753e-15 0)
(3 -5.423644151e-15 0)
(3 -8.592924211e-15 0)
(3 -8.555217001e-15 0)
(3 -8.305853928e-15 0)
(3 -6.114864018e-15 0)
(3 -4.244126379e-15 0)
(3 -3.449756265e-15 0)
(3 -1.782551814e-15 0)
(3 7.284998244e-16 0)
(3 3.922823843e-15 0)
(3 3.479061103e-15 0)
(3 6.867862458e-15 0)
(3 6.057889057e-15 0)
(3 7.619365083e-15 0)
(3 -1.238926937e-14 0)
(3 8.88127212e-14 0)
(3 -3.763659281e-13 0)
(3 -1.49970192e-12 0)
(3 -2.318485938e-11 0)
(3 -2.2587892e-10 0)
(2.999999999 -1.707337317e-09 0)
(2.999999993 -1.076296184e-08 0)
(2.999999962 -6.286879847e-08 0)
(2.999999821 -2.916364276e-07 0)
(2.999999209 -1.332420327e-06 0)
(2.999996948 -5.266595001e-06 0)
(2.999989678 -1.801513234e-05 0)
(2.999966699 -5.938016652e-05 0)
(2.999905101 -0.0001758350272 0)
(2.999758015 -0.0004482584252 0)
(2.999417372 -0.001124294729 0)
(2.99869848 -0.002564169345 0)
(2.997537944 -0.004939228885 0)
(2.995137437 -0.01010901549 0)
(2.99194917 -0.01698029574 0)
(2.986674603 -0.02836961982 0)
(2.981799695 -0.04059550816 0)
(2.971148382 -0.0670788707 0)
(2.964883258 -0.08026846908 0)
(2.952000309 -0.1101805597 0)
(2.948230863 -0.1256687143 0)
(2.932632244 -0.1649173703 0)
(2.928622645 -0.1751170037 0)
(2.916307106 -0.2043992838 0)
(2.917419397 -0.2102386637 0)
(2.907357372 -0.2335202392 0)
(2.907096865 -0.2381880598 0)
(2.900692001 -0.2510529999 0)
(2.899498037 -0.2536749324 0)
(2.8965556 -0.2626913255 0)
(3 2.038275051e-14 0)
(3 1.973910533e-14 0)
(3 2.002641908e-14 0)
(3 2.041286565e-14 0)
(3 2.003803371e-14 0)
(3 1.810003408e-14 0)
(3 1.998405182e-14 0)
(3 1.992303844e-14 0)
(3 2.118037957e-14 0)
(3 1.83998986e-14 0)
(3 1.716339507e-14 0)
(3 1.361602829e-14 0)
(3 7.907761826e-15 0)
(3 2.44527327e-15 0)
(3 3.294620857e-16 0)
(3 -3.511246491e-15 0)
(3 -6.650360677e-15 0)
(3 -8.358209441e-15 0)
(3 -9.888830975e-15 0)
(3 -1.165409386e-14 0)
(3 -1.283095947e-14 0)
(3 -1.269892011e-14 0)
(3 -1.100657502e-14 0)
(3 -1.066453453e-14 0)
(3 -8.130137103e-15 0)
(3 -6.635014283e-15 0)
(3 -4.746048819e-16 0)
(3 -2.257978816e-14 0)
(3 -4.920146446e-14 0)
(3 -6.687463299e-15 0)
(3 -5.810075999e-12 0)
(3 -6.21506847e-11 0)
(3 -5.378844605e-10 0)
(2.999999998 -3.913446965e-09 0)
(2.999999986 -2.274994149e-08 0)
(2.999999924 -1.232278096e-07 0)
(2.999999657 -5.707942486e-07 0)
(2.999998612 -2.346069221e-06 0)
(2.999994725 -9.117337585e-06 0)
(2.999982899 -3.012353447e-05 0)
(2.999947904 -9.420342489e-05 0)
(2.999855571 -0.0002658716272 0)
(2.999645017 -0.0006653086937 0)
(2.999179005 -0.001616398282 0)
(2.998252692 -0.003430391191 0)
(2.996784899 -0.006495542244 0)
(2.993797441 -0.01299404419 0)
(2.990094592 -0.02075136857 0)
(2.98431246 -0.03424594886 0)
(2.977610079 -0.04979750331 0)
(2.968523735 -0.06981308909 0)
(2.961798779 -0.08770552456 0)
(2.947580539 -0.1248728145 0)
(2.942162535 -0.1373039572 0)
(2.936595341 -0.1523828431 0)
(2.927810155 -0.1736215567 0)
(2.917632576 -0.2061004418 0)
(2.916306694 -0.2051546986 0)
(2.914755557 -0.2091864184 0)
(2.912537452 -0.2172217154 0)
(2.907738344 -0.2288382222 0)
(2.908235158 -0.2317929464 0)
(2.90346047 -0.23760142 0)
(2.901004081 -0.2410332821 0)
(2.898827543 -0.243750161 0)
(2.89773785 -0.2451948066 0)
(2.896020108 -0.2490479591 0)
(3 1.539601799e-14 0)
(3 1.442753599e-14 0)
(3 1.467093682e-14 0)
(3 1.566579045e-14 0)
(3 1.873459738e-14 0)
(3 2.028399675e-14 0)
(3 1.932855517e-14 0)
(3 1.906930962e-14 0)
(3 1.930504784e-14 0)
(3 1.800161082e-14 0)
(3 1.657371072e-14 0)
(3 1.542815311e-14 0)
(3 1.225190588e-14 0)
(3 2.012975496e-15 0)
(3 -5.956504555e-15 0)
(3 -5.613115355e-15 0)
(3 -4.858601417e-15 0)
(3 -9.611141259e-15 0)
(3 -1.114431255e-14 0)
(3 -1.0225536e-14 0)
(3 -1.107241325e-14 0)
(3 -1.278455484e-14 0)
(3 -9.580478934e-15 0)
(3 -1.672144779e-14 0)
(3 -3.145841173e-13 0)
(3 -7.156595586e-13 0)
(3 -1.610770957e-11 0)
(3 -1.692980451e-10 0)
(2.999999999 -1.246459162e-09 0)
(2.999999995 -8.677499814e-09 0)
(2.99999997 -4.804961242e-08 0)
(2.999999855 -2.363405842e-07 0)
(2.999999343 -1.108329872e-06 0)
(2.999997515 -4.22354576e-06 0)
(2.999991122 -1.542390575e-05 0)
(2.999971358 -5.110987141e-05 0)
(2.999919197 -0.0001467346976 0)
(2.999783927 -0.0004031560864 0)
(2.999477601 -0.0009870062742 0)
(2.998863049 -0.002233561744 0)
(2.997654603 -0.004682340141 0)
(2.995649401 -0.008807458837 0)
(2.992209458 -0.01653534447 0)
(2.988314893 -0.02470071886 0)
(2.980915836 -0.04168998673 0)
(2.973393127 -0.06064213059 0)
(2.964881684 -0.07838645071 0)
(2.954980638 -0.1024969725 0)
(2.944342571 -0.1330109238 0)
(2.938161348 -0.1490775308 0)
(2.922634041 -0.1844251777 0)
(2.921254339 -0.1934241396 0)
(2.917098004 -0.2098473307 0)
(2.907096607 -0.2330019706 0)
(2.902940754 -0.2447868003 0)
(2.905118984 -0.2444111898 0)
(2.899012086 -0.2555652758 0)
(2.89621783 -0.2609850264 0)
(2.894133214 -0.2626700519 0)
(2.893757465 -0.2630272782 0)
(2.893116943 -0.2624539275 0)
(2.892466748 -0.2605935522 0)
(2.891554052 -0.2576817427 0)
(2.890929748 -0.2548257339 0)
(2.890896364 -0.2534454779 0)
(2.890986138 -0.2528185515 0)
(2.891241895 -0.2526574022 0)
(3 1.541776183e-14 0)
(3 1.661794282e-14 0)
(3 1.808404925e-14 0)
(3 1.889195449e-14 0)
(3 1.765636952e-14 0)
(3 1.764528376e-14 0)
(3 1.697001154e-14 0)
(3 1.595806848e-14 0)
(3 1.466871337e-14 0)
(3 1.412526487e-14 0)
(3 1.234732126e-14 0)
(3 1.032338639e-14 0)
(3 8.123833009e-15 0)
(3 4.382472328e-15 0)
(3 1.630835883e-15 0)
(3 5.124073632e-15 0)
(3 5.804466487e-15 0)
(3 7.132042013e-16 0)
(3 -2.543620898e-14 0)
(3 7.341367826e-14 0)
(3 -1.26250467e-13 0)
(3 -4.258423117e-12 0)
(3 -4.430783993e-11 0)
(3 -4.262030968e-10 0)
(2.999999998 -3.038876623e-09 0)
(2.999999988 -1.845042487e-08 0)
(2.999999938 -1.01748006e-07 0)
(2.999999716 -4.673426387e-07 0)
(2.999998801 -2.019399196e-06 0)
(2.999995495 -7.719033405e-06 0)
(2.999985133 -2.605514813e-05 0)
(2.999953536 -8.373440638e-05 0)
(2.999872547 -0.0002302668213 0)
(2.999677187 -0.0006122591554 0)
(2.999241155 -0.001459410384 0)
(2.998440924 -0.003030143956 0)
(2.996869984 -0.006411752026 0)
(2.994353303 -0.01144432418 0)
(2.990342522 -0.02043539231 0)
(2.985308016 -0.03226948849 0)
(2.978422501 -0.04632693448 0)
(2.969417871 -0.06813703924 0)
(2.960690138 -0.09102280882 0)
(2.95100565 -0.1129219829 0)
(2.941236787 -0.139781716 0)
(2.938454837 -0.1494578584 0)
(2.925162699 -0.1781135913 0)
(2.918283092 -0.2035538468 0)
(2.917908268 -0.2011674344 0)
(2.916569784 -0.2050758198 0)
(2.909349221 -0.2252251345 0)
(2.908759828 -0.2279465704 0)
(2.909057247 -0.2312922162 0)
(2.902251061 -0.2366839614 0)
(2.899444792 -0.2417341178 0)
(2.899474762 -0.2432499565 0)
(2.897781846 -0.2468133293 0)
(2.895765931 -0.2493732702 0)
(2.894271159 -0.2510684051 0)
(2.892903018 -0.2535756225 0)
(2.892312179 -0.2568514654 0)
(2.891289527 -0.2567824211 0)
(2.891267308 -0.2567962275 0)
(2.891039273 -0.2566293812 0)
(2.890814902 -0.2561837642 0)
(2.890959803 -0.255709951 0)
(2.891000958 -0.2547844363 0)
(3 9.643613965e-15 0)
(3 1.306228791e-14 0)
(3 1.642413871e-14 0)
(3 1.709547705e-14 0)
(3 1.712990253e-14 0)
(3 1.788364657e-14 0)
(3 1.928282694e-14 0)
(3 1.911718486e-14 0)
(3 1.628209932e-14 0)
(3 1.604943454e-14 0)
(3 1.391808691e-14 0)
(3 1.16655794e-14 0)
(3 1.135649253e-14 0)
(3 1.716866354e-14 0)
(3 -2.343305502e-14 0)
(3 -1.714534702e-13 0)
(3 -1.815821938e-13 0)
(3 -1.30345559e-11 0)
(3 -1.281201348e-10 0)
(2.999999999 -1.012726256e-09 0)
(2.999999995 -7.145137697e-09 0)
(2.999999975 -3.925355583e-08 0)
(2.999999874 -2.039664132e-07 0)