/*--------------------------------*- C++ -*----------------------------------*\
  =========                 |
  \\      /  F ield         | OpenFOAM: The Open Source CFD Toolbox
   \\    /   O peration     | Website:  https://openfoam.org
    \\  /    A nd           | Version:  7
     \\/     M anipulation  |
\*---------------------------------------------------------------------------*/
FoamFile
{
    version     2.0;
    format      ascii;
    class       volVectorField;
    location    "4.4";
    object      U;
}
// * * * * * * * * * * * * * * * * * * * * * * * * * * * * * * * * * * * * * //

dimensions      [0 1 -1 0 0 0 0];

internalField   nonuniform List<vector> 
22
(
(3.000000021 -2.423274345e-08 0)
(2.999999947 1.263662229e-07 0)
(2.99999956 5.961044126e-07 0)
(3.000000002 -2.560933332e-09 0)
(3.000000002 -2.713154116e-09 0)
(3 -9.450005364e-10 0)
(3.000000015 -1.291226195e-08 0)
(3 -2.077757141e-10 0)
(3 -5.648177626e-10 0)
(3 -8.762038694e-10 0)
(3.000000001 -1.41917578e-09 0)
(3 -1.381014607e-12 0)
(3 -2.00488772e-11 0)
(3 -9.394714571e-15 0)
(3 -5.401708965e-15 0)
(3 -2.36978312e-15 0)
(3 -4.001015893e-15 0)
(3 -4.459756207e-15 0)
(3 -4.767183829e-15 0)
(3 1.986787301e-15 0)
(3 -1.334636676e-15 0)
(3 -2.915889259e-15 0)
)
;

boundaryField
{
    inlet
    {
        type            fixedValue;
        value           nonuniform 0();
    }
    outlet
    {
        type            inletOutlet;
        inletValue      nonuniform 0();
        value           nonuniform 0();
    }
    bottom
    {
        type            slip;
    }
    top
    {
        type            slip;
    }
    obstacle
    {
        type            slip;
    }
    defaultFaces
    {
        type            empty;
    }
    procBoundary25to19
    {
        type            processor;
        value           nonuniform List<vector> 7((2.999992708 1.178331489e-05 0) (2.999943133 9.526019907e-05 0) (2.999781343 0.0004004278962 0) (3 -2.110116161e-15 0) (3 -2.801016691e-15 0) (3 -2.71962372e-15 0) (3 -2.110116161e-15 0));
    }
    procBoundary25to24
    {
        type            processor;
        value           nonuniform List<vector> 2((3 -1.01087144e-14 0) (3 -2.500568592e-15 0));
    }
    procBoundary25to26
    {
        type            processor;
        value           nonuniform List<vector> 4((2.999995492 8.125499258e-06 0) (2.999995492 8.125499258e-06 0) (2.999999987 3.263070007e-08 0) (3.000000001 -1.418018078e-09 0));
    }
    procBoundary25to30
    {
        type            processor;
        value           uniform (3 1.400611533e-15 0);
    }
    procBoundary25to31
    {
        type            processor;
        value           nonuniform List<vector> 8((3 -6.792925221e-11 0) (3 -2.054137348e-10 0) (3 5.585240428e-16 0) (3 -6.792925221e-11 0) (3 -4.296649032e-14 0) (3 3.228596962e-17 0) (3 -1.150965865e-15 0) (3 -9.709188695e-16 0));
    }
}


// ************************************************************************* //
