/*--------------------------------*- C++ -*----------------------------------*\
  =========                 |
  \\      /  F ield         | OpenFOAM: The Open Source CFD Toolbox
   \\    /   O peration     | Website:  https://openfoam.org
    \\  /    A nd           | Version:  7
     \\/     M anipulation  |
\*---------------------------------------------------------------------------*/
FoamFile
{
    version     2.0;
    format      ascii;
    class       volScalarField;
    location    "2.7";
    object      rho;
}
// * * * * * * * * * * * * * * * * * * * * * * * * * * * * * * * * * * * * * //

dimensions      [1 -3 0 0 0 0 0];

internalField   nonuniform List<scalar> 
2222
(
1.284011587
1.284179033
1.284370536
1.284422226
1.284604475
1.284667517
1.284512139
1.284260957
1.284047927
1.283907163
1.283742203
1.283821625
1.283975474
1.284057595
1.284134449
1.282055419
1.282157482
1.282219093
1.281833037
1.281925292
1.281684099
1.281260192
1.281116741
1.280984896
1.280862395
1.281052948
1.281191846
1.281294309
1.281349559
1.281575126
1.282052232
1.282645827
1.282949653
1.283024042
1.282938848
1.283135837
1.283489843
1.283836792
1.284131514
1.284325604
1.284386808
1.284346682
1.284390535
1.28447781
1.284349942
1.284032245
1.283836364
1.283799161
1.283853112
1.283894846
1.2840375
1.2841494
1.284241265
1.282660796
1.282655676
1.282710519
1.282658252
1.282049508
1.282253171
1.282027517
1.281759765
1.281542831
1.28148131
1.281588469
1.281676736
1.281866798
1.281724785
1.281846277
1.282161891
1.282528155
1.283119041
1.283275935
1.283330845
1.283372444
1.283608948
1.283885502
1.284187306
1.284454349
1.284568879
1.284397427
1.284348943
1.28432969
1.284194343
1.283909674
1.283794177
1.283825529
1.283965435
1.284073848
1.284219966
1.284355426
1.284491643
1.283229844
1.283287153
1.283347533
1.283569093
1.282857527
1.282802386
1.282829501
1.28274841
1.282561094
1.28258365
1.282452625
1.282295374
1.282478086
1.282502246
1.282424225
1.282525747
1.28282237
1.283026363
1.283550219
1.283809354
1.284032224
1.284021222
1.28413711
1.284429726
1.284716066
1.284814922
1.284744754
1.284471679
1.284393644
1.284261656
1.28411645
1.284051898
1.284076536
1.284205785
1.284463016
1.284643936
1.284765201
1.284910068
1.284102279
1.284343147
1.284208755
1.284353106
1.283809287
1.283684452
1.283808837
1.283848688
1.283726249
1.283688845
1.283566939
1.283302258
1.283493573
1.283783647
1.283636941
1.283398102
1.283394262
1.283595169
1.283953629
1.284534445
1.284889275
1.284982123
1.284962352
1.285100065
1.285303825
1.285400805
1.285358677
1.285115047
1.284856118
1.284853272
1.284807959
1.284712872
1.28472704
1.28493913
1.285218714
1.285386425
1.285505266
1.28559811
1.285464461
1.285996584
1.285728952
1.285603256
1.285352203
1.285193841
1.285323923
1.285350061
1.285173072
1.284981421
1.285022624
1.28499328
1.285196072
1.28544886
1.285400219
1.285122319
1.284701142
1.284759245
1.285116828
1.285593806
1.286107337
1.286356995
1.286446206
1.28645594
1.286438033
1.286484681
1.286475114
1.286291106
1.285980098
1.285951312
1.28602684
1.286054377
1.286117198
1.286212176
1.28630339
1.286540218
1.286707639
1.286776989
1.287526844
1.288091757
1.287797188
1.287416567
1.287663293
1.287553941
1.287584155
1.287553037
1.287308207
1.28694973
1.287190741
1.287380465
1.287447638
1.287592402
1.287538493
1.28734605
1.286998154
1.286842752
1.287059384
1.287381916
1.287861356
1.288388901
1.288533028
1.288539592
1.288443851
1.288386986
1.288370039
1.288172657
1.28794319
1.287800151
1.28795429
1.288142614
1.28823352
1.288218437
1.288193204
1.288347159
1.288581202
1.288609688
1.290714977
1.290954083
1.290711368
1.290577425
1.290892357
1.290916085
1.29077125
1.290627765
1.290346257
1.28992689
1.290131182
1.290473439
1.290472611
1.290523681
1.290511366
1.290300028
1.290118126
1.290043369
1.290033275
1.290289081
1.290589984
1.291023402
1.291377851
1.29146613
1.291390255
1.291267593
1.291206334
1.291060325
1.290863092
1.29065159
1.290684806
1.290968988
1.291102588
1.291099271
1.291055947
1.291115166
1.291243982
1.291313673
1.294994182
1.295083825
1.295065783
1.294935754
1.295244188
1.295347444
1.2950268
1.29478945
1.294446856
1.294035867
1.293933649
1.29448356
1.294479361
1.294332967
1.294346299
1.294193752
1.29415005
1.294195802
1.294214865
1.294342496
1.294584603
1.294771325
1.295012987
1.295256377
1.295326623
1.295232748
1.295169965
1.295101233
1.294935853
1.294613472
1.294534074
1.294571224
1.294856735
1.294964405
1.294930961
1.294934013
1.294963796
1.295074086
1.300240578
1.300129608
1.300405837
1.300464262
1.300729655
1.300825482
1.300386288
1.300025976
1.299762231
1.299351959
1.298936948
1.299156876
1.299339986
1.299141061
1.299128795
1.299115067
1.29918808
1.299350319
1.299502254
1.299696533
1.299777199
1.299828436
1.299937135
1.30004961
1.300145641
1.300193497
1.300159322
1.300198113
1.300045743
1.299775507
1.299509905
1.299361945
1.2994338
1.299647525
1.299771878
1.299742701
1.299719037
1.299896752
1.306392039
1.30615538
1.306723434
1.306988064
1.307214697
1.30727354
1.306904142
1.306551576
1.306293919
1.305906372
1.305045923
1.304888945
1.304973956
1.305010938
1.305155069
1.305237755
1.305471131
1.305678275
1.305828057
1.306051406
1.306110983
1.306109119
1.305950615
1.305981847
1.306091319
1.30619366
1.306195408
1.306096924
1.305990383
1.305896406
1.305652236
1.305347161
1.305180801
1.305205154
1.305399213
1.305498325
1.30553812
1.305752214
1.313364318
1.313266254
1.31390981
1.314391192
1.314554248
1.314630108
1.314450527
1.31416461
1.313873675
1.313355735
1.312478832
1.311841809
1.311815642
1.312068266
1.312265029
1.312512282
1.312676357
1.31269901
1.31295187
1.313149545
1.31321448
1.313209721
1.313214047
1.313105211
1.313134576
1.313275361
1.313331283
1.313089092
1.31272021
1.31265155
1.312692955
1.312378967
1.312062871
1.311929213
1.312020621
1.312257843
1.312443213
1.312613108
1.321206353
1.321374535
1.321834205
1.32249279
1.322686885
1.322777432
1.322740907
1.322476069
1.322057645
1.321444462
1.320871786
1.320136529
1.319700782
1.31998885
1.320445845
1.320735316
1.32066209
1.320596265
1.320721593
1.32089109
1.320953585
1.320982988
1.321104677
1.321141624
1.321218024
1.321336179
1.321266763
1.320933373
1.320569703
1.320191618
1.320130684
1.320166404
1.319829005
1.319601041
1.319659039
1.319897787
1.320197028
1.320339565
1.330221044
1.330627797
1.331130027
1.3307188
1.33087167
1.331231007
1.33098175
1.330565692
1.329965306
1.329511691
1.329038233
1.328708992
1.328755215
1.329174281
1.329298046
1.329162496
1.329130766
1.329141406
1.329087623
1.329043033
1.329267646
1.329602586
1.329744736
1.329944732
1.329906975
1.329761188
1.329509137
1.329145133
1.328648122
1.328373217
1.32835684
1.328172069
1.327992664
1.328027618
1.32820291
1.328589492
1.328689715
1.339251824
1.339167732
1.339221734
1.339095927
1.339098283
1.339372221
1.339430974
1.339153583
1.338670544
1.338383121
1.338004179
1.338048678
1.337922693
1.337828764
1.337970684
1.337900364
1.337870855
1.337819762
1.337642942
1.337632242
1.337838043
1.338241777
1.338668092
1.338788952
1.338729647
1.338576535
1.338398776
1.338145347
1.337698612
1.337147226
1.336895979
1.336757686
1.336757058
1.336863317
1.336997149
1.337182041
1.337328094
1.347875188
1.347650692
1.347443713
1.347558899
1.347517497
1.347421363
1.347354574
1.347189797
1.347079971
1.347055684
1.346913028
1.347143192
1.346873553
1.34632578
1.346287546
1.346367038
1.346471131
1.346454132
1.346431443
1.346570255
1.346776889
1.34704181
1.347371624
1.347489517
1.347386788
1.347231685
1.347239985
1.347153273
1.346711415
1.346127165
1.345509649
1.345375943
1.345638039
1.345830606
1.345978272
1.346025938
1.346075152
1.356414453
1.356008124
1.355644815
1.355975168
1.355960653
1.355648528
1.355315937
1.355094969
1.355087804
1.355001234
1.355033192
1.355394462
1.355199936
1.354745542
1.354613685
1.354809475
1.354937181
1.354989087
1.355146898
1.355457592
1.355710361
1.355894282
1.356129586
1.356135718
1.355996338
1.355803526
1.355692643
1.355647205
1.355347539
1.354524718
1.353905565
1.353938469
1.354277497
1.35466459
1.354864609
1.354822095
1.354709238
1.364373302
1.364023193
1.363612852
1.363967483
1.364011533
1.363651668
1.363213944
1.363047813
1.362945105
1.362845455
1.36300192
1.363173348
1.363085632
1.362906329
1.362853553
1.363119541
1.36325295
1.363367537
1.363537575
1.363870198
1.364193629
1.364391171
1.364555166
1.364493134
1.364314626
1.364079215
1.363826685
1.363535596
1.362967982
1.362264879
1.362093171
1.362277538
1.362666792
1.363079746
1.363297558
1.363241921
1.363014382
1.371237274
1.371293591
1.371194746
1.371346987
1.371412651
1.371190469
1.370909239
1.37090919
1.370689412
1.370585147
1.370786587
1.370734459
1.370550214
1.370551159
1.370667031
1.370908082
1.37104584
1.371194796
1.371412716
1.371684193
1.371906184
1.372048249
1.372132726
1.372085904
1.371890863
1.371614527
1.371268581
1.370790484
1.370212903
1.369906025
1.369943351
1.370113542
1.37048444
1.370845397
1.371026336
1.370991141
1.370760133
1.377320061
1.377817513
1.378160767
1.378199642
1.378303281
1.378360699
1.378352717
1.378418847
1.378134743
1.377891523
1.377963657
1.377718051
1.377462136
1.377543322
1.377737427
1.377915394
1.378049849
1.378223042
1.378485027
1.378694133
1.378796585
1.37881439
1.378762532
1.37872248
1.378534368
1.378299391
1.37798656
1.377539156
1.377303673
1.377281828
1.377271192
1.377262714
1.377460644
1.377764395
1.377929133
1.377930879
1.377745118
1.383023362
1.383770961
1.384366514
1.384501071
1.384652724
1.38494772
1.385093069
1.385105424
1.38481495
1.384529312
1.384351931
1.383968807
1.383705694
1.383729318
1.383838813
1.383990481
1.384181675
1.384349435
1.384542089
1.384613434
1.384659471
1.384601616
1.384428366
1.384369201
1.384272393
1.384224601
1.384089652
1.383788558
1.383719585
1.383766571
1.383674368
1.383531332
1.383539742
1.38372797
1.383895124
1.383965829
1.383821348
1.388219003
1.388981174
1.389667515
1.389992993
1.390263883
1.390591066
1.390734548
1.390646314
1.390467516
1.390375262
1.390008903
1.389460452
1.389095785
1.388947067
1.388916527
1.389083009
1.389305677
1.389370311
1.389413324
1.38935862
1.389424742
1.38946113
1.389326031
1.389250852
1.389250744
1.389340592
1.389344075
1.389232498
1.38907032
1.38894556
1.388770402
1.388656524
1.38859871
1.388665256
1.38880596
1.388937435
1.388883236
1.39289789
1.393563925
1.394080714
1.394485574
1.394852946
1.395038371
1.395146213
1.395028216
1.394907279
1.394903337
1.394486858
1.393873151
1.393413591
1.393161081
1.393108237
1.393127266
1.393302499
1.393325505
1.393249366
1.393186488
1.393335844
1.393542406
1.393525114
1.393431855
1.393452187
1.393480129
1.393507586
1.393587665
1.393408403
1.393114297
1.392867173
1.392798834
1.39274096
1.392701236
1.392766492
1.392928237
1.392992038
1.396919764
1.397484156
1.397608258
1.39793568
1.398191906
1.398197157
1.398249354
1.398019497
1.39774271
1.397573265
1.397348745
1.396941113
1.396511831
1.396279183
1.396238028
1.396087122
1.396243663
1.396323392
1.396317954
1.396438227
1.396597935
1.396739471
1.39679905
1.396806838
1.39690164
1.396885083
1.396932735
1.396956641
1.396759732
1.396411038
1.396157701
1.396094611
1.396010797
1.395910065
1.395931967
1.396112459
1.396185517
1.400097131
1.400546512
1.400381124
1.400424438
1.400456067
1.400437769
1.40025222
1.399684991
1.399229214
1.398913262
1.398856311
1.398610366
1.398264598
1.398053732
1.398086594
1.398343594
1.398586865
1.398728487
1.398721478
1.398805464
1.398847741
1.39895989
1.399242392
1.399516646
1.399733054
1.399658644
1.39945853
1.399127547
1.398855637
1.398622308
1.398460749
1.398353641
1.398214654
1.398163736
1.398218897
1.398322502
1.398307517
1.40215348
1.402383388
1.402093626
1.401785327
1.401597913
1.401560866
1.401124156
1.400548103
1.400226388
1.399707132
1.399371132
1.399051897
1.39881728
1.398817615
1.399441966
1.400103196
1.400243105
1.400338854
1.400296335
1.400288243
1.400486761
1.400802982
1.401180119
1.401497347
1.401643227
1.401429609
1.400825868
1.400326527
1.400089995
1.399923952
1.399769944
1.399606127
1.39963188
1.399711124
1.3997293
1.399689583
1.399612811
1.402835437
1.402585763
1.402026034
1.401581529
1.401341855
1.400896595
1.400717344
1.400600626
1.39983658
1.399259397
1.399248741
1.399597764
1.399987804
1.400649244
1.401115935
1.401172261
1.401298575
1.401502727
1.401736196
1.402026741
1.402260316
1.402402593
1.402520677
1.402447138
1.402125882
1.401614753
1.401320105
1.401132191
1.400902223
1.400729873
1.400610233
1.400694428
1.400787592
1.400748027
1.400676049
1.400495552
1.402405847
1.402404285
1.401712979
1.401122794
1.400881724
1.400683947
1.400567247
1.400402718
1.399984104
1.399762951
1.400069535
1.400703253
1.401306308
1.401611005
1.401704151
1.401804638
1.402055443
1.402505698
1.40275733
1.402947115
1.402963987
1.402760717
1.402732856
1.402595443
1.402318444
1.4021101
1.401952988
1.401813016
1.401515557
1.401234599
1.401110627
1.401156004
1.40124572
1.401246243
1.401176941
1.400892086
1.402249113
1.402762133
1.4022292
1.40179136
1.401481935
1.401417403
1.401189807
1.400977071
1.40108267
1.400932859
1.401131601
1.401647489
1.40217223
1.402268292
1.402215126
1.402410941
1.402654349
1.403032281
1.40312888
1.402868288
1.402614349
1.402551518
1.402636804
1.402515079
1.402325133
1.402234575
1.402032565
1.401842818
1.401525188
1.401191749
1.401078936
1.40113488
1.401230866
1.401248506
1.401099528
1.400922567
1.40265767
1.403347713
1.403156626
1.403017656
1.402674422
1.402594177
1.402390125
1.402180443
1.402438717
1.402361428
1.402393347
1.402512167
1.402688448
1.4027206
1.402726793
1.40281763
1.402928312
1.403047311
1.402709784
1.402114695
1.402092885
1.402452708
1.402543714
1.402303778
1.402009877
1.401878294
1.401534572
1.401122476
1.400879065
1.400877418
1.400934933
1.401144245
1.401281266
1.401210976
1.401074356
1.401185445
1.403292661
1.403420159
1.403565954
1.403808486
1.403592596
1.403568941
1.403531421
1.403363031
1.403397115
1.403428041
1.403302759
1.403002431
1.402922754
1.402950287
1.403153408
1.403141123
1.403132735
1.40280518
1.40195713
1.401745751
1.402189236
1.402563905
1.402478709
1.4021223
1.401727269
1.401284297
1.400888753
1.400546294
1.400501379
1.400913539
1.401374705
1.40161023
1.401544199
1.401380819
1.401371485
1.401650562
1.403683699
1.403218921
1.403548814
1.404014279
1.404104505
1.404105322
1.404122296
1.404011264
1.403891379
1.403904871
1.403345973
1.402726794
1.402644758
1.402843496
1.403200177
1.40323572
1.403008967
1.402101295
1.401776979
1.402138928
1.402602947
1.402668017
1.40247609
1.402128893
1.401833017
1.401408211
1.401097129
1.401115306
1.401290373
1.401401154
1.401836865
1.401942319
1.401710373
1.401539824
1.401653533
1.401951527
1.403650326
1.403055827
1.403324385
1.403640358
1.40408206
1.40409769
1.404125998
1.404054545
1.403767186
1.403526503
1.402692857
1.402122971
1.402109565
1.402304238
1.402450187
1.40223324
1.401897275
1.401437499
1.401806889
1.402552247
1.402796288
1.402642631
1.402496596
1.402418508
1.402434398
1.402087312
1.401821606
1.402060698
1.402321521
1.402378478
1.402224339
1.401908178
1.401529936
1.401470159
1.401725867
1.401913947
1.403094767
1.40266047
1.402908589
1.40298911
1.403159248
1.403281277
1.403358975
1.403248687
1.402638951
1.40205702
1.401454249
1.40143068
1.401341261
1.401246812
1.401141672
1.401030507
1.400875302
1.401034958
1.401877991
1.402550452
1.402658045
1.402576036
1.402677783
1.402825485
1.402922468
1.402883015
1.402759472
1.402658863
1.402838322
1.40290957
1.402287358
1.40141402
1.400973476
1.401200841
1.401580156
1.401556334
1.401703122
1.402043527
1.402413501
1.40230605
1.402077784
1.401978112
1.40196249
1.401721661
1.400958363
1.400541093
1.400663729
1.401015439
1.400878328
1.400730726
1.400661712
1.400634193
1.400544433
1.400848348
1.40174353
1.402171568
1.402244
1.402538164
1.402833538
1.403004032
1.403010321
1.403120053
1.403071351
1.402811774
1.40256757
1.402070673
1.40105737
1.400347527
1.400525907
1.40092793
1.401204198
1.401023939
1.400298961
1.401449264
1.401674071
1.401362714
1.40081287
1.400584251
1.400433823
1.400067966
1.399802117
1.399924498
1.400427111
1.400676989
1.400680161
1.400719902
1.400682237
1.400520494
1.400486079
1.400792896
1.401266874
1.401703458
1.401975502
1.40240072
1.402601813
1.402619456
1.402518329
1.402447568
1.40237047
1.402115647
1.401403304
1.400345782
1.399701757
1.399934595
1.400438252
1.400809542
1.400883592
1.400650533
1.399648648
1.400756483
1.400607084
1.400155666
1.399744833
1.399533811
1.39937362
1.399209895
1.399294098
1.39957307
1.40017889
1.40044596
1.400471904
1.40054755
1.400495497
1.400276986
1.400305398
1.400567317
1.400826638
1.401188426
1.401502302
1.401732625
1.401608266
1.401197834
1.401036194
1.400861627
1.400523284
1.40002308
1.399321674
1.399005465
1.399250169
1.399699343
1.400280081
1.400596141
1.400508716
1.400294678
1.398879783
1.399778719
1.399337535
1.399084816
1.398962789
1.398753747
1.398597195
1.398481078
1.398647603
1.399087535
1.399687595
1.399902057
1.400126438
1.400238459
1.400092872
1.399730543
1.399822927
1.400009018
1.400133337
1.400274825
1.400383542
1.400147704
1.399656168
1.3993577
1.399288916
1.399004043
1.398534098
1.398246528
1.398173993
1.398307957
1.398671687
1.399376182
1.400070661
1.400004668
1.399724192
1.399603182
1.398039236
1.398373011
1.397981181
1.397865134
1.39793576
1.397708665
1.397548054
1.3975527
1.397813669
1.398366219
1.398969064
1.399095595
1.399131742
1.399124786
1.39892867
1.3988632
1.399086108
1.399180587
1.399088684
1.398814119
1.398405722
1.397919715
1.397992547
1.39818246
1.398183353
1.397918702
1.397487505
1.397307661
1.397288313
1.397494834
1.398059433
1.398975438
1.399178794
1.3988408
1.398432411
1.398423983
1.396884587
1.396737327
1.396442711
1.396348566
1.396510673
1.396422437
1.396260757
1.396402624
1.396770752
1.397285245
1.397593573
1.397646968
1.397569642
1.397249757
1.397158555
1.397437792
1.397797483
1.397729432
1.397501988
1.396731155
1.396241583
1.396284238
1.396572233
1.396949838
1.396966361
1.39677277
1.396490245
1.396391234
1.396458658
1.396879958
1.397732169
1.397934488
1.397583365
1.396918417
1.396618145
1.396677731
1.394804649
1.394768476
1.394692899
1.395029404
1.394994685
1.394869732
1.39510537
1.395443131
1.395597641
1.395671399
1.39553392
1.395044567
1.394691378
1.394924245
1.395649098
1.395931947
1.395835953
1.39526353
1.394637039
1.394599019
1.394828124
1.395138256
1.395710911
1.395776021
1.395463914
1.395329354
1.395401726
1.395799061
1.396470919
1.396687217
1.396187858
1.39528309
1.394923256
1.394994952
1.394894226
1.392618624
1.393036477
1.39304587
1.393203078
1.393345748
1.39339727
1.393545276
1.393603358
1.393500408
1.393008054
1.392530914
1.392389393
1.392543085
1.393031236
1.393567389
1.39366315
1.393360438
1.393001101
1.393075913
1.39319057
1.393544588
1.394055306
1.394586939
1.394688684
1.394393876
1.394424555
1.394745413
1.395198491
1.395176864
1.394737498
1.393727763
1.393014
1.393188737
1.393359989
1.393265054
1.390730726
1.391276117
1.391294503
1.391367555
1.391344168
1.391572007
1.391592286
1.391585495
1.390908981
1.39022867
1.39032566
1.390512861
1.390826446
1.391324584
1.391574704
1.391415209
1.391343721
1.391332773
1.39161786
1.392087492
1.392654193
1.393080093
1.393127176
1.393096995
1.393083304
1.393265374
1.393483089
1.393422778
1.393061079
1.392160971
1.391064105
1.39122783
1.391663731
1.391843498
1.391784955
1.389089373
1.389507092
1.389465299
1.389429047
1.389438255
1.389687559
1.389454517
1.389220408
1.388559686
1.388463274
1.388642535
1.388967362
1.389544443
1.390016332
1.390001465
1.389739053
1.389798605
1.390064253
1.390430318
1.391014885
1.391410449
1.391503571
1.391428542
1.391364584
1.391455456
1.391492199
1.391530599
1.3913145
1.390506529
1.389149973
1.389193171
1.389760612
1.390125773
1.390154023
1.390242306
1.38775846
1.387904685
1.38795882
1.387771109
1.387700737
1.3877048
1.38741329
1.387274736
1.387105814
1.387202905
1.387529316
1.388102544
1.388906706
1.389200704
1.388956515
1.388494242
1.388431827
1.388628266
1.388927332
1.389338993
1.389660969
1.389828895
1.389593668
1.389413476
1.389739911
1.389821131
1.389475877
1.388667704
1.387475418
1.387439171
1.387881664
1.388343647
1.388375533
1.38839052
1.388590976
1.386938939
1.386704512
1.386604059
1.386437612
1.386711262
1.386458329
1.386358996
1.386108535
1.38617952
1.386508891
1.387317474
1.388211592
1.388769948
1.388609812
1.387941903
1.387372023
1.386916614
1.387014558
1.387281184
1.387719245
1.387890702
1.387802084
1.387935388
1.388014163
1.3878789
1.387652352
1.386732499
1.3859574
1.385976952
1.386215052
1.386833205
1.386915608
1.386800912
1.386807803
1.387120379
1.386134616
1.385844197
1.385634425
1.385791074
1.386019243
1.385748147
1.385765563
1.385582057
1.385893813
1.38667577
1.38785454
1.388511254
1.388297711
1.387586419
1.386608169
1.386033495
1.385607998
1.385490776
1.385569946
1.385765908
1.386224293
1.386392088
1.386721595
1.386930231
1.386615829
1.385867365
1.385034398
1.384809706
1.384848074
1.385378735
1.385665685
1.385608096
1.385591486
1.385699996
1.386152534
1.385179134
1.385200523
1.385356973
1.385816099
1.385750702
1.385570166
1.385565289
1.385682447
1.38616222
1.387183472
1.38784932
1.387799423
1.38713257
1.386175548
1.385226787
1.384530272
1.383901208
1.383793087
1.384207309
1.38467519
1.385154769
1.385578412
1.385955367
1.385981293
1.385544245
1.384733384
1.384185729
1.384144184
1.384382017
1.384739653
1.384607814
1.384516542
1.384600756
1.384877461
1.385498943
1.384317551
1.384936618
1.385616468
1.385779989
1.385368404
1.385228189
1.385133124
1.385361419
1.385932017
1.386642441
1.386743073
1.386327179
1.385638157
1.384540101
1.382992879
1.382476136
1.382798202
1.382976643
1.383441918
1.384096994
1.38463975
1.385097531
1.385207349
1.385028932
1.384637083
1.384047597
1.383948038
1.384132925
1.384557269
1.384272965
1.383872548
1.383839206
1.38412625
1.384635613
1.384829188
1.384010847
1.384986878
1.385407278
1.384900149
1.384410571
1.384189546
1.384132249
1.384362862
1.384708782
1.385064475
1.38514771
1.384816259
1.383156736
1.381949349
1.381716847
1.381485028
1.381907611
1.382610067
1.383448304
1.384156777
1.384252128
1.384385385
1.384366773
1.384145233
1.383919348
1.383859903
1.384244215
1.384499799
1.384340551
1.383844403
1.383597937
1.383729508
1.384061956
1.384264432
1.383944136
1.384444751
1.384758089
1.384264171
1.383595366
1.382989296
1.382813143
1.382942404
1.383179446
1.383295671
1.383128729
1.382950231
1.38218065
1.381626134
1.380988431
1.38087667
1.381159532
1.381907223
1.383085911
1.38401491
1.383952117
1.383697971
1.383596674
1.383558217
1.383417949
1.383398265
1.383883381
1.384328174
1.384210171
1.383637235
1.383339084
1.383417106
1.383580923
1.383633274
1.383440836
1.382974808
1.384090356
1.383802919
1.383054717
1.38226265
1.381512095
1.381361158
1.381780109
1.381969185
1.382199556
1.382113809
1.381326466
1.380703096
1.380451618
1.380394406
1.38078528
1.381647526
1.382868053
1.383815012
1.383903851
1.383203471
1.3830137
1.382925818
1.382890247
1.382910473
1.383082159
1.383603969
1.383660246
1.383271912
1.382891484
1.382696427
1.382838411
1.382922057
1.382797455
1.382492403
1.382202633
1.382620595
1.382413704
1.381882683
1.380871243
1.380601773
1.380523049
1.380745035
1.38078693
1.380732945
1.380578566
1.380180693
1.379680681
1.379801448
1.380548501
1.381944371
1.383218768
1.383928
1.383893026
1.383104395
1.382527448
1.382460076
1.382419962
1.382385423
1.382598673
1.382847114
1.382900524
1.38249774
1.382059575
1.381852632
1.381856991
1.381979195
1.382022323
1.381893066
1.381738826
1.381763883
1.381008306
1.38087387
1.3802244
1.379881087
1.379880042
1.380278275
1.380168603
1.380108712
1.379819737
1.379646559
1.379980274
1.380647077
1.381389938
1.382393652
1.383265788
1.383706605
1.383506876
1.382838986
1.382075443
1.382004708
1.38198869
1.381929655
1.381949343
1.382224086
1.382339866
1.381963741
1.381280981
1.380765984
1.380689647
1.380952927
1.381069599
1.381139974
1.381182175
1.381341899
1.381870245
1.379791856
1.379196413
1.379271503
1.379509712
1.380281785
1.380728643
1.380794641
1.380765955
1.380973166
1.381502813
1.382633285
1.38357126
1.383877769
1.383498146
1.382982586
1.382307651
1.381552694
1.381209423
1.381437049
1.381546411
1.381515234
1.381566471
1.381674389
1.381599979
1.380961581
1.380359434
1.380004002
1.37997714
1.380291622
1.380505841
1.380622327
1.380878641
1.381413731
1.382158452
1.379286206
1.379394686
1.37989944
1.381276938
1.382216602
1.382135776
1.38211599
1.382384956
1.383097501
1.383665912
1.383200843
1.383057001
1.382832274
1.382569219
1.38180352
1.380939685
1.380430832
1.380516396
1.380671765
1.380867952
1.381126606
1.381307221
1.381199888
1.380881043
1.380203559
1.379812258
1.379820104
1.379938293
1.380005006
1.380220109
1.380532658
1.381124095
1.381681948
1.381995868
1.379876779
1.381024436
1.382134381
1.383278634
1.383653812
1.383348285
1.383121393
1.383011781
1.383080385
1.383164248
1.382563003
1.381706783
1.381249562
1.380970793
1.380667604
1.379985265
1.379855622
1.380188482
1.380238477
1.380389179
1.380859075
1.381130182
1.380951185
1.380451696
1.379964364
1.37984706
1.380095691
1.380237291
1.380131726
1.380285208
1.380901213
1.381591816
1.381694281
1.381365235
1.381955502
1.382871283
1.3832318
1.382869135
1.38280121
1.383190734
1.383118927
1.382806229
1.382221492
1.381817466
1.38181376
1.380961517
1.379887635
1.379367979
1.37925592
1.37927957
1.37969397
1.380095295
1.380519563
1.381016756
1.381342585
1.381514963
1.381414362
1.381100892
1.380987095
1.381138706
1.381071474
1.380894985
1.380781938
1.380904034
1.381302902
1.381585582
1.381498122
1.380876824
1.383368913
1.383063882
1.382762597
1.381858178
1.381580259
1.382100887
1.381952652
1.381789894
1.38153297
1.380375487
1.380334287
1.38015409
1.379865776
1.378925749
1.378460908
1.378927075
1.379572255
1.380317294
1.381118383
1.382008007
1.382358771
1.382288079
1.382418354
1.38232257
1.382152243
1.381921175
1.38166117
1.38139035
1.381539653
1.381714681
1.381649122
1.381453828
1.381302922
1.380839294
1.383021838
1.382318832
1.381718185
1.381201315
1.380954144
1.380520904
1.380319322
1.380330465
1.380097705
1.379935381
1.378756448
1.37851516
1.378450462
1.378380364
1.378799794
1.379809804
1.380829964
1.381602823
1.382016961
1.382421887
1.382847076
1.382558119
1.382568205
1.382295846
1.381927618
1.381511183
1.381589499
1.381741387
1.381762344
1.381765991
1.381409125
1.380964311
1.380954058
1.380883085
1.381819942
1.381156589
1.380290847
1.380211029
1.38001474
1.379029828
1.378713373
1.378688281
1.378525226
1.378408296
1.377537204
1.377298869
1.377299169
1.37820221
1.379418333
1.380596439
1.381690097
1.38248999
1.38249948
1.382200656
1.382126803
1.382284497
1.381885481
1.381350596
1.380984053
1.380836214
1.380982238
1.381416098
1.381202205
1.3808087
1.380640347
1.380409898
1.38040039
1.380667278
1.38039239
1.379770791
1.378883924
1.378804774
1.378629214
1.378687994
1.378443706
1.377917925
1.377312112
1.377097054
1.377870343
1.378219118
1.379032769
1.380258772
1.381138623
1.381427201
1.381429636
1.381808976
1.381744109
1.381725524
1.381253419
1.38135603
1.380848865
1.380617344
1.380459381
1.380704559
1.380533983
1.380660688
1.380317579
1.379658787
1.379539283
1.379672958
1.378442417
1.378206392
1.378146762
1.377838496
1.377694809
1.378101226
)
;

boundaryField
{
    inlet
    {
        type            calculated;
        value           nonuniform 0();
    }
    outlet
    {
        type            calculated;
        value           nonuniform List<scalar> 
61
(
1.284242684
1.284492011
1.284910882
1.285602756
1.286780632
1.288607693
1.291312823
1.295076752
1.299896428
1.305737148
1.312599582
1.320332817
1.328684101
1.337315143
1.3460748
1.354728833
1.363042493
1.370778074
1.377746391
1.383811748
1.388866089
1.392968872
1.396176884
1.398325245
1.399628108
1.400505873
1.40090722
1.400921853
1.401152097
1.401614521
1.401939135
1.401928523
1.401590792
1.401039241
1.400627188
1.400268614
1.399602617
1.398452898
1.396715583
1.394894811
1.393257837
1.391771698
1.390232069
1.388581881
1.387114758
1.386141698
1.385483419
1.384836635
1.383971515
1.383010602
1.382222581
1.381734506
1.381809203
1.382131637
1.382015673
1.381397225
1.380884048
1.380826855
1.380903187
1.380699479
1.284137274
)
;
    }
    bottom
    {
        type            calculated;
        value           nonuniform 0();
    }
    top
    {
        type            calculated;
        value           nonuniform 0();
    }
    obstacle
    {
        type            calculated;
        value           nonuniform 0();
    }
    defaultFaces
    {
        type            empty;
    }
    procBoundary23to17
    {
        type            processor;
        value           nonuniform List<scalar> 
39
(
1.283880011
1.283943771
1.284236211
1.284606585
1.284794016
1.28476526
1.284610639
1.284393518
1.284193226
1.284071916
1.284026201
1.284065294
1.284113267
1.284141279
1.284204118
1.281813852
1.28186867
1.281930229
1.281704791
1.281824679
1.281396196
1.281091019
1.281038849
1.280802727
1.280693226
1.28086482
1.280987926
1.281115378
1.281328408
1.281696218
1.282041813
1.28239456
1.282698909
1.282664923
1.282758159
1.283090351
1.283436961
1.283797442
1.283797442
)
;
    }
    procBoundary23to22
    {
        type            processor;
        value           nonuniform List<scalar> 
63
(
1.28177761
1.281992478
1.2826195
1.283466257
1.284925616
1.287251148
1.290538762
1.294866249
1.300170308
1.306291113
1.313265205
1.3211055
1.329988596
1.329988596
1.339159651
1.347857335
1.356235602
1.364104601
1.371058969
1.377267695
1.382911004
1.388107791
1.39267226
1.396491024
1.399314427
1.401006133
1.402737085
1.402737085
1.402181329
1.401883368
1.402399015
1.403227528
1.403737697
1.403909371
1.403710797
1.402168879
1.399832931
1.398599938
1.397788339
1.396846816
1.396084546
1.395026018
1.395026018
1.392818852
1.390307342
1.388670489
1.387498476
1.386692343
1.385909817
1.385123588
1.384485779
1.384097245
1.383871284
1.38375659
1.383088276
1.382000919
1.380373159
1.380373159
1.379990539
1.379529213
1.380906119
1.383099721
1.383513059
)
;
    }
    procBoundary23to28
    {
        type            processor;