/*--------------------------------*- C++ -*----------------------------------*\
  =========                 |
  \\      /  F ield         | OpenFOAM: The Open Source CFD Toolbox
   \\    /   O peration     | Website:  https://openfoam.org
    \\  /    A nd           | Version:  7
     \\/     M anipulation  |
\*---------------------------------------------------------------------------*/
FoamFile
{
    version     2.0;
    format      ascii;
    class       volVectorField;
    location    "5";
    object      U;
}
// * * * * * * * * * * * * * * * * * * * * * * * * * * * * * * * * * * * * * //

dimensions      [0 1 -1 0 0 0 0];

internalField   nonuniform List<vector> 
2225
(
(3.107702022 -0.4258324669 0)
(3.109236666 -0.4280229042 0)
(3.109733734 -0.4379537295 0)
(3.109957468 -0.4450141971 0)
(3.111672992 -0.4465805593 0)
(3.111766389 -0.4472766916 0)
(3.110430373 -0.4463836909 0)
(3.10582357 -0.432255392 0)
(3.086548519 -0.3658443661 0)
(3.067898502 -0.2509883279 0)
(3.045976034 -0.1018500243 0)
(3.019300581 0.01775749508 0)
(3.00432424 -0.005123440482 0)
(3.002074458 0.01653700784 0)
(2.993458541 0.01802893917 0)
(2.986654359 0.01179212526 0)
(3.087921114 -0.3225934339 0)
(3.090425342 -0.3246145169 0)
(3.091162663 -0.3329524918 0)
(3.092438376 -0.3448537233 0)
(3.093409906 -0.3502659813 0)
(3.096121287 -0.3528672862 0)
(3.097212548 -0.3606388676 0)
(3.097499852 -0.3708797497 0)
(3.09804482 -0.3756797216 0)
(3.100547464 -0.3772319437 0)
(3.101193327 -0.3830961164 0)
(3.101332616 -0.3921742677 0)
(3.101760365 -0.3962015613 0)
(3.104068301 -0.3979985166 0)
(3.104709631 -0.4027464569 0)
(3.104929947 -0.4112829135 0)
(3.104895425 -0.4167366596 0)
(3.107071942 -0.418223707 0)
(3.107977136 -0.4214653194 0)
(3.108439733 -0.4313306264 0)
(3.108515989 -0.4374927464 0)
(3.110960669 -0.4391498021 0)
(3.111333921 -0.445964481 0)
(3.110661918 -0.4459511667 0)
(3.108449972 -0.4405299792 0)
(3.10210654 -0.411638754 0)
(3.087078153 -0.3412192864 0)
(3.060720539 -0.220913876 0)
(3.06920494 -0.1621073318 0)
(3.007042383 -0.0138651677 0)
(2.989105557 0.02156671319 0)
(2.984816776 0.004374511801 0)
(3.085505816 -0.3131040055 0)
(3.087145104 -0.3176680387 0)
(3.089574054 -0.3200387504 0)
(3.090643726 -0.3297075696 0)
(3.090838479 -0.3389522901 0)
(3.092537267 -0.3423214192 0)
(3.094176349 -0.3431058318 0)
(3.094578278 -0.3519687903 0)
(3.095005104 -0.3608374063 0)
(3.096605881 -0.3642021087 0)
(3.098484928 -0.3660025802 0)
(3.099267352 -0.3749438944 0)
(3.099479498 -0.3835628333 0)
(3.100707642 -0.387107141 0)
(3.1028 -0.3884575996 0)
(3.103036127 -0.3952235769 0)
(3.102995291 -0.4027819825 0)
(3.103782377 -0.4062239387 0)
(3.105803072 -0.4072947894 0)
(3.106296775 -0.4134602356 0)
(3.106278491 -0.4218037943 0)
(3.107076059 -0.4258646447 0)
(3.108611992 -0.4255053938 0)
(3.109558051 -0.4351705806 0)
(3.109385592 -0.4367437813 0)
(3.109379002 -0.4373264939 0)
(3.107411016 -0.4296177756 0)
(3.096757404 -0.3903397244 0)
(3.079450711 -0.2937844502 0)
(3.036260309 -0.1456006584 0)
(3.04939554 -0.1276355046 0)
(3.018414097 -0.04604779977 0)
(3.081473395 -0.2910293611 0)
(3.082737218 -0.3001410153 0)
(3.08543598 -0.3033519084 0)
(3.086262808 -0.3071978254 0)
(3.087814902 -0.3196524748 0)
(3.088635711 -0.3279757047 0)
(3.091107405 -0.3314478176 0)
(3.092818396 -0.3361827844 0)
(3.093750044 -0.3472356531 0)
(3.093808825 -0.3542953519 0)
(3.095953744 -0.3569525807 0)
(3.097375297 -0.3596723561 0)
(3.097894419 -0.3690954391 0)
(3.097905223 -0.3755817795 0)
(3.099743667 -0.3782732544 0)
(3.101224935 -0.3806444403 0)
(3.101742312 -0.3893474244 0)
(3.101638071 -0.3962654943 0)
(3.103070397 -0.3990676755 0)
(3.104516171 -0.3997558491 0)
(3.105043796 -0.4076029024 0)
(3.104791259 -0.4146888189 0)
(3.105855571 -0.4175333475 0)
(3.1083832 -0.4221690327 0)
(3.109096889 -0.4312822539 0)
(3.108415962 -0.4375597828 0)
(3.109779742 -0.4350001076 0)
(3.109185397 -0.4331076714 0)
(3.105151677 -0.4206870015 0)
(3.088354195 -0.3661694025 0)
(3.074969705 -0.2558738225 0)
(3.036839812 -0.07970580038 0)
(3.079867682 -0.2772010591 0)
(3.081147884 -0.2891934729 0)
(3.081919185 -0.2960928877 0)
(3.084616128 -0.2991406582 0)
(3.086080604 -0.3053515303 0)
(3.086869983 -0.3163385077 0)
(3.087603023 -0.3219416504 0)
(3.090103137 -0.3231804284 0)
(3.09049355 -0.3281965817 0)
(3.091365403 -0.3387675183 0)
(3.092048938 -0.3444320931 0)
(3.094450938 -0.3461797028 0)
(3.095150816 -0.3513006141 0)
(3.096122063 -0.3617019456 0)
(3.096419975 -0.3671230244 0)
(3.098719948 -0.3689346408 0)
(3.099551358 -0.372773689 0)
(3.099972088 -0.3818279977 0)
(3.100121342 -0.3870272349 0)
(3.102171538 -0.3893309723 0)
(3.102948769 -0.3916830565 0)
(3.103334668 -0.4003828336 0)
(3.103154328 -0.4056496563 0)
(3.104742849 -0.4056374484 0)
(3.10619645 -0.4105651127 0)
(3.106378826 -0.4195497056 0)
(3.107056639 -0.422961723 0)
(3.108526685 -0.426623883 0)
(3.108492341 -0.4278452361 0)
(3.106599901 -0.425540859 0)
(3.102430094 -0.4101582291 0)
(3.07371874 -0.286662535 0)
(3.07541242 -0.2558307456 0)
(3.076158033 -0.2655595794 0)
(3.077857412 -0.2773853911 0)
(3.079977022 -0.2827340528 0)
(3.082014711 -0.2850366366 0)
(3.082750026 -0.2946159586 0)
(3.08423152 -0.3057893731 0)
(3.085951692 -0.3107714701 0)
(3.088230908 -0.3134779511 0)
(3.089398182 -0.3228845327 0)
(3.089977849 -0.3325858591 0)
(3.091138009 -0.3370212965 0)
(3.0935289 -0.3389599532 0)
(3.094136393 -0.3460048358 0)
(3.094546615 -0.3551377224 0)
(3.095352905 -0.3595017088 0)
(3.097583121 -0.3609798625 0)
(3.098091142 -0.3668438874 0)
(3.098512177 -0.3758606361 0)
(3.09899982 -0.3799119599 0)
(3.101155826 -0.3812188956 0)
(3.101678692 -0.386036596 0)
(3.101941573 -0.3942772823 0)
(3.102064185 -0.3986458371 0)
(3.104136916 -0.3996145186 0)
(3.105556485 -0.4072633918 0)
(3.105196581 -0.4143010751 0)
(3.10636416 -0.4191397307 0)
(3.108530984 -0.4225697125 0)
(3.106964804 -0.4277670398 0)
(3.107946879 -0.4266528926 0)
(3.100941232 -0.3984029465 0)
(3.072416781 -0.2495050578 0)
(3.074717034 -0.253852398 0)
(3.076454316 -0.265199959 0)
(3.077165133 -0.2745390945 0)
(3.079268329 -0.2789515406 0)
(3.08139939 -0.2825637516 0)
(3.082760916 -0.2932089619 0)
(3.083143917 -0.3015938249 0)
(3.085218483 -0.3048290202 0)
(3.086723425 -0.3067025708 0)
(3.087619526 -0.316531877 0)
(3.088077832 -0.3247825833 0)
(3.0899764 -0.3279669977 0)
(3.091340779 -0.329708975 0)
(3.092145681 -0.3388854849 0)
(3.09258922 -0.3470255017 0)
(3.094166988 -0.3502472605 0)
(3.095927489 -0.3520002201 0)
(3.096453457 -0.359958382 0)
(3.096773154 -0.3678801485 0)
(3.098018831 -0.3711857141 0)
(3.099787153 -0.3723703386 0)
(3.10024187 -0.3799572626 0)
(3.1000274 -0.3864349661 0)
(3.101192216 -0.3881880189 0)
(3.102592399 -0.3897836122 0)
(3.103325908 -0.3990155787 0)
(3.103230244 -0.4023143324 0)
(3.104928188 -0.4063492533 0)
(3.106230282 -0.4115550312 0)
(3.10644828 -0.4173717033 0)
(3.105876227 -0.417143929 0)
(3.067486485 -0.2320269923 0)
(3.070403587 -0.2358785718 0)
(3.071158504 -0.241595455 0)
(3.073059064 -0.2544299952 0)
(3.074676481 -0.2624396264 0)
(3.077405551 -0.2654502539 0)
(3.077819215 -0.2705798332 0)
(3.079794483 -0.2831059314 0)
(3.081006307 -0.2908024185 0)
(3.08359196 -0.2936785428 0)
(3.084514864 -0.2986439046 0)
(3.086031025 -0.3101132054 0)
(3.086600401 -0.3169751328 0)
(3.088986199 -0.3200277307 0)
(3.090335028 -0.3241338185 0)
(3.091161607 -0.3340699009 0)
(3.091370783 -0.3407543144 0)
(3.093407175 -0.343330443 0)
(3.094622604 -0.3460142462 0)
(3.095292811 -0.355081902 0)
(3.095328813 -0.3612551658 0)
(3.097089777 -0.3634542713 0)
(3.098298986 -0.3657412287 0)
(3.099130781 -0.3750853416 0)
(3.098874107 -0.3803350475 0)
(3.100713909 -0.3821208331 0)
(3.101930335 -0.3859154936 0)
(3.102041904 -0.3941481904 0)
(3.102384405 -0.3966956245 0)
(3.10417512 -0.4004874772 0)
(3.10549044 -0.4088336984 0)
(3.105798592 -0.4156663103 0)
(3.065465325 -0.2220608035 0)
(3.066892292 -0.2292812972 0)
(3.069488308 -0.2330018769 0)
(3.071370377 -0.2413680066 0)
(3.072788327 -0.2529346986 0)
(3.073982177 -0.2593086486 0)
(3.076559392 -0.2623974231 0)
(3.078054028 -0.2697652678 0)
(3.079168342 -0.280546393 0)
(3.080149694 -0.28631352 0)
(3.08263637 -0.2883497773 0)
(3.083594588 -0.2945735759 0)
(3.084502462 -0.304833682 0)
(3.085399297 -0.3099892495 0)
(3.0876254 -0.3113142251 0)
(3.08792971 -0.3164978364 0)
(3.088966618 -0.326344183 0)
(3.089710875 -0.3316545492 0)
(3.09195279 -0.3333623573 0)
(3.09251939 -0.3381139166 0)
(3.093554012 -0.3479717996 0)
(3.093966262 -0.3531025552 0)
(3.096164071 -0.3546687717 0)
(3.096747664 -0.3589032098 0)
(3.09706652 -0.3679358384 0)
(3.097588312 -0.3706118155 0)
(3.099351554 -0.3721069973 0)
(3.10026326 -0.379305331 0)
(3.100180817 -0.3846873516 0)
(3.101180567 -0.3869785089 0)
(3.10265245 -0.3914912187 0)
(3.103429211 -0.3990415043 0)
(3.059596039 -0.1985680302 0)
(3.062172849 -0.2109798934 0)
(3.064848969 -0.2169377471 0)
(3.066592321 -0.2202059784 0)
(3.067799609 -0.2309438985 0)
(3.069793004 -0.2420929851 0)
(3.07223091 -0.2471868485 0)
(3.073833674 -0.2497630153 0)
(3.074770375 -0.2598137706 0)
(3.076456367 -0.2705024885 0)
(3.078543098 -0.2752835592 0)
(3.080279604 -0.2774525963 0)
(3.081273258 -0.2869170948 0)
(3.082511151 -0.2968195082 0)
(3.084095531 -0.3013818602 0)
(3.086318338 -0.3041766907 0)
(3.087436447 -0.3127449785 0)
(3.087910417 -0.3216662505 0)
(3.088941801 -0.3259833067 0)
(3.091125109 -0.327777783 0)
(3.091748501 -0.3342384997 0)
(3.092113487 -0.3426179093 0)
(3.092954807 -0.3460317656 0)
(3.094844485 -0.3473386427 0)
(3.095821299 -0.3548269796 0)
(3.09577144 -0.3626973 0)
(3.096896041 -0.364509022 0)
(3.098642661 -0.3674822411 0)
(3.099272914 -0.3755541065 0)
(3.099277762 -0.3788480218 0)
(3.10046753 -0.3815173739 0)
(3.102179264 -0.3901040345 0)
(3.057888606 -0.1874753007 0)
(3.06042812 -0.1993354336 0)
(3.061812512 -0.2092967838 0)
(3.064039166 -0.2142013146 0)
(3.06614474 -0.2190927443 0)
(3.068261226 -0.2307305678 0)
(3.069206193 -0.2396301532 0)
(3.071415448 -0.244017913 0)
(3.073328236 -0.2481403118 0)
(3.074956443 -0.2588451023 0)
(3.075649485 -0.2671787644 0)
(3.077750596 -0.2710601528 0)
(3.079511903 -0.2741902557 0)
(3.080830411 -0.284272161 0)
(3.081276544 -0.2919604692 0)
(3.083277224 -0.2947216942 0)
(3.084209062 -0.2961237814 0)
(3.085045065 -0.3052411445 0)
(3.085758525 -0.3131298011 0)
(3.087592081 -0.3161329799 0)
(3.088803319 -0.3181124488 0)
(3.089988462 -0.327438165 0)
(3.090380058 -0.3352536816 0)
(3.092039363 -0.3377038848 0)
(3.093450095 -0.339804961 0)
(3.094095982 -0.3486849196 0)
(3.094203212 -0.3538498431 0)
(3.095819608 -0.3550774467 0)
(3.097285349 -0.3609979836 0)
(3.097403959 -0.3674177591 0)
(3.097902346 -0.3700147009 0)
(3.099634275 -0.3761676405 0)
(3.053143063 -0.169470361 0)
(3.054078341 -0.1757677544 0)
(3.056820486 -0.1891048052 0)
(3.059223558 -0.1981993958 0)
(3.061989248 -0.2019782134 0)
(3.062616264 -0.2081723112 0)
(3.064988277 -0.2208978811 0)
(3.066913341 -0.2287381839 0)
(3.069594917 -0.2319645596 0)
(3.070071148 -0.2376311891 0)
(3.072038013 -0.2495916094 0)
(3.073539724 -0.2568853664 0)
(3.076064352 -0.2595645043 0)
(3.076417102 -0.2643874303 0)
(3.078443892 -0.2760580436 0)
(3.079483836 -0.283155442 0)
(3.081872406 -0.2862636098 0)
(3.083240748 -0.2914676293 0)
(3.084533444 -0.3018535765 0)
(3.084823839 -0.3082624069 0)
(3.086913246 -0.310829645 0)
(3.088123564 -0.314113207 0)
(3.088932973 -0.3233327879 0)
(3.089141932 -0.3288604554 0)
(3.09105046 -0.3303257438 0)
(3.092320753 -0.3352477008 0)
(3.092798405 -0.3442708553 0)
(3.093285651 -0.347402218 0)
(3.095063249 -0.3495785474 0)
(3.096195465 -0.3568995771 0)
(3.096235886 -0.3612463841 0)
(3.097685923 -0.3676348118 0)
(3.049956083 -0.1628925012 0)
(3.052439162 -0.1680672916 0)
(3.054852484 -0.1767651154 0)
(3.057094363 -0.1888123869 0)
(3.058666916 -0.1959828796 0)
(3.061097675 -0.1998827033 0)
(3.063166311 -0.2084941599 0)
(3.064844702 -0.2197134815 0)
(3.066252895 -0.2259432511 0)
(3.068675885 -0.2292120538 0)
(3.070294597 -0.2370830444 0)
(3.071651328 -0.2476797034 0)
(3.072796502 -0.2536022981 0)
(3.075181473 -0.2562972287 0)
(3.076543548 -0.2630778516 0)
(3.077640401 -0.2731496821 0)
(3.078613852 -0.2782585857 0)
(3.080740551 -0.2793094992 0)
(3.081031518 -0.2845485981 0)
(3.082284285 -0.2944531689 0)
(3.083226023 -0.299646906 0)
(3.085269667 -0.3010778007 0)
(3.086029904 -0.307086676 0)
(3.087081162 -0.3168238872 0)
(3.087893237 -0.320907345 0)
(3.089777868 -0.3221096024 0)
(3.090944481 -0.3299178941 0)
(3.091109653 -0.3367284442 0)
(3.092325222 -0.3391345283 0)
(3.094065465 -0.343595834 0)
(3.094531666 -0.3495385346 0)
(3.095250726 -0.3556546192 0)
(3.04478938 -0.1447260477 0)
(3.047664138 -0.1521671833 0)
(3.0495165 -0.1563800779 0)
(3.051100135 -0.1667685958 0)
(3.053925545 -0.1788246729 0)
(3.056683741 -0.1848912606 0)
(3.05824125 -0.188330958 0)
(3.059759129 -0.1990490421 0)
(3.062026412 -0.2099853009 0)
(3.064558806 -0.2151179461 0)
(3.066039702 -0.2180549394 0)
(3.067194594 -0.2280937707 0)
(3.069021185 -0.2383084336 0)
(3.071245896 -0.2430331062 0)
(3.072635413 -0.2451061359 0)
(3.073656048 -0.2544905518 0)
(3.075400569 -0.2647514392 0)
(3.077151527 -0.2694546285 0)
(3.079056868 -0.2719722852 0)
(3.080407286 -0.2809443955 0)
(3.081171597 -0.2898959814 0)
(3.082411939 -0.2939628176 0)
(3.084445266 -0.29593186 0)
(3.085528897 -0.3039652889 0)
(3.085782953 -0.3117071722 0)
(3.087111416 -0.3143191994 0)
(3.088748035 -0.3169026751 0)
(3.089740134 -0.3259156543 0)
(3.089907588 -0.3305173143 0)
(3.091433357 -0.3330149839 0)
(3.092827452 -0.3384007735 0)
(3.093607439 -0.3462792778 0)
(3.042409408 -0.132725414 0)
(3.044726875 -0.1436947987 0)
(3.046989399 -0.1502572698 0)
(3.049346613 -0.1561339534 0)
(3.052113003 -0.1676978843 0)
(3.053732115 -0.1775445824 0)
(3.055896232 -0.1826827947 0)
(3.058001462 -0.1877470782 0)
(3.060397124 -0.199164753 0)
(3.061540309 -0.2079584648 0)
(3.063697293 -0.2122811941 0)
(3.065545907 -0.2166698044 0)
(3.067541061 -0.2274657688 0)
(3.068399741 -0.2358031543 0)
(3.070411068 -0.2399622354 0)
(3.072163317 -0.2432949814 0)
(3.073812016 -0.2532130003 0)
(3.074450954 -0.2611352052 0)
(3.07639609 -0.2643402081 0)
(3.077586685 -0.2661425914 0)
(3.078819151 -0.2756213464 0)
(3.079433273 -0.2832017728 0)
(3.081304544 -0.2857417289 0)
(3.082245539 -0.2880102807 0)
(3.083648107 -0.297995121 0)
(3.08406279 -0.3040934708 0)
(3.085883783 -0.3057799667 0)
(3.087280806 -0.311027335 0)
(3.088050094 -0.3193704258 0)
(3.088819642 -0.3231694486 0)
(3.09046666 -0.3269238773 0)
(3.091780236 -0.334611475 0)
(3.036816869 -0.1130955644 0)
(3.039470923 -0.124831088 0)
(3.042229987 -0.1348598793 0)
(3.044917498 -0.139950591 0)
(3.045929301 -0.1460128674 0)
(3.048720156 -0.158624196 0)
(3.05124751 -0.1677337254 0)
(3.053882644 -0.171664782 0)
(3.054559118 -0.1777289569 0)
(3.057266282 -0.1902760223 0)
(3.05935607 -0.1982931983 0)
(3.06191537 -0.2015657912 0)
(3.062389389 -0.2071162056 0)
(3.064659775 -0.2188919731 0)
(3.0663446 -0.226319311 0)
(3.068820007 -0.2292199025 0)
(3.06912181 -0.2338029648 0)
(3.071297665 -0.2452762871 0)
(3.072578078 -0.2526228123 0)
(3.074902919 -0.2553917159 0)
(3.075763128 -0.2599818744 0)
(3.077558711 -0.2708008472 0)
(3.07817605 -0.27703312 0)
(3.08031394 -0.2793430815 0)
(3.081727706 -0.284645312 0)
(3.082661027 -0.2942943909 0)
(3.083210504 -0.298532368 0)
(3.085175466 -0.3006632081 0)
(3.086558981 -0.3080300076 0)
(3.086754037 -0.3137979706 0)
(3.08769436 -0.3168368423 0)
(3.089847302 -0.3246235409 0)
(3.033956022 -0.1036180749 0)
(3.036540689 -0.1119701241 0)
(3.039610603 -0.1241457964 0)
(3.04169178 -0.1328172117 0)
(3.044111228 -0.1381875746 0)
(3.046613889 -0.1466965107 0)
(3.049121487 -0.1584860013 0)
(3.050748634 -0.1658971194 0)
(3.053071532 -0.170015003 0)
(3.055304731 -0.1782852659 0)
(3.057318165 -0.1894822347 0)
(3.058698014 -0.1959068191 0)
(3.060964619 -0.1992129199 0)
(3.062799313 -0.2069067037 0)
(3.064485042 -0.217510134 0)
(3.065642965 -0.223597528 0)
(3.067914918 -0.2265006331 0)
(3.069371947 -0.2330546042 0)
(3.070813601 -0.243204279 0)
(3.071758097 -0.2487647367 0)
(3.073930806 -0.2506328647 0)
(3.07500487 -0.2565762606 0)
(3.076185161 -0.2664520548 0)
(3.077139328 -0.2709056537 0)
(3.078910455 -0.2718560449 0)
(3.079829153 -0.2789598876 0)
(3.08059323 -0.2873327945 0)
(3.081904734 -0.2899752907 0)
(3.083595535 -0.2934631745 0)
(3.084688532 -0.3014967805 0)
(3.085236272 -0.3062442154 0)
(3.087293128 -0.3133660891 0)
(3.029963106 -0.09157480016 0)
(3.032270405 -0.09691099339 0)
(3.034227598 -0.1054716334 0)
(3.037191439 -0.1172121721 0)
(3.039848544 -0.1245858241 0)
(3.041711038 -0.1286982092 0)
(3.043314348 -0.1381747323 0)
(3.046203162 -0.1499285035 0)
(3.048863152 -0.1562912403 0)
(3.050410058 -0.1595920152 0)
(3.051957044 -0.1695801788 0)
(3.054558205 -0.1807846089 0)
(3.057040377 -0.1863041339 0)
(3.058503714 -0.1890674938 0)
(3.059777681 -0.198621598 0)
(3.061919203 -0.2090187546 0)
(3.064128309 -0.2140449531 0)
(3.065598539 -0.216279768 0)
(3.066630299 -0.2251834818 0)
(3.068501226 -0.2353645357 0)
(3.070339623 -0.2400120969 0)
(3.071844198 -0.2417998681 0)
(3.07312879 -0.250707414 0)
(3.074403182 -0.2599426384 0)
(3.075970976 -0.2635296458 0)
(3.077747359 -0.2665147034 0)
(3.079393627 -0.2764108025 0)
(3.0796649 -0.2826006469 0)
(3.081347236 -0.2856448562 0)
(3.083209829 -0.2912622257 0)
(3.083620477 -0.2967468057 0)
(3.084872553 -0.3037260254 0)
(3.026264541 -0.07968517642 0)
(3.02879328 -0.08780901234 0)
(3.031107309 -0.09377031746 0)
(3.034087651 -0.1042418563 0)
(3.036732213 -0.1153100944 0)
(3.038945115 -0.121956645 0)
(3.041242126 -0.1276144928 0)
(3.044154501 -0.1386576527 0)
(3.04604163 -0.1487129093 0)
(3.048074478 -0.1542534722 0)
(3.050203262 -0.1591046176 0)
(3.052849047 -0.1700192572 0)
(3.054215795 -0.1791897713 0)
(3.056169847 -0.1838293421 0)
(3.058066014 -0.1879294022 0)
(3.060370777 -0.198420369 0)
(3.061416112 -0.2070269737 0)
(3.063278806 -0.211266342 0)
(3.065009777 -0.2145315928 0)
(3.066937091 -0.2243320757 0)
(3.067741102 -0.232554091 0)
(3.069490929 -0.2361747025 0)
(3.071122855 -0.2389217368 0)
(3.072871868 -0.2487529071 0)
(3.073325235 -0.2558095622 0)
(3.075146048 -0.2576250617 0)
(3.076180901 -0.2610822959 0)
(3.077269416 -0.2701367807 0)
(3.078079556 -0.2745383697 0)
(3.079860429 -0.2776501998 0)
(3.081232554 -0.2838922717 0)
(3.082406673 -0.2922712128 0)
(3.021767781 -0.06473430697 0)
(3.024926567 -0.07563391935 0)
(3.027496046 -0.08270236371 0)
(3.029425522 -0.08825850767 0)
(3.032158915 -0.09898917483 0)
(3.034855712 -0.1090571489 0)
(3.037383044 -0.1143135875 0)
(3.03857654 -0.1195561122 0)
(3.041262061 -0.1312458793 0)
(3.043766567 -0.1405963864 0)
(3.04631816 -0.1448553858 0)
(3.047040018 -0.1499807559 0)
(3.049814719 -0.162044234 0)
(3.052021524 -0.1706568974 0)
(3.054530862 -0.1742266402 0)
(3.055039467 -0.1789980164 0)
(3.057563348 -0.1906336064 0)
(3.059372846 -0.1985366284 0)
(3.061796786 -0.201707549 0)
(3.062238883 -0.2059520414 0)
(3.064485063 -0.2171397432 0)
(3.065856585 -0.2244767153 0)
(3.068065197 -0.2269024441 0)
(3.068527167 -0.2311368133 0)
(3.07071971 -0.2422115561 0)
(3.071737281 -0.2480373594 0)
(3.073795674 -0.2505186158 0)
(3.075594889 -0.2581394044 0)
(3.076377087 -0.2662925797 0)
(3.077480801 -0.2705105042 0)
(3.079349382 -0.2748704449 0)
(3.080924346 -0.2832109741 0)
(3.0179108 -0.05242167319 0)
(3.020857337 -0.06191092106 0)
(3.023861169 -0.07231007249 0)
(3.026241531 -0.07878030064 0)
(3.028481857 -0.08553994634 0)
(3.031748694 -0.09714764302 0)
(3.034012554 -0.1062478214 0)
(3.036289431 -0.1115000171 0)
(3.038660049 -0.1190453476 0)
(3.041540413 -0.1307351948 0)
(3.043221362 -0.1386339167 0)
(3.045446767 -0.1430038901 0)
(3.047695261 -0.1503818514 0)
(3.050124268 -0.1616237555 0)
(3.051438941 -0.1686331531 0)
(3.053590338 -0.1721228526 0)
(3.055560111 -0.179039326 0)
(3.057631954 -0.1897736796 0)
(3.058704454 -0.1961544159 0)
(3.060805001 -0.1989748321 0)
(3.062436516 -0.2052547041 0)
(3.064233196 -0.2155963231 0)
(3.065072096 -0.221441824 0)
(3.067107995 -0.2236892471 0)
(3.068847802 -0.2304424566 0)
(3.069953471 -0.2398153421 0)
(3.071039841 -0.2436192247 0)
(3.07276429 -0.2454202176 0)
(3.073977996 -0.253186474 0)
(3.074618078 -0.2591423305 0)
(3.07596221 -0.2626786289 0)
(3.078324021 -0.2710257658 0)
(3.014593496 -0.04277697548 0)
(3.016799935 -0.04908241608 0)
(3.019815348 -0.05884065281 0)
(3.022662428 -0.06843914684 0)
(3.024986604 -0.07415978855 0)
(3.026995618 -0.08119144922 0)
(3.030116501 -0.09259855006 0)
(3.032585728 -0.1005466081 0)
(3.034642255 -0.10462885 0)
(3.036191625 -0.112528731 0)
(3.039110636 -0.1240757286 0)
(3.04154559 -0.1309521214 0)
(3.04331966 -0.134160308 0)
(3.044609761 -0.1426139684 0)
(3.047444328 -0.1540535655 0)
(3.049780323 -0.1602161677 0)
(3.051401805 -0.1627965949 0)
(3.052559919 -0.1712830102 0)
(3.055107935 -0.1822192251 0)
(3.057190626 -0.1877453032 0)
(3.058778858 -0.1898867226 0)
(3.059816527 -0.1980957934 0)
(3.061875928 -0.2083305197 0)
(3.063700882 -0.212916831 0)
(3.064984291 -0.2146222213 0)
(3.066511473 -0.2237806908 0)
(3.06797103 -0.232599575 0)
(3.069737215 -0.2358671028 0)
(3.071668395 -0.2407507207 0)
(3.07291423 -0.2492967378 0)
(3.073663622 -0.2543199163 0)
(3.076090938 -0.2622449656 0)
(3.011224236 -0.03270963065 0)
(3.013578394 -0.03963727817 0)
(3.015789582 -0.04610224303 0)
(3.018904334 -0.05606328942 0)
(3.02156629 -0.06495518907 0)
(3.023742215 -0.07042920749 0)
(3.026249915 -0.07875534559 0)
(3.029349775 -0.09005259697 0)
(3.031518778 -0.09719570396 0)
(3.033619571 -0.1020273302 0)
(3.036441005 -0.1119154258 0)
(3.038792004 -0.1224902502 0)
(3.040688225 -0.1285312213 0)
(3.042778462 -0.1329359701 0)
(3.045518374 -0.143003678 0)
(3.047249913 -0.1527848388 0)
(3.04895782 -0.1580246607 0)
(3.050892055 -0.161635524 0)
(3.053408701 -0.1714609146 0)
(3.054725053 -0.1805875693 0)
(3.056329314 -0.1850911722 0)
(3.058066338 -0.1880473398 0)
(3.060365795 -0.1977596038 0)
(3.061280271 -0.2061366941 0)
(3.06284226 -0.2098749273 0)
(3.064624777 -0.2131157358 0)
(3.066566138 -0.2228870217 0)
(3.067213792 -0.2290690477 0)
(3.069067857 -0.2318808631 0)
(3.070657469 -0.2371761596 0)
(3.071351417 -0.2432686634 0)
(3.073054177 -0.2509067027 0)
(3.007843999 -0.02249331007 0)
(3.010379916 -0.03021336935 0)
(3.012613308 -0.03664741804 0)
(3.014822134 -0.04325179214 0)
(3.017915369 -0.05315450379 0)
(3.02046224 -0.06123574832 0)
(3.022513425 -0.06640898949 0)
(3.025020688 -0.07522773528 0)
(3.027957748 -0.08588757736 0)
(3.030319478 -0.09194896293 0)
(3.031868721 -0.09625708396 0)
(3.034365447 -0.1065572918 0)
(3.036889151 -0.1164396808 0)
(3.039300781 -0.1212541087 0)
(3.040256287 -0.1251863701 0)
(3.042756172 -0.1361606292 0)
(3.045078986 -0.1455432742 0)
(3.047507576 -0.1496749291 0)
(3.048143175 -0.1533123258 0)
(3.050676835 -0.1644357087 0)
(3.052648958 -0.1731518228 0)
(3.05497069 -0.1766322276 0)
(3.055509597 -0.1801479451 0)
(3.057896997 -0.1910869051 0)
(3.0593947 -0.1985834264 0)
(3.061480435 -0.2010489454 0)
(3.062363887 -0.2059916029 0)
(3.064335737 -0.2160774678 0)
(3.065714936 -0.2216382079 0)
(3.067815041 -0.2256727998 0)
(3.069220385 -0.2319849988 0)
(3.070733559 -0.2410849911 0)
(3.005191416 -0.01475235809 0)
(3.007176948 -0.0205504534 0)
(3.009571575 -0.02781833274 0)
(3.011678454 -0.03381531574 0)
(3.013948586 -0.04065594509 0)
(3.016986325 -0.05036970248 0)
(3.019383702 -0.05776950682 0)
(3.021369683 -0.06307460358 0)
(3.024303276 -0.07281802526 0)
(3.026990596 -0.0828355837 0)
(3.029139917 -0.08838437853 0)
(3.031106695 -0.09403942262 0)
(3.034277004 -0.1052865997 0)
(3.036181564 -0.1140222038 0)
(3.038259159 -0.1186628525 0)
(3.040325528 -0.1246412353 0)
(3.043197718 -0.1358220083 0)
(3.044551985 -0.1436191572 0)
(3.046553654 -0.147521772 0)
(3.048490361 -0.153163322 0)
(3.05104105 -0.16402347 0)
(3.052037199 -0.170971513 0)
(3.053963411 -0.1740414549 0)
(3.055756855 -0.1796847786 0)
(3.057875613 -0.1901137026 0)
(3.058712246 -0.195919811 0)
(3.060683978 -0.1986245777 0)
(3.062581755 -0.2055197813 0)
(3.06378904 -0.2137351425 0)
(3.065076285 -0.2181363946 0)
(3.066942832 -0.2224863469 0)
(3.068817223 -0.2312684515 0)
(3.003209329 -0.009100153115 0)
(3.004635169 -0.01314688696 0)
(3.006548512 -0.01872606884 0)
(3.008791733 -0.02550172344 0)
(3.010798727 -0.03116262025 0)
(3.013101248 -0.03815322808 0)
(3.016034974 -0.04754357235 0)
(3.0183367 -0.05425636098 0)
(3.020245548 -0.05969157628 0)
(3.023220612 -0.06969755332 0)
(3.025800782 -0.07891239587 0)
(3.027964614 -0.08360032467 0)
(3.02950788 -0.08946941747 0)
(3.03252722 -0.100653228 0)
(3.034757013 -0.1084777832 0)
(3.03679183 -0.1118822439 0)
(3.037857556 -0.1182362247 0)
(3.040802681 -0.1296300184 0)
(3.04292981 -0.1367005194 0)
(3.044826918 -0.1393895373 0)
(3.045691147 -0.146082848 0)
(3.04855734 -0.1573538056 0)
(3.050485736 -0.1636174837 0)
(3.052199523 -0.1657290259 0)
(3.053272051 -0.1731117574 0)
(3.055545406 -0.1832600894 0)
(3.057379458 -0.1881961092 0)
(3.05899007 -0.1909244629 0)
(3.060428192 -0.1990921164 0)
(3.061902277 -0.2066835198 0)
(3.063563908 -0.2110572723 0)
(3.066239047 -0.2198856415 0)
(3.001703195 -0.004773680094 0)
(3.00280401 -0.007935552235 0)
(3.004126441 -0.01168327143 0)
(3.00595337 -0.01700232359 0)
(3.008051642 -0.02330314266 0)
(3.009957589 -0.02867006943 0)
(3.012318427 -0.03581583016 0)
(3.015114008 -0.04477249156 0)
(3.017298875 -0.0509654694 0)
(3.019259731 -0.05680183731 0)
(3.022415405 -0.06716760882 0)
(3.024763119 -0.07557792812 0)
(3.026772423 -0.08010991517 0)
(3.028972732 -0.08748070811 0)
(3.031992246 -0.09863836043 0)
(3.03380922 -0.1055231681 0)
(3.035793699 -0.1094358815 0)
(3.038261244 -0.1178181535 0)
(3.040641787 -0.1283849898 0)
(3.042129784 -0.1343500145 0)
(3.044080087 -0.13773199 0)
(3.046539551 -0.1462714674 0)
(3.048348896 -0.1560943293 0)
(3.049678515 -0.1611248343 0)
(3.0515087 -0.164050083 0)
(3.053919516 -0.1730440857 0)
(3.055151951 -0.181475722 0)
(3.05661606 -0.1854425921 0)
(3.058733138 -0.1900889603 0)
(3.060166869 -0.1976362197 0)
(3.061197222 -0.2031425789 0)
(3.063795451 -0.2115112312 0)
(3.000772381 -0.002144937147 0)
(3.001454671 -0.004072381836 0)
(3.002438381 -0.006886519511 0)
(3.003660499 -0.01034799795 0)
(3.005392318 -0.01538202346 0)
(3.007345597 -0.02120525264 0)
(3.009174698 -0.02636132056 0)
(3.011547568 -0.03353850633 0)
(3.014207242 -0.04202789596 0)
(3.016294102 -0.04772261404 0)
(3.018294723 -0.05395572901 0)
(3.021397092 -0.06421635416 0)
(3.023708667 -0.07184522678 0)
(3.025558839 -0.07587810936 0)
(3.027655363 -0.08382131545 0)
(3.030516951 -0.09444842318 0)
(3.032685602 -0.1004022216 0)
(3.034116212 -0.1034782907 0)
(3.0361346 -0.1125260277 0)
(3.038675341 -0.1226803904 0)
(3.040883408 -0.1277089281 0)
(3.041891166 -0.1303542659 0)
(3.044034617 -0.1401564686 0)
(3.046260903 -0.1495829549 0)
(3.048442275 -0.1538127351 0)
(3.049302551 -0.1567479931 0)
(3.051497336 -0.1667387762 0)
(3.053289945 -0.1744165023 0)
(3.055404689 -0.1783124183 0)
(3.056936011 -0.1837200819 0)
(3.058100748 -0.1905848724 0)
(3.060347207 -0.1993990764 0)
(3.000303339 -0.0008377752952 0)
(3.00063803 -0.001769070735 0)
(3.001234951 -0.003453121597 0)
(3.002109325 -0.005945346428 0)
(3.00323716 -0.009136907124 0)
(3.004862291 -0.01385522693 0)
(3.00668098 -0.01923449216 0)
(3.008433318 -0.02419670792 0)
(3.010819828 -0.03137822897 0)
(3.013322864 -0.03933386777 0)
(3.015315488 -0.0447066796 0)
(3.017442919 -0.05139286381 0)
(3.0205129 -0.06155779425 0)
(3.022664526 -0.06843749141 0)
(3.024454241 -0.07270805573 0)
(3.02713732 -0.08178334143 0)
(3.029696184 -0.09184556747 0)
(3.031595509 -0.09714616375 0)
(3.033372181 -0.1014129757 0)
(3.036345055 -0.1116711796 0)
(3.038115586 -0.1206490942 0)
(3.039883204 -0.1251236488 0)
(3.041720279 -0.1294625161 0)
(3.04455446 -0.1398267698 0)
(3.045772343 -0.1476421671 0)
(3.047485586 -0.151332476 0)
(3.049521556 -0.1565573532 0)
(3.051591539 -0.165754155 0)
(3.052815758 -0.1720847364 0)
(3.054782217 -0.1765835521 0)
(3.056455204 -0.1822279544 0)
(3.058422917 -0.1915688663 0)
(3.000095698 -0.000261673542 0)
(3.000241229 -0.0006650613943 0)
(3.000523769 -0.001450054005 0)
(3.001041732 -0.002909456684 0)
(3.001815633 -0.005106985614 0)
(3.002851233 -0.008036363819 0)
(3.004366884 -0.01243017983 0)
(3.006052791 -0.01737738728 0)
(3.007746259 -0.02219379786 0)
(3.010097274 -0.02925540918 0)
(3.012470851 -0.03671869319 0)
(3.01436994 -0.04180011101 0)
(3.016606478 -0.04889830339 0)
(3.019534769 -0.05865842095 0)
(3.02167448 -0.06489408046 0)
(3.023284861 -0.06911972087 0)
(3.026028179 -0.07865971595 0)
(3.028470116 -0.08793961524 0)
(3.030560046 -0.09241138316 0)
(3.03169051 -0.09651493648 0)
(3.034544745 -0.1071267952 0)
(3.036610671 -0.1153433213 0)
(3.038691091 -0.1188363497 0)
(3.039456201 -0.1233105493 0)
(3.042284669 -0.1341429818 0)
(3.044185124 -0.1412905679 0)
(3.046186159 -0.1444157792 0)
(3.047309419 -0.1502129139 0)
(3.049359708 -0.1593071961 0)
(3.051286664 -0.1652677884 0)
(3.053196466 -0.1698936325 0)
(3.055465556 -0.1792346594 0)
(3.000023742 -6.425368486e-05 0)
(3.000073134 -0.0001996854699 0)
(3.000190413 -0.0005240401265 0)
(3.000427115 -0.001180729574 0)
(3.000873225 -0.002435890061 0)
(3.00155438 -0.004363658147 0)
(3.00250174 -0.007040934245 0)
(3.003902492 -0.01109728175 0)
(3.005467638 -0.01565385164 0)
(3.007098455 -0.02031462698 0)
(3.00940731 -0.02722650629 0)
(3.011636247 -0.03415688045 0)
(3.013474386 -0.03911849925 0)
(3.015833555 -0.0465395656 0)
(3.018630635 -0.05593266028 0)
(3.020648031 -0.06156240681 0)
(3.022332214 -0.06634312283 0)
(3.025375194 -0.07641008747 0)
(3.02753333 -0.08497676755 0)
(3.029421091 -0.08910617508 0)
(3.031243549 -0.0947799378 0)
(3.034275161 -0.1055430566 0)
(3.035817697 -0.1127715276 0)
(3.037666992 -0.1163043075 0)
(3.039798794 -0.1229157519 0)
(3.042205045 -0.1328409329 0)
(3.04355189 -0.1390416713 0)
(3.045490423 -0.1428464774 0)
(3.047560316 -0.1499500069 0)
(3.049190681 -0.1576621618 0)
(3.050649487 -0.1626724027 0)
(3.053526421 -0.171824763 0)
(3.000004619 -1.239575114e-05 0)
(3.000017322 -4.680221163e-05 0)