/*--------------------------------*- C++ -*----------------------------------*\
  =========                 |
  \\      /  F ield         | OpenFOAM: The Open Source CFD Toolbox
   \\    /   O peration     | Website:  https://openfoam.org
    \\  /    A nd           | Version:  7
     \\/     M anipulation  |
\*---------------------------------------------------------------------------*/
FoamFile
{
    version     2.0;
    format      ascii;
    class       volScalarField;
    location    "2.9";
    object      rho;
}
// * * * * * * * * * * * * * * * * * * * * * * * * * * * * * * * * * * * * * //

dimensions      [1 -3 0 0 0 0 0];

internalField   nonuniform List<scalar> 
22
(
1.40095936
1.408571664
1.442635104
1.504634447
1.407551874
1.434461023
1.483271454
1.520341375
1.490976595
1.515133274
1.523701231
1.537162063
1.53359162
1.512489826
1.539306458
1.514566254
1.446705094
1.514533226
1.428583405
1.342448912
1.402202233
1.303062946
)
;

boundaryField
{
    inlet
    {
        type            calculated;
        value           nonuniform 0();
    }
    outlet
    {
        type            calculated;
        value           nonuniform 0();
    }
    bottom
    {
        type            calculated;
        value           nonuniform List<scalar> 4(1.40095936 1.408571664 1.442635104 1.504634447);
    }
    top
    {
        type            calculated;
        value           nonuniform 0();
    }
    obstacle
    {
        type            calculated;
        value           nonuniform 0();
    }
    defaultFaces
    {
        type            empty;
    }
    procBoundary4to3
    {
        type            processor;
        value           nonuniform List<scalar> 6(1.40004135 1.400561772 1.433969698 1.433969698 1.488167297 1.5396643);
    }
    procBoundary4to5
    {
        type            processor;
        value           nonuniform List<scalar> 6(1.573098855 1.55413025 1.513006132 1.458972166 1.371569254 1.316252217);
    }
    procBoundary4to9
    {
        type            processor;
        value           nonuniform List<scalar> 2(1.562012259 1.522645854);
    }
    procBoundary4to10
    {
        type            processor;
        value           nonuniform List<scalar> 4(1.275885405 1.283631674 1.275885405 1.267412537);
    }
}


// ************************************************************************* //
