/*--------------------------------*- C++ -*----------------------------------*\
  =========                 |
  \\      /  F ield         | OpenFOAM: The Open Source CFD Toolbox
   \\    /   O peration     | Website:  https://openfoam.org
    \\  /    A nd           | Version:  7
     \\/     M anipulation  |
\*---------------------------------------------------------------------------*/
FoamFile
{
    version     2.0;
    format      ascii;
    class       volScalarField;
    location    "0.5";
    object      p;
}
// * * * * * * * * * * * * * * * * * * * * * * * * * * * * * * * * * * * * * //

dimensions      [1 -1 -2 0 0 0 0];

internalField   nonuniform List<scalar> 
22
(
0.9970438693
1.041559644
1.011028234
1.003378221
0.9970081071
1.040833828
1.014208392
1.006584316
1.001335177
1.034224149
1.017024492
1.013010596
1.00179961
1.016338396
1.014147762
1.003279746
1.013482529
1.01195962
1.004922942
1.013424589
1.011267015
1.004749762
)
;

boundaryField
{
    inlet
    {
        type            fixedValue;
        value           nonuniform 0();
    }
    outlet
    {
        type            zeroGradient;
    }
    bottom
    {
        type            slip;
    }
    top
    {
        type            slip;
    }
    obstacle
    {
        type            zeroGradient;
    }
    defaultFaces
    {
        type            empty;
    }
    procBoundary22to16
    {
        type            processor;
        value           nonuniform List<scalar> 5(1.000701427 1.040666909 1.010855803 1.003848921 1.003848921);
    }
    procBoundary22to17
    {
        type            processor;
        value           uniform 0.9556605002;
    }
    procBoundary22to21
    {
        type            processor;
        value           nonuniform List<scalar> 7(1.026827439 0.9704124713 0.9279938446 1.021136821 1.021136821 0.9990059853 0.9687978645);
    }
    procBoundary22to23
    {
        type            processor;
        value           nonuniform List<scalar> 5(0.9553030899 0.9572319306 0.9582656897 0.9605360288 0.9634749907);
    }
    procBoundary22to28
    {
        type            processor;
        value           nonuniform List<scalar> 3(1.007095253 1.009543247 1.004072411);
    }
    procBoundary22to29
    {
        type            processor;
        value           uniform 0.9667438425;
    }
}


// ************************************************************************* //
