/*--------------------------------*- C++ -*----------------------------------*\
  =========                 |
  \\      /  F ield         | OpenFOAM: The Open Source CFD Toolbox
   \\    /   O peration     | Website:  https://openfoam.org
    \\  /    A nd           | Version:  7
     \\/     M anipulation  |
\*---------------------------------------------------------------------------*/
FoamFile
{
    version     2.0;
    format      ascii;
    class       volScalarField;
    location    "4";
    object      p;
}
// * * * * * * * * * * * * * * * * * * * * * * * * * * * * * * * * * * * * * //

dimensions      [1 -1 -2 0 0 0 0];

internalField   nonuniform List<scalar> 
2222
(
0.2184807184
0.2219707936
0.2219389873
0.2229056596
0.2233612904
0.1381376542
0.1268565048
0.1165562548
0.1167967085
0.1328429764
0.1460337897
0.1498230254
0.1556619863
0.1616438917
0.1675030856
0.1724462892
0.1762527418
0.1806649694
0.1866219274
0.1901792455
0.1931149057
0.1966572364
0.199606348
0.2020081348
0.2044518282
0.2068876452
0.2093787983
0.2117468497
0.2138093433
0.2158618387
0.2174429998
0.2190115742
0.2202383188
0.2222430482
0.2233224507
0.2251556063
0.2263341083
0.2274180589
0.2280629807
0.136033681
0.1268283446
0.1165034103
0.1168964028
0.1328673811
0.1467998421
0.154616727
0.1601719221
0.1649178485
0.1689846602
0.1727963645
0.1766626026
0.1813102688
0.1873528914
0.1913369942
0.1941103228
0.1982779977
0.2023974757
0.2044487817
0.2071598936
0.2097939746
0.2124046735
0.2143531501
0.2163444096
0.2180814673
0.2195037556
0.2215035239
0.2233726879
0.2247480499
0.2255409955
0.2263814325
0.228247118
0.2295040629
0.2306080179
0.1302379953
0.127479639
0.1195608271
0.1201160635
0.133389689
0.1519831325
0.1624926564
0.1669430114
0.1721038723
0.1755797285
0.1761733472
0.1785985533
0.1838533365
0.1877845762
0.191489897
0.1944400969
0.198925088
0.2032576931
0.2049284946
0.2080589364
0.2109176789
0.2133912163
0.2150333985
0.2171588897
0.2189535474
0.2202058103
0.2223199169
0.2245128193
0.2255891489
0.2263006561
0.2268860122
0.2288866449
0.2301925359
0.2314984599
0.1283211331
0.1333100327
0.1260783977
0.1240336779
0.1376880699
0.1592763563
0.1668834688
0.1703966691
0.1765891048
0.1813925298
0.1845755336
0.1861711998
0.1906001389
0.1909333467
0.1927507827
0.196022502
0.1998364662
0.2038985884
0.2055716032
0.2084800327
0.2115324619
0.2139579205
0.2154748858
0.2175742352
0.2196659831
0.2210726614
0.2229126859
0.2250601647
0.2261036698
0.2268681873
0.2279272593
0.2296571217
0.2308824105
0.2319166321
0.1293322245
0.1409127613
0.1274424804
0.1242558019
0.1431659071
0.1623549845
0.1687583079
0.1714326115
0.1780779778
0.1839489261
0.1893904316
0.1922786801
0.1950923001
0.1984427548
0.1987264458
0.2024233734
0.2045525335
0.2061306853
0.2082185594
0.2108774845
0.213340466
0.2155734357
0.2174796251
0.2197310957
0.221978491
0.2240149791
0.2249977649
0.2263947263
0.2280144462
0.2292477991
0.2316032752
0.2318920656
0.233021003
0.2338228137
0.2346761674
0.1336889174
0.1424187572
0.1264849873
0.1204482404
0.1452566232
0.1630083707
0.168854243
0.1717639749
0.1779732844
0.1848131857
0.190968249
0.1945631406
0.197049304
0.2026720697
0.2064226611
0.2084831171
0.2115826219
0.2137048696
0.2152054254
0.2172318021
0.2197872787
0.2216243699
0.2235725432
0.225675946
0.2280147639
0.2299210252
0.2306486688
0.2311531589
0.2330924439
0.2346554068
0.2363185622
0.2370171901
0.2374818181
0.2382645142
0.2394204776
0.1361545455
0.1417089773
0.1232728364
0.1186246707
0.1440077429
0.1631881961
0.1697639869
0.1739291667
0.1794996521
0.1858879466
0.1910434579
0.1949470997
0.197930295
0.2043777238
0.2097415502
0.2113840994
0.2147574379
0.2186440669
0.2207216004
0.2222599715
0.2244157167
0.2267450994
0.2284697536
0.2298983522
0.2314473334
0.2329859072
0.2342865928
0.2356594453
0.2367067818
0.2376098122
0.2382501024
0.239819002
0.2407376568
0.2414677571
0.2420416398
0.1366437118
0.1385380538
0.1224811159
0.1185695408
0.1431926767
0.1648700031
0.1740186407
0.1820761227
0.1867971933
0.1910572424
0.1925930391
0.1959976979
0.1997272352
0.2051264885
0.210610702
0.2125910799
0.216173083
0.2203815865
0.2229127924
0.2244834059
0.2264214417
0.228740595
0.2304122968
0.2316363874
0.2327869351
0.2341045994
0.2356414918
0.2374604885
0.2382086449
0.2388396853
0.238972706
0.2406362654
0.2418823044
0.2429093811
0.2432202576
0.1353548586
0.1378781108
0.1226100151
0.1197220341
0.143858153
0.1725504288
0.1860720082
0.1914391676
0.1967897984
0.2008221615
0.2009422869
0.2013325173
0.2064840155
0.2083152157
0.2112742127
0.2133831776
0.2178998927
0.2213224951
0.2236655837
0.225256271
0.2276982713
0.2296118966
0.2310705569
0.2324405115
0.2339332168
0.234996678
0.2362870499
0.2380551417
0.2389885796
0.2400141745
0.2402951211
0.2412918178
0.2422788432
0.2434267018
0.2443297105
0.1305622608
0.1380082313
0.1244239817
0.1305400412
0.1487413925
0.1852360396
0.195216821
0.1958865536
0.2015272823
0.206053784
0.2106172405
0.2121512336
0.2147284856
0.2164746149
0.2158227738
0.2177061361
0.2202124971
0.2237229574
0.2258354443
0.226544344
0.2291797992
0.2314963724
0.2326134013
0.2337477938
0.2355169835
0.237676148
0.238566526
0.2394937565
0.2403986951
0.2416623049
0.2438077303
0.2437545704
0.2446220634
0.2451292087
0.2457961301
0.1281209845
0.1385166926
0.135195462
0.1403539391
0.1628145236
0.191492189
0.1989844573
0.1974829587
0.2030853462
0.2084254752
0.2146897874
0.2176392713
0.2186240631
0.2222022386
0.2255537808
0.2267407493
0.2286394366
0.2302478401
0.2326547191
0.2330909747
0.2345425945
0.2366956643
0.2385921037
0.2398013233
0.2414201095
0.243343491
0.2444122265
0.2442259475
0.2456822516
0.247058981
0.2483848635
0.2482408407
0.2487974125
0.249661473
0.2505422
0.128250847
0.1401296394
0.1454042831
0.1423370183
0.1712381263
0.1939747414
0.2001911353
0.1995815561
0.2048076035
0.2104253034
0.2162572038
0.219717115
0.2203790701
0.2252505195
0.2307623012
0.2315348037
0.233870375
0.236728298
0.2390325708
0.2397255221
0.2412267152
0.2424922291
0.2439044548
0.2449923928
0.2461746681
0.2470971036
0.2482690457
0.2487688273
0.249490959
0.2502964614
0.2508488382
0.2517790534
0.2523867284
0.2528546944
0.2532632629
0.1288777206
0.1458540887
0.1483230333
0.1399564288
0.173451945
0.1961941273
0.2028932629
0.2054789203
0.2107703325
0.2160589936
0.2181307641
0.2214685453
0.2227434439
0.2274263791
0.2328392903
0.234481637
0.2358409836
0.2397506077
0.2423727344
0.2427889426
0.2439357582
0.2455457363
0.2466304459
0.2474309346
0.2479579263
0.2487680834
0.2502040717
0.2512043306
0.2514490596
0.2516810336
0.2518729507
0.2530629897
0.2540629637
0.254568927
0.2548024094
0.2551201389
0.1345579487
0.1584891783
0.1467798737
0.1407634521
0.1748863821
0.2031551967
0.2118884865
0.2189541106
0.2243523794
0.2281796318
0.2266843457
0.2272070656
0.2311280024
0.2327973792
0.2344031384
0.237394242
0.2382558786
0.2417288262
0.2438880797
0.2448721562
0.2452137446
0.2468239623
0.2484811169
0.2493285952
0.2495040769
0.2500197246
0.251223504
0.2521773658
0.252948711
0.2533977676
0.2538309713
0.2540966271
0.2547352039
0.255613972
0.256431292
0.2564436706
0.1409264183
0.168079164
0.1452666205
0.1471918506
0.1780635807
0.2197686666
0.2270078572
0.2284308389
0.2328764593
0.2355718984
0.2383352443
0.2392092856
0.2407973335
0.2418957839
0.2405284366
0.2408728042
0.2426640998
0.2449749774
0.2466475931
0.2470756953
0.2486276507
0.2496223746
0.2504775921
0.2507053306
0.2520239309
0.2538495842
0.2546964492
0.2543044715
0.2546483204
0.2556696088
0.2579378697
0.2574448623
0.2577615179
0.2578234643
0.2582605487
0.258857817
0.1408151523
0.1726759296
0.149343513
0.1692524136
0.19437044
0.2340835868
0.2369747383
0.2332193671
0.2371195488
0.2398345532
0.2441507392
0.2459425917
0.2457881767
0.2467640463
0.2501555764
0.2507914286
0.2500198498
0.2518066804
0.2543744277
0.2541572333
0.2544627263
0.2561869773
0.2571077954
0.2565575951
0.257454972
0.2588163703
0.2598259483
0.259562841
0.2602094484
0.2609788219
0.2615735159
0.2614748811
0.2616356691
0.2624346712
0.2628893406
0.2625856585
0.1337636902
0.1754561437
0.1699814999
0.1837553648
0.2153141554
0.2425734646
0.2425616799
0.2373970243
0.2415865373
0.2443476773
0.2474355987
0.2496808369
0.2486765255
0.2506601914
0.2551385552
0.2556600807
0.2561643958
0.2577909524
0.2595782173
0.2592731229
0.259682924
0.2607558464
0.2612899496
0.2612568489
0.2617924126
0.2621488024
0.2627840586
0.2630572769
0.2632011057
0.2635763639
0.2638578612
0.2641388884
0.2644097164
0.2647412189
0.2649557415
0.2651215478
0.1335538235
0.1767933752
0.2028377164
0.1920150916
0.2248563585
0.2491551698
0.2521472593
0.2479144384
0.2548440252
0.2561672548
0.254572448
0.2553336573
0.2560187832
0.2563374276
0.2586847895
0.2593552465
0.2585811982
0.260882979
0.2624738745
0.2625521726
0.2628606797
0.2638602895
0.2642743796
0.2636207284
0.2636857079
0.264182654
0.2651929986
0.2655428439
0.2652707918
0.2652810073
0.2654602948
0.2655965637
0.2662534099
0.266585952
0.266738484
0.2665907645
0.1367872728
0.1826192764
0.2227355382
0.2092964913
0.2366024332
0.2690657569
0.2723213805
0.2646130115
0.2672087207
0.2668229585
0.2664236384
0.2657691542
0.2651365093
0.264251819
0.2649994706
0.2657905215
0.2635332747
0.2646968312
0.2675240705
0.2665025028
0.2657380616
0.2671446463
0.2678539377
0.267132615
0.2672207793
0.267914594
0.2684766499
0.2682521252
0.2685212956
0.2690044536
0.2695190678
0.2690738308
0.2685824929
0.2691232278
0.2695395035
0.2696283263
0.1862709212
0.242733141
0.2413129243
0.2432718727
0.2539295526
0.283445734
0.2838853423
0.2745599691
0.2740882315
0.2742663456
0.2738475939
0.272934218
0.2708701094
0.2702829395
0.2720964361
0.2716033508
0.2701040977
0.2711636472
0.2723400649
0.2714927622
0.270885344
0.2717062094
0.2719014063
0.2710754885
0.2709569232
0.2715945139
0.2719528182
0.2716223112
0.2713110463
0.2716553995
0.2717749724
0.27166344
0.2713275842
0.2715393373
0.2718956312
0.2717966887
0.3096289774
0.3445005762
0.2932207014
0.2545340243
0.2595187504
0.2881184916
0.2911122231
0.2812995679
0.2802074129
0.2796680088
0.278445484
0.277208408
0.2742845635
0.2730900137
0.2748188251
0.2744076414
0.2721612803
0.2727455384
0.2742521057
0.2734657963
0.2722593118
0.2729354065
0.2734702517
0.2727181363
0.2720989413
0.2725637227
0.2729492506
0.2728254633
0.2723558524
0.2725530448
0.2727332068
0.2726866386
0.2721648029
0.2723055761
0.2726984025
0.2726857291
1.085030411
0.6570775808
0.3890260209
0.3188856679
0.3328622391
0.3428127456
0.3288326193
0.3099370031
0.3035096542
0.2999666441
0.2958379654
0.2933837408
0.2894880108
0.2864236409
0.287097303
0.2865221385
0.283329724
0.2827646377
0.2837040639
0.2832169811
0.2812958298
0.2809499294
0.2811998619
0.2807433979
0.2795639389
0.2794005112
0.2796390731
0.2795610129
0.2788003919
0.2784453881
0.2785206527
0.2785150049
0.2779779578
0.2776473934
0.2777353732
0.2777698385
0.2774306
1.422084624
1.12739553
0.8574176728
0.6935338356
0.576552656
0.4830004537
0.4264034874
0.3940808478
0.376243282
0.3641066935
0.3511295622
0.3441690121
0.338643592
0.3297488032
0.3247612831
0.3233564026
0.3188564381
0.3127171188
0.3114352395
0.3113229942
0.308474419
0.3044619415
0.3034961038
0.3034929886
0.3016158423
0.2988819956
0.2984045726
0.2986665389
0.2976510717
0.2955236649
0.294561039
0.2946936559
0.294280896
0.2929980835
0.2920542015
0.2919188435
0.2916576383
1.472665327
1.383448234
1.180106013
0.9437678743
0.7541188419
0.6153359541
0.5494469874
0.5164734819
0.4783464265
0.4490650762
0.4274534502
0.4114086607
0.4034090379
0.3903727051
0.372756722
0.3703857258
0.3672337387
0.3539444742
0.3471131924
0.3480607261
0.3449216519
0.3347852279
0.3323247286
0.3333522082
0.3310649931
0.3239758922
0.3225763829
0.3233820523
0.3221927425
0.3172225302
0.3149100319
0.3154531911
0.315165746
0.3123942458
0.3096086283
0.3097965313
0.3098005251
1.478168078
1.45797375
1.365916562
1.192272876
1.008504464
0.8582488227
0.7422611707
0.6581315027
0.5880638305
0.5343328187
0.5023728404
0.4752332207
0.4567053207
0.4429758159
0.4223468125
0.411246615
0.407800082
0.3978097393
0.382382378
0.3786583454
0.3767467222
0.3689745997
0.3594191912
0.3576343036
0.356805396
0.3517724357
0.3450632276
0.3434141977
0.3430564694
0.3401138856
0.3349530745
0.3327308084
0.3325489136
0.3313440477
0.3279936996
0.3254477523
0.3248299277
1.478603977
1.474996436
1.445428361
1.354422726
1.205577917
1.044236159
0.8964279509
0.7755809007
0.6925558454
0.6329153457
0.5891525381
0.5544473536
0.5241030218
0.5037550223
0.4826589945
0.4598146119
0.4522361197
0.4451991523
0.4258763186
0.4115635392
0.4111083024
0.4070693325
0.3922196635
0.3837943271
0.3846267044
0.3823156167
0.3717068615
0.3654573302
0.3662149279
0.3649100134
0.3577488695
0.3519570662
0.3522972928
0.3519376585
0.3480282451
0.3423451218
0.3418330736
1.478619705
1.478169365
1.470619959
1.434532609
1.346078205
1.213049764
1.072968122
0.9452933937
0.8456590276
0.7677947774
0.6978367373
0.6406495934
0.5975269939
0.5669694881
0.5411008875
0.5114507482
0.4944431089
0.4867253262
0.4712341667
0.4483337306
0.4421611775
0.4392534974
0.4283621794
0.4130325544
0.4098702284
0.4084546761
0.4009548543
0.389890452
0.3873307092
0.3867039279
0.3820584159
0.3738053211
0.3704855611
0.37006359
0.3679509569
0.3623018433
0.3581359467
1.478537284
1.478739092
1.477147249
1.465697239
1.424913054
1.339174527
1.219813292
1.091584117
0.9715597007
0.8725062579
0.7918424187
0.7245432313
0.6731286742
0.6360481032
0.606992543
0.5752570739
0.5449972586
0.5320691809
0.520145918
0.4950212946
0.4753382329
0.4731075624
0.4673635695
0.4491973384
0.4359215931
0.4356153351
0.4323915011
0.4192531991
0.4087599279
0.4091434506
0.4076163446
0.3986596383
0.3893595835
0.3893774731
0.3889479617
0.383940778
0.3754429437
1.478528919
1.478673863
1.478570364
1.475679589
1.460559125
1.416331652
1.333486554
1.224051456
1.106812551
1.000219516
0.9144662977
0.8398795433
0.7732678155
0.7201233871
0.6791564448
0.641035449
0.6014491507
0.5775601688
0.5646944261
0.5436912717
0.5140269721
0.5047994809
0.5006750554
0.4875502427
0.4671269503
0.4612477829
0.4591505001
0.4503451145
0.4350748276
0.4302393379
0.429448999
0.4240229352
0.4128117991
0.4077988853
0.4072979218
0.404481559
0.3967011409
1.478585446
1.478571028
1.478629679
1.478311186
1.473964723
1.455471948
1.408542138
1.32876264
1.226933363
1.118416797
1.020381986
0.9345450222
0.8562233304
0.793088993
0.7474291864
0.708005705
0.6648662802
0.6276025323
0.6109947439
0.5958385195
0.5658828237
0.5395109529
0.534357789
0.5269335552
0.5068212445
0.488253681
0.4857465153
0.4815836634
0.4676735038
0.4526344224
0.4513293043
0.4495089496
0.4403404748
0.4271379541
0.42554238
0.4251583452
0.4200028207
1.478730302
1.478603718
1.47866132
1.47859317
1.477700567
1.471587952
1.44997864
1.40131698
1.324435129
1.228292408
1.128317102
1.040178484
0.9599444925
0.8873805218
0.8327314634
0.7879600414
0.7396059906
0.6900200022
0.6605453163
0.6433330251
0.6173665707
0.5817450387
0.5675864848
0.5617487698
0.5467591256
0.5214020796
0.5113115797
0.5085141661
0.4994533032
0.4816266278
0.4728501727
0.471444918
0.4660595819
0.4529397452
0.4440658231
0.4432683597
0.4406202548
1.478637023
1.47852569
1.478677817
1.478788595
1.478578593
1.476864728
1.468708289
1.444168767
1.3943779
1.320118119
1.228723167
1.137745535
1.055844337
0.974144713
0.9024060019
0.8513085825
0.8057735405
0.7546003289
0.7115344135
0.6894335972
0.6692774222
0.6355260935
0.6042052964
0.5962007647
0.5871145585
0.5641276123
0.5391968967
0.5347461092
0.5303264156
0.5163411282
0.4972331934
0.4929132213
0.4906027528
0.4819938834
0.466279319
0.4611696244
0.4604908628
1.478161422
1.478526388
1.478819017
1.478849036
1.478789592
1.478373499
1.475763496
1.465402573
1.438120389
1.387896702
1.315904665
1.229493502
1.147165695
1.069024058
0.9884998557
0.9270821643
0.8833374753
0.8334742375
0.7777225429
0.7426094639
0.7211949064
0.691594534
0.6509438223
0.6299528184
0.6216861521
0.6051453707
0.575996253
0.5609662132
0.5573973317
0.5480748578
0.5280396563
0.5149194772
0.5127500693
0.507604066
0.4940206732
0.4810941654
0.4789242787
1.477804124
1.478475326
1.478678858
1.478765771
1.478889949
1.478829173
1.478037014
1.4740582
1.461360969
1.432073064
1.382303524
1.312246455
1.231361513
1.155727164
1.077069187
0.9992936997
0.9453553421
0.8988084637
0.841607732
0.7913139701
0.7660728181
0.7434022942
0.707084573
0.668404355
0.6548162118
0.6443403091
0.6215870692
0.5920056041
0.5834597631
0.578232805
0.5639821993
0.5413021904
0.5339813795
0.5315307861
0.5233185908
0.5061543504
0.4970414959
1.477370724
1.47777539
1.478118273
1.478617929
1.479191474
1.479177712
1.478762917
1.476934556
1.471527057
1.45722453
1.427073375
1.377801392
1.30903054
1.233733352
1.161911133
1.082608395
1.012861976
0.9677398763
0.9195258246
0.8592444183
0.8191703219
0.7962346515
0.7650990336
0.7200103106
0.691392479
0.6803812426
0.6632839854
0.6317916072
0.6101831669
0.605165035
0.5961628056
0.5754070451
0.5571460594
0.5533377404
0.5482414962
0.5347637546
0.5185950791
1.476145511
1.47659847
1.477599548
1.47894718
1.479557038
1.479391018
1.478757919
1.477875071
1.475899083
1.469982855
1.454376452
1.423062849
1.373047909
1.305419413
1.235940407
1.165694733
1.087251283
1.027588661
0.9833422815
0.9268786769
0.8681439234
0.8374806851
0.8133589392
0.7757041351
0.7320676775
0.7136725334
0.7018101935
0.6785095912
0.6440712366
0.6309555099
0.6256370373
0.6124491341
0.5877643836
0.5746795092
0.5712299908
0.5635040026
0.5463192603
1.476046848
1.476637022
1.478525946
1.479520325
1.479504371
1.479185391
1.478229526
1.477872074
1.47778896
1.476235825
1.469561448
1.451923903
1.418767811
1.367504961
1.30231011
1.237871128
1.167636392
1.09323653
1.042548272
0.9978790152
0.9365765001
0.8876536268
0.8640837058
0.8348612055
0.787727171
0.7520144921
0.7385328894
0.7211996565
0.6883106085
0.6599544709
0.652548379
0.6438030928
0.6233234015
0.6000057508
0.5932338091
0.5883180127
0.5757502558
1.479560939
1.478929284
1.479157588
1.479265831
1.479163762
1.478272256
1.477674332
1.478013799
1.478748249
1.478407231
1.475913533
1.467467865
1.447796354
1.413406594
1.361757365
1.300320162
1.239261064
1.16810224
1.100804999
1.056142475
1.005678457
0.9417966306
0.9032807089
0.8793705911
0.8428746503
0.7947269002
0.7703186552
0.7573107872
0.7347700698
0.6983948035
0.6787951845
0.6722423487
0.6595324425
0.6339121848
0.6152983976
0.6109957408
0.6039596371
1.483972069
1.480745958
1.479070882
1.478724133
1.478082802
1.477128613
1.477253233
1.478070365
1.47930047
1.479228906
1.478175816
1.474429378
1.464318568
1.443319562
1.40812914
1.356773146
1.299386736
1.239507037
1.168466331
1.109911386
1.067418651
1.011315215
0.9520516387
0.9242928002
0.898967917
0.8540232088
0.8107110772
0.7937120754
0.7771341827
0.7453874202
0.7110180452
0.699280726
0.690460411
0.6709575528
0.6436338372
0.6326767084
0.6278170239
1.477088111
1.47978885
1.479893347
1.478598648
1.476759447
1.476313909
1.476833078
1.477933395
1.479073911
1.479202135
1.478973117
1.477369957
1.472653385
1.461332094
1.439380931
1.403275883
1.352822699
1.298886751
1.238483423
1.169758924
1.119595885
1.07531629
1.013558578
0.9640619759
0.9396797971
0.9070807896
0.8568584596
0.8242957305
0.8104373506
0.7895415274
0.7527808778
0.7257734749
0.7174704669
0.7058086795
0.6811969428
0.6564045038
0.6494706902
1.46399078
1.484243484
1.48217598
1.478389585
1.474959307
1.475773086
1.476878055
1.477897461
1.478373428
1.478244645
1.478052757
1.477786422
1.475980937
1.470640868
1.458454356
1.435685374
1.398656544
1.349811036
1.297999628
1.236287359
1.172732609
1.128145105
1.079987519
1.016999911
0.9788631289
0.955862265
0.9168675431
0.867093505
0.8451083238
0.8302120576
0.8012725752
0.7622550543
0.7447207406
0.7357886576
0.7179728397
0.6884715285
0.6715074942
1.460440691
1.480239819
1.46913742
1.470097556
1.474389043
1.478183168
1.478304188
1.478189811
1.478132657
1.478126222
1.477979615
1.477538429
1.476828325
1.474570268
1.468893357
1.456028213
1.432170281
1.394207049
1.347185284
1.296031951
1.233673478
1.176995362
1.135097307
1.081674592
1.02261047
0.9931659683
0.9660250041
0.9187580783
0.8757884091
0.8597425453
0.8414010075
0.8067027676
0.7728484713
0.7612810421
0.750097236
0.7270855977
0.6979332626
1.369838396
1.432153361
1.443701133
1.463958566
1.482444569
1.481997664
1.480096781
1.47881193
1.478785625
1.478725314
1.478345348
1.477822148
1.476847567
1.476046495
1.474087207
1.468068486
1.453960991
1.42846041
1.389822061
1.344574055
1.293086389
1.231872624
1.182215608
1.140015402
1.082183756
1.031360543
1.006698546
0.9750463112
0.9230644066
0.8916647978
0.8783593487
0.8544887291
0.813939378
0.788844645
0.7791099942
0.7632161827
0.7337099175
1.179079086
1.344599697
1.430918417
1.477781773
1.482542395
1.479769338
1.477950588
1.479343038
1.479724691
1.479234422
1.47837247
1.477834231
1.477683036
1.477117827
1.476046357
1.473790417
1.466851078
1.45134689
1.424366559
1.385825879
1.342093616
1.289837851
1.231742978
1.187606955
1.142749163
1.082920441
1.04230343
1.018014386
0.9782504087
0.9273441015
0.9055099349
0.8898461055
0.8589865123
0.8194789759
0.8029721242
0.7924698574
0.7720870373
1.039514581
1.188201032
1.348706821
1.455146767
1.455557919
1.462721996
1.474816101
1.480689256
1.480241825
1.478734431
1.478838821
1.478662264
1.478284622
1.477860712
1.477182864
1.476343146
1.473580637
1.465318549
1.44846955
1.420442209
1.382673748
1.339757984
1.286732826
1.233348059
1.192247792
1.143294178
1.085936259
1.053670386
1.02700281
0.9803173593
0.936848242
0.9217903375
0.903214891
0.8652666849
0.8316843958
0.820075567
0.8065645708
1.003591068
1.057864617
1.191883144
1.364377383
1.411521674
1.451055433
1.478811287
1.479214827
1.476839633
1.477383048
1.479033236
1.478943386
1.478229774
1.477844452
1.47781343
1.47755019
1.476655474
1.472984537
1.463501545
1.445614927
1.416870144
1.380015452
1.336974369
1.283996133
1.235920029
1.195345797
1.142497965
1.091402799
1.064275786
1.032549427
0.9813159659
0.9484385705
0.9341685455
0.9090550707
0.867514563
0.8429400117
0.8326320427
1.00013414
1.010165838
1.064228829
1.193311412
1.33873076
1.448916292
1.472477573
1.468808985
1.471732921
1.477282507
1.478926249
1.4779515
1.476914189
1.477134365
1.477846692
1.478029331
1.478017348
1.476546431
1.471779463
1.461348589
1.442541922
1.413338734
1.377237255
1.333510273
1.282062335
1.238637547
1.196622214
1.141804199
1.098802789
1.073115112
1.035569352
0.9850093793
0.9617454352
0.9466831277
0.9155531919
0.8749572443
0.8585417629
1.000002223
1.001077488
1.012931834
1.065532829
1.195318143
1.36833716
1.416293516
1.446509607
1.47797282
1.478664767
1.47757529
1.476259745
1.476060668
1.476780686
1.477505754
1.477994561
1.478184418
1.477984476
1.476040914
1.470448993
1.459126822
1.439212683
1.409767657
1.37407342
1.329656938
1.281053019
1.24077052
1.196279144
1.142263499
1.106837281
1.079980376
1.036308946
0.9914973027
0.9740353715
0.9547985897
0.9170119804
0.8825028696
1.000000016
1.000075253
1.001562506
1.013332806
1.075042579
1.20574747
1.332064292
1.436351323
1.46991802
1.467563353
1.473067846
1.476388193
1.476808782
1.477198103
1.477129755
1.477812422
1.478370174
1.478399126
1.477553919
1.47476803
1.46858561
1.456558777
1.435693324
1.406279284
1.370532517
1.325792684
1.280690514
1.241921601
1.194670397
1.144400541
1.114487534
1.084543754
1.036770765
1.000599449
0.9853845828
0.961823309
0.9203067071
1
1.000003423
1.00011372
1.001790896
1.017557024
1.073029541
1.203771372
1.362108266
1.412993953
1.440837818
1.468451998
1.476828843
1.476194222
1.475357883
1.476647853
1.478377136
1.478616209
1.478570006
1.478070669
1.476571275
1.473431075
1.46684737
1.454002252
1.432247353
1.402889184
1.3666907
1.322287459
1.280726039
1.241911324
1.192550061
1.148221251
1.121143452
1.086709425
1.038178869
1.010878414
0.9947776814
0.9647274742
1
1.000000101
1.000005087
1.00015924
1.002658109
1.016010708
1.082738486
1.208666116
1.328026925
1.431817
1.469303964
1.46939835
1.469091422
1.472799526
1.477010597
1.478520324
1.4785483
1.478543526
1.478207333
1.47739864
1.475882887
1.472652984
1.465484282
1.451525015
1.428905544
1.399529529
1.362676599
1.319473422
1.280841795
1.240630276
1.190950245
1.153291306
1.126330626
1.086870203
1.041852071
1.020928318
1.002385208
1
1.000000002
1.000000145
1.000009727
1.000250435
1.002331686
1.020820392
1.07669494
1.206439907
1.360576376
1.433458454
1.445763163
1.46041119
1.476732569
1.477422784
1.477047438
1.477537602
1.478186576
1.478163271
1.477679462
1.476933919
1.475524516
1.471982501
1.463978382
1.448839792
1.425635972
1.396156007
1.358686627
1.317503558
1.28064442
1.238383208
1.190895007
1.158691812
1.129754144
1.086137192
1.047603401
1.030060412
1
1
1.000000003
1.000000399
1.000014998
1.000223603
1.003309777
1.018003859
1.088029272
1.211558576
1.332412731
1.418236721
1.46899979
1.474729591
1.47225566
1.474610887
1.478509711
1.479007107
1.478285109
1.477882049
1.47772207
1.477218969
1.475564424
1.471337189
1.462334719
1.446118804
1.422596148
1.392741206
1.354993724
1.316256323
1.279916097
1.235951768
1.192561919
1.163606204
1.131372588
1.085881432
1.054830636
1
1
1
1.000000011
1.000000539
1.000014627
1.000337222
1.002738805
1.023370802
1.08032189
1.206585257
1.343729493
1.446296156
1.448264597
1.459292736
1.476790225
1.479862674
1.478763011
1.478105394
1.478828425
1.479024732
1.478596709
1.477602789
1.475432818
1.47047426
1.460472654
1.443400383
1.41971684
1.389312787
1.351926731
1.315459056
1.278669962
1.234019953
1.195398873
1.167636405
1.131504819
1.087032548
1
1
1
1
1.000000012
1.000000642
1.000022582
1.000276517
1.003817986
1.019721861
1.086725081
1.210246153
1.346077131
1.406334837
1.453615398
1.476599686
1.476934759
1.474533961
1.477152411
1.479767453
1.479802836
1.479260121
1.47871292
1.477710795
1.475245599
1.469591208
1.458674483
1.441012576
1.417133163
1.386114371
1.349600951
1.314817009
1.27695625
1.23281062
1.198786159
1.170598748
1.130599304
1
1
1
1
1
1.000000019
1.00000097
1.000018729
1.000398535
1.003117693
1.02341214
1.084078877
1.208261653
1.344969302
1.446788871
1.457056528
1.460017636
1.46685599
1.475942365
1.479269383
1.479077711
1.478831427
1.478806583
1.478441943
1.477306265
1.474573052
1.468465229
1.456958808
1.438890957
1.41464011
1.383064985
1.347820253
1.314074625
1.274797559
1.23254482
1.202290074
1.172253207
1
1
1
1
1
1
1.000000026
1.000000864
1.000027288
1.000326894
1.003981455
1.022342403
1.085830623
1.210357128
1.366845241
1.411002527
1.441084085
1.471420974
1.475821805
1.475240574
1.476205502
1.477654309
1.478223638
1.47805229
1.478083261
1.477118007
1.47396029
1.467239317
1.455068049
1.436646153
1.411973617
1.380122385
1.346457833
1.312969003
1.272390514
1.233400163
1.205401809
1
1
1
1
1
1
1
1.000000028
1.00000128
1.00002297
1.00044837
1.003730817
1.022968585
1.088300791
1.212433341
1.337194631
1.432850502
1.464016318
1.465416392
1.470081092
1.474522313
1.477236457
1.476724963
1.476856652
1.477652444
1.47775052
1.476597372
1.47303139
1.465682137
1.452843733
1.434150675
1.40898099
1.377291185
1.345209613
1.311192982
1.270208028
1.235088959
1
1
1
1
1
1
1
1.000000001
1.000000041
1.000001122
1.000032719
1.000405287
1.003933904
1.023722842
1.085236533
1.211757879
1.360958685
1.408690529
1.44149887
1.473463186
1.476183491
1.474930733
1.475005176
1.476544988
1.478044951
1.477911275
1.477307226
1.475649868
1.471751165
1.463872386
1.450486831
1.431447236
1.40566641
1.374606361
1.343690454
1.30874676
1.268599503
1
1
1
1
1
1
1
1
1.000000001
1.000000038
1.000001603
1.000028335
1.000447943
1.004185607
1.021780171
1.091606723
1.219166892
1.332983774
1.43266179
1.467653558
1.46440869
1.467019485
1.473654404
1.477664441
1.478258589
1.477956771
1.477588145
1.476932668
1.475094256
1.47073686
1.462167049
1.448210573
1.428631642
1.402290806
1.372067577
1.341689342
1.305827788
1
1
1
1
1
1
1
1
1
1.000000001
1.000000053
1.000001357
1.000034665
1.000475951
1.003843408
1.02529288
1.087358628
1.217815159
1.370546368
1.417074966
1.433914873
1.456516478
1.472551514
1.476507434
1.476082176
1.477247239
1.477602344
1.477397591
1.476662414
1.474609043
1.469849201
1.460632704
1.446044358
1.425768723
)
;

boundaryField
{
    inlet
    {
        type            fixedValue;
        value           nonuniform 0();
    }
    outlet
    {
        type            zeroGradient;
    }
    bottom
    {
        type            slip;
    }
    top
    {
        type            slip;
    }
    obstacle
    {
        type            zeroGradient;
    }
    defaultFaces
    {
        type            empty;
    }
    procBoundary27to20
    {
        type            processor;
        value           nonuniform List<scalar> 
31
(
1.478817509
1.478913768
1.47867172
1.478429084
1.478338851
1.478157865
1.478340052
1.478748919
1.479136093
1.479160822
1.478689826
1.477568463
1.476644161
1.477452756
1.477781979
1.477147834
1.479765465
1.485624727
1.479436037
1.445284159
1.40232726
1.243072666
1.067889807
1.004936298
1.000020596
0.9999999843
0.9999999974
0.9999999999
1
1
1
)
;
    }
    procBoundary27to21
    {
        type            processor;
        value           nonuniform List<scalar> 
35
(
0.2150817913
0.2172621903
0.2186486451
0.2201008401
0.2212718504
0.138017668
0.1280574756
0.1172915497
0.117051894
0.1335384297
0.1460385955
0.14863595
0.1547703628
0.1611283816
0.1669513191
0.172063004
0.175690461
0.17958394
0.184141827
0.1865115083
0.1900759282
0.1924836009
0.1931781188
0.1962546035
0.1987484187
0.2010288167
0.2031858392
0.2061078867
0.2085653959
0.21091379
0.2126133167
0.2138031625
0.2149766258
0.2171185294
0.2171185294
)
;
    }
    procBoundary27to26
    {
        type            processor;
        value           nonuniform List<scalar> 9(1 1 1 1 1 1 1 1 1);
    }
    procBoundary27to28
    {
        type            processor;
        value           nonuniform List<scalar> 
55
(
0.2251050556
0.2293130452
0.2314361285
0.2321904099
0.2326393279
0.2326393279
0.2354534064
0.2400684661
0.2429269617
0.2440598095
0.2450718824
0.2463161572
0.2508844203
0.2539362774
0.2539362774
0.2557688329
0.2567294792
0.2594586536
0.2625634106
0.2653291344
0.2664502131
0.2693071167
0.2714259905
0.2722220605
0.2722220605
0.277048763
0.2907481572
0.3081700748
0.3241821301
0.3419326789
0.3572938857
0.3738904505