/*--------------------------------*- C++ -*----------------------------------*\
  =========                 |
  \\      /  F ield         | OpenFOAM: The Open Source CFD Toolbox
   \\    /   O peration     | Website:  https://openfoam.org
    \\  /    A nd           | Version:  7
     \\/     M anipulation  |
\*---------------------------------------------------------------------------*/
FoamFile
{
    version     2.0;
    format      ascii;
    class       volScalarField;
    location    "0.8";
    object      T;
}
// * * * * * * * * * * * * * * * * * * * * * * * * * * * * * * * * * * * * * //

dimensions      [0 0 0 1 0 0 0];

internalField   nonuniform List<scalar> 
555
(
1.006447787
1.00379512
1.001148284
0.9115525872
0.8977210646
0.8881039139
0.8737600636
0.843804516
0.8233338497
0.8213089325
0.8252119481
0.8403384239
0.8747486949
0.9401212977
0.9873794522
1.000335758
1.002677928
1.004740855
1.002360482
1.000385262
0.9111430875
0.8991790033
0.8901168421
0.8742249759
0.8431589194
0.8234928712
0.8221680632
0.8270118865
0.8441857477
0.8910371988
0.9564696075
0.9900249641
0.9992776469
1.001005976
1.002662024
1.000422787
0.9989241211
0.910461241
0.9008677401
0.8920975314
0.8744285237
0.8419532851
0.8239837455
0.8228906848
0.8286824777
0.8517017311
0.9054461714
0.9594298496
0.9873878951
0.9970781681
0.9997595387
1.000388647
0.9979072582
0.9967841604
0.9105117919
0.902196459
0.8936734459
0.8744439392
0.8420215094
0.8251200837
0.8241601783
0.831166153
0.8604838444
0.9119858776
0.9635832301
0.9868920248
0.9942575334
0.9975998925
0.9980592322
0.9953647564
0.9943349965
0.9104089802
0.9032339286
0.8950114505
0.8742531239
0.8419976909
0.8269961859
0.8263218137
0.8351012067
0.8671753419
0.9228642525
0.9721859379
0.9885937452
0.9918877083
0.9947531053
0.9956177267
0.9926947441
0.9103550571
0.9041474539
0.8962730048
0.8737821578
0.8419425993
0.8282738864
0.8283568347
0.8397691891
0.8783132421
0.9411521409
0.9790959122
0.9887680808
0.9902157281
0.9917952035
0.992834976
0.990340231
0.9096541652
0.9049085681
0.8977281784
0.8730870028
0.8416923362
0.8294292105
0.8302029225
0.8462368979
0.8952835901
0.9522710828
0.9811508203
0.9867378086
0.9884484129
0.9892680358
0.9900309485
0.9879449366
0.9089180667
0.9054903458
0.8986435423
0.8720707499
0.8424461258
0.831605886
0.8334675272
0.8555728773
0.9048880415
0.9543090851
0.9784814312
0.9842881677
0.9862422585
0.9870366387
0.9871846203
0.9855361114
0.908178697
0.9059835781
0.8989631607
0.871275008
0.8438931712
0.8347244873
0.8389968986
0.8623705019
0.9115746027
0.9585211107
0.9777849853
0.9812785989
0.9843127669
0.9850819645
0.9849095493
0.9833357078
0.9072994662
0.9065795718
0.8996166142
0.8709808864
0.8451401097
0.836973222
0.842964749
0.8701859545
0.9255269526
0.9660161424
0.9791489816
0.9798003805
0.9822779303
0.9835401541
0.9832458217
0.9817970037
0.9064054627
0.907353295
0.8996591088
0.870387052
0.8460696835
0.8386026742
0.8477966812
0.8865245814
0.9435123403
0.9715080489
0.9789260824
0.9801323111
0.9812177073
0.9827038979
0.9825305823
0.9811496205
0.9056708172
0.9080836212
0.8992187296
0.8711253374
0.84833127
0.8419310721
0.8578682763
0.906044604
0.9551463346
0.9733376771
0.9783167374
0.980644662
0.9811646891
0.9825113037
0.9825703411
0.981531331
0.9053295259
0.9086106795
0.8986747437
0.8715981353
0.8513280353
0.8492284086
0.8705178054
0.9201353223
0.961119061
0.973817536
0.9781106741
0.9805491329
0.9818693305
0.9823965676
0.9827184986
0.9053645557
0.9089836771
0.8982914635
0.8727851252
0.8553143831
0.8577218789
0.8818332503
0.9326996002
0.9696602588
0.9760172446
0.9780704996
0.980459814
0.982465471
0.982829643
0.9827121666
0.9055265471
0.9092322554
0.8979466588
0.8746914193
0.8604983467
0.8650834978
0.8970142702
0.9505767317
0.9785161666
0.9801977227
0.9795870509
0.9811267345
0.9831250328
0.9836803654
0.9828978157
0.9060196971
0.9097822181
0.8985211519
0.8769769683
0.8655838851
0.8761671097
0.9161260616
0.9625133855
0.9814051309
0.9835767955
0.9826962138
0.9830414469
0.9849041155
0.9850909467
0.9839538374
0.907375462
0.9108147187
0.8986806444
0.879926394
0.8732542788
0.8902743939
0.9278070375
0.9677083719
0.9831946366
0.985848214
0.9865201293
0.986285191
0.9875734329
0.9878037296
0.9867129743
0.9093274876
0.911883936
0.8996133401
0.8839278247
0.8822465489
0.9001489165
0.9395244879
0.976779526
0.9858227924
0.9884983345
0.9899743032
0.9906486042
0.9910283164
0.9912928718
0.9903775896
0.9101122932
0.9130032298
0.9015453097
0.8890993701
0.8896387119
0.9154654345
0.9596719393
0.9898734815
0.9900937829
0.9919023351
0.9936368097
0.9950759781
0.9953975948
0.9955211735
0.9947356891
0.9106656862
0.9142218923
0.9039567819
0.8938212699
0.9010175737
0.939454107
0.9825739664
1.000377808
0.9974882407
0.9970663326
0.9980882223
0.9996195294
1.000279133
1.000402952
0.9120576269
0.9152961146
0.9062497773
0.9000972122
0.9197311439
0.9601080447
0.9935367404
1.006299872
1.005108457
1.003896993
1.003631894
1.004639141
1.005780857
1.006007626
0.9138504022
0.9161382071
0.9095083734
0.9104748932
0.9331791116
0.9698430614
0.9982006363
1.011718388
1.011390592
1.011899556
1.010397314
1.010477513
1.011838032
1.012294305
0.9151672452
0.9181004406
0.914567836
0.9199770786
0.9423299615
0.9807957783
1.007851559
1.016748496
1.018009108
1.019053158
1.018339682
1.017333702
1.018560292
1.019217546
0.9172769061
0.9216632176
0.9203856793
0.9290791598
0.9626669422
1.003135585
1.021407475
1.023694376
1.024124217
1.026132528
1.026488261
1.025420674
1.025976789
1.026783692
0.9208573538
0.9250443806
0.9262340075
0.9468917216
0.9938878194
1.025750119
1.033172486
1.032900747
1.031755733
1.032917134
1.033889512
1.034282841
1.034332026
1.03494797
0.923570076
0.9286252261
0.9356605736
0.9712758384
1.014504972
1.037498332
1.042383417
1.043137123
1.040217952
1.03993057
1.0409783
1.042070392
1.042646128
1.042666778
0.9265199713
0.9344050484
0.9496421774
0.9849764226
1.022803251
1.044813391
1.050308368
1.051455523
1.049462323
1.047568793
1.047363038
1.04923039
1.050036594
0.9299944802
0.9405345511
0.9609300681
0.996638087
1.035705699
1.053299867
1.055975733
1.058323095
1.057530158
1.055535554
1.054266377
1.055513545
1.057129696
0.9322949297
0.9468395435
0.9743276282
1.019667336
1.054202315
1.061684412
1.061034531
1.063213135
1.063730538
1.063222753
1.061265616
1.061514688
1.06365193
0.9352028324
0.9574992637
1.000430841
1.045681118
1.066962179
1.069844508
1.067449399
1.067616143
1.068663485
1.069287741
1.068850538
1.068632205
1.070503097
0.9411854041
0.9735910053
1.024385836
1.058411665
1.073747312
1.076558236
1.074865541
1.074035241
1.0734937
1.075492369
1.07652908
1.076711919
1.078621544
0.9441621383
0.9860152355
1.031851454
1.064003055
1.079456079
1.082893294
1.082561012
1.081404046
1.080840078
1.082191021
1.084535618
1.086192281
1.087555744
0.9435710612
0.9958987446
1.040527008
1.075599143
1.085914681
1.088219978
1.089601403
1.090209511
1.089477941
1.090311608
1.09209718
1.094822362
0.9487116458
1.015721252
1.060829124
1.089516516
1.093959095
1.094093092
1.096476743
1.098924631
1.099042329
1.098610563
1.099151492
1.102313405
0.958509155
1.050617739
1.082789878
1.10276629
1.105105754
1.103771741
1.103851521
1.106258474
1.106528896
1.105858399
1.105997798
1.108160562
0.9797357224
1.082499634
1.105924755
1.117906973
1.117989157
1.113993017
1.111978447
1.11099218
1.111051885
1.111108646
1.111482559
1.112476615
1.001111446
1.118265132
1.124270514
1.128577253
1.126835907
1.121436335
1.117119594
1.114806832
1.1136251
1.113685149
1.115191054
1.115743819
1.027121132
1.156554007
1.133388534
1.133219425
1.128802933
1.123429501
1.119246814
1.11696629
1.115620749
1.115617883
1.116738798
1.117505198
1.026449918
1.153860063
1.133778468
)
;

boundaryField
{
    inlet
    {
        type            fixedValue;
        value           nonuniform 0();
    }
    outlet
    {
        type            inletOutlet;
        inletValue      nonuniform 0();
        value           nonuniform 0();
    }
    bottom
    {
        type            slip;
    }
    top
    {
        type            slip;
    }
    obstacle
    {
        type            zeroGradient;
    }
    defaultFaces
    {
        type            empty;
    }
    procBoundary15to9
    {
        type            processor;
        value           nonuniform List<scalar> 
18
(
1.007516159
1.004533874
1.001485853
0.9122955815
0.8964974697
0.8860266969
0.8726884692
0.8441408865
0.8228156638
0.8199550024
0.8236035691
0.8377264661
0.8669384307
0.9190804812
0.9758555536
0.998287336
1.004325038
1.004325038
)
;
    }
    procBoundary15to10
    {
        type            processor;
        value           nonuniform List<scalar> 9(1.004922573 1.003810601 1.002147294 0.9999033548 0.9973999156 0.991845249 0.991845249 0.9898047901 0.9875920974);
    }
    procBoundary15to16
    {
        type            processor;
        value           nonuniform List<scalar> 
35
(
0.9853944235
0.9833472663
0.9819142499
0.9812536255
0.9816590072
0.9821997995
0.9821997995
0.9825375366
0.9827809405
0.9835123597
0.9856262008
0.9892890211
0.9939466188
0.9997982541
0.9997982541
1.005651124
1.012105303
1.019034941
1.02642636
1.034161711
1.041741724
1.049989885
1.049989885
1.057255219
1.064297614
1.07153859
1.079374226
1.087218519
1.095874731
1.095874731
1.103679052
1.109776112
1.113195326
1.115341727
1.116420568
)
;
    }
    procBoundary15to21
    {
        type            processor;
        value           nonuniform List<scalar> 
13
(
1.133013828
1.126048446
1.120635386
1.11892723
1.118935374
1.117408776
1.116277488
1.116273041
1.117578383
0.9994169603
1.116276706
1.133013828
1.126458057
)
;
    }
}


// ************************************************************************* //
