/*--------------------------------*- C++ -*----------------------------------*\
  =========                 |
  \\      /  F ield         | OpenFOAM: The Open Source CFD Toolbox
   \\    /   O peration     | Website:  https://openfoam.org
    \\  /    A nd           | Version:  7
     \\/     M anipulation  |
\*---------------------------------------------------------------------------*/
FoamFile
{
    version     2.0;
    format      ascii;
    class       volScalarField;
    location    "0.6";
    object      rho;
}
// * * * * * * * * * * * * * * * * * * * * * * * * * * * * * * * * * * * * * //

dimensions      [1 -3 0 0 0 0 0];

internalField   nonuniform List<scalar> 
200
(
1.40000504
1.40000504
1.40000504
1.40000504
1.40000504
1.40000504
1.40000504
1.40000504
1.40000504
1.40000504
1.40000504
1.40000504
1.40000504
1.40000504
1.40000504
1.40000504
1.40000504
1.40000504
1.40000504
1.40000504
1.40000504
1.40000504
1.40000504
1.40000504
1.40000504
1.400005025
1.400005023
1.40000502
1.400005056
1.400005248
1.400005007
1.400005166
1.400006146
1.400038525
1.400040331
1.400030585
1.400163092
1.400789235
1.402317929
1.405681446
1.403653443
1.411549574
1.427509168
1.446756884
1.493330498
1.45510164
1.519951246
1.589843903
1.651403707
1.74354266
1.401641471
1.421476633
1.451891455
1.453111432
1.427208932
1.414953245
1.442805948
1.447580969
1.433089976
1.395619668
1.457300794
1.456760873
1.430017128
1.386851606
1.371911776
1.488522258
1.441389292
1.349058717
1.340063443
1.353910163
1.540818489
1.312801235
1.327342546
1.344645004
1.366649109
1.183215468
1.234792058
1.389312843
1.386513908
1.373418306
1.179795558
1.267530781
1.400965318
1.388261844
1.368450664
1.188820358
1.294427744
1.408761282
1.38185391
1.363442358
1.197946905
1.307280588
1.407278383
1.377778807
1.360211947
1.184714575
1.34275084
1.412812542
1.374264509
1.358412536
1.177212123
1.349873837
1.412835731
1.374435369
1.358331779
1.201158359
1.314674833
1.408509315
1.378100499
1.360182867
1.194654469
1.296964902
1.409261696
1.381819
1.363527826
1.181931815
1.268689237
1.399474733
1.387778351
1.36851627
1.181854828
1.23253671
1.387220083
1.386221179
1.373513288
1.540567983
1.312678693
1.327266364
1.344612022
1.366690253
1.488519257
1.441536399
1.349066102
1.340044199
1.353935866
1.457305936
1.456765009
1.43000798
1.386847789
1.371936103
1.414954586
1.442799041
1.447575223
1.43308629
1.395621631
1.401640595
1.421470677
1.451882802
1.45310169
1.427199392
1.455101643
1.519951244
1.589843897
1.651403702
1.743542674
1.403653439
1.411549576
1.427509177
1.446756878
1.493330454
1.400030586
1.400163091
1.400789243
1.402317927
1.405681378
1.400005007
1.400005166
1.400006146
1.400038518
1.400040328
1.400005025
1.400005023
1.40000502
1.400005056
1.400005248
1.40000504
1.40000504
1.40000504
1.40000504
1.40000504
1.40000504
1.40000504
1.40000504
1.40000504
1.40000504
1.40000504
1.40000504
1.40000504
1.40000504
1.40000504
1.40000504
1.40000504
1.40000504
1.40000504
1.40000504
1.40000504
1.40000504
1.40000504
1.40000504
1.40000504
)
;

boundaryField
{
    inlet
    {
        type            calculated;
        value           uniform 1.40000504;
    }
    outlet
    {
        type            calculated;
        value           nonuniform List<scalar> 
20
(
1.366700296
1.353961912
1.371971465
1.395679773
1.427284061
1.358313708
1.360217499
1.363537199
1.368511047
1.37351896
1.373429304
1.368452307
1.363448457
1.360221695
1.358472538
1.427293606
1.39567772
1.37194714
1.353936376
1.366659938
)
;
    }
    bottom
    {
        type            calculated;
        value           nonuniform List<scalar> 
15
(
1.40000504
1.40000504
1.40000504
1.40000504
1.40000504
1.400005025
1.400005023
1.40000502
1.400005056
1.400005248
1.401641471
1.421476633
1.451891455
1.453111432
1.427208932
)
;
    }
    top
    {
        type            calculated;
        value           nonuniform List<scalar> 
15
(
1.40000504
1.40000504
1.40000504
1.40000504
1.40000504
1.400005025
1.400005023
1.40000502
1.400005056
1.400005248
1.401640595
1.421470677
1.451882802
1.45310169
1.427199392
)
;
    }
    obstacle
    {
        type            calculated;
        value           nonuniform List<scalar> 
20
(
1.455101643
1.519951244
1.589843897
1.651403702
1.743542674
1.177212123
1.201158359
1.194654469
1.181931815
1.181854828
1.183215468
1.179795558
1.188820358
1.197946905
1.184714575
1.45510164
1.519951246
1.589843903
1.651403707
1.74354266
)
;
    }
    defaultFaces
    {
        type            empty;
    }
}


// ************************************************************************* //
