/*--------------------------------*- C++ -*----------------------------------*\
  =========                 |
  \\      /  F ield         | OpenFOAM: The Open Source CFD Toolbox
   \\    /   O peration     | Website:  https://openfoam.org
    \\  /    A nd           | Version:  7
     \\/     M anipulation  |
\*---------------------------------------------------------------------------*/
FoamFile
{
    version     2.0;
    format      ascii;
    class       volVectorField;
    location    "3.9";
    object      U;
}
// * * * * * * * * * * * * * * * * * * * * * * * * * * * * * * * * * * * * * //

dimensions      [0 1 -1 0 0 0 0];

internalField   nonuniform List<vector> 
555
(
(2.855982646 -0.2474452688 0)
(2.854826648 -0.2580748397 0)
(2.854301801 -0.2603623917 0)
(2.857283335 -0.259191882 0)
(2.86227234 -0.264025401 0)
(2.862274876 -0.264311503 0)
(2.86090191 -0.2625437273 0)
(2.860274265 -0.263300739 0)
(2.861609366 -0.2624702023 0)
(2.863972501 -0.2603428082 0)
(2.86530254 -0.2601312591 0)
(2.866687637 -0.2605486067 0)
(2.86775366 -0.2604060279 0)
(2.868760219 -0.2581897391 0)
(2.869832296 -0.2562268848 0)
(2.870837793 -0.2557722287 0)
(2.872728978 -0.2558699688 0)
(2.874245262 -0.255343276 0)
(2.855982576 0.2474451497 0)
(2.854826702 0.2580747396 0)
(2.85430185 0.2603625584 0)
(2.857283297 0.2591920518 0)
(2.862272306 0.2640250994 0)
(2.862274934 0.2643113884 0)
(2.860901958 0.2625439576 0)
(2.860274233 0.2633008794 0)
(2.861609396 0.262470051 0)
(2.863972445 0.2603426986 0)
(2.86530253 0.2601312694 0)
(2.866687655 0.2605486779 0)
(2.867753676 0.2604060848 0)
(2.86876025 0.2581897599 0)
(2.869832296 0.2562268609 0)
(2.870837785 0.2557722049 0)
(2.872728968 0.2558699289 0)
(2.874245286 0.255343247 0)
(2.874495173 0.2550448727 0)
(2.874671462 0.2540487891 0)
(2.874834158 0.2520337227 0)
(2.87551497 0.2508576533 0)
(2.876061956 0.2505512483 0)
(2.876138667 0.2505341689 0)
(2.875464354 0.2501594059 0)
(2.874571187 0.2489839727 0)
(2.874620409 0.2478943675 0)
(2.875160337 0.2481250715 0)
(2.875515137 0.2488734636 0)
(2.875612388 0.2490802301 0)
(2.875408763 0.2491013371 0)
(2.875966641 0.249278093 0)
(2.876473463 0.2498676302 0)
(2.862642571 0.3093895745 0)
(2.859837233 0.3049766512 0)
(2.85780138 0.2909915101 0)
(2.858158986 0.2857948134 0)
(2.861620164 0.2825029634 0)
(2.867777236 0.2791633456 0)
(2.870572944 0.2756862596 0)
(2.872314302 0.2739539823 0)
(2.874588542 0.2707947837 0)
(2.878000083 0.2663006887 0)
(2.879138871 0.2634498158 0)
(2.88005947 0.2617391722 0)
(2.881454933 0.2603092964 0)
(2.881851926 0.2586831903 0)
(2.882548958 0.2543076242 0)
(2.882803103 0.2506413264 0)
(2.883241283 0.2500747893 0)
(2.884080123 0.2502543549 0)
(2.884612105 0.2491023357 0)
(2.884563606 0.247416403 0)
(2.883805477 0.2455675718 0)
(2.883013488 0.2440046884 0)
(2.883050577 0.2437076824 0)
(2.882968438 0.2440867214 0)
(2.882774015 0.2446072245 0)
(2.882763588 0.2444547608 0)
(2.883086097 0.2445859183 0)
(2.883563646 0.2452758347 0)
(2.883548899 0.2467523939 0)
(2.883378827 0.248679913 0)
(2.883657434 0.2503300138 0)
(2.883110129 0.2514055706 0)
(2.883086522 0.25196351 0)
(2.93809869 0.2088305244 0)
(2.939041767 0.2192825013 0)
(2.928929829 0.235189936 0)
(2.915854969 0.2515380132 0)
(2.90959961 0.2544901518 0)
(2.903162263 0.2590112658 0)
(2.900188598 0.2632631718 0)
(2.899142812 0.2663653083 0)
(2.897876969 0.2666297641 0)
(2.897048002 0.2664696353 0)
(2.895615159 0.2675849231 0)
(2.893906718 0.2687966963 0)
(2.893061891 0.2705314323 0)
(2.893045662 0.2715068303 0)
(2.892876591 0.2692244784 0)
(2.892404681 0.2652913565 0)
(2.892155468 0.26256911 0)
(2.89262397 0.2603066986 0)
(2.893389579 0.2595184098 0)
(2.893566142 0.2587284061 0)
(2.89427237 0.2551798979 0)
(2.893747652 0.251434417 0)
(2.893216479 0.2510219481 0)
(2.8929496 0.2518716391 0)
(2.893726213 0.2518445898 0)
(2.894678126 0.2508718719 0)
(2.895118269 0.2505955188 0)
(2.895344552 0.2511360914 0)
(2.895106821 0.2515851274 0)
(2.894629213 0.2510415428 0)
(2.894337181 0.2509103883 0)
(2.893977923 0.2509392288 0)
(2.893245344 0.251043862 0)
(2.9563193 0.1374346542 0)
(2.957328166 0.1528479562 0)
(2.944431508 0.1902529312 0)
(2.934360211 0.2229872018 0)
(2.935304251 0.2217522591 0)
(2.921997114 0.2426241507 0)
(2.909459808 0.271544445 0)
(2.90537084 0.2732067673 0)
(2.905377321 0.2740334939 0)
(2.900497151 0.2825437064 0)
(2.896786864 0.2836521216 0)
(2.89451534 0.2808987055 0)
(2.894093484 0.2782871033 0)
(2.894122418 0.2764523839 0)
(2.895133446 0.2754932877 0)
(2.893447731 0.2712535752 0)
(2.893557586 0.2677477405 0)
(2.894938332 0.2653254526 0)
(2.895997803 0.2638688922 0)
(2.896992012 0.2630619262 0)
(2.898050754 0.2613517184 0)
(2.898432435 0.2593691217 0)
(2.898924859 0.2591499929 0)
(2.899420261 0.2595852871 0)
(2.900017903 0.2587295409 0)
(2.901358183 0.2558679135 0)
(2.902135332 0.2541473348 0)
(2.902197767 0.2542506755 0)
(2.902430933 0.2530082794 0)
(2.902221178 0.2503939847 0)
(2.901196543 0.2489384518 0)
(2.900321874 0.2482617564 0)
(2.899687013 0.2486997298 0)
(2.989009428 0.02469723621 0)
(2.983456461 0.03950775986 0)
(2.976598951 0.05625960749 0)
(2.967706199 0.08108787462 0)
(2.960911417 0.1025855694 0)
(2.94819864 0.1336334841 0)
(2.937572542 0.1657468016 0)
(2.938343773 0.1683169621 0)
(2.926734614 0.1938420858 0)
(2.916369257 0.2300586611 0)
(2.91420787 0.2280393135 0)
(2.915773147 0.2256961786 0)
(2.907165529 0.2397924204 0)
(2.905501125 0.2454152678 0)
(2.90410551 0.2503452416 0)
(2.901281528 0.2548824276 0)
(2.899108426 0.2571938944 0)
(2.898155634 0.2589533539 0)
(2.897046212 0.2602290263 0)
(2.896056286 0.2628100512 0)
(2.894621805 0.2643506269 0)
(2.894260591 0.2650439936 0)
(2.894915046 0.2664079183 0)
(2.895888254 0.2670468193 0)
(2.894910706 0.2652095429 0)
(2.894849107 0.2627347016 0)
(2.894307498 0.2612726955 0)
(2.894606861 0.2599941774 0)
(2.895808486 0.2583106118 0)
(2.896463576 0.2566620677 0)
(2.897451398 0.2539586 0)
(2.897721635 0.251861228 0)
(2.897933246 0.2517206399 0)
(2.999304952 0.001270450697 0)
(2.998508301 0.002816479326 0)
(2.997051077 0.005612013366 0)
(2.994465728 0.01085880901 0)
(2.990387519 0.02007174618 0)
(2.985475809 0.03004521627 0)
(2.97716256 0.04922981493 0)
(2.968361838 0.07314722665 0)
(2.958994267 0.09291642312 0)
(2.944332578 0.127284 0)
(2.938917654 0.1471132259 0)
(2.929479137 0.1741007283 0)
(2.912727795 0.2186325914 0)
(2.909688764 0.2247188793 0)
(2.911869747 0.2302993191 0)
(2.897706773 0.2568219155 0)
(2.894519629 0.2703024883 0)
(2.894577475 0.269853107 0)
(2.890488256 0.2753445799 0)
(2.889639551 0.281606234 0)
(2.887469972 0.2798448753 0)
(2.886724632 0.2747110812 0)
(2.887747735 0.2713716144 0)
(2.890236532 0.2691277504 0)
(2.89135358 0.2667700112 0)
(2.890888338 0.2639670191 0)
(2.890325953 0.2625891467 0)
(2.89099268 0.2611056463 0)
(2.891383256 0.2604939612 0)
(2.892120147 0.2594293282 0)
(2.892878301 0.2584985583 0)
(2.893764714 0.2573663619 0)
(2.894428573 0.2583129021 0)
(2.999992589 1.235072277e-05 0)
(2.999977168 3.804544917e-05 0)
(2.999932398 0.0001163957824 0)
(2.999816797 0.0003177755938 0)
(2.999556955 0.000788916677 0)
(2.998973856 0.001915412914 0)
(2.997858751 0.004017839134 0)
(2.995941796 0.007982033802 0)
(2.992691483 0.01451307307 0)
(2.98746215 0.02507295379 0)
(2.980822418 0.04097291533 0)
(2.972746913 0.05851822342 0)
(2.96249058 0.08178508687 0)
(2.95347847 0.1055329477 0)
(2.941956818 0.1333214466 0)
(2.927885948 0.1721046771 0)
(2.925288129 0.1782479238 0)
(2.92640873 0.1813102434 0)
(2.90942898 0.2152557517 0)
(2.905798965 0.2340814996 0)
(2.907339992 0.2278134999 0)
(2.903497151 0.2337052889 0)
(2.898484917 0.2433703271 0)
(2.898030149 0.2455261949 0)
(2.896073304 0.2511945114 0)
(2.895178266 0.2531780405 0)
(2.893450592 0.2548356634 0)
(2.89203094 0.2566080301 0)
(2.890721548 0.2588575937 0)
(2.889839561 0.2613053086 0)
(2.888911554 0.2629608323 0)
(2.889218396 0.2619499284 0)
(2.890200491 0.2624226777 0)
(2.99999999 1.443162728e-08 0)
(2.999999951 7.807393053e-08 0)
(2.999999781 3.468649724e-07 0)
(2.999999062 1.531172255e-06 0)
(2.99999645 5.924180094e-06 0)
(2.999987969 2.034658875e-05 0)
(2.999961331 6.706002521e-05 0)
(2.999890604 0.0001935884285 0)
(2.999712477 0.0005220460431 0)
(2.999303132 0.001281623157 0)
(2.998473346 0.002902872242 0)
(2.996895628 0.006063503363 0)
(2.994291729 0.01126336646 0)
(2.989682887 0.02166064765 0)
(2.984240945 0.03281541567 0)
(2.976503318 0.04944711743 0)
(2.966349948 0.07538907044 0)
(2.95649778 0.09908439222 0)
(2.942624644 0.1274862939 0)
(2.931982133 0.1560310057 0)
(2.931826679 0.1679123217 0)
(2.914345273 0.2063293353 0)
(2.904635387 0.2352064674 0)
(2.904359213 0.2343079134 0)
(2.902212176 0.2433312607 0)
(2.892383927 0.2640895251 0)
(2.889816961 0.2687750485 0)
(2.888877968 0.2695000694 0)
(2.886943705 0.2727980082 0)
(2.886725637 0.2751443509 0)
(2.885572358 0.2735821008 0)
(2.883676149 0.2667190566 0)
(2.886591189 0.2632423747 0)
(3 -4.013864334e-12 0)
(3 1.128936148e-11 0)
(3 7.241192371e-11 0)
(3 6.096447116e-10 0)
(2.999999997 4.761725044e-09 0)
(2.999999982 2.844696586e-08 0)
(2.999999903 1.538393051e-07 0)
(2.999999549 7.362719568e-07 0)
(2.999998181 3.016863487e-06 0)
(2.999993093 1.180982416e-05 0)
(2.999976962 3.980161224e-05 0)
(2.999930266 0.0001243136156 0)
(2.999805599 0.0003561876288 0)
(2.999518262 0.0008899821084 0)
(2.998899444 0.002112122427 0)
(2.997581952 0.004728596252 0)
(2.99555561 0.008865225047 0)
(2.991894225 0.01660485889 0)
(2.986601975 0.02727480933 0)
(2.978946397 0.04508817665 0)
(2.971661778 0.06319277772 0)
(2.959345825 0.09168706787 0)
(2.954356147 0.1050991232 0)
(2.941726597 0.1352920424 0)
(2.927948686 0.1681852726 0)
(2.919066615 0.196593517 0)
(2.921707363 0.1897049547 0)
(2.914807095 0.2036886267 0)
(2.90758163 0.2224690017 0)
(2.903777598 0.2385286189 0)
(2.90455073 0.2365806779 0)
(2.899969457 0.2414785576 0)
(2.896176551 0.2438208109 0)
(3 -2.199261171e-13 0)
(3 -1.980626043e-13 0)
(3 -1.843078303e-13 0)
(3 -6.157769741e-15 0)
(3 -1.207461485e-12 0)
(3 8.470378332e-12 0)
(3 1.546943265e-12 0)
(3 2.00474548e-10 0)
(2.999999999 1.808315028e-09 0)
(2.999999992 1.207351227e-08 0)
(2.999999952 7.627437563e-08 0)
(2.999999768 3.777998785e-07 0)
(2.999998977 1.696757416e-06 0)
(2.999995883 7.024483151e-06 0)
(2.999985745 2.479981676e-05 0)
(2.999953736 8.120644611e-05 0)
(2.999865751 0.0002442572497 0)
(2.999646736 0.0006528093561 0)
(2.999164465 0.001585549519 0)
(2.998144622 0.003647933826 0)
(2.996480907 0.007029286466 0)
(2.993220904 0.01377181644 0)
(2.98921366 0.02295490661 0)
(2.981401447 0.04071970868 0)
(2.975383132 0.05343101599 0)
(2.964104813 0.07995725368 0)
(2.956882401 0.1019522103 0)
(2.939815956 0.1444250267 0)
(2.935922712 0.1518891338 0)
(2.920972408 0.1865716876 0)
(2.921176876 0.1984796143 0)
(2.908706184 0.2315965252 0)
(2.902815225 0.2354182701 0)
(3 -6.336555291e-14 0)
(3 -8.633865382e-14 0)
(3 -1.19939941e-13 0)
(3 -1.538661081e-13 0)
(3 -1.546115629e-13 0)
(3 -2.206321456e-13 0)
(3 -3.157558586e-13 0)
(3 -3.637448642e-13 0)
(3 5.21582346e-14 0)
(3 -4.167023885e-12 0)
(3 1.059508663e-11 0)
(3 5.571653325e-11 0)
(2.999999999 7.600000222e-10 0)
(2.999999996 5.632464317e-09 0)
(2.999999976 3.865181876e-08 0)
(2.99999987 2.062777929e-07 0)
(2.999999374 1.038767333e-06 0)
(2.999997446 4.279718529e-06 0)
(2.999990432 1.679026389e-05 0)
(2.999968524 5.521925438e-05 0)
(2.999904759 0.0001738576557 0)
(2.999742745 0.0004726849875 0)
(2.999369648 0.00120636169 0)
(2.998588231 0.002687640406 0)
(2.997118497 0.005827410556 0)
(2.994427126 0.01147542159 0)
(2.990820237 0.01932988644 0)
(2.984556023 0.03287892509 0)
(2.978708517 0.04681137995 0)
(2.965805338 0.07795933926 0)
(2.960152342 0.09295292462 0)
(2.947985601 0.1234701813 0)
(2.94184476 0.1360598994 0)
(3 -9.712248819e-15 0)
(3 -1.551973521e-14 0)
(3 -2.74030648e-14 0)
(3 -3.913569884e-14 0)
(3 -6.151665207e-14 0)
(3 -1.083830989e-13 0)
(3 -1.712184587e-13 0)
(3 -1.911282031e-13 0)
(3 -2.004626008e-13 0)
(3 -3.488718116e-13 0)
(3 -2.635766857e-13 0)
(3 -2.614383703e-13 0)
(3 -4.233366195e-13 0)
(3 9.487032327e-13 0)
(3 -1.135724802e-11 0)
(3 5.588173437e-11 0)
(3 2.435558973e-10 0)
(2.999999998 3.35177116e-09 0)
(2.999999987 1.954600892e-08 0)
(2.999999921 1.288108226e-07 0)
(2.999999623 6.122575297e-07 0)
(2.999998319 2.851061123e-06 0)
(2.999993693 1.069586491e-05 0)
(2.99997726 4.022199605e-05 0)
(2.999933362 0.0001196624504 0)
(2.999804039 0.0003632686052 0)
(2.999530391 0.000879228314 0)
(2.998826712 0.002290506226 0)
(2.997733965 0.00450543579 0)
(2.995168208 0.009897642852 0)
(2.992740449 0.01540077284 0)
(2.985486833 0.03243509898 0)
(2.982741113 0.038321964 0)
(3 1.898828403e-15 0)
(3 -4.448382017e-16 0)
(3 1.677692195e-16 0)
(3 1.175580433e-15 0)
(3 -3.129246187e-15 0)
(3 -1.088796316e-14 0)
(3 -1.756697612e-14 0)
(3 -3.013448532e-14 0)
(3 -4.155996106e-14 0)
(3 -6.601970115e-14 0)
(3 -1.016940961e-13 0)
(3 -1.461650793e-13 0)
(3 -2.230403041e-13 0)
(3 -2.173792608e-13 0)
(3 -3.103231853e-13 0)
(3 -3.232083962e-13 0)
(3 -2.716630643e-13 0)
(3 -1.456615499e-12 0)
(3 1.289254898e-11 0)
(3 -2.79666165e-11 0)
(3 3.029135301e-10 0)
(2.999999999 1.186361541e-09 0)
(2.999999991 1.391921723e-08 0)
(2.999999955 6.885967338e-08 0)
(2.999999748 4.280756448e-07 0)
(2.999998934 1.730022678e-06 0)
(2.999995461 8.005544429e-06 0)
(2.999984514 2.66861519e-05 0)
(2.999949844 9.153411991e-05 0)
(2.999850835 0.000270122621 0)
(2.999635599 0.0006989873112 0)
(2.998973373 0.00200772299 0)
(2.99853204 0.002840292427 0)
(3 2.812151728e-15 0)
(3 3.74664469e-15 0)
(3 7.038938226e-15 0)
(3 1.040287991e-14 0)
(3 1.171612287e-14 0)
(3 1.077520189e-14 0)
(3 9.464417066e-15 0)
(3 7.106141581e-15 0)
(3 5.7294321e-15 0)
(3 3.263566134e-15 0)
(3 -5.260717419e-15 0)
(3 -1.555069329e-14 0)
(3 -3.227363962e-14 0)
(3 -5.061457707e-14 0)
(3 -9.766513337e-14 0)
(3 -1.190590214e-13 0)
(3 -1.573929363e-13 0)
(3 -3.084062327e-13 0)
(3 -3.224546421e-13 0)
(3 -3.435313254e-13 0)
(3 -3.986868196e-13 0)
(3 -2.026062709e-13 0)
(3 -5.794529607e-12 0)
(3 4.659019305e-11 0)
(3 -1.205853157e-12 0)
(2.999999999 1.159100799e-09 0)
(2.999999996 6.364465751e-09 0)
(2.999999969 5.077494111e-08 0)
(2.999999845 2.481903432e-07 0)
(2.999999212 1.333441163e-06 0)
(2.99999715 4.784693374e-06 0)
(2.999978539 4.087541594e-05 0)
(2.999991765 8.934736841e-06 0)
(3 5.398820052e-15 0)
(3 6.859669915e-15 0)
(3 1.113876293e-14 0)
(3 1.429722679e-14 0)
(3 1.535658615e-14 0)
(3 1.619018094e-14 0)
(3 1.685966762e-14 0)
(3 1.614936245e-14 0)
(3 1.444673512e-14 0)
(3 1.340123127e-14 0)
(3 1.23035867e-14 0)
(3 1.017916399e-14 0)
(3 7.842511015e-15 0)
(3 4.436809337e-15 0)
(3 -2.134310856e-17 0)
(3 -1.449303731e-14 0)
(3 -3.215198639e-14 0)
(3 -6.077026488e-14 0)
(3 -1.181157046e-13 0)
(3 -1.667012318e-13 0)
(3 -2.498136492e-13 0)
(3 -2.682146178e-13 0)
(3 -5.46083054e-13 0)
(3 -5.655911511e-13 0)
(3 -6.265975705e-13 0)
(3 -5.427400497e-13 0)
(3 -2.798372801e-12 0)
(3 6.624161932e-12 0)
(3 2.668684148e-11 0)
(3 6.192314848e-10 0)
(2.999999998 3.358557434e-09 0)
(2.999999896 1.961976136e-07 0)
(3.000000036 -2.515474065e-09 0)
(3 1.073603246e-14 0)
(3 1.238049735e-14 0)
(3 1.371710348e-14 0)
(3 1.487050756e-14 0)
(3 1.546873096e-14 0)
(3 1.480077887e-14 0)
(3 1.250113781e-14 0)
(3 1.09155557e-14 0)
(3 8.737045533e-15 0)
(3 7.740110831e-15 0)
(3 6.814642899e-15 0)
(3 4.403821398e-15 0)
(3 -1.497800525e-16 0)
(3 -7.882786443e-16 0)
(3 -4.033317967e-17 0)
(3 1.981896141e-15 0)
(3 1.5618235e-15 0)
(3 -1.132425028e-15 0)
(3 -9.091108149e-15 0)
(3 -1.895833242e-14 0)
(3 -3.839848951e-14 0)
(3 -7.474186341e-14 0)
(3 -1.364007014e-13 0)
(3 -2.067788268e-13 0)
(3 -3.339331364e-13 0)
(3 -3.546284096e-13 0)
(3 -6.069538945e-13 0)
(3 -5.899544655e-13 0)
(3 -5.698291918e-13 0)
(3 -4.221177647e-13 0)
(3 -1.116674473e-12 0)
(3 2.135546963e-10 0)
(3.000000003 -1.123675962e-09 0)
(3 1.227348855e-14 0)
(3 1.43836741e-14 0)
(3 1.121898181e-14 0)
(3 1.128266879e-14 0)
(3 9.071511245e-15 0)
(3 7.875495265e-15 0)
(3 3.764199673e-15 0)
(3 2.204788551e-15 0)
(3 1.01399187e-15 0)
)
;

boundaryField
{
    inlet
    {
        type            fixedValue;
        value           nonuniform 0();
    }
    outlet
    {
        type            inletOutlet;
        inletValue      nonuniform 0();
        value           nonuniform 0();
    }
    bottom
    {
        type            slip;
    }
    top
    {
        type            slip;
    }
    obstacle
    {
        type            slip;
    }
    defaultFaces
    {
        type            empty;
    }
    procBoundary20to13
    {
        type            processor;
        value           uniform (2.855485179 -0.2319125292 0);
    }
    procBoundary20to14
    {
        type            processor;
        value           nonuniform List<vector> 
19
(
(2.862642608 -0.3093897069 0)
(2.859837179 -0.3049766986 0)
(2.857801399 -0.2909913157 0)
(2.858159036 -0.2857947779 0)
(2.861620212 -0.2825030879 0)
(2.867777246 -0.2791633651 0)
(2.870572897 -0.2756862666 0)
(2.872314257 -0.2739539574 0)
(2.874588529 -0.2707947535 0)
(2.878000081 -0.2663007202 0)
(2.8791389 -0.2634498495 0)
(2.880059505 -0.2617391348 0)
(2.881454923 -0.2603092816 0)
(2.88185188 -0.2586831655 0)
(2.882548963 -0.2543075435 0)
(2.882803093 -0.2506412797 0)
(2.883241289 -0.250074885 0)
(2.884080157 -0.250254409 0)
(2.874495146 -0.2550448753 0)
)
;
    }
    procBoundary20to19
    {
        type            processor;
        value           nonuniform List<vector> 
16
(
(2.855485149 0.2319125639 0)
(2.865904473 0.3080581441 0)
(2.950064024 0.1817352872 0)
(2.967630676 0.1002350653 0)
(2.993403652 0.014228623 0)
(2.999693813 0.0005549051491 0)
(2.999997845 3.511814763e-06 0)
(2.999999998 2.405362261e-09 0)
(3 2.158189003e-13 0)
(3 -1.998761578e-13 0)
(3 -3.77366815e-14 0)
(3 -2.964380376e-15 0)
(3 3.999240183e-15 0)
(3 3.036512463e-15 0)
(3 5.13738394e-15 0)
(3 1.038619438e-14 0)
)
;
    }
    procBoundary20to25
    {
        type            processor;
        value           uniform (3 1.014283297e-14 0);
    }
    procBoundary20to26
    {
        type            processor;
        value           nonuniform List<vector> 
34
(
(3 -5.418805524e-16 0)
(3 -5.368751918e-16 0)
(3 -1.903153442e-15 0)
(3 -2.343489571e-15 0)
(3 -3.682733593e-15 0)
(3 -1.544304308e-15 0)
(3 -2.16015228e-15 0)
(3 -2.74092015e-15 0)
(3 -4.721846552e-15 0)
(3 -5.250545006e-15 0)
(3 -4.42764495e-15 0)
(3 -2.772674472e-15 0)
(3 -5.981066064e-15 0)
(3 -1.4162641e-14 0)
(3 -2.813451116e-14 0)
(3 -5.101403262e-14 0)
(3 -9.194113723e-14 0)
(3 -1.575211018e-13 0)
(3 -2.170202255e-13 0)
(3 -3.082617018e-13 0)
(3 -3.098501212e-13 0)
(3 -4.526181713e-13 0)
(3 -3.94300795e-13 0)
(3 -1.771128635e-11 0)
(3 5.763158407e-16 0)
(3 2.35356109e-15 0)
(3 4.660688963e-16 0)
(3 -7.199379904e-16 0)
(3 -2.135327e-15 0)
(3 -2.813403412e-15 0)
(3 -1.156899673e-15 0)
(3 -6.487267437e-16 0)
(3 -5.418805524e-16 0)
(3 -8.538249611e-16 0)
)
;
    }
    procBoundary20to27
    {
        type            processor;
        value           nonuniform List<vector> 
16
(
(2.961944691 -0.04053892773 0)
(2.893659548 0.2283293686 0)
(2.894565791 0.2482730208 0)
(2.900145063 0.2479639809 0)
(2.898358431 0.251497462 0)
(2.897177724 0.2548475432 0)
(2.891163268 0.2598735225 0)
(2.888292091 0.2602750737 0)
(2.894972007 0.2538918862 0)
(2.897019193 0.273069293 0)
(2.915453037 0.2175246552 0)
(2.942960723 0.1325721426 0)
(2.983832411 0.03384895367 0)
(2.997975993 0.004388492979 0)
(2.999908463 0.0002083415548 0)
(2.999997921 5.145877962e-06 0)
)
;
    }
}


// ************************************************************************* //
