/*--------------------------------*- C++ -*----------------------------------*\
  =========                 |
  \\      /  F ield         | OpenFOAM: The Open Source CFD Toolbox
   \\    /   O peration     | Website:  https://openfoam.org
    \\  /    A nd           | Version:  7
     \\/     M anipulation  |
\*---------------------------------------------------------------------------*/
FoamFile
{
    version     2.0;
    format      ascii;
    class       volScalarField;
    location    "2.9";
    object      p;
}
// * * * * * * * * * * * * * * * * * * * * * * * * * * * * * * * * * * * * * //

dimensions      [1 -1 -2 0 0 0 0];

internalField   nonuniform List<scalar> 
555
(
1
1
1
1
1
1
1
1
1
1
1
1
1
1
1
1
1
1
1
1
1
1
1
1
1
1
1
1
1
1
1
1
1
1
1
1
1
1
1
1
1
1
1
1
0.9999999999
1
1
1
1
1
1
1
1
1
1
1
1
1
1
1
1
1
1
1
1
1
1
1
1
1
1
1
1
1
1
1
1
0.9999999958
1
1
1
1
1
1
1
1
1
1
1
1
1
1
1
1
1
1
1
1
1
1
1
1
1
1
1
1
1
1.000000001
1.000000006
1.000000276
0.9999999779
1
1
1
1
1
1
1
1
1
1
1
1
1
1
1
1
1
1
1
1
1
1
1
1
1
1.000000002
1.000000012
1.000000076
1.000000441
1.000002029
1.000008369
1.000056544
1.000020499
1
1
1
1
1
1
1
1
1
1
1
1
1
1
1
1
1
1
1
1
1
1.000000003
1.000000021
1.000000123
1.000000666
1.000002966
1.000012493
1.000043258
1.00014927
1.00041403
1.001163134
1.002862517
1.004816841
1
1
1
1
1
1
1
1
1
1
1
1
1
1
1
1
1.000000001
1.000000005
1.000000035
1.000000205
1.000001039
1.000004528
1.000018155
1.000061965
1.000199871
1.000555195
1.001485017
1.003361667
1.007572803
1.014312953
1.026836326
1.045412482
1.067722716
1
1
1
1
1
1
1
1
1
1
1
1
1.000000001
1.00000001
1.000000064
1.000000348
1.000001669
1.000006958
1.000026699
1.000089507
1.000277072
1.000751366
1.0019272
1.004327432
1.009159338
1.017353437
1.031972463
1.051878219
1.079855205
1.114387629
1.157909217
1.204570327
1.244682231
1
1
1
1
1
1
1
1
1.000000003
1.000000021
1.000000121
1.00000062
1.000002807
1.000011265
1.000040678
1.000133073
1.000389453
1.001039717
1.002533962
1.005554089
1.011479471
1.021294065
1.037094132
1.060716814
1.090771735
1.126343979
1.171711479
1.221089566
1.26549346
1.305979126
1.337007536
1.372219421
1.400151157
1
1
1
1.000000001
1.000000008
1.000000048
1.000000257
1.000001201
1.00000501
1.000019131
1.000064165
1.000198662
1.000563541
1.001434604
1.003358676
1.00735382
1.014340237
1.026562587
1.044857141
1.069201291
1.104058049
1.1449137
1.187905904
1.235052844
1.279237507
1.325949773
1.364982586
1.392780174
1.41430724
1.435715156
1.450134077
1.46271672
1.468095134
1.000000025
1.000000126
1.000000584
1.000002469
1.000009464
1.000033591
1.000107435
1.000311702
1.000839304
1.002069036
1.004566826
1.009607897
1.018291583
1.032099613
1.053861047
1.081710812
1.116812608
1.164281838
1.208918292
1.250752845
1.297572295
1.336227684
1.372722065
1.40429329
1.416857805
1.428068636
1.439589579
1.444768593
1.450728377
1.456052042
1.46105109
1.464972674
1.468073788
1.000020027
1.000062887
1.000187391
1.000512618
1.001267293
1.003014976
1.006395828
1.012548805
1.023823832
1.04004797
1.063708634
1.098232131
1.135283982
1.179174605
1.228966733
1.273841936
1.322606262
1.360524062
1.387615022
1.417399795
1.446000289
1.45769812
1.468205115
1.476891001
1.476734818
1.476008054
1.477272839
1.477005289
1.476287579
1.474645828
1.471227079
1.465406721
1.461814902
1.00202711
1.004407137
1.009176868
1.017045162
1.030311019
1.050742002
1.075975088
1.112552703
1.157981733
1.198347675
1.248209887
1.297433157
1.336327785
1.379391091
1.400137032
1.415257257
1.435256312
1.445666838
1.451102698
1.458158346
1.461467488
1.463701299
1.468757476
1.474253787
1.475047568
1.475800494
1.47717682
1.4781003
1.477465315
1.476015249
1.473492332
1.468958929
1.463976169
1.038487007
1.062691204
1.094715224
1.130302423
1.177459175
1.225143426
1.272197586
1.322497591
1.360240326
1.393329417
1.431978677
1.450977139
1.463696867
1.478851505
1.48301632
1.483785515
1.486537068
1.487046509
1.486370935
1.484804253
1.479890622
1.472866352
1.466075766
1.464522672
1.464877583
1.464804593
1.463444607
1.462210366
1.460526423
1.458815456
1.456952975
1.454237187
1.451673438
1.195167346
1.245244791
1.287527606
1.332076091
1.372732962
1.397281734
1.423108697
1.447805654
1.453129674
1.460321409
1.464606909
1.465120943
1.468701358
1.479053014
1.485384382
1.486300942
1.487316748
1.487243112
1.486202386
1.483824894
1.480372611
1.475753355
1.470156724
1.46626623
1.462949607
1.458588814
1.454133925
1.45019701
1.448477355
1.447751904
1.447036761
1.446665855
1.447553797
1.408266918
1.434268499
1.447881837
1.467695381
1.48537414
1.487830463
1.491899675
1.492860921
1.491704474
1.490174041
1.487512242
1.482841059
1.478638012
1.474508253
1.473606926
1.471566494
1.468054339
1.463696853
1.459928918
1.458715883
1.457459409
1.455093077
1.452284471
1.451407405
1.450041932
1.447983057
1.445452765
1.442889204
1.44216244
1.442264388
1.442539152
1.44358564
1.4473033
1.455222695
1.469712022
1.478737116
1.491389659
1.495142561
1.494387076
1.490045401
1.485938734
1.484414583
1.482306004
1.477748943
1.470815244
1.4651789
1.462763551
1.46024791
1.456291982
1.451823109
1.450752355
1.45063746
1.449778109
1.448834103
1.448711314
1.449060224
1.450254186
1.450770528
1.450470093
1.44947674
1.449047694
1.449105278
1.449061645
1.449007128
1.449678981
1.450685163
1.438181378
1.437460225
1.437460941
1.438221979
1.440413725
1.443546933
1.446513213
1.448518474
1.450153125
1.452631291
1.45536585
1.456584034
1.457284091
1.457463686
1.4569783
)
;

boundaryField
{
    inlet
    {
        type            fixedValue;
        value           nonuniform 0();
    }
    outlet
    {
        type            zeroGradient;
    }
    bottom
    {
        type            slip;
    }
    top
    {
        type            slip;
    }
    obstacle
    {
        type            zeroGradient;
    }
    defaultFaces
    {
        type            empty;
    }
    procBoundary14to7
    {
        type            processor;
        value           nonuniform List<scalar> 2(1 1);
    }
    procBoundary14to8
    {
        type            processor;
        value           nonuniform List<scalar> 
35
(
1
1
1
1
1
1
1
1
1
1
1
1
1
1
1
1
1
1
1
1
1
1
1
1
1
1
1
1
1
1
1
1
1
1
1
)
;
    }
    procBoundary14to9
    {
        type            processor;
        value           nonuniform List<scalar> 
17
(
1.000000027
1.000002528
1.000130729
1.003421573
1.039438761
1.186741598
1.374631829
1.446511273
1.472605464
1.471870755
1.460800981
1.454695872
1.448596786
1.447249436
1.442947732
1.382460844
1.089287943
)
;
    }
    procBoundary14to13
    {
        type            processor;
        value           nonuniform List<scalar> 
16
(
1
1
1
1
1
1
1
1
1
1.000000004
1.000005815
1.000882333
1.023625397
1.152623354
1.370148025
1.43314684
)
;
    }
    procBoundary14to20
    {
        type            processor;
        value           nonuniform List<scalar> 
19
(
1.558907623
1.542714947
1.520613406
1.497509641
1.485277749
1.479288705
1.472040168
1.465973263
1.462656632
1.459105154
1.452629428
1.446345323
1.444993326
1.443849031
1.441459724
1.438154961
1.43722189
1.437944991
1.437944991
)
;
    }
}


// ************************************************************************* //
