/*--------------------------------*- C++ -*----------------------------------*\
  =========                 |
  \\      /  F ield         | OpenFOAM: The Open Source CFD Toolbox
   \\    /   O peration     | Website:  https://openfoam.org
    \\  /    A nd           | Version:  7
     \\/     M anipulation  |
\*---------------------------------------------------------------------------*/
FoamFile
{
    version     2.0;
    format      ascii;
    class       volScalarField;
    location    "2.9";
    object      T;
}
// * * * * * * * * * * * * * * * * * * * * * * * * * * * * * * * * * * * * * //

dimensions      [0 0 0 1 0 0 0];

internalField   nonuniform List<scalar> 
2222
(
1.488594361
1.484023585
1.479813851
1.47673385
1.472670476
1.467898525
1.462433839
1.457770778
1.453491634
1.449436238
1.445793854
1.442168091
1.438218735
1.434878344
1.431896757
1.428057579
1.422989245
1.41732349
1.411175041
1.404595966
1.399367626
1.395405449
1.390832254
1.387638304
1.384858625
1.380648678
1.377391282
1.374980429
1.370838733
1.366075484
1.362905098
1.35891696
1.354784109
1.349569139
1.488466261
1.483907405
1.479758142
1.476421487
1.472148877
1.467292601
1.462407554
1.458137803
1.454099808
1.450068138
1.44632745
1.442166354
1.437960329
1.434445762
1.431357013
1.427542333
1.422771306
1.417443055
1.411515329
1.40486175
1.399501074
1.395496569
1.390933251
1.387698017
1.384924737
1.380795374
1.377589119
1.375225696
1.37111706
1.366382576
1.363266032
1.3593498
1.355276779
1.350026565
1.488379989
1.483960762
1.479378893
1.476050517
1.471732861
1.466349112
1.462498275
1.458615177
1.454900362
1.450884309
1.446868776
1.44221596
1.437795968
1.434084251
1.43084014
1.426987236
1.422393916
1.417682357
1.411797155
1.405116097
1.399662778
1.395638954
1.391053096
1.387785936
1.385028417
1.38093945
1.377742091
1.375377891
1.371306495
1.366615053
1.363617878
1.359797855
1.355742504
1.350446342
1.488207218
1.483575007
1.479087863
1.475576803
1.471375358
1.465848691
1.462702116
1.459394526
1.456252299
1.452108232
1.447441684
1.442291856
1.437659048
1.433748485
1.430292434
1.426397607
1.421912682
1.417274136
1.4119107
1.405357556
1.399867321
1.395814675
1.391191299
1.387903816
1.385154881
1.381089346
1.377867634
1.375489042
1.371446429
1.366816698
1.363982389
1.360264462
1.356196319
1.350846861
1.488204475
1.48344777
1.478906433
1.475100848
1.470905383
1.465782039
1.463078993
1.461043398
1.458597357
1.453714464
1.447987065
1.442383909
1.437492043
1.433391807
1.429781745
1.425875026
1.421433028
1.417006293
1.411984072
1.405563807
1.400083236
1.396007754
1.391348347
1.38804335
1.385311108
1.381251487
1.377980473
1.375591911
1.37158449
1.366976946
1.364332696
1.36074077
1.356666388
1.351256093
1.488332182
1.483474491
1.478732697
1.474787219
1.470065641
1.465804605
1.463971405
1.463005527
1.460385507
1.454962893
1.448470986
1.442487401
1.437293097
1.433075903
1.429452649
1.425512225
1.421094457
1.416860926
1.412068094
1.405776106
1.400301756
1.396205908
1.391528688
1.388201741
1.385488004
1.381429917
1.378098412
1.375690927
1.371737004
1.367167252
1.364667462
1.361247203
1.35718479
1.351738397
1.488539044
1.483561868
1.478594263
1.474598169
1.468887712
1.465970726
1.465147474
1.463775991
1.461003864
1.45565763
1.448919814
1.442598806
1.437149455
1.432814132
1.429170953
1.425252212
1.420911308
1.416864852
1.412302186
1.406021984
1.400520496
1.396404045
1.3917491
1.388384053
1.385682145
1.381623636
1.378226559
1.37580959
1.371907253
1.367336688
1.364976587
1.361738931
1.357714401
1.352037913
1.488763155
1.483751851
1.478556351
1.474531742
1.468387408
1.466353542
1.465759628
1.464108963
1.461392568
1.456217032
1.449371093
1.442732576
1.437065059
1.432581724
1.428896474
1.425064345
1.420850264
1.416871372
1.412452827
1.406277624
1.400746371
1.39662506
1.392005925
1.388602242
1.385888229
1.381821255
1.378372123
1.375948697
1.372080495
1.367436692
1.365114989
1.362060273
1.358060555
1.352117926
1.489057647
1.48401504
1.478617084
1.4744958
1.468363285
1.466878416
1.466145426
1.464506658
1.461761023
1.456765602
1.449817111
1.442868024
1.437031001
1.432416135
1.42865351
1.42485407
1.420697924
1.41671221
1.412483565
1.40653198
1.401001796
1.396888961
1.392304932
1.388844058
1.386099001
1.382016067
1.378527466
1.376104142
1.372243929
1.367525745
1.365178065
1.36220393
1.358226878
1.352192767
1.494211904
1.489583776
1.484402287
1.478774914
1.474337895
1.468465829
1.467400407
1.466666325
1.464960955
1.462113594
1.457132076
1.450322069
1.443028819
1.437042194
1.432290424
1.428428508
1.424561304
1.420399334
1.416344424
1.412499846
1.406817283
1.401311497
1.397203347
1.392646996
1.389111452
1.386317921
1.382203355
1.378687377
1.376262554
1.372401191
1.367640679
1.365233729
1.362278633
1.358338882
1.352278656
1.494753881
1.490300765
1.484923164
1.479128357
1.474136921
1.468727689
1.467928424
1.467224553
1.465438788
1.46242475
1.457413837
1.450529456
1.443147635
1.437022668
1.43221379
1.428171205
1.424115015
1.419810247
1.416067505
1.412582201
1.407123406
1.401674396
1.397578254
1.39301293
1.389397214
1.386538915
1.382385429
1.378841021
1.376410708
1.372556454
1.367792631
1.365311074
1.362347937
1.35844637
1.352377624
1.49521037
1.491048649
1.485526408
1.479634523
1.473649839
1.469284737
1.468528529
1.467806196
1.465895857
1.462713815
1.457656666
1.450736119
1.443306853
1.437206318
1.432129165
1.427866014
1.423585961
1.419347367
1.416016229
1.412640044
1.407357908
1.4020603
1.398000168
1.393417149
1.389693578
1.386761264
1.382572455
1.378991129
1.376543941
1.372706415
1.367960665
1.365418187
1.362435719
1.358552931
1.352481583
1.495708544
1.491727202
1.486096966
1.480080226
1.473791601
1.470231148
1.469115848
1.468325393
1.466346715
1.462991723
1.457900868
1.450955292
1.443523758
1.437233045
1.43198789
1.427570097
1.423351197
1.419264242
1.416001096
1.41261571
1.407504113
1.402434406
1.398458871
1.393856146
1.390016255
1.386991698
1.382767859
1.379140744
1.376667087
1.372842943
1.368115779
1.365544098
1.362546648
1.358651257
1.352574622
1.496014372
1.492446296
1.486639106
1.480482567
1.473977813
1.47131806
1.469543875
1.468756575
1.466733814
1.463242034
1.458135023
1.451156112
1.443757339
1.437323513
1.431868637
1.427407779
1.423268069
1.419232753
1.415936553
1.412547551
1.407620362
1.40279615
1.398939509
1.394343694
1.390372933
1.387236158
1.382971793
1.379292422
1.376788876
1.372970388
1.36824333
1.365670429
1.36266883
1.358749404
1.352661334
1.496686113
1.493196892
1.48724747
1.480942675
1.474124236
1.472138
1.469967419
1.469170746
1.46703741
1.463437621
1.458331895
1.451364546
1.443909808
1.437366902
1.431813621
1.427339695
1.423245554
1.419311722
1.415795192
1.412513817
1.4077556
1.403159413
1.399439383
1.394874731
1.390779264
1.387513583
1.383185202
1.379450577
1.376918017
1.373106601
1.368364969
1.365791838
1.362797494
1.358839479
1.352722205
1.497177458
1.493917332
1.487765844
1.481204056
1.474328452
1.472724985
1.470465489
1.469405423
1.467228438
1.463542544
1.45849227
1.451525255
1.444015932
1.437404595
1.431823804
1.427340441
1.423345778
1.419452911
1.415682291
1.412496258
1.407951307
1.403597411
1.400000953
1.395452027
1.39123032
1.387826427
1.383405999
1.379614749
1.377058689
1.373268394
1.368496447
1.365908807
1.362923076
1.358940665
1.352785581
1.498032335
1.494587189
1.48814461
1.481281133
1.474801543
1.473199587
1.470690732
1.46949428
1.467304921
1.463567417
1.458631421
1.451686229
1.444175149
1.437556743
1.431931604
1.427419537
1.423608087
1.419447434
1.415663514
1.412504782
1.408271169
1.404250194
1.400693059
1.396079743
1.391720586
1.38817631
1.383638264
1.379780535
1.377217324
1.373464067
1.368657766
1.366025279
1.363048528
1.359057647
1.352860324
1.498902146
1.495151901
1.488464482
1.481414289
1.475867631
1.473695613
1.470765852
1.469503557
1.467304517
1.463558378
1.458736635
1.451904265
1.444460982
1.437834217
1.432147338
1.427706416
1.423772387
1.419392702
1.415653724
1.412621453
1.408734679
1.405044521
1.401488798
1.396762027
1.392248077
1.3885638
1.383894612
1.379944943
1.377387731
1.373675778
1.368843112
1.366152225
1.363182959
1.359194218
1.352956652
1.499672111
1.495647995
1.488706571
1.481758901
1.477346851
1.474136715
1.470961515
1.469433517
1.467273104
1.46351158
1.458794076
1.452228878
1.444871718
1.43822579
1.432564284
1.428190605
1.423782987
1.419291998
1.415622764
1.412761067
1.408980297
1.405488369
1.402209585
1.397473591
1.392806613
1.388986119
1.384181626
1.38011776
1.377565826
1.373892056
1.369031553
1.366300109
1.363336769
1.359353103
1.353081787
1.500344571
1.496057105
1.488931651
1.482426969
1.478015974
1.474350695
1.47117979
1.469235366
1.467208635
1.463389417
1.45882206
1.45260309
1.44536331
1.43883819
1.433413754
1.428491619
1.423719173
1.419035615
1.41559627
1.412774012
1.40899141
1.405631341
1.402684256
1.39810796
1.393343733
1.38941023
1.384495091
1.380297889
1.377736575
1.374095646
1.369212668
1.366471806
1.363526263
1.359540355
1.353240521
1.500911979
1.496334521
1.489182063
1.483070077
1.47835076
1.4745756
1.471183201
1.469228595
1.466950605
1.463194825
1.458804298
1.4529169
1.446073983
1.440046463
1.434307547
1.428564831
1.423537476
1.418921416
1.415571083
1.41273742
1.408953099
1.405662276
1.402925123
1.398568529
1.393802349
1.389813226
1.384841689
1.380527271
1.377927569
1.374292218
1.36939331
1.366656882
1.363745722
1.359762248
1.353437792
1.501313222
1.496575147
1.489460079
1.483530992
1.478775778
1.474851082
1.471111152
1.469141826
1.466974655
1.463050102
1.458738349
1.453106038
1.446984539
1.440978654
1.434533032
1.42864663
1.423548698
1.418945608
1.41555886
1.412667954
1.408855333
1.405675748
1.4030824
1.398914538
1.394223449
1.390242203
1.385263346
1.380835989
1.378150569
1.374483046
1.36957479
1.366846658
1.363985185
1.360023576
1.353677818
1.501458409
1.496774723
1.489779042
1.483989354
1.479158926
1.47493376
1.471118319
1.469128148
1.466915178
1.462927154
1.458588169
1.453162715
1.447172264
1.441059131
1.434633253
1.428755368
1.423650971
1.419052756
1.415600411
1.412622887
1.408802946
1.405721056
1.403257114
1.399282313
1.394736801
1.390838227
1.385864979
1.3812405
1.378395037
1.374669493
1.369758152
1.367042352
1.364232883
1.360316242
1.353956328
1.504834795
1.50151463
1.496938412
1.490120915
1.484420586
1.479444983
1.47496132
1.471276301
1.469136644
1.466840115
1.46284354
1.458384035
1.453117684
1.447200985
1.441083506
1.434698495
1.428880435
1.423833423
1.419321
1.415772021
1.412669005
1.408832134
1.405841702
1.40354
1.399828373
1.39552303
1.391792198
1.386786655
1.381853388
1.378695631
1.374868139
1.369958409
1.367252983
1.364487475
1.360620167
1.354254647
1.504761368
1.501483614
1.497092691
1.490503628
1.484818875
1.479700345
1.474936383
1.471471052
1.469131583
1.466720862
1.462736558
1.458158532
1.452957931
1.447107398
1.441046789
1.434758672
1.429014043
1.424127098
1.419640643
1.416064304
1.412831338
1.40898215
1.406133184
1.403988599
1.400543235
1.396513736
1.392901882
1.387780476
1.382385784
1.378962397
1.375092384
1.370193608
1.367483522
1.364742767
1.36091326
1.354548792
1.504566254
1.501416903
1.497253338
1.490901318
1.485218255
1.479886419
1.475063519
1.471569902
1.469059065
1.466537775
1.462554299
1.457919607
1.452736268
1.446894624
1.440966475
1.43481939
1.429201582
1.424426064
1.419836495
1.416329297
1.413093152
1.409225606
1.406376071
1.40428241
1.400955727
1.396985551
1.393311664
1.388108483
1.382617082
1.379190517
1.375347704
1.370479009
1.367739091
1.364988341
1.361176351
1.354823652
1.504333714
1.501362699
1.497432533
1.491266946
1.485668723
1.480165781
1.475372243
1.471641442
1.468981569
1.466294249
1.462253731
1.457593668
1.452504946
1.446671645
1.440882971
1.434898729
1.429432509
1.424592829
1.419959019
1.416449511
1.413265094
1.409345058
1.406451316
1.404345482
1.401044458
1.397052566
1.393378048
1.388221194
1.382817464
1.379431696
1.375623246
1.370804881
1.368013616
1.365217581
1.361407424
1.355079952
1.504037276
1.501272872
1.497587676
1.491563029
1.486080698
1.480501567
1.475726236
1.471745029
1.468897698
1.465970074
1.461803278
1.457151323
1.45222772
1.446445678
1.44081052
1.435011117
1.429646349
1.424736656
1.420044358
1.416511167
1.413330624
1.409378729
1.406487084
1.404366682
1.401093163
1.397109726
1.393439113
1.388350601
1.383035875
1.379686578
1.375933522
1.371158736
1.368295707
1.365433967
1.361618874
1.355331568
1.503647073
1.501143712
1.49765729
1.491765059
1.486355286
1.48084023
1.475983125
1.471954914
1.468821462
1.465532348
1.461135056
1.456619851
1.451812592
1.446151395
1.440754282
1.435160249
1.429854395
1.424832456
1.420044898
1.416532615
1.41335118
1.409387702
1.406488342
1.404354693
1.401134366
1.397193852
1.393535561
1.388495185
1.383266708
1.379961192
1.376272458
1.371522082
1.3685716
1.365642981
1.361823454
1.355595623
1.503214357
1.50096189
1.497644749
1.491903507
1.486543543
1.481116973
1.47622657
1.472260917
1.468720108
1.464886358
1.460291545
1.4559503
1.45120345
1.445796482
1.440714683
1.435378136
1.430075085
1.424882366
1.419970845
1.416492813
1.413332459
1.409344028
1.406424606
1.404336452
1.401173332
1.397290742
1.393657513
1.388651749
1.383500643
1.380286442
1.376665813
1.371905885
1.368847905
1.365854358
1.362034518
1.35588097
1.502811701
1.500684371
1.497552654
1.491992223
1.486709056
1.481324449
1.476467527
1.472530589
1.468578281
1.464019594
1.459437482
1.455026028
1.450442026
1.445410526
1.440722819
1.435679678
1.430258772
1.424916634
1.419876081
1.416387417
1.413233361
1.409210349
1.406323634
1.404332372
1.401227451
1.397404205
1.393803589
1.38883087
1.383757975
1.380661124
1.377103342
1.372319049
1.369140513
1.366075488
1.362260003
1.35618887
1.502366888
1.500225238
1.497364103
1.492026006
1.486889386
1.481579698
1.476847676
1.472724837
1.468348951
1.463213524
1.458498262
1.453889019
1.449702588
1.445080485
1.440835464
1.435930138
1.430418665
1.424978968
1.419876251
1.416313186
1.413115444
1.409111668
1.406286884
1.404342264
1.401330785
1.397553123
1.393985766
1.389065758
1.38408938
1.38110276
1.37757847
1.372765583
1.369468782
1.366322256
1.362513016
1.356526066
1.501742404
1.499605109
1.49710228
1.491993069
1.487097688
1.481933934
1.47726067
1.472853963
1.468022961
1.462497595
1.45738733
1.452781866
1.449053628
1.444952295
1.44107172
1.436107057
1.430586071
1.425106741
1.419940699
1.416345878
1.413150595
1.40909086
1.406280158
1.404405417
1.401550785
1.397737248
1.394208057
1.38939827
1.384528443
1.381586478
1.378063726
1.373233992
1.369835794
1.366603279
1.362809761
1.35691305
1.501069997
1.499203586
1.496795528
1.491860622
1.487325881
1.482337276
1.477622586
1.472921154
1.467659027
1.46179729
1.456362952
1.451827551
1.4486172
1.444963754
1.441185447
1.436239818
1.430784939
1.425285904
1.420061315
1.416445278
1.413230086
1.409104248
1.406327617
1.404531185
1.40157719
1.397839804
1.394446946
1.389838651
1.385070426
1.382083559
1.378530866
1.373704931
1.370228497
1.366917937
1.363168227
1.35737547
1.50066046
1.499054233
1.496533228
1.491848916
1.487494279
1.482743628
1.477953378
1.472885976
1.467240692
1.461050002
1.455502117
1.451141661
1.448380233
1.444863671
1.441123321
1.436368103
1.431039398
1.425502483
1.420245241
1.416583725
1.4133456
1.409178291
1.406458267
1.404634471
1.401553606
1.397836841
1.394665041
1.390327727
1.385643691
1.38255989
1.378967403
1.374164702
1.370621974
1.367267781
1.363619055
1.357922736
1.500302962
1.498868615
1.496414663
1.492004794
1.487659585
1.483134687
1.478217879
1.472730881
1.466752524
1.460266219
1.454764899
1.450666695
1.448149663
1.444653079
1.440965371
1.436567587
1.431343977
1.425770425
1.420492778
1.416767872
1.413499524
1.409318974
1.40660926
1.404661499
1.401503359
1.397813381
1.394824311
1.390738964
1.386143778
1.38299584
1.3793775
1.37460009
1.371014055
1.36767718
1.364189078
1.358502573
1.499827026
1.498462952
1.496370267
1.492196838
1.487979593
1.483515905
1.478382114
1.472543097
1.466252264
1.459597018
1.454131237
1.450203384
1.447723185
1.444318634
1.440930734
1.436834526
1.431697793
1.426085971
1.420783236
1.417010703
1.413693139
1.409548483
1.406719643
1.40464321
1.401423665
1.397781932
1.394923962
1.390996696
1.38651505
1.383386508
1.37977337
1.37500663
1.371420215
1.368175715
1.364791226
1.359020297
1.501904415
1.499299836
1.498032397
1.496268265
1.492286544
1.488393475
1.483920024
1.478519
1.472394119
1.465769245
1.459002317
1.453496448
1.449574446
1.447014519
1.443831807
1.440979505
1.437163396
1.432115492
1.426466919
1.42112876
1.417339913
1.413959671
1.409853692
1.406805008
1.404623998
1.40132388
1.39774268
1.394997963
1.391190785
1.386820051
1.38375503
1.380160865
1.375389805
1.371868843
1.368717939
1.365211707
1.359480754
1.501290471
1.499033454
1.497892219
1.496108623
1.492328195
1.488803138
1.484350828
1.478707654
1.472265259
1.465297027
1.458411546
1.452796006
1.448743806
1.446167824
1.443473315
1.441059309
1.43757926
1.432671879
1.426981133
1.421611198
1.417753388
1.41432268
1.410218183
1.406848724
1.404562002
1.401229986
1.397707099
1.395092038
1.391457986
1.387198088
1.384154338
1.380543047
1.375756281
1.372340213
1.369156734
1.365436253
1.360028088
1.500761449
1.498908391
1.497845262
1.496005974
1.492475936
1.489211202
1.48476118
1.478929532
1.472148034
1.464861826
1.4579071
1.452024488
1.447822093
1.445673679
1.443290806
1.441129557
1.438167769
1.433667832
1.427917444
1.422420914
1.418382366
1.414901387
1.410544304
1.406848503
1.404437693
1.401170523
1.397703121
1.395296872
1.391939393
1.387778929
1.384635654
1.380914053
1.376134147
1.372752558
1.369451361
1.365620912
1.360868839
1.500416145
1.498749181
1.497815129
1.496145065
1.492768964
1.489577338
1.485135172
1.479117035
1.471985014
1.464505215
1.457464803
1.451292204
1.447219896
1.445328519
1.443167578
1.441186689
1.438881705
1.435235883
1.429797482
1.423996535
1.419576098
1.415850624
1.410635738
1.406748297
1.40435744
1.401140861
1.397755197
1.395633138
1.392578658
1.388477193
1.385146459
1.381288412
1.376514909
1.373055565
1.369638357
1.365942302
1.362079378
1.500269184
1.498525595
1.497759001
1.496348131
1.493181452
1.489936047
1.485501178
1.47927019
1.471817731
1.464268262
1.456995064
1.450775135
1.446845533
1.445080441
1.443116043
1.441269258
1.439182447
1.435846507
1.431317355
1.425984926
1.421144699
1.416363686
1.410688194
1.406625057
1.404325136
1.401132995
1.397934746
1.395958559
1.39297437
1.388993181
1.385587884
1.381679524
1.376863928
1.373205905
1.369811779
1.36667513
1.363311344
1.500196514
1.498267595
1.497643166
1.496524748
1.493460662
1.490270694
1.485837728
1.479431474
1.471751419
1.464107269
1.456719634
1.450493126
1.44659493
1.444935128
1.443121831
1.441372324
1.439232065
1.435971733
1.431583581
1.426620206
1.421579812
1.416469331
1.410711425
1.406558882
1.40429323
1.401112206
1.397945996
1.395977923
1.393103257
1.389205555
1.385898226
1.38205112
1.377126592
1.373284975
1.370170058
1.367909569
1.363875698
1.500099469
1.49803034
1.497442928
1.496624571
1.493632176
1.490615584
1.486087104
1.479563112
1.47174768
1.463923987
1.456616754
1.450364885
1.446479203
1.444853
1.443102876
1.441290401
1.439221114
1.436089162
1.431787106
1.426817107
1.42175082
1.416573601
1.410740738
1.406521337
1.404251345
1.40116317
1.397954969
1.39598362
1.393135828
1.389273725
1.386086284
1.382314711
1.377259748
1.373380325
1.370879866
1.368921181
1.363945328
1.49997576
1.497913723
1.497367017
1.496581775
1.493699331
1.490878716
1.486146419
1.479585511
1.471731975
1.463682519
1.456483373
1.450318041
1.446469591
1.444791687
1.443013032
1.441079079
1.439102917
1.436129482
1.431870094
1.426951787
1.421925291
1.416719057
1.41080485
1.406520021
1.404238537
1.40115311
1.397966696
1.395958768
1.393138913
1.389323281
1.386199928
1.382458709
1.3773484
1.373604287
1.371703288
1.36917168
1.363909282
1.499879006
1.497920265
1.49738464
1.49661237
1.493986649
1.490947417
1.48600427
1.479435471
1.471606532
1.463453994
1.456357128
1.450316107
1.446505666
1.444769607
1.442930101
1.440857247
1.438923111
1.43609073
1.431828674
1.427028468
1.422089919
1.41687359
1.41089332
1.406548586
1.404270629
1.401179162
1.397977319
1.395929424
1.393138976
1.389384907
1.38628724
1.382552259
1.377456326
1.374041171
1.372165858
1.369291914
1.363881951
1.499836258
1.498058713
1.497649474
1.496890101
1.494277027
1.490880576
1.485704134
1.479020407
1.471301345
1.463333645
1.456288142
1.450378831
1.446556027
1.444778315
1.442865074
1.440670147
1.438743099
1.435925216
1.431750275
1.427107011
1.422249722
1.417018752
1.410994053
1.406609235
1.404338688
1.401220769
1.398004588
1.395931413
1.393149744
1.389457605
1.386386482
1.38266575
1.377668263
1.374588525
1.372392591
1.369431244
1.363981966
1.499831183
1.498268027
1.498127925
1.497336769
1.494446626
1.490738057
1.485457576
1.478500113
1.470967373
1.463294343
1.456302114
1.450518161
1.446614996
1.44475978
1.442757247
1.440462307
1.43852095
1.435736098
1.431722531
1.427185426
1.422415673
1.417173069
1.411120372
1.406702889
1.404422276
1.401289272
1.398065833
1.395953293
1.393186988
1.389530402
1.386514426
1.382883342
1.378133983
1.375099062
1.372584504
1.369586877
1.364131489
1.499847593
1.498363794
1.498343859
1.497456867
1.494489194
1.490605743
1.485284514
1.478128088
1.470794867
1.46332448
1.456416643
1.450691123
1.446716733
1.444741936
1.442615045
1.440216878
1.438193989
1.435578013
1.431715261
1.42729101
1.422600272
1.417357452
1.411294198
1.406866304
1.404556255
1.401411525
1.39816019
1.396007691
1.393249311
1.389613969
1.386646799
1.383179369
1.378775658
1.375539306
1.372805316
1.369776368
1.364326775
1.502942119
1.499924728
1.49834643
1.4982788
1.497330381
1.494369469
1.490471975
1.485126348
1.478084859
1.470826635
1.463484177
1.45665452
1.450953264
1.44692527
1.444751672
1.442463028
1.439866308
1.437812119
1.435427599
1.431736832
1.42743577
1.42281829
1.417590803
1.411540327
1.407128001
1.404766001
1.401584863
1.398280062
1.396074844
1.393331175
1.389716826
1.386728009
1.383356396
1.379160098
1.375924856
1.373122144
1.370093924
1.364703351
1.503424481
1.500082404
1.498270208
1.498109635
1.49711156
1.494097552
1.490243324
1.485003353
1.47815255
1.470983543
1.463752801
1.456992589
1.451313583
1.447246191
1.444821527
1.442384645
1.439493713
1.437497804
1.435283789
1.431884935
1.427659943
1.423075423
1.417887636
1.411867086
1.407465352
1.405026012
1.401795285
1.398431907
1.396157061
1.393449015
1.389828905
1.38675733
1.383414767
1.379309097
1.376261881
1.37360731
1.370660904
1.365321171
1.503778667
1.500205635
1.498235168
1.498004123
1.496974919
1.493905593
1.489801017
1.484880805
1.478506581
1.471368399
1.464141472
1.457430329
1.451791869
1.447665068
1.44501022
1.442379155
1.439250815
1.437204597
1.43518085
1.431914852
1.427782823
1.423367237
1.418253183
1.41227173
1.407870565
1.405338386
1.402036793
1.398621548
1.396285013
1.393613235
1.389906047
1.386758438
1.383436998
1.379398737
1.376524267
1.374047353
1.371152046
1.365725762
1.503822207
1.50014955
1.498297828
1.498034643
1.496936191
1.493737325
1.489084826
1.48462737
1.478953201
1.472016412
1.464667451
1.457957526
1.452395495
1.448121841
1.445223706
1.442433308
1.439030819
1.436914801
1.434958818
1.431761571
1.427829393
1.423697003
1.418687953
1.412746951
1.408345094
1.405709897
1.402306521
1.398861148
1.396473148
1.39374225
1.389937398
1.386748043
1.383459768
1.379482829
1.376706699
1.374246988
1.371297233
1.365816958
1.503809679
1.499941697
1.498424956
1.498119205
1.496800386
1.493448261
1.488197955
1.484103353
1.478951485
1.472883332
1.465430106
1.458599101
1.453071943
1.44860231
1.445327156
1.44248077
1.438905889
1.436616576
1.434591018
1.431425472
1.427877679
1.424076074
1.419196943
1.41329247
1.408881867
1.406135089
1.402603836
1.399148453
1.396683016
1.393815089
1.389928811
1.386730573
1.383498661
1.379605021
1.376846794
1.374343286
1.371354008
1.365872689
1.503800631
1.499836676
1.498586204
1.498110708
1.496412133
1.492878067
1.487420526
1.483360469
1.478786297
1.473640432
1.466340501
1.459405556
1.453760748
1.449088844
1.445388162
1.442444447
1.438839056
1.436281554
1.434160247
1.431234231
1.427953839
1.424550917
1.419808178
1.413912404
1.409456558
1.406592101
1.402940473
1.399473134
1.396886286
1.393896018
1.389935211
1.386725522
1.383569207
1.379773843
1.376961502
1.374401741
1.371393476
1.365928726
1.503839961
1.499979633
1.498825033
1.4979166
1.495918007
1.49216069
1.486915079
1.48262999
1.47843985
1.473743374
1.46733622
1.46031543
1.454406528
1.449540451
1.445447711
1.442354439
1.438754482
1.435972156
1.433880404
1.431111279
1.428076634
1.425165478
1.420510531
1.414585843
1.410058591
1.407069627
1.403317657
1.39981508
1.397091573
1.393988967
1.389972269
1.386741295
1.383646904
1.379900349
1.377031669
1.374431023
1.371424839
1.36598909
1.504017155
1.500450745
1.498953933
1.497632674
1.495415892
1.491485141
1.48658682
1.48202394
1.477951873
1.473696539
1.468520321
1.461370007
1.455069016
1.450044841
1.445533201
1.442268643
1.438573127
1.435688258
1.433647946
1.431067915
1.428191163
1.425559154
1.42120589
1.41534382
1.410739837
1.407603409
1.403740987
1.400168975
1.397314976
1.394099785
1.390041649
1.386789203
1.38369287
1.379950922
1.377065381
1.37444269
1.371455162
1.366057308
1.504397912
1.50103323
1.498902537
1.4973569
1.494922715
1.490843562
1.48618623
1.481336894
1.477319918
1.473539166
1.469451463
1.462674838
1.455931329
1.450614521
1.445659202
1.442192872
1.438365319
1.435382606
1.4334627
1.431076256
1.428170056
1.425635832
1.421928562
1.416363122
1.411670238
1.408288091
1.404263244
1.400559101
1.397574801
1.394236236
1.390123005
1.386832745
1.383670074
1.379924119
1.377053013
1.374438288
1.371486039
1.366138668
1.505264054
1.501691236
1.499022191
1.497122745
1.494375138
1.490139096
1.485494514
1.480825013
1.476909359
1.473509272
1.470027436
1.464217796
1.457289749
1.451385184
1.445935712
1.442150727
1.438154014
1.435071641
1.433240892
1.430915946
1.428069707
1.425641626
1.422405651
1.417606619
1.413058792
1.40928757
1.404906162
1.40097379
1.397876106
1.394416023
1.390232837
1.386847824
1.38360421
1.379877362
1.377037847
1.374433024
1.37152043
1.366235747
1.506439731
1.50230272
1.499263548
1.496857706
1.493710511
1.489232874
1.48438641
1.480324121
1.476605147
1.473520004
1.470356726
1.464944381
1.45834573
1.452106518
1.446197088
1.442094858
1.437881881
1.434706217
1.432999555
1.430657359
1.427690223
1.425483315
1.422539297
1.418110906
1.41431194
1.410497977
1.40568617
1.401434396
1.398181171
1.394631355
1.390367374
1.386859141
1.383542392
1.379825953
1.377021894
1.374428027
1.371559793
1.366347876
1.506962627
1.502456991
1.499314672
1.496676241
1.493088543
1.48843131
1.483439653
1.479773423
1.476458865
1.473637179
1.470617349
1.46527891
1.458786558
1.45265203
1.446575209
1.442160823
1.437833408
1.434428334
1.432798633
1.430440732
1.427368889
1.425381448
1.422666468
1.418361936
1.414816577
1.41144396
1.406609103
1.402060852
1.398577037
1.394877652
1.390542426
1.386921326
1.383535627
1.379829757
1.377048113
1.374450102
1.371620312
1.36647209
1.512230202
1.506989292
1.502308049
1.499009848
1.496037849
1.491982877
1.487291335
1.482482456
1.479014663
1.476164997
1.473797036
1.470897686
1.465246626
1.458844292
1.452801866
1.446618129
1.442098795
1.437734574
1.43421376
1.432507598
1.430075494
1.427166592
)
;

boundaryField
{
    inlet
    {
        type            fixedValue;
        value           nonuniform 0();
    }
    outlet
    {
        type            inletOutlet;
        inletValue      uniform 1;
        value           nonuniform List<scalar> 
61
(
1.349614814
1.35006231
1.350474352
1.350877344
1.351298216
1.351783249
1.352008528
1.352080981
1.352153936
1.352240499
1.352341705
1.352450204
1.35254846
1.352637881
1.352694728
1.352753583
1.352824633
1.352918787
1.353043404
1.353202875
1.353401349
1.353642414
1.353921639
1.354220374
1.35451526
1.354792649
1.355053985
1.355312526
1.355584198
1.355876261
1.356189118
1.356531305
1.35692771
1.357405906
1.357966292
1.358541125
1.359046955
1.359522112
1.360131617
1.361077231
1.362349075
1.363472142
1.363855027
1.363890036
1.363832796
1.363826677
1.363942895
1.364097255
1.364316541
1.364755944
1.365375234
1.365686349
1.36575936
1.365817994
1.365878566
1.365943799
1.366017552
1.36610596
1.366210482
1.3663281
1.366454979
)
;
    }
    bottom
    {
        type            slip;
    }
    top
    {
        type            slip;
    }
    obstacle
    {
        type            zeroGradient;
    }
    defaultFaces
    {
        type            empty;
    }
    procBoundary17to11
    {
        type            processor;
        value           nonuniform List<scalar> 
34
(
1.488365635
1.484115009
1.479989503
1.477030876
1.47313523
1.468119189
1.462608974
1.457431337
1.452763993
1.448774496
1.445371846
1.442164099
1.438595217
1.435317416
1.432324929
1.428428823
1.423217706
1.41706338
1.410783438
1.40432958
1.39926851
1.395334724
1.390756266
1.387582899
1.384793003
1.380487497
1.377134616
1.374689971
1.3704966
1.365689288
1.362511566
1.358496501
1.354305554
1.34908395
)
;
    }
    procBoundary17to16
    {
        type            processor;
        value           nonuniform List<scalar> 
66
(
1.493566099
1.49363174
1.493458365
1.493382233
1.493423991
1.493467182
1.493481246
1.49355824
1.493809727
1.493809727
1.499704079
1.499869591
1.500041442
1.500241288
1.500424193
1.500639813
1.500808792
1.501418085
1.502017478
1.502654077
1.50318488
1.503943666
1.50444856
1.504726705
1.504726705
1.506874589
1.506833045
1.50669103
1.506562981
1.506377437
1.506093275
1.505670946
1.505196922
1.504626435
1.503939921
1.503467008
1.503100772
1.502781944
1.502388297
1.502388297
1.504834768
1.504139953
1.503618424
1.503322958
1.503323317
1.503344589
1.503195313
1.502961975
1.502809056
1.502710853
1.502626546
1.502657948
1.502657948
1.507939266
1.508480026
1.509157041
1.509620072
1.509949424
1.510214613
1.510315671
1.51036846
1.510674363
1.511126334
1.511733109
1.51218694
1.51218694
)
;
    }
    procBoundary17to22
    {
        type            processor;
        value           uniform 1.519548714;
    }
    procBoundary17to23
    {
        type            processor;
        value           nonuniform List<scalar> 
40
(