/*--------------------------------*- C++ -*----------------------------------*\
  =========                 |
  \\      /  F ield         | OpenFOAM: The Open Source CFD Toolbox
   \\    /   O peration     | Website:  https://openfoam.org
    \\  /    A nd           | Version:  7
     \\/     M anipulation  |
\*---------------------------------------------------------------------------*/
FoamFile
{
    version     2.0;
    format      ascii;
    class       volScalarField;
    location    "3.7";
    object      rho;
}
// * * * * * * * * * * * * * * * * * * * * * * * * * * * * * * * * * * * * * //

dimensions      [1 -3 0 0 0 0 0];

internalField   nonuniform List<scalar> 
2223
(
1.959827596
1.957616688
1.945834511
1.93321311
1.918353351
1.901934337
1.911314237
2.093129319
2.58880881
2.899845788
2.91841474
2.879266529
2.829171827
2.788447006
2.759679864
2.731221441
2.70389614
2.673782393
2.637923861
2.60143597
2.569353982
2.53778014
0.9196735678
0.9158237221
0.9051489264
0.8975116728
0.8891995452
0.8767943308
0.8792613974
1.089563171
1.702099639
1.959597695
1.979993017
1.966875952
1.948568093
1.930359475
1.931226192
2.037880698
2.513643167
2.935159203
2.998903482
2.963542631
2.905303086
2.85726116
2.816944481
2.787863469
2.759855269
2.731819498
2.703041827
2.669456441
2.632541084
2.598463405
2.566477681
0.9134524659
0.9089668824
0.9056173253
0.9092435519
0.906698878
0.8956555353
0.8828390495
0.9099120234
1.326442717
1.874619547
1.98892765
1.978104665
1.959333102
1.950617812
2.006371835
2.41375799
2.876529844
3.045941459
3.029228063
2.985300064
2.932205042
2.884808207
2.844411372
2.814108234
2.784965735
2.754454162
2.724011131
2.69175942
2.657210156
2.624062595
2.593035999
0.8702992355
0.8924729167
0.905335222
0.9156381096
0.9141971174
0.9081485281
0.8930150447
0.8940708817
1.011405198
1.57297612
1.971547358
1.987489058
1.975509559
2.006337649
2.304103199
2.883000734
3.100062602
3.091375611
3.052145201
3.006723457
2.961330919
2.915839527
2.875275179
2.840860788
2.808645399
2.775889851
2.743798248
2.712896252
2.681558527
2.650597581
2.620600224
0.7911282221
0.8473977557
0.8868842382
0.908122598
0.9074186722
0.9031922621
0.9043339728
0.9017988979
0.9112577453
1.193937805
1.821663649
1.953672683
2.005397652
2.250269958
2.801148046
3.114076104
3.163116121
3.127579635
3.086712065
3.040909598
2.995149006
2.949277322
2.90770838
2.86923366
2.832601211
2.797630394
2.765595386
2.736342952
2.707922437
2.679054903
2.649598242
0.7305275994
0.7617039155
0.8069894428
0.8511829766
0.87977474
0.8975502303
0.912177271
0.9102065319
0.9079380237
0.9639165996
1.44963454
1.876408571
2.195522475
2.713714798
3.175846628
3.232723933
3.205662315
3.166805805
3.128516255
3.081717873
3.032979147
2.98792204
2.944970512
2.901441746
2.859678736
2.823118173
2.791306353
2.762909184
2.736173818
2.708723723
2.679492262
0.7219548637
0.7253196123
0.7398392072
0.7732744999
0.8249635932
0.8723405215
0.9032090093
0.9030979481
0.9011823306
0.9099872773
1.094649416
1.833328575
2.571179457
3.118967816
3.312436684
3.282234112
3.239931053
3.200809968
3.16162316
3.115771188
3.065983981
3.018720565
2.973582926
2.92723191
2.883746846
2.848672861
2.819689549
2.79315307
2.767275099
2.740287216
2.71067169
0.7271928528
0.7237252617
0.7233974379
0.7285552044
0.749920847
0.7883915204
0.8351447699
0.8658133006
0.886313
0.9068648337
0.9640034623
1.676532387
2.725074769
3.271944546
3.386798003
3.318673967
3.266712688
3.220507552
3.177825554
3.136438859
3.091766815
3.045349736
2.999852137
2.952433387
2.908288836
2.87341658
2.845503059
2.819778093
2.793908498
2.766438039
2.73606673
0.7394501653
0.733015774
0.7258016216
0.7256861346
0.7279731028
0.7378845542
0.76142905
0.805742384
0.8539000598
0.9058065519
1.097635291
1.479746376
2.37005908
3.163155553
3.359541267
3.338332571
3.287345268
3.23494344
3.189069044
3.144369343
3.095428129
3.050949519
3.010392545
2.967747694
2.927366074
2.894656371
2.868126508
2.843484459
2.817442752
2.789175128
2.757840678
0.7546700143
0.7479847523
0.7383051196
0.7296868992
0.7303865458
0.7298190587
0.7317579581
0.7445459517
0.7899023986
0.8963862921
1.286641374
1.454944701
1.752090296
2.618095728
3.188097455
3.332502589
3.279728881
3.215558393
3.178698517
3.13931774
3.100433016
3.056824659
3.015507471
2.975235156
2.939246426
2.908300766
2.880935785
2.855236242
2.828333997
2.799648017
2.768966854
0.7707430604
0.7641464948
0.7545019305
0.7428391612
0.7387528085
0.7329805398
0.7332469398
0.7359445173
0.7700277041
1.024845982
1.390294761
1.489100388
1.520260841
1.815433873
2.785413909
3.278223195
3.246993958
3.201729929
3.182324073
3.146307541
3.103778082
3.063135997
3.023391688
2.9863213
2.952862215
2.921304145
2.890711188
2.861553166
2.832646811
2.803431724
2.77348343
0.784267158
0.7789293798
0.7703271854
0.7614604189
0.753659931
0.7464378301
0.7436285685
0.7573567615
0.8920493197
1.232442815
1.386566346
1.468043218
1.456614968
1.461789333
1.908612289
2.873624663
3.188526623
3.213304026
3.195733755
3.157743334
3.111635675
3.073580606
3.032963299
2.994807837
2.96248348
2.930412718
2.898198214
2.867259191
2.836111103
2.80413859
2.773139172
0.7974046994
0.7921627894
0.7853599623
0.7768105999
0.7675101201
0.7624185202
0.7609512417
0.8192135462
1.093918348
1.391856606
1.427318523
1.429336424
1.4290448
1.419390566
1.441838662
2.037467488
2.997669643
3.221117874
3.20201362
3.162021176
3.118798724
3.084092125
3.040362755
3.001696253
2.96874953
2.935373207
2.903039835
2.87210192
2.839812251
2.806481858
2.775118744
0.8095454996
0.8045966933
0.798590907
0.7889556337
0.7816293039
0.7807438879
0.8009275321
0.9820741727
1.336520141
1.432791193
1.444995883
1.44930675
1.444160143
1.434570092
1.419602187
1.466079881
2.238662249
3.029673123
3.194704106
3.164568416
3.135258189
3.095687905
3.045804216
3.007585784
2.973535505
2.939055306
2.907633037
2.877137922
2.84431455
2.810903563
2.779310675
0.8225316334
0.8180782267
0.8110302779
0.8009784841
0.7961518293
0.8027390079
0.9054387845
1.214769646
1.473867873
1.510574269
1.50375078
1.490374214
1.465389196
1.448475335
1.42702746
1.415980584
1.540348665
2.405837663
3.071297397
3.175158101
3.155383067
3.105672041
3.054856158
3.019085993
2.980536944
2.944489078
2.914913628
2.88472187
2.852232831
2.819514742
2.787065219
0.8354553286
0.8309757124
0.8225352017
0.8142420248
0.8147620208
0.8656785306
1.11963722
1.441854087
1.544594556
1.536522514
1.515336433
1.495465988
1.485608722
1.470870927
1.45498669
1.434281786
1.426481069
1.628988998
2.555975056
3.112368627
3.173040355
3.115285329
3.074854624
3.038573921
2.994909937
2.960678228
2.93193938
2.899793051
2.866872995
2.833823183
2.799494945
0.8496597649
0.8436058853
0.8356303394
0.8298972767
0.8461112445
1.027249333
1.374636408
1.552781441
1.557229964
1.547107376
1.532889858
1.520600077
1.510642377
1.494049084
1.476641594
1.460672524
1.439991274
1.440309332
1.740820452
2.68096877
3.140095481
3.132220248
3.1076004
3.063545017
3.018906179
2.989564161
2.95814318
2.921961502
2.886742552
2.850680027
2.813910123
0.8627425861
0.8563803388
0.8499186672
0.8532658831
0.9467580404
1.283581095
1.534893273
1.604822032
1.597365456
1.578995452
1.55432854
1.536349763
1.522455145
1.506804731
1.485895011
1.473116265
1.461201572
1.446883712
1.455296845
1.866272922
2.804813459
3.096774366
3.140249783
3.088120255
3.046522597
3.019978243
2.985470547
2.948630564
2.91312789
2.874149113
2.835027252
0.8752429455
0.8703650204
0.8673692482
0.9032122217
1.165351915
1.502310733
1.634224733
1.63724901
1.620148906
1.587353942
1.559326263
1.550247776
1.543096585
1.531147835
1.515890365
1.499252305
1.4846077
1.466788528
1.452721013
1.474682709
1.981042543
2.836764494
3.135768014
3.100566068
3.083335617
3.055668457
3.015066829
2.979321932
2.94252335
2.900904655
2.8616492
0.8885287258
0.8858917055
0.8999490361
1.049690919
1.440831716
1.654768678
1.666192482
1.652444886
1.626947704
1.599142135
1.586189733
1.577481216
1.567901168
1.553051223
1.537343619
1.52092577
1.503742042
1.490139267
1.470785045
1.459305465
1.498446736
2.089249332
2.914273095
3.080576361
3.119343383
3.087765653
3.043438334
3.00936293
2.969750086
2.927067504
2.889500656
0.9039019564
0.9065728977
0.9848953259
1.31977905
1.639914164
1.691092542
1.685296917
1.674486039
1.654757983
1.628325555
1.614003554
1.603145272
1.588851563
1.56880647
1.549613276
1.532217178
1.516785562
1.50392503
1.492453551
1.474913029
1.463111102
1.533534318
2.181696704
2.91289126
3.136502203
3.100060913
3.065712839
3.033026308
2.989418803
2.950927205
2.915623918
0.9228287516
0.9590062522
1.198928417
1.571550063
1.744719702
1.741870443
1.723750849
1.697642522
1.673593803
1.647167353
1.631671986
1.618236394
1.601754851
1.584363534
1.56969561
1.553711025
1.537107647
1.52087641
1.504912751
1.489860593
1.469901903
1.462404784
1.558602855
2.264652905
2.995967983
3.080129357
3.086464087
3.05354954
3.007196787
2.974444041
2.938637859
0.9511214418
1.111131916
1.477341825
1.752719156
1.778858322
1.760994295
1.729805396
1.710114636
1.689277253
1.668680465
1.651832906
1.638870067
1.625727596
1.611927585
1.595875295
1.576998024
1.556963476
1.539941082
1.521658456
1.505543678
1.489155922
1.466747876
1.460234307
1.605080033
2.35782139
2.91179025
3.101698579
3.064252426
3.028482287
2.997308162
2.955855796
1.039236013
1.39492704
1.699715955
1.803670913
1.797307996
1.779000847
1.756024968
1.734902792
1.71041848
1.688608511
1.675521005
1.664332325
1.650551913
1.634555783
1.614316373
1.58920418
1.565581571
1.548629818
1.535459368
1.521674378
1.509441352
1.492076764
1.465510225
1.460243797
1.631992378
2.400501116
3.007969666
3.049942158
3.047559388
3.015465434
2.968657649
1.269329153
1.643831138
1.841382142
1.851931259
1.836234426
1.808106263
1.783820002
1.756857355
1.731367758
1.713220029
1.697608732
1.682681936
1.667321505
1.650785487
1.630860616
1.607322196
1.585842075
1.568818612
1.5530336
1.53722595
1.519836536
1.505321245
1.483918957
1.458613204
1.457856801
1.682583873
2.472443716
2.898132374
3.054827561
3.020513553
2.984457887
1.594625767
1.835984335
1.888380781
1.875856997
1.849823341
1.824889324
1.805359455
1.783555473
1.758664452
1.737513604
1.721071243
1.704950498
1.687111691
1.666935944
1.64410627
1.621128132
1.60199809
1.585683684
1.569792248
1.55352679
1.535714698
1.514672627
1.494817762
1.472475623
1.453383242
1.458770636
1.716388895
2.491568505
2.998938178
3.008821614
3.004159424
1.840325254
1.910101081
1.901167593
1.89211957
1.872091768
1.853265362
1.832916052
1.808917662
1.784609738
1.764370778
1.745647182
1.726118324
1.705355805
1.683317395
1.660661249
1.639496833
1.620628868
1.60277572
1.584278233
1.5655644
1.546797597
1.526148191
1.505973853
1.488222186
1.467360139
1.45354502
1.461580217
1.770364726
2.560398616
2.882641495
3.009416794
1.980693049
1.968793091
1.950811236
1.923324071
1.89886815
1.87698299
1.851700056
1.82518367
1.800746762
1.781597532
1.765461226
1.748161249
1.727478837
1.703491685
1.678824009
1.657065981
1.638693546
1.621557293
1.603145617
1.582107973
1.558292802
1.534713625
1.513626189
1.499035519
1.485152832
1.465146521
1.452389149
1.466480957
1.802063495
2.551726578
2.976264038
2.024073356
2.010412967
1.986113418
1.958079419
1.928760433
1.898533477
1.867854752
1.84047722
1.820395745
1.804751496
1.788458378
1.7692193
1.746159162
1.720587735
1.694510524
1.670241528
1.649536935
1.631312276
1.613945846
1.595968669
1.575661798
1.554472416
1.533665579
1.513069908
1.49650243
1.480286327
1.456903167
1.442467209
1.463556442
1.843467008
2.620778408
2.043503789
2.020102799
1.997215271
1.974745479
1.948182014
1.919232753
1.891349474
1.867872945
1.847640083
1.827665789
1.807206714
1.785251932
1.760031928
1.732578974
1.707589942
1.686476246
1.667300254
1.647610281
1.62620832
1.603819738
1.582240534
1.563341694
1.546256467
1.528823147
1.509656382
1.490547165
1.468851864
1.445899868
1.436892054
1.4697721
1.885700934
2.091776248
2.051061524
2.017073339
1.992743928
1.970165882
1.945901854
1.920023249
1.895405406
1.872128362
1.848565396
1.824671797
1.800781766
1.776196622
1.751089212
1.727104693
1.704460876
1.683169888
1.662814136
1.64237182
1.620407211
1.596492726
1.572947623
1.552837891
1.536612825
1.52079545
1.503403939
1.485672238
1.465552343
1.440537793
1.432311304
1.474036363
2.121236154
2.090781328
2.056364988
2.024422701
1.994336217
1.966415551
1.941530921
1.918401641
1.895011921
1.869797548
1.841930229
1.812391072
1.78503903
1.762312937
1.742721504
1.72343499
1.702760008
1.67962408
1.655177102
1.631445293
1.60996942
1.589503756
1.568872536
1.548304468
1.528020787
1.508499504
1.490886581
1.475855372
1.458599654
1.437083954
1.42577113
2.130059637
2.110598807
2.087262774
2.057397243
2.024063993
1.992131779
1.963269297
1.93679895
1.911634708
1.886347182
1.85917022
1.830096667
1.801644056
1.776152478
1.75423264
1.734534335
1.715683905
1.695121811
1.671974244
1.647047267
1.623463374
1.602915685
1.58423588
1.565682007
1.546418615
1.525984401
1.504973738
1.483561331
1.46628188
1.448782876
1.428086524
2.156734821
2.129281596
2.105969662
2.078940006
2.047198669
2.015040999
1.985566417
1.958437776
1.932219292
1.905844806
1.878366903
1.850259903
1.823284753
1.798465626
1.77551329
1.752465626
1.728261952
1.703365794
1.679139346
1.65575497
1.633601521
1.612391865
1.592209792
1.572869622
1.554813095
1.537342659
1.519363323
1.499915662
1.479471255
1.459857474
1.437746154
2.197942662
2.154855572
2.118852591
2.090211667
2.063864228
2.037421266
2.010302052
1.981912371
1.952047261
1.921847197
1.892285285
1.863349439
1.835726392
1.810211037
1.7873332
1.76600383
1.743807926
1.719558343
1.694586854
1.67038889
1.648231056
1.627408934
1.607343011
1.587206016
1.566632413
1.545076058
1.524371649
1.506601015
1.489389059
1.472254285
1.455832857
2.230089171
2.190182131
2.14732944
2.111423965
2.083540987
2.057688358
2.030812789
2.00206726
1.971275512
1.939227538
1.907539145
1.87815846
1.85207547
1.828237339
1.804646517
1.780528354
1.756385865
1.732082955
1.708131967
1.685500632
1.664132283
1.64293451
1.621681249
1.600520665
1.579705165
1.558829891
1.537266359
1.515663199
1.495179178
1.476229277
1.461125923
2.253018634
2.220177712
2.179570081
2.138136722
2.102958412
2.073302098
2.045453437
2.016675616
1.986627562
1.956771586
1.92727974
1.898940126
1.87231038
1.847061373
1.822153087
1.796455842
1.769567981
1.742192236
1.716026148
1.692266442
1.67069279
1.650961681
1.631791419
1.611577467
1.590356546
1.569248142
1.549981686
1.531136897
1.512173742
1.492799555
1.472159687
2.263296394
2.233168095
2.201982533
2.167673198
2.132884708
2.099379217
2.067411028
2.036853167
2.006646627
1.975962489
1.945265433
1.915395883
1.886847831
1.859938838
1.834689702
1.810473605
1.785974112
1.760744894
1.735575028
1.711619345
1.689001085
1.667212955
1.645976429
1.624895968
1.603547599
1.581649667
1.560165759
1.539744073
1.520695494
1.501996984
1.483190771
2.28503606
2.247962654
2.217552924
2.186777601
2.153125039
2.117781235
2.082167086
2.048531112
2.017914501
1.988950518
1.961043878
1.933619522
1.906174764
1.87820816
1.849576939
1.821123961
1.794171172
1.769588153
1.74652876
1.723856405
1.701276502
1.67871448
1.655675155
1.632119182
1.609434311
1.588585817
1.569219332
1.550099207
1.530467992
1.510208921
1.490805573
2.318220227
2.273112615
2.234195092
2.200681647
2.168791356
2.136238761
2.102538592
2.068683103
2.036357603
2.006759774
1.979466114
1.952466394
1.924271961
1.895019173
1.865784515
1.837356873
1.810000531
1.784387232
1.760107504
1.736329803
1.713032057
1.69034664
1.668165324
1.64618829
1.62464737
1.604063006
1.584148257
1.564304426
1.544152685
1.52361419
1.503391981
2.343637593
2.301459945
2.259624247
2.222182359
2.189179455
2.157415826
2.125182815
2.092278552
2.058913547
2.026311779
1.994982259
1.964756975
1.935124537
1.905516616
1.876175523
1.848400998
1.822998681
1.799427658
1.776443183
1.75352918
1.730175237
1.705863876
1.681142541
1.657338304
1.635020554
1.613696819
1.59265268
1.571394065
1.550043841
1.528875081
1.508008598
1.4881737
2.367386443
2.328928595
2.286299387
2.243429857
2.204873458
2.170942118
2.139127746
2.107197963
2.074626927
2.042149313
2.010572435
1.980584157
1.952088382
1.924074409
1.895725636
1.867247785
1.83936038
1.812457833
1.786176739
1.760844401
1.736822642
1.713063603
1.689201265
1.665902251
1.643720276
1.622608284
1.602175042
1.581618564
1.560728929
1.539704206
1.518765991
1.498652161
2.381244232
2.343548676
2.305989558
2.267399644
2.22935947
2.193991062
2.161201385
2.129393548
2.097424063
2.064601032
2.030930482
1.997525008
1.965861757
1.936650338
1.909068652
1.881920958
1.854979697
1.8291505
1.804232192
1.778373557
1.751785297
1.726001807
1.70214405
1.679892773
1.658141632
1.636467049
1.61475869
1.592794589
1.570819442
1.549199066
1.528324493
1.508187252
2.400846857
2.361874104
2.325535059
2.288658985
2.250769265
2.213352326
2.177833431
2.144144144
2.111297993
2.078606466
2.046174973
2.014094683
1.982438907
1.95189974
1.922572513
1.894113604
1.866132717
1.838202486
1.81136937
1.786570006
1.761977884
1.73691777
1.712393922
1.688928017
1.666116165
1.643650913
1.621015405
1.598000856
1.575128848
1.55285335
1.531615815
1.511183115
2.42563223
2.382781311
2.344218611
2.307535022
2.270218945
2.231693093
2.193693214
2.158223146
2.125399673
2.094037855
2.062903308
2.031593083
1.999977448
1.968408089
1.937819238
1.909127441
1.882104843
1.855366574
1.827832385
1.799468822
1.771190959
1.744431797
1.7198588
1.696945319
1.67449859
1.65224328
1.629961803
1.607589997
1.585302824
1.563384635
1.542165828
1.521487625
2.453051249
2.408346716
2.366366551
2.328234927
2.291672386
2.254317978
2.216309351
2.179352635
2.144410944
2.111213338
2.078519674
2.045346701
2.011540886
1.978078968
1.946543308
1.917526337
1.890092236
1.863352663
1.837348187
1.811746457
1.786097287
1.760286642
1.734684492
1.709740338
1.685270354
1.661606323
1.638687523
1.616434874
1.594557356
1.573096119
1.551998943
1.531218106
2.480671826
2.437107689
2.3921785
2.348379388
2.30732716
2.268562741
2.23100643
2.19407886
2.157811676
2.122969197
2.0903628
2.059350385
2.028384927
1.996812485
1.96552005
1.935141012
1.905572756
1.876440163
1.847522172
1.819004376
1.792498679
1.768706343
1.745212213
1.720522024
1.695225836
1.670714867
1.647139665
1.624269405
1.60163364
1.579506428
1.557781613
1.536406185
2.49633014
2.453884103
2.411108129
2.368264969
2.326894633
2.287864046
2.250793212
2.21448421
2.178150827
2.142133993
2.10736342
2.07408373
2.04189994
2.010214168
1.978736277
1.947451103
1.916821927
1.887192373
1.859037198
1.832589955
1.806842021
1.780159106
1.752787415
1.72605818
1.700584331
1.676504309
1.653399201
1.631077404
1.609051115
1.587383813
1.565779832
1.54438935
2.517339744
2.473897291
2.431562103
2.3889744
2.346656303
2.305876613
2.26730762
2.23003518
2.192925211
2.155830698
2.119553642
2.08499648
2.052113464
2.019988265
1.988167079
1.956565585
1.925283893
1.894436181
1.865107261
1.838265228
1.81391539
1.789038895
1.762269704
1.735420768
1.709682525
1.684967641
1.66114134
1.638379522
1.616357687
1.594923829
1.573507345
1.552223037
2.535054455
2.489379825
2.445905293
2.403348433
2.361768926
2.321525916
2.282565053
2.244357325
2.206599579
2.169329332
2.132912287
2.097966567
2.064867404
2.033055398
2.001681602
1.970278766
1.939048437
1.90834301
1.878835
1.850145452
1.821899468
1.794731377
1.770106962
1.746145555
1.720815271
1.694696744
1.669232376
1.645033119
1.621890363
1.599733506
1.577995849
1.556621982
2.555770656
2.509073205
2.464863482
2.422472325
2.381063272
2.339957431
2.299047197
2.258672286
2.21962707
2.182318484
2.146388252
2.111295129
2.076826354
2.043029289
2.009984313
1.977512444
1.946029715
1.915923535
1.887056127
1.858590363
1.830498182
1.802939347
1.775895122
1.74911127
1.723191908
1.698227235
1.674223164
1.651001808
1.628393908
1.606445942
1.58472459
1.56324978
2.576855092
2.529876328
2.484086807
2.439894508
2.396893964
2.354151318
2.311508191
2.269572409
2.229432307
2.191438734
2.155239442
2.120463659
2.08688218
2.054042032
2.021731951
1.98990913
1.958940033
1.928516717
1.898299785
1.868337066
1.839319502
1.811296881
1.78421019
1.757800259
1.732228079
1.707176108
1.682692274
1.658835226
1.63576581
1.613510389
1.59159258
1.569989973
2.593075355
2.54659666
2.500496511
2.455363441
2.411681039
2.369021006
2.327049395
2.286002069
2.246335337
2.208054687
2.171004929
2.134924103
2.099734173
2.06535694
2.032047869
1.999950421
1.969135498
1.938672541
1.908042095
1.877537596
1.848064825
1.819846048
1.793209338
1.767441467
1.741953306
1.716309332
1.690719419
1.665439425
1.640951
1.617618513
1.595422473
1.57419581
2.610333263
2.563627934
2.517454565
2.471769412
2.427166646
2.383780555
2.341656124
2.30083077
2.26099589
2.221897454
2.183518785
2.145751402
2.108558427
2.072107227
2.036853121
2.002854178
1.970232437
1.93880749
1.908365903
1.878482787
1.8492945
1.82096961
1.793933094
1.768083415
1.74340411
1.719421647
1.695800664
1.672235882
1.648794673
1.625681936
1.603151757
1.581392184
2.623090332
2.574852068
2.52790562
2.481600018
2.436110943
2.392076898
2.350401733
2.310524245
2.271382518
2.232461732
2.194011763
2.156260956
2.119301602
2.083085748
2.047823768
2.013505403
1.980330543
1.948517097
1.917873766
1.887683542
1.857881611
1.828758767
1.800842144
1.774312168
1.749327036
1.725440081
1.702191727
1.679151398
1.656253625
1.633251697
1.610363589
1.588126637
2.638429812
2.589422749
2.542220767
2.49603228
2.450464555
2.405681185
2.362432308
2.320842293
2.280695554
2.241381395
2.202779126
2.165039131
2.128414768
2.092781848
2.058129339
2.024291281
1.991571176
1.960099083
1.929558576
1.899015766
1.868269151
1.837915282
1.80885836
1.781259259
1.755174634
1.730280143
1.706156691
1.682260012
1.65856624
1.635027948
1.611926125
1.589555094
2.652316133
2.602327947
2.554441639
2.508316667
2.463352244
2.418498029
2.373218954
2.328645329
2.286008046
2.245510536
2.20688223
2.169745394
2.134028198
2.099387403
2.065477408
2.031814017
1.99843218
1.965483642
1.933405561
1.902502813
1.872787253
1.844087151
1.816437246
1.789665884
1.763752128
1.73858782
1.714142766
1.690195594
1.666485403
1.642861278
1.619534498
1.596752185
2.664829242
2.61431619
2.565479193
2.518364656
2.472640338
2.427656148
2.383040609
2.339060914
2.296581529
2.256124286
2.217635178
2.18062703
2.144774544
2.10960333
2.074914123
2.040491494
2.006327174
1.972507461
1.9395974
1.908469179
1.879144482
1.851114521
1.824292203
1.798317063
1.772712777
1.747183747
1.722157681
1.698195266
1.675171393
1.653065429
1.631684712
1.608887057
2.678039311
2.627271631
2.57750806
2.528948248
2.481831766
2.436241526
2.391943956
2.348488004
2.306512217
2.266746817
2.228987408
2.192166499
2.155506174
2.118706622
2.082269027
2.046496797
2.011882945
1.978391767
1.945666328
1.91418212
1.884658576
1.856411223
1.828833822
1.80177305
1.775592872
1.750055884
1.725169032
1.701556158
1.679548403
1.65683528
1.632805893
1.609664838
2.686461795
2.634157491
2.583381897
2.53443533
2.487332471
2.44226898
2.399214908
2.357299523
2.316364604
2.27698105
2.239148096
2.201925426
2.16476702
2.127787053
2.092202779
2.057992511
2.024248987
1.990721021
1.957664677
1.924734916
1.893411559
1.864436183
1.836960693
1.809911262
1.783306937
1.757065448
1.731203923
1.706620962
1.684014328
1.661828587
1.637205892
1.613511642
2.699387846
2.646575523
2.59533553
2.545903747
2.498091318
2.452059042
2.408581832
2.367622842
2.327926542
2.288916085
2.250682164
2.212682689
2.174788257
2.137065561
2.101106543
2.067916645
2.037033859
2.005463537
1.971302906
1.936490603
1.90298786
1.872843814
1.843964071
1.816704143
1.791573441
1.765512944
1.738185569
1.712927984
1.687841787
1.663871563
1.64613412
1.627064608
2.711534941
2.658555526
2.60713721
2.557528753
2.509477753
2.462845375
2.418053765
2.375642769
2.334924563
2.294837474
2.255445335
2.218081995
2.183628449
2.149149118
2.112404692
2.076000374
2.040704807
2.005212481
1.97121754
1.943792354
1.91826413
1.886861811
1.854430637
1.823935289
1.793436753
1.767109935
1.749357364
1.728316654
1.702783848
1.673365899
1.646204472
1.621601329
2.725627725
2.672335953
2.620384008
2.570396593
2.522036548
2.475161796
2.430380723
2.387973786
2.346961799
2.306002317
2.264902075
2.224604582
2.185438227
2.147883891
2.112947402
2.078702526
2.044046127
2.010758788
1.979790686
1.94814291
1.91469069
1.8840378
1.855381857
1.826671641
1.798455266
1.773813517
1.747889142
1.721118578
1.69712873
1.675003622
1.648473835
1.622785661
2.739028634
2.685751159
2.633180116
2.582244995
2.53348086
2.486066816
2.44063826
2.398821527
2.360074586
2.319976433
2.275440392
2.230577085
2.188853015
2.150968673
2.116462044
2.082709076
2.048018184
2.016425248
1.986840927
1.953370178
1.918796337
1.889041376
1.861099722
1.830040519
1.801593427
1.776043497
1.749398152
1.722328891
1.697686628
1.679433862
1.659107628
1.631996574
2.745865706
2.692877649
2.641205131
2.589691211
2.540877074
2.494434282
2.449384567
2.404868386
2.359895247
2.315435637
2.275670155
2.234616953
2.194954108
2.158270277
2.123046128
2.088614536
2.054411261
2.018694682
1.985323284
1.958520616
1.934485796
1.904440176
1.869699178
1.836004401
1.807842218
1.781032368
1.753692752
1.72704426
1.702699412
1.679924511
1.655997263
1.631983635
2.754762464
2.701370889
2.65373807
2.609916309
2.564590514
2.518187629
2.471327774
2.4211048
2.367146417
2.318732379
2.280178411
2.249953799
2.215787622
2.180097782
2.143347916
2.105150399
2.064784359
2.025728998
1.992251806
1.961417786
1.929987314
1.896924127
1.866571614
1.846181435
1.822867229
1.79583524
1.768691215
1.742953366
1.715858058
1.683726527
1.657592245
1.640369991
2.761742594
2.708114408
2.656368067
2.605408132
2.555312037
2.506971564
2.458984199
2.410933103
2.365696086
2.322997352
2.283700956
2.24409698
2.205897914
2.168956555
2.132472944
2.095095726
2.064263184
2.039591519
2.008378054
1.972009289
1.932793155
1.898001232
1.870331325
1.842812147
1.814270379
1.786239554
1.759427606
1.73355357
1.707228168
1.681981078
1.658900721
1.636382395
2.773600703
2.720733968
2.665603839
2.610569534
2.558143242
2.507818248
2.458492701
2.41181953
2.369405386
2.329243408
2.287723945
2.246254424
2.207186888
2.169152543
2.13161628
2.096537656
2.065316216
2.031767806
1.997760439
1.963029286
1.929931553
1.900288713
1.872452387
1.84311308
1.814211817
1.786372753
1.759561368
1.733112671
1.707133348
1.683163695
1.660041603
1.636971789
2.77753515
2.7232183
2.6695601
2.616698328
2.564893181
2.514237109
2.4655815
2.420225078
2.377631885
2.335822916
2.293430459
2.252272543
2.212843088
2.174470757
2.137605384
2.103535629
2.069050253
2.033943204
1.999501389
1.966094487
1.935106194
1.906299433
1.87659284
1.846461656
1.817256752
1.789495402
1.762599298
1.736363773
1.711322154
1.687574103
1.663883106
1.640646171
2.794697577
2.739611228
2.686409746
2.634571314
2.583553266
2.53368029
2.485803484
2.439948511
2.395438557
2.351855643
2.309663626
2.269072627
2.22963253
2.191338296
2.154531979
2.118831997
2.0826992
2.047539534
2.013846416
1.981930095
1.95121878
1.920451325
1.889504914
1.859670637
1.831007051
1.803239287
1.775963443
1.749645803
1.7243408
1.699650666
1.675689881
1.652820145
2.773191717
2.718332262
2.665073374
2.613285364
2.562520101
2.513087348
2.465688577
2.420274963
2.376048388
2.332716345
2.290702042
2.250220785
2.211171442
2.173667344
2.137540584
2.102020065
2.066296628
2.031357333
1.997978614
1.966535629
1.935895455
1.905053329
1.874313712
1.8447011
1.816172372
1.788626351
1.761761281
1.736118336
1.711147741
1.686734855
1.663051782
1.64035583
)
;

boundaryField
{
    inlet
    {
        type            calculated;
        value           nonuniform 0();
    }
    outlet
    {
        type            calculated;
        value           nonuniform 0();
    }
    bottom
    {
        type            calculated;
        value           nonuniform 0();
    }
    top
    {
        type            calculated;
        value           nonuniform List<scalar> 
32
(
2.773191717
2.718332262
2.665073374
2.613285364
2.562520101
2.513087348
2.465688577
2.420274963
2.376048388
2.332716345
2.290702042
2.250220785
2.211171442
2.173667344
2.137540584
2.102020065
2.066296628
2.031357333
1.997978614
1.966535629
1.935895455
1.905053329
1.874313712
1.8447011
1.816172372
1.788626351
1.761761281
1.736118336
1.711147741
1.686734855
1.663051782
1.64035583
)
;
    }
    obstacle
    {
        type            calculated;
        value           nonuniform 0();
    }
    defaultFaces
    {
        type            empty;
    }
    procBoundary34to27
    {
        type            processor;
        value           nonuniform List<scalar> 9(0.9173055511 0.900674555 0.8214116732 0.7459224171 0.7184006648 0.7197911686 0.7292944118 0.7448571231 0.7605715866);
    }
    procBoundary34to28
    {
        type            processor;
        value           nonuniform List<scalar> 
32
(
1.951108015
1.936438253
1.925751418
1.916327762
1.904694943
1.88810069
1.869424495
1.892385278
2.177456524
2.684929782
2.874293137
2.850147868
2.798025713
2.754749547
2.721750292
2.692305232
2.665937523
2.635018034
2.598941971
2.565302265
2.536132984
2.505557274
0.9128058792
0.9070456242
0.895540266
0.8825785958
0.8667666302
0.8655387784
0.9328850424
1.464417227
1.912291829
1.912291829
)
;
    }
    procBoundary34to29
    {
        type            processor;
        value           uniform 2.504727436;
    }
    procBoundary34to33
    {
        type            processor;
        value           nonuniform List<scalar> 
61
(
0.7752188551
0.7880692658
0.8010514643
0.813389497
0.8270065772
0.8395998637
0.8532721095
0.867449534
0.8824448865
0.8958748689
0.9085848388
0.9241157435
0.9415554362
0.9673665659
1.016372723
1.169907576
1.485086309
1.78176668
1.953597334
2.056730617
2.121940274
2.13634989
2.150405103
2.201876132
2.242413024
2.25970957
2.277735071
2.300384139
2.331787351
2.363309933
2.382293813
2.402807623
2.421585427
2.445368399
2.47200863
2.497041233
2.521972158
2.539645967
2.563374924
2.583119574
2.603925517
2.624368058
2.640262489
2.658516368
2.673299612
2.689392026
2.704051261
2.716608844
2.729853577
2.739991967
2.753467571
2.765875996
2.780195631
2.794089169
2.801672277
2.811808445
2.817507892
2.827272716
2.832766342
2.85115063
2.829334033
)
;
    }
    procBoundary34to35
    {