/*--------------------------------*- C++ -*----------------------------------*\
  =========                 |
  \\      /  F ield         | OpenFOAM: The Open Source CFD Toolbox
   \\    /   O peration     | Website:  https://openfoam.org
    \\  /    A nd           | Version:  7
     \\/     M anipulation  |
\*---------------------------------------------------------------------------*/
FoamFile
{
    version     2.0;
    format      ascii;
    class       volVectorField;
    location    "1";
    object      U;
}
// * * * * * * * * * * * * * * * * * * * * * * * * * * * * * * * * * * * * * //

dimensions      [0 1 -1 0 0 0 0];

internalField   nonuniform List<vector> 
2222
(
(3 7.939014519e-16 0)
(3 -3.062059968e-16 0)
(3 8.263906607e-16 0)
(3 6.601028497e-16 0)
(3 1.041146091e-15 0)
(3 1.077707881e-15 0)
(3 1.415735454e-15 0)
(3 1.546615936e-15 0)
(3 9.839254805e-16 0)
(3 1.178462665e-16 0)
(3 -3.417590888e-16 0)
(3 -4.128575292e-16 0)
(3 1.814947146e-15 0)
(3 1.870927186e-15 0)
(3 1.612044164e-15 0)
(3 1.780920164e-15 0)
(3 1.022959331e-15 0)
(3 -4.658847341e-16 0)
(3 -8.869296724e-16 0)
(3 -1.531842527e-15 0)
(3 -1.009176024e-15 0)
(3 -8.484293996e-16 0)
(3 -8.741419702e-17 0)
(3 4.195882373e-16 0)
(3 5.6770832e-16 0)
(3 -1.951992441e-15 0)
(3 -2.890202405e-15 0)
(3 -2.188002333e-15 0)
(3 2.120726525e-15 0)
(3 3.092524194e-15 0)
(3 2.985529046e-15 0)
(3 2.918722084e-15 0)
(3 3.210112725e-15 0)
(3 2.777087921e-15 0)
(3 -1.156634709e-16 0)
(3 -1.370367247e-15 0)
(3 -2.443572936e-15 0)
(3 -2.943624488e-15 0)
(3 -3.020249322e-15 0)
(3 -2.844903555e-15 0)
(3 -3.51587859e-15 0)
(3 -3.792942161e-15 0)
(3 -4.155171851e-15 0)
(3 -5.203666415e-15 0)
(3 -4.200928584e-15 0)
(3 -3.049339118e-15 0)
(3 -4.835738548e-16 0)
(3 1.094779546e-15 0)
(3 2.201582245e-15 0)
(3 2.601419616e-15 0)
(3 1.323268753e-15 0)
(3 1.835947889e-15 0)
(3 2.409917574e-15 0)
(3 2.131715521e-15 0)
(3 1.580712872e-15 0)
(3 1.187696777e-15 0)
(3 5.323467893e-16 0)
(3 9.125791213e-16 0)
(3 1.710484307e-15 0)
(3 2.217133829e-15 0)
(3 1.439580521e-15 0)
(3 4.37842146e-16 0)
(3 -5.746007686e-16 0)
(3 -6.215938319e-16 0)
(3 4.199061148e-16 0)
(3 6.953008991e-16 0)
(3 7.366284233e-16 0)
(3 1.031932119e-15 0)
(3 1.285442785e-15 0)
(3 1.003912292e-15 0)
(3 1.400177723e-15 0)
(3 1.951651709e-15 0)
(3 2.289928932e-15 0)
(3 2.051780619e-15 0)
(3 1.190201654e-15 0)
(3 -2.279421216e-16 0)
(3 -6.07640949e-16 0)
(3 -4.861782409e-16 0)
(3 -3.626087598e-16 0)
(3 -7.054224916e-16 0)
(3 1.482077898e-15 0)
(3 2.709654938e-15 0)
(3 2.734666776e-15 0)
(3 1.919529988e-16 0)
(3 5.253523639e-16 0)
(3 1.653788584e-15 0)
(3 1.683046315e-15 0)
(3 1.618695852e-15 0)
(3 1.260831482e-15 0)
(3 5.826398221e-16 0)
(3 8.801090371e-17 0)
(3 7.074021662e-16 0)
(3 1.200508808e-15 0)
(3 2.104582257e-15 0)
(3 3.948924041e-15 0)
(3 4.185803044e-15 0)
(3 3.81684849e-15 0)
(3 2.810627052e-15 0)
(3 5.686541206e-16 0)
(3 -1.152001297e-17 0)
(3 3.847849362e-17 0)
(3 2.296626592e-16 0)
(3 8.972146681e-16 0)
(3 9.498069859e-16 0)
(3 5.302054396e-16 0)
(3 -8.524837066e-16 0)
(3 -6.384721937e-16 0)
(3 -1.318915279e-16 0)
(3 2.829431342e-15 0)
(3 4.034741803e-15 0)
(3 4.773963688e-15 0)
(3 4.04878324e-15 0)
(3 3.528444133e-15 0)
(3 3.850061229e-15 0)
(3 3.979236895e-15 0)
(3 1.505564408e-15 0)
(3 1.626807874e-15 0)
(3 1.170750275e-15 0)
(3 1.165243477e-15 0)
(3 1.316242837e-15 0)
(3 1.303764136e-15 0)
(3 1.124021698e-15 0)
(3 1.112669304e-15 0)
(3 7.190133094e-16 0)
(3 1.366343557e-15 0)
(3 2.486970638e-15 0)
(3 2.371893963e-15 0)
(3 2.728511205e-15 0)
(3 3.72732093e-15 0)
(3 5.158178759e-15 0)
(3 5.680782774e-15 0)
(3 4.333337029e-15 0)
(3 3.144016239e-15 0)
(3 1.822393444e-15 0)
(3 1.049614985e-15 0)
(3 7.284513874e-16 0)
(3 7.067417176e-16 0)
(3 5.687567877e-16 0)
(3 -1.174946636e-15 0)
(3 -1.590722942e-15 0)
(3 -1.771138507e-15 0)
(3 -1.4617779e-15 0)
(3 -1.524594537e-15 0)
(3 -3.088348284e-16 0)
(3 1.871603174e-15 0)
(3 2.242460279e-15 0)
(3 1.568174693e-15 0)
(3 1.541522347e-15 0)
(3 3.231352308e-15 0)
(3 6.044802893e-15 0)
(3 7.291450924e-15 0)
(3 6.48146875e-15 0)
(3 4.934490596e-15 0)
(3 3.630471562e-15 0)
(3 3.744218557e-15 0)
(3 3.865063368e-15 0)
(3 1.871398338e-15 0)
(3 1.428347437e-15 0)
(3 1.950229373e-15 0)
(3 3.379074143e-15 0)
(3 3.752772257e-15 0)
(3 2.1627171e-15 0)
(3 1.849506519e-15 0)
(3 2.014244848e-15 0)
(3 2.90475431e-15 0)
(3 3.377679675e-15 0)
(3 3.766894736e-15 0)
(3 4.25294096e-15 0)
(3 4.652455062e-15 0)
(3 3.906095919e-15 0)
(3 4.029115602e-15 0)
(3 4.520256896e-15 0)
(3 4.845757425e-15 0)
(3 4.511349321e-15 0)
(3 3.792987963e-15 0)
(3 2.441610426e-15 0)
(3 8.189162613e-16 0)
(3 1.971119988e-16 0)
(3 -4.638067992e-16 0)
(3 -5.347698583e-16 0)
(3 -2.037340204e-15 0)
(3 -2.145476945e-15 0)
(3 -1.894117946e-15 0)
(3 -1.368383668e-15 0)
(3 -1.530011443e-15 0)
(3 -1.004758669e-15 0)
(3 6.14492459e-16 0)
(3 1.16568607e-15 0)
(3 2.547253404e-15 0)
(3 4.132920622e-15 0)
(3 4.499149345e-15 0)
(3 4.961759666e-15 0)
(3 5.016780705e-15 0)
(3 5.218927912e-15 0)
(3 4.394698798e-15 0)
(3 3.245138018e-15 0)
(3 2.474154447e-15 0)
(3 2.842222379e-15 0)
(3 4.990647339e-15 0)
(3 5.174035591e-15 0)
(3 4.956348078e-15 0)
(3 4.159525696e-15 0)
(3 4.273211523e-15 0)
(3 2.221148097e-15 0)
(3 8.042189273e-16 0)
(3 -1.644097881e-16 0)
(3 4.669008793e-16 0)
(3 6.610051452e-16 0)
(3 1.543133118e-15 0)
(3 2.74317706e-15 0)
(3 2.781892904e-15 0)
(3 2.960953288e-15 0)
(3 3.017497345e-15 0)
(3 2.695528492e-15 0)
(3 3.039912771e-15 0)
(3 2.826599956e-15 0)
(3 3.08153728e-15 0)
(3 3.38439128e-15 0)
(3 3.321452233e-15 0)
(3 3.074961404e-15 0)
(3 2.357608428e-15 0)
(3 3.001773712e-15 0)
(3 1.514187104e-15 0)
(3 1.018923725e-15 0)
(3 -4.287015497e-17 0)
(3 -4.639488831e-16 0)
(3 2.489282974e-16 0)
(3 3.975352782e-16 0)
(3 -1.468450786e-16 0)
(3 -4.400286269e-16 0)
(3 -5.120478246e-16 0)
(3 -8.822311623e-16 0)
(3 -1.279716531e-15 0)
(3 7.923133529e-16 0)
(3 3.917878783e-15 0)
(3 4.315048489e-15 0)
(3 4.02085158e-15 0)
(3 3.524590934e-15 0)
(3 4.189749464e-15 0)
(3 5.864635604e-15 0)
(3 6.967961718e-15 0)
(3 6.922205631e-15 0)
(3 7.035997258e-15 0)
(3 6.66616836e-15 0)
(3 5.782488573e-15 0)
(3 5.575165481e-15 0)
(3 5.719141108e-15 0)
(3 5.745338377e-15 0)
(3 5.458336526e-15 0)
(3 5.292836466e-15 0)
(3 6.22729378e-15 0)
(3 5.155154207e-15 0)
(3 6.084282207e-14 0)
(3 5.257757413e-14 0)
(3 3.063960224e-12 0)
(3 5.060223919e-11 0)
(3 -5.378470868e-16 0)
(3 -2.247617529e-15 0)
(3 -2.767824405e-15 0)
(3 -3.47582346e-15 0)
(3 -1.090077186e-15 0)
(3 1.553681774e-15 0)
(3 2.229110459e-15 0)
(3 1.916780012e-15 0)
(3 1.419903905e-15 0)
(3 2.015793378e-15 0)
(3 2.647578942e-15 0)
(3 4.959355923e-15 0)
(3 4.889842952e-15 0)
(3 5.142205941e-15 0)
(3 4.481003038e-15 0)
(3 4.584518028e-15 0)
(3 3.49610343e-15 0)
(3 2.730213168e-15 0)
(3 1.700881731e-15 0)
(3 1.47598688e-15 0)
(3 1.171918854e-15 0)
(3 7.257010951e-16 0)
(3 6.292967382e-16 0)
(3 7.286955559e-16 0)
(3 1.158705218e-15 0)
(3 1.685392206e-15 0)
(3 1.534064959e-15 0)
(3 1.480051381e-15 0)
(3 2.142647521e-15 0)
(3 2.715575811e-15 0)
(3 3.39873937e-15 0)
(3 4.314943771e-15 0)
(3 4.6487603e-15 0)
(3 3.66610513e-15 0)
(3 3.203573032e-15 0)
(3 3.626373263e-15 0)
(3 3.85737408e-15 0)
(3 4.256112579e-15 0)
(3 5.696565325e-15 0)
(3 5.965538813e-15 0)
(3 6.827466763e-15 0)
(3 6.700480142e-15 0)
(3 5.996891204e-15 0)
(3 5.265298329e-15 0)
(3 5.817581444e-15 0)
(3 3.905025104e-15 0)
(3 3.107054387e-15 0)
(3 7.341433214e-14 0)
(3 1.038237059e-12 0)
(3 1.368768892e-11 0)
(3 3.556995305e-11 0)
(3.000000001 8.333413999e-10 0)
(3.000000001 8.852865659e-10 0)
(3.000000006 1.024673845e-08 0)
(3.000000011 1.69903633e-08 0)
(2.999999967 -4.956203251e-08 0)
(2.999999938 6.674265625e-08 0)
(2.999985658 -1.671185325e-05 0)
(2.99965203 -0.0004615813034 0)
(3 -3.087174293e-15 0)
(3 -2.721072255e-15 0)
(3 -1.153240154e-15 0)
(3 8.415111319e-16 0)
(3 1.296668197e-15 0)
(3 9.507881326e-16 0)
(3 1.06835169e-15 0)
(3 2.028631596e-15 0)
(3 3.417162359e-15 0)
(3 4.464218081e-15 0)
(3 5.211883727e-15 0)
(3 4.390127542e-15 0)
(3 3.032732533e-15 0)
(3 1.222435628e-15 0)
(3 9.74132651e-16 0)
(3 6.628899369e-16 0)
(3 -7.321332061e-16 0)
(3 -9.571992662e-16 0)
(3 -1.167679788e-15 0)
(3 -8.524210485e-16 0)
(3 -1.872531809e-16 0)
(3 1.623600662e-15 0)
(3 1.787483987e-15 0)
(3 1.305537447e-15 0)
(3 6.622666149e-16 0)
(3 1.144496017e-15 0)
(3 1.406197293e-15 0)
(3 1.391279201e-15 0)
(3 1.317898237e-15 0)
(3 8.02921045e-16 0)
(3 7.484311061e-16 0)
(3 1.031616248e-15 0)
(3 7.918475797e-16 0)
(3 1.235203726e-16 0)
(3 1.600571118e-15 0)
(3 1.761511178e-15 0)
(3 9.683521739e-16 0)
(3 2.2482718e-15 0)
(3 3.812046651e-15 0)
(3 4.951353273e-15 0)
(3 5.217092203e-15 0)
(3 6.214813251e-15 0)
(3 6.834153335e-15 0)
(3 4.794682273e-15 0)
(3 2.783887965e-13 0)
(3 5.404047816e-13 0)
(3 4.022058648e-13 0)
(3 7.971012834e-11 0)
(3 2.917340828e-10 0)
(3 2.612040524e-10 0)
(3.000000006 7.464618825e-09 0)
(3.000000006 1.02065872e-08 0)
(2.999999993 -8.420117451e-09 0)
(3.000000089 1.809329224e-07 0)
(2.999995944 -4.357895009e-06 0)
(2.999852189 -0.0001885121921 0)
(2.998535266 -0.002166384616 0)
(2.990513746 -0.01303092584 0)
(2.942196118 -0.0759204878 0)
(2.856653704 -0.2002702249 0)
(2.75623352 -0.3695293462 0)
(2.53790175 -0.6641534663 0)
(2.480527625 -0.7385639837 0)
(2.475783617 -0.7478495417 0)
(3 -4.950199304e-16 0)
(3 -1.322039725e-15 0)
(3 -1.840893009e-15 0)
(3 3.587845195e-16 0)
(3 1.88556421e-15 0)
(3 2.348149693e-15 0)
(3 1.812423425e-15 0)
(3 7.738068284e-16 0)
(3 5.133478095e-16 0)
(3 1.096488366e-15 0)
(3 1.062894111e-15 0)
(3 9.484884954e-16 0)
(3 8.218384118e-16 0)
(3 2.88457006e-16 0)
(3 -4.431992655e-16 0)
(3 -3.231715317e-15 0)
(3 -2.435411005e-15 0)
(3 -7.474818746e-16 0)
(3 7.040315894e-16 0)
(3 1.22730982e-15 0)
(3 1.680668125e-15 0)
(3 1.940996477e-15 0)
(3 2.200505644e-15 0)
(3 9.933846112e-16 0)
(3 5.640353663e-16 0)
(3 6.707721782e-16 0)
(3 8.873695891e-16 0)
(3 3.766972042e-16 0)
(3 -7.607502119e-16 0)
(3 -4.569723724e-16 0)
(3 -6.243141658e-16 0)
(3 -1.07547968e-15 0)
(3 -2.066356288e-15 0)
(3 -1.74718581e-15 0)
(3 -3.26655839e-16 0)
(3 6.557851052e-16 0)
(3 7.469991809e-16 0)
(3 -5.120918389e-16 0)
(3 -2.627073232e-16 0)
(3 9.426148588e-16 0)
(3 -2.117882827e-16 0)
(3 3.880353763e-13 0)
(3 4.182353665e-13 0)
(3 2.921769774e-12 0)
(3 1.116453401e-10 0)
(3 1.158670132e-10 0)
(3 1.144294789e-09 0)
(3 6.670071114e-10 0)
(3.000000003 5.652470506e-09 0)
(2.999999999 1.61585003e-10 0)
(3.000000096 1.215973854e-07 0)
(2.999998902 -1.000743758e-06 0)
(2.999935615 -7.845212076e-05 0)
(2.999181808 -0.001168397385 0)
(2.994636458 -0.00769607812 0)
(2.962941356 -0.04703380957 0)
(2.884323977 -0.1592087046 0)
(2.804262358 -0.2990922409 0)
(2.588110106 -0.5895071235 0)
(2.498215427 -0.7189751215 0)
(2.498504383 -0.725639218 0)
(2.43734083 -0.7803081008 0)
(2.389391601 -0.8344109527 0)
(2.363923028 -0.8464377007 0)
(2.363539752 -0.8442953198 0)
(2.359632519 -0.8455956712 0)
(2.357891115 -0.8438819084 0)
(3 -1.550993039e-15 0)
(3 -1.929804572e-15 0)
(3 -2.234468176e-15 0)
(3 1.782527348e-16 0)
(3 1.229550233e-15 0)
(3 8.895945412e-16 0)
(3 5.131296975e-17 0)
(3 -1.77807228e-17 0)
(3 1.046942315e-16 0)
(3 -6.635927396e-17 0)
(3 -1.033440671e-15 0)
(3 -1.729413889e-15 0)
(3 -1.82230531e-15 0)
(3 -1.498979699e-15 0)
(3 -1.1534128e-15 0)
(3 -1.611290135e-15 0)
(3 -2.245746165e-15 0)
(3 -1.113066839e-15 0)
(3 3.397761539e-16 0)
(3 3.319981147e-16 0)
(3 -3.515557039e-16 0)
(3 -9.388488048e-16 0)
(3 6.376716808e-16 0)
(3 1.540852702e-15 0)
(3 1.823685511e-15 0)
(3 1.181480133e-15 0)
(3 -4.729742994e-16 0)
(3 -8.219174123e-16 0)
(3 -6.655522555e-16 0)
(3 -1.373571719e-15 0)
(3 -2.18480441e-15 0)
(3 -2.640477048e-15 0)
(3 -2.868314565e-15 0)
(3 -2.657533774e-15 0)
(3 -1.626338542e-15 0)
(3 2.571660813e-16 0)
(3 7.494303755e-16 0)
(3 -9.14414086e-16 0)
(3 2.685341529e-13 0)
(3 2.687996611e-13 0)
(3 2.659153609e-12 0)
(3 8.050246409e-11 0)
(3 1.100783675e-10 0)
(3.000000001 1.662120163e-09 0)
(3.000000001 1.602979306e-09 0)
(3.00000001 1.302390761e-08 0)
(3.000000008 2.901329225e-08 0)
(2.999999963 -1.022264677e-07 0)
(2.999999819 -5.66872332e-08 0)
(2.999970524 -3.448736764e-05 0)
(2.999521998 -0.0006572805606 0)
(2.99670463 -0.00485903714 0)
(2.976232093 -0.02942255881 0)
(2.906871984 -0.1265262035 0)
(2.836134648 -0.2465235712 0)
(2.642587334 -0.5107803258 0)
(2.514874904 -0.6974884312 0)
(2.514690944 -0.7076596408 0)
(2.452228288 -0.7661736158 0)
(2.397098265 -0.825125491 0)
(2.363573801 -0.8513133585 0)
(2.360179368 -0.8472356363 0)
(2.357800488 -0.8472250347 0)
(2.357056684 -0.8440209532 0)
(2.360427486 -0.8405820248 0)
(2.365127177 -0.83873251 0)
(2.36935558 -0.8340608032 0)
(3 1.368773961e-16 0)
(3 1.157011307e-15 0)
(3 2.406030241e-15 0)
(3 3.00348077e-15 0)
(3 2.985213065e-15 0)
(3 2.559001222e-15 0)
(3 1.196574425e-15 0)
(3 1.124015529e-15 0)
(3 3.303329505e-16 0)
(3 -8.413595518e-16 0)
(3 -1.740881467e-16 0)
(3 1.653925057e-16 0)
(3 -2.647290455e-16 0)
(3 -7.737326372e-16 0)
(3 -9.069640886e-16 0)
(3 2.584650059e-17 0)
(3 1.767918502e-16 0)
(3 -6.396611389e-17 0)
(3 -7.668900072e-16 0)
(3 -4.548080075e-16 0)
(3 -3.837907778e-16 0)
(3 -2.042463518e-15 0)
(3 -3.514003436e-15 0)
(3 -3.128220468e-15 0)
(3 -1.661152482e-15 0)
(3 -6.398448469e-16 0)
(3 -4.567556185e-16 0)
(3 -3.490274172e-16 0)
(3 -3.009612053e-16 0)
(3 -5.145747369e-16 0)
(3 -1.340252656e-15 0)
(3 -1.457250363e-15 0)
(3 -1.903626061e-15 0)
(3 -1.18223613e-15 0)
(3 -1.820203619e-15 0)
(3 2.159213201e-13 0)
(3 2.175334921e-13 0)
(3 1.954432583e-12 0)
(3 5.764609041e-11 0)
(3 9.21339695e-11 0)
(3.000000001 1.386486843e-09 0)
(3.000000001 1.352163963e-09 0)
(3.000000009 1.570778415e-08 0)
(3.000000015 2.502921285e-08 0)
(2.999999963 -4.950888754e-08 0)
(3.000000036 2.16703669e-07 0)
(2.999985224 -1.661266967e-05 0)
(2.999705482 -0.0003933027736 0)
(2.997813293 -0.003250380067 0)
(2.984121216 -0.01951503636 0)
(2.925342774 -0.09973752514 0)
(2.855628945 -0.2115635934 0)
(2.695495426 -0.4380623152 0)
(2.532961602 -0.67068776 0)
(2.524662184 -0.6920672509 0)
(2.471670725 -0.7495426693 0)
(2.40759175 -0.8144394137 0)
(2.365805264 -0.8546369188 0)
(2.358420209 -0.8483450117 0)
(2.357052187 -0.8471363378 0)
(2.356573407 -0.844375834 0)
(2.359996945 -0.8407494695 0)
(2.365229748 -0.8375121404 0)
(2.369798635 -0.8343498739 0)
(2.372295975 -0.8315146401 0)
(2.372879829 -0.8298088579 0)
(2.37237217 -0.829247445 0)
(3 2.127043896e-15 0)
(3 3.072875205e-15 0)
(3 1.759675453e-15 0)
(3 -4.488411423e-16 0)
(3 -2.383181153e-15 0)
(3 -1.866272473e-15 0)
(3 -2.404669466e-15 0)
(3 -3.158031335e-15 0)
(3 -3.532950572e-15 0)
(3 -3.87275237e-15 0)
(3 -4.220156677e-15 0)
(3 -3.858254568e-15 0)
(3 -2.417588392e-15 0)
(3 -1.605864761e-15 0)
(3 -2.783686875e-15 0)
(3 -2.760545593e-15 0)
(3 -1.127873828e-15 0)
(3 -1.158893871e-15 0)
(3 -1.608073168e-15 0)
(3 -2.147674617e-15 0)
(3 -1.947953762e-15 0)
(3 -1.144453246e-15 0)
(3 -1.007918629e-15 0)
(3 -1.286988404e-15 0)
(3 -1.965771585e-15 0)
(3 -2.324092564e-15 0)
(3 -2.058274618e-15 0)
(3 -2.87503128e-15 0)
(3 -3.76402554e-15 0)
(3 -3.29771266e-15 0)
(3 -3.178799267e-15 0)
(3 -3.55788458e-15 0)
(3 1.961756126e-13 0)
(3 1.967959107e-13 0)
(3 1.422754378e-12 0)
(3 4.681306228e-11 0)
(3 7.97704256e-11 0)
(3.000000001 1.147809686e-09 0)
(3.000000001 1.099254033e-09 0)
(3.00000001 1.60608673e-08 0)
(3.000000014 2.229729906e-08 0)
(2.999999982 -2.018141111e-08 0)
(3.000000136 3.010111215e-07 0)
(2.99999183 -8.78939576e-06 0)
(2.999803923 -0.0002564653341 0)
(2.998437437 -0.002310496644 0)
(2.988603872 -0.01407942641 0)
(2.939538687 -0.07926883438 0)
(2.869927663 -0.186811505 0)
(2.737931691 -0.3805778719 0)
(2.55241934 -0.6386663139 0)
(2.532697545 -0.6786821133 0)
(2.489908037 -0.7342600874 0)
(2.415923647 -0.8029289371 0)
(2.369301323 -0.8568588814 0)
(2.357139716 -0.8515875219 0)
(2.356494786 -0.8478929575 0)
(2.356339419 -0.8440347371 0)
(2.360175847 -0.8399416594 0)
(2.365365006 -0.8369922568 0)
(2.36999832 -0.8341081804 0)
(2.372557529 -0.8311633679 0)
(2.373047014 -0.8293268411 0)
(2.372620436 -0.8288872134 0)
(2.371575192 -0.830236493 0)
(2.370189397 -0.8323328351 0)
(2.367763937 -0.8353810402 0)
(3 3.084830433e-15 0)
(3 2.601692152e-15 0)
(3 1.456799894e-15 0)
(3 -5.93147834e-16 0)
(3 -1.849779886e-15 0)
(3 -9.597199736e-16 0)
(3 -9.723524252e-16 0)
(3 -5.748619936e-17 0)
(3 3.414306339e-16 0)
(3 -3.573511623e-16 0)
(3 -1.80013453e-15 0)
(3 -2.487774169e-15 0)
(3 -3.297988031e-15 0)
(3 -3.25898438e-15 0)
(3 -2.495067086e-15 0)
(3 -3.046468975e-15 0)
(3 -3.223226995e-15 0)
(3 -3.117172944e-15 0)
(3 -2.816037523e-15 0)
(3 -1.831773673e-15 0)
(3 -1.270894157e-15 0)
(3 -2.523173466e-16 0)
(3 5.148076532e-16 0)
(3 7.023208594e-16 0)
(3 9.055869576e-16 0)
(3 5.130924122e-17 0)
(3 -8.313058979e-16 0)
(3 -6.888920024e-16 0)
(3 -1.244638801e-15 0)
(3 1.963813707e-13 0)
(3 1.972936908e-13 0)
(3 1.134713566e-12 0)
(3 4.423306603e-11 0)
(3 7.574795801e-11 0)
(3.000000001 1.005763032e-09 0)
(3.000000001 9.424558479e-10 0)
(3.00000001 1.592861782e-08 0)
(3.000000012 2.02004762e-08 0)
(2.99999999 -9.111866461e-09 0)
(3.000000167 3.134031455e-07 0)
(2.999994883 -5.235330771e-06 0)
(2.99985662 -0.0001850619478 0)
(2.998797034 -0.001759131611 0)
(2.991162843 -0.01100290628 0)
(2.949456297 -0.06505430898 0)
(2.88116946 -0.1684948612 0)
(2.767928872 -0.3393818222 0)
(2.571454396 -0.606817763 0)
(2.539845093 -0.6654984312 0)
(2.505861611 -0.7201205142 0)
(2.422557715 -0.7920328644 0)
(2.372351774 -0.8584261431 0)
(2.35569852 -0.8537070622 0)
(2.355738252 -0.8486059449 0)
(2.356473986 -0.8436909385 0)
(2.360534054 -0.8393900204 0)
(2.365748985 -0.8364049357 0)
(2.370412914 -0.8335073571 0)
(2.372774121 -0.8312685445 0)
(2.373071985 -0.8299282277 0)
(2.372402662 -0.8292664561 0)
(2.37125566 -0.8303043707 0)
(2.36992194 -0.8323900135 0)
(2.368264204 -0.8349467077 0)
(2.366581556 -0.8371342135 0)
(2.365800352 -0.8380731688 0)
(2.36551494 -0.8384750881 0)
(3 8.016891269e-16 0)
(3 7.200518083e-16 0)
(3 1.674912396e-15 0)
(3 1.87438772e-15 0)
(3 1.58925864e-15 0)
(3 -5.646709958e-16 0)
(3 -2.110489987e-15 0)
(3 -4.356415849e-16 0)
(3 6.123083493e-16 0)
(3 9.39388994e-16 0)
(3 8.592609167e-16 0)
(3 4.361516788e-16 0)
(3 -5.204581255e-16 0)
(3 -1.563280087e-15 0)
(3 -3.392042027e-15 0)
(3 -4.071919966e-15 0)
(3 -4.600219647e-15 0)
(3 -3.199407762e-15 0)
(3 -1.889712606e-15 0)
(3 -9.256687255e-16 0)
(3 -4.523778629e-16 0)
(3 1.036315785e-16 0)
(3 -3.877962437e-16 0)
(3 -8.270404466e-16 0)
(3 -6.158331065e-16 0)
(3 -2.371776858e-15 0)
(3 1.831281746e-13 0)
(3 1.836646955e-13 0)
(3 9.449554649e-13 0)
(3 4.705781888e-11 0)
(3 7.613971846e-11 0)
(3.000000001 9.677738675e-10 0)
(3.000000001 9.0149604e-10 0)
(3.000000011 1.653027546e-08 0)
(3.000000011 1.948376065e-08 0)
(2.999999992 -5.320584266e-09 0)
(3.000000181 3.164238353e-07 0)
(2.999996234 -3.678706908e-06 0)
(2.999883719 -0.0001488500344 0)
(2.998994945 -0.001450488077 0)
(2.992560207 -0.009302564638 0)
(2.955730705 -0.05616524826 0)
(2.889367266 -0.1557124904 0)
(2.787305132 -0.3115979368 0)
(2.587659077 -0.5790321916 0)
(2.546060474 -0.6537977219 0)
(2.519085094 -0.7079785609 0)
(2.427378691 -0.782892228 0)
(2.373082971 -0.86130335 0)
(2.354006005 -0.8561674883 0)
(2.354429131 -0.8494915765 0)
(2.357272408 -0.8427673114 0)
(2.361265937 -0.8385127546 0)
(2.366582576 -0.8357403275 0)
(2.371282121 -0.8330993285 0)
(2.373269203 -0.8312759503 0)
(2.373369111 -0.8299442822 0)
(2.372504951 -0.8292178289 0)
(2.371271163 -0.8305834969 0)
(2.369726776 -0.8329585656 0)
(2.367898159 -0.8354625565 0)
(2.366335422 -0.8373764069 0)
(2.365808975 -0.8381851599 0)
(2.365805118 -0.8383419199 0)
(2.366115152 -0.838040995 0)
(2.366663011 -0.8373053064 0)
(2.367641118 -0.8358176378 0)
(3 4.459874766e-15 0)
(3 2.947534213e-15 0)
(3 2.726154184e-15 0)
(3 1.959480466e-15 0)
(3 -9.287544199e-16 0)
(3 -2.509189272e-15 0)
(3 -4.337512429e-15 0)
(3 -4.671198279e-15 0)
(3 -4.750715607e-15 0)
(3 -2.867455512e-15 0)
(3 -1.517585608e-15 0)
(3 -7.336208837e-16 0)
(3 -5.286299443e-16 0)
(3 7.907991601e-17 0)
(3 4.343986134e-16 0)
(3 -6.134212921e-16 0)
(3 -1.557876617e-15 0)
(3 1.199271756e-15 0)
(3 2.314684154e-15 0)
(3 1.116640324e-15 0)
(3 -2.476718383e-16 0)
(3 4.710934107e-16 0)
(3 -3.720935127e-16 0)
(3 1.828273212e-13 0)
(3 1.843537664e-13 0)
(3 7.283617781e-13 0)
(3 4.986060274e-11 0)
(3 7.403681159e-11 0)
(3.000000001 1.012138161e-09 0)
(3.000000001 9.497931114e-10 0)
(3.000000012 1.771337204e-08 0)
(3.000000011 2.039664487e-08 0)
(2.999999993 -4.506409253e-09 0)
(3.000000198 3.399465465e-07 0)
(2.999996563 -3.305880217e-06 0)
(2.999893735 -0.000135513911 0)
(2.999081012 -0.001309993077 0)
(2.993160405 -0.008540922836 0)
(2.959058982 -0.05144369791 0)
(2.89439747 -0.1481171826 0)
(2.797895732 -0.295012387 0)
(2.599657688 -0.5584612667 0)
(2.551318268 -0.644482777 0)
(2.52847772 -0.6988487964 0)
(2.429925883 -0.7767626653 0)
(2.374240916 -0.8637278059 0)
(2.353258614 -0.8578368476 0)
(2.353828177 -0.8493014054 0)
(2.360012293 -0.8408903754 0)
(2.362954379 -0.8377930383 0)
(2.367505534 -0.8351459253 0)
(2.372058458 -0.8328566676 0)
(2.373774174 -0.8312944271 0)
(2.373818636 -0.8300031494 0)
(2.372925032 -0.8293024285 0)
(2.371537153 -0.8308058967 0)
(2.369723128 -0.8332871207 0)
(2.367795513 -0.8359427012 0)
(2.366380494 -0.8378047338 0)
(2.365977696 -0.8385045488 0)
(2.366005518 -0.8385507917 0)
(2.366397049 -0.8381634621 0)
(2.367053266 -0.8372496134 0)
(2.367915443 -0.8360178549 0)
(2.368906899 -0.834683218 0)
(2.369571498 -0.8338913742 0)
(2.36985929 -0.8334681385 0)
(3 2.16772298e-15 0)
(3 2.307220242e-15 0)
(3 2.971811132e-15 0)
(3 3.126704625e-15 0)
(3 8.824888235e-16 0)
(3 3.524328057e-16 0)
(3 2.23597757e-16 0)
(3 -1.274788038e-19 0)
(3 -4.604281319e-16 0)
(3 -1.279202227e-15 0)
(3 -1.218080452e-15 0)
(3 -7.095169354e-16 0)
(3 -5.050110128e-16 0)
(3 2.049395439e-16 0)
(3 2.621042732e-16 0)
(3 -5.018500147e-16 0)
(3 -3.115000067e-16 0)
(3 -2.443526312e-16 0)
(3 5.858241611e-16 0)
(3 2.43746081e-17 0)
(3 1.602694713e-13 0)
(3 1.953675672e-13 0)
(3 4.378475182e-13 0)
(3 5.387576266e-11 0)
(3 6.807929127e-11 0)
(3.000000001 1.062163116e-09 0)
(3.000000001 9.908433241e-10 0)
(3.000000012 1.896549834e-08 0)
(3.000000013 2.299751653e-08 0)
(2.999999991 -5.829819612e-09 0)
(3.000000226 3.923986207e-07 0)
(2.999996082 -3.863263346e-06 0)
(2.99989009 -0.0001398995137 0)
(2.999068245 -0.001313274993 0)
(2.993050713 -0.008612398962 0)
(2.959619739 -0.05058587015 0)
(2.896079477 -0.1458573869 0)
(2.800972636 -0.2883814645 0)
(2.606374995 -0.5467408272 0)
(2.556075884 -0.6371140231 0)
(2.533717452 -0.6927826128 0)
(2.430231154 -0.774159369 0)
(2.375124037 -0.8661810286 0)
(2.352852848 -0.8588548798 0)
(2.354021577 -0.8487991774 0)
(2.362548876 -0.8394235576 0)
(2.364383456 -0.8369431824 0)
(2.368394766 -0.8346445284 0)
(2.372896744 -0.8327019653 0)
(2.374096956 -0.831529508 0)
(2.374004242 -0.830299877 0)
(2.373125422 -0.829511065 0)
(2.371781708 -0.8310903762 0)
(2.369897291 -0.8336218628 0)
(2.367930215 -0.8362715995 0)
(2.366572802 -0.8380272269 0)
(2.366220473 -0.8386071238 0)
(2.366263356 -0.8386197688 0)
(2.36671056 -0.8381871196 0)
(2.36741656 -0.8372595356 0)
(2.368381954 -0.8359082965 0)
(2.369438421 -0.8346551658 0)
(2.370083807 -0.8338568283 0)
(2.370242498 -0.8336669727 0)
(2.370183195 -0.8337079719 0)
(2.36991851 -0.8340277211 0)
(2.369402841 -0.8345742218 0)
(3 4.249870354e-15 0)
(3 3.83974831e-15 0)
(3 2.988395603e-15 0)
(3 1.462389549e-15 0)
(3 2.288462433e-15 0)
(3 2.578605041e-15 0)
(3 3.306543796e-15 0)
(3 3.103815606e-15 0)
(3 3.470959914e-15 0)
(3 2.727631912e-15 0)
(3 -9.889499868e-16 0)
(3 -1.751953137e-15 0)
(3 -1.711749321e-15 0)
(3 -2.338364682e-15 0)
(3 -2.429724661e-15 0)
(3 -1.309691156e-15 0)
(3 3.580268076e-15 0)
(3 -2.320383211e-14 0)
(3 1.442987339e-13 0)
(3 1.872756817e-13 0)
(3 8.159707717e-11 0)
(3 6.62105623e-11 0)
(3.000000001 9.780228859e-10 0)
(3.000000001 9.164351388e-10 0)
(3.000000012 1.944452368e-08 0)
(3.000000015 2.655218636e-08 0)
(2.999999985 -1.426470649e-08 0)
(3.000000266 4.825374556e-07 0)
(2.999994481 -5.779685405e-06 0)
(2.999873186 -0.000161288294 0)
(2.998961715 -0.001446945167 0)
(2.992255727 -0.009458148471 0)
(2.957480036 -0.05329986188 0)
(2.893816643 -0.1493552565 0)
(2.796081695 -0.292173894 0)
(2.606998609 -0.5457789769 0)
(2.56028534 -0.632288368 0)
(2.534694275 -0.6902423396 0)
(2.428621198 -0.774951254 0)
(2.375417036 -0.8687410075 0)
(2.35245733 -0.8593751506 0)
(2.354553739 -0.8476777527 0)
(2.364959513 -0.8381944381 0)
(2.365774576 -0.8363126821 0)
(2.369624317 -0.834252963 0)
(2.373918769 -0.8325517303 0)
(2.374680258 -0.8317533758 0)
(2.374350711 -0.8305942165 0)
(2.373241938 -0.8298295768 0)
(2.371719123 -0.8315098121 0)
(2.369755296 -0.8340550049 0)
(2.367927515 -0.8365917087 0)
(2.36681655 -0.8382036187 0)
(2.366566656 -0.8387002033 0)
(2.366641152 -0.838622832 0)
(2.367086812 -0.8381088542 0)
(2.367771432 -0.8370777804 0)
(2.368755111 -0.8357242325 0)
(2.369795653 -0.8344932025 0)
(2.370402228 -0.8338393547 0)
(2.370543848 -0.8336760616 0)
(2.370502536 -0.8338093278 0)
(2.370213031 -0.8341361672 0)
(2.369780213 -0.8347047293 0)
(2.369177149 -0.8353998786 0)
(2.368657828 -0.8361361069 0)
(2.368256837 -0.8366747283 0)
(3 4.515942394e-15 0)
(3 3.056241542e-15 0)
(3 2.501103252e-15 0)
(3 2.687270592e-15 0)
(3 2.598159287e-15 0)
(3 3.315137792e-15 0)
(3 2.247490146e-15 0)
(3 1.24840499e-15 0)
(3 -1.917769586e-16 0)
(3 -2.811580749e-16 0)
(3 1.100834522e-16 0)
(3 5.804891561e-16 0)
(3 -6.295778862e-17 0)
(3 9.690721274e-14 0)
(3 1.057887554e-13 0)
(3 3.494096712e-13 0)
(3 -4.410128675e-13 0)
(3 1.389742357e-10 0)
(3 1.196748635e-10 0)
(3.000000001 1.534045616e-09 0)
(3.000000001 1.29354874e-09 0)
(3.000000009 1.668298668e-08 0)
(3.000000014 2.809172233e-08 0)
(2.999999966 -4.127184008e-08 0)
(3.000000305 6.063718311e-07 0)
(2.999990517 -1.065243864e-05 0)
(2.999833316 -0.0002125288297 0)
(2.998706463 -0.001785813268 0)
(2.990534379 -0.01139048625 0)
(2.952768387 -0.05963930021 0)
(2.88804777 -0.1583814295 0)
(2.783803904 -0.3048908887 0)
(2.601514847 -0.5538771603 0)
(2.562795008 -0.630291806 0)
(2.530044355 -0.6917489044 0)
(2.425054063 -0.7806160556 0)
(2.375512723 -0.8712085597 0)
(2.352592751 -0.8590217816 0)
(2.355798487 -0.8460663437 0)
(2.367139485 -0.8371268352 0)
(2.366847154 -0.8359688326 0)
(2.370645349 -0.8340105836 0)
(2.374628427 -0.8325402266 0)
(2.375138472 -0.8319880998 0)
(2.374761325 -0.8308496659 0)
(2.373649106 -0.8301572224 0)
(2.372002601 -0.8319034504 0)
(2.369815623 -0.834477651 0)
(2.367882455 -0.8369118521 0)
(2.366886243 -0.8383741834 0)
(2.366729376 -0.8387439974 0)
(2.366899448 -0.8385996791 0)
(2.367460185 -0.8380186307 0)
(2.368225333 -0.8369225628 0)
(2.369244793 -0.8355052427 0)
(2.370210988 -0.8342944987 0)
(2.370661364 -0.8337068232 0)
(2.370682706 -0.8336071243 0)
(2.37055379 -0.8337572227 0)
(2.37020711 -0.834188429 0)
(2.369777338 -0.8347683462 0)
(2.369244449 -0.8355736728 0)
(2.368743089 -0.8362580087 0)
(2.368473255 -0.8367098825 0)
(2.3684261 -0.8367591654 0)
(2.368443857 -0.8367214033 0)
(2.368551148 -0.8363838351 0)
(3 4.289605647e-15 0)
(3 3.454913267e-15 0)
(3 2.414237279e-15 0)
(3 2.388093247e-15 0)
(3 2.275853104e-15 0)
(3 1.19232448e-15 0)
(3 1.09545607e-15 0)
(3 1.580643849e-15 0)
(3 2.348276922e-15 0)
(3 1.096997595e-15 0)
(3 1.157016654e-13 0)
(3 1.008835328e-13 0)
(3 2.081753734e-13 0)
(3 2.522979273e-11 0)
(3 5.534787932e-11 0)
(3 3.094375417e-10 0)
(3 8.427834395e-10 0)
(3.000000004 5.93253465e-09 0)
(3.000000003 1.343763793e-08 0)
(3.000000017 3.363882732e-08 0)
(2.999999925 -1.020025822e-07 0)
(3.000000262 7.143778939e-07 0)
(2.999981565 -2.204472427e-05 0)
(2.999757092 -0.0003115501068 0)
(2.9982039 -0.00244122152 0)
(2.987290597 -0.01503647571 0)
(2.944338903 -0.07107009637 0)
(2.87766671 -0.1746213175 0)
(2.76369533 -0.3290979192 0)
(2.592427549 -0.5703743441 0)
(2.565356203 -0.6306996417 0)
(2.519299365 -0.6965092015 0)
(2.418257755 -0.7917539304 0)
(2.374341325 -0.8734047394 0)
(2.35263677 -0.8580303015 0)
(2.357675466 -0.8442603151 0)
(2.369515102 -0.8360906796 0)
(2.368108681 -0.8355116908 0)
(2.371765503 -0.8337941852 0)
(2.375031884 -0.8326190776 0)
(2.375275931 -0.8322177456 0)
(2.374760974 -0.8310515178 0)
(2.373644753 -0.830459107 0)
(2.372006734 -0.8323772274 0)
(2.369847218 -0.8349508184 0)
(2.368066805 -0.8372128827 0)
(2.367194556 -0.8384863634 0)
(2.367049313 -0.8387371348 0)
(2.36718707 -0.83849295 0)
(2.367667458 -0.837835833 0)
(2.36842054 -0.8367076343 0)
(2.36951481 -0.8353033636 0)
(2.370531019 -0.8341572063 0)
(2.370952291 -0.8336436998 0)
(2.370933486 -0.8335748086 0)
(2.370725909 -0.8337456084 0)
(2.370243012 -0.8341753449 0)
(2.369660188 -0.834817847 0)
(2.368999176 -0.8356189395 0)
(2.368480494 -0.8363208556 0)
(2.36826338 -0.8366836932 0)
(2.368270234 -0.8367579492 0)
(2.368384587 -0.8366383178 0)
(2.368555535 -0.8363628424 0)
(2.368825935 -0.8358216241 0)
(2.369118366 -0.8354296381 0)
(2.369418191 -0.8349307972 0)
(3 2.021454146e-15 0)
(3 -8.336321826e-16 0)
(3 -1.492672671e-15 0)
(3 -5.939171976e-16 0)
(3 9.307731509e-16 0)
(3 2.481770437e-15 0)
(3 3.375490171e-15 0)
(3 -2.542466224e-14 0)
(3 1.066256825e-13 0)
(3 -1.057643556e-14 0)
(3 5.472087646e-11 0)
(3 6.334979228e-11 0)
(3.000000001 9.334373195e-10 0)
(3 7.471407432e-10 0)
(3.000000012 1.877071877e-08 0)
(3.000000009 1.89803348e-08 0)
(2.999999984 -6.633111433e-09 0)
(3.000000167 2.383022178e-08 0)
(3.000000046 7.457803878e-07 0)
(2.999961358 -4.787219157e-05 0)
(2.99960331 -0.0005125934194 0)
(2.997184848 -0.003749513605 0)
(2.981595975 -0.02168790106 0)
(2.931929151 -0.08864616954 0)
(2.862032822 -0.1982417095 0)
(2.733849515 -0.3644950692 0)
(2.579645201 -0.5915443524 0)
(2.566995028 -0.635526514 0)
(2.50526423 -0.7045581679 0)
(2.410809719 -0.8084949766 0)
(2.372938942 -0.8732322885 0)
(2.353357866 -0.8553281115 0)
(2.360235387 -0.8416525419 0)
(2.371113806 -0.835631595 0)
(2.36930117 -0.8350400998 0)
(2.373034511 -0.8333525897 0)
(2.375635519 -0.8325663391 0)
(2.375566229 -0.8324424375 0)
(2.374770807 -0.8315394895 0)