/*--------------------------------*- C++ -*----------------------------------*\
  =========                 |
  \\      /  F ield         | OpenFOAM: The Open Source CFD Toolbox
   \\    /   O peration     | Website:  https://openfoam.org
    \\  /    A nd           | Version:  7
     \\/     M anipulation  |
\*---------------------------------------------------------------------------*/
FoamFile
{
    version     2.0;
    format      ascii;
    class       volVectorField;
    location    "1";
    object      U;
}
// * * * * * * * * * * * * * * * * * * * * * * * * * * * * * * * * * * * * * //

dimensions      [0 1 -1 0 0 0 0];

internalField   nonuniform List<vector> 
2222
(
(3 -2.099445861e-15 0)
(3 -1.709033411e-15 0)
(3 -1.566019952e-15 0)
(3 -1.593083321e-15 0)
(3 -3.370831221e-15 0)
(3 -3.016165603e-15 0)
(3 -6.631132175e-15 0)
(3 -7.255302604e-15 0)
(3 -7.546711394e-15 0)
(3 -7.178156987e-15 0)
(3 -5.62448261e-15 0)
(3 -4.195905548e-15 0)
(3 -4.121347843e-15 0)
(3 -5.885427834e-15 0)
(3 -3.808207198e-15 0)
(3 1.112105866e-15 0)
(3 3.936164463e-15 0)
(3 5.287720301e-17 0)
(3 -3.939780489e-15 0)
(3 -4.424802375e-15 0)
(3 -3.688768167e-15 0)
(3 -2.644057535e-15 0)
(3 -1.019104436e-15 0)
(3 -6.432456031e-16 0)
(3 -2.265046637e-15 0)
(3 -2.562204486e-15 0)
(3 4.263230418e-16 0)
(3 3.367700838e-15 0)
(3 2.270956361e-15 0)
(3 3.646466795e-16 0)
(3 -2.242643084e-15 0)
(3 -3.010985036e-15 0)
(3 -5.653077307e-15 0)
(3 -5.823551646e-15 0)
(3 -4.13447198e-15 0)
(3 -1.03549674e-15 0)
(3 -1.192925546e-15 0)
(3 -3.596617651e-15 0)
(3 -5.34697806e-15 0)
(3 -4.408658267e-15 0)
(3 -6.006387121e-15 0)
(3 -9.843579963e-15 0)
(3 -1.012901834e-14 0)
(3 -8.598417685e-15 0)
(3 -6.16742772e-15 0)
(3 -1.781417284e-15 0)
(3 -1.711689077e-15 0)
(3 -4.00808376e-15 0)
(3 -5.517424833e-15 0)
(3 -1.777016567e-15 0)
(3 1.214010206e-15 0)
(3 -5.718394005e-18 0)
(3 -1.171453171e-14 0)
(3 -1.27531642e-14 0)
(3 -8.649327122e-15 0)
(3 -4.048660075e-15 0)
(3 -4.931815785e-16 0)
(3 -4.90428674e-16 0)
(3 -7.642780989e-16 0)
(3 -2.642968723e-15 0)
(3 -3.210413691e-15 0)
(3 -2.026503148e-15 0)
(3 -2.888257523e-15 0)
(3 -3.657352187e-15 0)
(3 -5.780975194e-15 0)
(3 -4.485796318e-15 0)
(3 -4.232241275e-15 0)
(3 -2.657671039e-15 0)
(3 -2.537418874e-15 0)
(3 -2.904896211e-15 0)
(3 -2.087385068e-15 0)
(3 -2.888145386e-15 0)
(3 -4.284410256e-15 0)
(3 -2.286992324e-15 0)
(3 -7.106085454e-15 0)
(3 -8.81892516e-15 0)
(3 -7.98441612e-15 0)
(3 -8.241961738e-15 0)
(3 -6.472482375e-15 0)
(3 -4.159091733e-15 0)
(3 -1.592385753e-15 0)
(3 -7.90209765e-16 0)
(3 -2.17856799e-15 0)
(3 -1.099500478e-15 0)
(3 -3.255320659e-16 0)
(3 1.036586869e-15 0)
(3 -9.734252261e-15 0)
(3 -8.673217154e-15 0)
(3 -6.225988405e-15 0)
(3 -4.159786657e-15 0)
(3 -3.367459941e-15 0)
(3 -2.67727731e-15 0)
(3 -2.026589977e-15 0)
(3 -2.49241629e-15 0)
(3 -3.408656984e-15 0)
(3 -2.824237587e-15 0)
(3 -2.5251398e-15 0)
(3 -1.808942538e-15 0)
(3 -8.777857761e-16 0)
(3 6.739863191e-16 0)
(3 9.933496586e-17 0)
(3 -1.810867866e-15 0)
(3 -3.254623202e-15 0)
(3 -4.873879635e-15 0)
(3 -4.70937785e-15 0)
(3 -5.270493617e-15 0)
(3 -4.429956597e-15 0)
(3 -6.519013332e-15 0)
(3 -6.927323982e-15 0)
(3 -6.404334525e-15 0)
(3 -5.703496423e-15 0)
(3 -4.135499242e-15 0)
(3 -1.38933974e-15 0)
(3 7.323084622e-16 0)
(3 2.33736226e-15 0)
(3 1.894229996e-16 0)
(3 -4.817311112e-16 0)
(3 -2.238010599e-15 0)
(3 2.596190783e-15 0)
(3 -4.95626195e-15 0)
(3 -5.39644833e-15 0)
(3 -4.15738245e-15 0)
(3 -3.220329718e-15 0)
(3 -2.108371988e-15 0)
(3 -3.07854005e-15 0)
(3 -6.012283833e-15 0)
(3 -4.866618047e-15 0)
(3 -4.379426117e-15 0)
(3 -1.249890948e-15 0)
(3 -2.6536822e-16 0)
(3 2.747800692e-15 0)
(3 2.58419312e-15 0)
(3 1.768734263e-15 0)
(3 3.168954635e-16 0)
(3 -2.196231714e-15 0)
(3 -3.207994374e-15 0)
(3 -2.939637536e-15 0)
(3 -4.426761939e-15 0)
(3 -4.812556559e-15 0)
(3 -7.500042988e-15 0)
(3 -6.234693558e-15 0)
(3 -4.642225173e-15 0)
(3 -3.228826005e-15 0)
(3 -1.833765175e-15 0)
(3 -7.727021231e-16 0)
(3 4.549160174e-16 0)
(3 1.867023891e-15 0)
(3 -2.530130526e-16 0)
(3 9.509804192e-16 0)
(3 4.429768999e-16 0)
(3 -6.551055222e-16 0)
(3 -2.357375449e-15 0)
(3 -6.093813872e-15 0)
(3 -4.659800179e-15 0)
(3 -3.196930168e-15 0)
(3 -5.041169231e-16 0)
(3 -1.230134251e-16 0)
(3 -3.092445081e-15 0)
(3 -5.192788904e-15 0)
(3 -5.761460179e-15 0)
(3 -4.516772651e-15 0)
(3 -1.530971501e-15 0)
(3 -6.817660879e-16 0)
(3 1.644493642e-15 0)
(3 2.513376432e-15 0)
(3 1.672334584e-15 0)
(3 -1.213329566e-16 0)
(3 -1.091128291e-15 0)
(3 -2.148830775e-15 0)
(3 -4.322681885e-15 0)
(3 -4.529785003e-15 0)
(3 -3.595896609e-15 0)
(3 -7.18605756e-15 0)
(3 -8.774032374e-15 0)
(3 -7.324067699e-15 0)
(3 -4.323503332e-15 0)
(3 -2.968280671e-15 0)
(3 -2.024448976e-16 0)
(3 6.002201364e-16 0)
(3 -1.225874395e-15 0)
(3 -2.715039468e-15 0)
(3 1.203134869e-17 0)
(3 -1.735267229e-15 0)
(3 -1.034814769e-15 0)
(3 -2.893159605e-15 0)
(3 -4.062394265e-15 0)
(3 -2.954198214e-15 0)
(3 -3.978448944e-15 0)
(3 -3.535286149e-15 0)
(3 -3.232255805e-15 0)
(3 -3.178124721e-15 0)
(3 -3.091863614e-15 0)
(3 -2.716941716e-15 0)
(3 1.958556029e-16 0)
(3 1.051819341e-15 0)
(3 1.828607997e-15 0)
(3 3.427725565e-15 0)
(3 2.220398173e-15 0)
(3 1.930224754e-15 0)
(3 5.989986204e-16 0)
(3 6.238323481e-16 0)
(3 -1.418421921e-15 0)
(3 -1.41435204e-15 0)
(3 -6.808800783e-16 0)
(3 -1.928785052e-15 0)
(3 -5.007607273e-15 0)
(3 -7.068783376e-15 0)
(3 -8.426075106e-15 0)
(3 -6.541884949e-15 0)
(3 -2.952747135e-15 0)
(3 -1.267324067e-15 0)
(3 -1.384855645e-15 0)
(3 -3.528194041e-15 0)
(3 -1.894606504e-15 0)
(3 -1.514302113e-15 0)
(3 -3.187260264e-15 0)
(3 -4.506221775e-15 0)
(3 -9.711861145e-17 0)
(3 -3.662253247e-15 0)
(3 -3.265523249e-15 0)
(3 -4.650506875e-15 0)
(3 -5.129261864e-15 0)
(3 -4.538438354e-15 0)
(3 -3.09408257e-15 0)
(3 -2.552168029e-15 0)
(3 -1.163101663e-15 0)
(3 -1.134877002e-16 0)
(3 4.718323659e-16 0)
(3 2.996743989e-15 0)
(3 4.165915497e-15 0)
(3 1.708681965e-15 0)
(3 7.281946815e-16 0)
(3 1.736812608e-16 0)
(3 1.394268339e-16 0)
(3 -1.448726128e-15 0)
(3 1.822581899e-15 0)
(3 1.563217909e-15 0)
(3 -1.925587218e-16 0)
(3 -1.494435495e-15 0)
(3 -2.237279809e-15 0)
(3 -6.731827804e-16 0)
(3 -1.210302591e-15 0)
(3 -1.267279208e-15 0)
(3 -3.054180054e-15 0)
(3 -4.105795384e-15 0)
(3 -5.281367587e-15 0)
(3 -2.891088218e-15 0)
(3 -7.75421802e-16 0)
(3 -2.327988409e-15 0)
(3 -4.810883821e-15 0)
(3 -1.111383647e-15 0)
(3 -6.699826004e-15 0)
(3 -8.145605903e-15 0)
(3 -7.810608515e-15 0)
(3 -7.569978893e-15 0)
(3 -6.521249202e-15 0)
(3 -4.481309815e-15 0)
(3 -1.306025721e-15 0)
(3 3.089423492e-16 0)
(3 1.163083109e-15 0)
(3 4.560325652e-16 0)
(3 1.66434832e-15 0)
(3 3.135564065e-15 0)
(3 3.845728466e-15 0)
(3 1.962077069e-15 0)
(3 1.361739437e-15 0)
(3 5.91560731e-16 0)
(3 -1.054305994e-15 0)
(3 -1.81147227e-15 0)
(3 -1.786909633e-15 0)
(3 -5.82844362e-16 0)
(3 1.997644994e-15 0)
(3 2.904182884e-15 0)
(3 3.398470307e-15 0)
(3 1.925849094e-15 0)
(3 1.7715464e-15 0)
(3 1.691241416e-15 0)
(3 -5.817154782e-16 0)
(3 -3.386091013e-15 0)
(3 -4.039351196e-15 0)
(3 -4.299343838e-15 0)
(3 -5.414690378e-15 0)
(3 -6.443632795e-15 0)
(3 -3.183559341e-15 0)
(3 -9.748284332e-15 0)
(3 -1.090652888e-14 0)
(3 -9.980533935e-15 0)
(3 -1.00045731e-14 0)
(3 -9.80339014e-15 0)
(3 -8.194448222e-15 0)
(3 -5.006961582e-15 0)
(3 -1.931324022e-15 0)
(3 1.995736263e-15 0)
(3 2.387568384e-15 0)
(3 2.372449549e-15 0)
(3 5.046817435e-15 0)
(3 6.990566051e-15 0)
(3 6.375521684e-15 0)
(3 4.692543611e-15 0)
(3 9.709353136e-16 0)
(3 -5.452537651e-16 0)
(3 -1.523645888e-15 0)
(3 -1.654567783e-15 0)
(3 1.949255249e-15 0)
(3 4.252021106e-15 0)
(3 9.014583959e-15 0)
(3 4.952060142e-15 0)
(3 1.521727759e-16 0)
(3 -1.788343921e-15 0)
(3 -9.820447023e-16 0)
(3 -3.508430265e-15 0)
(3 -5.951840336e-15 0)
(3 -5.465170997e-15 0)
(3 -7.619747301e-15 0)
(3 -9.481856069e-15 0)
(3 -8.161229923e-15 0)
(3 -1.381837056e-15 0)
(3 -8.309176255e-15 0)
(3 -8.785269129e-15 0)
(3 -7.585702053e-15 0)
(3 -7.300202066e-15 0)
(3 -6.106817383e-15 0)
(3 -4.854273644e-15 0)
(3 -3.054364468e-15 0)
(3 -2.610301511e-15 0)
(3 -2.052605548e-17 0)
(3 7.106183234e-16 0)
(3 4.723377211e-16 0)
(3 2.429760378e-15 0)
(3 5.206161556e-15 0)
(3 4.274159142e-15 0)
(3 3.326977959e-15 0)
(3 1.486056877e-15 0)
(3 1.228143686e-15 0)
(3 7.584877934e-16 0)
(3 1.469383558e-15 0)
(3 6.040426149e-15 0)
(3 1.046740027e-14 0)
(3 1.425287171e-14 0)
(3 1.043908324e-14 0)
(3 2.626349791e-15 0)
(3 1.624373342e-15 0)
(3 3.874176571e-16 0)
(3 -5.800037305e-15 0)
(3 -8.420231671e-15 0)
(3 -7.184475142e-15 0)
(3 -1.109889035e-14 0)
(3 -1.128939042e-14 0)
(3 -1.038598796e-14 0)
(3 -2.255911732e-16 0)
(3 -6.733172677e-15 0)
(3 -7.585151432e-15 0)
(3 -8.24496851e-15 0)
(3 -6.692568142e-15 0)
(3 -6.060059656e-15 0)
(3 -4.503041967e-15 0)
(3 -3.855047705e-15 0)
(3 -5.008582927e-15 0)
(3 -4.479000234e-15 0)
(3 -3.252126635e-15 0)
(3 -2.761921044e-15 0)
(3 -1.154854418e-15 0)
(3 -2.116647232e-16 0)
(3 1.584316303e-15 0)
(3 6.787993423e-16 0)
(3 1.985047551e-15 0)
(3 2.153613629e-15 0)
(3 1.071329121e-15 0)
(3 2.753933192e-15 0)
(3 7.824953142e-15 0)
(3 1.35396204e-14 0)
(3 1.405897579e-14 0)
(3 1.293802536e-14 0)
(3 7.850857719e-15 0)
(3 6.827752582e-15 0)
(3 4.494733166e-15 0)
(3 -2.309240092e-15 0)
(3 -7.868691565e-15 0)
(3 -7.850592618e-15 0)
(3 -7.554388698e-15 0)
(3 -6.657942665e-15 0)
(3 -5.794471855e-15 0)
(3 -4.654809235e-15 0)
(3 -7.125505736e-15 0)
(3 -7.388666701e-15 0)
(3 -8.530788361e-15 0)
(3 -8.058240935e-15 0)
(3 -7.21972595e-15 0)
(3 -6.772422769e-15 0)
(3 -7.298231567e-15 0)
(3 -6.917066787e-15 0)
(3 -5.369159572e-15 0)
(3 -5.40375923e-15 0)
(3 -3.044912043e-15 0)
(3 2.955769023e-16 0)
(3 1.494208329e-15 0)
(3 2.278550136e-15 0)
(3 2.44019447e-15 0)
(3 4.84798345e-15 0)
(3 4.667508834e-15 0)
(3 4.975994541e-15 0)
(3 5.137366573e-15 0)
(3 9.079635155e-15 0)
(3 1.50673131e-14 0)
(3 1.469126743e-14 0)
(3 1.055750517e-14 0)
(3 3.581682998e-15 0)
(3 -9.940532769e-16 0)
(3 -2.628545726e-15 0)
(3 -2.214243687e-15 0)
(3 -3.028543392e-15 0)
(3 -4.951980418e-15 0)
(3 -4.007051902e-15 0)
(3 -1.227973852e-15 0)
(3 2.207021127e-16 0)
(3 7.242558521e-16 0)
(3 -1.545438073e-15 0)
(3 -3.868820586e-15 0)
(3 -6.796795718e-15 0)
(3 -7.906433149e-15 0)
(3 -4.263842527e-15 0)
(3 -4.37063359e-15 0)
(3 -5.604248684e-15 0)
(3 -3.532223432e-15 0)
(3 -2.830309187e-15 0)
(3 -3.103854738e-15 0)
(3 -2.692192392e-15 0)
(3 -2.458205877e-15 0)
(3 -1.595640936e-15 0)
(3 -8.740296376e-17 0)
(3 4.967226119e-15 0)
(3 6.280411249e-15 0)
(3 6.719038305e-15 0)
(3 6.743817699e-15 0)
(3 8.220717189e-15 0)
(3 1.121645935e-14 0)
(3 1.417097311e-14 0)
(3 1.587562343e-14 0)
(3 1.588894086e-14 0)
(3 1.271123603e-14 0)
(3 6.906794178e-15 0)
(3 1.046747882e-15 0)
(3 -2.202422573e-15 0)
(3 -2.024059793e-15 0)
(3 -1.269019781e-15 0)
(3 -8.631605677e-16 0)
(3 -1.408305396e-15 0)
(3 5.35963556e-16 0)
(3 5.818273968e-16 0)
(3 3.272332181e-16 0)
(3 -1.195786421e-15 0)
(3 -3.140889349e-15 0)
(3 -5.555720927e-15 0)
(3 -7.872601679e-15 0)
(3 -6.64713437e-15 0)
(3 -4.181748139e-15 0)
(3 -3.163530647e-15 0)
(3 -3.398515121e-15 0)
(3 -1.962615076e-15 0)
(3 -2.002367278e-15 0)
(3 -4.058639738e-15 0)
(3 -7.802796128e-15 0)
(3 -4.03316789e-15 0)
(3 -2.383110237e-15 0)
(3 1.647538376e-15 0)
(3 6.178240349e-15 0)
(3 8.711786324e-15 0)
(3 8.911601393e-15 0)
(3 9.981708609e-15 0)
(3 1.026279322e-14 0)
(3 1.013305421e-14 0)
(3 1.140325008e-14 0)
(3 8.083347597e-15 0)
(3 6.560535171e-15 0)
(3 5.040403838e-15 0)
(3 2.296829181e-15 0)
(3 5.608380868e-16 0)
(3 2.802275787e-15 0)
(3 3.57327615e-15 0)
(3 1.09814217e-15 0)
(3 -2.473031457e-16 0)
(3 -5.921382971e-15 0)
(3 -1.875530913e-15 0)
(3 -8.964934803e-16 0)
(3 5.18497105e-16 0)
(3 -1.636929039e-15 0)
(3 -8.061412248e-15 0)
(3 -6.733430922e-15 0)
(3 -2.63574925e-15 0)
(3 -2.221728071e-15 0)
(3 -1.507444631e-15 0)
(3 -1.135323275e-15 0)
(3 -6.036594785e-15 0)
(3 -7.673238759e-15 0)
(3 -8.188853591e-15 0)
(3 -8.966108452e-15 0)
(3 -6.280658973e-15 0)
(3 -1.258968294e-15 0)
(3 2.96193076e-15 0)
(3 8.402111947e-15 0)
(3 8.230385634e-15 0)
(3 8.876137778e-15 0)
(3 9.299991722e-15 0)
(3 7.968587614e-15 0)
(3 4.780170342e-15 0)
(3 4.896006563e-15 0)
(3 6.010013945e-15 0)
(3 6.509622357e-15 0)
(3 6.352334701e-15 0)
(3 5.081482861e-15 0)
(3 5.060094752e-15 0)
(3 4.180737567e-15 0)
(3 1.095389761e-15 0)
(3 -3.830985651e-15 0)
(3 -9.424683623e-15 0)
(3 -7.136996688e-16 0)
(3 -8.420957258e-16 0)
(3 3.272833411e-15 0)
(3 2.488545074e-15 0)
(3 -1.448562959e-15 0)
(3 -1.927134857e-15 0)
(3 -2.620216531e-15 0)
(3 -1.91742198e-15 0)
(3 -1.42715076e-15 0)
(3 -3.832081919e-15 0)
(3 -8.387960763e-15 0)
(3 -9.237786013e-15 0)
(3 -7.418584655e-15 0)
(3 -7.241010105e-15 0)
(3 -5.597906385e-15 0)
(3 -2.192195608e-15 0)
(3 1.804682752e-15 0)
(3 4.37294437e-15 0)
(3 6.31068308e-15 0)
(3 7.493374502e-15 0)
(3 7.032431024e-15 0)
(3 4.809770835e-15 0)
(3 3.543953743e-15 0)
(3 4.789204072e-15 0)
(3 5.992120735e-15 0)
(3 3.427635811e-15 0)
(3 5.303162301e-15 0)
(3 6.007242051e-15 0)
(3 5.603412595e-15 0)
(3 2.352399974e-15 0)
(3 -1.356150295e-16 0)
(3 -4.350186668e-15 0)
(3 -9.64271802e-15 0)
(3 1.773083703e-15 0)
(3 1.711512228e-15 0)
(3 1.706634034e-15 0)
(3 8.605638237e-16 0)
(3 -1.032822855e-15 0)
(3 -1.832287872e-15 0)
(3 -4.544325205e-15 0)
(3 -4.147914879e-15 0)
(3 -3.120296321e-15 0)
(3 -6.332033656e-15 0)
(3 -7.627851375e-15 0)
(3 -8.471294928e-15 0)
(3 -7.340280987e-15 0)
(3 -5.622277582e-15 0)
(3 -4.097919126e-15 0)
(3 -3.76598819e-15 0)
(3 -1.170045436e-15 0)
(3 -3.09267331e-16 0)
(3 2.423627633e-15 0)
(3 4.823874905e-15 0)
(3 5.297708793e-15 0)
(3 4.98374029e-15 0)
(3 4.024895748e-15 0)
(3 4.147870307e-15 0)
(3 1.798259465e-15 0)
(3 1.047808342e-15 0)
(3 2.566244135e-15 0)
(3 4.724553632e-15 0)
(3 4.876784112e-15 0)
(3 3.124626983e-15 0)
(3 9.233710511e-16 0)
(3 -1.04896199e-15 0)
(3 -3.005342149e-15 0)
(3 7.131962727e-15 0)
(3 5.516299547e-15 0)
(3 3.682673726e-15 0)
(3 9.266312533e-16 0)
(3 3.034457664e-16 0)
(3 -7.957822459e-16 0)
(3 -2.208266551e-15 0)
(3 -3.752778709e-15 0)
(3 -6.004270127e-15 0)
(3 -7.145266853e-15 0)
(3 -8.327514214e-15 0)
(3 -9.598120272e-15 0)
(3 -9.117030633e-15 0)
(3 -7.496196247e-15 0)
(3 -3.539461957e-15 0)
(3 -3.087773674e-15 0)
(3 -2.997065786e-16 0)
(3 6.876238707e-16 0)
(3 2.00157449e-15 0)
(3 3.043506028e-15 0)
(3 4.831833914e-15 0)
(3 4.936793495e-15 0)
(3 3.844912475e-15 0)
(3 2.006607541e-15 0)
(3 1.433711575e-15 0)
(3 1.910127624e-15 0)
(3 4.183546379e-15 0)
(3 6.456008833e-15 0)
(3 6.12818705e-15 0)
(3 4.954970289e-15 0)
(3 8.912447425e-16 0)
(3 -2.655877632e-16 0)
(3 -1.730956091e-15 0)
(3 6.662543047e-15 0)
(3 7.953456579e-15 0)
(3 4.935542141e-15 0)
(3 4.456268719e-15 0)
(3 4.585312866e-15 0)
(3 2.834892838e-15 0)
(3 -1.390126055e-16 0)
(3 -5.307086111e-15 0)
(3 -8.701774272e-15 0)
(3 -8.774246948e-15 0)
(3 -7.665916817e-15 0)
(3 -8.45211528e-15 0)
(3 -8.16596859e-15 0)
(3 -7.148728428e-15 0)
(3 -5.915276542e-15 0)
(3 -2.968216771e-15 0)
(3 6.076393945e-16 0)
(3 2.540245652e-15 0)
(3 3.052324291e-15 0)
(3 3.45688898e-15 0)
(3 4.538568493e-15 0)
(3 4.040315264e-15 0)
(3 4.077074005e-15 0)
(3 3.774398486e-15 0)
(3 4.245436951e-15 0)
(3 5.10869336e-15 0)
(3 5.324731442e-15 0)
(3 4.680890458e-15 0)
(3 6.891958222e-15 0)
(3 4.950643297e-15 0)
(3 1.630705364e-15 0)
(3 -3.895148622e-15 0)
(3 -6.54793989e-15 0)
(3 6.877761749e-15 0)
(3 8.209655014e-15 0)
(3 4.25803199e-15 0)
(3 3.339525663e-15 0)
(3 3.516664061e-15 0)
(3 1.002125864e-15 0)
(3 -2.635860225e-16 0)
(3 -3.009012746e-15 0)
(3 -6.252822672e-15 0)
(3 -6.057700634e-15 0)
(3 -5.182093245e-15 0)
(3 -3.074395988e-15 0)
(3 -3.765195405e-15 0)
(3 -4.148822782e-15 0)
(3 -2.764534773e-15 0)
(3 -2.046987958e-15 0)
(3 -1.84440855e-16 0)
(3 2.195959143e-15 0)
(3 2.037258904e-15 0)
(3 2.164506312e-15 0)
(3 3.078393189e-15 0)
(3 3.868771129e-15 0)
(3 2.682574424e-15 0)
(3 2.419051845e-15 0)
(3 2.999476013e-15 0)
(3 4.365803674e-15 0)
(3 3.935024255e-15 0)
(3 2.907072513e-15 0)
(3 5.268807935e-15 0)
(3 1.529772625e-15 0)
(3 -1.300235566e-15 0)
(3 -6.426042499e-15 0)
(3 -1.135357487e-14 0)
(3 7.680204431e-15 0)
(3 7.828443106e-15 0)
(3 7.680392293e-15 0)
(3 7.065465169e-15 0)
(3 6.406580575e-15 0)
(3 3.774049135e-15 0)
(3 1.965095354e-16 0)
(3 -1.030188707e-15 0)
(3 -2.729121749e-15 0)
(3 -7.063937578e-15 0)
(3 -7.039181908e-15 0)
(3 -4.763808176e-15 0)
(3 -4.722916222e-15 0)
(3 -2.68698997e-15 0)
(3 6.454446297e-16 0)
(3 1.776026066e-15 0)
(3 1.266865346e-15 0)
(3 2.456722864e-15 0)
(3 2.00663844e-15 0)
(3 1.307717479e-15 0)
(3 -2.973626873e-16 0)
(3 8.783997865e-16 0)
(3 2.343815095e-16 0)
(3 -4.267732611e-18 0)
(3 5.807602047e-16 0)
(3 1.468740064e-15 0)
(3 1.805248763e-15 0)
(3 7.381806802e-16 0)
(3 -7.194338604e-16 0)
(3 -1.922131467e-15 0)
(3 -2.496136647e-15 0)
(3 -4.477751173e-15 0)
(3 -5.103342986e-15 0)
(3 6.265847955e-15 0)
(3 5.485323269e-15 0)
(3 4.769072853e-15 0)
(3 5.079034939e-15 0)
(3 5.630425575e-15 0)
(3 6.087734278e-15 0)
(3 4.102378176e-15 0)
(3 1.839012724e-15 0)
(3 -1.440950383e-15 0)
(3 -6.444243936e-15 0)
(3 -8.14083717e-15 0)
(3 -6.145850518e-15 0)
(3 -1.110522047e-15 0)
(3 -4.5233174e-16 0)
(3 -2.690645176e-16 0)
(3 2.883136792e-15 0)
(3 2.636034181e-15 0)
(3 2.780104017e-15 0)
(3 2.958034988e-15 0)
(3 1.527387666e-15 0)
(3 -1.762391189e-15 0)
(3 -2.563927257e-15 0)
(3 -1.07347764e-16 0)
(3 -4.878324898e-16 0)
(3 -9.726766436e-16 0)
(3 -2.927577e-17 0)
(3 1.595851262e-15 0)
(3 1.389475677e-15 0)
(3 -1.485867207e-15 0)
(3 -3.660362113e-15 0)
(3 -4.031586051e-15 0)
(3 -4.280315733e-15 0)
(3 -2.292876564e-15 0)
(3 6.234552659e-15 0)
(3 4.802728125e-15 0)
(3 4.179957346e-15 0)
(3 3.889758833e-15 0)
(3 3.666877984e-15 0)
(3 3.216436493e-15 0)
(3 2.882803085e-15 0)
(3 3.412289062e-15 0)
(3 -4.814714816e-17 0)
(3 -3.32176021e-15 0)
(3 -5.21850754e-15 0)
(3 -4.519131657e-15 0)
(3 -5.001244811e-16 0)
(3 -7.561524207e-16 0)
(3 -1.52612602e-15 0)
(3 -5.481074285e-17 0)
(3 1.052128715e-15 0)
(3 1.36503644e-15 0)
(3 5.79980381e-16 0)
(3 1.526843562e-17 0)
(3 -4.115969629e-16 0)
(3 -1.65562239e-15 0)
(3 -1.545927175e-15 0)
(3 -1.024133876e-15 0)
(3 -6.864995217e-16 0)
(3 -1.775786848e-15 0)
(3 -1.921243525e-15 0)
(3 -1.634077404e-15 0)
(3 -1.791143036e-15 0)
(3 -2.303074573e-15 0)
(3 -3.726477722e-15 0)
(3 -5.409824295e-15 0)
(3 -3.444733854e-15 0)
(3 7.925635622e-15 0)
(3 6.475101564e-15 0)
(3 5.558439371e-15 0)
(3 6.251013611e-15 0)
(3 4.942178858e-15 0)
(3 2.650509529e-15 0)
(3 2.272567516e-15 0)
(3 4.139967544e-15 0)
(3 2.422985901e-15 0)
(3 1.025574464e-15 0)
(3 -9.135946839e-16 0)
(3 1.189466958e-15 0)
(3 2.032034421e-15 0)
(3 1.801246592e-15 0)
(3 5.044492402e-16 0)
(3 -1.043442186e-15 0)
(3 -1.752028232e-15 0)
(3 -3.478289301e-15 0)
(3 -3.996864295e-15 0)
(3 -1.58075318e-15 0)
(3 -1.044578199e-15 0)
(3 -6.384771985e-16 0)
(3 -5.488107397e-16 0)
(3 -1.050626532e-15 0)
(3 -8.210616905e-16 0)
(3 -2.593292967e-15 0)
(3 -3.274895674e-15 0)
(3 -3.078426727e-15 0)
(3 -2.814870995e-15 0)
(3 -3.425475398e-15 0)
(3 -3.457914392e-15 0)
(3 -3.616841894e-15 0)
(3 -2.150229843e-15 0)
(3 7.207487915e-15 0)
(3 5.453537833e-15 0)
(3 5.009490686e-15 0)
(3 5.959159474e-15 0)
(3 7.118561028e-15 0)
(3 7.091145326e-15 0)
(3 5.83446519e-15 0)
(3 6.127951941e-15 0)
(3 7.150116818e-15 0)
(3 7.277223635e-15 0)
(3 2.723547956e-15 0)
(3 1.40465248e-15 0)
(3 1.295243453e-15 0)
(3 7.992440683e-16 0)
(3 2.002038418e-16 0)
(3 -3.947440815e-15 0)
(3 -6.473778627e-15 0)
(3 -4.845431418e-15 0)
(3 -3.576290706e-15 0)
(3 -2.366865262e-15 0)
(3 -1.243605843e-15 0)
(3 -1.061585947e-15 0)
(3 3.530103753e-16 0)
(3 -1.722327047e-15 0)
(3 -2.071123348e-15 0)
(3 -3.182120507e-15 0)
(3 -2.659261006e-15 0)
(3 -6.563860871e-16 0)
(3 -2.182669437e-15 0)
(3 -2.721420519e-15 0)
(3 -2.562720007e-15 0)
(3 -1.920399212e-15 0)
(3 1.529275355e-15 0)
(3 2.697147333e-15 0)
(3 5.540715366e-15 0)
(3 9.372324953e-15 0)
(3 9.212580889e-15 0)
(3 9.19723638e-15 0)
(3 8.843321008e-15 0)
(3 6.540537574e-15 0)
(3 5.43637537e-15 0)
(3 6.827704712e-15 0)
(3 7.747242338e-15 0)
(3 7.985129348e-15 0)
(3 7.219134558e-15 0)
(3 4.249844828e-15 0)
(3 2.250238971e-16 0)
(3 -2.244522345e-15 0)
(3 -4.935851049e-15 0)
(3 -7.524250987e-15 0)
(3 -6.992589833e-15 0)
(3 -3.832222352e-15 0)
(3 -3.094566534e-15 0)
(3 -2.563727981e-15 0)
(3 -3.137242198e-15 0)
(3 3.251033588e-16 0)
(3 -1.762439376e-15 0)
(3 -1.950517874e-15 0)
(3 -1.752872908e-15 0)
(3 -1.91728954e-15 0)
(3 -1.557212674e-15 0)
(3 -9.332456669e-16 0)
(3 -1.536764299e-15 0)
(3 -1.134334663e-15 0)
(3 -1.124843129e-15 0)
(3 -3.472241302e-16 0)
(3 -1.352966391e-15 0)
(3 4.463815026e-15 0)
(3 7.882688423e-15 0)
(3 7.798218031e-15 0)
(3 7.171995642e-15 0)
(3 6.587363038e-15 0)
(3 4.809437672e-15 0)
(3 4.847951448e-15 0)
(3 9.098063267e-15 0)
(3 1.074906994e-14 0)
(3 9.811206688e-15 0)
(3 8.806308132e-15 0)
(3 5.530390334e-15 0)
(3 3.058057203e-15 0)
(3 -4.35040745e-16 0)
(3 -3.011996945e-15 0)
(3 -5.73801258e-15 0)
(3 -7.762116606e-15 0)
(3 -8.081156775e-15 0)
(3 -7.806991233e-15 0)
(3 -6.121521751e-15 0)
(3 -6.242764933e-15 0)
(3 -4.464879065e-15 0)
(3 -3.697398666e-15 0)
(3 -3.182215273e-15 0)
(3 -2.308697815e-15 0)
(3 -2.298048925e-15 0)
(3 -3.41077691e-15 0)
(3 -2.482816527e-15 0)
(3 -2.689732239e-15 0)
(3 -1.419125754e-15 0)
(3 -1.316505834e-15 0)
(3 -9.234393007e-16 0)
(3 -1.204656357e-15 0)
(3 -3.163324006e-16 0)
(3 2.981040458e-15 0)
(3 3.899953611e-15 0)
(3 2.704144159e-15 0)
(3 3.291199817e-15 0)
(3 5.282579263e-15 0)
(3 8.616533242e-15 0)
(3 1.016928764e-14 0)
(3 1.04326751e-14 0)
(3 8.495950673e-15 0)
(3 5.113366341e-15 0)
(3 2.929274322e-15 0)
(3 1.641531296e-15 0)
(3 -9.149058776e-16 0)
(3 -3.105919958e-15 0)
(3 -3.587454379e-15 0)
(3 -4.545338384e-15 0)
(3 -7.415290881e-15 0)
(3 -8.194136712e-15 0)
(3 -7.674716522e-15 0)
(3 -8.190105899e-15 0)
(3 -9.100883129e-15 0)
(3 -6.605623382e-15 0)
(3 -4.701180435e-15 0)
(3 -3.111432227e-15 0)
(3 -2.651775776e-15 0)
(3 -3.927851016e-15 0)
(3 -4.44407086e-15 0)
(3 -4.477117402e-15 0)
(3 -4.546877475e-15 0)
(3 -4.257211823e-15 0)
(3 -8.831769253e-16 0)
(3 -5.699205475e-15 0)
(3 -4.984842058e-15 0)
(3 -3.451260663e-15 0)
(3 1.878820178e-16 0)
(3 2.568886189e-15 0)
(3 6.082506657e-15 0)
(3 8.837093373e-15 0)
(3 9.779996209e-15 0)
(3 7.9622678e-15 0)
(3 8.516759584e-15 0)
(3 8.299295676e-15 0)
(3 7.255529142e-15 0)
(3 5.684416716e-15 0)
(3 5.336033648e-15 0)
(3 2.311172203e-15 0)
(3 -2.436975167e-15 0)
(3 -1.610820101e-15 0)
(3 -2.076995929e-15 0)
(3 -2.491641007e-15 0)
(3 -3.078542376e-15 0)
(3 -3.734964206e-15 0)
(3 -4.75229422e-15 0)
(3 -6.396385852e-15 0)
(3 -6.639542809e-15 0)
(3 -4.956497736e-15 0)
(3 -3.301774157e-15 0)
(3 -3.146477129e-15 0)
(3 -4.69993637e-15 0)
(3 -7.057342745e-15 0)
(3 -8.228280001e-15 0)
(3 -7.234591529e-15 0)
(3 -5.854924977e-15 0)
(3 -2.866447013e-15 0)
(3 -7.582743627e-15 0)
(3 -7.280201133e-15 0)
(3 -3.885010283e-15 0)
(3 9.75495177e-16 0)
(3 7.025810193e-15 0)
(3 7.67871888e-15 0)
(3 7.356246277e-15 0)
(3 7.070958667e-15 0)
(3 6.988312908e-15 0)
(3 7.947402105e-15 0)
(3 5.707964686e-15 0)
(3 5.379814403e-15 0)
(3 5.372293886e-15 0)
(3 5.402680009e-15 0)
(3 2.751768622e-15 0)
(3 6.188810957e-16 0)
(3 4.436807767e-16 0)
(3 6.877842475e-16 0)
(3 1.381067237e-16 0)
(3 -3.813746425e-16 0)
(3 -3.299081929e-15 0)
(3 -5.468505865e-15 0)
(3 -7.591951091e-15 0)
(3 -6.933741347e-15 0)
(3 -3.490724679e-15 0)
(3 -3.051412914e-15 0)
(3 -5.397365334e-15 0)
(3 -6.581669344e-15 0)
(3 -7.898770286e-15 0)
(3 -6.63248063e-15 0)
(3 -6.50692434e-15 0)
(3 -6.895001561e-15 0)
(3 -7.292375099e-15 0)
(3 -7.009480965e-15 0)
(3 -5.417857542e-15 0)
(3 -1.669903163e-15 0)
(3 -5.323292585e-16 0)
(3 3.511219705e-15 0)
(3 3.586278442e-15 0)
(3 3.69365e-15 0)
(3 4.077823594e-15 0)
(3 6.361951699e-15 0)
(3 5.722975593e-15 0)
(3 2.958853903e-15 0)
(3 2.516357243e-15 0)
(3 3.094705021e-15 0)
(3 4.290542375e-15 0)
(3 6.855370598e-15 0)
(3 7.312589148e-15 0)
(3 6.49965739e-15 0)
(3 4.737301606e-15 0)
(3 1.661943986e-15 0)
(3 -2.23643425e-15 0)
(3 -7.014193133e-15 0)
(3 -8.520967232e-15 0)
(3 -9.109828184e-15 0)
(3 -9.197307072e-15 0)
(3 -4.631828588e-15 0)
(3 -3.11022196e-15 0)
(3 -5.325310204e-15 0)
(3 -8.259270282e-15 0)
(3 -6.73218718e-15 0)
(3 -5.187777959e-15 0)
(3 -3.994817007e-15 0)
(3 -5.567225061e-15 0)
(3 -4.839223254e-15 0)
(3 -3.833338099e-15 0)
(3 -2.276282551e-15 0)
(3 -2.279299241e-15 0)
(3 -3.843789173e-15 0)
(3 -1.552397339e-15 0)
(3 1.683070336e-15 0)
(3 2.693054029e-15 0)
(3 2.275919181e-15 0)
(3 2.635775658e-15 0)
(3 1.046300189e-15 0)
(3 1.086201634e-15 0)
(3 1.148755104e-15 0)
(3 4.011165417e-15 0)
(3 6.09787624e-15 0)
(3 7.247163004e-15 0)
(3 7.718129027e-15 0)
(3 7.420503667e-15 0)
(3 8.348001987e-15 0)
(3 5.27938234e-15 0)
(3 -7.847924059e-17 0)
(3 -4.111085547e-15 0)
(3 -6.921580073e-15 0)
(3 -7.232991753e-15 0)
(3 -8.249701624e-15 0)
(3 -7.644423208e-15 0)
(3 -8.022959242e-15 0)
(3 -1.041981492e-14 0)
(3 -1.218707411e-14 0)
(3 -1.064056032e-14 0)
(3 -8.733860636e-15 0)
(3 -7.214901063e-15 0)
(3 -3.194620518e-15 0)
(3 1.656941038e-15 0)
(3 -3.529764017e-15 0)
(3 -4.665054831e-15 0)
(3 -3.425826428e-15 0)
(3 -1.529047554e-15 0)
(3 1.057109145e-15 0)
(3 -2.604559778e-16 0)
(3 1.412299378e-15 0)
(3 9.716062012e-16 0)
(3 -2.882179621e-16 0)
(3 4.147149001e-16 0)
(3 -4.557319942e-16 0)
(3 1.496086088e-17 0)
(3 1.772811634e-15 0)
(3 3.265119626e-15 0)
(3 6.007764801e-15 0)
(3 9.602560686e-15 0)
(3 1.10062494e-14 0)
(3 1.281026559e-14 0)
(3 1.10894689e-14 0)
(3 6.187929831e-15 0)
(3 2.177491524e-15 0)
(3 -5.458645909e-15 0)
(3 -7.846555263e-15 0)
(3 -9.637150818e-15 0)
(3 -1.241701601e-14 0)
(3 -1.597909643e-14 0)
(3 -1.721202347e-14 0)
(3 -1.702666488e-14 0)
(3 -1.494755074e-14 0)
(3 -1.108288131e-14 0)
(3 -6.578380606e-15 0)
(3 -3.911578661e-15 0)
(3 -4.171189726e-16 0)
(3 -4.242128355e-15 0)
(3 -7.068844806e-15 0)
(3 -4.961407167e-15 0)
(3 -3.629749754e-15 0)
(3 -1.083666153e-15 0)
(3 -5.087735656e-15 0)
(3 -3.395112987e-15 0)
(3 -3.505329983e-15 0)
(3 -3.325473847e-15 0)
(3 -2.493489306e-15 0)
(3 -2.399434855e-15 0)
(3 -2.364781365e-15 0)
(3 -4.414148172e-16 0)
(3 2.921158104e-15 0)
(3 7.56865129e-15 0)
(3 1.413009686e-14 0)
(3 1.62834735e-14 0)
(3 1.579313528e-14 0)
(3 1.212516753e-14 0)
(3 1.018027177e-14 0)
(3 7.238986836e-15 0)
(3 -1.548279723e-15 0)
(3 -1.373993526e-14 0)
(3 -1.761153764e-14 0)
(3 -1.932204604e-14 0)
(3 -2.236384022e-14 0)
(3 -2.063311005e-14 0)
(3 -1.661806549e-14 0)
(3 -1.381019643e-14 0)
(3 -1.101888989e-14 0)
(3 -6.70851901e-15 0)
(3 -4.567856515e-15 0)
(3 1.805449409e-15 0)
(3 -7.498355957e-16 0)
(3 -4.735392143e-16 0)
(3 7.402846538e-16 0)
(3 2.837047051e-16 0)
(3 -7.651788314e-16 0)
(3 8.443271382e-16 0)
(3 6.079165458e-16 0)
(3 -7.101366304e-16 0)
(3 -1.450570368e-15 0)
(3 -2.86289416e-15 0)
(3 -2.73949122e-15 0)
(3 -1.642677142e-15 0)
(3 -2.695214474e-15 0)
(3 -4.579438326e-15 0)
(3 2.890318612e-15 0)
(3 4.002026997e-15 0)
(3 2.613963692e-15 0)
(3 4.368565031e-16 0)
(3 7.785208496e-16 0)
(3 1.958223893e-15 0)
(3 2.826107447e-15 0)
(3 6.654557134e-16 0)
(3 -2.143394319e-15 0)
(3 -3.554717532e-15 0)
(3 -3.138505407e-15 0)
(3 -4.766238968e-15 0)
(3 -5.084918837e-15 0)
(3 -5.196239817e-15 0)
(3 1.249282517e-15 0)
(3 9.54248726e-16 0)
(3 1.631841432e-15 0)
(3 2.090966755e-15 0)
(3 2.213267542e-15 0)
(3 1.928854793e-15 0)
(3 2.823083835e-15 0)
(3 2.692780752e-15 0)
(3 6.074364075e-16 0)
(3 -7.513350964e-16 0)
(3 2.482551272e-16 0)
(3 3.259972539e-15 0)
(3 6.970014449e-16 0)
(3 -4.06968337e-16 0)
(3 -1.623865391e-15 0)
(3 -2.315249336e-15 0)
(3 -3.768943417e-15 0)
(3 -5.513360262e-15 0)
(3 -1.72689006e-15 0)
(3 -5.207020693e-16 0)
(3 8.14685393e-16 0)
(3 2.37256085e-15 0)
(3 5.075836833e-15 0)
(3 6.764171728e-15 0)
(3 6.450319628e-15 0)
(3 5.919836151e-15 0)
(3 6.561313681e-15 0)
(3 5.955348522e-15 0)
(3 2.568373497e-15 0)
(3 2.695898241e-16 0)
(3 -3.352890303e-16 0)
(3 3.945544781e-16 0)
(3 -9.407293532e-16 0)
(3 -1.194326332e-15 0)
(3 -7.657890924e-16 0)
(3 -2.416734539e-15 0)
(3 -5.752053891e-15 0)
(3 -8.274961763e-15 0)
(3 -5.563287759e-15 0)
(3 -3.471619235e-15 0)
(3 -2.815492358e-15 0)
(3 -3.349002551e-15 0)
(3 -2.443090093e-15 0)
(3 -2.357796693e-15 0)
(3 2.021584881e-16 0)
(3 2.023986718e-15 0)
(3 1.987197285e-15 0)
(3 1.800029311e-15 0)
(3 1.931729155e-15 0)
(3 1.122941697e-15 0)
(3 1.125053624e-15 0)
(3 1.331907784e-16 0)
(3 5.37062721e-16 0)
(3 -1.099644397e-15 0)
(3 -4.028763976e-15 0)
(3 -5.52863153e-15 0)
(3 -5.609633375e-15 0)
(3 -5.974396728e-15 0)
(3 -7.186961766e-15 0)
(3 -6.203354226e-15 0)
(3 -6.784793606e-15 0)
(3 -7.381464403e-15 0)
(3 -6.560490484e-15 0)
(3 -6.151873186e-15 0)
(3 -6.129875178e-15 0)
(3 -5.563275811e-15 0)
(3 -3.338573843e-16 0)
(3 9.882210179e-17 0)
(3 9.455722065e-16 0)
(3 1.63049123e-15 0)
(3 2.988348314e-15 0)
(3 5.793122434e-15 0)
(3 6.702703733e-15 0)
(3 7.667260943e-15 0)
(3 8.432785129e-15 0)
(3 7.928554199e-15 0)
(3 7.149831264e-15 0)
(3 6.563945763e-15 0)
(3 4.542977007e-15 0)
(3 1.168389198e-15 0)
(3 -2.108414956e-15 0)
(3 -4.275361474e-15 0)
(3 -4.749230672e-15 0)
(3 -4.45307273e-15 0)
(3 -3.098396983e-15 0)
(3 -1.932429156e-15 0)
(3 -4.632364341e-16 0)
(3 -2.222830837e-15 0)
(3 -3.886525542e-15 0)
(3 -4.00840167e-15 0)
(3 -4.449410842e-15 0)
(3 -5.229466279e-15 0)
(3 -5.042754751e-15 0)
(3 -4.543446539e-15 0)
(3 -3.208086716e-15 0)
(3 -2.872441734e-15 0)
(3 -1.417606658e-15 0)
(3 1.155875959e-16 0)
(3 1.041521181e-15 0)
(3 2.560768597e-15 0)
(3 4.014177649e-15 0)
(3 5.381856413e-15 0)
(3 5.600977182e-15 0)
(3 6.425628402e-15 0)
(3 6.262763402e-15 0)
(3 5.575497688e-15 0)
(3 5.981006384e-15 0)
(3 8.384192195e-15 0)
(3 7.516268503e-15 0)
(3 4.693634239e-15 0)
(3 9.892786374e-16 0)
(3 -2.79935913e-15 0)
(3 -3.83018994e-15 0)
(3 -5.16665233e-15 0)
(3 -4.957562749e-15 0)
(3 -3.078602585e-15 0)
(3 -3.241565925e-15 0)
(3 -4.609797704e-15 0)
(3 -7.300118512e-15 0)
(3 -9.513811266e-15 0)
(3 -8.753502658e-15 0)
(3 -7.54028142e-15 0)
(3 -5.418981767e-15 0)
(3 -3.971403015e-15 0)
(3 -4.136130324e-15 0)
(3 -3.387310475e-15 0)
(3 1.186695377e-15 0)
(3 3.470810542e-15 0)
(3 4.08499487e-15 0)
(3 -2.009386476e-15 0)
(3 -2.471534749e-15 0)
(3 -5.153489714e-16 0)
(3 -9.188288927e-17 0)