/*--------------------------------*- C++ -*----------------------------------*\
  =========                 |
  \\      /  F ield         | OpenFOAM: The Open Source CFD Toolbox
   \\    /   O peration     | Website:  https://openfoam.org
    \\  /    A nd           | Version:  7
     \\/     M anipulation  |
\*---------------------------------------------------------------------------*/
FoamFile
{
    version     2.0;
    format      ascii;
    class       volScalarField;
    location    "1.5";
    object      p;
}
// * * * * * * * * * * * * * * * * * * * * * * * * * * * * * * * * * * * * * //

dimensions      [1 -1 -2 0 0 0 0];

internalField   nonuniform List<scalar> 
22
(
1
1.056061108
1.121144392
1.193503251
1.003224381
1.011799627
1.025840285
1.000020342
1.000155332
1.000663007
1
1
1
1
1
1
1
1
1
1
1
1
)
;

boundaryField
{
    inlet
    {
        type            fixedValue;
        value           nonuniform 0();
    }
    outlet
    {
        type            zeroGradient;
    }
    bottom
    {
        type            slip;
    }
    top
    {
        type            slip;
    }
    obstacle
    {
        type            zeroGradient;
    }
    defaultFaces
    {
        type            empty;
    }
    procBoundary19to13
    {
        type            processor;
        value           nonuniform List<scalar> 5(1 1 1 1 1.056061108);
    }
    procBoundary19to18
    {
        type            processor;
        value           nonuniform List<scalar> 3(1 1 1);
    }
    procBoundary19to20
    {
        type            processor;
        value           nonuniform List<scalar> 3(1.26173358 1.047881119 1.002091327);
    }
    procBoundary19to24
    {
        type            processor;
        value           uniform 1;
    }
    procBoundary19to25
    {
        type            processor;
        value           nonuniform List<scalar> 7(0.99999999 1.000000086 1.000001429 0.99999999 1 1 1);
    }
}


// ************************************************************************* //
