/*--------------------------------*- C++ -*----------------------------------*\
  =========                 |
  \\      /  F ield         | OpenFOAM: The Open Source CFD Toolbox
   \\    /   O peration     | Website:  https://openfoam.org
    \\  /    A nd           | Version:  7
     \\/     M anipulation  |
\*---------------------------------------------------------------------------*/
FoamFile
{
    version     2.0;
    format      ascii;
    class       volScalarField;
    location    "0.7";
    object      p;
}
// * * * * * * * * * * * * * * * * * * * * * * * * * * * * * * * * * * * * * //

dimensions      [1 -1 -2 0 0 0 0];

internalField   nonuniform List<scalar> 
2222
(
1
1
1
1
1
1
1
1
1
1
1
1
1
1
1
1
1
1
1
1
1
1
1
1
1
1
1
1
1
1
1
1
1
1
1
1
1
1
1
1
1
1
1
1
1
1
1
1
1
1
1
1
1
1
1
1
1
1
1
1
1
1
1
1
1
1
1
1
1
1
1
1
1
1
1
1
1
1
1
1
1
1
1
1
1
1
1
1
1
1
1
1
1
1
1
1
1
1
1
1
1
1
1
1
1
1
1
1
1
1
1
1
1
1
1
1
1
1
1
1
1
1
1
1
1
1
1
1
1
1
1
1
1
1
1
1
1
1
1
1
1
1
1
1
1
1
1
1
1
1
1
1
1
1
1
1
1
1
1
1
1
1
1
1
1
1
1
1
1
1
1
1
1
1
1
1
1
1
1
1
1
1
1
1
1
1
1
1
1
1
1
1
1
1
1
1
1
1
1
1
1
1
1
1
1
1
1
1
1
1
1
1
1
1
1
1
1
1
1
1
1
1
1
1
1
1
1
1
1
1
1
1
1
1
1
1
1
1
1
1
1
1
1
1
1
1
1
1
1
1
1
1
1.000000001
1
1
1
1
1
1
1
1
1
1
1
1
1
1
1
1
1
1
1
1
1
1
1
1
1
1
1
1
1
1
1
1
1
1
1
1.000000041
1
1
1
1
1
1
1
1
1
1
1
1
1
1
1
1
1
1
1
1
1
1
1
1
1
1
1
1
1
1
1
1
1
1
1.000000011
1.000001247
1
1
1
1
1
1
1
1
1
1
1
1
1
1
1
1
1
1
1
1
1
1
1
1
1
1
1
1
1
1
1
1
1
1.000000002
1.000000271
1.000019611
1
1
1
1
1
1
1
1
1
1
1
1
1
1
1
1
1
1
1
1
1
1
1
1
1
1
1
1
1
1
1
1
1
1.000000021
1.00000396
1.000218281
1
1
1
1
1
1
1
1
1
1
1
1
1
1
1
1
1
1
1
1
1
1
1
1
1
1
1
1
1
1
1
1
1.000000002
1.000000238
1.000048359
1.002129972
1
1
1
1
1
1
1
1
1
1
1
1
1
1
1
1
1
1
1
1
1
1
1
1
1
1
1
1
1
1
1
1
1.000000031
1.000003653
1.000649629
1.017766887
1
1
1
1
1
1
1
1
1
1
1
1
1
1
1
1
1
1
1
1
1
1
1
1
1
1
1
1
1
1
1
1.000000002
1.000001183
1.000092798
1.007650801
1.117346712
1
1
1
1
1
1
1
1
1
1
1
1
1
1
1
1
1
1
1
1
1
1
1
1
1
1
1
1
1
1
1.000000001
1.000000175
1.00003847
1.001959256
1.062167188
1.450768686
1
1
1
1
1
1
1
1
1
1
1
1
1
1
1
1
1
1
1
1
1
1
1
1
1
1
1
1
1
1
1.000000061
1.000005928
1.000648393
1.022054783
1.289603078
1.993073427
1
1
1
1
1
1
1
1
1
1
1
1
1
1
1
1
1
1
1
1
1
1
1
1
1
1
1
1
1
1.000000007
1.000001261
1.00009615
1.00585559
1.138290842
1.725347759
2.407083923
1
1
1
1
1
1
1
1
1
1
1
1
1
1
1
1
1
1
1
1
1
1
1
1
1
1
1
1
1.000000001
1.000000114
1.000014979
1.000984792
1.035361762
1.477506499
2.182330367
2.553511717
1
1
1
1
1
1
1
1
1
1
1
1
1
1
1
1
1
1
1
1
1
1
1
1
1
1
1
1
1.00000001
1.000001335
1.000151971
1.007468133
1.172324323
1.951322478
2.495550055
2.626544105
1
1
1
1
1
1
1
1
1
1
1
1
1
1
1
1
1
1
1
1
1
1
1
1
1
1
1
1.000000001
1.000000107
1.000018971
1.001619189
1.048303984
1.554667607
2.339891299
2.590741543
2.656168072
1
1
1
1
1
1
1
1
1
1
1
1
1
1
1
1
1
1
1
1
1
1
1
1
1
1
1
1.000000013
1.000002889
1.000389708
1.01624698
1.230999495
2.138069813
2.54839743
2.592531189
2.645095559
1
1
1
1
1
1
1
1
1
1
1
1
1
1
1
1
1
1
1
1
1
1
1
1
1
1
1.000000003
1.000000783
1.000093971
1.006475697
1.117616672
1.664380039
2.555139201
2.650766566
2.620925791
2.609524985
1
1
1
1
1
1
1
1
1
1
1
1
1
1
1
1
1
1
1
1
1
1
1
1
1
1.000000001
1.000000165
1.000024511
1.001702055
1.05969675
1.454407497
2.224393985
2.672067345
2.681635907
2.647107899
2.593745523
1
1
1
1
1
1
1
1
1
1
1
1
1
1
1
1
1
1
1
1
1
1
1
1
1
1.00000003
1.000004029
1.000367647
1.015793686
1.292733484
1.954214225
2.574492347
2.679637798
2.662250762
2.633418254
2.576969009
1
1
1
1
1
1
1
1
1
1
1
1
1
1
1
1
1
1
1
1
1
1
1
1
1.000000004
1.000000526
1.000053202
1.003255804
1.093097813
1.746564045
2.388202162
2.674949519
2.685227017
2.648665184
2.598902166
2.54720938
1
1
1
1
1
1
1
1
1
1
1
1
1
1
1
1
1
1
1
1
1
1
1
1
1.000000048
1.000005937
1.000545438
1.020657046
1.369401835
2.198346468
2.579215452
2.699759261
2.689333669
2.639238535
2.569752475
2.511359433
1
1
1
1
1
1
1
1
1
1
1
1
1
1
1
1
1
1
1
1
1
1
1
1.000000003
1.000000529
1.000067367
1.00486034
1.109731597
1.889420219
2.481417342
2.649956785
2.711228986
2.685166198
2.611819572
2.529263153
2.470474971
1
1
1
1
1
1
1
1
1
1
1
1
1
1
1
1
1
1
1
1
1
1
1
1.000000043
1.000009615
1.001010991
1.036571222
1.41437053
2.400119066
2.616727206
2.679205217
2.707370643
2.675232596
2.585392708
2.490575192
2.430415281
1
1
1
1
1
1
1
1
1
1
1
1
1
1
1
1
1
1
1
1
1
1
1.000000007
1.000001972
1.000259368
1.013561613
1.197949014
1.976648227
2.664494923
2.66793479
2.66537314
2.673960908
2.646677517
2.556997344
2.456205722
2.388802302
1
1
1
1
1
1
1
1
1
1
1
1
1
1
1
1
1
1
1
1
1
1.000000002
1.000000494
1.000068267
1.004563507
1.110324278
1.608283299
2.498027283
2.728076962
2.704505979
2.664726412
2.636300187
2.605703031
2.524567784
2.425198448
2.35044472
1
1
1
1
1
1
1
1
1
1
1
1
1
1
1
1
1
1
1
1
1.000000001
1.000000107
1.000013957
1.001097651
1.041001291
1.44692879
2.137642583
2.701671153
2.739915145
2.727672939
2.674573342
2.604756433
2.560749207
2.490041912
2.395154471
2.314221303
1
1
1
1
1
1
1
1
1
1
1
1
1
1
1
1
1
1
1
1
1.000000018
1.000002177
1.00018984
1.009090917
1.212700298
1.936438191
2.525691884
2.733785479
2.723151805
2.700829173
2.661706409
2.576367052
2.519655461
2.452467895
2.361080403
2.279058757
1
1
1
1
1
1
1
1
1
1
1
1
1
1
1
1
1
1
1
1.000000002
1.000000253
1.000024497
1.001666783
1.050699952
1.628893963
2.339076496
2.674572648
2.739730712
2.720381151
2.672875773
2.618335711
2.538358176
2.481246621
2.413428129
2.323838904
2.245821645
1
1
1
1
1
1
1
1
1
1
1
1
1
1
1
1
1
1
1
1.00000002
1.000002426
1.000234941
1.011192828
1.227507417
2.138565822
2.556058867
2.717721523
2.736736165
2.701153104
2.638286388
2.575545213
2.500877217
2.446346141
2.374984364
2.286794227
2.214637297
1
1
1
1
1
1
1
1
1
1
1
1
1
1
1
1
1
1
1.000000001
1.000000188
1.000026771
1.002413547
1.065226003
1.682479378
2.499901623
2.656171082
2.725398538
2.738362809
2.688392484
2.607345482
2.534097249
2.464370829
2.41186511
2.334455148
2.247255876
2.180243817
1
1
1
1
1
1
1
1
1
1
1
1
1
1
1
1
1
1
1.000000017
1.000004017
1.000500655
1.023117858
1.288545123
2.292396999
2.668242775
2.695474396
2.71264631
2.72303789
2.671215756
2.577407671
2.487597988
2.420631428
2.371451317
2.289753375
2.207472463
2.146795134
1
1
1
1
1
1
1
1
1
1
1
1
1
1
1
1
1
1.000000003
1.000000894
1.000130803
1.008563545
1.15547887
1.786144412
2.675302644
2.733463683
2.704189153
2.685217298
2.685875148
2.641809572
2.547729358
2.447181147
2.380662141
2.329406281
2.245681229
2.170355124
2.112505021
1
1
1
1
1
1
1
1
1
1
1
1
1
1
1
1
1.000000001
1.000000213
1.000032176
1.002478164
1.080110837
1.547656191
2.373612581
2.77093509
2.76805145
2.729352951
2.678006324
2.650131306
2.608956339
2.519689585
2.411621502
2.340657881
2.283608494
2.19935557
2.132269441
2.077610085
1
1
1
1
1
1
1
1
1
1
1
1
1
1
1
1
1.000000039
1.000006187
1.000533767
1.023129678
1.372896455
2.067100782
2.684564292
2.779312046
2.764477105
2.742546421
2.678366444
2.617528802
2.572861752
2.486837711
2.3759499
2.302265444
2.2378709
2.154413612
2.093991158
2.041208178
1
1
1
1
1
1
1
1
1
1
1
1
1
1
1
1.000000006
1.000000866
1.00008702
1.004738107
1.130234707
1.872042842
2.479545332
2.762123581
2.780995425
2.755990715
2.729229527
2.66771706
2.585762266
2.534128128
2.446926812
2.338277572
2.265236453
2.193735984
2.11182241
2.05526618
2.003508793
1
1
1
1
1
1
1
1
1
1
1
1
1
1
1.000000001
1.000000095
1.000010163
1.000819197
1.027919488
1.463670801
2.300476502
2.665898958
2.784841971
2.77324835
2.73608075
2.693620812
2.627589196
2.549732199
2.495899425
2.403455998
2.298266163
2.227051186
2.149213491
2.069200098
2.015228366
1.964425414
1
1
1
1
1
1
1
1
1
1
1
1
1
1
1.000000006
1.000001035
1.000096667
1.006040458
1.13399632
2.00106455
2.54997353
2.729486131
2.791271762
2.771426607
2.718803809
2.661502541
2.5877894
2.514022089
2.456610303
2.358120236
2.259413922
2.189722982
2.106197976
2.027611621
1.974788646
1.923733015
1
1
1
1
1
1
1
1
1
1
1
1
1
1
1.000000066
1.000012091
1.001078301
1.038708568
1.464144214
2.470401076
2.67848202
2.757924752
2.79289925
2.773297875
2.707254894
2.630479691
2.545214996
2.475456471
2.412634635
2.308872986
2.219108576
2.151135348
2.063973653
1.987821426
1.937045046
1.884877689
1
1
1
1
1
1
1
1
1
1
1
1
1
1.000000006
1.000001608
1.000226416
1.012583976
1.196420394
2.049338646
2.716919466
2.731120752
2.742798625
2.766029661
2.76052118
2.691356682
2.597321754
2.503005731
2.436164678
2.366602819
2.261163637
2.180527473
2.112489527
2.020653602
1.946399199
1.898056903
1.844343565
1
1
1
1
1
1
1
1
1
1
1
1
1.000000001
1.000000281
1.00005494
1.004186336
1.104265345
1.608659942
2.576214508
2.806746988
2.778347386
2.751533934
2.742061335
2.730603286
2.663904316
2.561581497
2.45916687
2.391252659
2.316827847
2.216095866
2.142476443
2.07261482
1.975590632
1.90474843
1.860152869
1.804653513
1
1
1
1
1
1
1
1
1
1
1
1
1.00000005
1.000010823
1.001124567
1.043408475
1.443217132
2.183044676
2.789488913
2.811188391
2.789016206
2.747622842
2.716088616
2.694629498
2.631186967
2.520832433
2.414530461
2.34477572
2.265367719
2.169771868
2.100705936
2.029125773
1.929134923
1.8645731
1.824429958
1.766062186
1
1
1
1
1
1
1
1
1
1
1
1.000000006
1.000001758
1.000206628
1.011389911
1.242751784
1.963648644
2.59976141
2.817152272
2.803631411
2.789419416
2.748300081
2.695018122
2.658480406
2.59264468
2.479697752
2.376371821
2.303378837
2.217306751
2.126653058
2.060461271
1.986361178
1.884170996
1.826954743
1.788650898
1.724639643
1
1
1
1
1
1
1
1
1
1
1.000000001
1.000000204
1.000032149
1.002223798
1.069376007
1.712966362
2.392381116
2.758928099
2.821744632
2.806637749
2.777554789
2.732199905
2.666743382
2.618380033
2.549108663
2.439572721
2.341371444
2.260136065
2.164478141
2.079678602
2.017230386
1.940649867
1.840478807
1.791486145
1.752364384
1.681881183
1
1
1
1
1
1
1
1
1
1
1.000000021
1.000003635
1.000396549
1.015766401
1.293773094
2.236393853
2.623632678
2.795950046
2.810984884
2.783976868
2.748576203
2.700173227
2.63534008
2.581391707
2.506807431
2.397352379
2.299650385
2.20992367
2.110956215
2.03715035
1.976752353
1.894368274
1.797983113
1.755958639
1.713836304
1.639043787
1
1
1
1
1
1
1
1
1
1.000000002
1.000000437
1.000049538
1.003732005
1.084331084
1.799328426
2.557235459
2.733829065
2.810722618
2.813649446
2.777845597
2.732189396
2.682182639
2.61043781
2.544179013
2.457358954
2.348473136
2.254887653
2.160508074
2.063940548
1.997303968
1.933254687
1.842922786
1.756841896
1.721402219
1.674642952
1.598107258
1
1
1
1
1
1
1
1
1
1.000000033
1.000007126
1.000640081
1.027456896
1.328344678
2.376793279
2.693178171
2.770274284
2.818633015
2.821027882
2.778324175
2.714396621
2.643842233
2.569943115
2.496722642
2.402533687
2.300372468
2.209525052
2.107897227
2.014888471
1.955359336
1.887097611
1.790834885
1.719889322
1.687538339
1.634492549
1.558392272
1
1
1
1
1
1
1
1
1.000000003
1.000000732
1.000114831
1.007430598
1.150729832
1.823366191
2.721089137
2.785284434
2.788354187
2.79197907
2.800922862
2.769505991
2.697032769
2.612218438
2.530918539
2.447357469
2.348785077
2.255304377
2.163676959
2.054622325
1.969699864
1.914846451
1.840928801
1.744483223
1.68861186
1.653875848
1.592224865
1.518839064
1
1
1
1
1
1
1
1
1.000000093
1.000018967
1.001753039
1.064223491
1.505105657
2.396004323
2.824111791
2.824840135
2.805433845
2.779819837
2.777645869
2.750470062
2.673928717
2.57946253
2.48880929
2.393972867
2.295189817
2.209917941
2.114399232
1.999745303
1.925194764
1.872941013
1.79385403
1.703040072
1.655124539
1.614909146
1.545812951
1.480248351
1
1
1
1
1
1
1
1.00000001
1.000002986
1.000416788
1.0196009
1.326232687
2.020522453
2.728731318
2.840551261
2.837875049
2.820824727
2.784101622
2.759439186
2.718170324
2.635314432
2.5359492
2.440113874
2.337885688
2.2431862
2.1628949
2.06062707
1.946293714
1.883987059
1.831744723
1.746818495
1.661699584
1.618001954
1.573427304
1.501450478
1.445962136
1
1
1
1
1
1
1.000000002
1.000000466
1.000071736
1.005564492
1.137736965
1.838730513
2.484652037
2.829488507
2.834081681
2.821350097
2.807674658
2.774109999
2.741752322
2.686352881
2.591374161
2.489202949
2.389917605
2.282936884
2.193613231
2.114925264
2.005225584
1.895924031
1.841522954
1.786572087
1.697268057
1.620699447
1.580188141
1.532622082
1.461330074
1.413991851
1
1
1
1
1
1
1.000000066
1.000011987
1.001085779
1.042609202
1.538106918
2.305523194
2.695743336
2.832395757
2.827659061
2.813405037
2.796887175
2.7592301
2.71749661
2.648527253
2.545432414
2.444339999
2.340170595
2.228894189
2.144349513
2.065278912
1.94945613
1.847926782
1.798845854
1.741050077
1.649612044
1.581479854
1.543235322
1.493344101
1.4235885
1.38144667
1
1
1
1
1
1.000000005
1.000001493
1.000190468
1.010438214
1.203947596
2.139716554
2.577251237
2.756789183
2.820318538
2.816589901
2.80718818
2.784987848
2.737845135
2.683590223
2.603357494
2.498688306
2.401211574
2.289769256
2.17416166
2.093562681
2.013563791
1.894506738
1.80222353
1.755760754
1.694721944
1.604058059
1.544724623
1.507781748
1.454817316
1.385500133
1.347085741
1
1
1
1
1
1.000000133
1.000025236
1.002221536
1.066228413
1.635868712
2.542968648
2.709152207
2.767483565
2.803521646
2.80504367
2.793464412
2.765949787
2.712745211
2.649564029
2.557043957
2.449958599
2.352309617
2.232488067
2.11736628
2.041946231
1.960983774
1.840334
1.756690882
1.712004897
1.64876906
1.560923056
1.507625554
1.470331919
1.413723084
1.345693333
1.312061484
1
1
1
1
1.000000011
1.000003159
1.000360948
1.019293573
1.279002026
2.243327626
2.695175681
2.780598786
2.799277973
2.810016323
2.794597131
2.774390034
2.73928278
2.685217533
2.61604959
2.509932151
2.397327012
2.296664241
2.171099625
2.060840846
1.990461534
1.908048297
1.787129642
1.710963669
1.667070385
1.601679279
1.517173549
1.468717196
1.431280803
1.372248439
1.307555277
1.278511967
1.252651743
1
1
1
1.000000001
1.000000347
1.000065574
1.004267798
1.115549307
1.753607105
2.644864768
2.748493717
2.792766615
2.816712843
2.817620593
2.792885256
2.758722407
2.711747029
2.651583078
2.573135413
2.45611642
2.34161936
2.239219767
2.11192719
2.007740386
1.939741576
1.85456696
1.733838436
1.664202705
1.620915961
1.554063574
1.473466846
1.429059406
1.39169103
1.331797235
1.271730571
1.246311798
1.221036493
1
1
1
1.000000053
1.000009344
1.001058835
1.037849446
1.416158408
2.347869562
2.795156201
2.788251227
2.790162856
2.800839541
2.809375775
2.792815435
2.751361893
2.686718537
2.611099754
2.51915735
2.394459314
2.283568463
2.183003199
2.056705142
1.955310716
1.886018681
1.798031338
1.68182221
1.618518412
1.575180049
1.50688092
1.430832225
1.390284525
1.353320202
1.292687988
1.236445959
1.213571721
1.188584559
1
1
1.000000003
1.000001871
1.000185978
1.011493119
1.215436839
1.907251753
2.706102624
2.847431424
2.832597041
2.796562784
2.783185979
2.787024368
2.781180929
2.737879729
2.656845947
2.565524933
2.459801425
2.330729314
2.225782287
2.127295504
)
;

boundaryField
{
    inlet
    {
        type            fixedValue;
        value           nonuniform 0();
    }
    outlet
    {
        type            zeroGradient;
    }
    bottom
    {
        type            slip;
    }
    top
    {
        type            slip;
    }
    obstacle
    {
        type            zeroGradient;
    }
    defaultFaces
    {
        type            empty;
    }
    procBoundary3to2
    {
        type            processor;
        value           nonuniform List<scalar> 
36
(
1
1
1
1
1
1
1
1
1
1
1
1
1
1
1
1
1
1
1
1
1
1
1
1
1
1
1
1
1
1
1
1
1
1
1
1
)
;
    }
    procBoundary3to4
    {
        type            processor;
        value           nonuniform List<scalar> 
62
(
1
1
1
1
1
1.000000003
1.000000181
1.000008193
1.000179269
1.002072838
1.014738817
1.078077449
1.310932779
1.776275733
2.299661502
2.573201144
2.649558839
2.648888331
2.627280739
2.633219507
2.627791426
2.596852865
2.552524572
2.513734496
2.476565359
2.441966526
2.408576802
2.373354148
2.33223282
2.290182854
2.249596919
2.210968788
2.175278975
2.140262324
2.102720402
2.06792312
2.029924123
1.993333009
1.955278703
1.91795775
1.880318534
1.841442969
1.802700263
1.761515735
1.720611527
1.68083313
1.642225407
1.606901423
1.574714963
1.543519434
1.511532057
1.478796741
1.447044068
1.416553251
1.385488205
1.35275554
1.318460077
1.284920841
1.284920841
1.207766549
1.174776582
1.140679174
)
;
    }
    procBoundary3to8
    {
        type            processor;
        value           nonuniform List<scalar> 
27
(
1
1
1
1
1
1
1
1
1
1
1
1
1
1
1
1
1
1
1
1
1
1
1
1
1
1
1
)
;
    }
    procBoundary3to9
    {
        type            processor;
        value           nonuniform List<scalar> 
38
(
2.00040449
1.90030351
1.829710657
1.741351502
1.632227198
1.573511695
1.529365725
1.460490655
1.389843062
1.352390179
1.315265185
1.253460857
1.201161494
1.180724837
1.155952023
1
1
1.000000085
1.000040323
1.002413361
1.083626541
1.642840339
2.413486289
2.819608385
2.852289915
2.839989643
2.801977382
2.783974012
2.780969054
2.767833639
2.711040637
2.614387467
2.513351183
2.399114595
2.268170418
2.165717976
2.00040449
2.066956842
)
;
    }
}


// ************************************************************************* //
