/*--------------------------------*- C++ -*----------------------------------*\
  =========                 |
  \\      /  F ield         | OpenFOAM: The Open Source CFD Toolbox
   \\    /   O peration     | Website:  https://openfoam.org
    \\  /    A nd           | Version:  7
     \\/     M anipulation  |
\*---------------------------------------------------------------------------*/
FoamFile
{
    version     2.0;
    format      ascii;
    class       volScalarField;
    location    "0.5";
    object      p;
}
// * * * * * * * * * * * * * * * * * * * * * * * * * * * * * * * * * * * * * //

dimensions      [1 -1 -2 0 0 0 0];

internalField   nonuniform List<scalar> 
23
(
0.9999999989
0.999999999
0.999999998
0.9999999984
0.9999999993
1
0.9999999999
0.9999999997
0.9999999996
0.9999999994
0.9999999994
1
1
1
1
0.9999999999
0.9999999999
1
1
1
1
1
1
)
;

boundaryField
{
    inlet
    {
        type            fixedValue;
        value           nonuniform 0();
    }
    outlet
    {
        type            zeroGradient;
    }
    bottom
    {
        type            slip;
    }
    top
    {
        type            slip;
    }
    obstacle
    {
        type            zeroGradient;
    }
    defaultFaces
    {
        type            empty;
    }
    procBoundary32to26
    {
        type            processor;
        value           nonuniform List<scalar> 7(0.9999999977 1.000000001 0.9999999945 1.000000637 1.000000199 0.9999999994 0.9999999994);
    }
    procBoundary32to31
    {
        type            processor;
        value           nonuniform List<scalar> 3(1 1 1);
    }
    procBoundary32to33
    {
        type            processor;
        value           nonuniform List<scalar> 4(1.000028872 1.000000427 1.000000003 1);
    }
}


// ************************************************************************* //
