/*--------------------------------*- C++ -*----------------------------------*\
  =========                 |
  \\      /  F ield         | OpenFOAM: The Open Source CFD Toolbox
   \\    /   O peration     | Website:  https://openfoam.org
    \\  /    A nd           | Version:  7
     \\/     M anipulation  |
\*---------------------------------------------------------------------------*/
FoamFile
{
    version     2.0;
    format      ascii;
    class       volVectorField;
    location    "0.8";
    object      U;
}
// * * * * * * * * * * * * * * * * * * * * * * * * * * * * * * * * * * * * * //

dimensions      [0 1 -1 0 0 0 0];

internalField   nonuniform List<vector> 
2222
(
(3 6.745922387e-16 0)
(3 5.657080596e-16 0)
(3 5.283593246e-16 0)
(3 -1.073499148e-15 0)
(3 -3.563597695e-15 0)
(3 -2.46122037e-15 0)
(3 -1.597666757e-15 0)
(3 -1.547151787e-15 0)
(3 -1.869109328e-15 0)
(3 -1.858322353e-15 0)
(3 -2.42893878e-15 0)
(3 -1.515890575e-15 0)
(3 -5.234109501e-16 0)
(3 2.164692353e-16 0)
(3 8.846201122e-16 0)
(3 1.617645728e-15 0)
(3 2.81449541e-15 0)
(3 4.865177023e-15 0)
(3 4.547713522e-15 0)
(3 4.159778772e-15 0)
(3 4.525524666e-15 0)
(3 2.103473964e-15 0)
(3 -1.753825913e-15 0)
(3 -3.699189265e-15 0)
(3 -4.030253982e-15 0)
(3 -1.82421754e-15 0)
(3 3.665939515e-15 0)
(3 6.340709651e-15 0)
(3 5.424192657e-15 0)
(3 5.652875238e-15 0)
(3 5.235885653e-15 0)
(3 5.015599984e-15 0)
(3 3.025110468e-15 0)
(3 2.297264209e-15 0)
(3 -9.698578319e-17 0)
(3 -1.312380632e-15 0)
(3 -1.494980099e-15 0)
(3 -1.97123913e-15 0)
(3 -3.954595151e-15 0)
(3 -3.074590777e-15 0)
(3 -2.253432449e-15 0)
(3 -1.388771956e-15 0)
(3 -1.197909898e-15 0)
(3 -9.216784392e-16 0)
(3 -9.51825009e-16 0)
(3 -2.302462051e-16 0)
(3 1.885440345e-16 0)
(3 1.661500608e-16 0)
(3 1.791679288e-16 0)
(3 -1.088238953e-15 0)
(3 -1.64922148e-15 0)
(3 -8.615408563e-16 0)
(3 -1.278227413e-15 0)
(3 -2.645544523e-15 0)
(3 -3.073233037e-15 0)
(3 -3.950128644e-15 0)
(3 -2.48717595e-15 0)
(3 -1.378789873e-15 0)
(3 -3.713583946e-16 0)
(3 3.141491555e-16 0)
(3 3.814177666e-18 0)
(3 -9.476862187e-16 0)
(3 -7.85178616e-16 0)
(3 -5.054766123e-16 0)
(3 -1.131737388e-15 0)
(3 -1.584388273e-15 0)
(3 -1.083134687e-15 0)
(3 2.950816918e-16 0)
(3 -5.68191143e-16 0)
(3 -1.552425207e-15 0)
(3 -2.197341903e-15 0)
(3 -2.586606929e-15 0)
(3 -7.693531907e-16 0)
(3 -6.753659408e-16 0)
(3 -1.792827457e-15 0)
(3 -2.395009386e-15 0)
(3 -3.546980807e-15 0)
(3 -3.856570907e-15 0)
(3 -4.02511724e-15 0)
(3 -3.964496827e-15 0)
(3 -7.805639879e-16 0)
(3 -7.52607745e-16 0)
(3 2.537931373e-16 0)
(3 1.445087247e-15 0)
(3 1.201280109e-15 0)
(3 1.380994249e-15 0)
(3 1.535624349e-15 0)
(3 1.471888104e-15 0)
(3 -2.767980237e-15 0)
(3 -3.023131346e-15 0)
(3 -4.061039641e-15 0)
(3 -2.747138501e-15 0)
(3 -2.304891758e-15 0)
(3 -4.729010868e-16 0)
(3 3.296255431e-15 0)
(3 5.36237688e-15 0)
(3 5.721018885e-15 0)
(3 4.357253273e-15 0)
(3 4.927326712e-15 0)
(3 2.811285471e-15 0)
(3 1.504728961e-15 0)
(3 -1.08372982e-16 0)
(3 -1.11376437e-15 0)
(3 -9.197645783e-16 0)
(3 -1.436978088e-15 0)
(3 -1.801788233e-15 0)
(3 -3.181408052e-15 0)
(3 -1.591334895e-15 0)
(3 9.629271932e-16 0)
(3 1.31107652e-15 0)
(3 -2.838530322e-16 0)
(3 -1.660874141e-15 0)
(3 -2.562057684e-15 0)
(3 -2.239889472e-15 0)
(3 -2.467121743e-15 0)
(3 -2.859299382e-15 0)
(3 -2.871061785e-15 0)
(3 -1.974394861e-15 0)
(3 -2.119189454e-15 0)
(3 -2.899094933e-15 0)
(3 -3.100592653e-15 0)
(3 -3.083136811e-15 0)
(3 -3.048431693e-15 0)
(3 -1.99590802e-15 0)
(3 -2.141959323e-16 0)
(3 2.334545579e-16 0)
(3 -5.034873281e-16 0)
(3 -1.406722856e-15 0)
(3 -1.492293006e-15 0)
(3 -8.774404673e-16 0)
(3 -1.532576344e-15 0)
(3 -4.842474235e-16 0)
(3 -3.788499658e-17 0)
(3 8.320160759e-16 0)
(3 1.064885586e-15 0)
(3 8.068493175e-16 0)
(3 -2.785464657e-15 0)
(3 -2.488323776e-15 0)
(3 -2.743984053e-15 0)
(3 -3.014515898e-15 0)
(3 -3.161367696e-15 0)
(3 -3.075085732e-15 0)
(3 -3.326001496e-15 0)
(3 -4.471594142e-15 0)
(3 -3.596638446e-15 0)
(3 -2.860755825e-15 0)
(3 -2.354515075e-15 0)
(3 -6.033436912e-17 0)
(3 7.319054635e-16 0)
(3 1.319776758e-15 0)
(3 7.915179109e-16 0)
(3 5.697382961e-17 0)
(3 1.192803749e-16 0)
(3 4.886600391e-16 0)
(3 -1.008774489e-15 0)
(3 -2.259575074e-15 0)
(3 -1.439395699e-15 0)
(3 -1.39533109e-15 0)
(3 4.529874605e-16 0)
(3 7.881984509e-17 0)
(3 1.015004723e-15 0)
(3 2.198298582e-15 0)
(3 4.477025692e-15 0)
(3 4.11144027e-15 0)
(3 5.776273746e-16 0)
(3 3.909985642e-16 0)
(3 -5.735203683e-16 0)
(3 -3.828581498e-16 0)
(3 4.368801847e-16 0)
(3 -1.047714834e-16 0)
(3 2.738236339e-16 0)
(3 8.227800077e-17 0)
(3 8.426706965e-17 0)
(3 -1.466646354e-15 0)
(3 -2.025445644e-15 0)
(3 -1.764719028e-15 0)
(3 -1.316731323e-15 0)
(3 -1.66475726e-15 0)
(3 -1.424284208e-15 0)
(3 -6.812438698e-16 0)
(3 6.026597683e-16 0)
(3 3.125967846e-16 0)
(3 -6.715446508e-16 0)
(3 -6.391314112e-16 0)
(3 2.103343805e-16 0)
(3 -4.550111399e-16 0)
(3 4.828112841e-16 0)
(3 3.77680171e-16 0)
(3 -1.548229157e-15 0)
(3 5.358221821e-16 0)
(3 1.548694413e-16 0)
(3 1.491199885e-17 0)
(3 -2.921679208e-16 0)
(3 -3.670749746e-16 0)
(3 -6.073900542e-16 0)
(3 -3.937242203e-16 0)
(3 -3.839634407e-16 0)
(3 -1.530979148e-15 0)
(3 -7.783181421e-16 0)
(3 7.110455186e-16 0)
(3 5.994013569e-16 0)
(3 9.126633047e-16 0)
(3 1.768205669e-15 0)
(3 8.563736133e-16 0)
(3 -1.962243293e-15 0)
(3 -4.66268659e-15 0)
(3 -4.589992439e-15 0)
(3 -3.936569068e-15 0)
(3 -3.047719196e-15 0)
(3 -1.672294241e-15 0)
(3 -1.715824136e-15 0)
(3 -2.469353973e-15 0)
(3 -1.956929633e-15 0)
(3 -1.357270924e-15 0)
(3 -8.251565625e-16 0)
(3 5.153179502e-16 0)
(3 1.735764086e-15 0)
(3 1.3520988e-15 0)
(3 1.615192693e-15 0)
(3 7.393814816e-16 0)
(3 -9.118824794e-16 0)
(3 -1.667654901e-15 0)
(3 -1.096421218e-15 0)
(3 -1.45092217e-17 0)
(3 3.171615438e-15 0)
(3 2.479627897e-15 0)
(3 2.731182888e-15 0)
(3 3.202303865e-15 0)
(3 3.421202931e-15 0)
(3 2.658022278e-15 0)
(3 3.50676316e-15 0)
(3 7.840670651e-16 0)
(3 -3.4440784e-15 0)
(3 -4.17969517e-15 0)
(3 -1.529294906e-15 0)
(3 1.289437358e-16 0)
(3 -1.873182668e-16 0)
(3 -5.898182858e-16 0)
(3 -1.618402571e-15 0)
(3 -3.063397816e-15 0)
(3 -2.898933262e-15 0)
(3 -3.836952431e-15 0)
(3 -3.062809703e-15 0)
(3 -3.048082198e-15 0)
(3 -2.101048746e-15 0)
(3 -1.653711429e-16 0)
(3 -1.917289423e-16 0)
(3 -3.353902488e-16 0)
(3 -8.29431046e-16 0)
(3 -1.426856772e-15 0)
(3 3.530450087e-16 0)
(3 1.070126202e-15 0)
(3 1.392534675e-15 0)
(3 1.474816487e-15 0)
(3 1.238753902e-15 0)
(3 2.369370873e-15 0)
(3 2.046544129e-15 0)
(3 6.999184428e-16 0)
(3 -2.757165443e-15 0)
(3 -1.857390316e-15 0)
(3 -6.111109129e-16 0)
(3 -3.369649743e-16 0)
(3 4.751082604e-16 0)
(3 -3.746079329e-17 0)
(3 -2.676482603e-16 0)
(3 -2.284368418e-15 0)
(3 -1.240503511e-15 0)
(3 8.312378224e-17 0)
(3 1.267814476e-16 0)
(3 1.443174075e-15 0)
(3 -4.645297143e-16 0)
(3 -2.974782682e-15 0)
(3 -2.405533515e-15 0)
(3 -2.903710378e-15 0)
(3 -2.104936701e-15 0)
(3 -2.12457762e-15 0)
(3 -2.222790065e-15 0)
(3 -4.09006818e-16 0)
(3 -9.134567291e-16 0)
(3 7.902139284e-16 0)
(3 1.312662384e-15 0)
(3 1.218054294e-15 0)
(3 2.050482215e-15 0)
(3 2.629712721e-15 0)
(3 3.285466943e-15 0)
(3 3.746212001e-15 0)
(3 2.861208525e-15 0)
(3 7.232899447e-17 0)
(3 -1.816840085e-15 0)
(3 -7.241006593e-16 0)
(3 5.63369277e-16 0)
(3 2.856954767e-15 0)
(3 3.426546632e-15 0)
(3 4.587783887e-15 0)
(3 5.38614124e-15 0)
(3 4.532333343e-15 0)
(3 1.90305984e-15 0)
(3 1.168158365e-15 0)
(3 -6.30197732e-16 0)
(3 -4.193864753e-15 0)
(3 -4.106751929e-15 0)
(3 -1.671300267e-15 0)
(3 -2.628709068e-16 0)
(3 -4.644324104e-16 0)
(3 -1.730097021e-15 0)
(3 -2.374858218e-15 0)
(3 -2.656046404e-15 0)
(3 -2.088279051e-15 0)
(3 -2.669213582e-15 0)
(3 -1.906098115e-15 0)
(3 -1.497802328e-15 0)
(3 -8.422917736e-16 0)
(3 1.31912696e-15 0)
(3 3.93584987e-16 0)
(3 -1.861543938e-15 0)
(3 -4.524304524e-15 0)
(3 -4.414361523e-15 0)
(3 -1.154219578e-15 0)
(3 -3.470558852e-16 0)
(3 5.929597526e-16 0)
(3 2.236225204e-15 0)
(3 2.436568736e-15 0)
(3 2.442746445e-15 0)
(3 1.924961945e-15 0)
(3 1.401715123e-15 0)
(3 8.618969711e-16 0)
(3 1.595192312e-16 0)
(3 1.308602481e-16 0)
(3 -2.901277893e-16 0)
(3 -1.875143847e-15 0)
(3 -3.353817718e-15 0)
(3 -2.686983216e-15 0)
(3 -3.258750692e-15 0)
(3 -2.033209215e-15 0)
(3 -4.263355106e-16 0)
(3 -1.740834617e-16 0)
(3 -1.207781013e-15 0)
(3 -2.865072988e-15 0)
(3 -1.988532011e-15 0)
(3 -8.39497128e-16 0)
(3 -1.677009056e-15 0)
(3 -2.499046071e-15 0)
(3 -1.480766965e-15 0)
(3 -3.196333534e-15 0)
(3 -1.027634412e-15 0)
(3 4.335233788e-15 0)
(3 4.85714943e-15 0)
(3 4.593992702e-15 0)
(3 5.155598428e-15 0)
(3 5.062346141e-15 0)
(3 3.879629241e-15 0)
(3 2.477164818e-15 0)
(3 2.711413934e-15 0)
(3 2.968776986e-15 0)
(3 8.551974173e-16 0)
(3 -3.715139074e-16 0)
(3 -7.351268174e-16 0)
(3 2.411521351e-16 0)
(3 1.883416426e-15 0)
(3 3.464831334e-15 0)
(3 3.668558939e-15 0)
(3 3.510715321e-15 0)
(3 2.555861989e-15 0)
(3 1.121564769e-15 0)
(3 -1.8311012e-15 0)
(3 -1.192291213e-15 0)
(3 5.516630711e-16 0)
(3 1.956205009e-15 0)
(3 1.39019798e-15 0)
(3 7.695196925e-17 0)
(3 5.649808289e-16 0)
(3 -7.556889504e-16 0)
(3 -4.065958076e-16 0)
(3 1.926844857e-17 0)
(3 7.525793673e-16 0)
(3 2.232892343e-16 0)
(3 -1.120310852e-15 0)
(3 -7.069481302e-17 0)
(3 -1.885249354e-17 0)
(3 -1.206865189e-15 0)
(3 -7.308457661e-16 0)
(3 -1.865223209e-15 0)
(3 -1.568274689e-15 0)
(3 -1.196798331e-15 0)
(3 -1.42166512e-15 0)
(3 7.943568212e-16 0)
(3 7.337207521e-16 0)
(3 2.364877104e-15 0)
(3 3.050988423e-15 0)
(3 1.792255272e-15 0)
(3 7.468906056e-16 0)
(3 1.735449465e-15 0)
(3 1.654433519e-15 0)
(3 1.54232088e-16 0)
(3 -2.961060619e-17 0)
(3 -1.561837994e-15 0)
(3 -3.190951702e-15 0)
(3 -4.076087792e-15 0)
(3 -5.001423666e-15 0)
(3 -3.636194514e-15 0)
(3 -3.082835396e-15 0)
(3 -4.626111014e-15 0)
(3 -4.104987027e-15 0)
(3 -3.49192401e-15 0)
(3 -1.114990937e-15 0)
(3 3.277974684e-16 0)
(3 -1.674447475e-15 0)
(3 -2.307377221e-15 0)
(3 -3.697299441e-15 0)
(3 -4.258940607e-15 0)
(3 -3.124756299e-15 0)
(3 -7.933859239e-16 0)
(3 3.782366018e-15 0)
(3 3.339453762e-15 0)
(3 4.543408011e-15 0)
(3 6.059550293e-15 0)
(3 3.888039475e-15 0)
(3 1.23241546e-16 0)
(3 -3.246086347e-16 0)
(3 2.541038464e-16 0)
(3 2.726166094e-16 0)
(3 2.006658739e-15 0)
(3 1.99118574e-15 0)
(3 1.272323368e-15 0)
(3 1.125666046e-15 0)
(3 1.374009576e-15 0)
(3 8.30660329e-16 0)
(3 -6.672354684e-16 0)
(3 -5.382971804e-16 0)
(3 -1.10773698e-16 0)
(3 4.42486362e-16 0)
(3 9.834729412e-16 0)
(3 1.396071327e-15 0)
(3 3.326962967e-15 0)
(3 4.451200651e-15 0)
(3 4.046036729e-15 0)
(3 3.911834287e-16 0)
(3 2.24762938e-15 0)
(3 1.452922059e-15 0)
(3 4.141809628e-16 0)
(3 2.144221909e-16 0)
(3 1.465339741e-15 0)
(3 5.28358517e-15 0)
(3 4.152950154e-15 0)
(3 3.621228691e-15 0)
(3 2.633578389e-15 0)
(3 8.219327406e-17 0)
(3 -4.770050077e-16 0)
(3 1.8118228e-16 0)
(3 4.954854079e-16 0)
(3 5.917804498e-16 0)
(3 7.462563028e-17 0)
(3 1.091240354e-15 0)
(3 1.308212841e-15 0)
(3 1.948843223e-15 0)
(3 1.995213032e-15 0)
(3 3.225883756e-15 0)
(3 1.493907723e-15 0)
(3 5.299619945e-16 0)
(3 -1.306675823e-15 0)
(3 -2.296603006e-15 0)
(3 -3.353000674e-15 0)
(3 -1.492239913e-15 0)
(3 -1.257890346e-15 0)
(3 -3.169458774e-15 0)
(3 -4.387191572e-15 0)
(3 -4.177799629e-15 0)
(3 -4.150490375e-15 0)
(3 -5.412171887e-15 0)
(3 -4.686758494e-15 0)
(3 -4.728013574e-15 0)
(3 -3.071126617e-15 0)
(3 -2.897404089e-15 0)
(3 -2.55175964e-15 0)
(3 -4.309037013e-15 0)
(3 -4.807528765e-15 0)
(3 -4.846132804e-15 0)
(3 -3.349132538e-17 0)
(3 2.691732302e-16 0)
(3 1.62169385e-15 0)
(3 2.494129405e-15 0)
(3 4.196468717e-15 0)
(3 3.321810222e-15 0)
(3 1.725527172e-15 0)
(3 -4.930745e-16 0)
(3 1.447890323e-16 0)
(3 -1.326328172e-15 0)
(3 -2.097238037e-15 0)
(3 -8.883217323e-16 0)
(3 1.540658294e-15 0)
(3 2.82389922e-15 0)
(3 4.605120936e-15 0)
(3 4.735634743e-15 0)
(3 3.510110367e-15 0)
(3 2.879856538e-15 0)
(3 5.617212598e-16 0)
(3 3.268005342e-16 0)
(3 -2.013195823e-16 0)
(3 -2.349313411e-16 0)
(3 -8.256005132e-16 0)
(3 2.883529287e-16 0)
(3 3.097704683e-16 0)
(3 1.396005434e-15 0)
(3 6.939796685e-17 0)
(3 -6.948432845e-16 0)
(3 4.555279942e-16 0)
(3 8.606366662e-16 0)
(3 2.669906051e-15 0)
(3 2.394951639e-15 0)
(3 2.628324439e-15 0)
(3 3.647159399e-15 0)
(3 2.397734021e-15 0)
(3 1.399555754e-15 0)
(3 4.509287492e-16 0)
(3 -6.38610564e-16 0)
(3 7.539242784e-16 0)
(3 1.991973014e-15 0)
(3 1.726426829e-15 0)
(3 1.030468141e-15 0)
(3 2.84047522e-16 0)
(3 1.89917882e-15 0)
(3 2.327731106e-15 0)
(3 2.49084287e-15 0)
(3 4.025795587e-15 0)
(3 4.194435265e-15 0)
(3 2.379344808e-15 0)
(3 -2.308397957e-16 0)
(3 -1.851436601e-15 0)
(3 -4.230973765e-15 0)
(3 -3.693891595e-15 0)
(3 -2.423502469e-15 0)
(3 -2.750271929e-15 0)
(3 -2.397029171e-15 0)
(3 -3.349775672e-15 0)
(3 -5.038677412e-15 0)
(3 -4.78749495e-15 0)
(3 -2.187410272e-15 0)
(3 -2.647095256e-15 0)
(3 -8.918481163e-16 0)
(3 -1.170181248e-15 0)
(3 -4.913712514e-16 0)
(3 -1.659565043e-15 0)
(3 -3.03740252e-15 0)
(3 9.061454138e-16 0)
(3 3.00219776e-15 0)
(3 3.547300818e-15 0)
(3 3.513842935e-15 0)
(3 3.659986915e-15 0)
(3 3.256267729e-15 0)
(3 1.474917519e-15 0)
(3 -2.036953738e-16 0)
(3 7.612834269e-16 0)
(3 1.13157248e-15 0)
(3 -7.266332746e-16 0)
(3 -1.346245134e-15 0)
(3 -7.481338369e-16 0)
(3 1.272289818e-15 0)
(3 4.251738278e-15 0)
(3 5.785701119e-15 0)
(3 5.470347362e-15 0)
(3 5.347981921e-15 0)
(3 5.274595113e-15 0)
(3 4.018593954e-15 0)
(3 2.665842149e-15 0)
(3 -9.696654511e-16 0)
(3 -1.89719295e-15 0)
(3 -2.220860993e-15 0)
(3 -1.24696114e-15 0)
(3 -1.059906728e-15 0)
(3 -3.489808642e-16 0)
(3 -3.114179407e-16 0)
(3 -1.115248347e-15 0)
(3 -3.273460707e-17 0)
(3 2.591603566e-15 0)
(3 3.934425598e-15 0)
(3 3.222233233e-15 0)
(3 -1.058845855e-15 0)
(3 -6.846627444e-16 0)
(3 -2.316382353e-15 0)
(3 -1.991762399e-15 0)
(3 -2.052253009e-15 0)
(3 -2.209792293e-15 0)
(3 -5.95998415e-16 0)
(3 2.341629415e-16 0)
(3 2.454085639e-16 0)
(3 1.436098809e-15 0)
(3 1.397593436e-15 0)
(3 1.543262439e-15 0)
(3 4.676199819e-16 0)
(3 8.463439614e-16 0)
(3 3.720671341e-16 0)
(3 -9.828992071e-16 0)
(3 -1.800946897e-15 0)
(3 -1.619654192e-15 0)
(3 -3.888536214e-15 0)
(3 -4.27851967e-15 0)
(3 -4.765291768e-15 0)
(3 -5.022786307e-15 0)
(3 -2.614587866e-15 0)
(3 -3.099068404e-15 0)
(3 -2.904662048e-15 0)
(3 -3.880797565e-15 0)
(3 -5.308122698e-15 0)
(3 -2.633813806e-15 0)
(3 -2.376960843e-15 0)
(3 -3.183923387e-16 0)
(3 -7.335404343e-16 0)
(3 9.576775605e-16 0)
(3 1.822716326e-15 0)
(3 3.213530748e-15 0)
(3 7.663046391e-15 0)
(3 7.78512506e-15 0)
(3 6.726361747e-15 0)
(3 3.802761457e-15 0)
(3 2.004229039e-15 0)
(3 9.738150676e-16 0)
(3 -1.284071834e-15 0)
(3 -1.520121639e-15 0)
(3 -7.065634859e-16 0)
(3 -2.453515871e-15 0)
(3 -2.868157315e-15 0)
(3 -3.19144083e-15 0)
(3 -1.310590554e-15 0)
(3 -1.603452572e-15 0)
(3 -1.401712016e-15 0)
(3 -1.807576596e-16 0)
(3 -5.960996124e-16 0)
(3 1.993518168e-16 0)
(3 2.525476329e-16 0)
(3 1.2232758e-16 0)
(3 -8.647136593e-16 0)
(3 -2.143464535e-15 0)
(3 -2.574126727e-15 0)
(3 -2.188368627e-15 0)
(3 1.048818009e-17 0)
(3 2.497849831e-15 0)
(3 -2.466386439e-16 0)
(3 -4.966430363e-17 0)
(3 8.704265852e-17 0)
(3 4.035392315e-16 0)
(3 7.524287913e-16 0)
(3 1.267861252e-15 0)
(3 7.379008715e-16 0)
(3 -2.030514211e-16 0)
(3 -1.056246187e-15 0)
(3 -2.151627888e-15 0)
(3 -2.344850818e-16 0)
(3 5.739488323e-16 0)
(3 2.494247234e-15 0)
(3 2.31981015e-15 0)
(3 1.942847136e-15 0)
(3 3.236429054e-15 0)
(3 5.098339903e-15 0)
(3 4.059976957e-15 0)
(3 1.241673429e-15 0)
(3 -1.299375573e-15 0)
(3 -2.887655626e-15 0)
(3 -4.07034509e-15 0)
(3 -3.218154343e-15 0)
(3 -1.842949495e-15 0)
(3 -1.312810283e-15 0)
(3 -2.461848316e-15 0)
(3 -2.567415987e-15 0)
(3 -5.218760923e-15 0)
(3 -7.511437002e-15 0)
(3 -5.913494236e-15 0)
(3 -5.718260143e-15 0)
(3 -5.836563808e-15 0)
(3 -3.337301116e-15 0)
(3 -3.523209324e-15 0)
(3 -3.347810902e-15 0)
(3 -3.287699229e-15 0)
(3 -2.266672433e-15 0)
(3 -1.139124844e-15 0)
(3 1.255963717e-15 0)
(3 3.71412996e-15 0)
(3 6.810151839e-15 0)
(3 7.107473643e-15 0)
(3 7.579340824e-15 0)
(3 6.697367469e-15 0)
(3 1.678302801e-15 0)
(3 1.21142638e-16 0)
(3 -2.792536202e-15 0)
(3 -2.670686339e-15 0)
(3 -1.647599077e-15 0)
(3 -4.87412783e-15 0)
(3 -5.410434764e-15 0)
(3 -3.795635871e-15 0)
(3 -2.98146159e-15 0)
(3 -4.329249795e-15 0)
(3 -4.865105438e-15 0)
(3 -4.44118485e-15 0)
(3 -4.399997329e-15 0)
(3 -2.289668809e-15 0)
(3 -1.210945238e-16 0)
(3 -9.61412428e-16 0)
(3 -2.414730011e-15 0)
(3 -3.370490533e-15 0)
(3 -3.617971711e-15 0)
(3 -3.5638995e-15 0)
(3 -1.483731764e-15 0)
(3 -1.266075976e-15 0)
(3 -6.329851174e-16 0)
(3 -9.859137567e-16 0)
(3 -4.820140309e-16 0)
(3 -3.041654915e-17 0)
(3 -2.023225601e-16 0)
(3 -8.253927726e-16 0)
(3 -1.187743655e-15 0)
(3 -2.109637895e-15 0)
(3 -1.63762939e-15 0)
(3 -3.100102397e-17 0)
(3 1.032914056e-15 0)
(3 4.397440489e-17 0)
(3 4.334494271e-16 0)
(3 1.660842218e-15 0)
(3 2.356504727e-15 0)
(3 2.728657553e-15 0)
(3 5.622975096e-15 0)
(3 6.654834437e-15 0)
(3 6.036177277e-15 0)
(3 4.12105396e-15 0)
(3 1.302332214e-15 0)
(3 -1.388234384e-15 0)
(3 -2.142887779e-15 0)
(3 -1.103446417e-15 0)
(3 8.331723487e-16 0)
(3 5.973497664e-16 0)
(3 1.146568145e-16 0)
(3 -2.720130379e-15 0)
(3 -6.447413066e-15 0)
(3 -7.10331219e-15 0)
(3 -8.641419147e-15 0)
(3 -6.768787447e-15 0)
(3 -6.344194782e-15 0)
(3 -5.24093617e-15 0)
(3 -6.877403765e-16 0)
(3 -9.01506104e-16 0)
(3 -1.490927348e-15 0)
(3 -1.005663542e-15 0)
(3 -6.158197914e-17 0)
(3 2.226546882e-15 0)
(3 3.972083144e-15 0)
(3 4.481778553e-15 0)
(3 3.489883732e-15 0)
(3 1.886086556e-15 0)
(3 2.332802904e-15 0)
(3 2.101831455e-15 0)
(3 1.741293185e-15 0)
(3 7.603483413e-16 0)
(3 -8.928689558e-16 0)
(3 -2.606115119e-15 0)
(3 -4.520886728e-15 0)
(3 -3.337205604e-15 0)
(3 -1.187267627e-15 0)
(3 -1.753758508e-15 0)
(3 -3.151648852e-15 0)
(3 -3.750389207e-15 0)
(3 -5.079143293e-15 0)
(3 -5.206689265e-15 0)
(3 -3.177899384e-15 0)
(3 9.21950088e-16 0)
(3 5.779976548e-16 0)
(3 3.092373028e-16 0)
(3 -2.411793841e-15 0)
(3 -4.342775569e-15 0)
(3 -3.090976695e-15 0)
(3 -3.958724425e-15 0)
(3 -4.864112502e-15 0)
(3 -4.670439656e-15 0)
(3 -2.669801013e-15 0)
(3 7.916668206e-17 0)
(3 1.131645518e-16 0)
(3 2.71100614e-16 0)
(3 -1.630508255e-16 0)
(3 -1.034934037e-15 0)
(3 -1.405396588e-16 0)
(3 1.267237982e-15 0)
(3 6.331780935e-16 0)
(3 1.336641374e-15 0)
(3 8.967735317e-16 0)
(3 -7.00629239e-16 0)
(3 -5.151217869e-16 0)
(3 -3.689656342e-17 0)
(3 1.503249663e-15 0)
(3 3.035365823e-15 0)
(3 3.86081953e-15 0)
(3 6.34853723e-15 0)
(3 2.903735054e-15 0)
(3 9.963751806e-16 0)
(3 -4.696995587e-17 0)
(3 -1.124722322e-15 0)
(3 -1.269914524e-15 0)
(3 -1.779125068e-15 0)
(3 -1.345857862e-15 0)
(3 -5.657660569e-16 0)
(3 -3.933292555e-15 0)
(3 -4.921987153e-15 0)
(3 -5.111646207e-15 0)
(3 -3.261232991e-15 0)
(3 -4.653300904e-15 0)
(3 -2.235970731e-15 0)
(3 -2.752408352e-15 0)
(3 -2.032211208e-15 0)
(3 -3.337771889e-15 0)
(3 -3.347538839e-15 0)
(3 -3.443020225e-15 0)
(3 -2.98908561e-15 0)
(3 -3.642756237e-16 0)
(3 1.346616765e-15 0)
(3 2.782446589e-15 0)
(3 2.262446052e-15 0)
(3 4.050178851e-16 0)
(3 -1.790333666e-15 0)
(3 4.824670328e-17 0)
(3 1.766338718e-16 0)
(3 -1.492680524e-15 0)
(3 -1.580024141e-15 0)
(3 -7.995671855e-16 0)
(3 6.033961921e-16 0)
(3 1.383737299e-15 0)
(3 2.857016751e-15 0)
(3 2.319162493e-15 0)
(3 9.947209408e-16 0)
(3 -1.694893533e-15 0)
(3 -4.557201133e-15 0)
(3 -3.665237026e-15 0)
(3 -2.847476021e-15 0)
(3 -3.377468539e-15 0)
(3 -1.280739246e-15 0)
(3 -1.02510794e-16 0)
(3 2.597129656e-16 0)
(3 -1.053948528e-15 0)
(3 -7.589087376e-16 0)
(3 -1.917166562e-15 0)
(3 -2.822981076e-15 0)
(3 -3.942985621e-15 0)
(3 -2.41258356e-15 0)
(3 3.781557227e-16 0)
(3 -2.966251503e-16 0)
(3 8.114634915e-17 0)
(3 -2.029697878e-16 0)
(3 -1.653221876e-15 0)
(3 1.55205841e-15 0)
(3 1.036717459e-15 0)
(3 9.456106111e-19 0)
(3 -1.000303541e-15 0)
(3 -3.424163373e-16 0)
(3 -8.39159644e-16 0)
(3 -3.255149942e-16 0)
(3 -2.445933321e-16 0)
(3 1.381796213e-16 0)
(3 -2.209160525e-17 0)
(3 9.419326044e-16 0)
(3 6.59150984e-16 0)
(3 -2.374953849e-15 0)
(3 -1.247487199e-15 0)
(3 3.383182602e-16 0)
(3 1.968883604e-15 0)
(3 1.578337575e-15 0)
(3 -1.953573079e-15 0)
(3 -1.830725633e-15 0)
(3 -3.277133024e-15 0)
(3 -2.060209395e-15 0)
(3 -2.505637694e-15 0)
(3 -3.415547651e-15 0)
(3 -2.908862784e-15 0)
(3 -2.253979052e-15 0)
(3 -2.872731508e-15 0)
(3 -2.619189096e-15 0)
(3 -4.231912861e-15 0)
(3 -4.049728532e-15 0)
(3 -3.741235636e-15 0)
(3 -3.472046936e-15 0)
(3 -2.65476243e-15 0)
(3 9.600443439e-16 0)
(3 1.851633229e-15 0)
(3 7.442270284e-16 0)
(3 -4.274425254e-16 0)
(3 1.307947553e-15 0)
(3 5.287171094e-16 0)
(3 1.616823921e-15 0)
(3 7.4937409e-16 0)
(3 -2.630554712e-15 0)
(3 -2.464261061e-15 0)
(3 -5.7868211e-16 0)
(3 1.232905801e-15 0)
(3 1.909173746e-15 0)
(3 3.626238915e-15 0)
(3 4.205958716e-15 0)
(3 3.581419634e-15 0)
(3 2.641658206e-15 0)
(3 -9.558045792e-17 0)
(3 -5.811414729e-16 0)
(3 -1.273055525e-15 0)
(3 -3.65002618e-15 0)
(3 -4.289962667e-15 0)
(3 -4.207852051e-15 0)
(3 6.348381439e-17 0)
(3 2.775336888e-15 0)
(3 3.074683575e-15 0)
(3 3.087624074e-15 0)
(3 1.83050561e-15 0)
(3 -1.104854148e-15 0)
(3 -1.939433507e-15 0)
(3 2.386165765e-16 0)
(3 1.258195297e-15 0)
(3 1.160855517e-15 0)
(3 -2.223046674e-16 0)
(3 -1.084186432e-16 0)
(3 -6.655853021e-16 0)
(3 -6.436001723e-16 0)
(3 -7.492925577e-17 0)
(3 2.652565722e-16 0)
(3 2.054932988e-15 0)
(3 1.762902314e-15 0)
(3 1.572682836e-15 0)
(3 1.534702171e-15 0)
(3 5.484966958e-16 0)
(3 -1.426032177e-15 0)
(3 -3.506078863e-15 0)
(3 -5.273858335e-15 0)
(3 -2.053250747e-15 0)
(3 -2.792521916e-16 0)
(3 2.505617146e-15 0)
(3 3.444795205e-15 0)
(3 3.391207467e-15 0)
(3 1.682300559e-15 0)
(3 2.89623102e-16 0)
(3 7.077367838e-17 0)
(3 1.461547788e-15 0)
(3 2.168905391e-15 0)
(3 1.948030116e-15 0)
(3 -2.850968524e-16 0)
(3 -1.03098825e-15 0)
(3 -3.12489556e-15 0)
(3 -5.060810471e-15 0)
(3 -4.849029392e-15 0)
(3 -3.124454669e-15 0)
(3 -1.152834954e-15 0)
(3 -5.748453705e-16 0)
(3 -6.36132468e-16 0)
(3 9.871932769e-16 0)
(3 3.081403668e-15 0)
(3 2.434386501e-15 0)
(3 1.124967978e-15 0)
(3 1.514544106e-15 0)
(3 2.779472042e-15 0)
(3 2.642381685e-15 0)
(3 1.412210846e-15 0)
(3 -2.964554625e-16 0)
(3 -7.393865738e-16 0)
(3 7.679316185e-16 0)
(3 3.735246393e-15 0)
(3 3.101924462e-15 0)
(3 2.290013934e-15 0)
(3 1.97734975e-15 0)
(3 1.968093987e-15 0)
(3 2.450619327e-15 0)
(3 2.469795116e-15 0)
(3 1.214714956e-15 0)
(3 -1.820600171e-15 0)
(3 -3.387430462e-15 0)
(3 -3.947594319e-15 0)
(3 -4.171264523e-15 0)
(3 -3.240777498e-15 0)
(3 2.025238321e-15 0)
(3 3.685749651e-15 0)
(3 9.944543565e-17 0)
(3 -1.438028126e-15 0)
(3 -2.327315434e-15 0)
(3 -3.347837191e-15 0)
(3 2.44298785e-16 0)
(3 1.740491718e-15 0)
(3 2.470031345e-15 0)
(3 2.440580041e-15 0)
(3 2.774296213e-15 0)
(3 2.528011162e-16 0)
(3 5.224856369e-17 0)
(3 1.78497193e-15 0)
(3 2.514367911e-15 0)
(3 3.310519964e-15 0)
(3 4.395983339e-15 0)
(3 4.199828451e-15 0)
(3 3.767875256e-15 0)
(3 2.634537917e-15 0)
(3 1.35267798e-15 0)
(3 -1.966417343e-15 0)
(3 -2.986755145e-15 0)
(3 -7.228787869e-16 0)
(3 1.144241571e-16 0)
(3 2.116768479e-15 0)
(3 4.407607955e-15 0)
(3 6.655940768e-15 0)
(3 6.282367419e-15 0)
(3 2.966016797e-15 0)
(3 3.28825832e-15 0)
(3 3.363529988e-15 0)
(3 3.772730286e-15 0)
(3 2.935442557e-15 0)
(3 -2.607680131e-16 0)
(3 -4.234988688e-15 0)
(3 -8.59915724e-15 0)
(3 -9.104478886e-15 0)
(3 -3.735944961e-15 0)
(3 -2.222216396e-15 0)
(3 1.564381601e-16 0)
(3 2.095448656e-16 0)
(3 3.333030312e-16 0)
(3 -6.567503135e-16 0)
(3 5.773435839e-16 0)
(3 3.520281195e-15 0)
(3 4.518827034e-15 0)
(3 3.915653961e-15 0)
(3 5.207655922e-15 0)
(3 4.058009416e-15 0)
(3 3.488229395e-15 0)
(3 3.870418418e-15 0)
(3 2.088074951e-15 0)
(3 2.158432695e-15 0)
(3 3.156078955e-15 0)
(3 2.657675709e-15 0)
(3 1.867021387e-15 0)
(3 7.157710848e-16 0)
(3 -6.072271809e-18 0)
(3 -4.265329219e-17 0)
(3 5.148552447e-16 0)
(3 1.683642858e-15 0)
(3 -4.792199935e-17 0)
(3 -2.383020992e-16 0)
(3 -8.280059711e-17 0)
(3 -1.467387565e-16 0)
(3 7.499212392e-16 0)
(3 3.069302846e-15 0)
(3 2.365462181e-15 0)
(3 3.035643903e-16 0)
(3 -1.031515609e-15 0)
(3 -1.31716887e-15 0)
(3 -1.048999564e-15 0)
(3 -1.570073216e-16 0)
(3 -7.924107873e-16 0)
(3 -8.386881756e-16 0)
(3 2.341945158e-15 0)
(3 2.97595218e-15 0)
(3 3.204109332e-15 0)
(3 1.005333815e-15 0)
(3 7.695023269e-16 0)
(3 5.872688102e-16 0)
(3 7.660467475e-16 0)
(3 9.469995341e-16 0)
(3 2.316377614e-15 0)
(3 1.031982887e-15 0)
(3 1.165690452e-15 0)
(3 7.895530508e-16 0)
(3 -1.276363341e-15 0)
(3 -1.228933401e-15 0)
(3 -1.31716619e-15 0)
(3 2.442550899e-15 0)
(3 2.795043938e-15 0)
(3 3.933386095e-15 0)
(3 3.422783886e-15 0)
(3 3.960100818e-15 0)
(3 3.094935802e-15 0)
(3 2.853624187e-15 0)
(3 2.991310481e-15 0)
(3 2.031607727e-15 0)
(3 -7.859596343e-17 0)
(3 -1.816284356e-15 0)
(3 -3.797178088e-15 0)
(3 -5.055096456e-15 0)
(3 -3.916467775e-15 0)
(3 -3.625607864e-15 0)
(3 -3.440432677e-15 0)
(3 -3.190462912e-15 0)
(3 -2.146129764e-15 0)
(3 9.068814904e-16 0)
(3 4.688079841e-16 0)
(3 2.372122845e-15 0)
(3 3.604675059e-15 0)
(3 5.141397724e-15 0)
(3 5.632299475e-15 0)
(3 6.389942942e-15 0)
(3 6.334182996e-15 0)
(3 4.464731059e-15 0)
(3 3.485279594e-15 0)
(3 3.774097051e-15 0)
(3 3.420571615e-15 0)
(3 2.631361771e-15 0)
(3 1.750997101e-15 0)
(3 1.305953527e-15 0)
(3 -4.45698363e-16 0)
(3 -5.365925826e-16 0)
(3 -1.056937048e-15 0)
(3 -1.097984911e-15 0)
(3 2.952729614e-16 0)
(3 1.992270982e-15 0)
(3 2.713629921e-15 0)
(3 2.400045154e-15 0)
(3 2.953210379e-15 0)
(3 2.8201747e-15 0)
(3 2.863302774e-15 0)
(3 1.991632561e-15 0)
(3 1.811337469e-15 0)
(3 5.952281013e-16 0)
(3 3.283998382e-16 0)
(3 1.910773902e-15 0)
(3 -1.309219209e-16 0)
(3 -1.388965192e-15 0)
(3 -2.683361343e-15 0)
(3 -2.257367908e-15 0)
(3 -1.011909521e-15 0)
(3 -4.726957755e-16 0)
(3 -1.381813584e-16 0)
(3 -1.003913343e-15 0)
(3 -1.019965664e-15 0)
(3 -5.574694058e-16 0)
(3 -2.277631471e-15 0)
(3 -1.385907625e-15 0)
(3 -2.650367316e-15 0)
(3 -2.440845369e-15 0)
(3 -2.335255235e-15 0)
(3 -3.005161752e-15 0)
(3 -1.574656906e-15 0)
(3 1.16805773e-16 0)
(3 1.541663039e-15 0)
(3 3.302586738e-15 0)
(3 3.121202657e-15 0)
(3 1.859484599e-15 0)
(3 3.538170378e-16 0)
(3 1.760180508e-15 0)
(3 1.388520125e-15 0)
(3 8.933534168e-16 0)
(3 -9.286535693e-16 0)
(3 -3.378012538e-15 0)
(3 -3.090430385e-15 0)
(3 -1.705436031e-15 0)
(3 -1.192441557e-15 0)
(3 -2.886707898e-15 0)
(3 -4.684345134e-15 0)
(3 -5.320001587e-15 0)
(3 -4.472279855e-15 0)
(3 -2.26993686e-15 0)
(3 -1.725340085e-15 0)
(3 2.431361891e-16 0)
(3 3.593112229e-16 0)
(3 7.496108976e-16 0)
(3 2.038803316e-15 0)
(3 4.869168971e-15 0)
(3 5.115526035e-15 0)
(3 5.700973303e-15 0)
(3 3.581069099e-15 0)
(3 2.126696844e-15 0)
(3 2.248688738e-15 0)
(3 1.653066243e-15 0)
(3 2.145686483e-15 0)
(3 2.65812629e-15 0)
(3 1.330742202e-15 0)
(3 -3.392161362e-16 0)
(3 3.219879135e-16 0)
(3 4.71703264e-16 0)
(3 9.399881738e-16 0)
(3 2.129207403e-15 0)
(3 3.286707674e-15 0)
(3 4.267713812e-15 0)
(3 4.422057522e-15 0)
(3 3.699532732e-15 0)
(3 3.086557537e-15 0)
(3 1.123359658e-15 0)
(3 1.449540057e-15 0)
(3 1.945465172e-15 0)
(3 2.158183376e-15 0)
(3 1.662338795e-15 0)
(3 6.253425894e-16 0)
(3 2.323480901e-17 0)
(3 -4.558019613e-16 0)
(3 -2.501675793e-18 0)
(3 -3.178501861e-15 0)
(3 -3.578299371e-15 0)
(3 -2.544053743e-15 0)
(3 -1.802476121e-15 0)
(3 -1.581445708e-15 0)
(3 -1.0687778e-15 0)
(3 -9.795041425e-16 0)
(3 -1.550083962e-15 0)
(3 -3.387670493e-15 0)
(3 -2.306404224e-15 0)
(3 -3.112257067e-15 0)
(3 -3.087832666e-15 0)
(3 -2.759210238e-15 0)
(3 -7.179750542e-16 0)
(3 -8.637887913e-16 0)
(3 8.251948104e-16 0)
(3 1.683545161e-15 0)
(3 1.754672237e-15 0)
(3 1.912989454e-15 0)
(3 1.587521533e-15 0)
(3 1.726082295e-15 0)
(3 5.655856737e-16 0)
(3 5.638389251e-16 0)
(3 4.815869295e-17 0)
(3 -7.331679465e-16 0)
(3 -4.073951804e-16 0)
(3 3.169884694e-17 0)
(3 9.652184811e-16 0)
(3 -1.666703058e-15 0)
(3 -4.275186354e-15 0)
(3 -5.383135533e-15 0)
(3 -5.503858518e-15 0)
(3 -2.402556611e-15 0)
(3 -1.240722392e-15 0)
(3 2.176560447e-15 0)
(3 1.601376969e-15 0)
(3 1.774179739e-15 0)
(3 2.084074054e-15 0)
(3 3.075738872e-15 0)
(3 4.698948333e-15 0)
(3 4.522018002e-15 0)
(3 1.869358758e-15 0)
(3 2.513811372e-15 0)
(3 1.075170799e-15 0)
(3 -6.085986308e-16 0)
(3 -6.45566391e-16 0)
(3 2.330518762e-15 0)
(3 1.634897008e-15 0)
(3 9.305945302e-16 0)
(3 1.20598286e-15 0)
(3 1.986010804e-15 0)
(3 5.448048409e-15 0)
(3 4.619101891e-15 0)
(3 5.867197365e-15 0)
(3 5.989057786e-15 0)
(3 5.671758707e-15 0)
(3 5.380940115e-15 0)
(3 3.905180652e-15 0)
(3 2.406928883e-15 0)
(3 5.148715238e-16 0)
(3 1.665300444e-15 0)
(3 3.739658642e-15 0)
(3 2.797523503e-15 0)
(3 -7.414543396e-16 0)
(3 -1.896958053e-16 0)
(3 -3.993796241e-16 0)
(3 -1.408900489e-15 0)
(3 -1.546971689e-15 0)
(3 -1.480923368e-15 0)
(3 -2.31906871e-15 0)
(3 -2.196901293e-15 0)
(3 -1.532060239e-15 0)
(3 -1.016805835e-15 0)
(3 -2.059549541e-15 0)
(3 -1.829779896e-15 0)
(3 -6.154771098e-16 0)
(3 -4.06653687e-18 0)
(3 -3.404936868e-16 0)
(3 -1.666367461e-15 0)
(3 -1.625386415e-15 0)
(3 -5.127793904e-16 0)
(3 -8.13928758e-16 0)
(3 -1.056849008e-15 0)
(3 -1.063629197e-15 0)
(3 -6.143122919e-16 0)
(3 8.24237806e-16 0)
(3 8.140571374e-16 0)
(3 -4.370735592e-16 0)
(3 -1.054426805e-15 0)
(3 -5.643175624e-16 0)
(3 -9.616581568e-16 0)
(3 -2.190747507e-16 0)
(3 -1.064949266e-16 0)
(3 -5.829964835e-16 0)
(3 -8.92021408e-16 0)
(3 -1.049614318e-15 0)
(3 -1.554263968e-15 0)
(3 -2.760968224e-15 0)
(3 -2.092874781e-15 0)
(3 -5.19919219e-16 0)
(3 4.359389067e-16 0)
(3 -7.654637978e-16 0)
(3 1.158222377e-15 0)
(3 3.320307721e-15 0)
(3 3.900830318e-15 0)
(3 3.210960474e-15 0)
(3 2.840600848e-15 0)
(3 4.41407794e-16 0)
(3 1.347172069e-15 0)
(3 3.132960429e-15 0)
(3 2.380962322e-15 0)
(3 1.305768475e-15 0)
(3 -9.455377334e-16 0)
(3 4.930508195e-16 0)
(3 1.204630238e-15 0)
(3 1.658262814e-15 0)
(3 7.484171188e-16 0)
(3 3.736680914e-15 0)
(3 6.455900304e-15 0)
(3 6.046086073e-15 0)
(3 4.178529968e-15 0)
(3 2.764250558e-15 0)
(3 3.983650471e-15 0)
(3 4.946461321e-15 0)
(3 4.400457005e-15 0)
(3 2.196278979e-15 0)
(3 1.563819277e-15 0)
(3 1.940817732e-15 0)
(3 2.995592721e-15 0)
(3 5.18509656e-16 0)
(3 -1.330260011e-15 0)
(3 -8.184083752e-17 0)