/*--------------------------------*- C++ -*----------------------------------*\
  =========                 |
  \\      /  F ield         | OpenFOAM: The Open Source CFD Toolbox
   \\    /   O peration     | Website:  https://openfoam.org
    \\  /    A nd           | Version:  7
     \\/     M anipulation  |
\*---------------------------------------------------------------------------*/
FoamFile
{
    version     2.0;
    format      ascii;
    class       volVectorField;
    location    "0.8";
    object      U;
}
// * * * * * * * * * * * * * * * * * * * * * * * * * * * * * * * * * * * * * //

dimensions      [0 1 -1 0 0 0 0];

internalField   nonuniform List<vector> 
138
(
(2.999999986 1.763903012e-08 0)
(2.999999889 1.966216519e-07 0)
(2.999999588 6.26241448e-07 0)
(2.999997801 3.857640464e-06 0)
(2.999993016 1.141519787e-05 0)
(2.999972166 4.913420667e-05 0)
(2.999918601 0.0002012774694 0)
(2.999868566 0.0002517051623 0)
(3 -2.63896219e-12 0)
(3 -4.952191829e-12 0)
(3 -8.394685277e-12 0)
(3 -1.062744058e-11 0)
(3 -1.268626251e-11 0)
(3 -2.044946764e-11 0)
(3 -2.087358478e-11 0)
(3 -1.969475911e-11 0)
(3 -2.409318664e-11 0)
(3 6.221849697e-12 0)
(3 -1.254160173e-10 0)
(3 5.732013912e-10 0)
(2.999999999 6.403767278e-10 0)
(2.999999991 1.564527214e-08 0)
(2.999999953 6.773786373e-08 0)
(2.999999168 1.89140816e-06 0)
(3.000000797 -1.488859693e-06 0)
(3 -2.4272682e-13 0)
(3 -6.461218168e-13 0)
(3 -1.678269594e-12 0)
(3 -2.742886894e-12 0)
(3 -5.094196073e-12 0)
(3 -7.726797401e-12 0)
(3 -1.091665574e-11 0)
(3 -1.456393644e-11 0)
(3 -1.348076073e-11 0)
(3 -1.42816381e-11 0)
(3 -1.399918489e-11 0)
(3 -1.466039477e-11 0)
(3 -1.042194406e-11 0)
(3 -3.903206756e-11 0)
(2.999999998 3.460336967e-09 0)
(3.000000135 -2.240108116e-07 0)
(3 -8.537316827e-15 0)
(3 -1.591651457e-14 0)
(3 -4.887149524e-14 0)
(3 -1.527330853e-13 0)
(3 -3.237730996e-13 0)
(3 -7.357610334e-13 0)
(3 -1.523946777e-12 0)
(3 -2.876397091e-12 0)
(3 -4.640649862e-12 0)
(3 -6.18079725e-12 0)
(3 -7.441039606e-12 0)
(3 -9.300944302e-12 0)
(3 -9.332560855e-12 0)
(3 -1.504253128e-11 0)
(3 -1.389510966e-11 0)
(3.000000006 -1.220783318e-08 0)
(3 -6.096782265e-15 0)
(3 -6.646021074e-15 0)
(3 -6.577094045e-15 0)
(3 -9.961486221e-15 0)
(3 -1.131643233e-14 0)
(3 -2.362093547e-14 0)
(3 -6.012302876e-14 0)
(3 -1.556536092e-13 0)
(3 -4.138905156e-13 0)
(3 -9.169165436e-13 0)
(3 -1.622286996e-12 0)
(3 -2.738045205e-12 0)
(3 -4.126352835e-12 0)
(3 -5.413569524e-12 0)
(3 -6.851971749e-12 0)
(3 -1.501866702e-10 0)
(3 -7.754888874e-15 0)
(3 -8.106337005e-15 0)
(3 -7.37059978e-15 0)
(3 -6.15354249e-15 0)
(3 -5.62780954e-15 0)
(3 -4.461068412e-15 0)
(3 -2.92502322e-15 0)
(3 -1.432176763e-15 0)
(3 -3.825299964e-15 0)
(3 -2.270862004e-14 0)
(3 -7.581050141e-14 0)
(3 -1.948232329e-13 0)
(3 -4.697055917e-13 0)
(3 -8.358752097e-13 0)
(3 -1.312039061e-12 0)
(3 -2.524344107e-12 0)
(3 -5.170963885e-16 0)
(3 -6.897940651e-16 0)
(3 -5.939499797e-16 0)
(3 3.048108597e-16 0)
(3 4.931715552e-16 0)
(3 1.592033041e-15 0)
(3 3.103067743e-15 0)
(3 4.997645788e-15 0)
(3 6.059969025e-15 0)
(3 6.614361711e-15 0)
(3 5.457880963e-15 0)
(3 2.492021706e-15 0)
(3 -6.324524158e-15 0)
(3 -2.695699525e-14 0)
(3 -1.11728833e-13 0)
(3 -1.031580125e-13 0)
(3 2.036619138e-15 0)
(3 2.180521697e-15 0)
(3 2.307458989e-15 0)
(3 2.659336121e-15 0)
(3 3.732651962e-15 0)
(3 4.444417627e-15 0)
(3 4.407566867e-15 0)
(3 5.118719394e-15 0)
(3 6.176898032e-15 0)
(3 7.26468838e-15 0)
(3 8.587072123e-15 0)
(3 8.788281628e-15 0)
(3 9.775566419e-15 0)
(3 1.071817143e-14 0)
(3 6.560522249e-15 0)
(3 7.434617976e-15 0)
(3 7.508363612e-16 0)
(3 2.864258564e-15 0)
(3 4.294155631e-15 0)
(3 5.138431478e-15 0)
(3 5.068882378e-15 0)
(3 5.426042089e-15 0)
(3 6.617671614e-15 0)
(3 7.879057069e-15 0)
(3 8.897678151e-15 0)
(3 9.934061615e-15 0)
(3 1.320019316e-14 0)
(3 1.582857571e-14 0)
(3 1.536766291e-14 0)
(3 1.558637545e-14 0)
(3 1.594821343e-14 0)
(3 1.023482881e-14 0)
(3 8.145856166e-15 0)
)
;

boundaryField
{
    inlet
    {
        type            fixedValue;
        value           nonuniform 0();
    }
    outlet
    {
        type            inletOutlet;
        inletValue      nonuniform 0();
        value           nonuniform 0();
    }
    bottom
    {
        type            slip;
    }
    top
    {
        type            slip;
    }
    obstacle
    {
        type            slip;
    }
    defaultFaces
    {
        type            empty;
    }
    procBoundary26to20
    {
        type            processor;
        value           nonuniform List<vector> 
18
(
(2.999987618 2.124793211e-05 0)
(2.99996178 6.40195849e-05 0)
(2.999888196 0.0001982068002 0)
(2.999697071 0.0005282779655 0)
(2.999275756 0.001353000676 0)
(2.998363714 0.003035592275 0)
(2.996722032 0.006602780364 0)
(2.994339242 0.01099954589 0)
(3 -1.961000088e-11 0)
(3 -1.929288098e-11 0)
(3 -1.915370425e-11 0)
(3 -1.966209954e-11 0)
(3 -1.72261329e-11 0)
(3 -7.920469988e-11 0)
(3 5.546297993e-10 0)
(3 -5.849935817e-10 0)
(2.999999996 8.412214037e-09 0)
(2.999999996 8.412214037e-09 0)
)
;
    }
    procBoundary26to25
    {
        type            processor;
        value           nonuniform List<vector> 9((3 -9.406814598e-13 0) (3 -5.522437013e-14 0) (3 -5.522437013e-14 0) (3 -8.167677005e-15 0) (3 -5.553453211e-15 0) (3 -6.425298525e-15 0) (3 -9.358130224e-16 0) (3 2.08517025e-15 0) (3 6.360552846e-16 0));
    }
    procBoundary26to27
    {
        type            processor;
        value           nonuniform List<vector> 3((2.9970612 0.007086496612 0) (2.999804463 0.0004547324915 0) (2.999995813 9.360719163e-06 0));
    }
    procBoundary26to31
    {
        type            processor;
        value           uniform (3 5.498169546e-15 0);
    }
    procBoundary26to32
    {
        type            processor;
        value           nonuniform List<vector> 
17
(
(3 9.46638067e-15 0)
(3 1.079521745e-14 0)
(3 1.129468339e-14 0)
(3 1.018252885e-14 0)
(3 9.501715914e-15 0)
(3 9.896695312e-15 0)
(3 1.046663663e-14 0)
(3 9.242955276e-15 0)
(3 1.148241469e-14 0)
(3 1.206132721e-14 0)
(3 8.29173728e-15 0)
(3 4.001913306e-15 0)
(3 4.981264391e-15 0)
(3 9.78524244e-15 0)
(3 9.05590221e-15 0)
(3 9.46638067e-15 0)
(3 1.219362108e-14 0)
)
;
    }
    procBoundary26to33
    {
        type            processor;
        value           nonuniform List<vector> 6((2.999999962 8.807951126e-08 0) (3 1.178945885e-10 0) (3 -2.471911613e-12 0) (3 -1.38752737e-12 0) (3 -5.380563021e-13 0) (3 -1.704553009e-13 0));
    }
}


// ************************************************************************* //
