/*--------------------------------*- C++ -*----------------------------------*\
  =========                 |
  \\      /  F ield         | OpenFOAM: The Open Source CFD Toolbox
   \\    /   O peration     | Website:  https://openfoam.org
    \\  /    A nd           | Version:  7
     \\/     M anipulation  |
\*---------------------------------------------------------------------------*/
FoamFile
{
    version     2.0;
    format      ascii;
    class       volScalarField;
    location    "4.1";
    object      T;
}
// * * * * * * * * * * * * * * * * * * * * * * * * * * * * * * * * * * * * * //

dimensions      [0 0 0 1 0 0 0];

internalField   nonuniform List<scalar> 
555
(
1.108083314
1.106998334
1.105056472
1.108522583
1.108236156
1.10814429
1.108132932
1.108065828
1.107887619
1.107697195
1.107577819
1.10755412
1.107922926
1.108434272
1.108681878
1.108533754
1.108205246
1.107923641
1.107784823
1.107442141
1.106831088
1.105723823
1.1087386
1.108450985
1.108357636
1.108263086
1.108013168
1.107748819
1.107514652
1.107393854
1.107341128
1.10724151
1.107254184
1.107295654
1.107018499
1.10653398
1.106257533
1.10627579
1.106245708
1.106015622
1.105560832
1.108397717
1.108199362
1.108107483
1.10797064
1.10758231
1.107216053
1.106885594
1.106605159
1.106243934
1.105869505
1.105524831
1.105170174
1.104650167
1.104373226
1.104363239
1.10445702
1.104541846
1.104609844
1.10484614
1.10650321
1.106467407
1.106503963
1.106521693
1.106329559
1.105982253
1.105379031
1.104679165
1.104171881
1.103714028
1.103037159
1.102344958
1.101992058
1.102029652
1.102234282
1.10235256
1.102427626
1.102796711
1.103364151
1.102691663
1.102856107
1.10296885
1.103080161
1.103068608
1.102949072
1.102712391
1.102145468
1.101267293
1.10050885
1.099706395
1.099245797
1.099249129
1.099407739
1.099692288
1.099843087
1.09994044
1.100287359
1.1014551
1.096940575
1.097171218
1.097510263
1.097787093
1.098066987
1.098157084
1.098072091
1.09782406
1.09736986
1.09670335
1.095766106
1.09537608
1.095554611
1.095808095
1.096126416
1.096346698
1.096532101
1.096968712
1.097312166
1.089838262
1.090033463
1.090411393
1.09075522
1.091320266
1.091617915
1.091730798
1.091757065
1.091669623
1.091355534
1.090883025
1.09083799
1.091176588
1.091531981
1.091750796
1.091885475
1.091961382
1.09205284
1.091967715
1.082020792
1.082155442
1.082386643
1.08267802
1.08349474
1.084052642
1.08431548
1.084516319
1.084702794
1.084693772
1.084753756
1.085033629
1.085577208
1.086067898
1.086138092
1.085997445
1.085780071
1.085500141
1.085250358
1.073843028
1.073986723
1.074287485
1.075074398
1.075802428
1.076211984
1.076605511
1.076939813
1.07720186
1.077674201
1.078279186
1.07884726
1.079068636
1.07896491
1.078697817
1.078391767
1.077926626
1.077156284
1.065801782
1.065592955
1.065793234
1.066539075
1.067312529
1.067799722
1.068314939
1.068783468
1.069359691
1.070028574
1.070482713
1.070636675
1.07067485
1.070533391
1.070228394
1.069870644
1.069475407
1.06903446
1.057850976
1.057606554
1.057735597
1.058103512
1.058690993
1.059210308
1.05976372
1.060256478
1.060757691
1.061341514
1.061716365
1.061744316
1.06167445
1.061492258
1.061191832
1.060680053
1.060375327
1.060319165
1.049808971
1.049642385
1.049654565
1.049758572
1.050093216
1.050521686
1.050887024
1.051359503
1.051738692
1.052324094
1.052593003
1.052431558
1.052278805
1.052145536
1.051944333
1.051702516
1.051408566
1.051557518
1.04179375
1.041610347
1.041485805
1.041457268
1.041667058
1.042026233
1.042235431
1.042433083
1.042442673
1.042559588
1.042764583
1.042839099
1.042755602
1.042858735
1.04292879
1.042865776
1.042863862
1.043178836
1.033990626
1.033804022
1.033600195
1.033390864
1.033317117
1.033456779
1.03361265
1.033463037
1.033208865
1.032838196
1.032874896
1.033211521
1.033484987
1.033830112
1.034269277
1.034673198
1.034938776
1.035069042
1.026197763
1.02608001
1.025838491
1.025517017
1.025318507
1.025287029
1.025141877
1.024845185
1.024543927
1.024229824
1.02444505
1.024972669
1.02541604
1.025753436
1.025936936
1.026133312
1.026496071
1.026709323
1.018841931
1.018647934
1.018429164
1.018164599
1.018001123
1.01788583
1.017585393
1.017244146
1.01696112
1.016913765
1.017187123
1.017773983
1.018206593
1.018593506
1.018631975
1.018563814
1.018551398
1.0185181
1.012148026
1.011902511
1.011745799
1.011555848
1.011446974
1.011332266
1.011044099
1.010800231
1.010510505
1.010504382
1.010916867
1.011663923
1.012126529
1.012185781
1.012071391
1.011757237
1.011391696
1.010984534
1.006192338
1.005986282
1.005904614
1.005812154
1.005770363
1.005700894
1.005472217
1.005289889
1.005122771
1.005232812
1.005615237
1.00635842
1.006725303
1.006656128
1.006305703
1.005658217
1.00499697
1.004236568
1.001006549
1.000893783
1.000896002
1.000944729
1.001002483
1.000982939
1.000872889
1.000741411
1.000763223
1.000911835
1.001282371
1.001755697
1.002067131
1.001911814
1.001221215
1.000233071
0.9994319384
0.9987054798
0.996700864
0.9966342446
0.9967019731
0.9968676068
0.997034471
0.9970763375
0.9971308943
0.9971704984
0.9972410372
0.9973497836
0.9976576469
0.9979046788
0.997875015
0.9974896638
0.9965833926
0.9957612341
0.9953034836
0.9950496457
0.9932613139
0.9932104432
0.9932704867
0.9934595822
0.9936812649
0.9938079395
0.9940225475
0.9943235054
0.9945438897
0.9946335687
0.9947265036
0.9946112708
0.9941176577
0.9935186199
0.9930490623
0.9929085774
0.9928073094
0.9926864104
0.9907276778
0.9906955053
0.9906791466
0.9907203568
0.9908694098
0.9910366321
0.991312709
0.9917325093
0.9921311522
0.992300952
0.9920789968
0.9916769946
0.991261936
0.9910888268
0.9911803195
0.9912958027
0.9913867491
0.9913188918
0.9889734005
0.9888627697
0.9887381462
0.988729061
0.988859227
0.9891045505
0.9894417371
0.9896172393
0.989740206
0.9896603432
0.9895531427
0.9898512267
0.9902060025
0.9904452985
0.9906197662
0.990740712
0.9907833254
0.98799073
0.9879680045
0.987874747
0.9878306718
0.9878930031
0.9879741418
0.987916382
0.9875570118
0.9876024477
0.9880083593
0.9884784127
0.9890712863
0.9897721831
0.9903253734
0.9906144655
0.9907775195
0.9908433232
0.9876503994
0.9876872044
0.9877002545
0.9876630935
0.9876477938
0.9875928542
0.9872863355
0.9869361167
0.9869555955
0.9874393389
0.9881822045
0.9888079647
0.9892548057
0.9896511456
0.9902077131
0.9905399205
0.9908330788
0.9878831386
0.9879421298
0.9880106278
0.9879830186
0.9879132563
0.9877081365
0.9873121776
0.9870690112
0.9870318752
0.9875007155
0.9881572307
0.9888784607
0.9893035492
0.9895297017
0.9897961184
0.9899186039
0.9902906794
0.9883445238
0.9884017479
0.988521969
0.988499898
0.9883639581
0.988016464
0.9876637554
0.9875744349
0.9876116412
0.9880466406
0.9886155462
0.9891274336
0.9894433033
0.9894717835
0.9892858552
0.9890465566
0.9893334366
0.9886784671
0.9886932212
0.9888214965
0.9887901668
0.9886367734
0.988350126
0.9881569936
0.9883790381
0.9886063065
0.9889745021
0.9892772912
0.9894087546
0.9892859598
0.9886770562
0.9880953396
0.987728611
0.9880380861
0.9889208853
0.988894122
0.9890275694
0.9890414701
0.9889426962
0.9888491642
0.9890622659
0.9894105943
0.9895605273
0.9897550187
0.9897788259
0.9894336438
0.9885452857
0.9877922662
0.987344793
0.9872791512
0.9875420167
0.9891162612
0.9892673297
0.9895812958
0.9896686087
0.9897130902
0.989822926
0.9900454953
0.9902490837
0.9903297802
0.9901063099
0.9897018644
0.9889556626
0.9884764564
0.9883566557
0.9879994107
0.9878900332
0.988123542
0.9899117712
0.9901362082
0.9903608526
0.9904363567
0.9905425904
0.9907296775
0.9908159624
0.9909333924
0.9906829227
0.9901826457
0.9897654354
0.9896571656
)
;

boundaryField
{
    inlet
    {
        type            fixedValue;
        value           nonuniform 0();
    }
    outlet
    {
        type            inletOutlet;
        inletValue      uniform 1;
        value           nonuniform List<scalar> 
31
(
1.105524595
1.105569705
1.104920174
1.103637785
1.101769033
1.097475974
1.091958079
1.08510843
1.076983432
1.068864033
1.060275677
1.051594935
1.043294028
1.035103011
1.026798956
1.018606636
1.010963606
1.00406685
0.9986122117
0.995062891
0.9927356481
0.9913809023
0.990846152
0.9908745355
0.9908804751
0.9902570204
0.9891260736
0.9878445596
0.9876003198
0.98825299
1.104718269
)
;
    }
    bottom
    {
        type            slip;
    }
    top
    {
        type            slip;
    }
    obstacle
    {
        type            zeroGradient;
    }
    defaultFaces
    {
        type            empty;
    }
    procBoundary23to17
    {
        type            processor;
        value           nonuniform List<scalar> 
20
(
1.107756871
1.107376739
1.105478755
1.108453871
1.108171547
1.108040051
1.108080975
1.108056313
1.107878821
1.107674692
1.107755038
1.108044189
1.108338256
1.108628095
1.108818115
1.108895815
1.10870202
1.10850085
1.108363632
1.108363632
)
;
    }
    procBoundary23to22
    {
        type            processor;
        value           nonuniform List<scalar> 
32
(
1.108765772
1.108990827
1.108649717
1.106699387
1.102791993
1.097034556
1.089950767
1.082126614
1.073890328
1.073890328
1.066127769
1.058219509
1.050080939
1.042047473
1.034227123
1.026404739
1.019087618
1.012439234
1.006458547
1.001211065
0.9968451082
0.9933542748
0.9907343605
0.989086076
0.989086076
0.9881441205
0.9877582696
0.9878686269
0.9882347014
0.988530838
0.9887267143
0.9890283781
)
;
    }
    procBoundary23to28
    {
        type            processor;
        value           uniform 0.9896593111;
    }
    procBoundary23to29
    {
        type            processor;
        value           nonuniform List<scalar> 
18
(
0.98976132
0.9898180492
0.9893868687
0.9891935684
0.98931224
0.9915831877
0.9916250677
0.991621348
0.9915945135
0.9915630655
0.9915707163
0.991568869
0.991165021
0.9911287509
0.9910732603
0.9910865356
0.98976132
0.9913506965
)
;
    }
}


// ************************************************************************* //
