/*--------------------------------*- C++ -*----------------------------------*\
  =========                 |
  \\      /  F ield         | OpenFOAM: The Open Source CFD Toolbox
   \\    /   O peration     | Website:  https://openfoam.org
    \\  /    A nd           | Version:  7
     \\/     M anipulation  |
\*---------------------------------------------------------------------------*/
FoamFile
{
    version     2.0;
    format      ascii;
    class       volScalarField;
    location    "1.4";
    object      T;
}
// * * * * * * * * * * * * * * * * * * * * * * * * * * * * * * * * * * * * * //

dimensions      [0 0 0 1 0 0 0];

internalField   nonuniform List<scalar> 
2222
(
2.030786533
2.012081649
1.993375574
1.974716397
1.956245983
1.938164666
1.920582034
1.903545174
1.887006844
1.870844678
1.854921088
1.83912529
1.823541138
1.808292697
1.79323429
1.778645843
1.764584572
1.750734226
1.737019275
1.723463688
1.709876184
1.696645263
1.683700896
1.671176989
1.658880934
1.646807649
1.635050839
1.623485221
1.612089333
1.600705914
1.589549523
1.578711463
2.030637621
2.011888237
1.99318748
1.974580906
1.956183767
1.9381614
1.920618903
1.903593866
1.887035513
1.870848619
1.854905964
1.839094638
1.823492392
1.808225992
1.793265938
1.778717273
1.764608558
1.750723934
1.737020664
1.72345274
1.709914107
1.696688239
1.683732586
1.671236471
1.658920099
1.646864057
1.635133285
1.623556403
1.612125687
1.600734933
1.589582823
1.578714946
2.030363147
2.011578499
1.992903684
1.974375547
1.956080242
1.938144435
1.920666848
1.903677412
1.887113099
1.870899049
1.854965817
1.839210817
1.823660517
1.808404855
1.793600449
1.779087671
1.764925972
1.751002879
1.73728546
1.723722057
1.710294522
1.697089969
1.684105042
1.671633472
1.659294758
1.64724517
1.635522099
1.623939279
1.612477794
1.601076191
1.589913777
1.579023692
2.030010689
2.011194312
1.992553957
1.974117529
1.955937296
1.938114583
1.920731102
1.903833988
1.887328249
1.871119867
1.855309361
1.839923211
1.824808206
1.809583021
1.795203527
1.781182611
1.767055778
1.753107703
1.739377545
1.72579715
1.71242679
1.699215822
1.686201573
1.673724391
1.661394889
1.64935429
1.637625538
1.626037601
1.614555253
1.603156171
1.591979197
1.581068621
2.029508089
2.010651884
1.992032792
1.973679091
1.955608214
1.937876961
1.920513704
1.903548349
1.886936444
1.870644373
1.854634091
1.838831055
1.823297846
1.80808307
1.793334349
1.778803999
1.764577001
1.750576367
1.736781242
1.72320318
1.709887892
1.696874224
1.683925876
1.67135276
1.659211765
1.64708047
1.635300978
1.623693041
1.612294936
1.600911893
1.589767303
1.578890036
2.028919619
2.010053295
1.991473957
1.973205884
1.955242267
1.937595082
1.920262345
1.903266095
1.886599487
1.870255608
1.854176005
1.838321214
1.822794871
1.807644384
1.792823053
1.778260369
1.76401758
1.749992983
1.73616858
1.722589766
1.709247729
1.696272724
1.683410314
1.670723569
1.658820792
1.646892123
1.635152409
1.623547814
1.612231761
1.600822288
1.589648772
1.578766851
2.028235159
2.009365057
1.99080963
1.972615893
1.954774908
1.937251303
1.91999933
1.903018943
1.886325286
1.869935895
1.853826067
1.837986008
1.822512591
1.807471591
1.792697869
1.778168618
1.763902081
1.749801248
1.735893927
1.72231147
1.70902387
1.696080867
1.683413171
1.670736632
1.658590501
1.648213451
1.636984813
1.625343587
1.614010841
1.602605885
1.591487028
1.580675235
2.027468099
2.008630096
1.990126227
1.972006269
1.954250107
1.936808306
1.919617036
1.902658092
1.885947981
1.869519957
1.853390576
1.837565675
1.822105276
1.806996654
1.792110036
1.7775225
1.763275978
1.749257515
1.735470536
1.721969156
1.708680587
1.695626181
1.683245806
1.671227016
1.658803447
1.646391684
1.634470103
1.622785081
1.611519449
1.600341793
1.58927238
1.578512855
2.02665076
2.007841863
1.989360506
1.97127644
1.953596982
1.936268414
1.919179675
1.902272453
1.885555201
1.869080611
1.852912679
1.837078317
1.821622428
1.806495992
1.79161559
1.777028772
1.762778067
1.748779764
1.735046504
1.721578056
1.708331667
1.695460061
1.682813367
1.670231506
1.658127144
1.64576259
1.633803404
1.622115187
1.610744028
1.600047108
1.589211767
1.578477763
2.025747193
2.006982063
1.988549888
1.970513006
1.952879987
1.935608877
1.918592045
1.901754166
1.885072241
1.868591843
1.852408189
1.836571575
1.821119433
1.805972691
1.791102944
1.776503698
1.762220756
1.748236282
1.734582634
1.721221491
1.70804881
1.695123812
1.682274415
1.669745579
1.657543559
1.645453662
1.633572364
1.621934305
1.610381
1.600112402
1.590754351
1.580265237
2.0248249
2.006086024
1.987682964
1.969671172
1.952074498
1.934871004
1.917946871
1.901197957
1.884569372
1.868095992
1.851890183
1.836024158
1.820544141
1.805372952
1.790524999
1.775946486
1.76168417
1.747725707
1.73406017
1.720696888
1.707577273
1.694623741
1.681781558
1.669391682
1.657039199
1.645032915
1.633224749
1.621458866
1.610147834
1.599441274
1.588792355
1.578011514
2.023886178
2.005149702
1.986772262
1.968797642
1.951233343
1.934055937
1.917171401
1.900489233
1.883935861
1.867510379
1.851313243
1.835431876
1.819930845
1.804748094
1.789913477
1.775349409
1.761116679
1.747182454
1.733486195
1.720092415
1.707037989
1.694199569
1.681434322
1.668890935
1.656414168
1.644443225
1.632817984
1.621131801
1.609936847
1.598888943
1.588246646
1.577888451
2.022962094
2.004203215
1.985823472
1.96786678
1.950327091
1.933177678
1.91633584
1.89971284
1.88322193
1.866842298
1.85066159
1.834771574
1.819257854
1.804082175
1.789267986
1.774729659
1.76054811
1.746690101
1.733052667
1.719660062
1.706499357
1.693634797
1.680953598
1.668430634
1.655963579
1.643894897
1.632312819
1.620769117
1.609654949
1.598556013
1.58777238
1.578535676
2.022072655
2.003277675
1.984874706
1.966928655
1.949415747
1.93228166
1.915440933
1.898827155
1.882371999
1.866041469
1.849893416
1.834014781
1.818517212
1.803390087
1.788635902
1.774147031
1.759961734
1.746039573
1.732354926
1.718940356
1.70573507
1.692930301
1.68040679
1.668051764
1.655658591
1.643491687
1.631827376
1.620554039
1.609371169
1.598035925
1.587459994
1.57715529
2.021182106
2.002358997
1.983915047
1.965952395
1.948450612
1.931333181
1.914495942
1.897871247
1.881407991
1.865095911
1.848993221
1.833167851
1.817724502
1.802662932
1.787967418
1.773513904
1.759307948
1.745330722
1.731633045
1.718260237
1.705129465
1.692370842
1.679800949
1.667484469
1.655257725
1.643073795
1.631168601
1.620221256
1.609324211
1.59794597
1.587117435
1.576571209
2.020255718
2.001420751
1.98293933
1.964959658
1.947474672
1.9303832
1.913549354
1.896899874
1.880409905
1.864095444
1.848017475
1.832239223
1.816864399
1.801892181
1.787291373
1.772925278
1.758762021
1.744768448
1.731014919
1.717567146
1.704410032
1.691636241
1.679079534
1.666853407
1.654822934
1.642821366
1.630948013
1.61955478
1.608590478
1.59752471
1.586476093
1.575831183
2.019240882
2.000426803
1.981929059
1.963932432
1.946457283
1.929395977
1.912578731
1.89590049
1.879343721
1.862977194
1.846915279
1.831222388
1.815963914
1.801108255
1.786609506
1.772317697
1.758164266
1.744113174
1.730281876
1.716787186
1.703681712
1.690997696
1.67853267
1.666315848
1.654326596
1.642454959
1.630581267
1.618812451
1.607782617
1.597166215
1.58614715
1.575411882
2.018070836
1.999277434
1.980787111
1.962802222
1.945360029
1.928347522
1.911563949
1.894874505
1.87827099
1.861863603
1.845805724
1.830173451
1.815011021
1.800253982
1.785847554
1.771645317
1.757550055
1.743503491
1.729644345
1.716117001
1.703014036
1.690338472
1.677886804
1.665631499
1.653631244
1.641916819
1.630352587
1.618738393
1.607365118
1.596604015
1.585856946
1.575017078
2.016742833
1.997972707
1.979517999
1.961583254
1.944202777
1.927254238
1.910519544
1.893839109
1.8771905
1.86070971
1.844622779
1.829060069
1.814041941
1.799433304
1.785123867
1.770950834
1.75684426
1.742786748
1.728916758
1.715376904
1.70229618
1.689687925
1.677364986
1.665260316
1.653237656
1.641279099
1.629633753
1.61811863
1.606633904
1.595850167
1.586039121
1.575417011
2.015240576
1.996459359
1.978041067
1.960184521
1.942895912
1.926029205
1.909353195
1.892697961
1.876039946
1.859535318
1.843443427
1.827916323
1.812972483
1.798447551
1.784198133
1.770066987
1.756013528
1.742028586
1.72822118
1.714724344
1.70165955
1.689045423
1.676751061
1.664697387
1.65264647
1.640579876
1.62886441
1.617470201
1.606453281
1.595543144
1.584705851
1.573911897
2.01357776
1.994763236
1.976386652
1.958638633
1.941480135
1.924725286
1.908131417
1.891530345
1.874893991
1.858373288
1.842248932
1.826724263
1.811852264
1.797444575
1.783293597
1.769205724
1.755162597
1.74120741
1.727455389
1.714008757
1.700949658
1.688321968
1.676079365
1.664157533
1.652332032
1.640530317
1.628674503
1.616954417
1.605852478
1.594867339
1.58408287
1.573734562
2.011868383
1.993005455
1.974656881
1.957010034
1.939978795
1.923329492
1.906804084
1.89025173
1.873668267
1.857208497
1.841141741
1.825657282
1.810801419
1.796398175
1.782253353
1.768180365
1.754176357
1.740317659
1.726716241
1.713427628
1.70047784
1.687881049
1.675543065
1.66344941
1.651585227
1.63988549
1.62813984
1.61648166
1.605298359
1.594306241
1.583537488
1.573597857
2.010105861
1.991194233
1.97287835
1.955329678
1.938423518
1.921887333
1.905448026
1.888970046
1.872469126
1.856091932
1.840076769
1.824596825
1.809720797
1.795310892
1.781186912
1.767155861
1.753196443
1.739381476
1.72584286
1.712654046
1.699805938
1.687260498
1.674899933
1.66273771
1.650853069
1.639213066
1.627721115
1.616337997
1.605084856
1.594156728
1.583675537
1.573180313
2.008382088
1.989468598
1.971218441
1.953766441
1.936959869
1.920511555
1.904144819
1.887732027
1.871305767
1.855019133
1.839090573
1.823665074
1.808802822
1.794383175
1.780247936
1.766215045
1.752253128
1.738439559
1.72494773
1.711893446
1.699233891
1.686862367
1.674679414
1.662669447
1.650736527
1.638836052
1.627124022
1.615679251
1.60446444
1.593540117
1.583188109
1.573012834
2.006685002
1.987842361
1.969701495
1.952331743
1.935578923
1.919181844
1.902876511
1.886535956
1.870195828
1.854008444
1.838175829
1.822816565
1.807974569
1.793543352
1.779400192
1.765393385
1.751487721
1.737733799
1.724253498
1.711140631
1.698422362
1.686073899
1.673991836
1.662078031
1.650190031
1.63831196
1.626616752
1.615194844
1.604056552
1.593094905
1.582608906
1.57293527
2.004960509
1.986272603
1.968312273
1.951056155
1.934345212
1.917966587
1.901695107
1.885404277
1.869111113
1.85296545
1.837184208
1.821887164
1.807099156
1.792702731
1.778584214
1.764608318
1.750728607
1.736969596
1.723444154
1.710281024
1.697562234
1.685277554
1.673289556
1.661444769
1.64965676
1.637936553
1.626340957
1.614932163
1.603949788
1.593308121
1.58272049
1.572028763
2.003233424
1.984770172
1.96703871
1.949914275
1.933231944
1.91683805
1.900561803
1.884290153
1.868029087
1.851924843
1.836204191
1.820989022
1.806284082
1.791944626
1.777850144
1.763888206
1.750030269
1.736309077
1.722839685
1.709757915
1.697135416
1.684909247
1.672909538
1.661023071
1.64923628
1.637545316
1.625968106
1.614542557
1.603502135
1.592846709
1.58230967
1.57152109
2.001473077
1.983247876
1.965765289
1.9488156
1.932202869
1.915799446
1.899489172
1.883201962
1.866952693
1.8508722
1.835176083
1.819996085
1.805354091
1.791102966
1.777096462
1.763195543
1.749353363
1.735614171
1.722117674
1.709019093
1.696393406
1.684175582
1.672208302
1.660376922
1.648647719
1.637000919
1.625486323
1.614094838
1.602968825
1.592218419
1.58177645
1.57137533
1.999761201
1.981755257
1.964482305
1.947691994
1.931152882
1.914732181
1.898355051
1.882014933
1.865764132
1.849722109
1.834074388
1.818943284
1.804358414
1.790170304
1.776211794
1.762326396
1.748470044
1.734715785
1.721222128
1.708138762
1.695524766
1.683321969
1.671415107
1.65969491
1.648084605
1.63652494
1.625143017
1.613956818
1.60287944
1.591881271
1.581319102
1.571167928
1.998120134
1.980294919
1.963151498
1.946478558
1.9300248
1.913611083
1.897171789
1.880770759
1.864528622
1.848573993
1.833042626
1.817997702
1.803449152
1.78927788
1.775352297
1.761520416
1.74771548
1.733995147
1.720510485
1.707416663
1.694792218
1.682599362
1.670722711
1.659009437
1.647365777
1.63576662
1.624388612
1.61332703
1.602452941
1.591535528
1.580815842
1.570525566
1.996428243
1.978771512
1.961685719
1.945022565
1.928564614
1.912130232
1.895652182
1.879222594
1.863012849
1.847173138
1.831802087
1.816902222
1.802436297
1.788270912
1.774297543
1.760417769
1.746603361
1.732914623
1.719478976
1.706424622
1.693813811
1.681612443
1.669726455
1.658010533
1.646370996
1.634772141
1.623362638
1.612333343
1.601839327
1.591599776
1.58117738
1.570441889
1.994409888
1.976925622
1.959832
1.943082787
1.926542561
1.910052029
1.893552003
1.877150051
1.861039756
1.845370084
1.83020314
1.81547886
1.8011049
1.786937554
1.772910605
1.758991255
1.745192363
1.731580107
1.718248243
1.705278961
1.692702335
1.680491484
1.66859291
1.656892364
1.645308701
1.633802659
1.622502015
1.611421736
1.600536573
1.589920538
1.579593922
1.569225148
1.991522266
1.974321818
1.957325098
1.940507159
1.923828343
1.907259723
1.890799559
1.874535175
1.858617637
1.843156544
1.828197647
1.813663762
1.799445729
1.785379967
1.771397384
1.757484901
1.743691018
1.730119255
1.716862327
1.703967263
1.691418525
1.679172398
1.667210752
1.655473094
1.643910785
1.632450138
1.62112924
1.609930459
1.598994367
1.588470619
1.578189393
1.567969605
1.987019183
1.970218345
1.953466248
1.936692819
1.919917798
1.903261569
1.886855686
1.870808817
1.855194048
1.840030402
1.825319755
1.810970754
1.796892706
1.782951354
1.769078197
1.755251517
1.741533455
1.728060389
1.714928067
1.702149904
1.689665078
1.677414451
1.665413151
1.653640427
1.642082831
1.630650033
1.619343565
1.608180633
1.597317605
1.586748006
1.576373241
1.566201319
1.980427771
1.964117615
1.94772283
1.931120746
1.914411988
1.897821441
1.881584078
1.865841759
1.850602883
1.835790156
1.821342578
1.807177362
1.793218913
1.77938327
1.765637304
1.751959955
1.738397473
1.725086694
1.712119415
1.699495861
1.687139348
1.67497867
1.663025898
1.651263294
1.639708217
1.628286673
1.617015675
1.60590879
1.595039693
1.584380276
1.573969069
1.563827202
1.971378421
1.955535161
1.93970872
1.923549568
1.907110143
1.890747101
1.87479706
1.859423383
1.844597052
1.83017724
1.816028228
1.802047425
1.788218681
1.774509249
1.760925886
1.74745988
1.734126665
1.721031683
1.708263036
1.695829782
1.683652284
1.671649214
1.659806926
1.648105346
1.636584265
1.625201447
1.613995609
1.602945228
1.592072385
1.581400609
1.571013363
1.560887507
1.960148284
1.944506427
1.929032619
1.913466167
1.897676603
1.881914813
1.866521314
1.85164348
1.83724552
1.82320124
1.809382967
1.795638074
1.781956768
1.768370709
1.754920598
1.741661264
1.728625031
1.715851474
1.703355992
1.691149107
1.679179224
1.667374711
1.655697047
1.644109763
1.632670581
1.621365649
1.610255721
1.599296536
1.588494265
1.577892204
1.567540944
1.557421338
1.945857498
1.930829159
1.915663859
1.900419844
1.885281264
1.870461386
1.85607528
1.842063139
1.828302936
1.814688228
1.80118526
1.787736381
1.774326101
1.760957126
1.74768829
1.734638309
1.721908543
1.709531694
1.697425066
1.68553505
1.673819565
1.662236933
1.650756936
1.639313042
1.627977047
1.616767561
1.605774692
1.594956185
1.584316892
1.573869147
1.563575832
1.553446521
1.927013166
1.913067347
1.898837445
1.884361536
1.869945851
1.855916655
1.842464662
1.8294939
1.816732475
1.803891973
1.790857453
1.777678689
1.764549284
1.751563545
1.738740788
1.726138249
1.71382024
1.701843277
1.690142568
1.678658587
1.667332249
1.65610489
1.644921639
1.633684684
1.622470313
1.611340482
1.600448511
1.589776511
1.579311007
1.569023885
1.558830585
1.548762343
1.90433413
1.891440602
1.878132464
1.864682894
1.851426205
1.838505073
1.826013035
1.813974768
1.802243063
1.790443932
1.778269812
1.765664974
1.752884939
1.740189696
1.727741868
1.715642223
1.703885307
1.692442644
1.681208199
1.670134335
1.659200132
1.648386251
1.637627645
1.626764365
1.61581712
1.604837438
1.594041595
1.583482976
1.573165501
1.563028912
1.552966313
1.543029751
1.87737017
1.865689118
1.853676008
1.841522968
1.829506972
1.817749715
1.806339398
1.795320739
1.784615937
1.77387607
1.762742565
1.751084486
1.739062648
1.726919643
1.714907747
1.703271156
1.692065601
1.681232743
1.670579903
1.659986082
1.649406249
1.63887821
1.628436177
1.617965285
1.607438815
1.596815871
1.586275656
1.575900569
1.565733259
1.555735363
1.545813211
1.536036234
1.847457133
1.836678957
1.825877492
1.815122263
1.804451255
1.793877541
1.783501221
1.773452189
1.763768041
1.754119709
1.744112129
1.733561059
1.72253928
1.711229448
1.699885353
1.688826567
1.678174326
1.667924173
1.657886807
1.6478945
1.637815261
1.627641852
1.617476314
1.607309051
1.597177932
1.587011853
1.576918079
1.566913925
1.55701323
1.547209853
1.537448866
1.527837311
1.816233938
1.806129809
1.796250892
1.786625597
1.777171704
1.767798775
1.758521681
1.74938303
1.740484554
1.731676822
1.722683592
1.713245449
1.703265825
1.692870677
1.682332179
1.671999208
1.661988158
1.652312097
1.642819334
1.633389825
1.623877682
1.614218578
1.604500868
1.59475701
1.585090681
1.575441958
1.565880855
1.556356893
1.546838227
1.537337423
1.527821339
1.518423062
1.785036143
1.775424344
1.766166366
1.75726854
1.748615796
1.740186316
1.73197056
1.723782878
1.715627039
1.707471538
1.699299596
1.690904153
1.681991341
1.672555523
1.662848927
1.653247841
1.643901429
1.634852625
1.625943082
1.617075048
1.608113865
1.59898272
1.589778392
1.580546291
1.571416707
1.562330114
1.553329444
1.544310618
1.5352049
1.526055507
1.516837023
1.507702246
1.755440752
1.746067036
1.737126656
1.728614134
1.720420352
1.712553288
1.705049607
1.69764635
1.690138377
1.682491481
1.674875248
1.667144189
1.658945248
1.650291611
1.641413852
1.632604133
1.623971686
1.615579548
1.607264135
1.598952763
1.590537687
1.581952199
1.573309895
1.564666185
1.5561546
1.547679338
1.539237408
1.530692501
1.521969553
1.51314587
1.504197173
1.495300152
1.72826457
1.71888673
1.710230304
1.702175171
1.694296372
1.68639713
1.678971211
1.671913398
1.664886257
1.657673523
1.650394361
1.643027909
1.635323817
1.627353616
1.619283895
1.611279193
1.603354077
1.59559514
1.587841688
1.580025359
1.572066028
1.56395618
1.555849049
1.547776984
1.539840182
1.531901062
1.523939986
1.515826617
1.507502215
1.499060282
1.490427969
1.4817944
1.705370475
1.695895211
1.687115897
1.67877465
1.670434519
1.662196407
1.654579677
1.647411413
1.640405974
1.633338904
1.626137832
1.618801894
1.611384511
1.604042333
1.596748069
1.589494971
1.582186573
1.574945456
1.567640715
1.56023492
1.552625499
1.544896338
1.537271385
1.529721678
1.522287663
1.51480034
1.507248123
1.499523521
1.491595599
1.483576582
1.475333322
1.467022398
1.686681726
1.676785442
1.667370783
1.658233128
1.649203782
1.640470827
1.632572143
1.625090706
1.617837241
1.610531583
1.60308357
1.595564474
1.588348075
1.581651768
1.575089531
1.56845226
1.5615538
1.554672483
1.547655994
1.540502346
1.533113338
1.525671799
1.518438466
1.511314673
1.50430387
1.497230796
1.490081026
1.482741083
1.475198587
1.467600337
1.459789761
1.451881662
1.674798009
1.665272402
1.65532067
1.644775935
1.634646331
1.625596119
1.616082985
1.606838171
1.598424616
1.590316226
1.582318388
1.574490985
1.567306293
1.560819295
1.554304156
1.547613567
1.540667417
1.533877108
1.526928685
1.519959552
1.512935555
1.505986695
1.499250738
1.492544057
1.485891989
1.479174606
1.472401589
1.46544812
1.458262162
1.45104116
1.443659755
1.436213452
1.65858467
1.649093913
1.639373154
1.629432499
1.619521568
1.610325082
1.6007163
1.590901375
1.581618882
1.572899066
1.564605186
1.556671231
1.549030133
1.541782403
1.534682448
1.527589629
1.520259968
1.513271678
1.506571832
1.49993436
1.493288514
1.486702105
1.48018252
1.473656344
1.467267065
1.46097497
1.454756497
1.448357643
1.441603614
1.434720967
1.427669471
1.420621452
1.646849664
1.636804978
1.626940572
1.617219015
1.6076939
1.59779193
1.588917457
1.580249409
1.571224782
1.562657873
1.55362818
1.544262165
1.535366649
1.526902861
1.519175021
1.512107289
1.505049444
1.497514124
1.490164687
1.482945967
1.475979553
1.469226813
1.462611288
1.45614521
1.450022148
1.44400035
1.437892084
1.431550958
1.424903022
1.418212236
1.411422047
1.404732302
1.636213619
1.625597343
1.615044167
1.604511368
1.594271447
1.584120661
1.574836918
1.566174361
1.557445498
1.548929232
1.540330424
1.531310398
1.522244166
1.513538834
1.505619667
1.498386322
1.491425921
1.483416254
1.474923323
1.467362801
1.460063781
1.452689705
1.445758471
1.439324659
1.433234368
1.427189865
1.421066106
1.414813849
1.408385976
1.40193303
1.395349716
1.388884948
1.628790304
1.617581907
1.606733267
1.595930474
1.585052044
1.574203456
1.564216654
1.555117844
1.546406246
1.537537648
1.529679524
1.522426412
1.514134183
1.505539348
1.496938466
1.487655168
1.479591688
1.471638358
1.462769862
1.454791434
1.447184897
1.439269401
1.431794544
1.425107266
1.418876371
1.412643166
1.406438245
1.400090187
1.393673287
1.387317145
1.380916562
1.374528872
1.623302567
1.611489834
1.599897078
1.58827283
1.576645938
1.565307836
1.554594723
1.544611318
1.535248452
1.526346788
1.518093507
1.510081783
1.501985623
1.493623112
1.484815903
1.476505219
1.468254935
1.460580539
1.454244823
1.446316442
1.43667919
1.427902043
1.420067797
1.413377494
1.406985109
1.400473542
1.394289729
1.387603972
1.380582456
1.373643596
1.366965975
1.360459571
1.619030749
1.606860165
1.594803673
1.582679156
1.570430969
1.558607422
1.54725958
1.536591187
1.526781406
1.517652986
1.508986895
1.500342572
1.491969737
1.483514404
1.474631651
1.467247644
1.459470006
1.451139736
1.443400867
1.434469017
1.426834532
1.420482298
1.413539572
1.405951986
1.397425537
1.389781689
1.383157478
1.376237921
1.368862747
1.361783776
1.354875569
1.348149815
1.615530895
1.603012931
1.590330815
1.577613225
1.564985401
1.552857873
1.541164509
1.530424604
1.520555084
1.51094975
1.501358196
1.49228123
1.483660281
1.474696772
1.465840635
1.457511425
1.449100768
1.441714812
1.433583135
1.425391678
1.418530245
1.411406619
1.403612568
1.395180676
1.388359944
1.382534912
1.375279546
1.367238445
1.359466081
1.352136817
1.345224957
1.338236734
1.599772591
1.586580256
1.573318743
1.560361879
1.548087564
1.536439261
1.525501449
1.514951605
1.504768355
1.494988226
1.485588045
1.475870236
1.466438783
1.458591634
1.450377113
1.441982201
1.43403194
1.42517041
1.417205108
1.411167502
1.403456797
1.395266283
1.387174578
1.38085759
1.37435988
1.366674196
1.358870955
1.351353975
1.3437654
1.336625453
1.330642582
1.596487572
1.582897646
1.569111556
1.555905394
1.543672093
1.532114453
1.521103219
1.510918092
1.501148037
1.490871881
1.480637283
1.470859856
1.461339537
1.451792856
1.442392921
1.433740605
1.425575622
1.418578318
1.411531737
1.402807614
1.39570815
1.389919733
1.383035312
1.375462081
1.367485201
1.360130644
1.351953286
1.344129181
1.336507554
1.329404649
1.323391923
1.59275213
1.578688439
1.564646192
1.551638408
1.539800915
1.528707015
1.518095467
1.507709848
1.496946245
1.486219593
1.475861002
1.465593932
1.455297439
1.445214352
1.436077141
1.428137033
1.419841738
1.411301858
1.403783136
1.39578208
1.388535599
1.381411169
1.374377693
1.366686959
1.359085395
1.351460509
1.346015997
1.339814357
1.332624599
1.32551564
1.31739827
1.588169193
1.574060748
1.560326334
1.547752291
1.536206663
1.525308454
1.514649771
1.504015117
1.493560187
1.483232269
1.47257555
1.461774958
1.451473035
1.44183541
1.432597681
1.423200475
1.414120756
1.405577079
1.397576129
1.3905761
1.383476696
1.375467017
1.367798659
1.360154873
1.352190603
1.344861372
1.338150459
1.331658964
1.32515941
1.317762419
1.310712073
1.583029296
1.569001596
1.555616473
1.543444078
1.532298523
1.521893392
1.511765193
1.501628021
1.491173116
1.480346775
1.469366004
1.458550938
1.448194229
1.438061765
1.428029397
1.418235723
1.409546239
1.401972064
1.393948888
1.385107741
1.376512037
1.368608064
1.360931147
1.353576179
1.346347563
1.339222098
1.331830123
1.325069233
1.318833481
1.311398502
1.304979677
1.57708555
1.563351789
1.550739277
1.539433956
1.529003345
1.519070311
1.509088323
1.498747014
1.488160498
1.477522859
1.466642157
1.455578221
1.444741183
1.434514293
1.425005522
1.416024754
1.407388571
1.398418936
1.389317535
1.380191416
1.371273211
1.363498129
1.356472839
1.349037487
1.340968603
1.333785801
1.326976643
1.31979251
1.312944587
1.307588906
1.300957718
1.570753757
1.557835736
1.546152728
1.535451349
1.525350206
1.515595853
1.5058162
1.49597879
1.486007582
1.47541286
1.464136893
1.452873683
1.442455056
1.43259822
1.42283624
1.413229557
1.403835916
1.394415711
1.385523833
1.377277397
1.368961854
1.360382964
1.351926998
1.343877012
1.336399185
1.329233547
1.322031167
1.314797136
1.30792435
1.30130943
1.294332482
1.564386361
1.552255631
1.541226491
1.531047981
1.521542118
1.512501597
1.503474832
1.493937418
1.483635094
1.47257642
1.461114337
1.449953852
1.439336427
1.429084063
1.419256929
1.410135226
1.401605605
1.39292881
1.384018921
1.374713897
1.365281486
1.356125527
1.347482603
1.339687734
1.332620736
1.325634368
1.3186189
1.311686977
1.304568993
1.296930486
1.289751789
1.557716872
1.546388302
1.536231291
1.526931181
1.518107277
1.509303119
1.500160687
1.490498301
1.480234362
1.469427751
1.458312104
1.447107161
1.436414035
1.426791974
1.417928727
1.409130781
1.399884668
1.390305363
1.380625118
1.371040566
1.362203552
1.353944858
1.34572825
1.337711841
1.329730035
1.321900786
1.314186789
1.306610332
1.299202625
1.291669438
1.284260086
1.551122255
1.540818421
1.531527064
1.522811843
1.514365674
1.505855565
1.496918422
1.487384045
1.477200668
1.466350592
1.455049349
1.444069097
1.434072362
1.424603993
1.415372221
1.406084375
1.396595996
1.387389662
1.378799412
1.369958884
1.360798693
1.351581038
1.342720588
1.334324202
1.326100488
1.318142695
1.310312419
1.302778841
1.295572349
1.288348934
1.28115866
1.54480842
1.535459265
1.526832878
1.518538431
1.510272564
1.50171081
1.492740066
1.483348787
1.473443766
1.462841371
1.451854082
1.441021057
1.430601527
1.420825821
1.411904698
1.403636483
1.395411266
1.386697648
1.377135034
1.367173744
1.357337099
1.34823567
1.34024135
1.332462951
1.324452367
1.316608766
1.308970623
1.301379966
1.29349791
1.285425292
1.27773288
1.53891522
1.530343111
1.522129332
1.51406172
1.505918543
1.497666552
1.489192778
1.480050292
1.469923668
1.458988001
1.447792211
1.436885763
1.42715285
1.4186709
1.410687864
1.402381852
1.393445723
1.383824106
1.374051247
1.365040205
1.356135805
1.347379628
1.338803679
1.330329027
1.322070819
1.314060237
1.306146046
1.298181741
1.290055839
1.282099847
1.274969138
1.533104673
1.5249896
1.517120425
1.509284803
1.501375531
1.493418617
1.484989509
1.475685424
1.465286395
1.454176359
1.443297368
1.433657634
1.425034458
1.416519235
1.407872643
1.398913319
1.389766126
1.380905199
1.372470282
1.363345942
1.353847836
1.344587055
1.335721334
1.327539597
1.320072716
1.312558914
1.304747584
1.296856866
1.288972457
1.281192473
1.273363295
1.527216921
1.519620836
1.512219503
1.504927066
1.497629806
1.489763131
1.480825751
1.470843693
1.460100577
1.449341892
1.439380129
1.430137559
1.42116486
1.412468403
1.404162851
1.39627447
1.388371799
1.379889507
1.37065143
1.361188159
1.35208048
1.343305605
1.334935397
1.327011275
1.318972296
1.310776515
1.302694363
)
;

boundaryField
{
    inlet
    {
        type            fixedValue;
        value           nonuniform 0();
    }
    outlet
    {
        type            inletOutlet;
        inletValue      nonuniform 0();
        value           nonuniform 0();
    }
    bottom
    {
        type            slip;
    }
    top
    {
        type            slip;
    }
    obstacle
    {
        type            zeroGradient;
    }
    defaultFaces
    {
        type            empty;
    }
    procBoundary4to3
    {
        type            processor;
        value           nonuniform List<scalar> 
62
(
2.049558525
2.049480586
2.04927919
2.049002421
2.048575277
2.048027995
2.047356532
2.046568506
2.045723037
2.044794142
2.043861335
2.042933423
2.042023297
2.041131801
2.04020878
2.039227645
2.03814049
2.036927959
2.035581716
2.034109132
2.032516599
2.0308887
2.029233575
2.027592904
2.025941879
2.024210368
2.02240316
2.020521661
2.018634703
2.016756164
2.01475855
2.012361978
2.009036654
2.00411286
1.997063096
1.98767146
1.976066597
1.960783678
1.940841806
1.916960077
1.888909942
1.858252219
1.826402104
1.794874197
1.765137256
1.738222215
1.715358429
1.697123337
1.684745104
1.66844609
1.657172124
1.64724757
1.64039568
1.635283535
1.631183757
1.627697898
1.612485474
1.612485474
1.609291021
1.605938128
1.60165608
1.596744191
)
;
    }
    procBoundary4to5
    {
        type            processor;
        value           nonuniform List<scalar> 
69
(
1.568189212
1.568155833
1.568453239
1.57048931
1.568328577
1.56821073
1.570145202
1.567985094
1.567926536
1.569738162
1.567434924
1.567371713
1.568750111
1.566317296
1.56603884
1.566943399
1.564723433
1.564170922
1.564393252
1.563461971
1.563525776
1.564671673
1.562555538
1.562625837
1.563134813
1.561907991
1.561308506
1.56121395
1.560891561
1.56040231
1.559829281
1.558832488
1.557815436
1.556070896
1.553756152
1.550871204
1.547433797
1.543436431
1.53877251
1.533145418
1.526304863
1.518263286
1.509039953
1.498563163
1.486413794
1.473167796
1.458675413
1.44386536
1.428595958
1.413420505
1.397931943
1.38233664
1.367979395
1.353809016
1.341476314
1.331105493
1.325007614
1.316463819
1.30961258
1.305396486
1.298389604
1.292696406
1.287058588
1.282779437
1.277595728
1.274201952
1.270395266
1.268106626
1.265612598
)
;
    }
    procBoundary4to9
    {
        type            processor;
        value           nonuniform List<scalar> 9(1.591000888 1.584429323 1.577491629 1.570216411 1.562733811 1.555332571 1.548287354 1.541721755 1.535208336);
    }
    procBoundary4to10
    {
        type            processor;
        value           nonuniform List<scalar> 
32
(
1.29468851
1.28662592
1.278475092
1.270530289
1.52145777
1.51448939
1.507568992
1.500460031
1.492883513
1.484562177
1.47537313
1.465409194
1.454999133
1.444789371
1.435226684
1.426341078
1.418186491
1.410403499
1.402711002
1.394687493
1.38600372
1.37675491