/*--------------------------------*- C++ -*----------------------------------*\
  =========                 |
  \\      /  F ield         | OpenFOAM: The Open Source CFD Toolbox
   \\    /   O peration     | Website:  https://openfoam.org
    \\  /    A nd           | Version:  7
     \\/     M anipulation  |
\*---------------------------------------------------------------------------*/
FoamFile
{
    version     2.0;
    format      ascii;
    class       volScalarField;
    location    "1.9";
    object      p;
}
// * * * * * * * * * * * * * * * * * * * * * * * * * * * * * * * * * * * * * //

dimensions      [1 -1 -2 0 0 0 0];

internalField   nonuniform List<scalar> 
22
(
1.010737349
1.012101042
1.012319243
1.001060778
1.014867687
1.013712316
0.9815599234
0.985330246
1.017481959
1.018811714
0.9858622925
0.9496272054
1.014936154
1.020343452
0.9915414297
0.9081177146
0.9726227953
0.9883120362
0.8363005619
0.8792363814
0.9519292633
0.8962415938
)
;

boundaryField
{
    inlet
    {
        type            fixedValue;
        value           nonuniform 0();
    }
    outlet
    {
        type            zeroGradient;
    }
    bottom
    {
        type            slip;
    }
    top
    {
        type            slip;
    }
    obstacle
    {
        type            zeroGradient;
    }
    defaultFaces
    {
        type            empty;
    }
    procBoundary28to21
    {
        type            processor;
        value           nonuniform List<scalar> 2(0.9292490966 0.8889463838);
    }
    procBoundary28to22
    {
        type            processor;
        value           nonuniform List<scalar> 3(1.016862281 1.015682818 1.016305585);
    }
    procBoundary28to27
    {
        type            processor;
        value           nonuniform List<scalar> 6(0.8499028346 0.7902804817 0.8220820772 0.8220820772 0.8208778054 0.9713221461);
    }
    procBoundary28to29
    {
        type            processor;
        value           nonuniform List<scalar> 7(0.9815202017 0.9815202017 0.9859130979 0.9897915166 0.9953140707 0.9976823983 0.9864889058);
    }
    procBoundary28to34
    {
        type            processor;
        value           nonuniform List<scalar> 4(0.8821222076 0.891590183 0.8821222076 1.00835821);
    }
}


// ************************************************************************* //
