/*--------------------------------*- C++ -*----------------------------------*\
  =========                 |
  \\      /  F ield         | OpenFOAM: The Open Source CFD Toolbox
   \\    /   O peration     | Website:  https://openfoam.org
    \\  /    A nd           | Version:  7
     \\/     M anipulation  |
\*---------------------------------------------------------------------------*/
FoamFile
{
    version     2.0;
    format      ascii;
    class       volScalarField;
    location    "4.5";
    object      rho;
}
// * * * * * * * * * * * * * * * * * * * * * * * * * * * * * * * * * * * * * //

dimensions      [1 -3 0 0 0 0 0];

internalField   nonuniform List<scalar> 
555
(
1.915864458
1.895871271
1.875715813
1.863258061
1.855117531
1.846981212
1.839703443
1.835692057
1.831844875
1.82525968
1.819373041
1.818255711
1.817114225
1.814953097
1.811401474
1.809799295
1.810209772
1.809601022
1.915864888
1.895872335
1.875716113
1.863257144
1.855116914
1.84698122
1.839703399
1.835691971
1.831845079
1.825260418
1.8193729
1.818255358
1.817114016
1.814953148
1.811401688
1.809799114
1.810209613
1.809601218
1.808131042
1.807956677
1.808488601
1.810290716
1.812779341
1.814842026
1.816507065
1.818122401
1.820643198
1.823354208
1.825189789
1.825962724
1.826802194
1.826873352
1.826414655
1.825849208
1.835447845
1.849333412
1.861820492
1.86216554
1.859287583
1.85574074
1.854515586
1.852680715
1.848713319
1.842796891
1.839140444
1.836653745
1.833867144
1.829400649
1.823953888
1.822455674
1.821993904
1.820802758
1.819616407
1.819351103
1.819712776
1.82085415
1.821162738
1.82085038
1.819961432
1.819820002
1.819888459
1.819632306
1.819760814
1.820338624
1.820750036
1.820887078
1.784894745
1.803926503
1.821392682
1.84336718
1.850271005
1.85573398
1.8591424
1.858437007
1.857542133
1.856528626
1.854040334
1.851058743
1.849143974
1.84654244
1.843362953
1.838512499
1.834018932
1.831670505
1.831149319
1.830016683
1.827864434
1.825660998
1.824814982
1.823623471
1.821102269
1.817824706
1.815206622
1.814670863
1.814079527
1.814117526
1.814776257
1.816440809
1.819317934
1.589173238
1.633912087
1.674129576
1.717925808
1.747381379
1.773806388
1.805521933
1.814641076
1.822299653
1.830527888
1.832261425
1.835257931
1.842526318
1.849597453
1.851514465
1.8530326
1.855381569
1.855319002
1.853937833
1.850900697
1.847391698
1.844083554
1.840932142
1.837708914
1.8332898
1.827820422
1.823331859
1.821304794
1.820252178
1.818881969
1.818344676
1.818877154
1.820214979
1.43822449
1.462319448
1.490336987
1.527530183
1.571664936
1.613228234
1.661561982
1.704065567
1.738011671
1.778175423
1.802355474
1.819221168
1.836936493
1.845468226
1.847511165
1.851971987
1.855240985
1.854933634
1.8537918
1.851001238
1.846186197
1.840911898
1.837328463
1.835945415
1.835176981
1.834236995
1.833271484
1.832051357
1.830798981
1.829187237
1.82693837
1.82461201
1.823536416
1.402010105
1.404453252
1.408963755
1.416778645
1.430274758
1.448628648
1.4746381
1.512045808
1.548445967
1.591117477
1.641165476
1.680829315
1.722876095
1.751975823
1.771117116
1.79403464
1.81175086
1.816617325
1.82424756
1.829030298
1.829213207
1.832309633
1.840293587
1.842492064
1.843290546
1.845147734
1.84770153
1.847690828
1.846331241
1.843911711
1.840744311
1.836855303
1.834148742
1.400024911
1.400068054
1.400192033
1.400507087
1.401283674
1.403001464
1.406262134
1.412731374
1.423278863
1.43895121
1.463940287
1.494042854
1.529514267
1.574837788
1.618753197
1.663437465
1.705886493
1.736411229
1.766465626
1.800075651
1.816267805
1.827193448
1.839322206
1.841839836
1.842808884
1.84565768
1.847253611
1.846907358
1.846013598
1.842693639
1.837493411
1.831940279
1.831866153
1.400005065
1.400005166
1.400005623
1.400007503
1.400014572
1.400038848
1.400111868
1.400318607
1.400844442
1.402032569
1.404560981
1.409543669
1.417827275
1.432043021
1.452547383
1.479300455
1.516729544
1.558017862
1.595704239
1.640924931
1.685432132
1.719452551
1.755743214
1.774407557
1.788467268
1.803248895
1.814503009
1.819132818
1.823847927
1.826901313
1.830316087
1.833443795
1.837069909
1.40000504
1.40000504
1.40000504
1.400005041
1.400005048
1.400005089
1.400005296
1.400006243
1.400010067
1.400024008
1.400068608
1.400206119
1.400562363
1.401436406
1.403383036
1.407274071
1.414150958
1.426305388
1.443195979
1.468555528
1.501959547
1.538702392
1.580380867
1.625214482
1.670390494
1.709797359
1.742648962
1.765898028
1.790558085
1.813059689
1.825971581
1.830531543
1.837070347
1.40000504
1.40000504
1.40000504
1.40000504
1.40000504
1.40000504
1.40000504
1.400005041
1.400005043
1.400005061
1.400005161
1.40000567
1.400007845
1.400016412
1.400045635
1.400138173
1.400387862
1.401049846
1.402479411
1.405620047
1.411228165
1.421333457
1.436517155
1.459314117
1.487408374
1.524928873
1.568170431
1.610864179
1.649092074
1.687912678
1.72700041
1.754710626
1.78017741
1.40000504
1.40000504
1.40000504
1.40000504
1.40000504
1.40000504
1.40000504
1.40000504
1.40000504
1.40000504
1.40000504
1.40000504
1.400005042
1.40000505
1.400005104
1.400005388
1.400006679
1.40001212
1.400031497
1.40009624
1.400277086
1.400777686
1.401878231
1.404378016
1.408927976
1.417769876
1.430659513
1.451441974
1.477159179
1.512810244
1.552615127
1.59629177
1.635976446
1.40000504
1.40000504
1.40000504
1.40000504
1.40000504
1.40000504
1.40000504
1.40000504
1.40000504
1.40000504
1.40000504
1.40000504
1.40000504
1.40000504
1.40000504
1.40000504
1.400005041
1.400005045
1.400005076
1.400005247
1.400006074
1.40000967
1.400022807
1.400068411
1.400200177
1.40057602
1.401433805
1.403483373
1.407243067
1.414571305
1.42613275
1.445822425
1.465300246
1.40000504
1.40000504
1.40000504
1.40000504
1.40000504
1.40000504
1.40000504
1.40000504
1.40000504
1.40000504
1.40000504
1.40000504
1.40000504
1.40000504
1.40000504
1.40000504
1.40000504
1.40000504
1.40000504
1.40000504
1.400005041
1.400005043
1.40000506
1.400005167
1.400005692
1.400008103
1.400017097
1.40005056
1.400148156
1.400442364
1.401109189
1.403098299
1.404695331
1.40000504
1.40000504
1.40000504
1.40000504
1.40000504
1.40000504
1.40000504
1.40000504
1.40000504
1.40000504
1.40000504
1.40000504
1.40000504
1.40000504
1.40000504
1.40000504
1.40000504
1.40000504
1.40000504
1.40000504
1.40000504
1.40000504
1.40000504
1.40000504
1.40000504
1.400005042
1.400005052
1.400005122
1.400005463
1.400007237
1.400012985
1.400070242
1.400032615
1.40000504
1.40000504
1.40000504
1.40000504
1.40000504
1.40000504
1.40000504
1.40000504
1.40000504
1.40000504
1.40000504
1.40000504
1.40000504
1.40000504
1.40000504
1.40000504
1.40000504
1.40000504
1.40000504
1.40000504
1.40000504
1.40000504
1.40000504
1.40000504
1.40000504
1.40000504
1.40000504
1.40000504
1.40000504
1.400005041
1.400005046
1.400005381
1.40000499
1.40000504
1.40000504
1.40000504
1.40000504
1.40000504
1.40000504
1.40000504
1.40000504
1.40000504
1.40000504
1.40000504
1.40000504
1.40000504
1.40000504
1.40000504
1.40000504
1.40000504
1.40000504
1.40000504
1.40000504
1.40000504
1.40000504
1.40000504
1.40000504
1.40000504
1.40000504
1.40000504
1.40000504
1.40000504
1.40000504
1.40000504
1.400005041
1.400005029
1.40000504
1.40000504
1.40000504
1.40000504
1.40000504
1.40000504
1.40000504
1.40000504
1.40000504
)
;

boundaryField
{
    inlet
    {
        type            calculated;
        value           nonuniform 0();
    }
    outlet
    {
        type            calculated;
        value           nonuniform 0();
    }
    bottom
    {
        type            calculated;
        value           nonuniform 0();
    }
    top
    {
        type            calculated;
        value           nonuniform 0();
    }
    obstacle
    {
        type            calculated;
        value           nonuniform List<scalar> 
51
(
1.915864888
1.895872335
1.875716113
1.863257144
1.855116914
1.84698122
1.839703399
1.835691971
1.831845079
1.825260418
1.8193729
1.818255358
1.817114016
1.814953148
1.811401688
1.809799114
1.810209613
1.809601218
1.808131042
1.807956677
1.808488601
1.810290716
1.812779341
1.814842026
1.816507065
1.818122401
1.820643198
1.823354208
1.825189789
1.825962724
1.826802194
1.826873352
1.826414655
1.915864458
1.895871271
1.875715813
1.863258061
1.855117531
1.846981212
1.839703443
1.835692057
1.831844875
1.82525968
1.819373041
1.818255711
1.817114225
1.814953097
1.811401474
1.809799295
1.810209772
1.809601022
)
;
    }
    defaultFaces
    {
        type            empty;
    }
    procBoundary20to13
    {
        type            processor;
        value           uniform 1.931418747;
    }
    procBoundary20to14
    {
        type            processor;
        value           nonuniform List<scalar> 
19
(
1.82584843
1.835447415
1.849334106
1.861820601
1.862165444
1.859287326
1.855740839
1.854515749
1.852680727
1.848712959
1.842796713
1.839140761
1.836654106
1.833867269
1.829400336
1.823953644
1.822455848
1.821993935
1.808130863
)
;
    }
    procBoundary20to19
    {
        type            processor;
        value           nonuniform List<scalar> 
16
(
1.93141844
1.812214915
1.748703718
1.544482436
1.422775586
1.400883257
1.40001091
1.400005044
1.40000504
1.40000504
1.40000504
1.40000504
1.40000504
1.40000504
1.40000504
1.40000504
)
;
    }
    procBoundary20to25
    {
        type            processor;
        value           uniform 1.40000504;
    }
    procBoundary20to26
    {
        type            processor;
        value           nonuniform List<scalar> 
34
(
1.40000504
1.40000504
1.40000504
1.40000504
1.40000504
1.40000504
1.40000504
1.40000504
1.40000504
1.40000504
1.40000504
1.40000504
1.40000504
1.40000504
1.40000504
1.40000504
1.40000504
1.40000504
1.40000504
1.40000504
1.40000504
1.40000504
1.40000504
1.40000504
1.40000504
1.40000504
1.40000504
1.40000504
1.40000504
1.40000504
1.40000504
1.40000504
1.40000504
1.40000504
)
;
    }
    procBoundary20to27
    {
        type            processor;
        value           nonuniform List<scalar> 
16
(
1.453404448
1.756584401
1.814366213
1.818594528
1.820420402
1.826332143
1.831448682
1.839609614
1.837288607
1.799384844
1.734874397
1.581947954
1.448918836
1.40594749
1.400343944
1.400014745
)
;
    }
}


// ************************************************************************* //
