/*--------------------------------*- C++ -*----------------------------------*\
  =========                 |
  \\      /  F ield         | OpenFOAM: The Open Source CFD Toolbox
   \\    /   O peration     | Website:  https://openfoam.org
    \\  /    A nd           | Version:  7
     \\/     M anipulation  |
\*---------------------------------------------------------------------------*/
FoamFile
{
    version     2.0;
    format      ascii;
    class       volScalarField;
    location    "4.8";
    object      p;
}
// * * * * * * * * * * * * * * * * * * * * * * * * * * * * * * * * * * * * * //

dimensions      [1 -1 -2 0 0 0 0];

internalField   nonuniform List<scalar> 
143
(
1.003358939
1.031155858
1.138824208
1.279166615
1.385941265
1.384205609
1.377467725
1.334829765
1.000000117
1.000255233
1.004652844
1.036930694
1.139770236
1.304407465
1.352933734
1.37825494
1.375593729
1
1.000012636
1.00041287
1.005843585
1.044565415
1.14632428
1.267990615
1.373145507
1.374177271
1
1.000000419
1.000022547
1.000584462
1.008440118
1.043559706
1.146545266
1.29995943
1.334950721
1
1.000000009
1.000000783
1.000038218
1.001002477
1.007807467
1.05141341
1.153287067
1.25948926
1
1
1.000000018
1.000001705
1.000073566
1.000910828
1.010928444
1.047975938
1.149886943
1
1
1
1.000000052
1.000003458
1.000068993
1.001448214
1.009581928
1.056381857
1
1
1
1.000000001
1.0000001
1.000003504
1.000123037
1.001253989
1.012960341
1
1
1
1
1.000000002
1.000000119
1.00000685
1.000108881
1.001848996
1
1
1
1
1
1.000000003
1.000000247
1.000006192
1.000166912
1
1
1
1
1
1
1.000000006
1.000000226
1.000009702
1
1
1
1
1
1
1
1.000000005
1.000000372
1
1
1
1
1
1
1
1
1.00000001
1
1
1
1
1
1
1
1
1
1
1
1
1
1
1
1
1
1
1
1
1
1
1
1
1
1
1
)
;

boundaryField
{
    inlet
    {
        type            fixedValue;
        value           nonuniform 0();
    }
    outlet
    {
        type            zeroGradient;
    }
    bottom
    {
        type            slip;
    }
    top
    {
        type            slip;
    }
    obstacle
    {
        type            zeroGradient;
    }
    defaultFaces
    {
        type            empty;
    }
    procBoundary33to26
    {
        type            processor;
        value           nonuniform List<scalar> 6(0.9999999824 0.9999999998 1 1 1 1);
    }
    procBoundary33to27
    {
        type            processor;
        value           nonuniform List<scalar> 10(1.026935213 1.125774421 1.287871954 1.382674569 1.407620045 1.398600621 1.343652878 1.242009547 1.000013608 1.000013608);
    }
    procBoundary33to32
    {
        type            processor;
        value           nonuniform List<scalar> 9(1 1 1 1 1 1 1 1 1);
    }
    procBoundary33to34
    {
        type            processor;
        value           nonuniform List<scalar> 
16
(
1.248598921
1.336922408
1.367375833
1.356593066
1.352355649
1.290155826
1.153819248
1.051909443
1.011356322
1.001590506
1.00014405
1.000008517
1.000000343
1.00000001
1
1
)
;
    }
}


// ************************************************************************* //
