/*--------------------------------*- C++ -*----------------------------------*\
  =========                 |
  \\      /  F ield         | OpenFOAM: The Open Source CFD Toolbox
   \\    /   O peration     | Website:  https://openfoam.org
    \\  /    A nd           | Version:  7
     \\/     M anipulation  |
\*---------------------------------------------------------------------------*/
FoamFile
{
    version     2.0;
    format      ascii;
    class       volScalarField;
    location    "0.4";
    object      p;
}
// * * * * * * * * * * * * * * * * * * * * * * * * * * * * * * * * * * * * * //

dimensions      [1 -1 -2 0 0 0 0];

internalField   nonuniform List<scalar> 8(0.9425449241 0.9435450108 1.014318882 0.9700840804 1.031645193 1.00458478 1.027990334 1.018997405);

boundaryField
{
    inlet
    {
        type            fixedValue;
        value           nonuniform 0();
    }
    outlet
    {
        type            zeroGradient;
    }
    bottom
    {
        type            slip;
    }
    top
    {
        type            slip;
    }
    obstacle
    {
        type            zeroGradient;
    }
    defaultFaces
    {
        type            empty;
    }
    procBoundary34to28
    {
        type            processor;
        value           nonuniform List<scalar> 2(0.930803007 0.960798288);
    }
    procBoundary34to33
    {
        type            processor;
        value           nonuniform List<scalar> 4(1.039031517 1.05394835 1.039140988 1.016093133);
    }
    procBoundary34to35
    {
        type            processor;
        value           nonuniform List<scalar> 4(0.9704973421 0.9722835489 0.977249131 0.9939206076);
    }
}


// ************************************************************************* //
