/*--------------------------------*- C++ -*----------------------------------*\
  =========                 |
  \\      /  F ield         | OpenFOAM: The Open Source CFD Toolbox
   \\    /   O peration     | Website:  https://openfoam.org
    \\  /    A nd           | Version:  7
     \\/     M anipulation  |
\*---------------------------------------------------------------------------*/
FoamFile
{
    version     2.0;
    format      ascii;
    class       volScalarField;
    location    "4.3";
    object      p;
}
// * * * * * * * * * * * * * * * * * * * * * * * * * * * * * * * * * * * * * //

dimensions      [1 -1 -2 0 0 0 0];

internalField   nonuniform List<scalar> 
138
(
1
1
1
1
1
1
1
1
1
1
1
1
1
1
1
1
1
1
1
1
1
1
1
1
1
1
1
1
1
1
1
1
1
1
1
1
1.000000009
1
1
1
1
1
1
1
1.000000005
1.00000035
1
1
1
1
1
1
1.000000004
1.000000209
1.000009242
1
1
1
1
1
1.000000003
1.000000177
1.0000056
1.00015726
1
1
1
1
1.000000001
1.000000126
1.000005561
1.000100231
1.001736712
1
1
1
1.000000001
1.000000064
1.000003702
1.000109441
1.001205529
1.012242282
1
1
1
1.000000054
1.000002334
1.00007459
1.00137289
1.009406411
1.054349249
1
1
1.000000015
1.000002031
1.000055328
1.001000078
1.010601453
1.048095308
1.147585908
1
1.000000009
1.000000667
1.000048415
1.00081231
1.00867276
1.050578576
1.150068504
1.263171365
1
1.000000448
1.00001884
1.000737355
1.007338327
1.046838284
1.146276135
1.294785501
1.334830211
1
1.000014005
1.000346307
1.007071606
1.040694284
1.150206783
1.275309645
1.369175222
1.367307276
1.00000011
1.000284344
1.004052247
1.041068901
1.141658073
1.279404269
1.359500352
1.386160908
1.380176293
1.00001313
1.003550376
)
;

boundaryField
{
    inlet
    {
        type            fixedValue;
        value           nonuniform 0();
    }
    outlet
    {
        type            zeroGradient;
    }
    bottom
    {
        type            slip;
    }
    top
    {
        type            slip;
    }
    obstacle
    {
        type            zeroGradient;
    }
    defaultFaces
    {
        type            empty;
    }
    procBoundary3to2
    {
        type            processor;
        value           nonuniform List<scalar> 10(1 1 1 1 1 1 1 1 1 1);
    }
    procBoundary3to4
    {
        type            processor;
        value           nonuniform List<scalar> 
15
(
1
1
1.000000009
1.000000322
1.000008048
1.000135056
1.001489623
1.010745793
1.050436039
1.153496075
1.289681783
1.358831729
1.36050014
1.362003077
1.336576953
)
;
    }
    procBoundary3to8
    {
        type            processor;
        value           nonuniform List<scalar> 7(1 1 1 1 0.9999999998 0.9999999829 0.9999996267);
    }
    procBoundary3to9
    {
        type            processor;
        value           nonuniform List<scalar> 10(1.029923641 1.136620176 1.307554017 1.368585715 1.381052292 1.380621192 1.341621316 1.000586443 1.029923641 1.027094523);
    }
}


// ************************************************************************* //
