/*--------------------------------*- C++ -*----------------------------------*\
  =========                 |
  \\      /  F ield         | OpenFOAM: The Open Source CFD Toolbox
   \\    /   O peration     | Website:  https://openfoam.org
    \\  /    A nd           | Version:  7
     \\/     M anipulation  |
\*---------------------------------------------------------------------------*/
FoamFile
{
    version     2.0;
    format      ascii;
    class       volScalarField;
    location    "4";
    object      T;
}
// * * * * * * * * * * * * * * * * * * * * * * * * * * * * * * * * * * * * * //

dimensions      [0 0 0 1 0 0 0];

internalField   nonuniform List<scalar> 
2222
(
1.136642706
1.136671702
1.135931803
1.134979066
0.6528166237
0.6544961092
0.8650733432
1.098329672
1.123114111
1.111528237
1.12437169
1.131463589
1.125400481
1.127662574
1.131839152
1.130340068
1.130246518
1.131607539
1.133636578
1.13399168
1.133636727
1.134053593
1.134314107
1.133964309
1.133653005
1.133759057
1.134831612
1.134370936
1.133643224
1.134403576
1.13553751
1.135804586
1.135885445
1.136853281
1.138738546
1.139659216
1.139118051
1.137880664
0.6476834929
0.6495899125
0.6784695902
1.013388229
1.126848675
1.120348404
1.116352026
1.132382601
1.132124763
1.1268632
1.130800399
1.132670463
1.130708691
1.130932303
1.133060861
1.135159373
1.135958225
1.136388967
1.137162303
1.13731507
1.136706603
1.135744021
1.135545839
1.135888545
1.135219977
1.134571363
1.135075078
1.136466719
1.136793422
1.13654369
1.137294527
1.139335214
1.141716018
1.142064169
1.141119541
0.6471193144
0.6495220138
0.8727210806
1.081972948
1.130084466
1.117301105
1.123509901
1.136861988
1.131282467
1.129807396
1.134004355
1.133311033
1.131561738
1.13259556
1.134547112
1.135561365
1.136315869
1.138449023
1.140055538
1.14004127
1.139180066
1.138295252
1.138063028
1.137891505
1.136975985
1.136228524
1.13668205
1.138373378
1.138654154
1.138260938
1.138686668
1.140130504
1.14224963
1.143917674
1.144164022
0.6464120834
0.6818610446
1.031064395
1.12779331
1.128492742
1.121359732
1.134508767
1.139503444
1.131606671
1.133218534
1.136852629
1.133835503
1.133836989
1.135266739
1.136915674
1.137008265
1.13710612
1.1387215
1.141306031
1.142328561
1.141751034
1.141142932
1.141050622
1.14057662
1.139462347
1.138698204
1.139220238
1.141159606
1.141506058
1.140971977
1.140818153
1.1415323
1.142857308
1.144606894
1.146333775
0.6466693937
0.8840284458
1.077568857
1.135126696
1.124637337
1.12660171
1.140856435
1.139598034
1.13370737
1.137424692
1.138647911
1.135785566
1.136961184
1.138796323
1.139622377
1.139203152
1.139135175
1.139833599
1.141252364
1.143340697
1.144415433
1.144423815
1.144519366
1.143622126
1.142147385
1.141492635
1.142066597
1.144129585
1.144534167
1.143880254
1.143109804
1.143416199
1.144296402
1.145276328
1.147057045
0.6897177193
1.043428199
1.115101599
1.137978829
1.125203613
1.134993979
1.142848084
1.137460005
1.136581302
1.141121182
1.139885158
1.139280144
1.140843302
1.142417713
1.142291038
1.141266507
1.141677119
1.142220786
1.142489351
1.143468663
1.145786096
1.147263725
1.147490083
1.146576753
1.145039853
1.144370571
1.14489403
1.146761941
1.147041086
1.146283376
1.145280764
1.145433059
1.146221165
1.146807063
1.14767052
0.9020187041
1.082835333
1.13820279
1.138221866
1.129918039
1.140777239
1.143568947
1.136067977
1.139716309
1.14379334
1.141978825
1.142733318
1.144681657
1.145551501
1.144794195
1.144624026
1.145095848
1.145195425
1.14461175
1.144816876
1.14613016
1.148270231
1.149333591
1.149062172
1.147939121
1.147064937
1.14744577
1.148782914
1.148919012
1.148087986
1.147321303
1.147630923
1.148816983
1.149037118
1.149186413
1.06027225
1.113200184
1.144915653
1.134402345
1.135393998
1.143796571
1.141485944
1.137209898
1.142772116
1.144999208
1.144045666
1.146118606
1.14769308
1.147686945
1.147300508
1.147937825
1.148438047
1.148052714
1.147171584
1.147081416
1.147772094
1.149136136
1.150568192
1.15093357
1.150396645
1.149374918
1.149394873
1.150106615
1.150319605
1.14974047
1.149619869
1.150088604
1.151689537
1.151658494
1.151453647
1.093481219
1.136816045
1.147851827
1.134293153
1.14134953
1.146146373
1.139308499
1.140329903
1.145580382
1.145738101
1.14570104
1.147963631
1.149062634
1.148739918
1.149609804
1.151500949
1.151687013
1.150715331
1.150162734
1.15013574
1.150342755
1.150754506
1.151551681
1.15236145
1.152248151
1.151337783
1.151001438
1.151402757
1.152007582
1.151896779
1.152063441
1.152495797
1.153891775
1.154601609
1.076249096
1.113871697
1.146567812
1.150113185
1.138087904
1.145539972
1.14609638
1.140920415
1.144409717
1.148525438
1.147311462
1.147671308
1.149586612
1.149508854
1.149300417
1.15094256
1.153668199
1.154484536
1.153896569
1.153662502
1.153565975
1.153126151
1.152750366
1.152967584
1.153864759
1.153940577
1.153141581
1.152887294
1.153541422
1.154263115
1.154182809
1.154086458
1.154455864
1.155522794
1.156751842
1.111736479
1.133704845
1.150680864
1.147331989
1.142213732
1.148339552
1.145411882
1.144716291
1.150046607
1.151258355
1.149207326
1.150338097
1.151647697
1.151022372
1.151080678
1.152439619
1.154139814
1.155520012
1.156862039
1.157049016
1.156800287
1.155727486
1.155027121
1.155252503
1.156054511
1.156055855
1.155226499
1.155069052
1.155723198
1.156371461
1.15617349
1.15547085
1.155678713
1.156617425
1.158248298
1.118631002
1.147686656
1.153650588
1.142527097
1.14757769
1.150849947
1.147031852
1.149277733
1.153936984
1.152888018
1.151547475
1.153652121
1.153844509
1.153468566
1.154245866
1.155359757
1.155915794
1.156410273
1.158028919
1.159537271
1.159534995
1.158519525
1.15799372
1.158353864
1.158794691
1.158648967
1.157754709
1.157552857
1.158098568
1.158561619
1.158208881
1.156887955
1.156394925
1.157208157
1.159351475
1.132464722
1.1556338
1.154366719
1.142484327
1.151256024
1.151856091
1.15034718
1.15475275
1.15699296
1.154415192
1.155249589
1.157251259
1.156852992
1.157298755
1.158378667
1.159131355
1.158477464
1.15820487
1.159103884
1.160895443
1.161770669
1.161523828
1.161373656
1.161809209
1.161860077
1.161566572
1.160633341
1.160351837
1.160900852
1.161088875
1.160526762
1.158713021
1.157960751
1.158473876
1.160464708
1.148501934
1.160394755
1.151798478
1.148298332
1.156129153
1.154111685
1.154449472
1.158379742
1.158523275
1.156755376
1.159430205
1.161203734
1.161118804
1.161854819
1.163104814
1.163180301
1.161671896
1.160904824
1.161457144
1.162685044
1.163966992
1.164580101
1.164703705
1.165143951
1.165038563
1.164668013
1.16381027
1.163457939
1.163857345
1.163791198
1.162906962
1.161067582
1.160391389
1.16072141
1.162136702
1.162473541
1.163937866
1.151362893
1.155405995
1.161952659
1.158692419
1.159415401
1.161451034
1.159480516
1.159726577
1.163003004
1.164700064
1.165441517
1.166749584
1.167773138
1.166976018
1.165294428
1.164570809
1.1647429
1.165158192
1.166128294
1.167581355
1.168089684
1.168338558
1.16811415
1.16777686
1.167220573
1.166818438
1.166949831
1.166711972
1.165790939
1.164505712
1.163856417
1.164127395
1.165243942
1.168066065
1.16292458
1.155994929
1.1646803
1.167098264
1.163750644
1.164618755
1.164610231
1.161995173
1.16347373
1.16656652
1.167286527
1.168197882
1.170445115
1.171296981
1.17043714
1.169465279
1.169143576
1.168585107
1.168168445
1.168638086
1.170292847
1.171326197
1.171456366
1.171163994
1.170951122
1.170670415
1.170183608
1.170065703
1.169965746
1.169417473
1.168728983
1.168115557
1.168298271
1.169294121
1.16300378
1.169352948
1.159799355
1.161003865
1.172732069
1.170657903
1.168599905
1.169378828
1.167192408
1.165982673
1.168200977
1.170503225
1.170456357
1.170924024
1.172527166
1.173571641
1.173790504
1.174069131
1.173958338
1.172796626
1.171536413
1.171609042
1.172726601
1.174034259
1.174443081
1.174336969
1.174339495
1.174115809
1.173460002
1.173423945
1.173696762
1.173706943
1.17342139
1.172916802
1.172863559
1.173702228
1.163906583
1.16715979
1.158897667
1.166232603
1.176111763
1.172699458
1.17271318
1.173042567
1.170487424
1.170905956
1.17357378
1.174369124
1.173847517
1.174017706
1.174329776
1.174672033
1.176252616
1.177991986
1.178088914
1.176741732
1.175149609
1.174867303
1.175292081
1.176255976
1.177224096
1.17774229
1.177945403
1.17763842
1.176865962
1.176963122
1.177688347
1.178144884
1.177992712
1.177560051
1.177183117
1.177730306
1.164125708
1.159903437
1.160289998
1.172379299
1.176147222
1.172900383
1.175588559
1.175600337
1.174522077
1.175981665
1.178362933
1.177880165
1.177051793
1.177105025
1.176600012
1.17648741
1.178237018
1.180679011
1.181087208
1.179958599
1.178780506
1.178279424
1.178173753
1.17848232
1.179721696
1.181284835
1.181646242
1.18127036
1.180524307
1.180697638
1.181758178
1.18237889
1.182185245
1.181412083
1.180618362
1.180758774
1.165544576
1.157818584
1.163500802
1.174299731
1.173709599
1.173149525
1.177814236
1.1784051
1.178927482
1.181058187
1.182113323
1.180654783
1.18030003
1.180145984
1.179476604
1.179547149
1.180914896
1.182627176
1.183132384
1.182539629
1.18214954
1.181818019
1.181323388
1.181192924
1.182217725
1.18455654
1.185402766
1.185051403
1.184394755
1.184613955
1.185662186
1.18631719
1.186061366
1.184810416
1.18349206
1.183232833
1.166847802
1.1621352
1.169960936
1.176699173
1.171745586
1.174232159
1.179574258
1.180933484
1.182853924
1.184802273
1.184174067
1.183181925
1.183949275
1.183893641
1.183466703
1.183692357
1.184263979
1.184501795
1.184375708
1.184742165
1.18520622
1.185163143
1.184584917
1.184263432
1.185093909
1.187353857
1.188787954
1.188894096
1.188345098
1.188551437
1.189382793
1.189736308
1.189219004
1.187583842
1.186380517
1.186219434
1.171047481
1.170166728
1.178489799
1.178454901
1.17293844
1.177155956
1.18096189
1.182540541
1.18487261
1.186267561
1.185148425
1.186093519
1.188170063
1.188397226
1.18827548
1.188342337
1.18787737
1.186486561
1.185786839
1.186867037
1.188139535
1.188275168
1.187879286
1.18766972
1.188447786
1.190073067
1.191359483
1.192308258
1.192133385
1.192183149
1.19254983
1.192591147
1.191665714
1.190093305
1.189505442
1.189603687
1.177838296
1.180997259
1.184589147
1.1786792
1.17730806
1.181003449
1.183593313
1.184958633
1.186759159
1.186685217
1.186270537
1.188521996
1.191612492
1.19225733
1.192409981
1.192317271
1.19106859
1.188660967
1.188083609
1.189248142
1.190637691
1.191132024
1.191138065
1.191320426
1.192084199
1.193024533
1.193767626
1.194820842
1.195293285
1.195220812
1.195139007
1.194892199
1.194027649
1.193284584
1.193255836
1.181827706
1.183857049
1.189259597
1.188569076
1.180108655
1.182425006
1.186462312
1.187436915
1.188384755
1.189273859
1.18806936
1.188334067
1.191025857
1.193555121
1.194852582
1.19561117
1.195282619
1.193391828
1.191278859
1.191194894
1.191878838
1.192717285
1.193509588
1.194226696
1.194975117
1.195616631
1.196072342
1.196451881
1.196995374
1.197605856
1.197491432
1.197329243
1.197268719
1.197020408
1.196943071
1.197167941
1.184915296
1.187654691
1.192378557
1.188404797
1.184539174
1.188637527
1.191284054
1.191138771
1.191773197
1.191517013
1.190416458
1.191886467
1.194320664
1.195595748
1.196874611
1.198319861
1.197729863
1.195757444
1.194851883
1.194952061
1.194986165
1.19494826
1.195545124
1.197018839
1.198340363
1.198799529
1.19908194
1.199464993
1.199693449
1.199784319
1.199636609
1.199711635
1.20017669
1.200408662
1.200434633
1.200822649
1.187608
1.190213576
1.192039689
1.186334202
1.188342174
1.193875322
1.19457633
1.19367372
1.194242313
1.193295102
1.193948325
1.196055706
1.197929639
1.197781032
1.198208597
1.19934423
1.199197492
1.198452823
1.198655817
1.198647431
1.198007382
1.197360453
1.197753698
1.199576898
1.201168148
1.201596439
1.201968151
1.202594488
1.20264954
1.202374492
1.202212798
1.202544475
1.203527176
1.20399025
1.203922839
1.20411225
1.190542652
1.191094944
1.18891746
1.186617945
1.191599451
1.196360334
1.195317473
1.19506541
1.195967775
1.196702013
1.198421385
1.200572211
1.200839548
1.199672405
1.199677946
1.200086632
1.200853799
1.201418971
1.201827875
1.2016458
1.200491303
1.199718346
1.200250796
1.20204664
1.203476072
1.204269129
1.205285736
1.205870215
1.20580714
1.20537933
1.205309729
1.20581451
1.207224238
1.207886696
1.207658099
1.207102689
1.192299833
1.191888623
1.187367267
1.188659111
1.195362355
1.196962503
1.195267679
1.196689432
1.198960322
1.200672247
1.202662973
1.203859832
1.20255842
1.201398625
1.201647163
1.201926155
1.202926351
1.204353121
1.20465
1.203859066
1.202374725
1.201923587
1.202989218
1.204489281
1.205580016
1.207005682
1.208634792
1.209159781
1.209041545
1.208466116
1.208551145
1.209205604
1.210745511
1.21132771
1.210841522
1.209560766
1.193914345
1.192559379
1.189380942
1.1910982
1.196074289
1.196136447
1.196085327
1.199239535
1.201791267
1.204023911
1.205572007
1.20578883
1.204276238
1.204743729
1.204937901
1.204860873
1.205192782
1.206425933
1.20666912
1.205427589
1.204224985
1.204576595
1.205854117
1.20682346
1.207712778
1.209526365
1.211378325
1.211988106
1.211838624
1.211194793
1.211396833
1.212153546
1.213598795
1.213902865
1.212979188
1.210974734
1.190796296
1.193850524
1.192712401
1.192784329
1.195857723
1.198199329
1.196534772
1.198056868
1.201373302
1.203057994
1.204886038
1.206558446
1.206401057
1.206837868
1.208205254
1.208375273
1.208059851
1.20778505
1.207808087
1.207491251
1.20650644
1.206774615
1.20770683
1.208575561
1.209013042
1.209831204
1.211602281
1.21337128
1.214065519
1.213963692
1.213280388
1.213467824
1.21411722
1.215285136
1.215362496
1.214071472
1.212877926
1.190594752
1.19505203
1.196069179
1.198417316
1.201352233
1.200760466
1.19877267
1.200613574
1.203155053
1.204422891
1.205395749
1.205900475
1.206626031
1.209232378
1.210994577
1.211101694
1.210695769
1.209946416
1.208942847
1.207842789
1.207872927
1.209452845
1.210694517
1.211025875
1.21115134
1.211983149
1.213347166
1.214411706
1.215174974
1.215464985
1.214839261
1.214824197
1.215217587
1.215878556
1.216009673
1.215828806
1.21580031
1.194274668
1.198907047
1.200177924
1.203383011
1.204549416
1.201613034
1.201559712
1.204081786
1.206258664
1.207017684
1.206888247
1.206108742
1.206980223
1.209811369
1.211993961
1.212317396
1.211837802
1.210868323
1.209502408
1.208759787
1.20955162
1.211504825
1.213014115
1.213250649
1.213380912
1.214172321
1.214820583
1.214977254
1.215425149
1.216164169
1.21595608
1.215640608
1.215785512
1.216267007
1.217507564
1.218392953
1.218664919
1.200194545
1.203918327
1.20452334
1.206112874
1.206324356
1.203957428
1.205647132
1.208144322
1.209436992
1.209407196
1.207799564
1.207285821
1.208235652
1.210186165
1.212014582
1.212466693
1.212126223
1.211248404
1.210441945
1.210556059
1.21173043
1.213493264
1.214657545
1.215123508
1.215726257
1.216351257
1.216192474
1.21596622
1.216119904
1.216714069
1.217007786
1.216602292
1.216649873
1.217260547
1.218843857
1.220702022
1.221287255
1.206466952
1.205236115
1.206447872
1.207620602
1.206007541
1.206198534
1.209288239
1.211188933
1.211030061
1.209779781
1.209346237
1.209567998
1.210435424
1.211644272
1.211998634
1.212261506
1.212689991
1.212479011
1.212491652
1.213173354
1.214451741
1.215534494
1.216063956
1.216723799
1.217933968
1.218380703
1.217955444
1.217651384
1.2176001
1.21779871
1.218266084
1.218084377
1.218161682
1.218754694
1.219938861
1.221410489
1.222458992
1.2082937
1.206128836
1.206515097
1.206721075
1.205963296
1.20855688
1.212205061
1.213104019
1.211746062
1.211758337
1.212467972
1.212836688
1.213190342
1.213163838
1.212411303
1.212784265
1.214330281
1.215061308
1.215415192
1.216198348
1.217142782
1.217363271
1.21745648
1.21839859
1.219826145
1.220230202
1.220037512
1.219870589
1.219709047
1.219594927
1.219895077
1.220069965
1.220230707
1.220832635
1.221987693
1.222784209
1.223085948
1.211488032
1.207701015
1.20711614
1.206244986
1.206704981
1.210127645
1.213237663
1.212848062
1.212865361
1.214492573
1.215540117
1.215853828
1.215633348
1.214000927
1.213193267
1.214210628
1.216262703
1.217836649
1.218447503
1.219057157
1.219233387
1.218779976
1.218938625
1.220262194
1.221572576
1.221874798
1.2219817
1.222106062
1.222025048
1.22170824
1.221690082
1.222006925
1.222414295
1.223114817
1.224397067
1.224665144
1.224344522
1.215221614
1.209886032
1.206309593
1.206026373
1.206649407
1.208193241
1.210983282
1.212658721
1.212150344
1.213634749
1.216187742
1.217870812
1.218333613
1.217124827
1.21477225
1.214659583
1.215927326
1.21768907
1.219564464
1.22079545
1.221130169
1.220657069
1.220187165
1.220704651
1.222025861
1.222975491
1.223241226
1.223556425
1.223869584
1.22387722
1.223564095
1.223271323
1.223442297
1.224173485
1.224977782
1.226103811
1.226003163
1.212364823
1.206456531
1.20606409
1.207075706
1.20859364
1.21036051
1.212509947
1.212561967
1.212259738
1.214275809
1.216926748
1.218758838
1.219139178
1.217732873
1.216087204
1.216487839
1.217617234
1.21870075
1.220107084
1.221757906
1.22208595
1.221684139
1.221708689
1.222579214
1.223487946
1.223918061
1.224140099
1.224579844
1.224978894
1.225024997
1.224793642
1.224450506
1.224446905
1.225348188
1.226395696
1.227227718
1.226893775
1.208378299
1.206713881
1.208215721
1.209843772
1.211375558
1.213060853
1.213931997
1.212641337
1.213002113
1.214826855
1.216870751
1.218517236
1.218797832
1.217790589
1.217413027
1.218111966
1.218851174
1.219526401
1.2204893
1.221768177
1.222305354
1.222466329
1.223047291
1.224046003
1.224454667
1.224433965
1.224523443
1.224978328
1.225311519
1.225371549
1.22521066
1.224930398
1.224938867
1.225896651
1.227332314
1.228225701
1.228223824
1.208160935
1.20947707
1.21116628
1.212427253
1.213959922
1.214908115
1.214104857
1.213426417
1.214563448
1.216050285
1.217062529
1.217690082
1.217715979
1.217799774
1.218582861
1.219421173
1.219465323
1.219438483
1.220077402
1.221037016
1.221887205
1.222786421
1.224092994
1.224901368
1.224860268
1.224560394
1.224627417
1.224905389
1.224965989
1.225076158
1.225197316
1.225161321
1.225248389
1.226025684
1.227546778
1.229072636
1.229696764
1.208324019
1.211433719
1.21296823
1.214237457
1.215367713
1.215085628
1.213918598
1.214614446
1.216386514
1.217286602
1.216995756
1.216299978
1.216673436
1.218201471
1.219539832
1.220121828
1.219738687
1.219367099
1.219823691
1.220540076
1.221681352
1.22327113
1.224729989
1.22510715
1.224779185
1.224572886
1.224658855
1.224628924
1.224490685
1.224661486
1.225219695
1.225535685
1.225661577
1.226180178
1.227529864
1.229399562
1.230802384
1.20966195
1.212441201
1.214027309
1.214871707
1.215004674
1.214118343
1.213581509
1.215297257
1.217216418
1.217067637
1.215840728
1.215294995
1.21630081
1.218455758
1.219953188
1.22025083
1.219820328
1.219833569
1.220259175
1.220808266
1.221809166
1.223496138
1.224629984
1.224660656
1.224388825
1.224580738
1.22466652
1.224410684
1.224212828
1.224502682
1.225363481
1.226010446
1.226110831
1.226354356
1.227345242
1.229469327
1.231810203
1.206925844
1.210389926
1.21233227
1.212586704
1.213226376
1.212820798
1.21156389
1.212510586
1.215179105
1.216822135
1.21600742
1.215052541
1.21512915
1.216445544
1.218474995
1.219752284
1.219840613
1.219802733
1.220319578
1.220799115
1.221277815
1.222143495
1.223445727
1.22402589
1.223761569
1.223823309
1.224473195
1.224616544
1.22434376
1.224206801
1.224568015
1.2255054
1.226448878
1.226633435
1.226865108
1.227453665
1.229170052
1.231926863
1.207908385
1.209845756
1.209647412
1.208490466
1.209051066
1.209401853
1.209303212
1.211837587
1.215116424
1.215435633
1.214554384
1.214262354
1.215141946
1.216666162
1.21800338
1.218568702
1.218727331
1.219595907
1.220782786
1.221570456
1.221996073
1.222582795
1.22308186
1.222890345
1.222717386
1.223342741
1.224282416
1.224401242
1.224213512
1.224144393
1.2246307
1.225604923
1.226676092
1.226999657
1.227260903
1.227783512
1.229132567
1.231345738
1.207605495
1.206598061
1.203870063
1.202924815
1.204822495
1.207314403
1.209164463
1.2114267
1.213647241
1.212973451
1.213055164
1.213979034
1.215472644
1.216634888
1.216826848
1.216670875
1.217582988
1.219655542
1.221408192
1.222097055
1.22232242
1.222414806
1.222123639
1.221803355
1.222392569
1.223444481
1.224198899
1.22425375
1.224219268
1.224344283
1.224897047
1.225645022
1.226435767
1.226924183
1.2272319
1.227723574
1.229245522
1.230777004
1.205654576
1.201545138
1.200342471
1.201410811
1.204264503
1.207317965
1.209578444
1.2115901
1.211401927
1.210367677
1.211684076
1.213869243
1.215371161
1.215596986
1.214947901
1.215166325
1.217166111
1.219790681
1.22154767
1.222016595
1.222020264
1.221668208
1.221304441
1.221840934
1.222667329
1.223809943
1.224103689
1.224169386
1.224377006
1.224716122
1.225097023
1.22542057
1.225854394
1.22658309
1.227105998
1.227636053
1.229009545
1.229993524
1.205145386
1.202365805
1.201324947
1.202452594
1.205087522
1.20809513
1.210545125
1.211385974
1.209759443
1.209420832
1.210908624
1.213467735
1.214165463
1.213629647
1.213471692
1.21510832
1.217347143
1.219785955
1.221112131
1.221448545
1.221268483
1.221213468
1.221577254
1.222243827
1.223502785
1.224082612
1.224002546
1.224069662
1.224373034
1.224700526
1.225053271
1.224982843
1.225335366
1.226484022
1.227700917
1.228727732
1.229249038
1.230083253
1.203190924
1.202600106
1.203650505
1.205879611
1.208525497
1.211459329
1.212396541
1.210317286
1.209038639
1.209457794
1.211036051
1.21243831
1.212489198
1.212190005
1.213471413
1.215586828
1.218097635
1.220095452
1.220913863
1.221447642
1.221677899
1.221986271
1.2226717
1.223868738
1.224656881
1.224468718
1.224074917
1.224277393
1.224938803
1.225186635
1.225099989
1.224984916
1.225591236
1.227041234
1.229068154
1.230504788
1.231242816
1.231829881
1.20237985
1.205225112
1.208285871
1.210689582
1.212647976
1.214346302
1.214580175
1.212821509
1.211374341
1.21123927
1.211651214
1.211875858
1.211662919
1.212428605
1.214475202
1.217760059
1.220182843
1.221182775
1.222000632
1.223065068
1.22383207
1.22428809
1.225105347
1.226233821
1.226278808
1.22528069
1.224894348
1.225371351
1.226164229
1.226307494
1.22597353
1.226288109
1.227249047
1.228804207
1.231135055
1.233168539
1.234320528
1.199808909
1.205845981
1.210689597
1.21309801
1.21433984
1.215901636
1.217099818
1.217039625
1.216482204
1.216075717
1.215559398
1.213912922
1.212433773
1.212645368
1.214266348
1.21732878
1.221627955
1.224695046
1.225875293
1.226846494
1.227777082
1.22833063
1.22872069
1.229360392
1.229515902
1.229054633
1.228138461
1.227707751
1.228009249
1.228752447
1.229269648
1.229247787
1.22966118
1.23076154
1.23255305
1.234504649
1.236882537
1.239064747
1.20328748
1.210643676
1.2151391
1.217943412
1.219713261
1.221581701
1.222348265
1.22235182
1.222554696
1.222601133
1.221645419
1.218586699
1.216579325
1.216680513
1.218711959
1.22273906
1.227080069
1.231044991
1.233861412
1.235743463
1.236878739
1.237182704
1.236885801
1.236463849
1.235533431
1.234273353
1.233486861
1.233228554
1.233397997
1.23389709
1.234473628
1.235118049
1.235947812
1.237198024
1.238901845
1.240822232
1.243323916
1.246117232
1.214002525
1.220556328
1.224187528
1.226717735
1.228772917
1.230829257
1.231647036
1.231648115
1.233062295
1.232677327
1.230381452
1.226605502
1.224663054
1.225059774
1.227439591
1.231477668
1.235624911
1.240548784
1.245407116
1.248361291
1.249631369
1.249653953
1.248727999
1.246761102
1.244955316
1.243452919
1.242485249
1.242125538
1.242089987
1.242275356
1.242757903
1.244027574
1.245664144
1.24696505
1.248347567
1.250354934
1.252930851
1.255967035
1.232537333
1.236088622
1.238636366
1.24093915
1.243072141
1.245075539
1.246152064
1.246171265
1.246817615
1.246439516
1.24318389
1.238962426
1.237139809
1.237690249
1.240125059
1.24338205
1.247682493
1.253683576
1.26011779
1.264206865
1.265353243
1.265120423
1.26367667
1.260703517
1.258024706
1.256189481
1.255278087
1.254972948
1.254386632
1.253963759
1.254318586
1.25605698
1.25844468
1.26011506
1.261214715
1.262924432
1.265622764
1.268484007
1.253598053
1.255603521
1.255910632
1.258550695
1.261935292
1.264056449
1.264624087
1.264617256
1.264088131
1.262800843
1.259163312
1.255156534
1.253480442
1.254154782
1.255735583
1.258365005
1.2628641
1.269735497
1.277166105
1.28161095
1.282104406
1.281750518
1.280183846
1.277489929
1.274178055
1.271963256
1.27109628
1.270484879
1.269459371
1.26848736
1.268755576
1.270450216
1.273211326
1.275328864
1.277071547
1.278664161
1.280516718
1.282855096
1.275376262
1.275497242
1.276421572
1.280063377
1.283302579
1.284699321
1.284795339
1.283825681
1.282097454
1.279839718
1.276732291
1.273528761
1.272046316
1.272144867
1.273029477
1.275130234
1.279572838
1.286865629
1.293963294
1.297707256
1.298066529
1.297491757
1.296206353
1.294188807
1.291522585
1.289370359
1.288059294
1.286713469
1.285517758
1.284752673
1.284871692
1.285946358
1.288472925
1.290947559
1.29293442
1.294957474
1.296203279
1.297236383
1.293066245
1.293693732
1.293652958
1.295626247
1.299123007
1.302434476
1.303217476
1.302555729
1.300374343
1.297678547
1.295255381
1.293467969
1.291585638
1.289831108
1.289447147
1.289960131
1.291313536
1.29584456
1.30214936
1.307825107
1.31066371
1.310815783
1.31055846
1.30985225
1.308754075
1.307336293
1.305451373
1.303458731
1.30182326
1.30046715
1.300086669
1.300200905
1.300935456
1.302810481
1.30536677
1.307553612
1.309500943
1.310413572
1.310342206
1.305092082
1.304456877
1.306729793
1.309793114
1.313291866
1.315543143
1.315654006
1.314745937
1.312116086
1.30875231
1.307628446
1.306889429
1.306056775
1.304519203
1.303657378
1.303702159
1.305759999
1.309540105
1.313749112
1.317608784
1.319277546
1.319620111
1.319784364
1.319888327
1.319946961
1.319502083
1.317727376
1.315410799
1.31376222
1.31283238
1.312749964
1.312935203
1.313378547
1.314588142
1.317016793
1.319286541
1.320602106
1.321094517
1.320599186
1.310652575
1.311202855
1.314332157
1.318199815
1.320408319
1.320940339
1.321431144
1.321470355
1.319714994
1.317005546
1.31582544
1.316046099
1.315783158
1.314438735
1.313874946
1.314255804
1.31633363
1.319076501
1.321187095
1.323065362
1.324208695
1.32459472
1.325298804
1.326526489
1.327204832
1.326667092
1.324976538
1.323103379
1.321670124
1.321467215
1.321794002
1.321999833
1.322125646
1.322875158
1.325089443
1.327345954
1.327962189
1.327955524
1.327297915
1.313698461
1.314601857
1.31789559
1.321058369
1.321933896
1.321694971
1.322040448
1.323126092
1.323057519
1.321618754
1.320671549
1.320978008
1.320639635
1.31942296
1.319411831
1.320355356
1.323153164
1.324704304
1.325188454
1.325678168
1.326445521
1.327204222
1.32846352
1.329712979
1.330145682
1.329890901
1.328570224
1.326703725
1.32615362
1.326510606
1.32717901
1.32731482
1.327338714
1.327829697
1.329569621
1.331337324
1.331457635
1.331112619
1.330490502
1.314390261
1.3161502
1.32003854
1.321006886
1.320863309
1.319734713
1.320280956
1.322212535
1.32357556
1.323587977
1.32311382
1.322466047
1.322008523
1.321711772
1.322026297
1.323550418
1.326046118
1.326935033
1.32691372
1.326737204
1.327405777
1.329037997
1.330008535
1.330334109
1.330675331
1.330811573
1.330286504
1.328778266
1.328263452
1.328666001
1.329087411
1.329230481
1.329322657
1.329678097
1.330799116
1.332023132
1.332181126
1.331877165
1.331444561
1.314840447
1.317268389
1.320244525
1.319597741
1.317790676
1.317377765
1.31798053
1.320381028
1.322966234
1.323386485
1.322636008
1.321905259
1.321888652
1.322337133
1.323202254
1.324918517
1.326704636
1.327546977
1.32749187
1.327248855
1.328157623
1.329623179
1.329813505
1.32958569
)
;

boundaryField
{
    inlet
    {
        type            fixedValue;
        value           nonuniform 0();
    }
    outlet
    {
        type            inletOutlet;
        inletValue      nonuniform 0();
        value           nonuniform 0();
    }
    bottom
    {
        type            slip;
    }
    top
    {
        type            slip;
    }
    obstacle
    {
        type            zeroGradient;
    }
    defaultFaces
    {
        type            empty;
    }
    procBoundary16to10
    {
        type            processor;
        value           nonuniform List<scalar> 
35
(
1.134015289
1.133815159
1.133107812
1.132585387
0.6557627304
0.6575133918
0.6831108338
1.010438414
1.119881525
1.114442639
1.116289452
1.12990224
1.125766038
1.124391111
1.13031132
1.129826156
1.129150641
1.129103291
1.130324202
1.131267659
1.131243895
1.130679173
1.130909387
1.131248808
1.131895452
1.133083275
1.134079134
1.132921811
1.132597794
1.134046768
1.135226327
1.135466552
1.135160811
1.135533654
1.135533654
)
;
    }
    procBoundary16to15
    {
        type            processor;
        value           nonuniform List<scalar> 
70
(
0.6499530188
0.6499530188
0.6470279895
0.6451713728
0.6439676228
0.6436542882
0.6428416335
0.6422496287
0.6911591359
0.9079165426
0.9079165426
0.7052955716
0.9356692991
1.087890482
1.125119776
1.128865249
1.140540381
1.156707936
1.156707936
1.14916771
1.148230754
1.152648181
1.163984122
1.171450004
1.177515643
1.180945253
1.180945253
1.17759851
1.184498465
1.191692151
1.19504201
1.195859593
1.194424709
1.194424709
1.196422847
1.189749032
1.190387206
1.193725514
1.200703284
1.208784093
1.21309264
1.21309264
1.216019658
1.216340107
1.213497798
1.209051713
1.206710553
1.206350495
1.206350495
1.201813262
1.202817873
1.204825819
1.206720222
1.20620432
1.203521464
1.200101938
1.200101938
1.198439617
1.200547329
1.210237085
1.228854621
1.252010985
1.274087648
1.274087648
1.292885256
1.305120918
1.310132212
1.313976651
1.315573277
1.316736732
)
;
    }
    procBoundary16to17
    {
        type            processor;
        value           nonuniform List<scalar> 
65
(
1.134802352
1.137163378
1.140227352
1.143696706
1.14699407
1.149240266
1.149714872
1.150115423
1.15158738
1.153948929
1.153948929
1.156282914
1.158273053
1.160438741
1.16264388
1.16415636
1.166656707
1.170051283
1.173933959
1.177608864
1.180673881
1.183386912
1.186690833
1.190490559
1.193770825
1.193770825
1.197974982
1.201763496
1.204925986
1.207056865
1.208682946
1.210137655
1.212599094
1.215701001
1.218790212
1.221359066
1.223111971
1.223515302
1.223928846
1.225028442
1.225028442
1.225744132
1.227579368
1.229542839
1.23116911
1.232597499
1.233104954
1.23268382
1.231542598
1.230535247
1.230786418
1.232203072
1.235132133
1.235132133
1.240248611
1.247573063
1.257671945
1.270253973
1.28424724
1.298278047
1.310493171
1.320069741
1.326413328
1.329703185
1.330730645
)