/*--------------------------------*- C++ -*----------------------------------*\
  =========                 |
  \\      /  F ield         | OpenFOAM: The Open Source CFD Toolbox
   \\    /   O peration     | Website:  https://openfoam.org
    \\  /    A nd           | Version:  7
     \\/     M anipulation  |
\*---------------------------------------------------------------------------*/
FoamFile
{
    version     2.0;
    format      ascii;
    class       volVectorField;
    location    "0.5";
    object      U;
}
// * * * * * * * * * * * * * * * * * * * * * * * * * * * * * * * * * * * * * //

dimensions      [0 1 -1 0 0 0 0];

internalField   nonuniform List<vector> 
139
(
(2.985401761 -0.01620346549 0)
(2.962586469 -0.04194250283 0)
(2.93691514 -0.06296301941 0)
(2.933969506 -0.06187652314 0)
(2.9392906 -0.06045211865 0)
(2.951546365 -0.04952231454 0)
(2.95810623 -0.0414064472 0)
(2.976636029 -0.02946843924 0)
(2.973307668 -0.08268085304 0)
(2.968784222 -0.1133883017 0)
(2.965725217 -0.1331148494 0)
(2.95375095 -0.1234524342 0)
(2.943549851 -0.09467388662 0)
(2.949950199 -0.05714502247 0)
(2.961638771 -0.02120485892 0)
(2.978580552 0.007556529123 0)
(2.960549953 -0.1220781417 0)
(2.947591609 -0.1776668886 0)
(2.95032393 -0.172050108 0)
(2.953793083 -0.1578404954 0)
(2.960177386 -0.1372562046 0)
(2.963066041 -0.1058290499 0)
(2.983099675 -0.06620514653 0)
(2.996937989 -0.03186879734 0)
(2.944375528 -0.1656627824 0)
(2.945463251 -0.1732626968 0)
(2.950044499 -0.1735504577 0)
(2.957605003 -0.1672953467 0)
(2.969620108 -0.1474523576 0)
(2.97756784 -0.1226810254 0)
(2.996934998 -0.0778431463 0)
(3.015605594 -0.01536790017 0)
(2.937169199 -0.1876031345 0)
(2.940620837 -0.1838961467 0)
(2.948466041 -0.1761579091 0)
(2.962545592 -0.1570064827 0)
(2.979471666 -0.1278464432 0)
(2.996353226 -0.09277521655 0)
(3.009845599 -0.06031024571 0)
(3.029430926 -0.004026203437 0)
(2.937385893 -0.1868820655 0)
(2.94463743 -0.1792743169 0)
(2.957715569 -0.1574294849 0)
(2.973621631 -0.1292048343 0)
(2.994681306 -0.08667154372 0)
(3.009769485 -0.05879828264 0)
(3.026097483 -0.01991385285 0)
(3.043897818 0.03103060067 0)
(2.939853656 -0.1801254284 0)
(2.953775804 -0.1571071176 0)
(2.970655075 -0.1257754664 0)
(2.991167227 -0.08381063553 0)
(3.009095299 -0.04664685094 0)
(3.025926593 -0.01239384935 0)
(3.036331868 0.00968046622 0)
(3.054578535 0.06220858744 0)
(2.948964587 -0.1581342895 0)
(2.968428767 -0.1200025477 0)
(2.98799549 -0.0813364784 0)
(3.005860473 -0.04430503673 0)
(3.023243993 -0.006570976704 0)
(3.040015231 0.03556027678 0)
(3.055081233 0.06883745843 0)
(3.068091005 0.1071131056 0)
(2.966192279 -0.1144766826 0)
(2.984071564 -0.08078514482 0)
(3.006339972 -0.03053945014 0)
(3.02247084 0.001785941273 0)
(3.038887395 0.03989592705 0)
(3.049380812 0.06312737716 0)
(3.065462361 0.1056124648 0)
(3.077364499 0.1569640207 0)
(2.980540143 -0.07811158988 0)
(3.00426264 -0.02654456503 0)
(3.019012347 0.007168472959 0)
(3.038732373 0.05839475453 0)
(3.054203657 0.09509193637 0)
(3.069857715 0.1315492246 0)
(3.078277002 0.1440610592 0)
(3.078833126 0.1696350734 0)
(3.00325342 -0.01555715523 0)
(3.019871929 0.02179986397 0)
(3.034417092 0.05614716186 0)
(3.047776012 0.08719146936 0)
(3.061997106 0.1256557522 0)
(3.077142197 0.1821840905 0)
(3.090079854 0.2132599928 0)
(3.08831605 0.212054883 0)
(3.017530559 0.02392049074 0)
(3.035313768 0.08578216693 0)
(3.051346147 0.130167035 0)
(3.070338188 0.1715655697 0)
(3.080187058 0.1760259261 0)
(3.079270262 0.1917516055 0)
(3.091131784 0.212536139 0)
(3.08479577 0.2071371335 0)
(3.035825162 0.08865064268 0)
(3.03888898 0.1043524022 0)
(3.055462693 0.150806489 0)
(3.07551687 0.2067862759 0)
(3.089337359 0.2338671158 0)
(3.097405136 0.2307496859 0)
(3.096989416 0.2289066014 0)
(3.077345534 0.1880761458 0)
(3.048616058 0.1717555889 0)
(3.067562624 0.2218741754 0)
(3.076153965 0.2079349303 0)
(3.087103195 0.2276766436 0)
(3.090461273 0.2297444321 0)
(3.093352759 0.2278128724 0)
(3.090676256 0.2149194527 0)
(3.056464817 0.1304167185 0)
(3.042991002 0.1690589825 0)
(3.072064686 0.2214853285 0)
(3.079950543 0.2282250408 0)
(3.092508317 0.2307996781 0)
(3.091708096 0.2244673989 0)
(3.084576552 0.1951156599 0)
(3.071799862 0.1393852546 0)
(3.03019053 0.03575196517 0)
(3.077542121 0.2406692569 0)
(3.084090114 0.2416056835 0)
(3.083899625 0.2357953197 0)
(3.080927639 0.2071974376 0)
(3.077585217 0.154621287 0)
(3.062179159 0.0933868321 0)
(3.059005717 0.08186768084 0)
(3.017619147 0.0234799087 0)
(3.074160414 0.2372279638 0)
(3.074464522 0.2200089637 0)
(3.071053041 0.179596958 0)
(3.064663106 0.1273435075 0)
(3.07363976 0.1010283561 0)
(3.046320158 0.02539923901 0)
(3.029658849 -0.002908345418 0)
(3.000128166 -0.002986189173 0)
(3.066145306 0.2063296141 0)
(3.052876069 0.143484819 0)
(3.054917192 0.08491762278 0)
)
;

boundaryField
{
    inlet
    {
        type            fixedValue;
        value           nonuniform 0();
    }
    outlet
    {
        type            inletOutlet;
        inletValue      uniform (3 0 0);
        value           nonuniform List<vector> 
17
(
(2.976636029 -0.02946843924 0)
(2.978580552 0.007556529123 0)
(2.996937989 -0.03186879734 0)
(3.015605594 -0.01536790017 0)
(3.029430926 -0.004026203437 0)
(3.043897818 0.03103060067 0)
(3.054578535 0.06220858744 0)
(3.068091005 0.1071131056 0)
(3.077364499 0.1569640207 0)
(3.078833126 0.1696350734 0)
(3.08831605 0.212054883 0)
(3.08479577 0.2071371335 0)
(3.077345534 0.1880761458 0)
(3.056464817 0.1304167185 0)
(3.03019053 0.03575196517 0)
(3.017619147 0.0234799087 0)
(3.000128166 -0.002986189173 0)
)
;
    }
    bottom
    {
        type            slip;
    }
    top
    {
        type            slip;
    }
    obstacle
    {
        type            slip;
    }
    defaultFaces
    {
        type            empty;
    }
    procBoundary5to4
    {
        type            processor;
        value           nonuniform List<vector> 
17
(
(2.996416421 -0.004345407107 0)
(2.989084973 -0.03118817843 0)
(2.969411209 -0.08173184558 0)
(2.942705565 -0.1568103273 0)
(2.935698883 -0.1757837393 0)
(2.933848141 -0.1890153196 0)
(2.931731121 -0.1890431384 0)
(2.933176541 -0.183324179 0)
(2.942881891 -0.1601075225 0)
(2.961997644 -0.1128607879 0)
(2.978573034 -0.06856426694 0)
(2.999281662 -0.01490153985 0)
(3.018955171 0.04030274045 0)
(3.037810376 0.1089173467 0)
(3.045873312 0.1471565047 0)
(3.062609632 0.2495622447 0)
(3.063327181 0.238411848 0)
)
;
    }
    procBoundary5to10
    {
        type            processor;
        value           uniform (3.074424589 0.2428419684 0);
    }
    procBoundary5to11
    {
        type            processor;
        value           nonuniform List<vector> 9((3.04425507 0.005220322656 0) (3.038681089 0.00690787925 0) (3.049691781 0.02006348344 0) (3.032268157 0.003685035695 0) (3.002651295 -0.002764631793 0) (3.040428366 0.07669497552 0) (3.035213259 0.03570263642 0) (3.04425507 0.005220322656 0) (3.047017228 0.03576585923 0));
    }
}


// ************************************************************************* //
