/*--------------------------------*- C++ -*----------------------------------*\
  =========                 |
  \\      /  F ield         | OpenFOAM: The Open Source CFD Toolbox
   \\    /   O peration     | Website:  https://openfoam.org
    \\  /    A nd           | Version:  7
     \\/     M anipulation  |
\*---------------------------------------------------------------------------*/
FoamFile
{
    version     2.0;
    format      ascii;
    class       volScalarField;
    location    "4.4";
    object      p;
}
// * * * * * * * * * * * * * * * * * * * * * * * * * * * * * * * * * * * * * //

dimensions      [1 -1 -2 0 0 0 0];

internalField   nonuniform List<scalar> 5(1.053999738 1.050675559 1.033386668 0.9619002748 0.9501017116);

boundaryField
{
    inlet
    {
        type            fixedValue;
        value           nonuniform 0();
    }
    outlet
    {
        type            zeroGradient;
    }
    bottom
    {
        type            slip;
    }
    top
    {
        type            slip;
    }
    obstacle
    {
        type            zeroGradient;
    }
    defaultFaces
    {
        type            empty;
    }
    procBoundary4to3
    {
        type            processor;
        value           nonuniform List<scalar> 2(1.020781737 1.041855307);
    }
    procBoundary4to5
    {
        type            processor;
        value           nonuniform List<scalar> 3(1.072012115 1.045084316 0.9985152608);
    }
    procBoundary4to9
    {
        type            processor;
        value           nonuniform List<scalar> 2(1.058390481 1.046999048);
    }
    procBoundary4to10
    {
        type            processor;
        value           uniform 1.018498791;
    }
    procBoundary4to11
    {
        type            processor;
        value           nonuniform List<scalar> 2(0.958253758 0.9734248056);
    }
    procBoundary4to15
    {
        type            processor;
        value           uniform 0.9328184968;
    }
}


// ************************************************************************* //
