/*--------------------------------*- C++ -*----------------------------------*\
  =========                 |
  \\      /  F ield         | OpenFOAM: The Open Source CFD Toolbox
   \\    /   O peration     | Website:  https://openfoam.org
    \\  /    A nd           | Version:  7
     \\/     M anipulation  |
\*---------------------------------------------------------------------------*/
FoamFile
{
    version     2.0;
    format      ascii;
    class       volScalarField;
    location    "4.4";
    object      T;
}
// * * * * * * * * * * * * * * * * * * * * * * * * * * * * * * * * * * * * * //

dimensions      [0 0 0 1 0 0 0];

internalField   nonuniform List<scalar> 5(1.01520888 1.014370154 1.01039418 0.9952831739 0.9991997193);

boundaryField
{
    inlet
    {
        type            fixedValue;
        value           nonuniform 0();
    }
    outlet
    {
        type            inletOutlet;
        inletValue      nonuniform 0();
        value           nonuniform 0();
    }
    bottom
    {
        type            slip;
    }
    top
    {
        type            slip;
    }
    obstacle
    {
        type            zeroGradient;
    }
    defaultFaces
    {
        type            empty;
    }
    procBoundary4to3
    {
        type            processor;
        value           nonuniform List<scalar> 2(1.005908441 1.011882931);
    }
    procBoundary4to5
    {
        type            processor;
        value           nonuniform List<scalar> 3(1.02010026 1.012937178 1.001707999);
    }
    procBoundary4to9
    {
        type            processor;
        value           nonuniform List<scalar> 2(1.016925286 1.017280262);
    }
    procBoundary4to10
    {
        type            processor;
        value           uniform 1.024876484;
    }
    procBoundary4to11
    {
        type            processor;
        value           nonuniform List<scalar> 2(0.9936845719 1.006315406);
    }
    procBoundary4to15
    {
        type            processor;
        value           uniform 0.9933704363;
    }
}


// ************************************************************************* //
