/*--------------------------------*- C++ -*----------------------------------*\
  =========                 |
  \\      /  F ield         | OpenFOAM: The Open Source CFD Toolbox
   \\    /   O peration     | Website:  https://openfoam.org
    \\  /    A nd           | Version:  7
     \\/     M anipulation  |
\*---------------------------------------------------------------------------*/
FoamFile
{
    version     2.0;
    format      ascii;
    class       volVectorField;
    location    "3";
    object      U;
}
// * * * * * * * * * * * * * * * * * * * * * * * * * * * * * * * * * * * * * //

dimensions      [0 1 -1 0 0 0 0];

internalField   nonuniform List<vector> 
22
(
(3.072038344 0.1628128051 0)
(2.977518788 0.3002113426 0)
(3.048023893 0.250501497 0)
(3.063877611 0.1283566812 0)
(2.96198276 0.273487299 0)
(3.028875388 0.2247344144 0)
(3.043827187 0.09480206964 0)
(2.951189201 0.2463501596 0)
(3.009237547 0.2005582468 0)
(3.009752531 0.06672401561 0)
(2.932764402 0.2117082589 0)
(2.983638932 0.1668476357 0)
(2.967897667 0.0397318206 0)
(2.896894109 0.1691221693 0)
(2.944147784 0.1351429617 0)
(2.932807577 0.01812239653 0)
(2.837503188 0.1216378622 0)
(2.880347511 0.08918891665 0)
(2.741144458 0.08336385362 0)
(2.798390213 0.05452300615 0)
(2.662985771 0.03257606806 0)
(2.757591995 0.04419459816 0)
)
;

boundaryField
{
    inlet
    {
        type            fixedValue;
        value           nonuniform 0();
    }
    outlet
    {
        type            inletOutlet;
        inletValue      nonuniform 0();
        value           nonuniform 0();
    }
    bottom
    {
        type            slip;
    }
    top
    {
        type            slip;
    }
    obstacle
    {
        type            slip;
    }
    defaultFaces
    {
        type            empty;
    }
    procBoundary15to9
    {
        type            processor;
        value           nonuniform List<vector> 4((3.070262822 0.212313906 0) (2.975230706 0.3190138126 0) (3.064543665 0.2740361967 0) (3.064543665 0.2740361967 0));
    }
    procBoundary15to10
    {
        type            processor;
        value           nonuniform List<vector> 3((3.042386771 0.02423971478 0) (3.02947706 0.01295823879 0) (3.017988975 0.002630178355 0));
    }
    procBoundary15to16
    {
        type            processor;
        value           nonuniform List<vector> 7((2.998979175 -0.004289385467 0) (2.968389881 -1.229078098e-05 0) (2.929350119 -0.000602380837 0) (2.892477271 0.009463276355 0) (2.892477271 0.009463276355 0) (2.847514217 0.005189632001 0) (2.829392964 0.001757704734 0));
    }
    procBoundary15to21
    {
        type            processor;
        value           nonuniform List<vector> 2((2.668009997 -0.03045061874 0) (2.762533539 -0.03308002263 0));
    }
}


// ************************************************************************* //
