/*--------------------------------*- C++ -*----------------------------------*\
  =========                 |
  \\      /  F ield         | OpenFOAM: The Open Source CFD Toolbox
   \\    /   O peration     | Website:  https://openfoam.org
    \\  /    A nd           | Version:  7
     \\/     M anipulation  |
\*---------------------------------------------------------------------------*/
FoamFile
{
    version     2.0;
    format      ascii;
    class       volScalarField;
    location    "4.6";
    object      rho;
}
// * * * * * * * * * * * * * * * * * * * * * * * * * * * * * * * * * * * * * //

dimensions      [1 -3 0 0 0 0 0];

internalField   nonuniform List<scalar> 
2222
(
1.378895846
1.378439812
1.378083709
1.37765026
1.37888563
1.381454191
1.380062611
1.382423819
1.383072125
1.383064085
1.382102035
1.379941897
1.378885101
1.378778129
1.378606932
1.378026799
1.377588551
1.377304693
1.376719676
1.37623783
1.376415164
1.376497673
1.376458782
1.37638311
1.377222421
1.379546523
1.381528019
1.38298599
1.383428468
1.383142489
1.382173187
1.381320994
1.380452242
1.37933442
1.378525512
1.377149078
1.377126263
1.379261952
1.382097015
1.379791717
1.377892785
1.377843522
1.380217312
1.380911806
1.381357273
1.381443289
1.379643966
1.377908717
1.377674653
1.378336438
1.378760921
1.378830921
1.378000244
1.377326629
1.376769727
1.376449645
1.376302998
1.375790779
1.375371935
1.375512284
1.377010742
1.37835042
1.380556102
1.382832849
1.383439497
1.383314549
1.38261117
1.381414862
1.381091143
1.379487215
1.37817253
1.377470222
1.377289509
1.380810943
1.378103181
1.376641673
1.375662715
1.376484392
1.376998547
1.377627813
1.378356312
1.377867164
1.377138888
1.376860639
1.378006047
1.379757113
1.379839906
1.379457061
1.378346858
1.377614074
1.37666732
1.376134749
1.375298903
1.374874565
1.375864431
1.376535548
1.377225399
1.378182423
1.38010529
1.382526515
1.383476589
1.383046769
1.382301908
1.38227833
1.380493294
1.379568667
1.377968386
1.377576023
1.380976281
1.378061428
1.376758431
1.376080648
1.375798933
1.375374208
1.375471562
1.375809558
1.376325292
1.376428286
1.376590374
1.378015911
1.380053027
1.380747111
1.380805326
1.380099135
1.378212307
1.377316342
1.376737791
1.376248219
1.375884921
1.376372142
1.377225832
1.376732255
1.377245977
1.378262958
1.380381656
1.382425597
1.383190198
1.383429329
1.383155249
1.38102736
1.379391003
1.378513916
1.377987516
1.380936586
1.378375803
1.377426252
1.377043915
1.375955288
1.374993237
1.374820863
1.374944902
1.375431329
1.375870055
1.3764274
1.377540552
1.379397108
1.381308221
1.381806497
1.381548138
1.380269582
1.379169259
1.37850222
1.37809239
1.377606335
1.377297832
1.378258009
1.378107761
1.378482157
1.378790883
1.379361792
1.380552273
1.382558762
1.383763582
1.383082451
1.381454865
1.38079417
1.380156549
1.378730531
1.380617865
1.37892678
1.378582848
1.3781248
1.377023433
1.375590002
1.374698547
1.374312438
1.375292924
1.376061813
1.376520397
1.377169556
1.378562218
1.38077584
1.382270234
1.3825943
1.381951266
1.380905492
1.380299049
1.379843845
1.379080531
1.379042339
1.379444564
1.379875757
1.379709567
1.379172764
1.378898044
1.379899711
1.380750554
1.382756015
1.382840309
1.382437059
1.382415207
1.381647696
1.380669289
1.381726785
1.380361863
1.37997054
1.380138317
1.379666429
1.377721769
1.375721301
1.37528201
1.375950967
1.376750051
1.377254752
1.377848603
1.378936941
1.380256801
1.381927062
1.382786894
1.382817599
1.381978635
1.381484061
1.380819233
1.380327207
1.380771213
1.380752807
1.380672569
1.380263548
1.379955713
1.379817163
1.379478357
1.379638313
1.380983744
1.381552776
1.382915072
1.383574291
1.383027388
1.382548272
1.382944121
1.381234516
1.380605871
1.381619766
1.381490887
1.379570303
1.377941183
1.377354685
1.377258186
1.377904426
1.378635848
1.379333556
1.379889908
1.380443137
1.381523646
1.382196865
1.382591419
1.38272765
1.382575634
1.381763171
1.381311614
1.38155307
1.381511838
1.381000005
1.381128798
1.381122435
1.381017306
1.380315515
1.380371468
1.380769077
1.379905733
1.3813324
1.383406279
1.384101693
1.383751928
1.383596294
1.381446052
1.380130667
1.38144621
1.381954254
1.381239509
1.379539362
1.378567806
1.378980493
1.379604224
1.380940466
1.381425047
1.381167849
1.381520263
1.381506139
1.38171136
1.382061131
1.382516561
1.382615951
1.381855943
1.381235009
1.380817872
1.38092267
1.380910781
1.381308773
1.381615173
1.381633773
1.381589129
1.381245622
1.380644988
1.379577455
1.380105596
1.381912968
1.383733184
1.38483059
1.383774345
1.381503789
1.37960771
1.380051323
1.381361732
1.382209223
1.380867069
1.380419569
1.380641381
1.381158958
1.382427318
1.383256266
1.383540474
1.383121013
1.38239244
1.381895756
1.381807925
1.381712659
1.381449946
1.380854515
1.380407929
1.380153866
1.379897023
1.380191061
1.380667781
1.381521846
1.382257057
1.382398744
1.381755692
1.380571557
1.380130368
1.380227551
1.380618751
1.381933791
1.385470067
1.384117468
1.381956843
1.380080001
1.379295244
1.379947803
1.381246975
1.381664147
1.381577206
1.381624615
1.382100101
1.383408452
1.384631086
1.385173107
1.384860975
1.383855436
1.38280261
1.382538873
1.382156088
1.381591205
1.38121278
1.380579058
1.380580872
1.380082302
1.380100149
1.380270989
1.381119895
1.382521111
1.382934577
1.382465426
1.381269591
1.380716929
1.380430545
1.380478254
1.381084314
1.385685037
1.384437834
1.382716938
1.381123791
1.379637277
1.378970605
1.379316548
1.380341104
1.380720687
1.381107409
1.381760127
1.383211391
1.385079681
1.385875058
1.386070698
1.385273544
1.383866246
1.383095078
1.382753431
1.382237372
1.382181591
1.381572989
1.381641955
1.381619361
1.381396497
1.381286064
1.381583544
1.382374237
1.383129222
1.383076931
1.38197658
1.381004066
1.380834686
1.380799358
1.381190371
1.385295866
1.384305413
1.383185045
1.382431818
1.380928516
1.379589122
1.378360892
1.378397045
1.378788355
1.379514812
1.380249095
1.381653312
1.38368668
1.385599291
1.386138245
1.385929226
1.384584427
1.383219289
1.382861708
1.382656826
1.382754409
1.383501843
1.38432937
1.384826612
1.384821045
1.384143577
1.382863486
1.382302374
1.382838972
1.383101931
1.382214138
1.381633451
1.381788978
1.381568075
1.381738553
1.384998535
1.383745875
1.382794135
1.382805954
1.38228528
1.380788026
1.378553274
1.377497539
1.377780879
1.378595895
1.379558295
1.380893633
1.382404362
1.384202999
1.385120093
1.385265972
1.384617928
1.383656893
1.383457972
1.383629184
1.383791001
1.384895526
1.385847303
1.386495032
1.38676614
1.386452197
1.385374021
1.383107509
1.38293438
1.382870139
1.382461335
1.382693849
1.383117034
1.382809225
1.382685003
1.385296924
1.383524685
1.381600685
1.381390154
1.382146247
1.381520936
1.379266386
1.37787924
1.378090241
1.378649507
1.379814443
1.381241851
1.382538729
1.383535932
1.383836129
1.383970895
1.384201072
1.384369835
1.384265284
1.38451676
1.384938482
1.386078028
1.386967201
1.387720362
1.388115276
1.387864187
1.386798215
1.385221692
1.383789589
1.383610442
1.383473169
1.384008815
1.384396221
1.384130064
1.38396351
1.386110827
1.383879768
1.380726599
1.379538813
1.380518595
1.380783621
1.379967834
1.378618704
1.378947166
1.379717839
1.380985918
1.382520228
1.383782254
1.383996318
1.383688833
1.383506785
1.383849493
1.384351279
1.384260972
1.38425009
1.384719266
1.385912393
1.386352411
1.38717503
1.387896654
1.388132471
1.387997275
1.387025925
1.385957979
1.385103822
1.384934505
1.385340594
1.385909113
1.385704396
1.385625165
1.386990839
1.386827044
1.384144095
1.380517959
1.379246962
1.379886523
1.38046788
1.380603246
1.380497735
1.381046798
1.382186382
1.383989796
1.385209845
1.38552032
1.384740015
1.384403084
1.384247899
1.384372392
1.384764927
1.384528854
1.38412348
1.384228378
1.384931771
1.384996439
1.385450395
1.386109079
1.386906767
1.387845575
1.388398299
1.387859505
1.38726381
1.386820664
1.386907848
1.387227642
1.387062031
1.386869101
1.38689867
1.386827049
1.384126276
1.381107896
1.380220589
1.380848916
1.381448539
1.382526923
1.38425317
1.385320914
1.38646985
1.387800105
1.388457553
1.387888398
1.387064524
1.386154465
1.385565421
1.385656342
1.385826412
1.385369091
1.384630133
1.384350645
1.384582736
1.384527657
1.384678126
1.384955353
1.385685705
1.386841845
1.38877293
1.389408736
1.389006306
1.388622308
1.388520854
1.388461895
1.388311633
1.388214729
1.387625323
1.387157744
1.384841652
1.382528607
1.381733172
1.382383534
1.383569516
1.385618052
1.387403723
1.388516654
1.389097046
1.389541029
1.389935359
1.389797676
1.389792837
1.38944039
1.3887488
1.38766708
1.387294675
1.386739541
1.385810749
1.385249892
1.385149761
1.385112429
1.385072416
1.385089302
1.385552813
1.386456244
1.388391335
1.390206748
1.390605581
1.390278884
1.390136082
1.389819585
1.389725153
1.389601395
1.389487976
1.388834851
1.386744533
1.385022141
1.385081927
1.385715865
1.386830103
1.388012783
1.389279401
1.390384156
1.390873858
1.39124176
1.391612438
1.391600684
1.391743789
1.391796014
1.39170381
1.391299929
1.389872077
1.388357393
1.387281177
1.386660941
1.386372169
1.386359865
1.386270599
1.386310421
1.386601822
1.387230145
1.388751101
1.390313532
1.391487174
1.391342278
1.391347628
1.391238939
1.391310479
1.391207485
1.392669686
1.392132703
1.390351496
1.389068617
1.389112484
1.389412585
1.3896331
1.390129231
1.391123048
1.392341157
1.392613847
1.392706644
1.392862254
1.393085363
1.393777731
1.393985451
1.393810575
1.393378509
1.393261345
1.392554735
1.391191844
1.389916558
1.388882276
1.388364046
1.388097229
1.388072405
1.388281898
1.388905108
1.389936091
1.391044119
1.392130754
1.392165772
1.39211317
1.392329166
1.392777829
1.392990488
1.396641612
1.396398683
1.394720961
1.392808413
1.3919173
1.391967502
1.39189048
1.391713641
1.392054155
1.39351411
1.394209293
1.394650082
1.394813983
1.394926858
1.395176835
1.395324613
1.3955655
1.395326037
1.39509558
1.395374606
1.395479391
1.395124386
1.394495765
1.39360834
1.39256948
1.391227652
1.390572316
1.390924602
1.391731455
1.392404525
1.393366358
1.393479531
1.393410613
1.393641192
1.394032133
1.394615773
1.399155345
1.399149477
1.397542119
1.395266463
1.394062192
1.393348143
1.392687981
1.392417491
1.392930851
1.394324731
1.396228451
1.396956689
1.397171448
1.397296396
1.396893222
1.396506642
1.396408559
1.396283517
1.396641255
1.397301569
1.39819342
1.398667194
1.398805571
1.398974952
1.398660455
1.397453373
1.39572145
1.394243345
1.393651215
1.393936371
1.394668459
1.395042357
1.395114419
1.39548246
1.395476431
1.399491458
1.401049518
1.401148561
1.399365741
1.397005037
1.394878122
1.393760716
1.393536051
1.393513508
1.394181794
1.395941651
1.398313292
1.400198796
1.400651231
1.400097085
1.398917389
1.397899707
1.397330063
1.397243504
1.397730173
1.398708576
1.40005085
1.400770693
1.401364157
1.401779147
1.401822255
1.401672891
1.401145555
1.399747189
1.397531982
1.395946546
1.396150034
1.396629717
1.396837185
1.397267986
1.397034381
1.401174292
1.401909907
1.401600157
1.399273693
1.397024889
1.395350758
1.394741618
1.394799872
1.394928049
1.395545078
1.397388201
1.400359952
1.402847557
1.403709553
1.403270727
1.401456594
1.399409244
1.398646742
1.398451961
1.398935782
1.400008436
1.401110538
1.402195085
1.402378144
1.40309952
1.403677391
1.40380339
1.403704022
1.403289936
1.401833297
1.399754251
1.398430208
1.398812255
1.399279965
1.399440214
1.398479693
1.402725744
1.402877275
1.401640296
1.399163773
1.397347663
1.39626348
1.395808917
1.395947792
1.396195402
1.397037057
1.398540083
1.400636103
1.403662388
1.404817197
1.404415585
1.403824865
1.401963395
1.40008913
1.399586001
1.399822102
1.400673246
1.401328734
1.401847826
1.402293571
1.403218393
1.403967706
1.404521059
1.404628155
1.404476426
1.404096802
1.403211327
1.401481291
1.401120573
1.401327364
1.401372386
1.400618121
1.403824718
1.403704506
1.401990914
1.399176376
1.397891278
1.397254145
1.397690542
1.397975323
1.397949623
1.398248659
1.399042225
1.400866068
1.402856686
1.404521641
1.4046727
1.404418169
1.40411594
1.403023488
1.401415836
1.400741933
1.400741098
1.401245654
1.401651207
1.401801749
1.40259162
1.403201564
1.404037944
1.404599177
1.404863713
1.404925939
1.404830356
1.403738734
1.402627328
1.40226508
1.402072102
1.402104677
1.404501639
1.40418174
1.402220226
1.399336811
1.398329061
1.399288471
1.40106677
1.402078108
1.402036939
1.401813211
1.400971186
1.400758957
1.401760736
1.403029391
1.403831169
1.404311267
1.404725713
1.404724897
1.403818102
1.401692963
1.400896014
1.400846271
1.400982954
1.401121573
1.401753108
1.402382024
1.40333414
1.404036376
1.404609907
1.405170555
1.405374687
1.405007681
1.403474843
1.402444695
1.402173812
1.402595393
1.404686385
1.404316171
1.402525565
1.399836725
1.400031439
1.401439902
1.403313111
1.404757965
1.405335554
1.405191284
1.404505526
1.402161032
1.401455754
1.402154681
1.402987538
1.403542478
1.404496607
1.404943789
1.404794989
1.402891562
1.40094108
1.400426835
1.400459895
1.400702932
1.401177218
1.401720086
1.40258081
1.403475463
1.404208417
1.405216455
1.405327244
1.405494905
1.404159031
1.402516411
1.40206491
1.402623996
1.403838502
1.404306569
1.404031137
1.402988997
1.401581165
1.401807024
1.402507803
1.403659408
1.404503215
1.405387883
1.406521291
1.406364886
1.405101595
1.402381569
1.401664195
1.402264206
1.403165641
1.403924791
1.404540624
1.404564872
1.403821062
1.401667696
1.400294154
1.400131103
1.400509504
1.400835924
1.401052906
1.401822631
1.402821807
1.40369018
1.404337824
1.404820721
1.405298252
1.404543646
1.40306864
1.402129385
1.402661348
1.403780202
1.404130888
1.403934259
1.403343197
1.402362445
1.402453158
1.402749528
1.403311071
1.403579054
1.404564621
1.405978941
1.406749849
1.406618009
1.405487815
1.403051646
1.402486735
1.402903517
1.403114839
1.403446216
1.403747784
1.404087167
1.403735308
1.402534684
1.401911936
1.401882599
1.401252103
1.400806944
1.401280057
1.40237335
1.403318479
1.403540329
1.403976307
1.404606433
1.404386705
1.403625377
1.40278166
1.402928411
1.404785708
1.405287661
1.404777401
1.403760264
1.402293518
1.402289635
1.402413967
1.402621128
1.403555842
1.403993651
1.404705919
1.406277695
1.406761996
1.407194101
1.406470469
1.404356295
1.403041213
1.402498399
1.402434678
1.402843095
1.404139437
1.405312209
1.405660759
1.40559471
1.405323506
1.40399541
1.402625672
1.401931712
1.402408215
1.402986124
1.403200258
1.403205397
1.403526226
1.403782568
1.403497911
1.403205521
1.40329186
1.40579784
1.406523643
1.40568909
1.403694026
1.401550491
1.401455254
1.401390898
1.401310412
1.401733497
1.402398422
1.403381402
1.405173326
1.406639634
1.407598421
1.407744851
1.406716076
1.404726112
1.403192831
1.402635331
1.402894762
1.404033314
1.405371049
1.406539506
1.407017295
1.407067288
1.406462534
1.405605036
1.403855602
1.40308782
1.403249107
1.403350894
1.40296286
1.402479791
1.402790675
1.403106746
1.403166729
1.403381862
1.406009829
1.406529289
1.405737192
1.402889582
1.399966838
1.399958393
1.400127964
1.399964283
1.399629337
1.400336917
1.402001654
1.40371713
1.405965166
1.407366273
1.407972484
1.407543985
1.406190785
1.404422955
1.403360306
1.403187151
1.403766008
1.405008652
1.406613574
1.407323406
1.40709701
1.406784438
1.40646848
1.405432505
1.404282296
1.403846992
1.403556225
1.40306692
1.401975384
1.401977178
1.402475499
1.402701938
1.402990809
1.405123279
1.405465606
1.404573199
1.401570242
1.398425364
1.398548898
1.399105357
1.399162642
1.398663736
1.399179955
1.40059615
1.402302472
1.404691338
1.406391637
1.407069784
1.406805968
1.40634911
1.405073905
1.403848128
1.403066009
1.4029575
1.404065618
1.404971321
1.406024392
1.406045491
1.406129735
1.405997736
1.405850274
1.40484547
1.404149143
1.403644289
1.403049615
1.40209186
1.401910363
1.401998935
1.401992429
1.402289591
1.403864317
1.403945337
1.402700178
1.400312407
1.39784882
1.397848078
1.398477306
1.399026884
1.399228149
1.399405842
1.399907103
1.401358253
1.403357426
1.40489657
1.405325893
1.405374328
1.405243126
1.40473954
1.403404065
1.402155811
1.401452081
1.401727132
1.402328168
1.402986459
1.404103043
1.404524758
1.404343579
1.404538745
1.404144139
1.403609025
1.403097055
1.402394241
1.401956758
1.402244805
1.402186964
1.401755954
1.40187909
1.402470626
1.402939583
1.402811698
1.401021913
1.399111069
1.397641738
1.397700372
1.398341683
1.398959457
1.399666979
1.40001503
1.400199168
1.400936251
1.402049461
1.403139742
1.403410195
1.403395147
1.403288882
1.403259122
1.402435066
1.400994471
1.39982896
1.399178758
1.399487559
1.400106703
1.40096965
1.401746907
1.401749687
1.402295392
1.402540278
1.402330666
1.402107356
1.401364751
1.401167392
1.401615108
1.401644882
1.401356997
1.401232659
1.401203827
1.400955105
1.39911249
1.39698372
1.396269129
1.396616115
1.397459785
1.398052283
1.398653074
1.399418165
1.39991231
1.400097067
1.400012537
1.400457075
1.400928648
1.400871929
1.400665833
1.400759826
1.400892959
1.400140234
1.398648072
1.397355507
1.396749449
1.396934378
1.39766587
1.398571248
1.399047668
1.399604385
1.400091533
1.400293138
1.400449443
1.400101269
1.39976953
1.400026633
1.399833568
1.399800202
1.397983404
1.397419567
1.396852084
1.395284644
1.393418863
1.393157997
1.393832817
1.395205608
1.396187917
1.396779167
1.397577425
1.397999683
1.397861713
1.396834316
1.396510033
1.396998688
1.397535106
1.397510941
1.397717955
1.398226319
1.398143894
1.397062259
1.395766429
1.394699999
1.39420409
1.394486747
1.395238658
1.396115783
1.396528297
1.397149395
1.397472303
1.397585121
1.397566687
1.397405677
1.397550422
1.397100136
1.397275422
1.393226013
1.392258106
1.391297721
1.390273854
1.38911627
1.389092643
1.389928471
1.391733126
1.393426099
1.39413811
1.394404448
1.394199628
1.393832999
1.392933376
1.391964857
1.39195584
1.392638625
1.393124835
1.393548485
1.394070696
1.394485635
1.394242411
1.393441354
1.392565552
1.392048269
1.391943476
1.391948181
1.392637687
1.392944422
1.393641436
1.394173526
1.393935995
1.393860574
1.393764373
1.393924557
1.393640392
1.393996539
1.387724442
1.386939511
1.386349216
1.386191133
1.385850581
1.385979134
1.386462642
1.387574131
1.389162891
1.389822946
1.389796347
1.389212526
1.388616251
1.388385473
1.387860181
1.387237301
1.387217533
1.387734994
1.388304836
1.388718738
1.389352386
1.389822052
1.38972981
1.389372312
1.389237873
1.389267202
1.388830935
1.388616047
1.388574872
1.389131007
1.38990326
1.389572827
1.389306884
1.389082241
1.389162573
1.389291434
1.389645724
1.381253584
1.381153144
1.381462525
1.381805256
1.381592175
1.381762116
1.382290556
1.382736221
1.383271578
1.383491202
1.383658828
1.383469855
1.382919129
1.38311738
1.382972996
1.38265105
1.382505403
1.382330661
1.382304841
1.382413847
1.382963623
1.383885692
1.38457507
1.384995704
1.385402586
1.385703608
1.385316944
1.384475807
1.384046701
1.383968079
1.384407198
1.384121856
1.383784297
1.383553902
1.383685148
1.384230155
1.384312409
1.374210215
1.373609869
1.374338522
1.37517851
1.375534283
1.375204391
1.375196419
1.375901338
1.376311238
1.376146084
1.376069312
1.376364841
1.376694469
1.376903602
1.377641332
1.377894986
1.37780518
1.377709149
1.376898084
1.375950625
1.375600339
1.375785964
1.376803658
1.378235301
1.379382416
1.380053423
1.380347687
1.379958577
1.379067286
1.378836227
1.378428967
1.3783022
1.377926936
1.377527485
1.377357093
1.377686945
1.378476862
1.378133986
1.366408495
1.365827125
1.366518604
1.366908429
1.366974597
1.36680051
1.366838105
1.367593149
1.368415941
1.368441923
1.368311244
1.368371663
1.368926457
1.37020495
1.371722939
1.372510788
1.372586994
1.372426682
1.371166023
1.369572111
1.368664112
1.368661616
1.369790571
1.370686099
1.372293214
1.373272783
1.373335887
1.373062563
1.372419978
1.372428118
1.371999976
1.371636005
1.371186327
1.370815626
1.370661826
1.371090086
1.371836822
1.371196052
1.35912005
1.358408421
1.35812207
1.358057209
1.35786405
1.357660753
1.35766549
1.358542871
1.359865713
1.360278622
1.360279926
1.360374533
1.361137845
1.363008386
1.364973352
1.36625485
1.366652964
1.366271875
1.364833871
1.363109316
1.361687717
1.361644067
1.362029365
1.362560578
1.363954869
1.364865985
1.364867644
1.36490065
1.364706835
1.364749818
1.364310202
1.363950754
1.363630945
1.363532685
1.363401919
1.363749481
1.364181151
1.363680026
1.351990308
1.350785153
1.349754299
1.34925115
1.348790108
1.348610136
1.34866173
1.349720535
1.35132546
1.351863107
1.352214021
1.352905581
1.353949424
1.355677202
1.357543335
1.358488807
1.358826603
1.358362372
1.357420257
1.356168713
1.354488164
1.354144209
1.3537876
1.353940952
1.354187924
1.355011146
1.355469646
1.355983843
1.355994072
1.35595152
1.355755217
1.35548
1.355458459
1.355586562
1.355538777
1.35591781
1.355889319
1.355837729
1.344878147
1.342883651
1.341414657
1.341011308
1.340517324
1.340356033
1.340534746
1.341678754
1.343148338
1.343708262
1.344363533
1.345694853
1.346785433
1.347737121
1.348541053
1.34960923
1.350081945
1.349666633
1.348933046
1.348084374
1.346913078
1.346106255
1.345601974
1.345316652
1.345055823
1.345293406
1.345573976
1.346283795
1.34673151
1.346735776
1.346851811
1.346756721
1.347068832
1.347074861
1.347284525
1.347668963
1.347415229
1.347788944
1.337873708
1.3356115
1.333586926
1.333212779
1.333179388
1.333111567
1.33345167
1.334560081
1.335537972
1.335987948
1.336691841
1.33754466
1.338079977
1.338231079
1.338403034
1.338858989
1.339491268
1.339857883
1.339920058
1.339600259
1.339127494
1.338524247
1.337736219
1.336633789
1.336459211
1.335879938
1.336007683
1.336566403
1.337135954
1.33720525
1.337529884
1.337535047
1.338115655
1.337848858
1.338257395
1.338752207
1.3385637
1.339493493
1.327776022
1.326443183
1.326358439
1.326198776
1.326241145
1.32626596
1.326868923
1.328130881
1.328650721
1.328793429
1.328508562
1.328626321
1.328796423
1.328735285
1.328625698
1.328732235
1.32901693
1.329590514
1.330400575
1.330868223
1.33089487
1.330530773
1.329791185
1.329150719
1.327656713
1.327087758
1.32746491
1.327939285
1.328482734
1.328499777
1.32895802
1.32894542
1.329117898
1.328913385
1.329206279
1.329616673
1.3295711
1.330606327
1.321611706
1.318807013
1.31856087
1.319446207
1.319536552
1.319614267
1.319739315
1.320614944
1.321721627
1.321803213
1.321478113
1.320620391
1.319882288
1.319469286
1.319285111
1.319153935
1.319217742
1.319428851
1.319984905
1.321050685
1.322178843
1.322768303
1.322427465
1.32162055
1.320975053
1.320391175
1.319826966
1.320055409
1.320176609
1.32058511
1.320574721
1.321028004
1.321175535
1.320924412
1.320752514
1.320601697
1.320839654
1.320904944
1.313566299
1.311144292
1.311330897
1.31217205
1.31271316
1.312913799
1.31311471
1.313621142
1.31454398
1.314504874
1.314037025
1.312912188
1.311467037
1.310687052
1.310629154
1.310904448
1.311216452
1.311603567
1.3119882
1.312450796
1.313581667
1.314521925
1.314459207
1.314134277
1.313850675
1.313422656
1.313204685
1.313668059
1.313948694
1.314136842
1.314103163
1.314114879
1.314148018
1.313408207
1.313208342
1.312780679
1.312715702
1.31293846
1.306459506
1.30423874
1.304389277
1.305082776
1.305547485
1.305969473
1.306199922
1.306632902
1.307336153
1.3072057
1.306321592
1.304944773
1.303892111
1.304090647
1.304431531
1.304903816
1.30513648
1.305216292
1.30510303
1.30532988
1.305834203
1.306769141
1.30700526
1.307116341
1.30771918
1.307683645
1.307688969
1.308060441
1.308317885
1.308267822
1.308172174
1.307721741
1.307549306
1.30675336
1.306320312
1.305760303
1.305373183
1.305732603
1.299839862
1.297353719
1.297352723
1.298249251
1.298833953
1.299272845
1.299420992
1.299611465
1.300070462
1.299793966
1.298875679
1.298080217
1.297916448
1.298478659
1.299355055
1.300107844
1.300276412
1.300016481
1.299577296
1.299138443
1.299071635
1.299927788
1.300836423
1.30170069
1.302573306
1.302678378
1.302451758
1.302298783
1.302533309
1.302463627
1.302262485
1.301736374
1.301456515
1.300765274
1.300212842
1.299523095
1.29893533
1.299305795
1.293317451
1.29072278
1.290796165
1.291793214
1.292657523
1.293211602
1.293261945
1.293383483
1.293757397
1.293404157
1.292729143
1.292519132
1.292751392
1.293841423
1.295305921
1.296372687
1.296425597
1.29583278
1.294775986
1.293962258
1.293904747
1.293801867
1.294169524
1.29476937
1.295518286
1.296182408
1.296578364
1.296844338
1.297160162
1.297126702
1.296926381
1.296434114
1.296088582
1.295504432
1.294850143
1.294136831
1.293514979
1.293858922
1.287344554
1.28498485
1.285198848
1.286040568
1.286766585
1.28727787
1.28755546
1.288165231
1.288560647
1.288276278
1.287748063
1.287816607
1.288864459
1.29024215
1.291790757
1.292743841
1.292763135
1.292204065
1.291103104
1.290145911
1.289676065
1.28929368
1.289472658
1.289762204
1.289891877
1.290223276
1.290878316
1.291692309
1.292268272
1.292268093
1.291983324
1.291628405
1.291050127
1.290822907
1.290188221
1.289556061
1.289066673
1.289356328
1.285162377
1.282189584
1.280403546
1.280583109
1.281240431
1.281678984
1.282032639
1.282712677
1.284063109
1.2844529
1.284307546
1.283730078
1.283875963
1.284777296
1.28614904
1.28762776
1.288890364
1.289204322
1.288856772
1.288005541
1.287059973
1.286238177
1.285689942
1.285596626
1.285753032
1.285662213
1.285772715
1.286295839
1.287282243
1.287912049
1.287755312
1.287268169
1.28713084
1.286538745
1.2864857
1.286231994
1.285914243
1.285682027
1.285971553
1.281068013
1.278234027
1.27690504
1.2769584
1.277300403
1.277982222
1.278596554
1.279502088
1.28115645
1.281721023
1.281507144
1.280848345
1.280796351
1.281646563
1.282828208
1.283856241
1.284613855
1.285316022
1.285440682
1.285098993
1.284373785
1.283331752
1.282515088
1.282116065
1.282009233
1.281854799
1.281922437
1.282438476
1.283384994
1.283983147
1.283872134
1.283535455
1.283581135
1.283359398
1.283126619
1.283286871
1.283366617
1.283301435
1.283647958
1.279020504
1.275871226
1.274697415
1.274840876
1.275156497
1.275800796
1.276582372
1.277539236
1.278942643
1.27974163
1.279493319
1.278875924
1.278552083
1.279058825
1.279866164
1.280521764
1.280700884
1.281357153
1.281787518
1.281603876
1.281248692
1.280461227
1.279709356
1.279350114
1.278974005
1.278859959
1.279087508
1.279701998
1.280361294
1.280907824
1.281341242
1.281623801
1.281761282
1.281616694
1.281241684
1.281520528
1.281880326
1.281728831
1.282192947
1.27759561
1.274189683
1.273336527
1.273996064
1.27465943
1.274984246
1.275087706
1.275890636
1.277121356
1.277823286
1.277528598
1.277016362
1.27667212
1.276660819
1.276894649
1.27745246
1.277812057
1.277821185
1.2780563
1.278262009
1.27862293
1.278737537
1.278829122
1.278487457
1.27817346
1.278283401
1.278577235
1.279189365
1.279579134
1.279791187
1.280365267
1.280899334
1.281081952
1.280952183
1.280509293
1.28077008
1.281077614
1.280722065
1.281508681
1.275000235
1.271753559
1.271825131
1.273348204
1.274740906
1.274850336
1.274820794
1.275326481
1.276267817
1.276518098
1.27580647
1.275135322
1.274802587
1.274479577
1.274749666
1.275685877
1.276609935
1.276846482
1.27675911
1.276955045
1.27761826
1.278528458
1.279058607
1.279314667
1.279487522
1.279763085
1.27951898
1.279337469
1.279390195
1.279557006
1.28015763
1.280683756
1.280854618
1.280979583
1.280519388
1.280228384
1.280509889
1.280306341
1.281033584
1.271996016
1.270085761
1.270560897
1.272395451
1.274545149
1.275456584
1.275112729
1.275390483
1.276276555
1.276403606
1.275408585
1.274699357
1.274359741
1.274232721
1.274609261
1.275555482
1.276473612
1.27676236
1.276594946
1.276748175
1.27743424
1.278459635
1.279442418
)
;

boundaryField
{
    inlet
    {
        type            calculated;
        value           nonuniform 0();
    }
    outlet
    {
        type            calculated;
        value           nonuniform 0();
    }
    bottom
    {
        type            calculated;
        value           nonuniform 0();
    }
    top
    {
        type            calculated;
        value           nonuniform 0();
    }
    obstacle
    {
        type            calculated;
        value           nonuniform 0();
    }
    defaultFaces
    {
        type            empty;
    }
    procBoundary16to10
    {
        type            processor;
        value           nonuniform List<scalar> 
36
(
1.377920892
1.378131399
1.378592755
1.379211123
1.381170711
1.381837725
1.379824575
1.382192936
1.382732183
1.382443486
1.381283486
1.379626408
1.378908324
1.378518965
1.378152447
1.378170614
1.377678798
1.376900162
1.376737204
1.377072697
1.378084705
1.378901511
1.379338585
1.379852656
1.381051515
1.382764644
1.383499225
1.38336549
1.382789028
1.38216903
1.380899832
1.379656607
1.379656607
1.380752919
1.379398156
1.379398156
)
;
    }
    procBoundary16to11
    {
        type            processor;
        value           uniform 1.382083801;
    }
    procBoundary16to15
    {
        type            processor;
        value           nonuniform List<scalar> 
69
(
1.383081307
1.381083334
1.380978383
1.381104151
1.38144423
1.382246867
1.383017556
1.383623145
1.384196636
1.384196636
1.383083064
1.383878661
1.383194809
1.382689475
1.383318069
1.384666198
1.386117962
1.386117962
1.384724515
1.385591563
1.386781623
1.388672157
1.391571518
1.39500548
1.397409777
1.397409777
1.396960224
1.398323688
1.40025091
1.402076149
1.403350917
1.403926709
1.403926709
1.403898555
1.40346031
1.403829869
1.404559257
1.404854143
1.404082698
1.403087039
1.403087039
1.402118117
1.40145974
1.39871606
1.394223471
1.388735052
1.382010986
1.382010986
1.374841459
1.366954314
1.359779488
1.353128804
1.347005083
1.340305606
1.330748335
1.330748335
1.324539604
1.315618207
1.308286859
1.302220575
1.296435782
1.290582716
1.290582716
1.288621741
1.284654214
1.282550649
1.281205888
1.278923595
1.27564121
)
;
    }
    procBoundary16to17
    {
        type            processor;
        value           nonuniform List<scalar> 
64
(
1.381643682
1.37950278
1.377556036
1.376830433
1.378357376
1.380201668
1.380678313
1.382427475
1.384387841
1.384387841
1.383877123
1.382450724
1.381757628
1.382296217
1.383038654
1.383828502
1.384938868
1.386390962
1.387755681
1.389354898
1.391122912
1.393150488
1.395150557
1.395857973
1.395857973
1.397302819
1.398566244
1.399892988
1.401828976
1.40291578
1.403161505
1.403025936
1.402889459
1.402929946
1.403130285
1.403092068
1.40269469
1.402189308
1.401595266
1.401595266
1.400150108
1.397547843
1.394119078
1.389767088
1.384548352
1.378550176
1.371719677