/*--------------------------------*- C++ -*----------------------------------*\
  =========                 |
  \\      /  F ield         | OpenFOAM: The Open Source CFD Toolbox
   \\    /   O peration     | Website:  https://openfoam.org
    \\  /    A nd           | Version:  7
     \\/     M anipulation  |
\*---------------------------------------------------------------------------*/
FoamFile
{
    version     2.0;
    format      ascii;
    class       volVectorField;
    location    "1.6";
    object      U;
}
// * * * * * * * * * * * * * * * * * * * * * * * * * * * * * * * * * * * * * //

dimensions      [0 1 -1 0 0 0 0];

internalField   nonuniform List<vector> 5((3 -1.378955044e-16 0) (3 -2.602106384e-16 0) (3 -1.032769968e-15 0) (3 -3.585520972e-16 0) (3 3.722089126e-16 0));

boundaryField
{
    inlet
    {
        type            fixedValue;
        value           uniform (3 0 0);
    }
    outlet
    {
        type            inletOutlet;
        inletValue      nonuniform 0();
        value           nonuniform 0();
    }
    bottom
    {
        type            slip;
    }
    top
    {
        type            slip;
    }
    obstacle
    {
        type            slip;
    }
    defaultFaces
    {
        type            empty;
    }
    procBoundary0to1
    {
        type            processor;
        value           uniform (3 -1.71898288e-15 0);
    }
    procBoundary0to6
    {
        type            processor;
        value           nonuniform List<vector> 4((3 -1.437595638e-15 0) (3 -4.622313301e-16 0) (3 -1.437595638e-15 0) (3 1.626412647e-15 0));
    }
}


// ************************************************************************* //
