/*--------------------------------*- C++ -*----------------------------------*\
  =========                 |
  \\      /  F ield         | OpenFOAM: The Open Source CFD Toolbox
   \\    /   O peration     | Website:  https://openfoam.org
    \\  /    A nd           | Version:  7
     \\/     M anipulation  |
\*---------------------------------------------------------------------------*/
FoamFile
{
    version     2.0;
    format      ascii;
    class       volVectorField;
    location    "2.3";
    object      U;
}
// * * * * * * * * * * * * * * * * * * * * * * * * * * * * * * * * * * * * * //

dimensions      [0 1 -1 0 0 0 0];

internalField   nonuniform List<vector> 5((3 -5.165443389e-15 0) (3 -5.428985046e-15 0) (3 -7.631023483e-15 0) (3 -1.084579532e-11 0) (2.999999984 -2.932172254e-08 0));

boundaryField
{
    inlet
    {
        type            fixedValue;
        value           nonuniform 0();
    }
    outlet
    {
        type            inletOutlet;
        inletValue      nonuniform 0();
        value           nonuniform 0();
    }
    bottom
    {
        type            slip;
    }
    top
    {
        type            slip;
    }
    obstacle
    {
        type            slip;
    }
    defaultFaces
    {
        type            empty;
    }
    procBoundary1to0
    {
        type            processor;
        value           uniform (3 -3.033181274e-15 0);
    }
    procBoundary1to2
    {
        type            processor;
        value           uniform (3.000000014 4.8033972e-09 0);
    }
    procBoundary1to6
    {
        type            processor;
        value           uniform (3 -4.155787481e-15 0);
    }
    procBoundary1to7
    {
        type            processor;
        value           nonuniform List<vector> 5((3 -7.654665606e-15 0) (3 -7.654665606e-15 0) (3 -4.698412996e-16 0) (3 -7.654665606e-15 0) (2.999989885 -1.766171842e-05 0));
    }
    procBoundary1to8
    {
        type            processor;
        value           uniform (3.000000281 3.197947139e-07 0);
    }
}


// ************************************************************************* //
