/*--------------------------------*- C++ -*----------------------------------*\
  =========                 |
  \\      /  F ield         | OpenFOAM: The Open Source CFD Toolbox
   \\    /   O peration     | Website:  https://openfoam.org
    \\  /    A nd           | Version:  7
     \\/     M anipulation  |
\*---------------------------------------------------------------------------*/
FoamFile
{
    version     2.0;
    format      ascii;
    class       volScalarField;
    location    "4.3";
    object      rho;
}
// * * * * * * * * * * * * * * * * * * * * * * * * * * * * * * * * * * * * * //

dimensions      [1 -3 0 0 0 0 0];

internalField   nonuniform List<scalar> 
2223
(
1.592172344
1.549198252
1.520466609
1.40000504
1.40000504
1.40000504
1.400005043
1.400005767
1.40011284
1.406391758
1.559966541
2.160382583
2.662430164
2.84982288
2.844187349
2.826603922
2.819501099
2.800715995
2.784465821
2.767782259
2.712571599
2.637624499
2.559718089
2.472858452
2.392494247
2.316363191
2.227010452
2.142638966
2.08400518
2.026506147
1.958504393
1.900106689
1.851184079
1.800743971
1.746394411
1.704608252
1.665720402
1.622244306
1.578341372
1.549321305
1.40000504
1.40000504
1.40000504
1.40000504
1.400005068
1.400011807
1.400665803
1.428423669
1.744708477
2.323015938
2.814674104
2.844448637
2.830950904
2.817545493
2.805537813
2.803513035
2.794122471
2.742012361
2.670241717
2.597687974
2.514949013
2.435496266
2.360060847
2.26745304
2.18250788
2.1242023
2.064562257
1.993908995
1.935241705
1.886249736
1.835235231
1.780339898
1.737718088
1.697791657
1.652188578
1.607518654
1.577820798
1.40000504
1.40000504
1.40000504
1.40000504
1.400005041
1.400005256
1.400040496
1.402766222
1.4772081
1.884570258
2.590437999
2.8331445
2.817226342
2.811558572
2.816869321
2.825225669
2.812614221
2.763523862
2.700180999
2.634990991
2.554917946
2.476078479
2.401778802
2.307111269
2.2223382
2.165006716
2.104769359
2.032892344
1.972414642
1.921956565
1.868293747
1.812711112
1.770321256
1.729874845
1.682201137
1.637196526
1.606688879
1.40000504
1.40000504
1.40000504
1.40000504
1.40000504
1.400005044
1.400006001
1.400144999
1.408711787
1.54932019
2.149043106
2.764974401
2.78914155
2.809136664
2.831102406
2.8503404
2.830612507
2.780018614
2.726213306
2.671547456
2.59572474
2.518767422
2.445757743
2.348628509
2.263440405
2.204902471
2.142839307
2.070454899
2.009710255
1.958270308
1.901831636
1.844971574
1.802293394
1.761417761
1.712307099
1.667038253
1.635501272
1.40000504
1.40000504
1.40000504
1.40000504
1.40000504
1.40000504
1.400005066
1.400010695
1.400648988
1.426598811
1.720753957
2.510669397
2.749039181
2.813402226
2.858121467
2.865970537
2.839621295
2.79374849
2.748552477
2.698502857
2.628519999
2.558053487
2.488765874
2.392081675
2.306773041
2.247078067
2.183854157
2.109679252
2.047411305
1.994505759
1.934088959
1.876571425
1.833636254
1.791927143
1.741802354
1.697160048
1.665609405
1.40000504
1.40000504
1.40000504
1.40000504
1.40000504
1.40000504
1.400005042
1.400005409
1.400053424
1.403599783
1.486830682
2.089986576
2.638571143
2.792899876
2.85728426
2.863607467
2.838904807
2.804819203
2.769711576
2.725517601
2.662171604
2.597925013
2.53117272
2.435608244
2.349786484
2.288355536
2.223590053
2.147646912
2.08556661
2.032615801
1.969487019
1.911048991
1.866190214
1.822757282
1.770376043
1.72544568
1.69369513
1.40000504
1.40000504
1.40000504
1.40000504
1.40000504
1.40000504
1.40000504
1.400005073
1.400009564
1.400417534
1.416789952
1.689602919
2.40925887
2.730168917
2.849391928
2.853968174
2.834811977
2.808616759
2.788520528
2.751555877
2.695930589
2.636911486
2.571780187
2.479895462
2.39492712
2.332052188
2.265129449
2.183276642
2.119876551
2.067423968
2.004119124
1.94728331
1.901187131
1.856214411
1.801327024
1.755017997
1.722664095
1.40000504
1.40000504
1.40000504
1.40000504
1.40000504
1.40000504
1.40000504
1.400005043
1.400005407
1.400044701
1.402597423
1.475261589
2.034800226
2.58154959
2.825701244
2.84897747
2.83514639
2.817447093
2.804158975
2.769889724
2.730043843
2.678512024
2.611073292
2.518786692
2.435691458
2.375492924
2.309591076
2.223630561
2.158211786
2.104386046
2.039889147
1.983745599
1.936256009
1.889932813
1.832370894
1.785000671
1.751888231
1.40000504
1.40000504
1.40000504
1.40000504
1.40000504
1.40000504
1.40000504
1.40000504
1.400005057
1.400007771
1.400279466
1.413268994
1.650957693
2.26277245
2.72087849
2.838650671
2.828582458
2.808413328
2.797042871
2.780544417
2.763899234
2.720025639
2.649371721
2.557162934
2.473042755
2.41452066
2.350967795
2.264434961
2.198302631
2.142337746
2.076068469
2.020753116
1.972758716
1.926087957
1.865828887
1.81654144
1.782296634
1.40000504
1.40000504
1.40000504
1.40000504
1.40000504
1.40000504
1.40000504
1.40000504
1.400005041
1.400005136
1.400021606
1.401428374
1.450394432
1.838420415
2.439596661
2.822987329
2.828594522
2.798491449
2.796470121
2.795604686
2.794024385
2.753610502
2.682140353
2.594749082
2.510119026
2.452938475
2.39213181
2.307519861
2.241724882
2.183147371
2.112667693
2.055120243
2.006355857
1.960223438
1.898888544
1.849930129
1.815340987
1.40000504
1.40000504
1.40000504
1.40000504
1.40000504
1.40000504
1.40000504
1.40000504
1.40000504
1.400005042
1.400005504
1.400078507
1.405268824
1.515546889
1.998365867
2.692999723
2.810299608
2.791534512
2.806087842
2.815277193
2.818051689
2.776739712
2.706850437
2.628765694
2.546916726
2.490047669
2.430051699
2.34793095
2.283593715
2.224446414
2.152936449
2.092550319
2.041328832
1.992952436
1.928010415
1.880394408
1.846717797
1.40000504
1.40000504
1.40000504
1.40000504
1.40000504
1.40000504
1.40000504
1.40000504
1.40000504
1.40000504
1.400005048
1.400007002
1.400299883
1.414833553
1.626005326
2.31490276
2.730002208
2.77108963
2.809519954
2.835628736
2.831181918
2.787105947
2.722663582
2.656731398
2.583759281
2.529137565
2.469459392
2.389368125
2.323178759
2.262150936
2.191360068
2.130515231
2.078154926
2.027064631
1.959323536
1.913994537
1.88039761
1.40000504
1.40000504
1.40000504
1.40000504
1.40000504
1.40000504
1.40000504
1.40000504
1.40000504
1.40000504
1.400005041
1.400005111
1.400018781
1.401272889
1.44769886
1.84096511
2.550173835
2.73815939
2.831302951
2.852544617
2.835887707
2.791529411
2.736457988
2.680502833
2.615241869
2.56483539
2.508279168
2.431895519
2.36317166
2.299582412
2.227122957
2.16580039
2.114388101
2.060739407
1.991434852
1.948361383
1.914150726
1.40000504
1.40000504
1.40000504
1.40000504
1.40000504
1.40000504
1.40000504
1.40000504
1.40000504
1.40000504
1.40000504
1.400005047
1.400006084
1.400106566
1.406966605
1.53389662
2.207916932
2.676053723
2.814567467
2.843414831
2.834415499
2.796047109
2.752843481
2.706783235
2.645085664
2.598247278
2.546872446
2.474777056
2.403400276
2.337286945
2.260956268
2.198607152
2.15002881
2.09580173
2.028188246
1.986263075
1.950093271
1.40000504
1.40000504
1.40000504
1.40000504
1.40000504
1.40000504
1.40000504
1.40000504
1.40000504
1.40000504
1.40000504
1.400005041
1.400005141
1.400014878
1.400881596
1.428491192
1.800471275
2.50905716
2.730172544
2.82143954
2.829012425
2.80275511
2.770427521
2.731550561
2.67415953
2.631423078
2.58305996
2.512686463
2.43975449
2.373911626
2.29576205
2.230435512
2.182006747
2.126746741
2.063607013
2.023357819
1.98609514
1.40000504
1.40000504
1.40000504
1.40000504
1.40000504
1.40000504
1.40000504
1.40000504
1.40000504
1.40000504
1.40000504
1.40000504
1.400005048
1.40000593
1.400099051
1.404870734
1.521054375
2.168230355
2.612377534
2.813863983
2.823033005
2.808300096
2.793312453
2.756576591
2.703184731
2.666469951
2.616767188
2.543063694
2.468894372
2.40611663
2.330728891
2.265591264
2.216038437
2.158038875
2.097865508
2.05842132
2.020274032
1.40000504
1.40000504
1.40000504
1.40000504
1.40000504
1.40000504
1.40000504
1.40000504
1.40000504
1.40000504
1.40000504
1.40000504
1.40000504
1.400005088
1.400012139
1.400556738
1.423355813
1.742462603
2.357526762
2.761016726
2.816803107
2.807652171
2.787999144
2.763137585
2.729024301
2.702747284
2.650136831
2.569396103
2.493536718
2.433745121
2.361586783
2.300056881
2.251476258
2.191091563
2.131402385
2.091056198
2.052275597
1.40000504
1.40000504
1.40000504
1.40000504
1.40000504
1.40000504
1.40000504
1.40000504
1.40000504
1.40000504
1.40000504
1.40000504
1.40000504
1.400005041
1.400005298
1.400039767
1.402730708
1.479814463
1.96327158
2.528784555
2.815753478
2.817387564
2.798103764
2.769405852
2.750166353
2.733693686
2.679828891
2.595235983
2.520386029
2.462220317
2.391020256
2.33352948
2.287138078
2.226916073
2.166659981
2.123445026
2.083095862
1.40000504
1.40000504
1.40000504
1.40000504
1.40000504
1.40000504
1.40000504
1.40000504
1.40000504
1.40000504
1.40000504
1.40000504
1.40000504
1.40000504
1.400005044
1.400006126
1.400167709
1.409906434
1.589730776
2.123164571
2.733557606
2.817828257
2.798321405
2.774832764
2.769979319
2.760611005
2.705085585
2.620132672
2.550097023
2.493211334
2.423384698
2.368963279
2.322131206
2.261772335
2.20149385
2.155680833
2.113917796
1.40000504
1.40000504
1.40000504
1.40000504
1.40000504
1.40000504
1.40000504
1.40000504
1.40000504
1.40000504
1.40000504
1.40000504
1.40000504
1.40000504
1.40000504
1.400005063
1.400010253
1.400721697
1.43085352
1.722614435
2.427122196
2.790524501
2.780236085
2.781324018
2.786134095
2.778840597
2.724350426
2.642289027
2.578397315
2.523511528
2.457770443
2.40596615
2.356357989
2.292628219
2.230788888
2.184746169
2.143323985
1.40000504
1.40000504
1.40000504
1.40000504
1.40000504
1.40000504
1.40000504
1.40000504
1.40000504
1.40000504
1.40000504
1.40000504
1.40000504
1.40000504
1.40000504
1.400005042
1.400005213
1.400042387
1.40298068
1.48212747
1.957072269
2.662716345
2.750630624
2.786194571
2.80379732
2.79313686
2.739466296
2.664625481
2.606235759
2.553045067
2.492399842
2.442687
2.390970403
2.322514099
2.256044881
2.21016282
2.170088498
1.40000504
1.40000504
1.40000504
1.40000504
1.40000504
1.40000504
1.40000504
1.40000504
1.40000504
1.40000504
1.40000504
1.40000504
1.40000504
1.40000504
1.40000504
1.40000504
1.400005054
1.400007339
1.400232574
1.412742015
1.593427558
2.343972356
2.685107461
2.774561843
2.807441115
2.797647579
2.750686339
2.690225712
2.637784666
2.583500679
2.526591164
2.47767543
2.424146267
2.353273967
2.283396943
2.236839928
2.196352837
1.40000504
1.40000504
1.40000504
1.40000504
1.40000504
1.40000504
1.40000504
1.40000504
1.40000504
1.40000504
1.40000504
1.40000504
1.40000504
1.40000504
1.40000504
1.40000504
1.400005042
1.400005228
1.400024946
1.401536929
1.444406038
1.902467013
2.543540723
2.736751462
2.798610935
2.793554253
2.758489096
2.715455158
2.670239802
2.614312162
2.55986176
2.510165021
2.453953463
2.381971773
2.311757553
2.265625022
2.224135655
1.40000504
1.40000504
1.40000504
1.40000504
1.40000504
1.40000504
1.40000504
1.40000504
1.40000504
1.40000504
1.40000504
1.40000504
1.40000504
1.40000504
1.40000504
1.40000504
1.40000504
1.400005054
1.400006869
1.400168601
1.408147099
1.568785476
2.263677942
2.64080095
2.793420894
2.794503816
2.769363819
2.736009992
2.692288802
2.641673226
2.593866215
2.542197196
2.482120357
2.408578866
2.338975981
2.29501149
2.253378054
1.40000504
1.40000504
1.40000504
1.40000504
1.40000504
1.40000504
1.40000504
1.40000504
1.40000504
1.40000504
1.40000504
1.40000504
1.40000504
1.40000504
1.40000504
1.40000504
1.40000504
1.400005041
1.400005155
1.400019464
1.401123598
1.437327568
1.862699308
2.423116657
2.757364526
2.804963002
2.784378396
2.759438729
2.715953055
2.668529897
2.625494631
2.57211347
2.510195319
2.436002928
2.366314428
2.323673758
2.2822454
1.40000504
1.40000504
1.40000504
1.40000504
1.40000504
1.40000504
1.40000504
1.40000504
1.40000504
1.40000504
1.40000504
1.40000504
1.40000504
1.40000504
1.40000504
1.40000504
1.40000504
1.40000504
1.400005044
1.400005789
1.400100318
1.405533139
1.537637575
2.072319867
2.591322488
2.805831743
2.80007125
2.784425307
2.73809032
2.693399214
2.655353087
2.599317036
2.535843878
2.463951128
2.396235797
2.354395397
2.312219356
1.40000504
1.40000504
1.40000504
1.40000504
1.40000504
1.40000504
1.40000504
1.40000504
1.40000504
1.40000504
1.40000504
1.40000504
1.40000504
1.40000504
1.40000504
1.40000504
1.40000504
1.40000504
1.40000504
1.400005057
1.400009148
1.400453092
1.420848132
1.671177583
2.222496768
2.753873732
2.802688488
2.787349753
2.74800125
2.719354233
2.688750786
2.627076752
2.561201634
2.493112743
2.42786662
2.38653433
2.343110721
1.40000504
1.40000504
1.40000504
1.40000504
1.40000504
1.40000504
1.40000504
1.40000504
1.40000504
1.40000504
1.40000504
1.40000504
1.40000504
1.40000504
1.40000504
1.40000504
1.40000504
1.40000504
1.40000504
1.40000504
1.400005121
1.40002249
1.401639039
1.45272928
1.793219046
2.522484766
2.778807863
2.768796212
2.755577906
2.747306388
2.722938697
2.655058939
2.586898277
2.521871441
2.458620549
2.417545829
2.373377767
1.40000504
1.40000504
1.40000504
1.40000504
1.40000504
1.40000504
1.40000504
1.40000504
1.40000504
1.40000504
1.40000504
1.40000504
1.40000504
1.40000504
1.40000504
1.40000504
1.40000504
1.40000504
1.40000504
1.40000504
1.400005042
1.400005505
1.400081501
1.405624301
1.512039173
2.084996024
2.702171425
2.737817046
2.752944528
2.766521635
2.747220372
2.679901865
2.613659554
2.551896188
2.488661026
2.448555184
2.404539689
1.40000504
1.40000504
1.40000504
1.40000504
1.40000504
1.40000504
1.40000504
1.40000504
1.40000504
1.40000504
1.40000504
1.40000504
1.40000504
1.40000504
1.40000504
1.40000504
1.40000504
1.40000504
1.40000504
1.40000504
1.40000504
1.400005066
1.400009258
1.400464202
1.420277038
1.677247746
2.454192809
2.683916307
2.753739678
2.77903658
2.756104846
2.696301439
2.638700969
2.58273728
2.520124569
2.478712509
2.434319804
1.40000504
1.40000504
1.40000504
1.40000504
1.40000504
1.40000504
1.40000504
1.40000504
1.40000504
1.40000504
1.40000504
1.40000504
1.40000504
1.40000504
1.40000504
1.40000504
1.40000504
1.40000504
1.40000504
1.40000504
1.40000504
1.400005043
1.400005402
1.400045439
1.402860887
1.470347633
2.037397939
2.566816453
2.73582546
2.779000401
2.758590516
2.71074439
2.663893123
2.610524304
2.549491524
2.508717397
2.463545478
1.40000504
1.40000504
1.40000504
1.40000504
1.40000504
1.40000504
1.40000504
1.40000504
1.40000504
1.40000504
1.40000504
1.40000504
1.40000504
1.40000504
1.40000504
1.40000504
1.40000504
1.40000504
1.40000504
1.40000504
1.40000504
1.40000504
1.400005071
1.400008805
1.400327575
1.413288919
1.649650557
2.318027998
2.661656924
2.772972313
2.761610432
2.726090062
2.686469781
2.634335136
2.578713385
2.53917893
2.492339777
1.40000504
1.40000504
1.40000504
1.40000504
1.40000504
1.40000504
1.40000504
1.40000504
1.40000504
1.40000504
1.40000504
1.40000504
1.40000504
1.40000504
1.40000504
1.40000504
1.40000504
1.40000504
1.40000504
1.40000504
1.40000504
1.40000504
1.400005042
1.400005301
1.400033714
1.401937702
1.459124735
1.947205834
2.462651425
2.753008847
2.767008669
2.746651695
2.714625341
2.657846349
2.606533635
2.568075067
2.518846829
1.40000504
1.40000504
1.40000504
1.40000504
1.40000504
1.40000504
1.40000504
1.40000504
1.40000504
1.40000504
1.40000504
1.40000504
1.40000504
1.40000504
1.40000504
1.40000504
1.40000504
1.40000504
1.40000504
1.40000504
1.40000504
1.40000504
1.40000504
1.40000505
1.400006702
1.400185035
1.409357662
1.587548726
2.117401454
2.639938905
2.766064491
2.754765239
2.730134234
2.676513886
2.636012997
2.599276553
2.54438293
1.40000504
1.40000504
1.40000504
1.40000504
1.40000504
1.40000504
1.40000504
1.40000504
1.40000504
1.40000504
1.40000504
1.40000504
1.40000504
1.40000504
1.40000504
1.40000504
1.40000504
1.40000504
1.40000504
1.40000504
1.40000504
1.40000504
1.40000504
1.40000504
1.400005086
1.400013938
1.400841821
1.431737512
1.717623928
2.298462019
2.743454914
2.755546849
2.730525115
2.690653362
2.670773234
2.632878037
2.56869574
1.40000504
1.40000504
1.40000504
1.40000504
1.40000504
1.40000504
1.40000504
1.40000504
1.40000504
1.40000504
1.40000504
1.40000504
1.40000504
1.40000504
1.40000504
1.40000504
1.40000504
1.40000504
1.40000504
1.40000504
1.40000504
1.40000504
1.40000504
1.40000504
1.400005041
1.400005242
1.400041493
1.402805459
1.471336242
1.856448924
2.59226323
2.729961102
2.715786648
2.710272972
2.707882677
2.667354732
2.593832038
1.40000504
1.40000504
1.40000504
1.40000504
1.40000504
1.40000504
1.40000504
1.40000504
1.40000504
1.40000504
1.40000504
1.40000504
1.40000504
1.40000504
1.40000504
1.40000504
1.40000504
1.40000504
1.40000504
1.40000504
1.40000504
1.40000504
1.40000504
1.40000504
1.40000504
1.400005045
1.400006131
1.400154866
1.408785023
1.546911325
2.211159137
2.651018925
2.694496174
2.723412107
2.736887813
2.696855365
2.62007102
1.40000504
1.40000504
1.40000504
1.40000504
1.40000504
1.40000504
1.40000504
1.40000504
1.40000504
1.40000504
1.40000504
1.40000504
1.40000504
1.40000504
1.40000504
1.40000504
1.40000504
1.40000504
1.40000504
1.40000504
1.40000504
1.40000504
1.40000504
1.40000504
1.40000504
1.400005041
1.4000051
1.400014196
1.400828444
1.429971259
1.767595964
2.473440207
2.661880844
2.740898457
2.750511167
2.713807576
2.643880358
1.40000504
1.40000504
1.40000504
1.40000504
1.40000504
1.40000504
1.40000504
1.40000504
1.40000504
1.40000504
1.40000504
1.40000504
1.40000504
1.40000504
1.40000504
1.40000504
1.40000504
1.40000504
1.40000504
1.40000504
1.40000504
1.40000504
1.40000504
1.40000504
1.40000504
1.40000504
1.400005046
1.400005854
1.40008275
1.404722327
1.504094599
2.12985474
2.561245369
2.72474615
2.748181679
2.722745768
2.666874626
1.40000504
1.40000504
1.40000504
1.40000504
1.40000504
1.40000504
1.40000504
1.40000504
1.40000504
1.40000504
1.40000504
1.40000504
1.40000504
1.40000504
1.40000504
1.40000504
1.40000504
1.40000504
1.40000504
1.40000504
1.40000504
1.40000504
1.40000504
1.40000504
1.40000504
1.40000504
1.400005041
1.400005108
1.40001252
1.400598943
1.420934808
1.734917562
2.344902667
2.670072136
2.744343316
2.72962542
2.688300251
1.40000504
1.40000504
1.40000504
1.40000504
1.40000504
1.40000504
1.40000504
1.40000504
1.40000504
1.40000504
1.40000504
1.40000504
1.40000504
1.40000504
1.40000504
1.40000504
1.40000504
1.40000504
1.40000504
1.40000504
1.40000504
1.40000504
1.40000504
1.40000504
1.40000504
1.40000504
1.40000504
1.400005044
1.400005565
1.40006092
1.403229195
1.488200057
1.996981006
2.493327914
2.733889099
2.735253023
2.711325851
1.40000504
1.40000504
1.40000504
1.40000504
1.40000504
1.40000504
1.40000504
1.40000504
1.40000504
1.40000504
1.40000504
1.40000504
1.40000504
1.40000504
1.40000504
1.40000504
1.40000504
1.40000504
1.40000504
1.40000504
1.40000504
1.40000504
1.40000504
1.40000504
1.40000504
1.40000504
1.40000504
1.40000504
1.400005059
1.400008333
1.40030925
1.41388421
1.625254839
2.134015733
2.657973207
2.731254826
2.718791271
1.40000504
1.40000504
1.40000504
1.40000504
1.40000504
1.40000504
1.40000504
1.40000504
1.40000504
1.40000504
1.40000504
1.40000504
1.40000504
1.40000504
1.40000504
1.40000504
1.40000504
1.40000504
1.40000504
1.40000504
1.40000504
1.40000504
1.40000504
1.40000504
1.40000504
1.40000504
1.40000504
1.40000504
1.400005041
1.400005128
1.400019559
1.401205424
1.440577113
1.734320529
2.361528002
2.712880228
2.710172962
1.40000504
1.40000504
1.40000504
1.40000504
1.40000504
1.40000504
1.40000504
1.40000504
1.40000504
1.40000504
1.40000504
1.40000504
1.40000504
1.40000504
1.40000504
1.40000504
1.40000504
1.40000504
1.40000504
1.40000504
1.40000504
1.40000504
1.40000504
1.40000504
1.40000504
1.40000504
1.40000504
1.40000504
1.40000504
1.400005041
1.400005374
1.400057407
1.403800211
1.482437515
1.914083685
2.605470804
2.674749698
1.40000504
1.40000504
1.40000504
1.40000504
1.40000504
1.40000504
1.40000504
1.40000504
1.40000504
1.40000504
1.40000504
1.40000504
1.40000504
1.40000504
1.40000504
1.40000504
1.40000504
1.40000504
1.40000504
1.40000504
1.40000504
1.40000504
1.40000504
1.40000504
1.40000504
1.40000504
1.40000504
1.40000504
1.40000504
1.40000504
1.40000505
1.400006922
1.400239256
1.411895214
1.578556321
2.276860734
2.607142312
1.40000504
1.40000504
1.40000504
1.40000504
1.40000504
1.40000504
1.40000504
1.40000504
1.40000504
1.40000504
1.40000504
1.40000504
1.40000504
1.40000504
1.40000504
1.40000504
1.40000504
1.40000504
1.40000504
1.40000504
1.40000504
1.40000504
1.40000504
1.40000504
1.40000504
1.40000504
1.40000504
1.40000504
1.40000504
1.40000504
1.400005041
1.400005165
1.400021812
1.401339112
1.439744862
1.835708485
2.463287374
1.40000504
1.40000504
1.40000504
1.40000504
1.40000504
1.40000504
1.40000504
1.40000504
1.40000504
1.40000504
1.40000504
1.40000504
1.40000504
1.40000504
1.40000504
1.40000504
1.40000504
1.40000504
1.40000504
1.40000504
1.40000504
1.40000504
1.40000504
1.40000504
1.40000504
1.40000504
1.40000504
1.40000504
1.40000504
1.40000504
1.40000504
1.400005053
1.40000661
1.40014134
1.406762458
1.535405613
2.165411463
1.40000504
1.40000504
1.40000504
1.40000504
1.40000504
1.40000504
1.40000504
1.40000504
1.40000504
1.40000504
1.40000504
1.40000504
1.40000504
1.40000504
1.40000504
1.40000504
1.40000504
1.40000504
1.40000504
1.40000504
1.40000504
1.40000504
1.40000504
1.40000504
1.40000504
1.40000504
1.40000504
1.40000504
1.40000504
1.40000504
1.40000504
1.400005041
1.400005166
1.400017766
1.400899227
1.428734422
1.780925122
1.40000504
1.40000504
1.40000504
1.40000504
1.40000504
1.40000504
1.40000504
1.40000504
1.40000504
1.40000504
1.40000504
1.40000504
1.40000504
1.40000504
1.40000504
1.40000504
1.40000504
1.40000504
1.40000504
1.40000504
1.40000504
1.40000504
1.40000504
1.40000504
1.40000504
1.40000504
1.40000504
1.40000504
1.40000504
1.40000504
1.40000504
1.40000504
1.400005046
1.400005868
1.400087161
1.4044793
1.506575781
1.40000504
1.40000504
1.40000504
1.40000504
1.40000504
1.40000504
1.40000504
1.40000504
1.40000504
1.40000504
1.40000504
1.40000504
1.40000504
1.40000504
1.40000504
1.40000504
1.40000504
1.40000504
1.40000504
1.40000504
1.40000504
1.40000504
1.40000504
1.40000504
1.40000504
1.40000504
1.40000504
1.40000504
1.40000504
1.40000504
1.40000504
1.40000504
1.40000504
1.400005067
1.400009444
1.400412314
1.41651043
1.40000504
1.40000504
1.40000504
1.40000504
1.40000504
1.40000504
1.40000504
1.40000504
1.40000504
1.40000504
1.40000504
1.40000504
1.40000504
1.40000504
1.40000504
1.40000504
1.40000504
1.40000504
1.40000504
1.40000504
1.40000504
1.40000504
1.40000504
1.40000504
1.40000504
1.40000504
1.40000504
1.40000504
1.40000504
1.40000504
1.40000504
1.40000504
1.40000504
1.400005041
1.400005147
1.400023436
1.401387604
1.40000504
1.40000504
1.40000504
1.40000504
1.40000504
1.40000504
1.40000504
1.40000504
1.40000504
1.40000504
1.40000504
1.40000504
1.40000504
1.40000504
1.40000504
1.40000504
1.40000504
1.40000504
1.40000504
1.40000504
1.40000504
1.40000504
1.40000504
1.40000504
1.40000504
1.40000504
1.40000504
1.40000504
1.40000504
1.40000504
1.40000504
1.40000504
1.40000504
1.40000504
1.400005042
1.400005505
1.400069703
1.40000504
1.40000504
1.40000504
1.40000504
1.40000504
1.40000504
1.40000504
1.40000504
1.40000504
1.40000504
1.40000504
1.40000504
1.40000504
1.40000504
1.40000504
1.40000504
1.40000504
1.40000504
1.40000504
1.40000504
1.40000504
1.40000504
1.40000504
1.40000504
1.40000504
1.40000504
1.40000504
1.40000504
1.40000504
1.40000504
1.40000504
1.40000504
1.40000504
1.40000504
1.40000504
1.400005059
1.400008058
1.40000504
1.40000504
1.40000504
1.40000504
1.40000504
1.40000504
1.40000504
1.40000504
1.40000504
1.40000504
1.40000504
1.40000504
1.40000504
1.40000504
1.40000504
1.40000504
1.40000504
1.40000504
1.40000504
1.40000504
1.40000504
1.40000504
1.40000504
1.40000504
1.40000504
1.40000504
1.40000504
1.40000504
1.40000504
1.40000504
1.40000504
1.40000504
1.40000504
1.40000504
1.40000504
1.400005042
1.400005267
1.40000504
1.40000504
1.40000504
1.40000504
1.40000504
1.40000504
1.40000504
1.40000504
1.40000504
1.40000504
1.40000504
1.40000504
1.40000504
1.40000504
1.40000504
1.40000504
1.40000504
1.40000504
1.40000504
1.40000504
1.40000504
1.40000504
1.40000504
1.40000504
1.40000504
1.40000504
1.40000504
1.40000504
1.40000504
1.40000504
1.40000504
1.40000504
1.40000504
1.40000504
1.40000504
1.40000504
1.40000506
1.40000504
1.40000504
1.40000504
1.40000504
1.40000504
1.40000504
1.40000504
1.40000504
1.40000504
1.40000504
1.40000504
1.40000504
1.40000504
1.40000504
1.40000504
1.40000504
1.40000504
1.40000504
1.40000504
1.40000504
1.40000504
1.40000504
1.40000504
1.40000504
1.40000504
1.40000504
1.40000504
1.40000504
1.40000504
1.40000504
1.40000504
1.40000504
1.40000504
1.40000504
1.40000504
1.40000504
1.400005041
1.40000504
1.40000504
1.40000504
1.40000504
1.40000504
1.40000504
1.40000504
1.40000504
1.40000504
1.40000504
1.40000504
1.40000504
1.40000504
1.40000504
1.40000504
1.40000504
1.40000504
1.40000504
1.40000504
1.40000504
1.40000504
1.40000504
1.40000504
1.40000504
1.40000504
1.40000504
1.40000504
1.40000504
1.40000504
1.40000504
1.40000504
1.40000504
1.40000504
1.40000504
1.40000504
1.40000504
1.40000504
1.40000504
1.40000504
1.40000504
1.40000504
1.40000504
1.40000504
1.40000504
1.40000504
1.40000504
1.40000504
1.40000504
1.40000504
1.40000504
1.40000504
1.40000504
1.40000504
1.40000504
1.40000504
1.40000504
1.40000504
1.40000504
1.40000504
1.40000504
1.40000504
1.40000504
1.40000504
1.40000504
1.40000504
1.40000504
1.40000504
1.40000504
1.40000504
1.40000504
1.40000504
1.40000504
1.40000504
1.40000504
1.40000504
1.40000504
1.40000504
1.40000504
1.40000504
1.40000504
1.40000504
1.40000504
1.40000504
1.40000504
1.40000504
1.40000504
1.40000504
1.40000504
1.40000504
1.40000504
1.40000504
1.40000504
1.40000504
1.40000504
1.40000504
1.40000504
1.40000504
1.40000504
1.40000504
1.40000504
1.40000504
1.40000504
1.40000504
1.40000504
1.40000504
1.40000504
1.40000504
1.40000504
1.40000504
1.40000504
1.40000504
1.40000504
1.40000504
1.40000504
1.40000504
1.40000504
1.40000504
1.40000504
1.40000504
1.40000504
1.40000504
1.40000504
1.40000504
1.40000504
1.40000504
1.40000504
1.40000504
1.40000504
1.40000504
1.40000504
1.40000504
1.40000504
1.40000504
1.40000504
1.40000504
1.40000504
1.40000504
1.40000504
1.40000504
1.40000504
1.40000504
1.40000504
1.40000504
1.40000504
1.40000504
1.40000504
1.40000504
1.40000504
)
;

boundaryField
{
    inlet
    {
        type            calculated;
        value           nonuniform 0();
    }
    outlet
    {
        type            calculated;
        value           nonuniform 0();
    }
    bottom
    {
        type            calculated;
        value           nonuniform 0();
    }
    top
    {
        type            calculated;
        value           nonuniform List<scalar> 
37
(
1.40000504
1.40000504
1.40000504
1.40000504
1.40000504
1.40000504
1.40000504
1.40000504
1.40000504
1.40000504
1.40000504
1.40000504
1.40000504
1.40000504
1.40000504
1.40000504
1.40000504
1.40000504
1.40000504
1.40000504
1.40000504
1.40000504
1.40000504
1.40000504
1.40000504
1.40000504
1.40000504
1.40000504
1.40000504
1.40000504
1.40000504
1.40000504
1.40000504
1.40000504
1.40000504
1.40000504
1.40000504
)
;
    }
    obstacle
    {
        type            calculated;
        value           nonuniform 0();
    }
    defaultFaces
    {
        type            empty;
    }
    procBoundary33to26
    {
        type            processor;
        value           nonuniform List<scalar> 
24
(
1.40000504
1.40000504
1.40000504
1.40000504
1.40000504
1.40000504
1.40000504
1.40000504
1.40000504
1.40000504
1.40000504
1.40000504
1.40000504
1.40000504
1.40000504
1.40000504
1.40000504
1.40000504
1.40000504
1.40000504
1.40000504
1.40000504
1.40000504
1.40000504
)
;
    }
    procBoundary33to27
    {
        type            processor;
        value           nonuniform List<scalar> 
38
(
1.561837783
1.519246163
1.490860384
1.40000504
1.40000504
1.40000504
1.400005103
1.400016769
1.401132036
1.439301613
1.898654912
2.490145052
2.795741224
2.854061846
2.848787092
2.83621607
2.823579752
2.79741704
2.769098322
2.740095342
2.678222746
2.599561235
2.518825862
2.430441543
2.350019646
2.273965156
2.187096771
2.102825516
2.043443063
1.987285213
1.921045262
1.862967235
1.813929393
1.764451669
1.711117976
1.670395726
1.63281892
1.63281892
)
;
    }
    procBoundary33to32
    {
        type            processor;
        value           nonuniform List<scalar> 
36
(
1.40000504
1.40000504
1.40000504
1.40000504
1.40000504
1.40000504
1.40000504
1.40000504
1.40000504
1.40000504
1.40000504
1.40000504
1.40000504
1.40000504
1.40000504
1.40000504
1.40000504
1.40000504
1.40000504
1.40000504
1.40000504
1.40000504
1.40000504
1.40000504
1.40000504
1.40000504
1.40000504
1.40000504
1.40000504
1.40000504
1.40000504
1.40000504
1.40000504
1.40000504
1.40000504
1.40000504
)
;
    }
    procBoundary33to34
    {
        type            processor;
        value           nonuniform List<scalar> 
61
(
1.494130315
1.522259701
1.550132758
1.577986837
1.605597004
1.635074505
1.662563591
1.690613133
1.718350526
1.746875142
1.778109309
1.808941678
1.841352051
1.873308008
1.905884478
1.939998046
1.972627709
2.003625675
2.032021872
2.059451112
2.086528678
2.113089486
2.139551399
2.167115835
2.196350207
2.226015404
2.255618472
2.284868842
2.313248799
2.342649544
2.371645328
2.399031246
2.426675646
2.451728843
2.475014656
2.49905413
2.524150605
2.552409482
2.583697299
2.613334087
2.641186517
2.669165608
2.683570433
2.68086073
2.673835181
2.665560648
2.643381158
2.547970113
2.333464054
1.993064483
1.629176042
1.442981396
1.404399228
1.400328651
1.400031217
1.400007442
1.400005213
1.400005047
1.40000504
1.40000504
1.40000504
)
;
    }
}


// ************************************************************************* //
