/*--------------------------------*- C++ -*----------------------------------*\
  =========                 |
  \\      /  F ield         | OpenFOAM: The Open Source CFD Toolbox
   \\    /   O peration     | Website:  https://openfoam.org
    \\  /    A nd           | Version:  7
     \\/     M anipulation  |
\*---------------------------------------------------------------------------*/
FoamFile
{
    version     2.0;
    format      ascii;
    class       volScalarField;
    location    "1.5";
    object      rho;
}
// * * * * * * * * * * * * * * * * * * * * * * * * * * * * * * * * * * * * * //

dimensions      [1 -3 0 0 0 0 0];

internalField   nonuniform List<scalar> 
555
(
1.412010767
1.412089049
1.412283126
1.412722648
1.412654761
1.411972239
1.411815136
1.411258026
1.410717755
1.410756429
1.411429835
1.412618296
1.414187558
1.416247982
1.41588356
1.414744205
1.413972624
1.413840202
1.413543031
1.413873759
1.414886932
1.41489631
1.413560262
1.412434548
1.411746611
1.411269512
1.411589341
1.412428285
1.413928977
1.415637419
1.414928287
1.414401809
1.413255367
1.412754756
1.41529681
1.414452828
1.415042663
1.415377268
1.415313635
1.414570912
1.412917586
1.411984154
1.411802318
1.411831241
1.411937786
1.412678128
1.413518926
1.413460907
1.412866425
1.411900904
1.411327944
1.415758488
1.414278168
1.414290637
1.414567863
1.414994898
1.415504263
1.41509415
1.414108822
1.413286649
1.412066594
1.411278691
1.411644107
1.412298429
1.41196113
1.411113213
1.410092098
1.409436032
1.415621467
1.413916185
1.413094895
1.413280068
1.414176534
1.415620339
1.416633996
1.416929498
1.416795962
1.415290819
1.412783698
1.410926781
1.410492042
1.409681919
1.408725021
1.408041584
1.407533546
1.41620849
1.415047503
1.41341446
1.41290663
1.413277451
1.415141898
1.416548211
1.417706332
1.418316288
1.418105618
1.416410441
1.412761463
1.409605443
1.40755647
1.407141406
1.406444346
1.406171341
1.417392235
1.416590603
1.414495092
1.412910492
1.41268064
1.413619358
1.414848451
1.416285614
1.417834004
1.418770577
1.418012314
1.415998614
1.412927184
1.409350862
1.407748295
1.407265749
1.4073311
1.417447806
1.416802166
1.415057732
1.412910877
1.411836252
1.411493792
1.412311283
1.413676486
1.415076813
1.415791264
1.416244677
1.417186928
1.415827531
1.412926572
1.411260755
1.411294173
1.412381697
1.415236422
1.414723946
1.413459746
1.411718188
1.409937028
1.409095663
1.409665282
1.410071054
1.410760406
1.411399426
1.412955988
1.413726942
1.413303677
1.412254795
1.411930841
1.41259549
1.414020492
1.410912367
1.411171137
1.410940861
1.410299286
1.409325553
1.407619442
1.406657435
1.407052926
1.406766189
1.406703204
1.407855281
1.408973551
1.409409423
1.410125462
1.41049551
1.411039971
1.412229842
1.413392163
1.406551073
1.406393653
1.406146044
1.406374318
1.406416758
1.405575411
1.404707334
1.404496409
1.404246214
1.403966367
1.404316904
1.405314479
1.406827021
1.408250959
1.409343873
1.410405783
1.410991123
1.411024634
1.400951808
1.400707108
1.400781071
1.401804248
1.402543183
1.402706839
1.402031705
1.401248398
1.401112777
1.400656986
1.400810854
1.4020459
1.40378614
1.405159696
1.406165024
1.406984209
1.407400593
1.405721094
1.394833949
1.394386198
1.394735574
1.396109592
1.397255109
1.398179756
1.39813699
1.397597112
1.397180848
1.396209332
1.39590343
1.397108404
1.398914367
1.400214321
1.400972631
1.401080614
1.39981424
1.397058341
1.389335876
1.388879523
1.388779143
1.389319745
1.3900676
1.391056424
1.391756613
1.391828456
1.391566304
1.390980293
1.390226338
1.390137494
1.391772145
1.392937354
1.39289768
1.392129238
1.390847294
1.387978413
1.383190222
1.383202555
1.382706648
1.381298071
1.380922771
1.381538841
1.382479111
1.383384524
1.383619117
1.383467589
1.383413885
1.382955024
1.383287351
1.383738909
1.383401557
1.382425041
1.380871792
1.377938383
1.37558271
1.375650732
1.374457607
1.372054898
1.370789377
1.371122323
1.371979019
1.372941956
1.373821907
1.374494946
1.374736319
1.374783034
1.374280698
1.373453749
1.37304593
1.372343099
1.370116182
1.3681729
1.366592773
1.366021344
1.364349575
1.362075396
1.360332687
1.360200995
1.36085463
1.361685055
1.362710055
1.364253215
1.364597178
1.364620951
1.363857587
1.362553869
1.361772483
1.361128715
1.361219828
1.360027988
1.356052938
1.355408488
1.353743031
1.351534618
1.349943585
1.349187933
1.349337718
1.35007296
1.351338644
1.353218499
1.353973729
1.353741252
1.352580935
1.351452627
1.35149935
1.351486249
1.351711749
1.351548038
1.343357597
1.343437443
1.342369455
1.340686843
1.339631574
1.338569187
1.338543002
1.339103711
1.340533723
1.342857385
1.343514999
1.342812154
1.340681105
1.339595854
1.339628173
1.340359533
1.341452799
1.341786022
1.330195156
1.330105207
1.329820844
1.329581034
1.329136586
1.328450473
1.328399091
1.329384993
1.330684758
1.330884893
1.331080619
1.330683457
1.32907723
1.327968416
1.328260262
1.329489713
1.331241682
1.331262081
1.319044116
1.318560969
1.318203486
1.318257303
1.31830913
1.318959229
1.319521757
1.320310277
1.320589979
1.320089571
1.319652691
1.31897091
1.317878284
1.317403797
1.31833783
1.319586014
1.32046858
1.319698679
1.30878333
1.308269232
1.307933601
1.307837423
1.308556275
1.309337245
1.309803266
1.310582363
1.310524109
1.309855161
1.308850812
1.30770124
1.307247332
1.307225584
1.307163886
1.307331704
1.307297231
1.306510702
1.299478504
1.299760749
1.299299838
1.298688195
1.298163361
1.298271434
1.298967663
1.299744055
1.300580587
1.300675672
1.299561573
1.297921554
1.297072104
1.297247428
1.297504932
1.296998856
1.296267306
1.295480993
1.294216016
1.291517854
1.291751769
1.291107499
1.290137097
1.28917919
1.289067501
1.289339563
1.28990223
1.290503069
1.290300302
1.289667962
1.289385771
1.289132385
1.288975286
1.288728162
1.287762132
1.286548926
1.285276021
1.283877471
1.28463407
1.284517413
1.283879977
1.282692902
1.281303382
1.280854932
1.280445043
1.280061487
1.280336734
1.280739007
1.281007359
1.281199183
1.281972571
1.282522138
1.282104626
1.280779855
1.279183939
1.277602822
1.276413924
1.278653509
1.278162802
1.277395994
1.276193703
1.27463287
1.273610039
1.272410904
1.271959548
1.272228909
1.27280403
1.273211915
1.274814559
1.2764031
1.277443882
1.277151483
1.276396358
1.275026932
1.273248492
1.271952265
1.273594056
1.273037984
1.272112546
1.270705852
1.268819622
1.267404948
1.266796857
1.266520363
1.266596569
1.267318225
1.268528071
1.27075331
1.273239687
1.273983766
1.273529807
1.273203843
1.272556899
1.271243738
1.270039475
1.26883096
1.268348466
1.267025949
1.265319885
1.264067573
1.263807675
1.263725468
1.263559299
1.263710805
1.2643019
1.265750303
1.267594173
1.269362602
1.270620417
1.271186355
1.271324811
1.27147595
1.270581187
1.269653103
1.264348484
1.263715022
1.262693852
1.261973203
1.261669871
1.262105274
1.262348913
1.262240922
1.262675019
1.263541586
1.264948177
1.266495149
1.267416221
1.268144904
1.26877496
1.269935565
1.270333704
1.270198369
1.269743393
1.259857099
1.260137002
1.260586904
1.260569955
1.260847855
1.261315958
1.262192904
1.263060244
1.263799307
1.26448
1.265092182
1.265435344
1.265836642
1.266053915
1.266356105
1.26728468
1.268395118
1.269180374
1.268988572
1.257814816
1.259359943
1.260093846
1.260070636
1.260532885
1.261685826
1.263293857
1.264560988
1.265219086
1.265333948
1.265198354
1.264822644
1.264341924
1.263883226
1.264015224
1.264398249
)
;

boundaryField
{
    inlet
    {
        type            calculated;
        value           nonuniform 0();
    }
    outlet
    {
        type            calculated;
        value           nonuniform List<scalar> 
30
(
1.413843481
1.412600251
1.411163081
1.409294727
1.407485593
1.40615407
1.407634163
1.412594064
1.413945765
1.413196735
1.410872461
1.405652058
1.396971865
1.387950627
1.37794084
1.368320755
1.360311023
1.351684232
1.341805613
1.331284871
1.31961233
1.306332684
1.294165121
1.283845361
1.276391971
1.271983191
1.270049642
1.269655953
1.269785319
1.269020019
)
;
    }
    bottom
    {
        type            calculated;
        value           nonuniform 0();
    }
    top
    {
        type            calculated;
        value           nonuniform 0();
    }
    obstacle
    {
        type            calculated;
        value           nonuniform 0();
    }
    defaultFaces
    {
        type            empty;
    }
    procBoundary17to11
    {
        type            processor;
        value           nonuniform List<scalar> 
17
(
1.410416421
1.410556869
1.4105002
1.410525339
1.410225117
1.409734804
1.40989364
1.409944441
1.410231699
1.410439163
1.411356001
1.412567416
1.41372419
1.414570675
1.414517016
1.413548345
1.412907188
)
;
    }
    procBoundary17to16
    {
        type            processor;
        value           nonuniform List<scalar> 
32
(
1.412658636
1.415472185
1.416783078
1.416975527
1.416424707
1.416174045
1.417105801
1.417254339
1.414884649
1.414884649
1.411550538
1.4074943
1.4016559
1.395069666
1.388914061
1.38245055
1.374720844
1.366218457
1.356104121
1.343705866
1.33111652
1.319443344
1.308686639
1.308686639
1.299399859
1.291122571
1.283977871
1.278068414
1.272946469
1.268278333
1.264105616
1.259792975
)
;
    }
    procBoundary17to22
    {
        type            processor;
        value           uniform 1.257166742;
    }
    procBoundary17to23
    {
        type            processor;
        value           nonuniform List<scalar> 
20
(
1.265003458
1.266372214
1.26679052
1.257607549
1.259448631
1.26052024
1.260834337
1.261610315
1.262940552
1.263784466
1.264884644
1.265865355
1.266163707
1.26531956
1.262872036
1.262450975
1.261287342
1.261282572
1.265003458
1.261623181
)
;
    }
}


// ************************************************************************* //
