/*--------------------------------*- C++ -*----------------------------------*\
  =========                 |
  \\      /  F ield         | OpenFOAM: The Open Source CFD Toolbox
   \\    /   O peration     | Website:  https://openfoam.org
    \\  /    A nd           | Version:  7
     \\/     M anipulation  |
\*---------------------------------------------------------------------------*/
FoamFile
{
    version     2.0;
    format      ascii;
    class       volScalarField;
    location    "4.2";
    object      rho;
}
// * * * * * * * * * * * * * * * * * * * * * * * * * * * * * * * * * * * * * //

dimensions      [1 -3 0 0 0 0 0];

internalField   nonuniform List<scalar> 
555
(
1.41500358
1.415097967
1.414990861
1.415297148
1.415046921
1.413597302
1.411850253
1.408947578
1.407681992
1.407234121
1.407546946
1.407767669
1.407684515
1.407603147
1.408935538
1.410557099
1.412604453
1.41521346
1.414596663
1.413654728
1.413808119
1.414068253
1.413301683
1.411932165
1.410222813
1.408506014
1.407723898
1.408036436
1.408570098
1.408645064
1.409248657
1.410770603
1.412828747
1.414791037
1.414365529
1.413300248
1.412214316
1.412341634
1.41307112
1.412714258
1.411969288
1.411285788
1.4112065
1.411270936
1.411749546
1.4124166
1.412527843
1.412127604
1.411861119
1.413541687
1.414105612
1.415176931
1.412513176
1.411653602
1.411680563
1.412053422
1.4124345
1.412833778
1.413126344
1.413942343
1.415068638
1.415802265
1.415824065
1.415520999
1.414467385
1.413233527
1.413328025
1.413146855
1.417899406
1.415846757
1.413503788
1.411891601
1.41202761
1.413556684
1.414543202
1.415547402
1.416250214
1.416536243
1.416461998
1.415995653
1.415787983
1.415360469
1.414301771
1.412436328
1.412230836
1.419531414
1.419253542
1.418586814
1.416554115
1.415133902
1.415594724
1.415910013
1.416389951
1.416403267
1.415745067
1.415041679
1.414505188
1.414364083
1.414422265
1.413880555
1.411629218
1.41058542
1.419786958
1.420117627
1.420567453
1.419414788
1.417985268
1.417126548
1.416780078
1.416218744
1.41531332
1.414085111
1.41284799
1.412046158
1.411750807
1.412040092
1.412266035
1.411804062
1.409872238
1.419303003
1.419713479
1.419872512
1.419236448
1.417777869
1.416489612
1.415968278
1.415040765
1.41351358
1.412192847
1.410632244
1.409269054
1.408680876
1.408669933
1.409158014
1.408936128
1.408262559
1.417034632
1.417368489
1.41735368
1.417083469
1.415932241
1.414399209
1.413505976
1.412406768
1.410982197
1.409635064
1.408424814
1.407162753
1.406037366
1.405565385
1.40568042
1.405699732
1.406170558
1.413691516
1.413387611
1.413158361
1.413012024
1.413007679
1.412197988
1.410360056
1.409131109
1.408245068
1.407462682
1.406790475
1.406569153
1.406200728
1.405308363
1.404154165
1.403325887
1.403820097
1.404711854
1.409768844
1.409188909
1.408207557
1.40798047
1.407906734
1.407297367
1.405198665
1.403565627
1.403125143
1.403149889
1.403775297
1.405223247
1.40640806
1.406355968
1.404834166
1.402530558
1.402035844
1.403161096
1.405330108
1.404791076
1.403404868
1.402761225
1.402222775
1.401605419
1.400057148
1.398208073
1.397777696
1.398389712
1.399703464
1.401834995
1.403802796
1.404450547
1.404014924
1.40327462
1.402092065
1.401843657
1.400176498
1.399896994
1.398755853
1.397565219
1.396472819
1.395641428
1.394796696
1.393329686
1.392379501
1.393035971
1.394850694
1.396404527
1.397792152
1.399030046
1.399921146
1.400369968
1.399866989
1.398469197
1.39418719
1.394239113
1.39363039
1.392622042
1.391504185
1.390500152
1.390641894
1.390105292
1.388483642
1.387551699
1.388333883
1.388449112
1.388915187
1.390298441
1.391936837
1.392813727
1.393052766
1.392125951
1.386609127
1.386476571
1.386367431
1.386093542
1.385431555
1.384333882
1.38475164
1.384466081
1.38338044
1.380967807
1.379091806
1.378582573
1.37798434
1.378818234
1.381472137
1.383397787
1.383797182
1.382982281
1.377399325
1.377522289
1.377383524
1.377494598
1.377084031
1.376048851
1.375788746
1.375426786
1.374442427
1.372859171
1.369655323
1.367914243
1.367701824
1.368237239
1.368931165
1.370941142
1.372811355
1.372661682
1.365969044
1.366382342
1.367062525
1.367471044
1.367080754
1.366036894
1.365194837
1.364768808
1.363931466
1.362821588
1.361013038
1.358763769
1.357712117
1.357614477
1.357860804
1.358308963
1.358993807
1.360350898
1.353588688
1.353792995
1.354722123
1.356271107
1.356350055
1.354739702
1.352645592
1.352387355
1.352327452
1.351477808
1.350810833
1.350163056
1.349608856
1.347636029
1.346677587
1.34582512
1.34497496
1.346112126
1.341819873
1.342260586
1.343396323
1.343873292
1.343746385
1.342340747
1.340097732
1.338894146
1.338975921
1.339739184
1.340563456
1.34129779
1.340771364
1.338466774
1.335285973
1.333255169
1.332487563
1.333461653
1.331334042
1.331723786
1.33287826
1.333067966
1.3326496
1.33153137
1.329293608
1.327544649
1.326893725
1.328357447
1.330740414
1.330933491
1.329903697
1.3283828
1.325940917
1.323022439
1.321427628
1.322087198
1.322039208
1.322474959
1.322965392
1.322655617
1.321854213
1.320814986
1.318765694
1.316782525
1.316312341
1.316312727
1.317684369
1.319126057
1.318563173
1.317588357
1.316130995
1.314574873
1.313424266
1.31265591
1.313497064
1.313736488
1.313268439
1.312558182
1.31114923
1.310219783
1.309698919
1.307879231
1.30629112
1.305800668
1.305602009
1.305781397
1.306485782
1.306594393
1.306454778
1.306286347
1.306281385
1.305157802
1.304774444
1.304835873
1.304602736
1.303687254
1.302336506
1.302160891
1.301439169
1.300864063
1.300023325
1.297723632
1.29583981
1.294404012
1.293665819
1.294429611
1.296291208
1.29786401
1.29892926
1.299461878
1.298461784
1.295706876
1.295557387
1.295255623
1.294177808
1.293487675
1.293129995
1.292420408
1.291855924
1.291210169
1.289537449
1.286122817
1.284131058
1.28408228
1.284999114
1.287856306
1.290164481
1.291015841
1.291329103
1.290465353
1.286740429
1.286619163
1.28617065
1.285589989
1.285234413
1.285084339
1.284792868
1.284240782
1.283269885
1.281488558
1.27979245
1.277329057
1.276615577
1.277599127
1.27934758
1.281614932
1.28312349
1.283655379
1.283092782
1.277796966
1.277404765
1.277346848
1.278087969
1.2782261
1.278385026
1.278105303
1.277650068
1.276460274
1.275032165
1.273531233
1.272679614
1.272004691
1.272350227
1.273482788
1.274644258
1.275625362
1.276015286
1.276179557
1.269635229
1.269845162
1.270905346
1.272069267
1.272744298
1.271872397
1.27093431
1.270441771
1.269899379
1.269611295
1.269414602
1.269620292
1.26946521
1.268971345
1.269315267
1.269581822
1.269821473
1.269770027
1.270657529
1.264823799
1.265648816
1.266843351
1.26810767
1.268187519
1.26735937
1.265933435
1.264694507
1.263925128
1.264494813
1.266391048
1.267064348
1.266968452
1.266668766
1.265924223
1.265035819
1.264842553
1.265126676
1.266972559
1.262965243
1.263759885
1.264862143
1.265999699
1.265766847
1.264355983
1.262702112
1.261151878
1.260380674
1.260935718
1.262856684
1.264517261
1.265065514
1.264692112
1.26299474
1.262275631
1.262464269
1.263170817
1.264798407
1.262509233
1.263579771
1.264578873
1.264825474
1.264100493
1.262442964
1.260769152
1.259519819
1.258933991
1.259132965
1.260007497
1.261678887
1.262796424
1.262852575
1.262104863
1.261671804
1.261856418
1.262571719
1.263949742
1.263196161
1.26354471
1.264145414
1.263749667
1.262351818
1.260806594
1.259436512
1.258624822
1.258099519
1.257973073
1.258229512
1.258990934
1.260218085
1.261559209
1.26159062
1.261587004
)
;

boundaryField
{
    inlet
    {
        type            calculated;
        value           nonuniform 0();
    }
    outlet
    {
        type            calculated;
        value           nonuniform List<scalar> 
30
(
1.412252564
1.41462782
1.414061454
1.413184859
1.412426483
1.410845752
1.410121143
1.408344886
1.406051026
1.404416986
1.402802417
1.401719509
1.398726932
1.392431476
1.383079027
1.372762175
1.360213256
1.345916423
1.33329121
1.321921998
1.312584193
1.305296171
1.298648956
1.290656341
1.283277708
1.276314534
1.270724544
1.266797898
1.264578094
1.263745729
)
;
    }
    bottom
    {
        type            calculated;
        value           nonuniform 0();
    }
    top
    {
        type            calculated;
        value           nonuniform 0();
    }
    obstacle
    {
        type            calculated;
        value           nonuniform 0();
    }
    defaultFaces
    {
        type            empty;
    }
    procBoundary17to11
    {
        type            processor;
        value           nonuniform List<scalar> 
17
(
1.413723138
1.414648804
1.415226182
1.415586637
1.414504673
1.412543149
1.40988803
1.408572735
1.407186005
1.406928949
1.407286466
1.407411503
1.407388296
1.407517212
1.407854656
1.409127429
1.409716569
)
;
    }
    procBoundary17to16
    {
        type            processor;
        value           nonuniform List<scalar> 
32
(
1.414955152
1.416032705
1.416348715
1.417709901
1.418967007
1.419312896
1.419481209
1.418896217
1.416800158
1.416800158
1.413587757
1.409578656
1.404938843
1.399746999
1.393649919
1.386446526
1.377067412
1.366051164
1.353797419
1.341637573
1.331017466
1.321388672
1.312959148
1.312959148
1.303520288
1.295222815
1.286512477
1.278229742
1.270504928
1.264391499
1.261872415
1.261011525
)
;
    }
    procBoundary17to22
    {
        type            processor;
        value           uniform 1.261513654;
    }
    procBoundary17to23
    {
        type            processor;
        value           nonuniform List<scalar> 
20
(
1.261959214
1.262994435
1.263586692
1.263666519
1.263145259
1.263546393
1.262205052
1.261159726
1.260523521
1.260290555
1.25950122
1.258378379
1.257774178
1.257643066
1.257944642
1.258765403
1.26007953
1.261582241
1.261959214
1.262382611
)
;
    }
}


// ************************************************************************* //
