/*--------------------------------*- C++ -*----------------------------------*\
  =========                 |
  \\      /  F ield         | OpenFOAM: The Open Source CFD Toolbox
   \\    /   O peration     | Website:  https://openfoam.org
    \\  /    A nd           | Version:  7
     \\/     M anipulation  |
\*---------------------------------------------------------------------------*/
FoamFile
{
    version     2.0;
    format      ascii;
    class       volVectorField;
    location    "0.3";
    object      U;
}
// * * * * * * * * * * * * * * * * * * * * * * * * * * * * * * * * * * * * * //

dimensions      [0 1 -1 0 0 0 0];

internalField   nonuniform List<vector> 
138
(
(3 1.91028177e-15 0)
(3 1.008915055e-15 0)
(3 -1.547199134e-15 0)
(3 -4.258102974e-15 0)
(3 -2.569283475e-15 0)
(3 -3.134696561e-15 0)
(3 -3.799170526e-15 0)
(3 -3.389512009e-15 0)
(3 -8.309347204e-16 0)
(3 2.770695732e-15 0)
(3 1.36004238e-15 0)
(3 -1.347597549e-15 0)
(3 -2.484472052e-15 0)
(3 -3.032679034e-15 0)
(3 -3.816423513e-15 0)
(3 -5.946449892e-15 0)
(3 -5.745892539e-15 0)
(3 -3.55894493e-15 0)
(3 -8.530134812e-18 0)
(3 1.76059799e-15 0)
(3 2.19912432e-15 0)
(3 3.061780518e-15 0)
(3 -4.542972463e-16 0)
(3 -2.671530386e-15 0)
(3 -2.829198141e-15 0)
(3 -3.401713804e-15 0)
(3 -1.325047712e-15 0)
(3 -3.142988202e-15 0)
(3 -1.372795942e-15 0)
(3 1.822897106e-15 0)
(3 2.007943351e-15 0)
(3 2.282517921e-15 0)
(3 2.893599159e-15 0)
(3 3.492608232e-15 0)
(3 3.862297238e-15 0)
(3 3.249564389e-15 0)
(3 -4.162188106e-15 0)
(3 -2.499740788e-15 0)
(3 7.980710787e-17 0)
(3 3.269136668e-16 0)
(3 1.44442316e-15 0)
(3 1.934638199e-15 0)
(3 2.437209012e-15 0)
(3 -7.240227022e-16 0)
(3 -1.356783097e-15 0)
(3 7.803206034e-16 0)
(3 3.941277817e-16 0)
(3 -9.011997681e-16 0)
(3 -2.247341002e-15 0)
(3 -2.851550584e-15 0)
(3 -4.106750748e-15 0)
(3 -4.58063838e-15 0)
(3 -5.772949716e-15 0)
(3 -4.932398716e-15 0)
(3 -5.309697603e-16 0)
(3 -3.045697118e-16 0)
(3 -3.698705698e-15 0)
(3 -7.37820233e-15 0)
(3 -8.510237484e-15 0)
(3 -7.954303796e-15 0)
(3 -8.034470595e-15 0)
(3 -6.360707548e-15 0)
(3 -5.302122685e-15 0)
(3 -1.924374896e-15 0)
(3 -3.490187638e-15 0)
(3 -5.66296895e-15 0)
(3 -6.969777078e-15 0)
(3 -7.4196608e-15 0)
(3 -4.413520015e-15 0)
(3 -5.148908162e-15 0)
(3 -5.452168048e-15 0)
(3 -3.311585609e-15 0)
(3 -2.793704608e-16 0)
(3 3.705074956e-16 0)
(3 4.042112121e-16 0)
(3 7.44918776e-16 0)
(3 1.206611571e-15 0)
(3 8.291079213e-16 0)
(3 -9.559992283e-17 0)
(3 -1.216224196e-15 0)
(3 -2.653557415e-15 0)
(3 -1.572988732e-15 0)
(3 -1.350859969e-15 0)
(3 -1.001580101e-15 0)
(3 1.039822558e-16 0)
(3 6.53252762e-16 0)
(3 1.549370124e-16 0)
(3 3.698543795e-16 0)
(3 4.385057967e-16 0)
(3 3.433507842e-16 0)
(3 8.658145689e-16 0)
(3 7.662801352e-16 0)
(3 1.575805215e-16 0)
(3 3.018086022e-16 0)
(3 1.942103537e-15 0)
(3 3.976532211e-15 0)
(3 3.397524642e-15 0)
(3 3.093079168e-15 0)
(3 2.32182527e-15 0)
(3 2.476542369e-15 0)
(3 1.916244632e-15 0)
(3 1.644463323e-15 0)
(3 1.635591326e-15 0)
(3 1.696725902e-15 0)
(3 -1.691439474e-15 0)
(3 -2.299999369e-15 0)
(3 -2.954044116e-15 0)
(3 -2.398311176e-15 0)
(3 -1.469335192e-15 0)
(3 -1.409227685e-15 0)
(3 -1.881858556e-15 0)
(3 -2.944755555e-15 0)
(3 -4.698142512e-15 0)
(3 -4.50386067e-15 0)
(3 -3.208340512e-15 0)
(3 -2.976362572e-15 0)
(3 -2.931058798e-15 0)
(3 -3.29073388e-15 0)
(3 -3.683396102e-15 0)
(3 -4.526109384e-15 0)
(3 -3.499318642e-15 0)
(3 -2.72390576e-15 0)
(3 -1.851767408e-16 0)
(3 1.505859619e-16 0)
(3 -5.896027052e-16 0)
(3 -4.274461193e-16 0)
(3 -8.072936504e-16 0)
(3 -2.816970934e-16 0)
(3 -1.61676329e-15 0)
(3 -2.457944492e-16 0)
(3 1.033457359e-16 0)
(3 1.530050995e-15 0)
(3 2.822414774e-15 0)
(3 4.241205969e-15 0)
(3 6.49977483e-15 0)
(3 6.327880534e-15 0)
(3 7.364643434e-15 0)
(3 8.621831896e-15 0)
)
;

boundaryField
{
    inlet
    {
        type            fixedValue;
        value           nonuniform 0();
    }
    outlet
    {
        type            inletOutlet;
        inletValue      nonuniform 0();
        value           nonuniform 0();
    }
    bottom
    {
        type            slip;
    }
    top
    {
        type            slip;
    }
    obstacle
    {
        type            slip;
    }
    defaultFaces
    {
        type            empty;
    }
    procBoundary1to0
    {
        type            processor;
        value           nonuniform List<vector> 8((3 -6.677515426e-16 0) (3 1.798298681e-15 0) (3 7.842457046e-16 0) (3 -4.569941603e-15 0) (3 -6.239350646e-15 0) (3 1.185174008e-15 0) (3 2.283187554e-15 0) (3 -5.792465208e-16 0));
    }
    procBoundary1to2
    {
        type            processor;
        value           nonuniform List<vector> 8((3 -1.721947373e-15 0) (3 1.019350943e-15 0) (3 4.433382355e-15 0) (3 1.734511004e-15 0) (3 -3.792714821e-15 0) (3 -5.369709535e-15 0) (3 5.678317128e-16 0) (3 7.454145265e-15 0));
    }
    procBoundary1to7
    {
        type            processor;
        value           nonuniform List<vector> 
18
(
(3 -2.594603948e-15 0)
(3 -5.285425491e-15 0)
(3 -5.43485837e-15 0)
(3 -1.37122391e-15 0)
(3 -8.526804116e-16 0)
(3 8.069971072e-16 0)
(3 1.850612127e-15 0)
(3 9.275740642e-16 0)
(3 3.255757342e-16 0)
(3 6.418092408e-16 0)
(3 2.380696382e-16 0)
(3 7.276166998e-16 0)
(3 1.885053112e-15 0)
(3 3.408064179e-15 0)
(3 5.89578637e-15 0)
(3 5.89578637e-15 0)
(3 5.053724794e-15 0)
(3 6.646131817e-15 0)
)
;
    }
    procBoundary1to8
    {
        type            processor;
        value           uniform (3 8.896529229e-15 0);
    }
}


// ************************************************************************* //
