/*--------------------------------*- C++ -*----------------------------------*\
  =========                 |
  \\      /  F ield         | OpenFOAM: The Open Source CFD Toolbox
   \\    /   O peration     | Website:  https://openfoam.org
    \\  /    A nd           | Version:  7
     \\/     M anipulation  |
\*---------------------------------------------------------------------------*/
FoamFile
{
    version     2.0;
    format      ascii;
    class       volScalarField;
    location    "1.1";
    object      T;
}
// * * * * * * * * * * * * * * * * * * * * * * * * * * * * * * * * * * * * * //

dimensions      [0 0 0 1 0 0 0];

internalField   nonuniform List<scalar> 
558
(
1.103260987
1.109906501
1.114637474
1.114708302
1.113002759
1.107937006
1.099236254
1.08844618
1
1
1.000000001
1.000000079
1.000003011
1.000061094
1.000799152
1.004971327
1.022686929
1.053374847
1.083998705
1.107715438
1.113192908
1.113507898
1.113900073
1.112135925
1.106662246
1.098137173
1
1
1
1.000000002
1.000000112
1.000004139
1.000076233
1.000784847
1.005754225
1.021023152
1.055241794
1.089553702
1.102578479
1.109902512
1.113882298
1.113679666
1.111200393
1.105608447
1
1
1
1
1.000000003
1.000000197
1.000004917
1.000084067
1.000903273
1.005471493
1.02323321
1.053827547
1.084497936
1.107586649
1.112298164
1.11271811
1.112706243
1.110344869
1
1
1
1
1
1.000000007
1.000000213
1.000006317
1.000091828
1.000931482
1.005969587
1.022024247
1.055858338
1.088325878
1.101944948
1.109902716
1.112759905
1.112266942
1
1
1
1
1
1
1.000000007
1.000000318
1.000006488
1.000104443
1.000982666
1.005923208
1.023650074
1.054002151
1.084703614
1.107483789
1.110952242
1.111757815
1
1
1
1
1
1
1
1.000000012
1.000000305
1.000008333
1.000103588
1.001067452
1.006082066
1.023164358
1.055765295
1.087559115
1.101556996
1.109647974
1
1
1
1
1
1
1
1
1.000000011
1.000000436
1.000007781
1.00012269
1.001045859
1.006352801
1.024139645
1.053877998
1.086094319
1.107016231
1
1
1
1
1
1
1
1
1
1.000000016
1.000000386
1.000009982
1.000113401
1.001184506
1.006203223
1.0242397
1.05581367
1.087741242
1
1
1
1
1
1
1
1
1
1
1.000000013
1.000000524
1.000008601
1.000137015
1.001072926
1.006719914
1.02416561
1.053608778
1
1
1
1
1
1
1
1
1
1
1
1.000000018
1.000000429
1.000010785
1.000117137
1.001232618
1.006176059
1.024434915
1
1
1
1
1
1
1
1
1
1
1
1
1.000000015
1.00000056
1.000008811
1.000143196
1.001053319
1.006888874
1
1
1
1
1
1
1
1
1
1
1
1
1
1.00000002
1.000000459
1.000011284
1.000119389
1.001255607
1
1
1
1
1
1
1
1
1
1
1
1
1
1
1.000000017
1.000000609
1.000009334
1.000150866
1
1
1
1
1
1
1
1
1
1
1
1
1
1
1
1.000000022
1.000000509
1.00001198
1
1
1
1
1
1
1
1
1
1
1
1
1
1
1
1
1.000000019
1.000000632
1
1
1
1
1
1
1
1
1
1
1
1
1
1
1
1
1
1.000000021
1
1
1
1
1
1
1
1
1
1
1
1
1
1
1
1
1
1
1
1
1
1
1
1
1
1
1
1
1
1
1
1
1
1
1
1
1
1
1
1
1
1
1
1
1
1
1
1
1
1
1
1
1
1
1
1
1
1
1
1
1
1
1
1
1
1
1
1
1
1
1
1
1
1
1
1
1
1
1
1
1
1
1
1
1
1
1
1
1
1
1
1
1
1
1
1
1
1
1
1
1
1
1
1
1
1
1
1
1
1
1
1
1
1
1
1
1
1
1
1
1
1
1
1
1
1
1
1
1
1
1
1
1
1
1
1
1
1
1
1
1
1
1
1
1
1
1
1
1
1
1
1
1
1
1
1
1
1
1
1
1
1
1
1
1
1
1
1
1
1
1
1
1
1
1
1
1
1
1
1
1
1
1
1
1
1
1
1
1
1
1
1
1
1
1
1
1
1
1
1
1
1
1
1
1
1
1
1
1
1
1
1
1
1
1
1
1
1
1
1
1
1
1
1
1
1
1
1
1
1
1
1
1
1
1
1
1
1
1
1
1
1
1
1
1
1
1
1
1
1
1
1
1
1
1
1
1
1
1
1
1
1
)
;

boundaryField
{
    inlet
    {
        type            fixedValue;
        value           nonuniform 0();
    }
    outlet
    {
        type            inletOutlet;
        inletValue      nonuniform 0();
        value           nonuniform 0();
    }
    bottom
    {
        type            slip;
    }
    top
    {
        type            slip;
    }
    obstacle
    {
        type            zeroGradient;
    }
    defaultFaces
    {
        type            empty;
    }
    procBoundary33to26
    {
        type            processor;
        value           nonuniform List<scalar> 
13
(
1
1
1
1
1
1
1
1
1
1
1
1
1
)
;
    }
    procBoundary33to27
    {
        type            processor;
        value           nonuniform List<scalar> 
19
(
1.114192141
1.113948176
1.114595101
1.113409254
1.108970879
1.100531701
1.089458624
1.076650531
1
1
1.000000037
1.000002069
1.000056161
1.000632145
1.005446387
1.020241072
1.054396319
1.090379372
1.090379372
)
;
    }
    procBoundary33to32
    {
        type            processor;
        value           nonuniform List<scalar> 
17
(
1
1
1
1
1
1
1
1
1
1
1
1
1
1
1
1
1
)
;
    }
    procBoundary33to34
    {
        type            processor;
        value           nonuniform List<scalar> 
32
(
1.075651352
1.087547601
1.097312316
1.10487658
1.109821684
1.111578189
1.111513041
1.109689734
1.10054748
1.08782207
1.056079988
1.023520656
1.006120897
1.001056912
1.000124448
1.000009848
1.000000534
1.00000002
1.000000001
1
1
1
1
1
1
1
1
1
1
1
1
1
)
;
    }
}


// ************************************************************************* //
