/*--------------------------------*- C++ -*----------------------------------*\
  =========                 |
  \\      /  F ield         | OpenFOAM: The Open Source CFD Toolbox
   \\    /   O peration     | Website:  https://openfoam.org
    \\  /    A nd           | Version:  7
     \\/     M anipulation  |
\*---------------------------------------------------------------------------*/
FoamFile
{
    version     2.0;
    format      ascii;
    class       volScalarField;
    location    "4";
    object      p;
}
// * * * * * * * * * * * * * * * * * * * * * * * * * * * * * * * * * * * * * //

dimensions      [1 -1 -2 0 0 0 0];

internalField   nonuniform List<scalar> 
2222
(
1.057788311
1.032460217
1.008118181
0.984750859
0.9621994613
0.9403604787
0.91910093
0.8983337652
0.878054152
0.8584330144
0.839596393
0.8213803659
0.8037902558
0.7866964651
0.7701981771
0.7544060891
0.7392918452
0.7248887895
0.7111371333
0.6980651125
0.6855385783
0.6734214448
0.6615927256
0.6499571298
0.6383815071
0.6267891117
0.6151714424
0.6034441655
0.5919067035
0.5803613277
0.5704859245
0.5548911839
1.057952866
1.032613812
1.008233743
0.9848150523
0.9622244904
0.9403705254
0.9191248397
0.8983953551
0.8781548285
0.8585513812
0.8396985737
0.821441563
0.8038163254
0.786706487
0.7702045231
0.7544186172
0.7393216792
0.724938532
0.7112039005
0.6981408772
0.6856081537
0.673469981
0.6616168183
0.6499697308
0.6383911113
0.6268009885
0.615193874
0.6034869159
0.5919689784
0.5804380153
0.5705679297
0.5549680219
1.058849089
1.03347845
1.009036569
0.9855428125
0.9628930594
0.9410093513
0.9197721813
0.8990810896
0.8788784865
0.8592757927
0.8403713753
0.8220400203
0.8043506505
0.7872163852
0.7707175916
0.7549510868
0.7398830293
0.7255191216
0.7117941332
0.6987237
0.6861650713
0.6739855428
0.6620915858
0.6504193673
0.6388275023
0.6272321364
0.6156334399
0.6039603554
0.592476189
0.5809686828
0.5711032312
0.5554780195
1.064125325
1.038519924
1.013820652
0.9900962771
0.9672903245
0.9453202446
0.924054309
0.9033603584
0.8831536894
0.8634908912
0.8444328001
0.8259076394
0.8080186032
0.7907499311
0.7741840696
0.7583934193
0.7433274299
0.7289510611
0.7152021675
0.7020697529
0.6894127808
0.6771042137
0.6650740946
0.653279847
0.6415961644
0.6299325583
0.6182794564
0.6065917672
0.59509113
0.5835503718
0.5736400431
0.5579169504
1.058732831
1.03327203
1.008637515
0.9849498551
0.962219245
0.9404044223
0.9193730486
0.8989551978
0.8789668133
0.8594019776
0.8403592527
0.8218092367
0.8039328673
0.7867361733
0.7703018445
0.7546646659
0.7397394779
0.7254755564
0.7117992344
0.6987197321
0.6861005887
0.6738165039
0.6618079552
0.6500710983
0.6384822377
0.6269397108
0.6154123569
0.6038825821
0.5925477065
0.581131589
0.5712878999
0.5556018118
1.058581586
1.03316614
1.00854266
0.9848322415
0.9620700113
0.9402375042
0.9192242386
0.89886285
0.8789333403
0.8593812805
0.8403140801
0.8217318544
0.8038288006
0.7866278972
0.7702100763
0.7545979092
0.7397023037
0.7254650903
0.7118047629
0.6987253761
0.686099641
0.6738019465
0.6617695007
0.6500132374
0.6384158336
0.6268803294
0.615361797
0.6038647558
0.5925887882
0.5812152356
0.5713893375
0.5556956914
1.063297371
1.037747726
1.012919466
0.9889756732
0.966023873
0.944076677
0.9230281752
0.9026816374
0.882775493
0.8631721486
0.8439636628
0.8252220181
0.8071558427
0.7898491591
0.773386864
0.7577695533
0.742883365
0.7286334217
0.7149259395
0.7017494891
0.6890129123
0.6766033252
0.664444685
0.6525570924
0.6408612066
0.6292820681
0.6177494341
0.6062570891
0.5950250256
0.5836736942
0.5738198912
0.5580104383
1.057481824
1.032252024
1.007656895
0.9838338689
0.9609595955
0.9390845134
0.9181464957
0.8980062216
0.878355579
0.8589374211
0.8398351753
0.8211812457
0.8031828094
0.7859150221
0.7694965556
0.7539478421
0.7391679197
0.7250435908
0.7114312374
0.6982867621
0.6855756707
0.6732406904
0.6611370125
0.6492817151
0.6376671679
0.6262296944
0.6148560129
0.6034605886
0.5923444999
0.5811713389
0.5714027551
0.555662218
1.057095845
1.031920058
1.007394845
0.983611067
0.9607547834
0.9388816985
0.917940525
0.8978358522
0.8782533123
0.8588811543
0.839771955
0.8211305976
0.8031400644
0.7858638183
0.7694400927
0.7538920824
0.7391264698
0.7250219814
0.7114150646
0.6982406584
0.6854876603
0.6731346361
0.6610121602
0.6491131617
0.637488697
0.6260784209
0.6147452265
0.603396903
0.5922996845
0.5812356804
0.5715225992
0.5557648054
1.061417342
1.036288141
1.011748683
0.9878418832
0.9647860148
0.9427140413
0.9216026186
0.9013917371
0.8817752843
0.862401568
0.843228338
0.8245300852
0.8064841326
0.7891357905
0.7726403085
0.7570273044
0.7422167541
0.7280738601
0.7144090277
0.7011360792
0.6882609549
0.6758144423
0.6636352137
0.6516307081
0.6398991534
0.6284557786
0.6171393691
0.6058546137
0.5946972326
0.5836283887
0.5739598646
0.5580442704
1.05526015
1.030431676
1.006278791
0.9827163288
0.9598118736
0.9377848802
0.9166344979
0.8964278164
0.8770204484
0.8579767942
0.8390812667
0.8205133473
0.8026937636
0.7854003734
0.7688388107
0.7531820462
0.7383818161
0.7243305054
0.7107899991
0.6976025792
0.6847609386
0.6723783609
0.6603408118
0.6483987231
0.6365906559
0.6252122445
0.6138777888
0.6025707695
0.5915014043
0.5803373087
0.5711473257
0.5556244239
1.05474568
1.029903786
1.005804105
0.9823414434
0.9594854706
0.9374694039
0.9163142101
0.8960335651
0.8766337627
0.8576192153
0.8387735991
0.8202054442
0.8024923015
0.7852925487
0.76870717
0.7530521167
0.7382636018
0.7242262597
0.7106976214
0.6974804156
0.6845859529
0.6721620185
0.6601397319
0.6482296821
0.636369942
0.6249704228
0.6135380388
0.6020643
0.5911020483
0.5798527926
0.5705955426
0.5555428139
1.05859483
1.033794769
1.009761621
0.9863885506
0.9635146638
0.9413036718
0.9199459168
0.8993973438
0.8798596822
0.8608200881
0.8420895294
0.823599544
0.8058476288
0.7887315492
0.7719833185
0.7561970989
0.7412625871
0.7270780736
0.7134693365
0.7001912958
0.6872363447
0.6747225376
0.6626412803
0.6507677328
0.6388517642
0.6268998371
0.6140182045
0.6022930212
0.5913221411
0.580165929
0.5704150015
0.5570200712
1.052124987
1.027414659
1.003624848
0.9806679182
0.958229882
0.9361039889
0.9147827186
0.8943321355
0.874748785
0.8557675487
0.8370965924
0.8188650483
0.8010789475
0.7844929814
0.7678863039
0.7521406981
0.7372498305
0.723073806
0.709616805
0.6965993377
0.6837538784
0.6712419132
0.6591671695
0.6474573279
0.6354867617
0.6234181626
0.6145742541
0.6046594306
0.5938865965
0.5828462816
0.5728486146
0.5555522855
1.05166578
1.026906616
1.003028069
0.9801267541
0.9578607767
0.9357855466
0.9143346422
0.8939171812
0.8740325464
0.8548169023
0.835926851
0.8178353612
0.8001179832
0.7834577866
0.7676882149
0.7520365311
0.7371155488
0.7228768706
0.7093635613
0.6964423449
0.6836091853
0.6710954064
0.6590446798
0.6473966631
0.6355036354
0.6236648037
0.6131291655
0.6018037488
0.5908341563
0.5798200458
0.5704140878
0.5548919501
1.054738128
1.030347275
1.006451409
0.9836056648
0.9614432085
0.939399425
0.9176128085
0.8971181742
0.8766719581
0.8550568762
0.8359274026
0.8180344133
0.8005552116
0.7831989757
0.7689628534
0.7547808131
0.7399649218
0.7255528598
0.7118216274
0.6989333577
0.6861461241
0.6735989027
0.6614617221
0.6496546907
0.637989244
0.6260382105
0.6127591643
0.6015536524
0.5907896447
0.5797657837
0.5704052211
0.5550469432
1.048527809
1.023911432
1.00005476
0.9773311793
0.9554775992
0.9341389868
0.9125427147
0.891452777
0.8714426003
0.8547806345
0.8386945967
0.8213530735
0.804050492
0.7866317046
0.7674178107
0.7508537565
0.7359553402
0.7215372948
0.7076444231
0.6946129346
0.6823294373
0.6699803777
0.6579044732
0.6460880088
0.6346673652
0.6231851605
0.6113082001
0.601940196
0.5925701846
0.5817617939
0.5724366229
0.5572265162
1.046349655
1.022711744
0.9994253078
0.9767610444
0.9547849821
0.933418951
0.9119453743
0.8901629185
0.8703919283
0.8527501988
0.8339572669
0.816495182
0.7992285414
0.7827480819
0.7667575739
0.7505877529
0.7356914183
0.721172443
0.7069622129
0.6933809086
0.6816092945
0.6698932316
0.657872864
0.6459661242
0.6345245756
0.6230426463
0.6115766245
0.6007290369
0.5899083981
0.5787990588
0.5694831826
0.5544014132
1.045102306
1.022371932
1.00218546
0.9799914774
0.9579681726
0.9365820659
0.9153567041
0.8910074993
0.8698673836
0.8518133219
0.8334820264
0.8160685397
0.7991136582
0.7819509068
0.7677651828
0.7531477529
0.7383125282
0.7236844949
0.7075349401
0.6929903519
0.6808821561
0.671532954
0.6601439076
0.6482988668
0.6367078017
0.6253342507
0.6139688654
0.6008592914
0.5892605611
0.5786255583
0.5694025513
0.5542147751
1.044296357
1.020187027
0.9967327145
0.974069893
0.9519092151
0.9304841125
0.9094168321
0.8896895613
0.8697596911
0.8508920154
0.8354552119
0.8186477928
0.8020352313
0.7836770472
0.7657644292
0.7493507471
0.733765662
0.7199428222
0.7068596584
0.6933208235
0.6808229349
0.6690234354
0.6568094876
0.6448157222
0.6331436321
0.6218528026
0.610710783
0.5989998089
0.5884055275
0.5800110255
0.571260556
0.5560753196
1.043424945
1.018039821
0.9944578177
0.9721483946
0.949974688
0.9289681154
0.9076428027
0.8901736562
0.8720832132
0.8520730886
0.8319836228
0.8138115872
0.7967060885
0.7817250506
0.7653247404
0.749077169
0.7335054677
0.7189107743
0.7078781716
0.6960762035
0.6826515332
0.6684294858
0.6564971535
0.6447338185
0.6329560711
0.6215614084
0.6103531101
0.5990529029
0.5884496178
0.5777180504
0.5684334888
0.5531615949
1.043084675
1.017415953
0.993298711
0.9711335954
0.9490893034
0.9274604394
0.9077506773
0.887594932
0.8672543492
0.8486997237
0.831337644
0.8136937917
0.7958870727
0.7810811338
0.7673091858
0.7517670543
0.7360821437
0.7203730498
0.7050495352
0.691977323
0.6790025374
0.6664476414
0.6571817597
0.6466946212
0.6350114193
0.6234539253
0.6121872369
0.6013573349
0.5899888466
0.5772021541
0.5678959829
0.5530435466
1.045796691
1.020010068
0.9929738114
0.969607009
0.9481087384
0.925999445
0.9067234695
0.8867710443
0.8670161172
0.8475242259
0.8315356746
0.8161149444
0.7983938067
0.7800951547
0.7633917258
0.7475054141
0.7317416605
0.7182065191
0.7046104362
0.69154389
0.6787494542
0.6665967948
0.6553633798
0.6434144139
0.6314315855
0.6197925309
0.6086283661
0.5979612228
0.5871438891
0.5758826755
0.5673724036
0.5545234464
1.038611214
1.01449673
0.9909607086
0.9683870224
0.9473798509
0.9258464271
0.9049160984
0.888190187
0.8698873607
0.8499693667
0.8297437776
0.8111292929
0.7951723811
0.7791051381
0.7628967956
0.7471971358
0.7315975196
0.7170533707
0.7057070765
0.6934624228
0.6810921298
0.6687763708
0.6549757485
0.6427965204
0.6311511091
0.6195615225
0.6084248559
0.5977035392
0.5869789753
0.5760943056
0.5672435244
0.5523343282
1.03549871
1.01287534
0.990053001
0.9668188179
0.9453200427
0.9262265792
0.904517063
0.883672874
0.8644970498
0.8456911488
0.827493677
0.8097624303
0.7939560919
0.7803687158
0.7651201243
0.7496869722
0.7342802261
0.7188836935
0.7032758476
0.6892827045
0.6768632213
0.6647726403
0.6523680287
0.6424794781
0.63270025
0.6213926574
0.61027332
0.5994072005
0.588814537
0.5784101422
0.5685256175
0.5518822264
1.033286558
1.011133895
0.9891697107
0.9663738649
0.9446682021
0.9238652198
0.9033421747
0.8828385925
0.8637334386
0.8452340117
0.8262491168
0.8090505704
0.7934606521
0.7763401763
0.760299389
0.7450009845
0.7301112654
0.7156069808
0.702193559
0.6888691128
0.6765311078
0.6643992831
0.6523852673
0.6414983317
0.6296537502
0.6179103303
0.6068509388
0.5960593375
0.5856818963
0.5754493392
0.566045687
0.5511168411
1.031295966
1.008378394
0.9899098303
0.9693561365
0.946399687
0.9232190359
0.9046775399
0.8851733964
0.8661380752
0.8476263288
0.8266816409
0.8080348039
0.7919414059
0.7755686695
0.7597396666
0.7445295121
0.7297689812
0.7153907626
0.7014194583
0.6903348345
0.6784096363
0.6663812818
0.6545320938
0.6415905188
0.6291415893
0.6177203346
0.6067518697
0.5959523304
0.5855986448
0.5753096055
0.5660302439
0.5513488079
1.029594196
1.006744403
0.9840245036
0.9623776617
0.9402767054
0.9198271093
0.8998209525
0.8799070782
0.8603769686
0.8419095933
0.8251269281
0.8076754717
0.7904611574
0.7764435482
0.7616826043
0.7466795295
0.7319715049
0.7176697128
0.7021341986
0.6872517928
0.6743552011
0.6624004274
0.6507534537
0.6388537196
0.6291605613
0.6193398445
0.6085439617
0.5977828303
0.5874104031
0.5770142117
0.5679666486
0.5531136567
1.029436753
1.005457621
0.9818911872
0.9600683947
0.9390388353
0.9189461175
0.8989483777
0.8791716438
0.8598004758
0.8406551045
0.8246365392
0.8093042808
0.791622069
0.7730174569
0.7567066325
0.7418360813
0.7274104275
0.7130242657
0.7003821797
0.6868244091
0.6740443254
0.6621057336
0.6504504343
0.6388958223
0.628147726
0.616342067
0.6052622943
0.5946177342
0.5843306723
0.5740533089
0.5652123152
0.5503992729
1.03226405
1.007325898
0.9817085748
0.9582266118
0.9396446902
0.9208450692
0.9012574988
0.8817713747
0.8623057561
0.8430691569
0.8230565091
0.8042006871
0.7879735746
0.7718926063
0.7560718217
0.7412092094
0.727041422
0.7125287667
0.6993486693
0.6882344802
0.6760560016
0.6639757315
0.6523017801
0.6408257537
0.6278229046
0.6159885933
0.6051445626
0.5945066326
0.5841978706
0.5738942281
0.5651304314
0.5502498457
1.025269354
1.001715985
0.9792071822
0.9568876798
0.9351860962
0.9144417473
0.8947103619
0.875767622
0.8567119309
0.8385979438
0.821602129
0.8037445389
0.7863819381
0.7722269944
0.757939523
0.7431411438
0.7290475585
0.7147105884
0.6990513055
0.6848629924
0.6720440987
0.659928739
0.6483304452
0.6370329508
0.6267211083
0.6174478789
0.6069263074
0.5961897322
0.5858788993
0.575631414
0.5668820802
0.552045673
1.022107253
0.9991931152
0.9773630865
0.9559343879
0.9342013488
0.913573865
0.8937356618
0.8748412837
0.8563582435
0.8375406192
0.8211048725
0.8056335572
0.7876876232
0.7692411016
0.7532253073
0.7383598622
0.7238401776
0.7107858514
0.6979947011
0.6844745629
0.671682268
0.6595410212
0.647954242
0.6366086519
0.6260039222
0.6144186744
0.6034886096
0.5928357131
0.5826237998
0.5726090633
0.563673163
0.549537617
1.021196899
0.9982048345
0.9751612851
0.9552866832
0.936294145
0.9160072045
0.8958640545
0.8767681758
0.858843104
0.8388742147
0.8193142847
0.8010308724
0.7848402145
0.7683069281
0.7526431022
0.7379537966
0.7230640219
0.7093241836
0.6984369732
0.6863224178
0.6736328841
0.6613359301
0.6496445358
0.6382087001
0.6256087383
0.6139724571
0.6031721995
0.5925881034
0.5824088584
0.5724367917
0.5636745318
0.5490137382
1.018198606
0.9949118105
0.9738976378
0.9518662409
0.9301187478
0.9097990445
0.8899329902
0.8702037277
0.8522622536
0.8362155921
0.8184511421
0.8001049436
0.7832109263
0.7691074346
0.7544532549
0.7399930873
0.7245254154
0.709307894
0.6955624056
0.6823830147
0.6696596738
0.6573150553
0.6453677829
0.6341788672
0.6248437835
0.6153835025
0.6047821974
0.5941728022
0.5839692334
0.5738988306
0.5653629162
0.5496067146
1.016164801
0.9931943983
0.9716208622
0.9501305916
0.9289283059
0.9088795762
0.8892303928
0.8695237969
0.8502889549
0.8349312291
0.8201227438
0.8015061895
0.7829506863
0.7662322459
0.7500672838
0.7347750116
0.7214413852
0.708479616
0.6949265733
0.6818767224
0.669239702
0.6568638953
0.6448608876
0.6336967342
0.623213145
0.611924142
0.6010851389
0.590490026
0.5804271228
0.5702768996
0.5617911321
0.5485952039
1.014130229
0.9904784179
0.9679311337
0.9495589781
0.9309853466
0.9112616083
0.8917326611
0.8718181986
0.851459698
0.8322978353
0.814407684
0.7981798483
0.7818566274
0.7655469394
0.7497103836
0.7336512931
0.7202329709
0.7093604833
0.6967153016
0.6838433726
0.6711901451
0.6586461324
0.6465936705
0.6349923898
0.6225210061
0.6114295842
0.6008287495
0.5902648304
0.5801314465
0.5701183236
0.5613192653
0.548477244
1.010735933
0.988180922
0.966423273
0.9448086685
0.9239557778
0.9041129636
0.8849597199
0.86602078
0.8481423764
0.8299413763
0.8117770132
0.7967352047
0.7828133641
0.7673550653
0.7518333049
0.7352588663
0.7195317579
0.705445736
0.6922714541
0.6795756898
0.667230545
0.6548800334
0.6426795497
0.6312659335
0.622332315
0.6129339461
0.6024819888
0.5918622573
0.5815733622
0.571556872
0.5628338032
0.5471910059
1.009080958
0.9861089924
0.9636773009
0.9415321789
0.9212423826
0.9018678661
0.8825245813
0.8638771806
0.8459622845
0.827744873
0.8106799716
0.7944643779
0.7775740479
0.7613924119
0.7459759567
0.7321295356
0.7184350927
0.7046752204
0.6915516029
0.6789022359
0.6666060051
0.6544088153
0.6422818084
0.6308379469
0.6206467341
0.6093909307
0.5986984433
0.5882988869
0.5780765942
0.5678134014
0.5599550619
0.5464901907
1.005470417
0.982865458
0.9614581398
0.9402546628
0.9199446131
0.900148887
0.8804300293
0.8620982979
0.8449059102
0.8271243029
0.8094841262
0.7923242241
0.7757892409
0.7597474748
0.7439734722
0.7306065366
0.7191919863
0.7062351962
0.6932345302
0.6805919787
0.6682736071
0.656186506
0.6442139792
0.6322612017
0.6200003755
0.6088989911
0.5984051017
0.5880301964
0.5778111544
0.5677039128
0.5592828123
0.5469936885
1.003330086
0.9812161571
0.9595458538
0.9379881909
0.9168390827
0.8972832242
0.879172043
0.8610788938
0.843021775
0.8258236915
0.8083323582
0.7906768697
0.7741205401
0.7581543436
0.7434006162
0.7292268472
0.7150340975
0.7016711454
0.6887061278
0.6761836324
0.6640304411
0.6521370037
0.6403847305
0.6284348317
0.6182540265
0.6099144752
0.5998251705
0.5895220379
0.57938643
0.569410005
0.5606680347
0.5449112471
1.001226833
0.9782426801
0.9562960037
0.9359484025
0.9154927369
0.8954593248
0.8772866731
0.8595497623
0.8411454378
0.823706455
0.8073497309
0.7907425753
0.7737612565
0.7572344189
0.7421767748
0.7280697061
0.7142160016
0.7010101192
0.6880175905
0.6755057998
0.6634500669
0.6516668307
0.6400507237
0.6282518551
0.6174486166
0.6066510437
0.5960486327
0.5860029761
0.5761470338
0.5660403215
0.5581745439
0.5443965507
0.9980282497
0.9767028723
0.9550510431
0.933876066
0.9138300979
0.8940148235
0.8749884389
0.8574365936
0.8407085408
0.8229427275
0.8049671235
0.7880693617
0.771501147
0.7554696533
0.7404521993
0.7278046263
0.7156688262
0.7026362051
0.6894820027
0.6768850647
0.6649018772
0.6531875361
0.6416457937
0.6299409977
0.6172091815
0.6054018817
0.5953566618
0.5856709903
0.5761047441
0.5660733788
0.5575525542
0.5448785829
0.9956234316
0.9737060958
0.9522601463
0.9307799602
0.9114330246
0.8935491523
0.874923873
0.8559985911
0.8378890389
0.8203398961
0.8026894275
0.785727282
0.7698172787
0.7546900591
0.7397372416
0.7255560148
0.7114615766
0.6980731399
0.6851117216
0.6723950189
0.6605125754
0.6489645938
0.6375070968
0.6262636983
0.6149413163
0.6039531793
0.5952268449
0.5868417566
0.577712631
0.5677582133
0.5581442687
0.5429819318
0.9927176902
0.9700927497
0.949405884
0.929716481
0.9096123502
0.8900596193
0.8720208701
0.8537972318
0.8352495194
0.817838096
0.8015419102
0.7850305115
0.7687307707
0.7531141986
0.7378189671
0.7232266874
0.7094140994
0.6963945658
0.6840423835
0.6716560316
0.6598317776
0.6484160786
0.6371404734
0.6258638164
0.6147288542
0.6040211998
0.5938207936
0.5834913355
0.5740252482
0.5646647735
0.5565317548
0.5421501625
0.9909954845
0.9689733486
0.9472130367
0.9269959169
0.907536821
0.8879598085
0.8692929244
0.8518842927
0.8345185358
0.8167121964
0.7992654035
0.782598969
0.7663556235
0.7510941418
0.7370250354
0.7226989925
0.7085025403
0.6949254476
0.6828161398
0.6724429988
0.6611042261
0.6497825831
0.6386931855
0.6273777967
0.6163439905
0.6053753992
0.5931500506
0.5825390206
0.572932732
0.5636677093
0.5557532252
0.5417256765
0.9871491494
0.9659628068
0.9448298155
0.9240271916
0.9050740798
0.8871793757
0.8686456733
0.8499362052
0.8321535587
0.8146015955
0.7968943551
0.7804198367
0.7652343734
0.7499888174
0.7349624448
0.7206700719
0.706757408
0.6933852372
0.6814595275
0.668903795
0.6564184904
0.6448576229
0.6341212804
0.6233338596
0.6123917699
0.6022786704
0.592396883
0.5825114267
0.5729981324
0.5637134988
0.555669443
0.5416312105
0.9837435009
0.9623876594
0.9428289291
0.9233032981
0.9034719822
0.8843867883
0.8661152739
0.8474829528
0.8293710973
0.8126177594
0.7961817596
0.7796482374
0.7633665335
0.7480872646
0.7331124235
0.7185922079
0.705297049
0.692808895
0.68022995
0.6677189686
0.6554706171
0.6436869567
0.6324140552
0.6217394015
0.6110739187
0.6006746933
0.5924603195
0.5836983152
0.5744439781
0.5650280004
0.5568867087
0.5426393928
0.9824084775
0.9607989272
0.9397579364
0.9199682912
0.9006512974
0.8813150975
0.8632502116
0.8461892374
0.828696679
0.8107855892
0.793875896
0.77778932
0.7615272084
0.7459446637
0.731641791
0.717946794
0.7041601937
0.6910900574
0.6781802554
0.666245786
0.656008853
0.6442633112
0.6320292928
0.6205920785
0.6097751326
0.5998544492
0.5902783327
0.5801103692
0.5706731838
0.5613703287
0.5530636749
0.539401839
0.9785829107
0.9574852871
0.9366062801
0.9163794329
0.8978939157
0.8801333853
0.8618296823
0.8436239352
0.8262734312
0.8090137389
0.7918447536
0.7756215315
0.7604635277
0.7454555026
0.7302519351
0.7159238881
0.7023176412
0.6890385478
0.6766361492
0.6649460941
0.6527948427
0.6413101345
0.6301615237
0.6188307973
0.6083828201
0.5989043616
0.5892026321
0.5795552116
0.5702410361
0.5609321746
0.5526784583
0.5384910761
0.9749489477
0.9537626266
0.9340363538
0.9150567065
0.8958329588
0.8771153073
0.8590330149
0.8409371155
0.8234621784
0.8073985975
0.791483347
0.7748746049
0.758407618
0.7431412698
0.7283421603
0.7138157293
0.700572083
0.6882749499
0.6758020897
0.6633562116
0.6512456663
0.6395524777
0.6285488479
0.6179387156
0.6075327008
0.5973584054
0.5874698079
0.5796793913
0.5714034393
0.5620665603
0.5537643071
0.5391799779
0.9720794951
0.9518121516
0.931554376
0.9118853181
0.8927552298
0.8738167218
0.8559829773
0.8392861567
0.8225540209
0.8054247749
0.7888265955
0.7727852301
0.756662676
0.7409443787
0.7266065899
0.7131280489
0.6995766019
0.6865244149
0.6739808514
0.6614221167
0.6498068654
0.6389114023
0.6278881472
0.6171215311
0.606451572
0.5957749189
0.5864261667
0.577365096
0.5679410983
0.5581805399
0.5498394326
0.5368172686
0.9698971518
0.9489810389
0.9282042597
0.9080473637
0.889836651
0.8725650606
0.8548341876
0.8370393676
0.8199150478
0.8031489332
0.7864003792
0.7702906273
0.7552985963
0.7404943218
0.7253928206
0.7111515458
0.6976996952
0.6845042455
0.6721646961
0.6606280092
0.6489427997
0.63737342
0.6261929508
0.6154851122
0.6055584598
0.5953381278
0.5855107533
0.5760004009
0.5668700189
0.5572963259
0.5491662576
0.5359796433
0.9666400853
0.9451183081
0.9253212446
0.9065282841
0.8875960105
0.8694438962
0.8521205209
0.8347630526
0.8172390433
0.800524479
0.7849116881
0.7694079045
0.7535252396
0.7384251701
0.723642451
0.7091538469
0.695901517
0.6836973858
0.6712234123
0.6590388356
0.6472098894
0.6355473818
0.6247542228
0.6147183154
0.604306468
0.5938595115
0.5841385803
0.5746219215
0.5658622573
0.5572445387
0.5498895793
0.536362233
0.9639002766
0.9436542793
0.9233890115
0.9038052968
0.8846193155
0.865950373
0.8487332117
0.8327124433
0.8164101393
0.7996578752
0.7828416117
0.7667547616
0.7509902215
0.7358404255
0.7219796671
0.7086755896
0.695009022
0.6819945492
0.6694347195
0.6571100286
0.645604627
0.6349162859
0.6239066103
0.6131130659
0.6027728383
0.592687448
0.5828152681
0.5737134718
0.5654118932
0.5558583987
0.5473321837
0.5345028509
0.9617271695
0.9405999234
0.9198184553
0.9000504733
0.8820003939
0.8646667292
0.8472494953
0.8300082842
0.8134805368
0.7971831941
0.7803504395
0.763764915
0.7487852077
0.7349207321
0.7206120441
0.7067911494
0.6932472533
0.6799820816
0.6677951181
0.6563828694
0.6445653676
0.6334336481
0.6224697054
0.6114327189
0.6011061723
0.5922525145
0.5827551745
0.572699517
0.5642444812
0.5552884307
0.5471564851
0.5335031023
0.9571529988
0.9377159528
0.9181903522
0.8986767512
0.8795946986
0.8615321278
0.844196027
0.8271384137
0.8102092813
0.7940184178
0.7785049662
0.7630571057
0.7472890856
0.7322597861
0.7178774978
0.704261025
0.6918237569
0.679546439
0.6669723511
0.6549887991
0.6429715916
0.6315430082
0.621048932
0.6109817065
0.6003692539
0.5906616414
0.5810237741
0.5712681023
0.5624571183
0.5552968951
0.5483553808
0.5337124625
0.9537504473
0.9344829173
0.9149085643
0.8956269984
0.8765015211
0.8579637304
0.8405610343
0.8245385256
0.8088580104
0.7928305924
0.7764235397
0.7605660258
0.7446510613
0.7292626225
0.7157832206
0.7033943663
0.6902738806
0.6775142371
0.664908083
0.6529105695
0.6418459629
0.6311206175
0.6198504497
0.6094171473
0.5988379823
0.5889783847
0.5794562835
0.57094319
0.5619968772
0.5522446572
0.5445659475
0.5315188903
0.9502699631
0.9305819531
0.9116005373
0.8929202899
0.8745077242
0.8566839889
0.8392865864
0.8223926376
0.8061034375
0.7899907665
0.7734808827
0.7574977009
0.742689983
0.7286078896
0.7144219664
0.7007642805
0.6875527203
0.6754057815
0.6639775774
0.6522987424
0.6404225629
0.6292054875
0.6178216109
0.6074528721
0.5977907352
0.5887492035
0.5786505759
0.5700846197
0.5604910436
0.5512589401
0.5433625323
0.5302293718
0.9465224696
0.9270205322
0.9080129493
0.8895714552
0.8714146842
0.8537825344
0.8364877647
0.8193535546
0.8024844077
0.786854632
0.771928208
0.7567601069
0.7412992701
0.7263714219
0.711625095
0.6978687133
0.6860266185
0.6744514124
0.6622638932
0.6502798353
0.6383193836
0.6272911365
0.6168411227
0.6067990792
0.5963317997
0.5868004791
0.5770199237
0.5684917
0.5589397216
0.5519383789
0.5438550748
0.5297618047
0.9416030435
0.922688607
0.904465575
0.8862535944
0.868053632
0.8501108394
0.8331406802
0.8172213901
0.8013809666
0.7855979097
0.7698012057
0.7542347295
0.7385322449
0.7236835894
0.7100860881
0.6970582134
0.6841663438
0.6718064472
0.6600654078
0.6489409687
0.63771357
0.626600315
0.6156146357
0.6050652726
0.5943753334
0.5849298845
0.5761644172
0.5677875624
0.5577641182
0.5500043897
0.5410295792
0.5286617213
0.9397334487
0.9204253452
0.9010826844
0.8825224886
0.8654561829
0.8488422938
0.8317002859
0.8148229318
0.7984841188
0.7823222643
0.7664063774
0.7518803537
0.7375698126
0.7229583682
0.7086347617
0.6950143469
0.6819484665
0.6700697066
0.6588937303
0.6473942903
0.6359047974
0.6245939468
0.613627768
0.6036260261
0.5936888584
0.5845320139
0.5748448642
0.5656902503
0.5568377002
0.5484254853
0.5397111987
0.5292538917
0.9354702367
0.915850424
0.8977242502
0.8808725308
0.8633460716
0.8456725229
0.8281628566
0.8110321463
0.7951760716
0.7804375043
0.7655401796
0.7504194262
0.7352447589
0.7202851071
0.7058299776
0.6929237593
0.6807668184
0.668546464
0.6564907909
0.6449457389
0.6342749188
0.6237448454
0.6130378461
0.6023958252
0.5926488517
0.582597979
0.5729860632
0.5640535907
0.5573636895
0.5474557715
0.5383804018
0.5338160285
0.9324559017
0.913956767
0.8957919005
0.8774137537
0.8590749825
0.8416609809
0.8256814541
0.8099072955
0.7938997082
0.7779456366
0.7622267773
0.7467215878
0.732225119
0.7187262144
0.7050867385
0.6914740386
0.6786782147
0.6666863204
0.6553179302
0.6441534691
0.6332004138
0.6220183625
0.6111012996
0.6004450335
0.5912880582
0.5814702991
0.572686897
0.5641930801
0.5547850729
0.5439962118
0.5371077385
0.5547831104
0.9286922513
0.90951057
0.8908880455
0.8735304407
0.8570173769
0.8402818841
0.8233039295
0.8066173902
0.79003206
0.774070444
0.7595212008
0.7454079845
0.7309252226
0.7162680462
0.7022418518
0.6886820119
0.6761420793
0.6646024123
0.6533460291
0.6420843002
0.6308158384
0.6199137243
0.6099136591
0.6002761693
0.5899490592
0.5798557586
0.571400111
0.5620016136
0.552271767
0.5437668508
0.5375882187
0.6129942997
0.9236017602
0.9061571913
0.8889245711
0.8714049225
0.8537473277
0.8363617483
0.8192103871
0.8033614039
0.7881721336
0.7730075063
0.7576575234
0.7424250478
0.7273855938
0.7127861325
0.6997114039
0.6873602859
0.6749760701
0.6626751876
0.6511248912
0.6404705255
0.6299058469
0.6191657898
0.6089591547
0.5980670164
0.5877663256
0.578269201
0.5704910098
0.5602860179
0.5511992834
0.5448286637
0.5481694109
0.72793554
0.9217268632
0.9030189932
0.8846118047
0.8666173449
0.8495153075
0.8337845652
0.8179516118
0.8017174343
0.7853475435
0.7693704962
0.7536943189
0.7392083491
0.725556022
0.7119939663
0.6985229649
0.6851769024
0.6725110278
0.6606074511
0.6498682051
0.638910375
0.6279814094
0.6172494177
0.6068108927
0.5962170855
0.5871936983
0.5782549452
0.5679853019
0.5571727569
0.5512887967
0.5533645168
0.6127478351
0.890488541
0.9163967574
0.8977108454
0.8807373239
0.86444622
0.847997424
0.8310499952
0.8141963945
0.7974986748
0.7817013887
0.7670858459
0.7525067744
0.7380102211
0.7234382672
0.7092959494
0.69555709
0.6824702356
0.6707587144
0.6594928451
0.6479119431
0.6363991615
0.6258340732
0.6162983538
0.6057288626
0.595517202
0.5859592151
0.5756705449
0.5646005323
0.5573361224
0.5558829881
0.6047933997
0.7964606059
1.012778687
0.9136842458
0.8958841493
0.8782339154
0.8605915325
0.8433498942
0.826570636
0.8112211012
0.7959718136
0.7804251859
0.7646623958
0.7492826788
0.7342946591
0.7201780934
0.7073017286
0.6946113049
0.6819989399
0.6694665022
0.6571253204
0.6456681165
0.6353752445
0.6253575605
0.614209061
0.6034811168
0.5937684589
0.5845067629
0.5735761294
0.5650433452
0.5613371526
0.5849234176
0.7670814176
1.007061416
1.062026168
0.9092597301
0.8909101392
0.8730088243
0.8565452181
0.840957819
0.8251356803
0.8087660235
0.7923505495
0.7762451314
0.7608713171
0.7468800057
0.7329971537
0.7192344842
0.7053976861
0.6919492285
0.678988437
0.6671118774
0.6560405327
0.6449084798
0.6337421791
0.6225912157
0.6114695255
0.6022121781
0.5933223795
0.5817566009
0.5716601285
0.5666332435
0.5792384418
0.7078698864
0.9751705632
1.098578862
1.096003113
0.9049500058
0.8880374329
0.8711961967
0.8544337219
0.8373339711
0.82054706
0.8041419455
0.789159773
0.7745669984
0.7598553903
0.7447619037
0.7298758837
0.7155365733
0.7018533316
)
;

boundaryField
{
    inlet
    {
        type            fixedValue;
        value           nonuniform 0();
    }
    outlet
    {
        type            zeroGradient;
    }
    bottom
    {
        type            slip;
    }
    top
    {
        type            slip;
    }
    obstacle
    {
        type            zeroGradient;
    }
    defaultFaces
    {
        type            empty;
    }
    procBoundary5to4
    {
        type            processor;
        value           nonuniform List<scalar> 
69
(
1.083981593
1.084136063
1.085039038
1.090505662
1.084910576
1.084723826
1.089517554
1.083388157
1.082999637
1.087253804
1.080870775
1.080422756
1.08432333
1.07789342
1.076998185
1.076987112
1.074555502
1.072506442
1.071450977
1.070446122
1.070876022