/*--------------------------------*- C++ -*----------------------------------*\
  =========                 |
  \\      /  F ield         | OpenFOAM: The Open Source CFD Toolbox
   \\    /   O peration     | Website:  https://openfoam.org
    \\  /    A nd           | Version:  7
     \\/     M anipulation  |
\*---------------------------------------------------------------------------*/
FoamFile
{
    version     2.0;
    format      ascii;
    class       volScalarField;
    location    "1.3";
    object      p;
}
// * * * * * * * * * * * * * * * * * * * * * * * * * * * * * * * * * * * * * //

dimensions      [1 -1 -2 0 0 0 0];

internalField   nonuniform List<scalar> 5(1.057767866 0.9522589064 1.054517312 0.9281536586 1.046457615);

boundaryField
{
    inlet
    {
        type            fixedValue;
        value           nonuniform 0();
    }
    outlet
    {
        type            zeroGradient;
    }
    bottom
    {
        type            slip;
    }
    top
    {
        type            slip;
    }
    obstacle
    {
        type            zeroGradient;
    }
    defaultFaces
    {
        type            empty;
    }
    procBoundary22to16
    {
        type            processor;
        value           nonuniform List<scalar> 3(1.060248442 0.9937134095 0.9937134095);
    }
    procBoundary22to21
    {
        type            processor;
        value           nonuniform List<scalar> 2(0.8368991121 0.8245703776);
    }
    procBoundary22to28
    {
        type            processor;
        value           nonuniform List<scalar> 2(0.8958395644 1.034272721);
    }
    procBoundary22to29
    {
        type            processor;
        value           nonuniform List<scalar> 3(1.026416241 1.028135679 1.028112688);
    }
}


// ************************************************************************* //
