/*--------------------------------*- C++ -*----------------------------------*\
  =========                 |
  \\      /  F ield         | OpenFOAM: The Open Source CFD Toolbox
   \\    /   O peration     | Website:  https://openfoam.org
    \\  /    A nd           | Version:  7
     \\/     M anipulation  |
\*---------------------------------------------------------------------------*/
FoamFile
{
    version     2.0;
    format      ascii;
    class       volScalarField;
    location    "1.8";
    object      T;
}
// * * * * * * * * * * * * * * * * * * * * * * * * * * * * * * * * * * * * * //

dimensions      [0 0 0 1 0 0 0];

internalField   nonuniform List<scalar> 
555
(
1.111084518
1.11076268
1.110803859
1.111102093
1.111142189
1.111309346
1.116863065
1.113818388
1.111555716
1.111404017
1.111737082
1.111550936
1.111094541
1.111443049
1.111146612
1.110907346
1.111277566
1.11146277
1.111549239
1.111394786
1.111066839
1.111051333
1.111193269
1.111282448
1.111565062
1.115632035
1.113155645
1.111018906
1.11080699
1.111068468
1.110941904
1.110521034
1.110793567
1.110755015
1.110547526
1.110824721
1.111086449
1.111006583
1.110856288
1.1105316
1.110516933
1.110714197
1.110870141
1.11117075
1.113008739
1.111445111
1.10949477
1.109090201
1.109363759
1.109257515
1.108826236
1.109304995
1.109427925
1.109136445
1.109359791
1.109619151
1.109548855
1.109385092
1.108975884
1.108837576
1.10886074
1.108950954
1.109316391
1.10905083
1.108166706
1.106138299
1.105335464
1.105908503
1.106073073
1.105744186
1.10645395
1.106867023
1.106725429
1.106837034
1.106860246
1.106730611
1.106527677
1.106094778
1.105991194
1.105964917
1.106006366
1.106396189
1.103237661
1.102412433
1.100526693
1.099685578
1.100486841
1.100885153
1.100758415
1.101450389
1.102132389
1.102430035
1.102768102
1.102896491
1.102674724
1.102436241
1.102006766
1.101723633
1.101746976
1.101861087
1.102278005
1.095843659
1.095229088
1.093654944
1.092817757
1.093586738
1.094065479
1.094044208
1.094702293
1.095630293
1.096274948
1.096918549
1.097253282
1.097133797
1.096964621
1.096721822
1.096453121
1.096449846
1.096516814
1.096949352
1.087016883
1.086164656
1.085354413
1.085970624
1.08636565
1.086354507
1.086972959
1.087988322
1.088791509
1.089679133
1.09021972
1.090330643
1.090279277
1.090171063
1.089962854
1.090075229
1.090323366
1.090688753
1.078688362
1.07824175
1.077571578
1.078090912
1.078309871
1.078264495
1.078852085
1.079779001
1.08059216
1.08175764
1.082390398
1.082703207
1.082762038
1.082691881
1.082526223
1.082763498
1.083234461
1.083743702
1.070985424
1.070512482
1.069862108
1.070205968
1.070364019
1.070253324
1.070779126
1.071517372
1.072335805
1.073045135
1.074076963
1.074567255
1.074691722
1.07464281
1.07453484
1.074857193
1.075441874
1.07615523
1.076995095
1.0639597
1.06328879
1.062399749
1.062582843
1.062764622
1.06264811
1.063076102
1.063567248
1.063966655
1.064436806
1.065199202
1.065767508
1.065924621
1.065893904
1.065853532
1.066228041
1.066940485
1.067749059
1.068577722
1.057022824
1.056478305
1.055445707
1.055321081
1.055451587
1.055237541
1.055540596
1.05585343
1.056016602
1.05621667
1.056776779
1.057192568
1.057252437
1.057214542
1.057172103
1.057496441
1.058133782
1.059026407
1.059889669
1.049594312
1.049147663
1.048246503
1.048475139
1.048303596
1.047842669
1.048086644
1.048310686
1.048347079
1.048458746
1.048659864
1.048968508
1.048959237
1.048916319
1.04886055
1.049067241
1.049561924
1.050317887
1.051014602
1.041740843
1.04114401
1.041523048
1.041136263
1.0405791
1.040795383
1.040950378
1.040860115
1.040814256
1.041233171
1.041495535
1.04143583
1.041358884
1.041278496
1.041283792
1.041417257
1.041987416
1.042483731
1.034175395
1.033953309
1.034413724
1.033967337
1.03324128
1.033483553
1.03355751
1.033405622
1.033522224
1.033943586
1.034287501
1.034270765
1.034201482
1.034100469
1.033929368
1.033982719
1.034125923
1.034485462
1.026721657
1.026631253
1.027116204
1.026744406
1.025915176
1.026173349
1.026260543
1.026176387
1.026328663
1.026811661
1.027203075
1.027237752
1.027165235
1.026993051
1.026729747
1.026729754
1.026939417
1.027212101
1.019445258
1.019366511
1.019803268
1.019634446
1.018825626
1.018991021
1.019062948
1.018967691
1.018970715
1.019416065
1.0199361
1.020074023
1.020054597
1.019894863
1.019666
1.019743484
1.019971115
1.020322772
1.012378787
1.012344838
1.01284612
1.012832146
1.012017864
1.012133851
1.012122567
1.011976672
1.011915858
1.012191589
1.012657001
1.01282335
1.012727892
1.012432847
1.012303826
1.01264381
1.013108714
1.013790499
1.005638807
1.005814317
1.00643076
1.006448395
1.005595779
1.00569123
1.005641422
1.005498935
1.005401831
1.005511294
1.005842787
1.005970396
1.005810387
1.005441103
1.005396603
1.00567445
1.00633899
1.007140322
0.9995301204
0.999821322
1.000542631
1.000581134
0.9996631886
0.9997224476
0.9998075469
0.9997021614
0.9995585857
0.9995114407
0.9996636454
0.9997477624
0.9995829972
0.9993105965
0.9993297849
0.9995754755
1.000320656
1.001180543
0.9944329442
0.9951545814
0.99535252
0.994442922
0.9945741326
0.99486914
0.9947872203
0.9946243086
0.9945526801
0.9946808604
0.9947618865
0.9946978349
0.9945800575
0.9946724664
0.9949565556
0.9955468867
0.9962136512
0.9896916401
0.9903825465
0.9909759267
0.9902260396
0.9905021019
0.9909416713
0.9908914988
0.9908091562
0.9908243788
0.9910095813
0.9910855352
0.9911699916
0.9911908843
0.9913655401
0.991584555
0.9918858241
0.992347574
0.9858421221
0.9864963011
0.9875912148
0.9871078331
0.9876672785
0.9882432441
0.98821441
0.988221958
0.9883208779
0.9886870754
0.9889643012
0.9892109316
0.9893676335
0.9894930896
0.9895716531
0.9896674256
0.9898858736
0.9831823507
0.9839567018
0.985776806
0.9855224079
0.9862038053
0.9869071701
0.9869038748
0.9869549301
0.9871249982
0.9875918842
0.9880480025
0.9883541079
0.9885759035
0.9886726317
0.9886111361
0.9886031767
0.9886245611
0.9885374744
0.9820347684
0.9829533536
0.985141065
0.9849820882
0.9856339358
0.9862772632
0.986334325
0.9863967805
0.9866120689
0.9871079742
0.9876719534
0.9880164208
0.9882613844
0.9882807848
0.9881154921
0.9880857217
0.9880894817
0.9880232573
0.9819055127
0.9827636572
0.9849946417
0.9847998442
0.9853376714
0.9858191609
0.9859805042
0.9860348817
0.9862803912
0.9867754805
0.9873129804
0.9877685185
0.9880400295
0.9880278034
0.9878591412
0.9877739467
0.9878412487
0.9880194165
0.9820847954
0.9828343848
0.9850292408
0.9847405786
0.9847711621
0.9851415815
0.985381324
0.9854350242
0.9856627363
0.9859880651
0.9864047063
0.9869140148
0.9871624188
0.9872619311
0.9872963212
0.9873913263
0.9876922734
0.9881222385
0.9829151706
0.9849296286
0.9844241681
0.9838448334
0.9843512833
0.9846521525
0.9846832031
0.9847761399
0.9848944379
0.9853106803
0.9858013396
0.9861506206
0.986358259
0.9865346019
0.9868461684
0.9873004924
0.9879679469
0.9827329585
0.9845051245
0.9836210145
0.9834403483
0.9842207865
0.9845336894
0.9844329726
0.9844584203
0.984620523
0.9848400726
0.9852290488
0.9857299092
0.9860519901
0.9862345428
0.9865129343
0.9868653886
0.9875146061
0.9823701994
0.9844443457
0.9838133632
0.9838916843
0.9848813322
0.9851899945
0.985135236
0.9851815067
0.985262009
0.9853444118
0.9857050092
0.9861520557
0.9865836778
0.9867666201
0.9868426083
0.9869730663
0.9874393963
0.9828673674
0.9855808187
0.9850240366
0.9852012155
0.9862236841
0.9865494758
0.9864552431
0.9864771466
0.9865162886
0.9866216591
0.9869591959
0.9873084102
0.9877231895
0.9878380123
0.9877816549
0.9877986271
0.9878007018
0.9846482604
0.9873411044
0.9867594156
0.9870686541
0.9881715499
0.9883839091
)
;

boundaryField
{
    inlet
    {
        type            fixedValue;
        value           nonuniform 0();
    }
    outlet
    {
        type            inletOutlet;
        inletValue      nonuniform 0();
        value           nonuniform 0();
    }
    bottom
    {
        type            slip;
    }
    top
    {
        type            slip;
    }
    obstacle
    {
        type            zeroGradient;
    }
    defaultFaces
    {
        type            empty;
    }
    procBoundary22to16
    {
        type            processor;
        value           nonuniform List<scalar> 
20
(
1.110175682
1.109808002
1.109753178
1.109988679
1.110034281
1.110080881
1.117041876
1.114130198
1.111659741
1.111251973
1.111690493
1.111496896
1.111090045
1.111607645
1.111063719
1.110732486
1.111033695
1.111193523
1.111234416
1.111234416
)
;
    }
    procBoundary22to17
    {
        type            processor;
        value           uniform 1.111209673;
    }
    procBoundary22to21
    {
        type            processor;
        value           nonuniform List<scalar> 
35
(
1.118071954
1.116325911
1.113071459
1.107920252
1.101481137
1.093647905
1.0872409
1.0872409
1.078511161
1.070528998
1.063477708
1.056579866
1.049211736
1.041717497
1.041717497
1.033951082
1.02644179
1.019603237
1.01285573
1.006113673
0.9997336401
0.9941706231
0.9941706231
0.9896459977
0.9859773907
0.9832965924
0.9821175028
0.9822065101
0.9826370763
0.9822732512
0.9822732512
0.9823077533
0.9822461289
0.9828172124
0.9846835469
)
;
    }
    procBoundary22to23
    {
        type            processor;
        value           nonuniform List<scalar> 
32
(
1.111512579
1.11113577
1.109442885
1.106592961
1.10261253
1.097394438
1.091183273
1.084440358
1.084440358
1.0774747
1.069145585
1.060541891
1.051636826
1.042873438
1.034790266
1.027322288
1.020565056
1.014166073
1.007734864
1.00186451
0.9968385014
0.9928188229
0.9900646496
0.9900646496
0.9884808161
0.9879720813
0.9880708982
0.988338195
0.9884360123
0.9882005234
0.9877760634
0.9875211016
)
;
    }
    procBoundary22to28
    {
        type            processor;
        value           nonuniform List<scalar> 
18
(
0.9883027134
0.9882378814
0.9883102903
0.9884461559
0.988683435
0.9890696943
0.9894782991
0.9896484609
0.9895507523
0.9892584432
0.9885100919
0.9870615941
0.9897133252
0.9891858987
0.9893403278
0.9903727111
0.9883027134
0.9905830074
)
;
    }
}


// ************************************************************************* //
