/*--------------------------------*- C++ -*----------------------------------*\
  =========                 |
  \\      /  F ield         | OpenFOAM: The Open Source CFD Toolbox
   \\    /   O peration     | Website:  https://openfoam.org
    \\  /    A nd           | Version:  7
     \\/     M anipulation  |
\*---------------------------------------------------------------------------*/
FoamFile
{
    version     2.0;
    format      ascii;
    class       volScalarField;
    location    "3";
    object      p;
}
// * * * * * * * * * * * * * * * * * * * * * * * * * * * * * * * * * * * * * //

dimensions      [1 -1 -2 0 0 0 0];

internalField   nonuniform List<scalar> 
2222
(
1.449721409
1.450150633
1.452347062
1.453314924
1.453364774
1.453290386
1.452263256
1.449267012
1.442906996
1.432008052
1.415034523
1.392771942
1.367080425
1.333965424
1.302856331
1
1
1
1
1
1
1
1
1.000000017
1.000000885
1.000016494
1.000295337
1.002613851
1.015475383
1.067900487
1.170820378
1.295712098
1.403344353
1.430409173
1.437592048
1.444567822
1.450837434
1.452694642
1.452302108
1.453140547
1.453591006
1.453355001
1.452415479
1.449712471
1.443870014
1.4333482
1.417499328
1.394624529
1.368574001
1.338304973
1.301952083
1.272057646
1
1
1
1
1
1
1
1.000000019
1.000000603
1.000019465
1.000249874
1.002655834
1.016365138
1.063504779
1.174329697
1.316586143
1.372432876
1.416975608
1.444992016
1.449851984
1.448492951
1.450068661
1.453313713
1.454017685
1.454029198
1.453734243
1.45267986
1.450111791
1.444786709
1.434793495
1.419342148
1.397777479
1.369324329
1.340694899
1.305725712
1.268756632
1.239263941
1
1
1
1
1
1
1.000000012
1.000000711
1.000014137
1.000284626
1.002450701
1.015896063
1.067215197
1.169170183
1.299487039
1.40859156
1.431794047
1.43792835
1.444544894
1.450788636
1.452429927
1.452210428
1.453400541
1.454107153
1.453933331
1.453105685
1.450798183
1.445774691
1.436476322
1.421013128
1.400358562
1.372532724
1.340311557
1.309388954
1.269662529
1.234579732
1.20519904
1
1
1
1
1
1.000000012
1.000000449
1.000016824
1.000224013
1.002645671
1.015792085
1.063611952
1.174297098
1.315327964
1.372901437
1.420902481
1.447484852
1.450258075
1.448999806
1.450910734
1.453495078
1.453916012
1.453876691
1.453757482
1.453071814
1.451181459
1.446686466
1.438029078
1.423377892
1.402005105
1.376253439
1.342091017
1.308186375
1.274654951
1.232530457
1.201025152
1.169744021
1
1
1
1
1.000000007
1.000000502
1.000011186
1.000262571
1.00226516
1.016399559
1.065500647
1.167556295
1.303131382
1.413477942
1.429476149
1.436699796
1.446011374
1.452788262
1.453171372
1.452854041
1.453505805
1.453859085
1.453649352
1.452978006
1.451399123
1.447509872
1.439334588
1.425719829
1.404435589
1.37775873
1.346590519
1.307492893
1.274357167
1.23756528
1.194862251
1.166256242
1.132472662
1
1
1
1.000000006
1.00000027
1.000013102
1.000188087
1.002564054
1.015207626
1.064951445
1.175251244
1.311671562
1.373587845
1.426792729
1.44818941
1.448685521
1.449301928
1.452827978
1.454300283
1.454082797
1.453759356
1.453383926
1.452863274
1.451599761
1.448266379
1.440772957
1.427516878
1.407650758
1.379218727
1.348725372
1.31193693
1.270886039
1.238502497
1.197293438
1.157639957
1.132122129
1.096011522
1
1
1.000000002
1.000000278
1.000007611
1.00022358
1.002011745
1.016503066
1.064174987
1.169281759
1.308727989
1.416976373
1.425255777
1.435246571
1.447463369
1.453190437
1.453371447
1.453672489
1.454205187
1.4541476
1.453553139
1.452824093
1.451813537
1.449050185
1.442409138
1.429434797
1.410075886
1.38278232
1.348830242
1.315411794
1.272497445
1.232967797
1.201150923
1.157215961
1.122823925
1.097213775
1.056873988
1
1.000000001
1.0000001
1.000008518
1.000141728
1.002370275
1.01414965
1.065741548
1.176579992
1.305712407
1.378355866
1.435860338
1.450855919
1.448637797
1.449907651
1.453073194
1.454343627
1.454196891
1.453793301
1.453376742
1.452995709
1.452310873
1.450008574
1.443977228
1.431871406
1.412101614
1.386356619
1.3511864
1.314429847
1.277632108
1.230952982
1.196099897
1.162239689
1.115693042
1.087094991
1.061058715
1.02062951
1
1.000000059
1.000003262
1.000162716
1.00166034
1.016143431
1.06176158
1.171397931
1.311515624
1.415412938
1.42389247
1.436679121
1.451818745
1.454093086
1.453425892
1.453089893
1.453584
1.453774365
1.453278778
1.452846411
1.452457974
1.450760537
1.445414606
1.434295753
1.414947501
1.388477468
1.355681112
1.314169161
1.277745882
1.236374086
1.189072065
1.15811612
1.120123679
1.076412685
1.053809547
1.025447238
0.9850566274
1
1.000002522
1.000072302
1.00191505
1.012553986
1.066670802
1.176450975
1.299704276
1.384455352
1.441236197
1.450728155
1.449142893
1.451754898
1.454159669
1.453975307
1.453253601
1.45281371
1.452671694
1.452532101
1.452367766
1.451235841
1.446691748
1.436269333
1.418180838
1.390665249
1.358556119
1.318483428
1.274786291
1.238246072
1.190448999
1.147946671
1.120534779
1.078878037
1.040700547
1.019438321
0.9854846518
0.9487524187
1.000000016
1.000066057
1.001035768
1.014197759
1.058838673
1.175572835
1.314821578
1.411606052
1.425825165
1.440007316
1.453547754
1.454312901
1.453974451
1.454246506
1.453782703
1.4529295
1.452644104
1.452408703
1.451989206
1.451226353
1.447606378
1.438015911
1.420832422
1.394177546
1.359880855
1.32276559
1.275459521
1.233468582
1.195770313
1.145386001
1.11051214
1.081055048
1.033633682
1.003666476
0.9844841282
0.948721164
0.9191441147
1.000001808
1.001043839
1.009420811
1.063561936
1.176372067
1.301426307
1.394196609
1.444423441
1.450960979
1.448985463
1.450580128
1.453325537
1.453743958
1.453804744
1.453563106
1.45330763
1.452913376
1.452257465
1.451466371
1.448143357
1.439495743
1.422901484
1.397862913
1.362344453
1.32354107
1.280387219
1.230040833
1.192923749
1.150871609
1.099765965
1.071093434
1.038538248
0.9931365202
0.9711585372
0.9501749667
0.9110428592
0.8876430389
1.000103584
1.009925886
1.052148695
1.173473757
1.326954649
1.412477039
1.427981409
1.440981723
1.453222939
1.453012278
1.45186588
1.452220883
1.453071743
1.453457789
1.453619581
1.453438958
1.452825413
1.452008041
1.448748931
1.440804226
1.425004607
1.400562
1.366545576
1.323703361
1.282892248
1.233864221
1.185138756
1.149508047
1.100838875
1.056829657
1.033775414
0.9977100449
0.9564226249
0.9374456704
0.9120791666
0.8735610199
0.8571709888
1.002824425
1.054995221
1.173857885
1.301482957
1.407621666
1.449362548
1.451579972
1.449347052
1.450189476
1.451868278
1.452287575
1.452489049
1.45305496
1.453726241
1.453879961
1.453150072
1.452131114
1.449041353
1.441664407
1.427091561
1.402700612
1.370237609
1.327116044
1.281379759
1.237764751
1.182391623
1.139300787
1.104786498
1.05463006
1.019081292
0.9943108682
0.9509251725
0.9173368179
0.902505112
0.875950893
0.8435064517
0.8304911218
1.033983846
1.170562796
1.337983408
1.410670832
1.427414621
1.443442303
1.455467249
1.454094584
1.451395962
1.451081017
1.451633541
1.452536248
1.453402974
1.454019053
1.453591807
1.452456758
1.449539845
1.442725132
1.429081923
1.405363595
1.372248309
1.331884831
1.280907255
1.234938902
1.187401669
1.132346879
1.096677947
1.058358054
1.005791461
0.977741553
0.952643141
0.9106234898
0.8863643367
0.8708773026
0.8396843177
0.8114089952
0.7997129988
1.164818398
1.308600587
1.418600773
1.451558511
1.450662025
1.45055338
1.453383637
1.45357382
1.452262569
1.451614351
1.452023572
1.452941663
1.453456801
1.453561809
1.452932182
1.450438374
1.444232013
1.431208811
1.408718695
1.374422968
1.333784824
1.284830499
1.230275932
1.187093775
1.135508967
1.083136635
1.050299234
1.006981485
0.9610207699
0.9401123163
0.9134010515
0.8729275238
0.8531877331
0.8361458454
0.8029588544
0.7815889451
0.7708211835
1.347591428
1.395563482
1.422747986
1.446151093
1.454204253
1.454205497
1.453848406
1.453460508
1.45281731
1.452460123
1.452555674
1.452886086
1.452960139
1.452722225
1.451072438
1.445901097
1.433839972
1.412126026
1.378573132
1.334111432
1.287939436
1.232242605
1.179166003
1.135618142
1.078290875
1.033483149
1.005109235
0.9617334081
0.9234517395
0.9025644265
0.8700964475
0.8329383311
0.8177478651
0.8003003884
0.7696868808
0.7546978809
0.7447229303
1.435649211
1.452758463
1.445784869
1.448322071
1.451623419
1.453863528
1.454232747
1.454230322
1.454025992
1.453334426
1.45290685
1.45259693
1.45236691
1.451211796
1.446898987
1.436148952
1.415018266
1.38279104
1.337508183
1.286838104
1.236050765
1.174197535
1.124754492
1.081417611
1.026168236
0.9897662402
0.9594206313
0.9113776045
0.8798190938
0.8616122889
0.8300326831
0.8016778806
0.7885405005
0.7682450307
0.7385776209
0.7246365368
0.713020924
1.439765993
1.458282813
1.456805939
1.452987875
1.452417664
1.453221702
1.454361719
1.454748126
1.454529839
1.453613848
1.452750456
1.452277351
1.451249609
1.447586307
1.437917787
1.417985113
1.385561898
1.34258087
1.286838278
1.232845397
1.177210889
1.115565092
1.073291787
1.028423482
0.9735066292
0.9420515807
0.9108857845
0.8669829766
0.8431474781
0.8246284949
0.7913358211
0.7671592366
0.755222623
0.7344006042
0.7100250787
0.6993363653
0.6870796328
1.453087278
1.455338792
1.455152637
1.452891285
1.452191058
1.45258824
1.453740549
1.454748059
1.454707775
1.453842709
1.452771869
1.451643959
1.448510678
1.439751174
1.421229368
1.388751079
1.344831509
1.290882848
1.227890829
1.175165652
1.117359976
1.05860854
1.018912253
0.9698421895
0.9209510617
0.8962860058
0.8666603127
0.8281056097
0.808048627
0.787867777
0.7539231267
0.7333264254
0.7207748719
0.6990989307
0.6792943461
0.6706973606
0.6578722849
1.459529782
1.45665787
1.454605245
1.453320757
1.451974869
1.452178436
1.452983392
1.4544635
1.454669464
1.454238471
1.453246213
1.450275397
1.44222735
1.424443913
1.393307622
1.346387304
1.292911266
1.230524685
1.166539352
1.114762707
1.052193975
0.9990018457
0.9649914346
0.9193098666
0.8792669371
0.8546757997
0.8197265568
0.7826316756
0.7660193723
0.7476415149
0.7200544738
0.7058115445
0.6936849588
0.6703562616
0.652963467
0.6446202174
0.6310682117
1.454789289
1.45467307
1.454591496
1.454234695
1.453042859
1.45183701
1.452036414
1.4528958
1.453880209
1.45356689
1.451481989
1.444690759
1.427865899
1.397311383
1.351003432
1.291990141
1.232708853
1.162952766
1.100570397
1.050593982
0.9901308028
0.9464780295
0.9130462706
0.8644373999
0.8300454183
0.809522539
0.7771148322
0.7476716225
0.7320325863
0.7112619165
0.6842131015
0.6717260526
0.6605397236
0.6402151694
0.629131232
0.6231190799
0.6101739873
1.451713892
1.452422143
1.453828419
1.45435723
1.453943825
1.452689256
1.451977147
1.45202937
1.452745426
1.451997724
1.446945808
1.431938208
1.401243852
1.355847331
1.294135262
1.227236853
1.163745361
1.091176351
1.037389725
0.9898832393
0.9303783004
0.89249622
0.8586752059
0.8120185307
0.7838995724
0.7651287832
0.734229796
0.7118921537
0.6998470559
0.6800172816
0.6571406006
0.6461375466
0.6338334647
0.6145052742
0.6044144785
0.5972237911
0.581492301
1.452064139
1.452361913
1.452982835
1.453925985
1.454009037
1.453463153
1.4525044
1.451991482
1.451217158
1.447367301
1.434536499
1.405816798
1.358688095
1.298668238
1.223580874
1.156406459
1.092075252
1.02109728
0.9728408268
0.921767901
0.8651137724
0.8371885728
0.8101398376
0.772208314
0.7486804418
0.7270053263
0.6934421407
0.6722547122
0.6610428003
0.6429942879
0.6257639192
0.6176179209
0.6047783522
0.5866376682
0.5826899249
0.5781859464
0.5681921879
1.453188297
1.453218146
1.453525518
1.453834788
1.453896862
1.453761051
1.45325928
1.451928738
1.447995318
1.436207306
1.409803545
1.362235561
1.299664826
1.227922484
1.147060797
1.082983191
1.01372519
0.9469195084
0.9094311041
0.8629297959
0.8159908178
0.7888460287
0.7567830046
0.7187266105
0.7030958683
0.6875413239
0.6619125307
0.645751602
0.6333234923
0.6113269679
0.5981396744
0.5928293537
0.5827187797
0.5727279365
0.5712840905
0.5664673584
0.559253606
1.45348821
1.453733043
1.453959732
1.453981954
1.453935688
1.453739487
1.452824764
1.44951622
1.438891583
1.413271599
1.367478268
1.299855071
1.227750432
1.145061273
1.063516761
1.005255274
0.9359021631
0.8809128919
0.8481898835
0.802089416
0.7652190146
0.7435201056
0.7100599454
0.676638078
0.6620254928
0.6461216829
0.6221852594
0.6125042648
0.6040109874
0.5878455484
0.5824451417
0.5786588926
0.5682125962
0.5621823721
0.5592785113
0.5518872414
0.5476006641
1.453504759
1.453805752
1.454105542
1.454075869
1.45397295
1.453521887
1.451167516
1.442216021
1.417718066
1.372342211
1.303816285
1.220397907
1.142376929
1.053305332
0.9851148445
0.9335919934
0.8648538493
0.8201507586
0.7855870011
0.7353144182
0.7058353522
0.6922996153
0.6674570607
0.6466197391
0.634840233
0.6163343558
0.5961898343
0.5905284289
0.5811435631
0.5665520862
0.5633276573
0.5593833746
0.5505528895
0.5495186915
0.548779941
0.5463071054
0.5449267121
1.45381028
1.453902595
1.454033108
1.454040901
1.453812162
1.452257708
1.444996071
1.422950794
1.376728129
1.308320822
1.216862106
1.129775901
1.05128631
0.963531768
0.9054806872
0.8486865183
0.7835131918
0.7602376307
0.7355070302
0.6935119367
0.6693906872
0.6519504335
0.621424363
0.6059801151
0.5999927124
0.5832363796
0.5728642222
0.5697436159
0.5597276556
0.5513948704
0.5523582578
0.5509386945
0.5474188866
0.5474612048
0.5476239411
0.5462367742
0.5454741192
1.453902684
1.453978113
1.454020447
1.453893493
1.453032616
1.447477489
1.428018697
1.382366147
1.309727482
1.219825978
1.117039438
1.036135772
0.9503662276
0.8725241721
0.8313286927
0.7770840041
0.722999107
0.7004418442
0.6744998608
0.6409674942
0.6321806329
0.6182229282
0.59227514
0.5835227559
0.5761362889
0.5587749655
0.555533881
0.5553463676
0.5513563558
0.5490136892
0.5497789421
0.548805337
0.5467098878
0.5468161698
0.5468278825
0.5460164032
0.5457209537
1.453929742
1.453944287
1.453934533
1.453599981
1.449596036
1.432517176
1.38901428
1.31178433
1.217210922
1.110699575
1.00650828
0.9310025371
0.8464504616
0.7898161359
0.7627311858
0.7166057763
0.6804518311
0.6574895801
0.6228599305
0.5923825173
0.5886684415
0.5775324512
0.5629600577
0.5641373229
0.5606007323
0.5522839578
0.5517333441
0.5513375442
0.5481331378
0.5464217162
0.5465731971
0.54570763
0.5447096852
0.5449235465
0.5451593478
0.5448319746
0.5456416093
1.454052541
1.454000857
1.453873918
1.451169253
1.436947036
1.395381281
1.317737819
1.207855253
1.101011076
0.9841629029
0.9042763996
0.8410982184
0.7651718429
0.7177528925
0.6829265769
0.6323193366
0.6211408392
0.6142575507
0.5891911565
0.5778497726
0.5718337153
0.5590790004
0.5525284806
0.5528795092
0.5495154017
0.5450473451
0.5455056757
0.5452500324
0.5438558041
0.5436845044
0.5439227466
0.5437283192
0.5436297367
0.5438326308
0.5444297253
0.5485393693
0.5703953129
1.454045229
1.454013705
1.452470654
1.441580649
1.402386481
1.323846018
1.201213864
1.077933226
0.9717610324
0.8604202779
0.7978495036
0.7318904113
0.6844019743
0.6663790842
0.6328986695
0.5941922819
0.5853767323
0.5761689715
0.5574916328
0.5582618663
0.5562031562
0.5479228119
0.5466534559
0.5459557661
0.5433161303
0.5425096274
0.5429502576
0.5434633323
0.5434144096
0.5434858263
0.5437275695
0.5438401874
0.5440583473
0.5460968679
0.5565214724
0.600174035
0.6933145691
1.453946661
1.45333928
1.445969542
1.411154881
1.326852867
1.201117058
1.05403178
0.9472209414
0.8338526715
0.7535641223
0.7053317927
0.6412009742
0.6094071547
0.6030931869
0.5798843938
0.5725908293
0.5703049856
0.5584946655
0.5469232335
0.5448753848
0.5430340553
0.5414300646
0.5420884669
0.5432513907
0.5429135314
0.5426167305
0.5429915392
0.5437110257
0.5441225837
0.5443392379
0.5445749566
0.545270346
0.54965487
0.577752716
0.6431703433
0.7594761696
0.8870030239
1.453705295
1.449872675
1.420935593
1.331423262
1.196554901
1.027489483
0.8892262637
0.7906036321
0.6895329361
0.6727908623
0.6448141634
0.606365537
0.5829886245
0.564941103
0.5463958607
0.5453912168
0.547444363
0.5435761856
0.5422360992
0.5431789908
0.5423483534
0.5412710372
0.5419543595
0.5437104542
0.5444541622
0.5445633093
0.5448490821
0.5450256614
0.5451089607
0.5454152809
0.5473645019
0.5613726637
0.606132845
0.7187209522
0.8348266597
0.919232111
0.9484476122
1.453204471
1.432655405
1.343150985
1.179266193
1.010128592
0.8435764175
0.7549793741
0.6773223744
0.6109831301
0.5837396238
0.5580076229
0.5555696157
0.557687967
0.5524543607
0.5431407671
0.5406638737
0.5402487889
0.5395614131
0.5408450398
0.5441665647
0.5443691294
0.5437439258
0.5442406182
0.5456146125
0.5457250839
0.5456348547
0.5454709955
0.5454150885
0.5457049359
0.5501564525
0.5765891369
0.6643739008
0.7904265758
0.8821515296
0.9625199111
0.9932682002
0.9836435196
1.446605596
1.35992472
1.165912522
0.9627755737
0.7486432468
0.6723592175
0.6448096899
0.5973641586
0.5769580116
0.556687272
0.5389446135
0.531399984
0.5347972591
0.5397184532
0.5403896744
0.5418198886
0.5418248777
0.5412856186
0.5422620593
0.5452910322
0.5463426351
0.5460834797
0.5460441082
0.545939578
0.5455535344
0.5450483978
0.5451615087
0.5463397117
0.5582904818
0.6114327395
0.7233068775
0.8418701361
0.9452350556
0.9570249087
0.9776514469
0.9970045912
0.9976809531
1.38537987
1.151408949
0.9227722073
0.7474013141
0.6217826206
0.5721142438
0.5529839661
0.5378226643
0.5440452726
0.5467130065
0.5413119095
0.5369804602
0.537939496
0.5406779232
0.5428069492
0.5445962991
0.5452744397
0.5444260229
0.5444257618
0.5465726115
0.5475217707
0.5471527558
0.5460366471
0.5443582085
0.5441064765
0.5445663655
0.548674407
0.5757393726
0.6614776284
0.7971961615
0.9271567263
0.9558679689
0.9796021552
0.9862014264
0.988615468
0.9942325818
0.998247842
1.088317227
0.663598093
0.5844280977
0.5697980708
0.5694304518
0.5597927539
0.5417024123
0.5328967878
0.5334987758
0.5366781464
0.5391786933
0.5407694984
0.5419173636
0.5422069427
0.5432475564
0.5454583968
0.5460539477
0.54510538
0.5449033216
0.5457055008
0.5455267816
0.5446211184
0.5434963044
0.5430647879
0.5442035914
0.5574637195
0.6104696652
0.7436623106
0.8957277281
0.9422639918
0.9777135064
0.9850921467
0.9934582776
0.9950716657
0.9925895058
0.9931863631
0.9954983157
0.5824597221
0.5182720685
0.4978419247
0.5412879952
0.562702399
0.5462302147
0.5335984496
0.5306259341
0.5377097994
0.5437838474
0.5489069309
0.5516922105
0.5502601941
0.5470927859
0.5468552881
0.5474854036
0.5469974379
0.5455609293
0.5449578038
0.5447299245
0.5441331961
0.5430423061
0.5422918669
0.5426250549
0.5515574848
0.5953833285
0.7342205768
0.9092276161
0.9851813709
0.9916820388
0.9874123631
0.98832296
0.9952408758
0.996399948
0.9938573329
0.9930487653
0.5586206524
0.5186490864
0.5009590766
0.5435767255
0.5614893818
0.5429394038
0.532631582
0.5324375838
0.539643978
0.5459398059
0.5508799886
0.552576468
0.5501540484
0.5466393821
0.5466940016
0.5473409907
0.5465788032
0.5451591469
0.5448169244
0.544569793
0.5438509305
0.5427594968
0.5422235554
0.5437349022
0.5590045056
0.6256378225
0.7948128878
0.9516000326
0.9937805518
0.9927632973
0.9865828611
0.9887106067
0.9954700839
0.9963369559
0.9936368815
0.9928870535
0.5554099259
0.5164151883
0.5015340174
0.5386896909
0.5585906985
0.5390337912
0.5326585354
0.5340049664
0.5410084903
0.5467077635
0.5517162063
0.5530650375
0.5497402796
0.5463011544
0.5465753367
0.54720954
0.5462788607
0.5450589838
0.5447012321
0.5443898714
0.5436037793
0.5425658253
0.5423946402
0.545031098
0.5659766825
0.6606888398
0.8253480911
0.965735731
0.996891024
0.9934995405
0.9872856113
0.9894308973
0.996351589
0.9959255104
0.9933372112
0.9930556781
0.55181697
0.5135950951
0.5048967189
0.5377173437
0.556897977
0.538055171
0.5325944773
0.5359062287
0.5430826587
0.5480324215
0.5521713366
0.5534579596
0.549593146
0.5460838116
0.54643609
0.5469494692
0.5458412654
0.5448366868
0.5444968848
0.5441479115
0.5433050447
0.542461846
0.5425813161
0.5470207614
0.5801858648
0.6885990402
0.8605799806
0.9708758087
0.9969303283
0.9945091119
0.9868137773
0.9912893506
0.9974080301
0.9963341078
0.9934319102
0.9931982634
0.5472162328
0.5120781882
0.5082657081
0.5382385921
0.5548576345
0.5368427354
0.533686358
0.5373654268
0.5444548336
0.5499224041
0.5532803223
0.5534290657
0.5492437891
0.5460627209
0.5464326126
0.5467663646
0.5455853483
0.5447351901
0.5443239725
0.5439168529
0.5430130692
0.5424244377
0.5429870533
0.5506102766
0.5966284964
0.7113208002
0.8906601227
0.9761714867
0.9995329354
0.9951313852
0.9865470245
0.9927576066
0.9979006126
0.9964762998
0.9933926115
0.9933291374
0.5429262686
0.5096018569
0.5124241088
0.5395852562
0.5524642747
0.536379667
0.534758506
0.5388910482
0.5453178768
0.5506408849
0.5544085898
0.5531747535
0.548762832
0.5459097343
0.5463418289
0.5466372192
0.5455447225
0.54469506
0.5441436563
0.5436660357
0.5427240917
0.5422484056
0.5437812222
0.5560219794
0.6103552681
0.7582357437
0.9112704024
0.9826476183
1.00067632
0.9937726893
0.9861734874
0.9932716476
0.9987689001
0.9969568205
0.99365657
0.9932713475
0.5389021023
0.5085985628
0.5162970058
0.5411316955
0.5514314734
0.5360969531
0.5358444809
0.5409856944
0.5468286107
0.5511454741
0.5546164964
0.5527537585
0.5482108552
0.5455188473
0.5459398504
0.5463469378
0.5455199149
0.5446761832
0.5438665544
0.5434365567
0.5425223655
0.5422838105
0.5449518867
0.5616315442
0.6378350438
0.8127375259
0.9361239802
0.9927755522
1.000745356
0.9926709229
0.9852741977
0.9936336114
0.9995091392
0.9969132054
0.9941008208
0.9936257449
0.5354662008
0.5088197232
0.5181013166
0.5428368826
0.5499856908
0.5360050561
0.5365268546
0.542341384
0.5484605098
0.5520758362
0.5544968323
0.5523353226
0.5476370032
0.5453505868
0.5456874492
0.545867642
0.5453652925
0.5446190733
0.5436192884
0.5430333424
0.5422467151
0.5424807151
0.5464035555
0.5717213475
0.680168457
0.8495406358
0.9623586366
0.997534496
0.9997766412
0.9909360811
0.9846619304
0.9936881219
0.9994463249
0.9964529129
0.9939145153
0.993908984
0.5325285877
0.509074549
0.5200659441
0.5447680893
0.5482891912
0.5368266366
0.5374579719
0.5431489554
0.5488850994
0.5525898131
0.5545656266
0.5518095491
0.5470775827
0.5453769589
0.5457415678
0.5457321969
0.5450903266
0.5444567374
0.543434682
0.5428688415
0.5422326088
0.5428532425
0.5493449097
0.589501992
0.7109938789
0.8758314669
0.981026771
0.998743806
0.9982375729
0.9901227891
0.9839256169
0.9927091602
0.999231381
0.9966293992
0.9939130082
0.9937436124
0.5298466417
0.5092197837
0.5222308103
0.5464386557
0.5459026077
0.5381269678
0.5392639724
0.5444886423
0.5491431846
0.5527298621
0.5545731717
0.5511589432
0.5465517276
0.5453232461
0.5457912605
0.5457589983
0.5448449544
0.5441665164
0.543233003
0.5427121983
0.5422694608
0.5435993733
0.554734991
0.6063675913
0.7383095916
0.9080047796
0.9837298608
0.9982615751
0.9975297074
0.9898717796
0.983903658
0.9931408504
0.9988256438
0.9962685564
0.9939796599
0.5274578386
0.5095487287
0.5243612163
0.5478355945
0.5464601996
0.5392251545
0.5411173578
0.5467841762
0.550132361
0.5529595998
0.554450899
0.5504100599
0.5458425733
0.5449630379
0.5456041438
0.545610745
0.5446706874
0.5438065721
0.5430054392
0.5425747153
0.5424230751
0.5448412172
0.5601229378
0.624636629
0.7853433485
0.9318482353
0.9809484714
0.9985940537
0.9976202087
0.9901194279
0.9844817205
0.9940651343
0.9987110081
0.9954293779
0.9938698706
0.525369323
0.510162403
0.5265405578
0.5497627919
0.546256422
0.5396639628
0.5418818384
0.5480900125
0.552066551
0.5534128414
0.5541551346
0.5494973789
0.5449691251
0.5445667476
0.5451462968
0.5451061621
0.5444121773
0.543494729
0.5427422008
0.542448413
0.5426097908
0.5462241929
0.5676885926
0.6595935412
0.8309430568
0.9441129946
0.9823513702
0.9986506407
0.9979442248
0.9904097328
0.9852957495
0.9955402932
0.9989556947
0.9950956454
0.9934880479
0.5230477386
0.5111248794
0.5288148767
0.5516211566
0.5464336905
0.540413696
0.5421188208
0.5485047217
0.5526978537
0.5540452706
0.5536334173
0.5487801503
0.5446500294
0.5445606428
0.5450497709
0.5448809934
0.5441850559
0.5432554828
0.5424638167
0.5423471911
0.5427959642
0.5486862385
0.5836231304
0.7000748331
0.8590522483
0.9577293088
0.9862693921
0.9984835884
0.9980450386
0.989813317
0.9858803588
0.997375562
0.9996161221
0.9951890527
0.9935325004
0.522022599
0.5125330011
0.5310709659
0.552603639
0.5470157991
0.5421161234
0.5429866739
0.5489691046
0.552849933
0.5543539096
0.5530125149
0.5483611349
0.5445812825
0.5446900048
0.545072326
0.5448434323
0.5440063929
0.543072732
0.5422394193
0.542256273
0.5434505998
0.5534773547
0.6015453885
0.729955356
0.8900934961
0.9753162585
0.9917678091
0.9982182784
0.997830277
0.9890207734
0.9867719826
0.9981135698
0.9999880562
0.9949356937
0.9934980189
0.5210487817
0.51402157
0.53327842
0.5539212492
0.5476256064
0.5439133023
0.5451073254
0.5499510192
0.5524745598
0.5542387957
0.5524437442
0.5477403066
0.5442196505
0.54475053
0.545062589
0.5446438198
0.5436606937
0.5428633543
0.5421605498
0.5422388461
0.5446160117
0.5584928499
0.6162373693
0.7660805563
0.9329449093
0.987436242
0.9928707605
0.9978018739
0.9971493048
0.9888458512
0.9870526871
0.9983858608
1.000282107
0.9955118851
0.9942660092
0.5207191759
0.5158366907
0.5356320601
0.5554265844
0.5481369623
0.5447039493
0.5468895376
0.5513273226
0.5525757793
0.5539942883
0.5519092572
0.5466539397
0.5433981312
0.5443583465
0.5447164727
0.5441334364
0.5431809352
0.5425454127
0.5421637505
0.5423532847
0.5457147619
0.5640449785
0.6432711198
0.820211116
0.9510380657
0.9887895329
0.9931569187
0.9974226968
0.9952411549
0.9887546369
0.9870318207
0.9981087339
1.000321225
0.995650555
0.9945951948
0.5205397811
0.5178596605
0.5382387139
0.5567553286
0.5482984633
0.5446490879
0.5472802816
0.551826271
0.5530402907
0.5534065071
0.5514258368
0.5458926035
0.5430653369
0.5438649651
0.544119691
0.5436424073
0.5429530008
0.5422178872
0.5421831846
0.542410249
0.5475853747
0.5773693964
0.6888003611
0.8600818815
0.9546741242
0.9874054719
0.9928773522
0.9970309165
0.9936753704
0.9885835411
0.9875537961
0.9977031782
1.000091304
0.995538303
0.994712705
0.520714646
0.5199971297
0.5413609911
0.5579699305
0.5486168963
0.5448211343
0.5475111458
0.5517931692
0.5537469389
0.553087544
0.5507836033
0.5454115944
0.5429983281
0.5438734533
0.543987247
0.5433965163
0.5428152151
0.5420832394
0.5421679894
0.5432562529
0.5520157563
0.5980219561
0.7248981934
0.8799037231
0.9630006358
0.9852616489
0.9921478693
0.9965023645
0.9934765869
0.9886691616
0.9876514591
0.9977229208
0.9989383555
0.9945277573
0.5212828221
0.5220148034
0.5443045389
0.5588620215
0.5493682006
0.5459015756
0.5481168174
0.5516518298
0.5537604029
0.552959382
0.5497605866
0.5446649034
0.5431250318
0.5440420799
0.5440080099
0.5432867892
0.5425447208
0.5420268426
0.5419490612
0.5444072369
0.5574193955
0.6130970759
0.7574515181
0.910548036
0.9748720814
0.9859380942
0.9917833131
0.9958469938
0.9933661593
0.9887555852
0.9879941987
0.9979160514
0.9981172847
0.9936644874
0.5214714616
0.5243082711
0.5478324008
0.5592291631
0.5499685288
0.5481236559
0.5497891609
0.5517865413
0.553425275
0.5526744836
0.5483620799
0.5435734083
0.543140006
0.5440988933
0.5439797367
0.543179415
0.542221187
0.5419002398
0.542272487
0.5458395344
0.5631752594
0.6357881013
0.8059265639
0.9497780442
0.9868513603
0.9890743545
0.9919548665
0.9954995068
0.9929961753
0.9885762828
0.9884678133
0.9982239772
0.9979353028
0.9934239868
0.5220843152
0.5269932136
0.5519017745
0.5585464972
0.5502678418
0.548606245
0.5509269196
0.5524923145
0.5531194896
0.552326554
0.5473192435
0.5428621843
0.542750399
0.5438602075
0.543671952
0.5429549365
0.5421738921
0.5416477404
0.5426047138
0.5473182776
0.5741595154
0.6842968303
0.8596987392
0.9658851815
0.9888952135
0.9912322508
0.9926009654
0.9958449588
0.9924790106
0.9883657853
0.988945529
0.9984728846
0.9980862575
0.9938187517
0.5227105422
0.5299050005
0.5544686883
0.5580729195
0.5500958144
0.5484547789
0.5508137717
0.5528532018
0.5531083299
0.5518755511
0.5467194915
0.5422013047
0.5423344107
0.5433363174
0.5431807605
0.5427586838
0.5421713031
0.5417566277
0.5428927409
0.5504294545
0.5939634506
0.7183996115
0.8876812551
0.9713586566
0.9892355525
0.9913658421
0.9936073869
0.9966152724
0.9924777002
0.9886415915
0.9897627525
0.99885714
0.9981804744
0.9942628037
0.5230910909
0.5330670059
0.5574901685
0.5575581862
0.5506048083
0.5480977505
0.5503178437
0.5525708562
0.5530763635
0.5509615844
0.5460878506
0.5417890694
0.5423632428
0.5431388084
0.5429547664
0.5426880963
0.542243727
0.5420564901
0.5437456105
0.5570090854
0.6129129133
0.7429282267
0.8985927864
0.9689801237
0.9873185676
0.9913862854
0.5239077271
)
;

boundaryField
{
    inlet
    {
        type            fixedValue;
        value           nonuniform 0();
    }
    outlet
    {
        type            zeroGradient;
    }
    bottom
    {
        type            slip;
    }
    top
    {
        type            slip;
    }
    obstacle
    {
        type            zeroGradient;
    }
    defaultFaces
    {
        type            empty;
    }
    procBoundary9to3
    {
        type            processor;
        value           nonuniform List<scalar> 
38
(
1.445180039
1.450593728
1.451765145
1.451449835
1.452303738
1.453187195
1.453015598
1.45196942
1.448779271
1.442029166
1.43036097
1.412834721
1.391265179
1.36330628
1.332508629
1
1
1
1
1
1
1
1
1
1.000000027
1.000000748
1.000021574
1.000271568
1.00261018
1.016614265
1.063473734
1.174161454
1.314071815
1.370053055
1.414474824
1.44423272
1.450908866
1.450908866
)
;
    }
    procBoundary9to4
    {
        type            processor;
        value           nonuniform List<scalar> 9(1.271518975 1.237260274 1.200545187 1.164550803 1.127501358 1.092845284 1.059849852 1.025971284 0.9958766171);
    }
    procBoundary9to8
    {
        type            processor;
        value           nonuniform List<scalar> 6(1 1 1 1 1 1);
    }
    procBoundary9to10
    {
        type            processor;
        value           nonuniform List<scalar> 
55
(
0.964528263
0.9334526846
0.9047037677
0.8735962518
0.8432176877
0.8142267906
0.7813127528
0.7502117506
0.7227569753
0.6898972228
0.6648149837
0.6362699954
0.614096152
0.5968797701
0.5730042823
0.5657780559
0.5583875176
0.5480144138
0.5454996029
0.5458728345
0.545818059
0.5527968439
0.6278485304
0.8219010289
0.969958117
0.9855898664
0.9882788413
0.996003196
0.9976294726
0.9969927204
0.9948280687
0.9948280687
0.9948478292
0.9951337084
0.9951938372
0.9950206411
0.9949114408
0.9955150352
0.9959497305
0.9961556133
0.9939747276
0.9939747276