/*--------------------------------*- C++ -*----------------------------------*\
  =========                 |
  \\      /  F ield         | OpenFOAM: The Open Source CFD Toolbox
   \\    /   O peration     | Website:  https://openfoam.org
    \\  /    A nd           | Version:  7
     \\/     M anipulation  |
\*---------------------------------------------------------------------------*/
FoamFile
{
    version     2.0;
    format      ascii;
    class       volVectorField;
    location    "1.4";
    object      U;
}
// * * * * * * * * * * * * * * * * * * * * * * * * * * * * * * * * * * * * * //

dimensions      [0 1 -1 0 0 0 0];

internalField   nonuniform List<vector> 5((3.000572879 0.03546512687 0) (3.002006106 0.01544927167 0) (3.000742485 0.01655907651 0) (2.997378828 0.02781707037 0) (2.991883748 0.00331279224 0));

boundaryField
{
    inlet
    {
        type            fixedValue;
        value           nonuniform 0();
    }
    outlet
    {
        type            inletOutlet;
        inletValue      uniform (3 0 0);
        value           nonuniform List<vector> 3((3.000572879 0.03546512687 0) (3.000742485 0.01655907651 0) (2.991883748 0.00331279224 0));
    }
    bottom
    {
        type            slip;
    }
    top
    {
        type            slip;
    }
    obstacle
    {
        type            slip;
    }
    defaultFaces
    {
        type            empty;
    }
    procBoundary11to4
    {
        type            processor;
        value           nonuniform List<vector> 2((2.996518054 -0.004710477106 0) (3.008331415 0.07817185406 0));
    }
    procBoundary11to5
    {
        type            processor;
        value           nonuniform List<vector> 3((2.992473437 0.0148127967 0) (3.003539009 0.01099555573 0) (3.003539009 0.01099555573 0));
    }
    procBoundary11to17
    {
        type            processor;
        value           nonuniform List<vector> 2((2.984869275 -0.0008441451905 0) (2.976004171 -0.002288076376 0));
    }
}


// ************************************************************************* //
