/*--------------------------------*- C++ -*----------------------------------*\
  =========                 |
  \\      /  F ield         | OpenFOAM: The Open Source CFD Toolbox
   \\    /   O peration     | Website:  https://openfoam.org
    \\  /    A nd           | Version:  7
     \\/     M anipulation  |
\*---------------------------------------------------------------------------*/
FoamFile
{
    version     2.0;
    format      ascii;
    class       volVectorField;
    location    "2.8";
    object      U;
}
// * * * * * * * * * * * * * * * * * * * * * * * * * * * * * * * * * * * * * //

dimensions      [0 1 -1 0 0 0 0];

internalField   nonuniform List<vector> 
22
(
(3.064298806 -0.2735922245 0)
(3.072123476 -0.1613699934 0)
(2.966446174 -0.3229224833 0)
(3.077256184 -0.2907617556 0)
(3.070325879 -0.2105601174 0)
(2.947100335 0.06570302571 0)
(3.015469958 -0.3036207901 0)
(3.059987832 -0.222048645 0)
(3.040768704 -0.1490409402 0)
(2.91798135 0.2056442419 0)
(2.934693059 0.1101211587 0)
(2.981952589 -0.0172123007 0)
(3.010101595 -0.08889611925 0)
(2.948111767 0.1226559527 0)
(2.946949238 0.1243121776 0)
(2.968945943 0.06516963956 0)
(2.989414282 -0.006592496194 0)
(2.979020094 0.05127905229 0)
(2.950019399 0.132245226 0)
(2.952384889 0.1238449296 0)
(2.965925056 0.08442668854 0)
(2.996303012 0.008876037256 0)
)
;

boundaryField
{
    inlet
    {
        type            fixedValue;
        value           nonuniform 0();
    }
    outlet
    {
        type            inletOutlet;
        inletValue      nonuniform 0();
        value           nonuniform 0();
    }
    bottom
    {
        type            slip;
    }
    top
    {
        type            slip;
    }
    obstacle
    {
        type            slip;
    }
    defaultFaces
    {
        type            empty;
    }
    procBoundary27to20
    {
        type            processor;
        value           nonuniform List<vector> 2((2.887004477 0.1372622975 0) (2.914078037 0.2224952122 0));
    }
    procBoundary27to21
    {
        type            processor;
        value           nonuniform List<vector> 4((3.048261358 -0.2528353326 0) (3.064000547 -0.1312592312 0) (2.975196107 -0.3190669922 0) (2.975196107 -0.3190669922 0));
    }
    procBoundary27to26
    {
        type            processor;
        value           nonuniform List<vector> 3((2.983709658 0.04710132769 0) (2.997978284 0.004628292105 0) (2.999967508 5.328993097e-05 0));
    }
    procBoundary27to28
    {
        type            processor;
        value           nonuniform List<vector> 6((3.042837294 -0.02372199961 0) (3.049213001 -0.04901314349 0) (3.049213001 -0.04901314349 0) (3.02437113 -0.0732705423 0) (3.009568133 -0.09924195533 0) (3.00627454 -0.1303418373 0));
    }
    procBoundary27to33
    {
        type            processor;
        value           nonuniform List<vector> 5((2.974528664 0.0643757015 0) (2.961227074 0.09552596184 0) (2.961876583 0.09652933547 0) (2.974528664 0.0643757015 0) (2.999767582 0.0005322778963 0));
    }
    procBoundary27to34
    {
        type            processor;
        value           uniform (2.989783988 0.004129172674 0);
    }
}


// ************************************************************************* //
