/*--------------------------------*- C++ -*----------------------------------*\
  =========                 |
  \\      /  F ield         | OpenFOAM: The Open Source CFD Toolbox
   \\    /   O peration     | Website:  https://openfoam.org
    \\  /    A nd           | Version:  7
     \\/     M anipulation  |
\*---------------------------------------------------------------------------*/
FoamFile
{
    version     2.0;
    format      ascii;
    class       volScalarField;
    location    "1.9";
    object      rho;
}
// * * * * * * * * * * * * * * * * * * * * * * * * * * * * * * * * * * * * * //

dimensions      [1 -3 0 0 0 0 0];

internalField   nonuniform List<scalar> 
2222
(
3.757624166
3.762321711
3.767514265
3.789759714
3.792903547
3.79568982
3.796600297
3.796042746
3.795541694
3.795824851
3.839249087
3.842637588
3.845500877
3.846269839
3.846131961
3.846561235
3.847739872
3.84894666
3.849470242
3.849052624
3.890010343
3.890655675
3.89091755
3.890718182
3.889490815
3.887028155
3.884233254
3.882819462
3.881955927
3.881112625
3.880209846
3.879038139
3.877664068
3.876475592
3.92262498
3.922063653
3.919792277
3.915204499
3.90799806
3.899373279
3.894268245
3.893231095
3.893039326
3.894020068
3.894840706
3.894479147
3.89375292
3.892417481
3.889818327
3.886358593
3.884003412
0.5071096244
0.50756466
0.5067073818
0.5062425551
0.5067344863
0.5069183445
0.5066215411
0.5071701707
0.5090187
0.5105716914
0.5113815246
0.5123580895
0.5130684586
0.5131690051
0.5134789843
0.514153875
0.5142852824
0.5140907098
0.513739213
0.5137016163
0.5138445063
0.513913518
0.5137112153
0.5130275065
0.5125189648
0.5123401206
0.5122251196
0.5119778949
0.5115719396
0.5113202816
0.5112397031
0.5111468381
0.5108307105
0.5103905847
0.5102439279
0.5102537976
0.5102782661
0.5102356047
0.5100113957
0.5098874311
0.5099137262
0.5100702883
0.5102258444
0.5102801178
0.5103550004
0.5105374795
0.5108184486
0.5110706512
0.5112630607
0.5114514443
0.5116692492
0.51187666
0.5120221233
0.5121290743
0.4688629758
0.4704796247
0.4710004738
0.4726580773
0.4769226646
0.4835830804
0.4901550175
0.4951057613
0.4986453859
0.5009560965
0.5028264248
0.504618033
0.5061599712
0.5071021372
0.5079329242
0.5096625165
0.5113013341
0.5113416052
0.511449314
0.5118320857
0.5124190847
0.5132655835
0.514087992
0.5146325877
0.5149426187
0.5153301893
0.5154996782
0.5153784766
0.5151024498
0.5151926832
0.5157846853
0.5164379573
0.5164666675
0.5164368653
0.5165074349
0.5168382726
0.5173717601
0.5176142063
0.5174818372
0.5173793404
0.5174716229
0.5175697207
0.5175155912
0.5172237033
0.5168231715
0.5167404161
0.5167259321
0.5166429911
0.5164691773
0.5162927868
0.516161376
0.5160513939
0.5159164828
0.5157014597
0.5156433497
0.5156626583
0.5157152224
0.515727929
0.5156830383
0.5155977864
0.515585087
0.5156149755
0.4789650361
0.4830658133
0.4842823464
0.4863371105
0.489795863
0.4939538691
0.4988514171
0.5023679846
0.5025108222
0.5022758712
0.5024548154
0.5029045506
0.5037365355
0.5051827285
0.5074383653
0.5101589909
0.5124125954
0.5129399299
0.5132003884
0.5136767277
0.5143626351
0.5152981355
0.5169347159
0.5185208321
0.5190692431
0.5193965733
0.5199240007
0.5206521289
0.5214638975
0.5225456
0.5236836129
0.5250516321
0.5262000273
0.5262711734
0.526080724
0.5261185252
0.5264232297
0.5269172922
0.5273838064
0.5275416675
0.5274581791
0.5272785664
0.5270996334
0.5267769392
0.5263250644
0.5259736452
0.5256955708
0.5253856204
0.5249871678
0.5245750582
0.5242110692
0.5238334759
0.5234197786
0.5230195492
0.5226749659
0.522568262
0.5225320769
0.5224749642
0.5223895282
0.5222996257
0.5222253486
0.5222402298
0.5223532904
0.5226312722
0.5228538445
0.5228998438
0.522380429
0.5182663472
0.514199887
0.5076431854
0.5012595467
0.4953185003
0.492014857
0.4922091548
0.4917601012
0.489095774
0.4863387948
0.4860793948
0.4865137639
0.4879091771
0.4898603837
0.4920849987
0.4942348275
0.4962365857
0.4975575157
0.4988316145
0.5007761778
0.503351966
0.5068911543
0.5109141777
0.5147920532
0.5173317683
0.5187413909
0.5196825376
0.5208004845
0.5220925528
0.5232646948
0.5241393933
0.5253422459
0.5268043255
0.5270151958
0.5267822696
0.5267072361
0.5268794475
0.5274545615
0.5282141826
0.5285340187
0.5284976889
0.5282879183
0.5282313822
0.5281863761
0.5280321492
0.528097304
0.528431672
0.5290697398
0.5295256215
0.5297266896
0.5298791986
0.5300983863
0.5303296666
0.5305561057
0.5308351148
0.5312465451
0.5315842082
0.5316204146
0.531588458
0.5314474187
0.5312686004
0.5312098767
0.5311988303
0.5311748613
0.5311190756
0.5310165699
0.5304896992
0.5508679492
0.5421459505
0.531454218
0.5198006707
0.5109445106
0.503444869
0.4994677272
0.4981049573
0.4953394255
0.4909450772
0.4897110097
0.4902772623
0.4918994701
0.4929456733
0.4938234748
0.4951559642
0.4968343955
0.4983406727
0.5001674572
0.5025917969
0.5036437432
0.5034582439
0.5038958266
0.5055539597
0.507070169
0.5070469493
0.5069339969
0.5074444701
0.509185341
0.5111533157
0.5123844299
0.5133916754
0.5147836541
0.5162516825
0.5170508696
0.5178294226
0.518832158
0.5204127429
0.5225284672
0.5243246269
0.5252266992
0.525756752
0.5263022717
0.5268643371
0.527477583
0.5280116479
0.5286430249
0.5294900313
0.5300807572
0.5302217664
0.5303473139
0.530574539
0.5308642966
0.5310548391
0.5312786949
0.5316832207
0.5320572509
0.5321086633
0.5320770067
0.5319738533
0.531920228
0.5319363905
0.5319963363
0.532106017
0.5321914371
0.5321664684
0.5320621588
0.648330665
0.633586518
0.6203876853
0.6067995211
0.5963489204
0.585140607
0.570622779
0.5613764791
0.5547474369
0.5454586158
0.5358698588
0.5316243659
0.5284320254
0.5230814107
0.5168998493
0.5134743706
0.5103845052
0.507141768
0.5043726768
0.5024313237
0.5001187826
0.4972658624
0.4955734047
0.4956255653
0.4952480301
0.4939809334
0.4938855563
0.4943281898
0.495475964
0.4966673081
0.4975332343
0.498169786
0.4989962808
0.5002618043
0.5019250893
0.5036930315
0.5052935541
0.5074876348
0.5102599726
0.513104246
0.5152525035
0.5167435597
0.5180626306
0.5196812177
0.521425995
0.5229206581
0.5240768577
0.5255210896
0.5269569275
0.5273266189
0.5275493437
0.5277287618
0.5281506343
0.5286133584
0.5289377007
0.5293691701
0.5299198903
0.5302064955
0.5302228115
0.5300715917
0.52987423
0.5299198638
0.5302419975
0.5306285973
0.5306437656
0.5304517318
0.5304402311
0.7413320266
0.7234037012
0.7048655641
0.6842044931
0.6689135829
0.6557335496
0.6391826052
0.6204959114
0.6083647879
0.5983391604
0.5850881815
0.5717271965
0.5631707304
0.5554449194
0.5448431707
0.5343032092
0.5265162276
0.5203342392
0.514191039
0.5105396305
0.5081187897
0.5050631302
0.5009012486
0.5004891509
0.5000814724
0.4985301421
0.4976793107
0.4980537593
0.4993174831
0.4995249177
0.4997267661
0.5003811782
0.5011228429
0.5019376973
0.5031689077
0.5047534323
0.5053976789
0.5050794206
0.5047607074
0.504937548
0.5054531362
0.5057399252
0.5059256414
0.5064137784
0.5076286909
0.5093454635
0.5104651458
0.5113951957
0.5126442731
0.514258454
0.5154541378
0.5164152509
0.5174408166
0.5187916584
0.5202891087
0.5215807967
0.5225842311
0.5233156337
0.5239978353
0.5246560891
0.5251514044
0.5255751758
0.5262634934
0.5274030561
0.5278806778
0.5279451178
0.5281898702
0.8409916714
0.8232278593
0.8052120565
0.7786138064
0.7577388464
0.7429633497
0.7281330023
0.70767537
0.690903049
0.6782423054
0.6663124392
0.6512746977
0.6383309988
0.627644818
0.6173062056
0.6055218384
0.5955917704
0.5869289014
0.5768343073
0.5695780916
0.5646678554
0.5582880477
0.5478573571
0.5414059611
0.5376047849
0.5332733231
0.5276929202
0.5245978455
0.5216221338
0.517762116
0.5144323257
0.5124864865
0.5097920852
0.5067707849
0.5048170617
0.5042416917
0.5033873179
0.5013397061
0.4997395662
0.499521886
0.4992920665
0.4989162872
0.4989360717
0.4992415298
0.4997933923
0.5002386181
0.5005743313
0.5009051646
0.5014177618
0.5022201037
0.5032848611
0.5045550817
0.5058025794
0.507281894
0.5090647662
0.5109089507
0.5125434912
0.5139579086
0.5153288621
0.5168551648
0.5185293837
0.5199443511
0.5211418693
0.5223175642
0.5235927412
0.5244497745
0.5254518865
0.9488010746
0.9248431114
0.9044236772
0.8779570133
0.8527119038
0.8330556643
0.8153411963
0.7944145016
0.7754453045
0.7592401231
0.7428914729
0.7259773567
0.7114880823
0.6985503547
0.6838492077
0.6686627803
0.6566847658
0.6470556763
0.63521357
0.621380491
0.6118728184
0.6039880507
0.5939839649
0.5821249164
0.5733457482
0.5663148093
0.5584933895
0.5514788037
0.5455179955
0.5393618686
0.5315652666
0.5258136046
0.5216107278
0.51796002
0.5132599074
0.511210517
0.5099756209
0.5079831718
0.5050745309
0.5045673521
0.5042477829
0.5032732738
0.5031325531
0.5038902784
0.5043042035
0.5039245522
0.5038531272
0.5042890174
0.5050005426
0.505334913
0.505823686
0.5068805034
0.5071769484
0.5069058386
0.5066196822
0.5066635223
0.5068516721
0.5069708299
0.5071074783
0.5074468517
0.5081563296
0.5092443414
0.5101214835
0.5107339317
0.5115097325
0.5125409218
0.5144074484
1.058525808
1.031094302
1.008329478
0.9783857124
0.9496193473
0.9283791918
0.9093956359
0.8833756864
0.8612376194
0.8450885487
0.8286903968
0.8054521797
0.7885137799
0.7759349608
0.7621330779
0.7427063577
0.7282942116
0.7173139105
0.7063431164
0.6917930934
0.679136829
0.66874662
0.6588306997
0.6475126786
0.6377806499
0.6292732898
0.6194059293
0.6098972195
0.6032441858
0.5972368934
0.5881473214
0.5789407811
0.5731472128
0.5686313224
0.5622290449
0.5562736775
0.5514762389
0.5463181475
0.5403565287
0.5363907114
0.5330415949
0.5286748984
0.5250890858
0.5232248804
0.5211136679
0.5178452648
0.5151206501
0.5135021558
0.5114063907
0.5092572237
0.5083279292
0.5078234524
0.5066357298
0.5047805717
0.5038007128
0.503780124
0.5035366491
0.5030093779
0.5029967137
0.5031833521
0.5032505214
0.5033151907
0.5034428702
0.5036550967
0.5040138113
0.5044724667
0.5053452171
1.166167676
1.135867603
1.112678591
1.083421701
1.048739196
1.024535306
1.004765858
0.9787966432
0.9507924763
0.9312666728
0.9142502857
0.8918602713
0.8699692728
0.853819005
0.8388294312
0.8199596855
0.8030137241
0.789448218
0.775801762
0.7596241423
0.7458386443
0.7345166276
0.7227639664
0.7083141775
0.6968714735
0.6874782127
0.6774565349
0.6649509621
0.6548644672
0.6464975363
0.6375055526
0.6273465631
0.618612294
0.6111070724
0.602955136
0.5947371019
0.5877301581
0.5812009511
0.573046387
0.5655537789
0.560069825
0.5550754843
0.5486121199
0.5430880197
0.5388042861
0.5344706494
0.5292311051
0.5253456427
0.5222943706
0.5190818785
0.5157611791
0.5143973202
0.5130681947
0.5107587789
0.5085953355
0.5085189857
0.5081679876
0.5070160306
0.5068661547
0.5072792827
0.5071693873
0.5066696309
0.5066519894
0.5070557654
0.5075063078
0.5076733937
0.5079692865
1.26715315
1.235581394
1.21149707
1.184943676
1.150549643
1.122176896
1.100561844
1.07381919
1.044030636
1.021275605
1.002574688
0.9779527614
0.9536427297
0.9357062844
0.9198160341
0.8977465849
0.8780568261
0.8638818001
0.850255234
0.8309422112
0.8143151548
0.802230569
0.7906916373
0.7751309785
0.7612059099
0.7501442679
0.7396118386
0.7267575705
0.7154852163
0.7058739536
0.6957770012
0.6845090202
0.6756771749
0.6680049603
0.6587715809
0.6484194199
0.6408851735
0.6345190181
0.6268758694
0.6179224386
0.6111387582
0.6055664096
0.5991560069
0.5921509979
0.5863514127
0.5811481136
0.5747372412
0.5691652812
0.5648606232
0.5604341988
0.5545166822
0.5502000073
0.5467915427
0.5425514036
0.5377928972
0.5346404148
0.5318506692
0.5281585094
0.5253566733
0.5235179676
0.5214031588
0.5186561322
0.5168235715
0.5153364693
0.5135837831
0.5122277672
0.5108918895
1.343664131
1.319607391
1.298019757
1.276575899
1.245903682
1.216245051
1.19430016
1.169566909
1.136577625
1.11132497
1.092098573
1.067924755
1.039050463
1.018550723
1.001898505
0.9799956181
0.95660348
0.9395690549
0.924869201
0.9054555308
0.8867307985
0.8723162137
0.859234621
0.8423606905
0.8272310598
0.815048531
0.8034122128
0.7882184098
0.7754876139
0.7653253731
0.7552378357
0.7419217213
0.7309424631
0.722123844
0.7130448464
0.7017184936
0.6920100048
0.6839487691
0.6755296088
0.6661668839
0.6579375426
0.6507264382
0.6427353947
0.6343991841
0.6272340334
0.6209088432
0.6135363946
0.6060461114
0.5999610513
0.5945321788
0.5878662668
0.5812633753
0.5759466187
0.5710846416
0.564937617
0.5593819133
0.5549836308
0.5507169352
0.5454286521
0.5412134519
0.5377923582
0.5339923342
0.5300005961
0.5269316832
0.5242052921
0.5216789841
0.5178802623
1.384939765
1.373904954
1.360043772
1.345758664
1.32561682
1.300050852
1.278692617
1.257723768
1.228023485
1.200203124
1.179715503
1.156573246
1.126796279
1.103378101
1.085357901
1.062702365
1.036889775
1.01797998
1.002355804
0.981425766
0.959747644
0.94433926
0.9308242628
0.9122505412
0.8941368922
0.8810232498
0.8691442731
0.8530560884
0.8378950638
0.8263210406
0.815691295
0.8019587869
0.789475569
0.7792890462
0.7693977578
0.7570929383
0.7467028367
0.7380686461
0.7290209312
0.7178546125
0.709214897
0.7019082708
0.6937177091
0.6836890211
0.6760435743
0.6695985022
0.6623103743
0.6538727447
0.6472089545
0.6414376948
0.634695629
0.6274396495
0.6215636787
0.6164252626
0.6102314086
0.6039129236
0.5987750172
0.5942253664
0.5885719013
0.5831342968
0.5786571131
0.5742897622
0.569069638
0.5645996028
0.560812099
0.5571227298
0.5506960819
1.397953939
1.395435018
1.390841226
1.384601466
1.375542004
1.361116578
1.345149587
1.329695562
1.307844293
1.281943703
1.261677166
1.241445605
1.212506693
1.186867738
1.168192874
1.146660561
1.118436033
1.097038135
1.080593131
1.05983518
1.035564313
1.017810625
1.003288544
0.9842365871
0.9641461232
0.9491181669
0.9361898169
0.9190530184
0.9023674577
0.8895905946
0.8781261009
0.8628302505
0.8487729169
0.8378713714
0.82764185
0.8139646035
0.8018431257
0.792391568
0.7832649989
0.7713485769
0.7609079977
0.7524693524
0.7440318786
0.7335437539
0.7244951598
0.7169831658
0.7091767464
0.6999497214
0.6921268579
0.6854463911
0.6781417016
0.6698787816
0.6629005258
0.6568677868
0.6500698743
0.6428544462
0.6366790828
0.6312001184
0.6247722181
0.6183076841
0.6127498008
0.6077172412
0.6017512663
0.5960288931
0.5909392071
0.5866307864
0.5791997362
1.399894131
1.399659801
1.399044041
1.39778075
1.395503795
1.391117973
1.3841101
1.375803419
1.364321529
1.347141731
1.329983706
1.314047866
1.29132824
1.265950987
1.246755553
1.227343245
1.199858161
1.176163534
1.15878523
1.138469054
1.112382348
1.092716724
1.077416181
1.057814328
1.035107953
1.018772321
1.005312655
0.9873081667
0.9680438048
0.9541377903
0.9422165567
0.9261242548
0.9099081426
0.8977694519
0.8870300099
0.8727035101
0.8590752776
0.8484511858
0.8387029764
0.8258977995
0.814377863
0.8050962306
0.7961694744
0.7845574125
0.7746421268
0.7665671288
0.7584763842
0.7481019766
0.7394810953
0.7323461579
0.7248750246
0.7155654306
0.7080526297
0.7017588492
0.6947994986
0.6864869934
0.6800307609
0.6744754316
0.6679196549
0.6605889607
0.6547949212
0.6496885326
0.6436769911
0.6376076908
0.6321259562
0.6275972096
0.6195187751
1.40000311
1.399995978
1.399968167
1.399879321
1.399642315
1.399044859
1.397688854
1.395336718
1.391601616
1.384960925
1.375566022
1.36557138
1.352039824
1.332881722
1.315434526
1.29945795
1.276347357
1.251951905
1.234088823
1.21562394
1.189315109
1.167400355
1.151355946
1.132400398
1.107841586
1.089496133
1.075235896
1.05709242
1.035838029
1.020331222
1.007606564
0.9908702795
0.9728020096
0.9594883675
0.9480923502
0.9328883706
0.9175156938
0.9060204334
0.8958057699
0.8820771566
0.8689078169
0.8588411064
0.8496025805
0.8372427062
0.82590944
0.8170166164
0.8086134528
0.7975407014
0.7877325848
0.7798026026
0.7720724684
0.762077257
0.7534746662
0.7464175033
0.7393146456
0.7303806506
0.7227666991
0.7164371594
0.7097062979
0.7017772462
0.6950278092
0.6892564707
0.6827470841
0.675923454
0.6698797914
0.6646696724
0.6562501261
1.40000503
1.400004969
1.400004603
1.400002762
1.399994967
1.399965962
1.399871022
1.399617572
1.399051663
1.397803113
1.395307869
1.391575956
1.386190607
1.377180361
1.365747663
1.354564144
1.339456611
1.31916885
1.30192818
1.286201837
1.263233744
1.240089169
1.223356609
1.205743085
1.180841548
1.160528149
1.145575536
1.127673952
1.104647037
1.087574472
1.074262713
1.057152855
1.037045249
1.022478754
1.010568849
0.9947890782
0.9775558408
0.9649267016
0.9541992514
0.9398321169
0.9250814267
0.9140130182
0.9042952728
0.8912491886
0.8785810575
0.8688580739
0.860036716
0.8482122186
0.8372313454
0.8286049061
0.8205332824
0.8098316868
0.800249573
0.7925784382
0.785151042
0.7754686908
0.7670762124
0.7602668494
0.7533026046
0.7444650268
0.737150693
0.7310975243
0.7244446628
0.716693613
0.7101464258
0.7048227096
0.6961342454
1.40000504
1.40000504
1.400005039
1.400005028
1.400004957
1.400004546
1.400002509
1.399994063
1.399964681
1.399873091
1.399615496
1.399030328
1.397910574
1.395687622
1.391714347
1.386502422
1.379462686
1.368218158
1.355308254
1.343415886
1.327179187
1.306403468
1.289774455
1.27449201
1.25187314
1.229996762
1.214421352
1.197772649
1.174050206
1.155079251
1.141133693
1.124396633
1.102592988
1.086518981
1.074015975
1.058050581
1.038978319
1.025158919
1.013889546
0.9990506886
0.9825780585
0.9705338056
0.9603521226
0.9467304521
0.9325264674
0.9219485185
0.9127256691
0.9002764113
0.8879489712
0.8785773201
0.8701858965
0.8588318994
0.8480654025
0.8397392979
0.8320866527
0.8217461793
0.8122676092
0.804795627
0.7977346687
0.7883422247
0.7800478906
0.7732716712
0.766526882
0.7582971563
0.7508824543
0.744929199
0.7358332592
1.40000504
1.40000504
1.40000504
1.40000504
1.40000504
1.400005038
1.400005026
1.400004948
1.400004515
1.400002439
1.399993798
1.399963703
1.399876119
1.399642316
1.399065837
1.397932535
1.396030527
1.392550278
1.3869154
1.380314516
1.371771013
1.358633447
1.344796309
1.332584458
1.315657471
1.29493429
1.279014573
1.264263372
1.242279904
1.221658275
1.207040512
1.191244972
1.168768305
1.150990036
1.13790507
1.122134777
1.101519997
1.086353179
1.074579768
1.059536202
1.041359063
1.028228907
1.017590644
1.003599816
0.9877677753
0.9762586314
0.9666090837
0.9537249859
0.9399308057
0.9297376929
0.9209637917
0.90916932
0.897128606
0.8880351507
0.8800302602
0.8692258039
0.8586852175
0.8505176999
0.8431570274
0.8331790466
0.824040341
0.8167473226
0.8096751834
0.8007637987
0.7926617531
0.7863516742
0.7767282437
1.40000504
1.40000504
1.40000504
1.40000504
1.40000504
1.40000504
1.40000504
1.40000504
1.400005038
1.400005025
1.400004944
1.400004502
1.400002474
1.399994322
1.399965355
1.399879056
1.399665228
1.399165548
1.398064857
1.396166001
1.393307822
1.388388167
1.381100535
1.373346168
1.363539669
1.348926235
1.334666961
1.322425618
1.305144288
1.284764579
1.26966199
1.255534827
1.234234676
1.21473775
1.201048916
1.186170905
1.164750339
1.147957711
1.135661237
1.120889833
1.101253707
1.086832328
1.075720244
1.061625418
1.044243447
1.031671638
1.021579081
1.008403997
0.9931503257
0.982067614
0.9728930116
0.9607174337
0.9473239008
0.9374770372
0.9291266188
0.9179016849
0.9060988846
0.8972906945
0.8896578551
0.8792733864
0.8689591633
0.8610869374
0.8538174636
0.8444665938
0.8353406643
0.8285697536
0.8184700741
1.40000504
1.40000504
1.40000504
1.40000504
1.40000504
1.40000504
1.40000504
1.40000504
1.40000504
1.40000504
1.40000504
1.400005038
1.400005025
1.400004946
1.400004522
1.400002579
1.399995059
1.399969337
1.399889965
1.399684367
1.399243315
1.3983219
1.396479127
1.393651068
1.389755444
1.383344988
1.374571753
1.365955002
1.355169694
1.339526495
1.325185018
1.31311602
1.295793745
1.275966631
1.261621995
1.248144161
1.227646065
1.209162313
1.196254902
1.182234103
1.16184056
1.145906036
1.13430423
1.120459867
1.101700674
1.087928262
1.077412964
1.064213241
1.047466663
1.035390407
1.025821961
1.013484246
0.9986835099
0.9879548605
0.9792220894
0.9677702404
0.9547246605
0.9451220043
0.9371131854
0.9264689163
0.9150574953
0.9064958227
0.898868643
0.8891566453
0.8791477455
0.8717956409
0.8612327307
1.40000504
1.40000504
1.40000504
1.40000504
1.40000504
1.40000504
1.40000504
1.40000504
1.40000504
1.40000504
1.40000504
1.40000504
1.40000504
1.40000504
1.400005038
1.400005026
1.400004954
1.400004574
1.400002821
1.399995946
1.399973209
1.399906033
1.399722913
1.399304225
1.398514019
1.397009432
1.39423832
1.39040779
1.385491789
1.377659999
1.367668597
1.358480655
1.347003008
1.330709261
1.316534642
1.304776576
1.287633829
1.268407975
1.254800212
1.242021045
1.222338225
1.204703477
1.192509992
1.179372449
1.159919877
1.1446587
1.133661893
1.120746382
1.102805144
1.089534414
1.0795334
1.067221465
1.051112379
1.039406195
1.030264995
1.018716908
1.004373784
0.9939637698
0.9855802027
0.9747804145
0.9621096483
0.9528500743
0.9449830781
0.9348745222
0.9239406813
0.915927983
0.9050954326
1.40000504
1.40000504
1.40000504
1.40000504
1.40000504
1.40000504
1.40000504
1.40000504
1.40000504
1.40000504
1.40000504
1.40000504
1.40000504
1.40000504
1.40000504
1.40000504
1.40000504
1.400005038
1.400005028
1.400004965
1.400004638
1.400003164
1.399997277
1.39997718
1.399919553
1.399770319
1.399405153
1.398657778
1.39739833
1.39517554
1.391357683
1.386544915
1.380708059
1.371618647
1.360697839
1.351187093
1.339292604
1.322667035
1.308777683
1.297420398
1.280658029
1.262049685
1.249085309
1.237009943
1.218185712
1.201265644
1.189678994
1.177398509
1.158852557
1.14414438
1.133674869
1.121657301
1.104476147
1.091605816
1.08204021
1.070581623
1.055075793
1.043688383
1.034897094
1.024047165
1.010295292
1.000133269
0.9919829311
0.9815370127
0.9698236409
0.9610366442
0.9498923621
1.40000504
1.40000504
1.40000504
1.40000504
1.40000504
1.40000504
1.40000504
1.40000504
1.40000504
1.40000504
1.40000504
1.40000504
1.40000504
1.40000504
1.40000504
1.40000504
1.40000504
1.40000504
1.40000504
1.40000504
1.400005039
1.40000503
1.400004978
1.400004707
1.400003499
1.39999878
1.39998227
1.399932515
1.399807093
1.399518253
1.398874282
1.397679027
1.395855788
1.392830539
1.387928832
1.382227763
1.37562359
1.365493712
1.353914734
1.344277744
1.332212052
1.315483723
1.301941191
1.291035836
1.274801227
1.256766712
1.244368188
1.232997536
1.215071938
1.1987364
1.18765254
1.176196354
1.158565979
1.144298961
1.134237775
1.123050623
1.106668648
1.094149441
1.084927918
1.074118961
1.05941857
1.048297457
1.03978852
1.029124746
1.016594373
1.007080016
0.9954923421
1.40000504
1.40000504
1.40000504
1.40000504
1.40000504
1.40000504
1.40000504
1.40000504
1.40000504
1.40000504
1.40000504
1.40000504
1.40000504
1.40000504
1.40000504
1.40000504
1.40000504
1.40000504
1.40000504
1.40000504
1.40000504
1.40000504
1.40000504
1.400005039
1.400005032
1.400004992
1.400004781
1.400003819
1.400000087
1.399987335
1.399947764
1.399841014
1.399601328
1.399103948
1.398079665
1.396334121
1.393895323
1.390045379
1.38409756
1.377644612
1.370452678
1.359518527
1.347505544
1.337882221
1.325851115
1.309201725
1.296014981
1.285569539
1.269973299
1.252506256
1.240575232
1.22984937
1.212847513
1.197057762
1.186370031
1.175616181
1.158938046
1.145104106
1.135384321
1.124726998
1.109362453
1.097219993
1.088220039
1.077524578
1.064162802
1.053985229
1.041783483
1.40000504
1.40000504
1.40000504
1.40000504
1.40000504
1.40000504
1.40000504
1.40000504
1.40000504
1.40000504
1.40000504
1.40000504
1.40000504
1.40000504
1.40000504
1.40000504
1.40000504
1.40000504
1.40000504
1.40000504
1.40000504
1.40000504
1.40000504
1.40000504
1.40000504
1.40000504
1.400005039
1.400005034
1.400005005
1.40000485
1.400004134
1.400001258
1.399991418
1.399961702
1.399878941
1.399676375
1.399266377
1.398490463
1.396995501
1.394629647
1.391571724
1.386931321
1.380030555
1.372981894
1.36537833
1.353864446
1.341608342
1.33209524
1.320233247
1.303811623
1.290989861
1.280966671
1.26603994
1.249189343
1.237667309
1.227445385
1.211368304
1.196190526
1.185846599
1.175477688
1.159824885
1.146666327
1.137094671
1.126497974
1.112363229
1.101566712
1.088737561
1.40000504
1.40000504
1.40000504
1.40000504
1.40000504
1.40000504
1.40000504
1.40000504
1.40000504
1.40000504
1.40000504
1.40000504
1.40000504
1.40000504
1.40000504
1.40000504
1.40000504
1.40000504
1.40000504
1.40000504
1.40000504
1.40000504
1.40000504
1.40000504
1.40000504
1.40000504
1.40000504
1.40000504
1.40000504
1.40000504
1.400005036
1.400005016
1.400004907
1.400004405
1.400002344
1.399994951
1.399972381
1.39991151
1.399757583
1.399411359
1.39877287
1.397659321
1.39562613
1.392611648
1.388975144
1.383617008
1.37589147
1.368412716
1.360541556
1.348635892
1.336325314
1.32697483
1.315321913
1.299271736
1.28688039
1.277176747
1.262830721
1.246769549
1.235651663
1.225692509
1.210343298
1.196240657
1.186081493
1.175645682
1.161042781
1.149514596
1.136289756
1.40000504
1.40000504
1.40000504
1.40000504
1.40000504
1.40000504
1.40000504
1.40000504
1.40000504
1.40000504
1.40000504
1.40000504
1.40000504
1.40000504
1.40000504
1.40000504
1.40000504
1.40000504
1.40000504
1.40000504
1.40000504
1.40000504
1.40000504
1.40000504
1.40000504
1.40000504
1.40000504
1.40000504
1.40000504
1.40000504
1.40000504
1.40000504
1.40000504
1.400005038
1.400005024
1.400004951
1.400004609
1.400003211
1.399998075
1.399981454
1.399935578
1.399824186
1.399565179
1.399023476
1.398106118
1.396614483
1.394003476
1.390355893
1.38621924
1.380214858
1.371831753
1.364091908
1.35604029
1.343869775
1.331730412
1.3225882
1.311014578
1.29554715
1.283668746
1.274193966
1.260076879
1.245251738
1.23456955
1.224363273
1.209909316
1.197490223
1.184076532
1.40000504
1.40000504
1.40000504
1.40000504
1.40000504
1.40000504
1.40000504
1.40000504
1.40000504
1.40000504
1.40000504
1.40000504
1.40000504
1.40000504
1.40000504
1.40000504
1.40000504
1.40000504
1.40000504
1.40000504
1.40000504
1.40000504
1.40000504
1.40000504
1.40000504
1.40000504
1.40000504
1.40000504
1.40000504
1.40000504
1.40000504
1.40000504
1.40000504
1.400005039
1.40000503
1.400004984
1.400004763
1.400003834
1.400000435
1.399989187
1.399955861
1.399872138
1.399686889
1.399286915
1.398499334
1.397271607
1.395380847
1.392175033
1.387968729
1.38341333
1.376824184
1.367964105
1.360174836
1.351884202
1.339626635
1.327861356
1.318922164
1.307229123
1.292578123
1.281420457
1.271628924
1.258199177
1.245096871
1.231371521
1.40000504
1.40000504
1.40000504
1.40000504
1.40000504
1.40000504
1.40000504
1.40000504
1.40000504
1.40000504
1.40000504
1.40000504
1.40000504
1.40000504
1.40000504
1.40000504
1.40000504
1.40000504
1.40000504
1.40000504
1.40000504
1.40000504
1.40000504
1.40000504
1.40000504
1.40000504
1.40000504
1.400005039
1.400005034
1.400005007
1.400004874
1.400004287
1.400002076
1.399994742
1.399972726
1.399912358
1.39977273
1.399490936
1.398910856
1.39784359
1.396293294
1.39399413
1.390201079
1.385571239
1.380652037
1.37349405
1.364488665
1.356665846
1.348096167
1.335946816
1.324841539
1.315614906
1.304069624
1.291442139
1.277338891
1.40000504
1.40000504
1.40000504
1.40000504
1.40000504
1.40000504
1.40000504
1.40000504
1.40000504
1.40000504
1.40000504
1.40000504
1.40000504
1.40000504
1.40000504
1.40000504
1.40000504
1.40000504
1.40000504
1.40000504
1.40000504
1.400005037
1.400005022
1.400004946
1.400004604
1.400003242
1.399998504
1.399984437
1.39994505
1.399844777
1.399631934
1.399228462
1.398438114
1.397070257
1.395224889
1.392457733
1.388213419
1.383286421
1.377914638
1.370373563
1.361565862
1.353541821
1.34434112
1.333912851
1.320599562
1.40000504
1.40000504
1.40000504
1.40000504
1.40000504
1.40000504
1.40000504
1.40000504
1.40000504
1.40000504
1.40000504
1.40000504
1.40000504
1.40000504
1.40000504
1.400005039
1.400005031
1.400004989
1.4000048
1.400004027
1.400001157
1.399992178
1.399967236
1.399902828
1.399748123
1.399448584
1.398898021
1.397868102
1.396252252
1.394054982
1.390855616
1.386327971
1.381190599
1.375097855
1.367991972
1.357737015
1.40000504
1.40000504
1.40000504
1.40000504
1.40000504
1.40000504
1.40000504
1.40000504
1.400005039
1.400005036
1.400005014
1.400004914
1.400004494
1.40000291
1.3999975
1.399981801
1.399941581
1.39984143
1.399625018
1.399221118
1.398498968
1.39725276
1.3953973
1.392802979
1.389417444
1.383697153
1.40000504
1.400005038
1.400005028
1.400004978
1.40000476
1.400003923
1.400000955
1.399991649
1.399966605
1.399904572
1.39976302
1.39947562
1.398945175
1.39810301
1.39618686
1.399997877
1.399983266
1.399944456
1.399864672
1.399540536
)
;

boundaryField
{
    inlet
    {
        type            calculated;
        value           nonuniform 0();
    }
    outlet
    {
        type            calculated;
        value           nonuniform 0();
    }
    bottom
    {
        type            calculated;
        value           nonuniform 0();
    }
    top
    {
        type            calculated;
        value           nonuniform 0();
    }
    obstacle
    {
        type            calculated;
        value           nonuniform List<scalar> 
71
(
0.5071096244
0.50756466
0.5067073818
0.5062425551
0.5067344863
0.5069183445
0.5066215411
0.5071701707
0.5090187
0.5105716914
0.5113815246
0.5123580895
0.5130684586
0.5131690051
0.5134789843
0.514153875
0.5142852824
0.5140907098
0.513739213
0.5137016163
0.5138445063
0.513913518
0.5137112153
0.5130275065
0.5125189648
0.5123401206
0.5122251196
0.5119778949
0.5115719396
0.5113202816
0.5112397031
0.5111468381
0.5108307105
0.5103905847
0.5102439279
0.5102537976
0.5102782661
0.5102356047
0.5100113957
0.5098874311
0.5099137262
0.5100702883
0.5102258444
0.5102801178
0.5103550004
0.5105374795
0.5108184486
0.5110706512
0.5112630607
0.5114514443
0.5116692492
0.51187666
0.5120221233
0.5121290743
3.92262498
3.922063653
3.919792277
3.915204499
3.90799806
3.899373279
3.894268245
3.893231095
3.893039326
3.894020068
3.894840706
3.894479147
3.89375292
3.892417481
3.889818327
3.886358593
3.884003412
)
;
    }
    defaultFaces
    {
        type            empty;
    }
    procBoundary20to13
    {
        type            processor;
        value           nonuniform List<scalar> 9(3.752787952 3.786591582 3.834125107 3.888653438 3.921837559 0.502242392 0.4608960346 0.4692252281 0.5208133183);
    }
    procBoundary20to14
    {
        type            processor;
        value           nonuniform List<scalar> 
37
(
3.733020781
3.740460749
3.749011323
3.771639746
3.771639746
3.772970477
3.774102922
3.774453271
3.795961725
3.795961725
3.796192082
3.796919075
3.848389813
3.848389813
3.847489896
3.845996884
3.844028955