/*--------------------------------*- C++ -*----------------------------------*\
  =========                 |
  \\      /  F ield         | OpenFOAM: The Open Source CFD Toolbox
   \\    /   O peration     | Website:  https://openfoam.org
    \\  /    A nd           | Version:  7
     \\/     M anipulation  |
\*---------------------------------------------------------------------------*/
FoamFile
{
    version     2.0;
    format      ascii;
    class       volScalarField;
    location    "3.6";
    object      T;
}
// * * * * * * * * * * * * * * * * * * * * * * * * * * * * * * * * * * * * * //

dimensions      [0 0 0 1 0 0 0];

internalField   nonuniform List<scalar> 
2222
(
1.569324258
1.563723962
1.554983846
1.543913706
1.533485989
1.52597139
1.521178786
1.519955871
1.522092729
1.522436841
1.522075963
1.517643028
1.513465815
1.593248608
1.581502441
1.574778369
1.574027724
1.57761824
1.585509763
1.591753249
1.597119122
1.602691211
1.607705597
1.611380086
1.616565624
1.617969732
1.61648338
1.614224932
1.610798342
1.605571411
1.600534289
1.596726707
1.592969382
1.588290863
1.581606985
1.574632765
1.571720383
1.574746743
1.573613738
1.569788516
1.563459075
1.553855249
1.541882961
1.531345946
1.524809316
1.521852077
1.521384549
1.523453334
1.523295103
1.522168458
1.517974596
1.51333266
1.588254346
1.582216095
1.581689139
1.580780508
1.585842194
1.591680513
1.596153408
1.600206663
1.603847862
1.607374803
1.614015152
1.616839753
1.616329729
1.614894417
1.612187885
1.607412521
1.602533492
1.598581604
1.594522774
1.59004618
1.584412937
1.577548867
1.573486992
1.57614719
1.574672328
1.57082133
1.564286446
1.554692077
1.542555795
1.531581809
1.524989553
1.522338563
1.522923113
1.525053107
1.524357197
1.522591679
1.518509173
1.513625167
1.509439413
1.590393655
1.586755789
1.585784799
1.586470454
1.588491742
1.592360128
1.597098014
1.600356432
1.60272061
1.605592184
1.611163602
1.614298834
1.614634671
1.614246122
1.612299753
1.607996567
1.603591646
1.599866359
1.59569761
1.591090451
1.58572525
1.580349753
1.576520965
1.578397615
1.576171164
1.57173754
1.564240986
1.553931182
1.541559838
1.53128868
1.525081469
1.522880749
1.524763716
1.526959577
1.525857245
1.523300375
1.518932593
1.513907114
1.510406463
1.592383428
1.585910777
1.586335316
1.59034308
1.590821831
1.594209307
1.599332853
1.60149467
1.602782699
1.605538939
1.610634426
1.613731557
1.613900311
1.613427004
1.611533786
1.607506323
1.603614067
1.600293551
1.59614509
1.591631724
1.586852467
1.581593312
1.579418138
1.581072366
1.577757608
1.572578063
1.564581737
1.553723973
1.541516612
1.531600376
1.526092688
1.524028056
1.526425026
1.52826908
1.527078163
1.524263567
1.519543231
1.514364463
1.511643775
1.606522037
1.584689934
1.584763791
1.589922721
1.592743555
1.595531994
1.600980045
1.603831522
1.603931836
1.605943414
1.61065637
1.613562282
1.614099738
1.613812731
1.611833189
1.607548855
1.603365114
1.600062519
1.595858109
1.591412035
1.587195641
1.582072783
1.581453833
1.58294079
1.578950668
1.573303621
1.564719788
1.553376156
1.541419366
1.532450262
1.528148827
1.526283765
1.528560986
1.529449576
1.527848336
1.524683161
1.520151489
1.514967505
1.512964791
1.636731569
1.592711198
1.584022988
1.586181105
1.591656513
1.596108753
1.600405718
1.604946217
1.605636863
1.607476896
1.611399583
1.613765555
1.614750018
1.614754594
1.613108409
1.609009349
1.604658032
1.600891153
1.596211915
1.591364853
1.586858922
1.582099879
1.583074743
1.584329667
1.580076191
1.573972403
1.564895026
1.553139271
1.541408807
1.533638664
1.53052188
1.52928473
1.531096326
1.530752388
1.528345947
1.524725223
1.520581019
1.515676309
1.513850385
1.61495496
1.590290308
1.585232289
1.588058254
1.593593968
1.597919621
1.604224379
1.606252181
1.608160652
1.61274345
1.614920309
1.616578458
1.61653051
1.615035483
1.610919885
1.606782678
1.602962666
1.597891016
1.592467855
1.586909411
1.581739056
1.584009224
1.585443268
1.58123226
1.574696807
1.565219944
1.553066212
1.541741656
1.534969403
1.531642106
1.53049184
1.532236725
1.53165088
1.528853018
1.524745665
1.520745391
1.516381382
1.5144568
1.645552782
1.604006787
1.590569094
1.587949378
1.590906653
1.593906118
1.600466058
1.605952806
1.607878781
1.612241472
1.615497403
1.618060348
1.618214508
1.617061069
1.613487426
1.609385291
1.605220277
1.599962632
1.594168197
1.588183891
1.582720863
1.58596904
1.586437958
1.582178754
1.575335698
1.565470168
1.553214438
1.542284956
1.535713589
1.53213733
1.53097363
1.53244576
1.531859764
1.529195307
1.524890981
1.520846219
1.517008868
1.514898581
1.675606849
1.622884052
1.601794305
1.592241944
1.591316736
1.59344814
1.596542897
1.602614166
1.605974124
1.610760448
1.614873266
1.6182159
1.618275958
1.617322943
1.615219996
1.611957072
1.607778639
1.602336996
1.596183055
1.590144437
1.585126304
1.588698362
1.587708506
1.583007344
1.575707661
1.565612979
1.553404895
1.542457645
1.535798815
1.532382799
1.5313575
1.532752633
1.532020464
1.529362602
1.525122566
1.521032956
1.517543898
1.515322026
1.697548807
1.643613455
1.612024375
1.599594204
1.594396121
1.595168439
1.596534224
1.599515821
1.601877429
1.607318777
1.612998577
1.617686843
1.617840921
1.617245578
1.615917446
1.613176048
1.609312252
1.603932032
1.597818509
1.592031481
1.587948259
1.59151442
1.589380383
1.583987311
1.57610458
1.565695277
1.55338856
1.542396418
1.535763753
1.532430742
1.53193964
1.533277922
1.532363112
1.529482886
1.525234623
1.521312433
1.51802602
1.515781931
1.708995329
1.662883907
1.622992056
1.606528171
1.599798986
1.597068442
1.597278875
1.599124762
1.600544734
1.604445664
1.609863347
1.615544898
1.616107852
1.616120434
1.615707699
1.613467337
1.609911461
1.604718519
1.598749766
1.593295413
1.591046021
1.594491458
1.591493298
1.58536627
1.576801413
1.565732298
1.553147458
1.542337128
1.535627224
1.532552494
1.532791811
1.534422723
1.533334571
1.529821092
1.525196963
1.521411506
1.518407059
1.516384802
1.719894264
1.683498814
1.63611602
1.611885037
1.604295758
1.599167197
1.600060228
1.599997307
1.600448648
1.604001645
1.608269889
1.613745871
1.614612197
1.614842743
1.614498966
1.612766385
1.609569229
1.604440434
1.598667025
1.593803894
1.593601649
1.598067491
1.594425519
1.587417509
1.577890239
1.565953115
1.552985774
1.542559354
1.535872398
1.532981397
1.534022769
1.535811777
1.534701
1.530459821
1.525095409
1.521354257
1.518710105
1.517038994
1.704828312
1.655488005
1.618070805
1.605637893
1.60115895
1.602685839
1.602365541
1.601133924
1.603882852
1.60767745
1.612794211
1.613895906
1.614795221
1.614272473
1.612597566
1.609575432
1.604232819
1.598458688
1.594109286
1.59571294
1.601403699
1.597827623
1.590174413
1.579610487
1.566647294
1.553277452
1.543329167
1.536610819
1.53360003
1.534595492
1.536213494
1.534852521
1.530688449
1.525047619
1.521250965
1.519003681
1.517522979
1.71797157
1.685203424
1.632105739
1.607522892
1.601943274
1.602992181
1.603780472
1.601484785
1.603819565
1.607535851
1.6119664
1.613116653
1.615010434
1.614630594
1.613210927
1.610536485
1.605211685
1.599695035
1.595526529
1.597911576
1.603691073
1.600367726
1.592525107
1.581514264
1.567725221
1.554185901
1.544617026
1.53780589
1.534731751
1.535231022
1.536430016
1.534783045
1.530564245
1.525014758
1.521248056
1.519392776
1.51791185
1.515589682
1.724857846
1.708653135
1.658705254
1.617108558
1.601995156
1.601698884
1.604328509
1.602083574
1.603287626
1.607270764
1.611653525
1.612934209
1.61599134
1.615823438
1.614341521
1.611601595
1.606713679
1.601703472
1.597496637
1.600251811
1.605623997
1.60259247
1.594472711
1.582767993
1.568941127
1.555557186
1.546122384
1.539521288
1.535709512
1.536011485
1.536791923
1.534825597
1.530445353
1.525057375
1.521474431
1.519950169
1.518347141
1.515701375
1.715728091
1.719463092
1.688255501
1.637513287
1.606317344
1.600453464
1.602646311
1.602597915
1.602637922
1.606055156
1.610711544
1.612961044
1.617052131
1.616903392
1.615686036
1.613071369
1.608556562
1.603911926
1.599724498
1.602627778
1.607412363
1.604558869
1.596241686
1.583777779
1.569719219
1.556410766
1.547219475
1.540608577
1.536400688
1.536899488
1.537365048
1.535125966
1.530504061
1.525132138
1.521844813
1.520497996
1.518787847
1.515856079
1.681307527
1.719349166
1.707562665
1.661713161
1.619434645
1.603190043
1.600098597
1.602049008
1.601693954
1.604229352
1.608579747
1.611670758
1.61651752
1.616685051
1.615915089
1.614329983
1.610565294
1.606246381
1.602127785
1.604784267
1.608884883
1.60572089
1.59744333
1.584651952
1.570263917
1.556845529
1.547964031
1.54122827
1.536966515
1.538050992
1.538058971
1.53565272
1.530899148
1.52549342
1.522131756
1.520674572
1.519020279
1.516137002
1.620254994
1.711988218
1.712031466
1.681968958
1.637704058
1.611037993
1.601491242
1.601793386
1.599526273
1.601423369
1.605823087
1.609441171
1.614730004
1.615789994
1.615596561
1.61470971
1.611674141
1.607460505
1.603710206
1.606388229
1.609666546
1.606330214
1.598446225
1.586061973
1.570865722
1.557028685
1.548166075
1.541745096
1.537946853
1.53952872
1.539071844
1.536629701
1.531875321
1.526042121
1.52223862
1.520638635
1.519034673
1.51643892
1.539524073
1.690965375
1.710900269
1.693891861
1.656096632
1.621218198
1.606780593
1.603370279
1.599192765
1.599287144
1.602328416
1.606739355
1.611994627
1.61402979
1.614826534
1.614701575
1.612248114
1.607963756
1.604316623
1.606856095
1.610220992
1.607591726
1.600304546
1.587917341
1.571841898
1.557407194
1.548394524
1.542880291
1.53957763
1.541204243
1.540072118
1.537213557
1.532153825
1.52632091
1.522310881
1.520579606
1.519012165
1.516611356
1.646572571
1.706879911
1.702221054
1.672666349
1.633845623
1.614289643
1.605305722
1.600261117
1.599507358
1.599942764
1.60345663
1.608445133
1.611141682
1.613020423
1.613885137
1.611834298
1.607592446
1.604162095
1.607319859
1.612289833
1.609692528
1.60230853
1.589634324
1.573126717
1.558307036
1.549389728
1.544294205
1.541521799
1.542947747
1.541029873
1.537568069
1.532278337
1.526492599
1.522412705
1.520631167
1.519113267
1.516735957
1.589113192
1.698327047
1.708058564
1.687320795
1.649347175
1.622473234
1.609277108
1.601337494
1.600621901
1.599028996
1.601813583
1.606154264
1.60913204
1.612400455
1.61366775
1.611727967
1.607648422
1.605035273
1.609829038
1.614895418
1.611724923
1.604191212
1.591303166
1.574564241
1.559483695
1.550628558
1.545717949
1.543783654
1.544740507
1.54202419
1.538035462
1.532509526
1.526739405
1.522690251
1.52106808
1.519637902
1.516983067
1.522852364
1.673644538
1.713397689
1.701851715
1.666971464
1.632672211
1.614120272
1.602849396
1.60218203
1.599079587
1.601451509
1.604522306
1.607938218
1.612178077
1.613878323
1.612071938
1.608474857
1.607071762
1.612661067
1.617788542
1.614008268
1.606217248
1.592961613
1.576143405
1.56083506
1.551968208
1.547064284
1.546257292
1.546478491
1.54321622
1.538757957
1.532946326
1.527142972
1.523284417
1.522005049
1.520397534
1.517301212
1.456552941
1.632374548
1.709461338
1.711198108
1.686448545
1.646225923
1.61952488
1.605633559
1.603874761
1.599866873
1.601935983
1.604164601
1.60776015
1.612695303
1.614849617
1.612820291
1.609305095
1.609313053
1.615769251
1.621287518
1.617193283
1.608933169
1.594735697
1.577350618
1.562503605
1.553568767
1.548275775
1.548489646
1.548114802
1.54454494
1.539658152
1.533604496
1.527881246
1.524363417
1.522685492
1.520600044
1.517408114
1.390718582
1.572078557
1.691502223
1.715332294
1.701356245
1.663567198
1.62773396
1.609387456
1.605037744
1.600544594
1.602326078
1.603230307
1.607445581
1.612923832
1.615379931
1.61335824
1.610434296
1.611809554
1.619588693
1.623978851
1.620228282
1.611034831
1.595850848
1.578035003
1.563597693
1.554587771
1.549562881
1.550339095
1.549726332
1.546003034
1.540730047
1.534711789
1.529229837
1.525225102
1.522814021
1.520485041
1.517312171
1.339638135
1.504062712
1.657784035
1.710120189
1.707190519
1.681922544
1.640806336
1.614739124
1.606039369
1.601032645
1.60274648
1.602362138
1.605925738
1.611994013
1.614934552
1.612725549
1.611020616
1.613578319
1.622654273
1.62555545
1.621755593
1.612103494
1.596594368
1.578341361
1.564396023
1.555460315
1.551126576
1.55206606
1.551454899
1.54763745
1.54219053
1.536112053
1.530180693
1.525637666
1.522876365
1.520295303
1.517070095
1.440632345
1.605496238
1.695960847
1.706633021
1.695431744
1.658222361
1.623521032
1.607492565
1.600864912
1.60287443
1.60192757
1.604743876
1.610602285
1.613807064
1.611721353
1.611019359
1.61444053
1.624860669
1.62652728
1.622540688
1.612527768
1.59643886
1.577908008
1.564965876
1.55611984
1.552802574
1.553820758
1.553248752
1.549295582
1.543422313
1.536893452
1.530782985
1.526098684
1.523017509
1.520200704
1.516891334
1.512761503
1.391722505
1.547304745
1.672354362
1.70367157
1.700857217
1.675284669
1.636575059
1.611161463
1.600757132
1.602211437
1.601040841
1.603514692
1.608937571
1.612195334
1.610342557
1.610794811
1.614860741
1.626313441
1.626665494
1.622463423
1.611779811
1.594832023
1.577124309
1.565101479
1.556803459
1.554201282
1.555690778
1.554856665
1.550535671
1.544198872
1.537439678
1.531426465
1.526698523
1.523312676
1.520377825
1.517136855
1.512843821
1.358658061
1.493632364
1.635790144
1.698472054
1.703544065
1.6887348
1.652219881
1.61915468
1.602697684
1.601533733
1.600200807
1.602647661
1.607674967
1.610812985
1.609439365
1.610133442
1.614655596
1.626765586
1.626057423
1.621388089
1.610478802
1.593729835
1.576791902
1.565024336
1.557280835
1.555538477
1.557288696
1.55622024
1.55161439
1.544820561
1.537995463
1.532257364
1.527439544
1.523998277
1.521465307
1.518214933
1.51318715
1.330743054
1.449742529
1.591669886
1.686246185
1.702560785
1.696967205
1.668242744
1.630742028
1.608063109
1.602216093
1.600611382
1.60299315
1.607703183
1.610331921
1.609012065
1.609854738
1.614814379
1.627754428
1.626405232
1.621458887
1.610499355
1.593582961
1.576791035
1.565371625
1.557976387
1.556726943
1.558690678
1.557459318
1.552650504
1.545466011
1.538774936
1.533156847
1.528474454
1.525487561
1.522478692
1.518247835
1.513412467
1.305637158
1.408959976
1.545655227
1.662546552
1.702219521
1.701712731
1.682673029
1.644503538
1.615748732
1.604755458
1.601921861
1.604300693
1.608234713
1.610184625
1.608893107
1.609730113
1.61535544
1.629265385
1.627762547
1.622478816
1.611175227
1.593842213
1.577499675
1.566811509
1.55943961
1.558318681
1.560203448
1.558574095
1.553536112
1.546205086
1.539609766
1.534148564
1.530285986
1.526878858
1.522492965
1.517838596
1.513475201
1.283295652
1.36963531
1.494575793
1.62853119
1.698180878
1.702928165
1.693369953
1.659002662
1.625228185
1.608819568
1.603668649
1.606071043
1.609612713
1.610438251
1.609227966
1.609911941
1.616419194
1.631303307
1.629342131
1.62389269
1.612240872
1.594671483
1.579124709
1.569236865
1.561529249
1.560545892
1.561850188
1.55963377
1.554376023
1.54704569
1.540500701
1.535594186
1.532051741
1.527460039
1.522395571
1.517550606
1.513420083
1.263316462
1.340582467
1.445534448
1.584850909
1.682844604
1.702723696
1.698827596
1.671117928
1.635737743
1.613803259
1.605897562
1.607804365
1.61012702
1.610087238
1.609014661
1.61012477
1.617669506
1.632601483
1.631157328
1.625916248
1.613877282
1.59596135
1.581915205
1.572680779
1.564101942
1.563359293
1.563817472
1.560892745
1.555439411
1.548040308
1.541699307
1.53720502
1.532961322
1.52785975
1.522417967
1.517506583
1.51335387
1.320636453
1.406293774
1.534609475
1.653526383
1.699702812
1.699130642
1.679307956
1.646033056
1.619717175
1.608457905
1.609171083
1.610462971
1.609679093
1.608305667
1.609869305
1.618425022
1.633238091
1.632260141
1.627211134
1.614982673
1.598114919
1.584865204
1.575522394
1.566932305
1.566952074
1.566154889
1.562314453
1.556726967
1.549306298
1.543273413
1.538131364
1.533643791
1.528366387
1.522673136
1.517629958
1.513488696
1.302626824
1.379835159
1.489189164
1.615230247
1.688668101
1.699031959
1.686379939
1.65719208
1.62710876
1.610917092
1.610057638
1.610364918
1.608812437
1.606920651
1.609365078
1.618966542
1.633338815
1.632846576
1.627562374
1.615277193
1.599004689
1.586110837
1.57713327
1.570311884
1.570568749
1.568639469
1.563873424
1.558218801
1.551077961
1.544511084
1.538932593
1.534378556
1.529002383
1.523139468
1.51815594
1.514197731
1.285194344
1.361409666
1.452601455
1.571154311
1.667820304
1.697479639
1.692552809
1.669627702
1.636631425
1.6133275
1.609790165
1.609493566
1.607456503
1.605731871
1.608594381
1.619205906
1.632985274
1.63269843
1.627243065
1.615100713
1.598982646
1.586372709
1.578202939
1.573588202
1.573565981
1.57154032
1.565933232
1.560162297
1.552777552
1.545545296
1.539871833
1.535190012
1.529720322
1.5239267
1.51924497
1.515064893
1.269418048
1.342815542
1.422223643
1.529281578
1.64006172
1.692592519
1.696082648
1.682175419
1.648476375
1.617409542
1.60976074
1.609486739
1.606899616
1.605176373
1.608009
1.619168892
1.632766532
1.632610534
1.626808813
1.614199491
1.597759603
1.586331807
1.57919295
1.576159874
1.575937219
1.573828115
1.568114108
1.561645976
1.553987474
1.546693331
1.540967096
1.536149037
1.530758923
1.525321623
1.519575864
1.515232123
1.25121176
1.324541132
1.392881717
1.490744594
1.606295387
1.682493836
1.697546391
1.69041078
1.661373751
1.625325912
1.612028443
1.610801912
1.60683989
1.604728988
1.607872522
1.619435843
1.632943585
1.632736061
1.62667637
1.613596555
1.597555252
1.586877553
1.580276533
1.578213511
1.577921667
1.575658891
1.569744133
1.562683333
1.555030207
1.548009047
1.542338086
1.537651227
1.532472491
1.525994299
1.519708742
1.515367626
1.229566035
1.307109476
1.365605505
1.452850527
1.567819623
1.664407884
1.695543126
1.693585858
1.672528404
1.636772893
1.617251179
1.612966866
1.607149717
1.604566571
1.608085647
1.620302548
1.63386608
1.633166611
1.626743386
1.613455335
1.598210356
1.587795506
1.581447687
1.579626875
1.579323211
1.576999776
1.570923544
1.563336426
1.555883731
1.549459082
1.54420137
1.539508378
1.533542708
1.52632338
1.519900188
1.515613678
1.290120954
1.348808351
1.419140666
1.525433526
1.634440178
1.688636885
1.692516197
1.679950091
1.64976291
1.625033458
1.615349026
1.607842019
1.604390363
1.608407652
1.621685302
1.634413289
1.633602343
1.626754821
1.613346993
1.598990751
1.588709127
1.582532245
1.581139953
1.580448137
1.577932909
1.571635192
1.563699918
1.556555805
1.550594327
1.545870231
1.540717918
1.534200749
1.526669167
1.520285118
1.515969886
1.27275099
1.335046076
1.39491571
1.483632245
1.595643752
1.67377639
1.688659281
1.682733732
1.661575407
1.634405656
1.618244015
1.608883565
1.603862445
1.608612598
1.622929938
1.634316792
1.633221922
1.626249587
1.613016217
1.599305593
1.589680971
1.583432509
1.582806144
1.581831714
1.578868544
1.572308153
1.56421224
1.557263469
1.551638244
1.547157154
1.541731245
1.534827858
1.527150921
1.520810868
1.516630223
1.514509184
1.254549712
1.322196577
1.380200766
1.451936774
1.554043225
1.650848915
1.685113779
1.683903053
1.670355118
1.643657321
1.621792211
1.609319629
1.603247301
1.610117166
1.624281051
1.633664431
1.63220401
1.624965268
1.612261075
1.599259595
1.590545707
1.584476549
1.584422065
1.583635165
1.580338103
1.573508
1.565188096
1.558224599
1.552759197
1.548441116
1.542710997
1.53554218
1.527793267
1.521573033
1.517841351
1.514983533
1.235091313
1.310915389
1.366761222
1.430272745
1.517463487
1.620667735
1.678701392
1.684745771
1.675853105
1.650876667
1.625366489
1.609453583
1.603428099
1.61097132
1.625078875
1.632227636
1.630437473
1.623193941
1.611277138
1.599018235
1.59133933
1.585771013
1.586320612
1.585700398
1.582135493
1.575105417
1.566533395
1.55942672
1.554002355
1.549724929
1.543767923
1.53637702
1.52863417
1.522941675
1.518634216
1.515197315
1.213549949
1.300470061
1.353227779
1.408404287
1.488615757
1.588457157
1.667029172
1.684681365
1.682058786
1.659221544
1.630700265
1.611162464
1.604734302
1.612129232
1.62543387
1.630545661
1.628530104
1.621592621
1.610375407
1.598839927
1.592229154
1.587673277
1.589319094
1.588216255
1.584023474
1.576844634
1.568150436
1.560881201
1.555368281
1.551044657
1.544900198
1.537363569
1.530104918
1.524061173
1.518994539
1.515299839
1.189996329
1.287029081
1.339582282
1.387100257
1.459595582
1.556248524
1.649319042
1.683916338
1.686853497
1.670655266
1.642122985
1.616850746
1.607194181
1.613484209
1.62534884
1.62962701
1.627125312
1.620510123
1.609657691
1.598736546
1.594038574
1.591092409
1.592551369
1.590328376
1.585761798
1.578746251
1.570215545
1.562793074
1.557102137
1.552498051
1.546152609
1.53882947
1.531555819
1.52453467
1.519123332
1.515605098
1.166432552
1.269340356
1.326886301
1.367961434
1.428345259
1.520737725
1.624262658
1.679466922
1.690101788
1.680509734
1.657000644
1.626695671
1.610811152
1.615324086
1.625147812
1.628983804
1.626341893
1.61985116
1.609052078
1.598946308
1.596852486
1.594324315
1.594430449
1.591790047
1.587349649
1.580615216
1.572447747
1.564797572
1.558799373
1.554298778
1.547964424
1.540679246
1.532125643
1.524868234
1.519444708
1.516272632
1.246800385
1.315585573
1.354790749
1.401259798
1.482485016
1.590021371
1.667153301
1.69017709
1.685499275
1.669419988
1.638427885
1.616049053
1.617701761
1.625049693
1.628711038
1.626154665
1.619837067
1.608772346
1.600792679
1.598553586
1.595932953
1.595906028
1.592678952
1.588472422
1.581909316
1.573983612
1.566269858
1.560238941
1.556015016
1.549807356
1.5414295
1.532417487
1.525396284
1.520224301
1.51774102
1.221655392
1.301927939
1.34595427
1.384839112
1.450092935
1.549398981
1.644982807
1.687453366
1.686475866
1.676713341
1.648532469
1.621968398
1.619839358
1.625392183
1.628363985
1.626175895
1.619942222
1.608513953
1.601489795
1.599074331
1.596998777
1.596108767
1.592762791
1.5890198
1.582552125
1.574825462
1.567258343
1.561607014
1.557261346
1.550660281
1.541837416
1.532783876
1.526276748
1.521313012
1.519493821
1.196093097
1.288396139
1.338583478
1.376902718
1.429007927
1.511623031
1.614473437
1.67878494
1.683846936
1.67832944
1.654236648
1.627400648
1.622617392
1.626588198
1.628213102
1.625681616
1.618856534
1.606961778
1.601022899
1.599114618
1.596051236
1.595602356
1.592501317
1.589005524
1.582377225
1.57473791
1.567617181
1.562885407
1.558339423
1.551303259
1.542161728
1.53355462
1.527362857
1.523144897
1.520629818
1.172760888
1.275320804
1.332425735
1.370981403
1.416816635
1.48340828
1.581731959
1.6637686
1.68256664
1.680464947
1.660376773
1.633279778
1.625961608
1.628513794
1.629156077
1.62517245
1.617147733
1.604584523
1.599545471
1.597388244
1.596154404
1.596869125
1.593212932
1.588795375
1.581821683
1.574579276
1.568344925
1.564462122
1.559405123
1.551905121
1.54279658
1.534640039
1.528888204
1.524910739
1.521571161
1.152521938
1.259152555
1.326748297
1.363354757
1.404582453
1.46541577
1.552942045
1.644296539
1.681381282
1.684629506
1.670770618
1.643740646
1.630789899
1.630892691
1.630057772
1.624346898
1.615351828
1.602409572
1.598034492
1.596888635
1.59771666
1.598469911
1.594815518
1.589544534
1.582315997
1.575500363
1.569940681
1.566188696
1.560561811
1.552723405
1.543762548
1.536076488
1.530591171
1.526061404
1.522431283
1.135883718
1.239341167
1.319291578
1.35675805
1.390555809
1.445431926
1.528906618
1.621674306
1.677559288
1.689893849
1.68005386
1.657942297
1.639386533
1.634540504
1.631160775
1.623549416
1.613989773
1.600557497
1.597268769
1.596838187
1.599003435
1.599567608
1.596338284
1.590955941
1.583556613
1.577068311
1.57178617
1.567958554
1.561910297
1.55385125
1.545120475
1.537823985
1.531713122
1.527096873
1.523247119
1.122661604
1.215773076
1.309296947
1.350761713
1.377292954
1.423070419
1.50129851
1.596449219
1.670384581
1.694474768
1.688565113
1.671033698
1.65095972
1.640420445
1.633234839
1.623467652
1.612580611
1.598602485
1.596469315
1.59699963
1.600479194
1.600794511
1.597933455
1.592391433
1.585061573
1.578728663
1.573646806
1.56981098
1.563502981
1.555450334
1.546949116
1.538934411
1.532712119
1.527926318
1.524361293
1.190625173
1.292812231
1.343115647
1.362907265
1.401999513
1.469267757
1.564963503
1.656796266
1.694496924
1.691815257
1.680076125
1.662567332
1.647364313
1.636284998
1.623700793
1.611526141
1.596574791
1.596142067
1.597563297
1.602616899
1.602811257
1.600378493
1.594408591
1.587001753
1.580764032
1.57584671
1.571964732
1.56548352
1.557146422
1.548076861
1.539853869
1.533823945
1.52901606
1.525927056
1.166926786
1.270281553
1.333380392
1.352032986
1.387700794
1.440458538
1.528044465
1.632453716
1.68887519
1.691657632
1.683073019
1.671036931
1.655103587
1.640096302
1.623564984
1.609968854
1.595631831
1.596122778
1.599043239
1.605462338
1.606020493
1.604241623
1.597782206
1.589993012
1.583564709
1.57853614
1.574176206
1.567331767
1.558352096
1.548917556
1.540834531
1.535011024
1.530332868
1.527911319
1.52431181
1.14669895
1.247755688
1.324625116
1.346648443
1.379399102
1.42103852
1.49445264
1.598847575
1.673848802
1.686874799
1.68312751
1.67766628
1.663634353
1.644770113
1.624411561
1.60892656
1.594056312
1.595278152
1.599531701
1.607960816
1.60806272
1.606330696
1.60031819
1.592332926
1.585553332
1.580260769
1.575707881
1.568739772
1.559275022
1.549826223
1.542059181
1.536386987
1.532262776
1.529334599
1.525151834
1.130658649
1.225583225
1.315560266
1.346020916
1.377561422
1.410833962
1.470070574
1.563413292
1.6506084
1.682940924
1.686821942
1.687534035
1.674191157
1.650682745
1.626339387
1.607679873
1.591872514
1.593142471
1.599101931
1.608630807
1.608528359
1.606644509
1.600946969
1.59321142
1.586559723
1.581419215
1.576809816
1.569753065
1.56036094
1.551136213
1.543425376
1.538146853
1.534088692
1.530392297
1.525742358
1.117667926
1.202621079
1.305171303
1.346805348
1.375284633
1.401744292
1.454776512
1.534505839
1.62404187
1.677321284
1.690497263
1.697368513
1.686266581
1.658466105
1.629244698
1.606242089
1.589426661
1.590877296
1.598343005
1.608600242
1.608602821
1.606809735
1.601293365
1.593480739
1.586654322
1.581599002
1.577279137
1.570721999
1.561742078
1.552640915
1.544950145
1.539888329
1.535358979
1.531369889
1.526123617
1.106857046
1.178870749
1.291466854
1.348140901
1.371959357
1.389440719
1.441487846
1.515706624
1.600036571
1.669299439
1.692891963
1.70664848
1.698017385
1.667619913
1.633321706
1.604663687
1.58679138
1.588422151
1.597754039
1.608265418
1.608365464
1.606653057
1.600864379
1.592320835
1.585693806
1.581605991
1.577932013
1.571898227
1.563074298
1.554077024
1.546580374
1.541353346
1.536551808
1.532110912
1.526585859
1.098775843
1.155677634
1.271046914
1.346503006
1.368972408
1.379312806
1.424557992
1.496378084
1.580499252
1.660597807
1.693227701
1.71358582
1.706611427
1.676154108
1.638755301
1.604132614
1.585289044
1.587085441
1.597612776
1.607467634
1.607433124
1.605446173
1.598904171
1.590946994
1.585786093
1.582920478
1.579380048
1.573157337
1.564269788
1.555362428
1.5480686
1.542771604
1.537701405
1.532934559
1.527297875
1.093914298
1.136669476
1.243409251
1.337347754
1.365638331
1.369641829
1.408337479
1.469672495
1.553233731
1.645648648
1.689026967
1.716005407
1.710770396
1.681876381
1.644505374
1.604870097
1.58515738
1.587064949
1.597815031
1.607224556
1.607208083
1.60424175
1.59808834
1.591149007
1.586975729
1.58469458
1.580999903
1.574405624
1.565393541
1.556607899
1.5495008
1.544267197
1.538827866
1.533934518
1.528124964
1.122697535
1.213589322
1.32067709
1.358367265
1.363241306
1.395723547
1.443013035
1.516669146
1.61661655
1.677054011
)
;

boundaryField
{
    inlet
    {
        type            fixedValue;
        value           nonuniform 0();
    }
    outlet
    {
        type            inletOutlet;
        inletValue      nonuniform 0();
        value           nonuniform 0();
    }
    bottom
    {
        type            slip;
    }
    top
    {
        type            slip;
    }
    obstacle
    {
        type            zeroGradient;
    }
    defaultFaces
    {
        type            empty;
    }
    procBoundary22to15
    {
        type            processor;
        value           uniform 1.607297263;
    }
    procBoundary22to16
    {
        type            processor;
        value           nonuniform List<scalar> 
40
(
1.569922543
1.564690074
1.556710808
1.546582923
1.535444188
1.526684212
1.520998734
1.519527952
1.521090051
1.521783508
1.522131665
1.517805596
1.513548166
1.586232025
1.572705083
1.566026794
1.569974855
1.577455189
1.58721685
1.59520471
1.600761997
1.605493202
1.610396639
1.61339992
1.616518132
1.617344055
1.6158035
1.61264198
1.608585933
1.603374043
1.598021045
1.594341033
1.591209007
1.586017562
1.579335689
1.572463971
1.569688472
1.571821636
1.57252519
1.57252519
)
;
    }
    procBoundary22to17
    {
        type            processor;
        value           uniform 1.509297775;
    }
    procBoundary22to21
    {
        type            processor;
        value           nonuniform List<scalar> 
70
(
1.600836794
1.600836794
1.6108841
1.631049708
1.665138708
1.697294201
1.673028862
1.673028862
1.70253487
1.719991478
1.727865901
1.722897601
1.694408188
1.722125878
1.722125878
1.707060996
1.660030742
1.582969097
1.488240105
1.392922905
1.319879952
1.461300285
1.461300285
1.389878667
1.332557439
1.290775973
1.258446003
1.232186029
1.30593767
1.30593767
1.280003495
1.256969932
1.237898508
1.218660268
1.197943595
1.175102621
1.244229657
1.244229657
1.223714088
1.200665592
1.176296208
1.152870135
1.132915097
1.204481117
1.204481117
1.179884061
1.157668799
1.13926399
1.124375756
1.112919961
1.10439526
1.145551892
1.145551892
1.128620798
1.115558486
1.105579041
1.098284097
1.093583029
1.091469106
1.112907464
1.112907464
1.105870094
1.10008026
1.095025262
1.090284355
1.086623877
1.084907925
1.084540506
1.09201835
1.09201835
)
;
    }
    procBoundary22to23
    {
        type            processor;
        value           nonuniform List<scalar> 
65
(
1.509094584
1.509094584
1.505928623
1.506922907
1.508013444
1.509043459
1.509801084
1.510526733
1.511382767
1.512205644
1.51316808
1.514251353
1.515022001
1.515406723
1.515406723
1.511263945
1.51151727
1.511791517
1.512137232
1.512423578
1.51253886
1.512547647
1.512557283
1.512673161
1.512879514
1.512962308
1.512889133
1.512889133
1.508525987
1.508532923
1.508816809
1.509473814
1.510006089
1.510129369
1.510160071
1.510353697
1.510855278
1.511430904
1.511912818
1.512350536