/*--------------------------------*- C++ -*----------------------------------*\
  =========                 |
  \\      /  F ield         | OpenFOAM: The Open Source CFD Toolbox
   \\    /   O peration     | Website:  https://openfoam.org
    \\  /    A nd           | Version:  7
     \\/     M anipulation  |
\*---------------------------------------------------------------------------*/
FoamFile
{
    version     2.0;
    format      ascii;
    class       volScalarField;
    location    "2";
    object      p;
}
// * * * * * * * * * * * * * * * * * * * * * * * * * * * * * * * * * * * * * //

dimensions      [1 -1 -2 0 0 0 0];

internalField   nonuniform List<scalar> 
2223
(
1.36364324
1.312631289
1.273670173
1
1
1
1
1
1
1
1.000000004
1.000000719
1.000024366
1.001037248
1.016183784
1.133732568
1.489283505
1.871673306
1.955474572
2.007553195
2.051844601
2.051939897
2.049799087
2.047343816
2.041131192
2.02609158
2.000942178
1.96555361
1.91265552
1.856321157
1.800020877
1.728654354
1.665150985
1.612911398
1.549470992
1.490917867
1.44744113
1.402087825
1.349966061
1.310333985
1
1
1
1
1
1
1
1
1.000000028
1.000001003
1.000088073
1.001792957
1.02824921
1.191019457
1.560675321
1.89672637
2.032456522
2.043313635
2.045759707
2.048950765
2.049055494
2.046093892
2.036775332
2.018480111
1.990318498
1.946010552
1.895077391
1.842592032
1.77424605
1.710380065
1.657271734
1.592934044
1.532858152
1.488316816
1.441641853
1.387699031
1.347031193
1
1
1
1
1
1
1
1
1.000000001
1.000000032
1.000005371
1.000127436
1.003991924
1.041052513
1.261592129
1.696558648
1.960562955
1.990037974
2.024760099
2.052855483
2.05324851
2.051048959
2.044575168
2.031229207
2.009662811
1.974256353
1.930007926
1.882163072
1.817857603
1.754701153
1.701578407
1.636995401
1.575514587
1.529896661
1.481707504
1.426185836
1.384406246
1
1
1
1
1
1
1
1
1
1.000000001
1.000000223
1.000006404
1.000384758
1.005617852
1.076991708
1.347559772
1.715073563
1.944561211
2.052173705
2.059537275
2.053804647
2.051422947
2.0489577
2.040752989
2.024273695
1.996542197
1.959634815
1.917499301
1.858712585
1.79738118
1.744936548
1.680996876
1.618450644
1.571738758
1.522150164
1.464602985
1.421461047
1
1
1
1
1
1
1
1
1
1
1.000000006
1.000000236
1.000027811
1.000519698
1.014425803
1.099559493
1.423292909
1.836512217
2.029288552
2.027059238
2.038863355
2.054194494
2.054383539
2.048367241
2.035135114
2.013759268
1.983663328
1.947292815
1.894926877
1.837068415
1.786513869
1.724218639
1.661083541
1.613330123
1.562285447
1.502995131
1.45858827
1
1
1
1
1
1
1
1
1
1
1
1.000000007
1.000001448
1.000035147
1.001738744
1.017486912
1.164625478
1.538065963
1.837468327
1.959202528
2.049030948
2.060089366
2.056407439
2.050931445
2.042404845
2.027125845
2.00260718
1.971063289
1.925389331
1.872320699
1.824860137
1.76574467
1.703074253
1.654524149
1.602331184
1.541100748
1.495293999
1
1
1
1
1
1
1
1
1
1
1
1
1.000000051
1.000001722
1.000138242
1.002011172
1.039959472
1.209798968
1.585423039
1.937924446
2.046216462
2.042733528
2.046777545
2.048784783
2.046611469
2.036924792
2.01782807
1.99124623
1.952159
1.904101607
1.859809952
1.804400376
1.743248705
1.694651965
1.641918501
1.579419463
1.532308844
1
1
1
1
1
1
1
1
1
1
1
1
1.000000001
1.00000006
1.00000723
1.000162298
1.006042553
1.049439665
1.29523053
1.736033517
1.928325934
1.996777962
2.040340612
2.051016152
2.049065911
2.043788712
2.030021602
2.008768886
1.976350834
1.933289833
1.891759087
1.84016802
1.78114068
1.733214597
1.681091495
1.618147208
1.569957834
1
1
1
1
1
1
1
1
1
1
1
1
1
1.000000001
1.000000245
1.000009653
1.000569562
1.007415306
1.091584273
1.375897557
1.75317113
1.99104123
2.048423609
2.046321749
2.04678619
2.044466393
2.03736529
2.022574364
1.997224462
1.960183377
1.922039296
1.874542936
1.817930448
1.770781297
1.719647021
1.657153542
1.608267517
1
1
1
1
1
1
1
1
1
1
1
1
1
1
1.000000005
1.000000429
1.000033427
1.000744252
1.016603166
1.120215799
1.476594808
1.868105362
1.979680989
2.020078701
2.048895446
2.048074391
2.042580423
2.03242611
2.013623893
1.98342057
1.94981739
1.907420034
1.854047292
1.8079019
1.758064016
1.696175679
1.646713893
1
1
1
1
1
1
1
1
1
1
1
1
1
1
1
1.000000015
1.000001243
1.000052449
1.001825426
1.024181189
1.187461581
1.543609279
1.864004363
2.027609898
2.048987214
2.044640831
2.04193175
2.038442216
2.027153973
2.003780338
1.974598724
1.937256556
1.888075234
1.843708695
1.79573212
1.735046168
1.685187248
1
1
1
1
1
1
1
1
1
1
1
1
1
1
1
1
1.00000003
1.000002876
1.000122493
1.003311904
1.040042161
1.236279478
1.652084659
1.970270617
1.997138858
2.023708194
2.044114674
2.045281475
2.037458045
2.019756475
1.995558042
1.963248978
1.918647842
1.876797181
1.831487672
1.772697861
1.722948854
1
1
1
1
1
1
1
1
1
1
1
1
1
1
1
1
1.000000001
1.000000134
1.000005791
1.00030716
1.005182255
1.065635239
1.322688577
1.705210591
1.908424948
2.038136495
2.051067399
2.047336154
2.043295571
2.032300015
2.013239358
1.985547103
1.945730475
1.90667908
1.864423458
1.808551465
1.759818965
1
1
1
1
1
1
1
1
1
1
1
1
1
1
1
1
1
1.000000006
1.00000021
1.000020833
1.000430135
1.012150535
1.090530023
1.389055951
1.818954359
2.01774901
2.022900912
2.034298882
2.04215541
2.039748074
2.02715753
2.005102495
1.971114928
1.934753445
1.895074753
1.842103855
1.794768228
1
1
1
1
1
1
1
1
1
1
1
1
1
1
1
1
1
1
1.000000006
1.00000102
1.000026919
1.001483452
1.015763322
1.145449606
1.516391953
1.827261293
1.945510619
2.025469636
2.044943363
2.042800405
2.034468897
2.019731999
1.993390197
1.960158919
1.922831901
1.872930045
1.827210207
1
1
1
1
1
1
1
1
1
1
1
1
1
1
1
1
1
1
1
1.000000039
1.000001344
1.000124589
1.001800117
1.035104547
1.195339759
1.563896899
1.919094495
2.035013925
2.032236197
2.035235226
2.036439666
2.030140514
2.011541785
1.982788691
1.948891804
1.902774039
1.858546583
1
1
1
1
1
1
1
1
1
1
1
1
1
1
1
1
1
1
1
1.000000001
1.000000054
1.000006968
1.00014416
1.005407801
1.045238614
1.277105004
1.7103285
1.917597357
1.98580227
2.026444657
2.039197407
2.036856433
2.025285098
2.002461982
1.972861292
1.930941123
1.888024795
1
1
1
1
1
1
1
1
1
1
1
1
1
1
1
1
1
1
1
1
1.000000002
1.000000254
1.000008223
1.000527837
1.006718643
1.08393805
1.351867146
1.730451009
1.977900679
2.037353921
2.034522183
2.037705839
2.034214698
2.019017088
1.994094217
1.956887781
1.91581888
1
1
1
1
1
1
1
1
1
1
1
1
1
1
1
1
1
1
1
1
1
1.000000006
1.000000345
1.000032022
1.000667469
1.014906277
1.109003545
1.45033213
1.84715399
1.966091643
2.013828251
2.041629059
2.04018294
2.029522631
2.010525814
1.980191528
1.942634262
1
1
1
1
1
1
1
1
1
1
1
1
1
1
1
1
1
1
1
1
1
1
1.000000011
1.000001238
1.000046243
1.00163011
1.021602385
1.172228574
1.518973605
1.851610507
2.01967191
2.040580642
2.037078863
2.032786958
2.022731255
2.000585791
1.967682237
1
1
1
1
1
1
1
1
1
1
1
1
1
1
1
1
1
1
1
1
1
1
1
1.000000031
1.000002402
1.000111784
1.002954217
1.036122376
1.222939054
1.636737546
1.949227937
1.995335973
2.021889004
2.038518604
2.033404266
2.017325127
1.990759744
1
1
1
1
1
1
1
1
1
1
1
1
1
1
1
1
1
1
1
1
1
1
1
1
1.000000094
1.000005241
1.00026983
1.004676006
1.061751808
1.308789898
1.679186664
1.919018812
2.037289001
2.045971869
2.039723329
2.028384589
2.01046367
1
1
1
1
1
1
1
1
1
1
1
1
1
1
1
1
1
1
1
1
1
1
1
1
1.000000003
1.000000163
1.000017137
1.000379304
1.011270241
1.083957738
1.380339162
1.797406092
2.014205364
2.016604254
2.023569446
2.032997285
2.026479086
1
1
1
1
1
1
1
1
1
1
1
1
1
1
1
1
1
1
1
1
1
1
1
1
1
1.000000004
1.000000727
1.000021331
1.001300505
1.014074219
1.137636778
1.481969713
1.822859965
1.935859281
2.010960759
2.038652638
2.03465734
1
1
1
1
1
1
1
1
1
1
1
1
1
1
1
1
1
1
1
1
1
1
1
1
1
1
1.000000023
1.000000876
1.000098013
1.001465711
1.031185559
1.174883701
1.540195634
1.90562514
2.028312915
2.024571448
2.024828492
1
1
1
1
1
1
1
1
1
1
1
1
1
1
1
1
1
1
1
1
1
1
1
1
1
1
1.000000001
1.000000029
1.000004783
1.000102678
1.004445978
1.037922351
1.253129875
1.687248168
1.904020132
1.973204463
2.016474455
1
1
1
1
1
1
1
1
1
1
1
1
1
1
1
1
1
1
1
1
1
1
1
1
1
1
1
1.000000001
1.000000159
1.000005245
1.000410373
1.005253909
1.073640811
1.328219314
1.698900059
1.970636375
2.028659156
1
1
1
1
1
1
1
1
1
1
1
1
1
1
1
1
1
1
1
1
1
1
1
1
1
1
1
1
1.000000004
1.000000214
1.000025156
1.000492839
1.013072005
1.095675078
1.415330775
1.845610805
1.950568612
1
1
1
1
1
1
1
1
1
1
1
1
1
1
1
1
1
1
1
1
1
1
1
1
1
1
1
1
1
1.000000008
1.000001031
1.000032671
1.001462551
1.017393129
1.155510904
1.512265361
1.805041168
1
1
1
1
1
1
1
1
1
1
1
1
1
1
1
1
1
1
1
1
1
1
1
1
1
1
1
1
1
1
1.000000027
1.000001574
1.000102185
1.002088856
1.033783365
1.195542395
1.580951006
1
1
1
1
1
1
1
1
1
1
1
1
1
1
1
1
1
1
1
1
1
1
1
1
1
1
1
1
1
1
1
1.000000058
1.000004564
1.000172053
1.004461393
1.045678329
1.280532469
1
1
1
1
1
1
1
1
1
1
1
1
1
1
1
1
1
1
1
1
1
1
1
1
1
1
1
1
1
1
1
1.000000002
1.000000135
1.000010581
1.000357429
1.007091538
1.079810471
1
1
1
1
1
1
1
1
1
1
1
1
1
1
1
1
1
1
1
1
1
1
1
1
1
1
1
1
1
1
1
1
1.000000003
1.000000493
1.000018892
1.000784955
1.013180098
1
1
1
1
1
1
1
1
1
1
1
1
1
1
1
1
1
1
1
1
1
1
1
1
1
1
1
1
1
1
1
1
1
1.000000019
1.000000725
1.000065071
1.001409911
1
1
1
1
1
1
1
1
1
1
1
1
1
1
1
1
1
1
1
1
1
1
1
1
1
1
1
1
1
1
1
1
1
1.000000001
1.000000023
1.000004087
1.000099431
1
1
1
1
1
1
1
1
1
1
1
1
1
1
1
1
1
1
1
1
1
1
1
1
1
1
1
1
1
1
1
1
1
1
1.000000001
1.00000018
1.000005047
1
1
1
1
1
1
1
1
1
1
1
1
1
1
1
1
1
1
1
1
1
1
1
1
1
1
1
1
1
1
1
1
1
1
1
1.000000005
1.000000181
1
1
1
1
1
1
1
1
1
1
1
1
1
1
1
1
1
1
1
1
1
1
1
1
1
1
1
1
1
1
1
1
1
1
1
1
1.000000005
1
1
1
1
1
1
1
1
1
1
1
1
1
1
1
1
1
1
1
1
1
1
1
1
1
1
1
1
1
1
1
1
1
1
1
1
1
1
1
1
1
1
1
1
1
1
1
1
1
1
1
1
1
1
1
1
1
1
1
1
1
1
1
1
1
1
1
1
1
1
1
1
1
1
1
1
1
1
1
1
1
1
1
1
1
1
1
1
1
1
1
1
1
1
1
1
1
1
1
1
1
1
1
1
1
1
1
1
1
1
1
1
1
1
1
1
1
1
1
1
1
1
1
1
1
1
1
1
1
1
1
1
1
1
1
1
1
1
1
1
1
1
1
1
1
1
1
1
1
1
1
1
1
1
1
1
1
1
1
1
1
1
1
1
1
1
1
1
1
1
1
1
1
1
1
1
1
1
1
1
1
1
1
1
1
1
1
1
1
1
1
1
1
1
1
1
1
1
1
1
1
1
1
1
1
1
1
1
1
1
1
1
1
1
1
1
1
1
1
1
1
1
1
1
1
1
1
1
1
1
1
1
1
1
1
1
1
1
1
1
1
1
1
1
1
1
1
1
1
1
1
1
1
1
1
1
1
1
1
1
1
1
1
1
1
1
1
1
1
1
1
1
1
1
1
1
1
1
1
1
1
1
1
1
1
1
1
1
1
1
1
1
1
1
1
1
1
1
1
1
1
1
1
1
1
1
1
1
1
1
1
1
1
1
1
1
1
1
1
1
1
1
1
1
1
1
1
1
1
1
1
1
1
1
1
1
1
1
1
1
1
1
1
1
1
1
1
1
1
1
1
1
1
1
1
1
1
1
1
1
1
1
1
1
1
1
1
1
1
1
1
1
1
1
1
1
1
1
1
1
1
1
1
1
1
1
1
1
1
1
1
1
1
1
1
1
1
1
1
1
1
1
1
1
1
1
1
1
1
1
1
1
1
1
1
1
1
1
1
1
1
1
1
1
1
1
1
1
1
1
1
1
1
1
1
1
1
1
1
1
1
1
1
1
1
1
1
1
1
1
1
1
1
1
1
1
1
1
1
1
1
1
1
1
1
1
1
1
1
1
1
1
1
1
1
1
1
1
1
1
1
1
1
1
1
1
1
1
1
1
1
1
1
1
1
1
1
1
1
1
1
1
1
1
1
1
1
1
1
1
1
1
1
1
1
1
1
1
1
1
1
1
1
1
1
1
1
1
1
1
1
1
1
1
1
1
1
1
1
1
1
1
1
1
1
1
1
1
1
1
1
1
1
1
1
1
1
1
1
1
1
1
1
1
1
1
1
1
1
1
1
1
1
1
1
1
1
1
1
1
1
1
1
1
1
1
1
1
1
1
1
1
1
1
1
1
1
1
1
1
1
1
1
1
1
1
1
1
1
1
1
1
1
1
1
1
1
1
1
1
1
1
1
1
1
1
1
1
1
1
1
1
1
1
1
1
1
1
1
1
1
1
1
1
1
1
1
1
1
1
1
1
1
1
1
1
1
1
1
1
1
1
1
1
1
1
1
1
1
1
1
1
1
1
1
1
1
1
1
1
1
1
1
1
1
1
1
1
1
1
1
1
1
1
1
1
1
1
1
1
1
1
1
1
1
1
1
1
1
1
1
1
1
1
1
1
1
1
1
1
1
1
1
1
1
1
1
1
1
1
1
1
1
1
1
1
1
1
1
1
1
1
1
1
1
1
1
1
1
1
1
1
1
1
1
1
1
1
1
1
1
1
1
1
1
1
1
1
1
1
1
1
1
1
1
1
1
1
1
1
1
1
1
1
1
1
1
1
1
1
1
1
1
1
1
1
1
1
1
1
1
1
1
1
1
1
1
1
1
1
1
1
1
1
)
;

boundaryField
{
    inlet
    {
        type            fixedValue;
        value           nonuniform 0();
    }
    outlet
    {
        type            zeroGradient;
    }
    bottom
    {
        type            slip;
    }
    top
    {
        type            slip;
    }
    obstacle
    {
        type            zeroGradient;
    }
    defaultFaces
    {
        type            empty;
    }
    procBoundary33to26
    {
        type            processor;
        value           nonuniform List<scalar> 
25
(
1
1
1
1
1
1
1
1
1
1
1
1
1
1
1
1
1
1
1
1
1
1
1
1
1
)
;
    }
    procBoundary33to27
    {
        type            processor;
        value           nonuniform List<scalar> 
38
(
1.325213897
1.275782858
1.237928193
1
1
1
1
1
1
1.000000004
1.000000171
1.000014295
1.000437737
1.008802415
1.093843063
1.383592055
1.777207863
2.006982307
2.047361916
2.040836129
2.044043021
2.046529179
2.048094653
2.045142426
2.034468116
2.011893124
1.979186675
1.936090568
1.875034337
1.814783554
1.755859566
1.682774453
1.620029053
1.568846218
1.506899522
1.450103493
1.407656793
1.407656793
)
;
    }
    procBoundary33to32
    {
        type            processor;
        value           nonuniform List<scalar> 
35
(
1
1
1
1
1
1
1
1
1
1
1
1
1
1
1
1
1
1
1
1
1
1
1
1
1
1
1
1
1
1
1
1
1
1
1
)
;
    }
    procBoundary33to34
    {
        type            processor;
        value           nonuniform List<scalar> 
61
(
1.240501626
1.276333911
1.312194915
1.348496012
1.384499231
1.42056591
1.456332711
1.492267889
1.528883736
1.566158653
1.603846455
1.64164563
1.679216523
1.716557278
1.752483573
1.786137833
1.81842975
1.848819925
1.878069285
1.9067857
1.934135762
1.960692828
1.985250521
2.006089997
2.017927998
2.02294717
2.025982758
2.024418845
1.994921312
2.000155298
1.951156743
1.705611456
1.348818062
1.112347366
1.022477891
1.003184093
1.000308548
1.000021838
1.000001106
1.00000004
1.000000001
1
1
1
1
1
1
1
1
1
1
1
1
1
1
1
1
1
1
1
1
)
;
    }
}


// ************************************************************************* //
