/*--------------------------------*- C++ -*----------------------------------*\
  =========                 |
  \\      /  F ield         | OpenFOAM: The Open Source CFD Toolbox
   \\    /   O peration     | Website:  https://openfoam.org
    \\  /    A nd           | Version:  7
     \\/     M anipulation  |
\*---------------------------------------------------------------------------*/
FoamFile
{
    version     2.0;
    format      ascii;
    class       volVectorField;
    location    "0.3";
    object      U;
}
// * * * * * * * * * * * * * * * * * * * * * * * * * * * * * * * * * * * * * //

dimensions      [0 1 -1 0 0 0 0];

internalField   nonuniform List<vector> 
22
(
(3.025572894 0.004405493465 0)
(3.017060036 0.002511124458 0)
(3.004634011 -0.0002877214001 0)
(2.99232409 -0.001338924025 0)
(3.036919891 0.006118871415 0)
(3.020971062 0.003616129626 0)
(3.004903788 -1.118786868e-05 0)
(2.990533977 -0.001238080366 0)
(3.017834243 0.004135120306 0)
(3.001039701 0.0008515767311 0)
(2.987678998 -0.000793673274 0)
(3.009677742 0.004632673064 0)
(2.996259086 0.001285416332 0)
(2.98541209 -0.0005392471288 0)
(3.002453778 0.006080555133 0)
(2.993530551 0.001568287933 0)
(2.98440269 -0.000553410875 0)
(2.993713657 0.01249656921 0)
(2.988099533 0.007049148883 0)
(2.981353766 0.001040748043 0)
(2.992531381 -0.003760639175 0)
(2.984185476 -0.0004631403401 0)
)
;

boundaryField
{
    inlet
    {
        type            fixedValue;
        value           nonuniform 0();
    }
    outlet
    {
        type            inletOutlet;
        inletValue      uniform (3 0 0);
        value           nonuniform List<vector> 6((2.981353766 0.001040748043 0) (2.99232409 -0.001338924025 0) (2.990533977 -0.001238080366 0) (2.987678998 -0.000793673274 0) (2.98541209 -0.0005392471288 0) (2.98440269 -0.000553410875 0));
    }
    bottom
    {
        type            slip;
    }
    top
    {
        type            slip;
    }
    obstacle
    {
        type            slip;
    }
    defaultFaces
    {
        type            empty;
    }
    procBoundary29to22
    {
        type            processor;
        value           uniform (3.04245808 0.008477880891 0);
    }
    procBoundary29to23
    {
        type            processor;
        value           nonuniform List<vector> 4((3.003439661 0.004253930816 0) (3.004437565 0.002552019065 0) (2.999435746 0.0002885069759 0) (2.992020933 -0.001037127943 0));
    }
    procBoundary29to28
    {
        type            processor;
        value           nonuniform List<vector> 7((3.060945617 0.01063749683 0) (3.035623574 0.009563080861 0) (3.035623574 0.009563080861 0) (3.026337478 0.01228955099 0) (3.019156452 0.01557535736 0) (3.015498144 0.02384359074 0) (3.026106537 -0.03989839986 0));
    }
    procBoundary29to35
    {
        type            processor;
        value           nonuniform List<vector> 4((2.978193351 -0.002721449455 0) (3.011847909 -0.0418961176 0) (2.978193351 -0.002721449455 0) (2.983917352 -0.011285737 0));
    }
}


// ************************************************************************* //
