/*--------------------------------*- C++ -*----------------------------------*\
  =========                 |
  \\      /  F ield         | OpenFOAM: The Open Source CFD Toolbox
   \\    /   O peration     | Website:  https://openfoam.org
    \\  /    A nd           | Version:  7
     \\/     M anipulation  |
\*---------------------------------------------------------------------------*/
FoamFile
{
    version     2.0;
    format      ascii;
    class       volScalarField;
    location    "1.5";
    object      p;
}
// * * * * * * * * * * * * * * * * * * * * * * * * * * * * * * * * * * * * * //

dimensions      [1 -1 -2 0 0 0 0];

internalField   nonuniform List<scalar> 
555
(
0.6749901525
0.6532753934
0.6377717646
0.6258902204
0.6191853632
0.9692830741
0.9151928115
0.8787600568
0.8418458491
0.7952921324
0.7725700289
0.7530228921
0.7201508238
0.6894759357
0.675138026
0.6579093833
0.6320866234
0.6198864318
0.6122356462
0.6138678683
0.6185528848
0.9011209476
0.8611762434
0.826186892
0.7821770844
0.7419535572
0.7283239933
0.7109836187
0.6774872222
0.6607242881
0.6478671575
0.6225682362
0.6107210893
0.6078437741
0.6094252933
0.6245458124
0.6731900876
0.8388548287
0.8074519644
0.774826122
0.7321096928
0.7078394254
0.6906178404
0.6590319803
0.6297206391
0.6228283161
0.6098137881
0.5968342502
0.5996662928
0.6102802301
0.6492981875
0.7272343933
0.8338835758
0.7801633191
0.7478923237
0.7075985415
0.6793947312
0.6726404919
0.6538230835
0.6196790247
0.6080869162
0.6033802665
0.5944436962
0.594623137
0.6170372195
0.6772546736
0.784139845
0.8952470763
0.9708585359
0.7335930763
0.7004356094
0.6596430192
0.6410148058
0.6277630882
0.599654122
0.5861497401
0.5897030269
0.5928941872
0.6014301827
0.6390895743
0.7382692592
0.8496705235
0.9169812358
0.9480602052
0.9890667828
0.6754957065
0.642299306
0.6265383027
0.6172448283
0.597874016
0.5813995572
0.5811714479
0.5858213965
0.6148690005
0.6863828009
0.7912065772
0.8771985351
0.9657140888
0.9886902887
0.9808365935
0.9867872208
0.6228452137
0.5915449485
0.5870530832
0.5811263943
0.5745054398
0.5755042039
0.5921750738
0.6427918882
0.749828165
0.8707267018
0.9586246834
0.9736448936
0.9903550353
0.9989914264
0.9974145014
0.9944647716
0.5906333873
0.578255646
0.5737589485
0.5693570268
0.5733566205
0.6032884897
0.6938356121
0.8154022345
0.9000381569
0.9395461287
0.9839504361
0.9860440628
0.9893347245
0.9941690014
0.9975611868
0.9965831162
0.5592560973
0.5637876453
0.5677856308
0.5866989788
0.6481594669
0.7534859413
0.8622214287
0.963459679
0.9875240854
0.9808465724
0.9876447191
0.9889267614
0.9878462218
0.9896402014
0.9939558028
0.995355319
0.5552088341
0.5655063496
0.6058200867
0.707789976
0.8370549253
0.9458004034
0.9594492228
0.9817487442
0.9982311241
0.9962641419
0.9960257793
0.9957653567
0.9939238287
0.9928656501
0.9941881377
0.9951896229
0.5764428606
0.662058677
0.7798675558
0.8824477222
0.9350671222
0.9813485562
0.9863427479
0.9885415827
0.9936393416
0.9956619651
0.9973479986
0.9978130553
0.9977465745
0.997534389
0.99739339
0.9968786098
0.7255754489
0.8433318916
0.9504049057
0.9873040141
0.9844188756
0.9899004012
0.9951294773
0.9953287183
0.9961490364
0.9966449326
0.9968785091
0.9972390093
0.9974831488
0.9977667281
0.9977799511
0.9979687849
0.923855043
0.9514668944
0.9797484158
0.9991198063
0.9962940855
0.9953972151
0.9973234892
0.9970241994
0.9967180157
0.9964545774
0.9958653139
0.9956656017
0.9958138811
0.9964465938
0.9972363189
0.9979251983
0.9807658512
0.9855918143
0.9889744012
0.9953593055
0.9961902893
0.9953757312
0.9965891213
0.9975762158
0.998102131
0.9982414741
0.9975193747
0.9962827161
0.9959324472
0.9963094773
0.9970781213
0.9975614779
0.9928754474
0.9931311305
0.9885057219
0.9895093531
0.9917938158
0.9931807341
0.9948359373
0.9960820223
0.9968003817
0.9972661195
0.9973673478
0.9970595818
0.997150547
0.9979335431
0.9990768521
0.9996227138
0.9971468965
0.9916407406
0.9875315033
0.9888016651
0.9905500498
0.9927380812
0.9951261782
0.9970569662
0.9983252726
0.998771501
0.9989198017
0.9983996741
0.9979044271
0.9986671485
0.9993758384
0.9996209749
0.99793065
0.9919789266
0.9866680601
0.9878458483
0.9892450022
0.9911201092
0.9937770709
0.997079162
0.9997576885
1.000482734
1.000574507
0.9998338489
0.9987990626
0.998718697
0.9981643732
0.9971286535
0.9978790187
0.9923594344
0.9869066041
0.987936506
0.9897350894
0.9910807801
0.9927648713
0.9953994814
0.999626059
1.001367309
1.001489088
1.000366385
0.9990505259
0.9991442762
0.9984176028
0.9966335071
0.997487718
0.9925191361
0.9873969895
0.9881683216
0.9901611218
0.9913120064
0.9929711777
0.9946710434
0.9978485548
1.000279519
1.000647173
0.9997304275
0.9991054866
0.9993416045
0.9989815784
0.9977709407
0.9969392448
0.9920916413
0.9880380265
0.9882725168
0.9916364076
0.9929635088
0.9932155143
0.9942950867
0.996341603
0.9982310404
0.9989452993
0.9989264493
0.9989338755
0.9992003746
0.9994578383
0.9990328043
0.9973797494
0.9921117019
0.9890055261
0.9897461696
0.9929984752
0.9949370105
0.9954774605
0.9953611036
0.9960152219
0.9966023848
0.9969955829
0.9974787991
0.9982818259
0.9991011791
0.9999841395
0.999800054
0.9972899635
0.9916415164
0.9884559203
0.9898361062
0.9929009725
0.9948680997
0.9957300532
0.9959525945
0.9959532333
0.9960463744
0.9959850901
0.996289616
0.9975568217
0.9989129516
0.9999487897
1.000718889
0.9970903924
0.9909892992
0.9874120664
0.9895021946
0.9917594173
0.9939566298
0.9954661209
0.9962551001
0.9959381115
0.9957721784
0.9957105439
0.9960440505
0.9973821789
0.9991565847
1.000404928
1.000858831
0.9934725769
0.9964922506
0.9904323098
0.9866139085
0.9888438534
0.9911389494
0.9932612539
0.9951306418
0.9962662188
0.9966188088
0.996265094
0.995795365
0.9960889313
0.9974191963
0.9995340263
1.000467521
1.000712918
0.9936758144
0.9961713909
0.9903312653
0.9862294177
0.9888628894
0.991118924
0.9924120073
0.9939400217
0.9960162121
0.9978692645
0.9982211606
0.9978222444
0.9971486287
0.9978259838
0.999732143
1.000092959
0.9996705129
0.9943512556
0.9965446153
0.9909966419
0.9870110764
0.9896559461
0.9909752071
0.9920548004
0.9933575755
0.9958811588
0.9982720332
0.9993125397
0.9996614737
0.999368244
0.9989879235
0.999847914
0.9998152101
0.9988572096
0.9954057841
0.9974791768
0.9920000477
0.9885193274
0.9906703456
0.9920974062
0.9930522612
0.9940056121
0.9960125972
0.9979987245
0.9992236191
0.9998200241
1.000226495
1.00012879
0.9999423801
0.9996592354
0.9987017114
0.996445131
0.9976345972
0.9918137135
0.9897552177
0.9920112776
0.9940539576
0.9951749344
0.99545429
0.9959788861
0.9972613232
0.9977584061
0.9981364215
0.9996594731
1.00046279
1.000326334
0.9998362064
0.9987720983
0.9963308529
0.9974479163
0.9910629938
0.9898425377
0.9922952812
0.9943690495
0.9956139571
0.9955282777
0.9958139204
0.9959330468
0.9959330625
0.9959558812
0.9971810171
1.000097361
1.000834548
1.000720083
0.9955557905
0.9962243292
0.9898155876
0.9890725654
0.9917806312
0.9941129171
0.9954846281
0.9953480974
0.9956986539
0.9956450679
0.9954202575
0.9951975074
0.9959672423
0.99801816
1.000925564
1.001203969
0.9951631198
0.9953265906
0.9894734972
0.9883502174
0.9910329168
0.9929392807
0.9946979385
0.9954317057
0.9958424839
0.9954550419
0.995121515
0.994809034
0.9953431663
0.9969345167
0.9995891735
1.000978687
0.9799992889
0.9954587854
0.9956640781
0.9895493276
0.9881305257
0.9909123139
0.9927618163
0.9943584813
0.9958791834
0.9966732782
0.9967252819
0.9962502827
0.9952652589
0.9950326944
0.996350151
0.9983931228
0.9997926883
0.9825431698
0.9970178502
0.996740813
0.9909635141
0.9885714192
0.9911764696
0.9925224253
0.9940044395
0.9968937547
0.9990164031
0.9994475775
0.9991912206
0.9983623432
0.9970375938
0.99623247
0.9977215998
0.9986213493
0.9841831882
0.9974371668
0.9965363363
0.9916203858
0.9900051586
0.9925242964
0.9936450907
0.9951512328
0.9980222043
1.000043789
1.000545624
1.000511629
1.000216347
0.9998703765
0.9987101473
)
;

boundaryField
{
    inlet
    {
        type            fixedValue;
        value           nonuniform 0();
    }
    outlet
    {
        type            zeroGradient;
    }
    bottom
    {
        type            slip;
    }
    top
    {
        type            slip;
    }
    obstacle
    {
        type            zeroGradient;
    }
    defaultFaces
    {
        type            empty;
    }
    procBoundary10to4
    {
        type            processor;
        value           nonuniform List<scalar> 
17
(
0.7067851271
0.6853227263
0.6669707137
0.6455549237
0.6315619683
1.040955139
0.9785349777
0.9344240771
0.8995093365
0.8516694705
0.8135586072
0.7906253088
0.7629615234
0.7324399635
0.7134176827
0.6975125742
0.6975125742
)
;
    }
    procBoundary10to5
    {
        type            processor;
        value           uniform 0.6195803195;
    }
    procBoundary10to9
    {
        type            processor;
        value           nonuniform List<scalar> 
27
(
1.031430799
0.9575212357
0.8852391381
0.8225678999
0.7594763815
0.6968812254
0.6555727104
0.6131801316
0.567021204
0.5569503135
0.5552031979
0.6204351471
0.7926581322
0.9366229495
0.9764035639
0.9865521611
0.9890938874
0.9893062624
0.9895221609
0.9902304282
0.991214398
0.9926022443
0.9934341074
0.9934341074
0.9733230657
0.974149013
0.9758159316
)
;
    }
    procBoundary10to11
    {
        type            processor;
        value           nonuniform List<scalar> 
34
(
0.6524203867
0.7806675575
0.895877006
0.9789228699
0.9929555301
0.9906838849
0.9935630928
0.9957194266
0.9959772325
0.9958239012
0.9960003614
0.9970913396
0.9980412086
0.9982156653
0.9997493857
0.9999157051
0.9964915942
0.9954156471
0.9962460992
0.9978412048
0.9991015198
0.999660264
1.0005061
1.000482707
0.9998418883
0.998285897
0.9979178365
0.9980507851
0.9994925823
0.9994925823
1.00086118
1.001105548
1.000741108
0.9994361264
)
;
    }
    procBoundary10to15
    {
        type            processor;
        value           nonuniform List<scalar> 9(0.9772023103 0.9780656041 0.978069991 0.9774851656 0.9779869998 0.9779869998 0.9889327792 0.9885040261 0.9868995899);
    }
    procBoundary10to16
    {
        type            processor;
        value           nonuniform List<scalar> 
18
(
0.9978544567
0.9978473789
0.9845392624
0.9971091023
0.9955064829
0.9911214542
0.9906027134
0.9933457387
0.9952437965
0.9968167802
0.9985642064
0.9997863709
1.000034501
1.000009576
1.000215512
1.000571146
0.9978544567
1.000787794
)
;
    }
}


// ************************************************************************* //
