/*--------------------------------*- C++ -*----------------------------------*\
  =========                 |
  \\      /  F ield         | OpenFOAM: The Open Source CFD Toolbox
   \\    /   O peration     | Website:  https://openfoam.org
    \\  /    A nd           | Version:  7
     \\/     M anipulation  |
\*---------------------------------------------------------------------------*/
FoamFile
{
    version     2.0;
    format      ascii;
    class       volScalarField;
    location    "2.7";
    object      p;
}
// * * * * * * * * * * * * * * * * * * * * * * * * * * * * * * * * * * * * * //

dimensions      [1 -1 -2 0 0 0 0];

internalField   nonuniform List<scalar> 5(1.025573085 1.009368087 1.027790272 1.010056926 1.027617692);

boundaryField
{
    inlet
    {
        type            fixedValue;
        value           nonuniform 0();
    }
    outlet
    {
        type            zeroGradient;
    }
    bottom
    {
        type            slip;
    }
    top
    {
        type            slip;
    }
    obstacle
    {
        type            zeroGradient;
    }
    defaultFaces
    {
        type            empty;
    }
    procBoundary29to22
    {
        type            processor;
        value           nonuniform List<scalar> 3(1.059021709 1.05612935 1.048328448);
    }
    procBoundary29to23
    {
        type            processor;
        value           nonuniform List<scalar> 2(1.025153695 1.009560272);
    }
    procBoundary29to35
    {
        type            processor;
        value           nonuniform List<scalar> 3(1.010325611 1.010325611 1.028731631);
    }
}


// ************************************************************************* //
