/*--------------------------------*- C++ -*----------------------------------*\
  =========                 |
  \\      /  F ield         | OpenFOAM: The Open Source CFD Toolbox
   \\    /   O peration     | Website:  https://openfoam.org
    \\  /    A nd           | Version:  7
     \\/     M anipulation  |
\*---------------------------------------------------------------------------*/
FoamFile
{
    version     2.0;
    format      ascii;
    class       volScalarField;
    location    "2.2";
    object      p;
}
// * * * * * * * * * * * * * * * * * * * * * * * * * * * * * * * * * * * * * //

dimensions      [1 -1 -2 0 0 0 0];

internalField   nonuniform List<scalar> 
20000
(
1
1
1
1
1
1
1
1
1
1
1
1
1
1
1
1
1
1
1
1
1
1
1
1
1
1
1
1
1
1
1
1
1
1
1
1
1
1
1
1
1
1
1
1
1
1
1
1
1
1
1
1
1
1
1
1
1
1
1
1
1
1
1
1
1
1
1
1
1
1
1
1
1
1
1
1
1
1
1
1
1
1
1
1
1
1
1
1
1
1
1
1
1
1
1
1
1
1
1
1
1
1
1
1
1
1
1
1
1
1
1
1
1
1
1
1
1
1
1
1
1
1
1
1
1
1
1
1
1
1
1
1
1
1
1
1
1
1
1
1
1
1
1
1
1
1
1
1
1
1
1
1
1
1
1
1
1
1
1
1
1
1
1
1
1
1
1
1
1
1
1
1
1
1
1
1
1
1
1
1
1
1
1
1
1
1
1
1
1
1
1
1
1
1
1
1
1
1
1
1
1
1
1
1
1
1
1
1
1
1
1
1
1
1
1
1
1
1
1
1
1
1
1
1
1
1
1
1
1
1
1
1
1
1
1
1
1
1
1
1
1
1
1
1
1
1
1
1
1
1
1
1
1
1
1
1
1
1
1
1
1
1
1
1
1
1
1
1
1
1
1
1
1
1
1
1
1
1
1
1
1
1
1
1
1
1
1
1
1
1
1
1
1
1
1
1
1
1
1
1
1
1
1
1
1
1
1
1
1
1
1
1
1
1
1
1
1
1
1
1
1
1
1
1
1
1
1
1
1
1
1
1
1
1
1
1
1
1
1
1
1
1
1
1
1
1
1
1
1
1
1
1
1
1
1
1
1
1
1
1
1
1
1
1
1
1
1
1
1
1
1
1
1
1
1
1
1
1
1
1
1
1
1
1
1
1
1
1
1
1
1
1
1
1
1
1
1
1
1
1
1
1
1
1
1
1
1
1
1
1
1
1
1
1
1
1
1
1
1
1
1
1
1
1
1
1
1
1
1
1
1
1
1
1
1
1
1
1
1
1
1
1
1
1
1
1
1
1
1
1
1
1
1
1
1
1
1
1
1
1
1
1
1
1
1
1
1
1
1
1
1
1
1
1
1
1
1
1
1
1
1
1
1
1
1
1
1
1
1
1
1
1
1
1
1
1
1
1
1
1
1
1
1
1
1
1
1
1
1
1
1
1
1
1
1
1
1
1
1
1
1
1
1
1
1
1
1
1
1
1
1
1
1
1
1
1
1
1
1
1
1
1
1
1
1
1
1
1
1
1
1
1
1
1
1
1
1
1
1
1
1
1
1
1
1
1
1
1
1
1
1
1
1
1
1
1
1
1
1
1
1
1
1
1
1
1
1
1
1
1
1
1
1
1
1
1
1
1
1
1
1
1
1
1
1
1
1
1
1
1
1
1
1
1
1
1
1
1
1
1
1
1
1
1
1
1
1
1
1
1
1
1
1
1
1
1
1
1
1
1
1
1
1
1
1
1
1
1
1
1
1
1
1
1
1
1
1
1
1
1
1
1
1
1
1
1
1
1
1
1
1
1
1
1
1
1
1
1
1
1
1
1
1
1
1
1
1
1
1
1
1
1
1
1
1
1
1
1
1
1
1
1
1
1
1
1
1
1
1
1
1
1
1
1
1
1
1
1
1
1
1
1
1
1
1
1
1
1
1
1
1
1
1
1
1
1
1
1
1
1
1
1
1
1
1
1
1
1
1
1
1
1
1
1
1
1
1
1
1
1
1
1
1
1
1
1
1
1
1
1
1
1
1
1
1
1
1
1
1
1
1
1
1
1
1
1
1
1
1
1
1
1
1
1
1
1
1
1
1
1
1
1
1
1
1
1
1
1
1
1
1
1
1
1
1
1
1
1
1
1
1
1
1
1
1
1
1
1
1
1
1
1
1
1
1
1
1
1
1
1
1
1
1
1
1
1
1
1
1
1
1
1
1
1
1
1
1
1
1
1
1
1
1
1
1
1
1
1
1
1
1
1
1
1
1
1
1
1
1
1
1
1
1
1
1
1
1
1
1
1
1
1
1
1
1
1
1
1
1
1
1
1
1
1
1
1
1
1
1
1
1
1
1
1
1
1
1
1
1
1
1
1
1
1
1
1
1
1
1
1
1
1
1
1
1
1
1
1
1
1
1
1
1
1
1
1
1
1
1
1
1
1
1
1
1
1
1
1
1
1
1
1
1
1
1
1
1
1
1
1
1
1
1
1
1
1
1
1
1
1
1
1
1
1
1
1
1
1
1
1
1
1
1
1
1
1
1
1
1
1
1
1
1
1
1
1
1
1
1
1
1
1
1
1
1
1
1
1
1
1
1
1
1
1
1
1
1
1
1
1
1
1
1
1
1
1
1
1
1
1
1
1
1
1
1
1
1
1
1
1
1
1
1
1
1
1
1
1
1
1
1
1
1
1
1
1
1
1
1
1
1
1
1
1
1
1
1
1
1
1
1
1
1
1
1
1
1
1
1
1
1
1
1
1
1
1
1
1
1
1
1
1
1
1
1
1
1
1
1
1
1
1
1
1
1
1
1
1
1
1
1
1
1
1
1
1
1
1
1
1
1
1
1
1
1
1
1
1
1
1
1
1
1
1
1
1
1
1
1
1
1
1
1
1
1
1
1
1
1
1
1
1
1
1
1
1
1
1
1
1
1
1
1
1
1
1
1
1
1
1
1
1
1
1
1
1
1
1
1
1
1
1
1
1
1
1
1
1
1
1
1
1
1
1
1
1
1
1
1
1
1
1
1
1
1
1
1
1
1
1
1
1
1
1
1
1
1
1
1
1
1
1
1
1
1
1
1
1
1
1
1
1
1
1
1
1
1
1
1
1
1
1
1
1
1
1
1
1
1
1
1
1
1
1
1
1
1
1
1
1
1
1
1
1
1
1
1
1
1
1
1
1
1
1
1
1
1
1
1
1
1
1
1
1
1
1
1
1
1
1
1
1
1
1
1
1
1
1
1
1
1
1
1
1
1
1
1
1
1
1
1
1
1
1
1
1
1
1
1
1
1
1
1
1
1
1
1
1
1
1
1
1
1
1
1
1
1
1
1
1
1
1
1
1
1
1
1
1
1
1
1
1
1
1
1
1
1
1
1
1
1
1
1
1
1
1
1
1
1
1
1
1
1
1
1
1
1
1
1
1
1
1
1
1
1
1
1
1
1
1
1
1
1
1
1
1
1
1
1
1
1
1
1
1
1
1
1
1
1
1
1
1
1
1
1
1
1
1
1
1
1
1
1
1
1
1
1
1
1
1
1
1
1
1
1
1
1
1
1
1
1
1
1
1
1
1
1
1
1
1
1
1
1
1
1
1
1
1
1
1
1
1
1
1
1
1
1
1
1
1
1
1
1
1
1
1
1
1
1
1
1
1
1
1
1
1
1
1
1
1
1
1
1
1
1
1
1
1
1
1
1
1
1
1
1
1
1
1
1
1
1
1
1
1
1
1
1
1
1
1
1
1
1
1
1
1
1
1
1
1
1
1
1
1
1
1
1
1
1
1
1
1
1
1
1
1
1
1
1
1
1
1
1
1
1
1
1
1
1
1
1
1
1
1
1
1
1
1
1
1
1
1
1
1
1
1
1
1
1
1
1
1
1
1
1
1
1
1
1
1
1
1
1
1
1
1
1
1
1
1
1
1
1
1
1
1
1
1
1
1
1
1
1
1
1
1
1
1
1
1
1
1
1
1
1
1
1
1
1
1
1
1
1
1
1
1
1
1
1
1
1
1
1
1
1
1
1
1
1
1
1
1
1
1
1
1
1
1
1
1
1
1
1
1
1
1
1
1
1
1
1
1
1
1
1
1
1
1
1
1
1
1
1
1
1
1
1
1
1
1
1
1
1
1
1
1
1
1
1
1
1
1
1
1
1
1
1
1
1
1
1
1
1
1
1
1
1
1
1
1
1
1
1
1
1
1
1
1
1
1
1
1
1
1
1
1
1
1
1
1
1
1
1
1
1
1
1
1
1
1
1
1
1
1
1
1
1
1
1
1
1
1
1
1
1
1
1
1
1
1
1
1
1
1
1
1
1
1
1
1
1
1
1
1
1
1
1
1
1
1
1
1
1
1
1
1
1
1
1
1
1
1
1
1
1
1
1
1
1
1
1
1
1
1
1
1
1
1
1
1
1
1
1
1
1
1
1
1
1
1
1
1
1
1
1
1
1
1
1
1
1
1
1
1
1
1
1
1
1
1
1
1
1
1
1
1
1
1
1
1
1
1
1
1
1
1
1
1
1
1
1
1
1
1
1
1
1
1
1
1
1
1
1
1
1
1
1
1
1
1
1
1
1
1
1
1
1
1
1
1
1
1
1
1
1
1
1
1
1
1
1
1
1
1
1
1
1
1
1
1
1
1
1
1
1
1
1
1
1
1
1
1
1
1
1
1
1
1
1
1
1
1
1
1
1
1
1
1
1
1
1
1
1
1
1
1
1
1
1
1
1
1
1
1
1
1
1
1
1
1
1
1
1
1
1
1
1
1
1
1
1
1
1
1
1
1
1
1
1
1
1
1
1
1
1
1
1
1
1
1
1
1
1
1
1
1
1
1
1
1
1
1
1
1
1
1
1
1
1
1
1
1
1
1
1
1
1
1
1
1
1
1
1
1
1
1
1
1
1
1
1
1
1
1
1
1
1
1
1
1
1
1
1
1
1
1
1
1
1
1
1
1
1
1
1
1
1
1
1
1
1
1
1
1
1
1
1
1
1
1
1
1
1
1
1
1
1
1
1
1
1
1
1
1
1
1
1
1
1
1
1
1
1
1
1
1
1
1
1
1
1
1
1
1
1
1
1
1
1
1
1
1
1
1
1
1
1
1
1
1
1
1
1
1
1
1
1
1
1
1
1
1
1
1
1
1
1
1
1
1
1
1
1
1
1
1
1
1
1
1
1
1
1
1
1
1
1
1
1
1
1
1
1
1
1
1
1
1
1
1
1
1
1
1
1
1
1
1
1
1
1
1
1
1
1
1
1
1
1
1
1
1
1
1
1
1
1
1
1
1
1
1
1
1
1
1
1
1
1
1
1
1
1
1
1
1
1
1
1
1
1
1
1
1
1
1
1
1
1
1
1
1
1
1
1
1
1
1
1
1
1
1
1
1
1
1
1
1
1
1
1
1
1
1
1
1
1
1
1
1
1
1
1
1
1
1
1
1
1
1
1
1
1
1
1
1
1
1
1
1
1
1
1
1
1
1
1
1
1
1
1
1
1
1
1
1
1
1
1
1
1
1
1
1
1
1
1
1
1
1
1
1
1
1
1
1
1
1
1
1
1
1
1
1
1
1
1
1
1
1
1
1
1
1
1
1
1
1
1
1
1
1
1
1
1
1
1
1
1
1
1
1
1
1
1
1
1
1
1
1
1
1
1
1
1
1
1
1
1
1
1
1
1
1
1
1
1
1
1
1
1
1
1
1
1
1
1
1
1
1
1
1
1
1
1
1
1
1
1
1
1
1
1
1
1
1
1
1
1
1
1
1
1
1
1
1
1
1
1
1
1
1
1
1
1
1
1
1
1
1
1
1
1
1
1
1
1
1
1
1
1
1
1
1
1
1
1
1
1
1
1
1
1
1
1
1
1
1
1
1
1
1
1
1
1
1
1
1
1
1
1
1
1
1
1
1
1
1
1
1
1
1
1
1
1
1
1
1
1
1
1
1
1
1
1
1
1
1
1
1
1
1
1
1
1
1
1
1
1
1
1
1
1
1
1
1
1
1
1
1
1
1
1
1
1
1
1
1
1
1
1
1
1
1
1
1
1
1
1
1
1
1
1
1
1
1
1
1
1
1
1
1
1
1
1
1
1
1
1
1
1
1
1
1
1
1
1
1
1
1
1
1
1
1
1
1
1
1
1
1
1
1
1
1
1
1
1
1
1
1
1
1
1
1
1
1
1
1
1
1
1
1
1
1
1
1
1
1
1
1
1
1
1
1
1
1
1
1
1
1
1
1
1
1
1
1
1
1
1
1
1
1
1
1
1
1
1
1
1
1
1
1
1
1
1
1
1
1
1
1
1
1
1
1
1
1
1
1
1
1
1
1
1
1
1
1
1
1
1
1
1
1
1
1
1
1
1
1
1
1
1
1
1
1
1
1
1
1
1
1
1
1
1
1
1
1
1
1
1
1
1
1
1
1
1
1
1
1
1
1
1
1
1
1
1
1
1
1
1
1
1
1
1
1
1
1
1
1
1
1
1
1
1
1
1
1
1
1
1
1
1
1
1
1
1
1
1
1
1
1
1
1
1
1
1
1
1
1
1
1
1
1
1
1
1
1
1
1
1
1
1
1
1
1
1
1
1
1
1
1
1
1
1
1
1
1
1
1
1
1
1
1
1
1
1
1
1
1
1
1
1
1
1
1
1
1
1
1
1
1
1
1
1
1
1
1
1
1
1
1
1
1
1
1
1
1
1
1
1
1
1
1
1
1
1
1
1
1
1
1
1
1
1
1
1
1
1
1
1
1
1
1
1
1
1
1
1
1
1
1
1
1
1
1
1
1
1
1
1
1
1
1
1
1
1
1
1
1
1
1
1
1
1
1
1
1
1
1
1
1
1
1
1
1
1
1
1
1
1
1
1
1
1
1
1
1
1
1
1
1
1
1
1
1
1
1
1
1
1
1
1
1
1
1
1
1
1
1
1
1
1
1
1
1
1
1
1
1
1
1
1
1
1
1
1
1
1
1
1
1
1
1
1
1
1
1
1
1
1
1
1
1
1
1
1
1
1
1
1
1
1
1
1
1
1
1
1
1
1
1
1
1
1
1
1
1
1
1
1
1
1
1
1
1
1
1
1
1
1
1
1
1
1
1
1
1
1
1
1
1
1
1
1
1
1
1
1
1
1
1
1
1
1
1
1
1
1
1
1
1
1
1
1
1
1
1
1
1
1
1
1
1
1
1
1
1
1
1
1
1
1
1
1
1
1
1
1
1
1
1
1
1
1
1
1
1
1
1
1
1
1
1
1
1
1
1
1
1
1
1
1
1
1
1
1
1
1
1
1
1
1
1
1
1
1
1
1
1
1
1
1
1
1
1
1
1
1
1
1
1
1
1
1
1
1
1
1
1
1
1
1
1
1
1
1
1
1
1
1
1
1
1
1
1
1
1
1
1
1
1
1
1
1
1
1
1
1
1
1
1
1
1
1
1
1
1
1
1
1
1
1
1
1
1
1
1
1
1
1
1
1
1
1
1
1
1
1
1
1
1
1
1
1
1
1
1
1
1
1
1
1
1
1
1
1
1
1
1
1
1
1
1
1
1
1
1
1
1
1
1
1
1
1
1
1
1
1
1
1
1
1
1
1
1
1
1
1
1
1
1
1
1
1
1
1
1
1
1
1
1
1
1
1
1
1
1
1
1
1
1
1
1
1
1
1
1
1
1
1
1
1
1
1
1
1
1
1
1
1
1
1
1
1
1
1
1
1
1
1
1
1
1
1
1
1
1
1
1
1
1
1
1
1
1
1
1
1
1
1
1
1
1
1
1
1
1
1
1
1
1
1
1
1
1
1
1
1
1
1
1
1
1
1
1
1
1
1
1
1
1
1
1
1
1
1
1
1
1
1
1
1
1
1
1
1
1
1
1
1
1
1
1
1
1
1
1
1
1
1
1
1
1
1
1
1
1
1
1
1
1
1
1
1
1
1
1
1
1
1
1
1
1
1
1
1
1
1
1
1
1
1
1
1
1
1
1
1
1
1
1
1
1
1
1
1
1
1
1
1
1
1
1
1
1
1
1
1
1
1
1
1
1
1
1
1
1
1
1
1
1
1
1
1
1
1
1
1
1
1
1
1
1
1
1
1
1
1
1
1
1
1
1
1
1
1
1
1
1
1
1
1
1
1
1
1
1
1
1
1
1
1
1
1
1
1
1
1
1
1
1
1
1
1
1
1
1
1
1
1
1
1
1
1
1
1
1
1
1
1
1
1
1
1
1
1
1
1
1
1
1
1
1
1
1
1
1
1
1
1
1
1
1
1
1
1
1
1
1
1
1
1
1
1
1
1
1
1
1
1
1
1
1
1
1
1
1
1
1
1
1
1
1
1
1
1
1
1
1
1
1
1
1
1
1
1
1
1
1
1
1
1
1
1
1
1
1
1
1
1
1
1
1
1
1
1
1
1
1
1
1
1
1
1
1
1
1
1
1
1
1
1
1
1
1
1
1
1
1
1
1
1
1
1
1
1
1
1
1
1
1
1
1
1
1
1
1
1
1
1
1
1
1
1
1
1
1
1
1
1
1
1
1
1
1
1
1
1
1
1
1
1
1
1
1
1
1
1
1
1
1
1
1
1
1
1
1
1
1
1
1
1
1
1
1
1
1
1
1
1
1
1
1
1
1
1
1
1
1
1
1
1
1
1
1
1
1
1
1
1
1
1
1
1
1
1
1
1
1
1
1
1
1
1
1
1
1
1
1
1
1
1
1
1
1
1
1
1
1
1
1
1
1
1
1
1
1
1
1
1
1
1
1
1
1
1
1
1
1
1
1
1
1
1
1
1
1
1
1
1
1
1
1
1
1
1
1
1
1
1
1
1
1
1
1
1
1
1
1
1
1
1
1
1
1
1
1
1
1
1
1
1
1
1
1
1
1
1
1
1
1
1
1
1
1
1
1
1
1
1
1
1
1
1
1
1
1
1
1
1
1
1
1
1
1
1
1
1
1
1
1
1
1
1
1
1
1
1
1
1
1
1
1
1
1
1
1
1
1
1
1
1
1
1
1
1
1
1
1
1
1
1
1
1
1
1
1
1
1
1
1
1
1
1
1
1
1
1
1
1
1
1
1
1
1
1
1
1
1
1
1
1
1
1
1
1
1
1
1
1
1
1
1
1
1
1
1
1
1
1
1
1
1
1
1
1
1
1
1
1
1
1
1
1
1
1
1
1
1
1
1
1
1
1
1
1
1
1
1
1
1
1
1
1
1
1
1
1
1
1
1
1
1
1
1
1
1
1
1
1
1
1
1
1
1
1
1
1
1
1
1
1
1
1
1
1
1
1
1
1
1
1
1
1
1
1
1
1
1
1
1
1
1
1
1
1
1
1
1
1
1
1
1
1
1
1
1
1
1
1
1
1
1
1
1
1
1
1
1
1
1
1
1
1
1
1
1
1
1
1
1
1
1
1
1
1
1
1
1
1
1
1
1
1
1
1
1
1
1
1
1
1
1
1
1
1
1
1
1
1
1
1
1
1
1
1
1
1
1
1
1
1
1
1
1
1
1
1
1
1
1
1
1
1
1
1
1
1
1
1
1
1
1
1
1
1
1
1
1
1
1
1
1
1
1
1
1
1
1
1
1
1
1
1
1
1
1
1
1
1
1
1
1
1
1
1
1
1
1
1
1
1
1
1
1
1
1
1
1
1
1
1
1
1
1
1
1
1
1
1
1
1
1
1
1
1
1
1
1
1
1
1
1
1
1
1
1
1
1
1
1
1
1
1
1
1
1
1
1
1
1
1
1
1
1
1
1
1
1
1
1
1
1
1
1
1
1
1
1
1
1
1
1
1
1
1
1
1
1
1
1
1
1
1
1
1
1
1
1
1
1
1
1
1
1
1
1
1
1
1
1.000000002
1
1
1
1
1
1
1
1
1
1
1
1
1
1
1
1
1
1
1
1
1
1
1
1
1
1
1
1
1
1
1
1
1
1
1
1
1
1
1
1
1
1
1
1
1
1
1.000000001
1.000000006
1.000000268
0.9999999973
1
1
1
1
1
1
1
1
1
1
1
1
1
1
1
1
1
1
1
1
1
1
1
1
1
1
1
1
1
1
1
1
1
1
1
1
1
1
1
1
1
1
1.000000001
1.000000013
1.000000075
1.000000452
1.000001994
1.000008369
1.000057216
1.000018857
1
1
1
1
1
1
1
1
1
1
1
1
1
1
1
1
1
1
1
1
1
1
1
1
1
1
1
1
1
1
1
1
1
1
1
1
1
1
1.000000003
1.00000002
1.000000124
1.000000657
1.00000301
1.000012126
1.000044726
1.000144552
1.000431191
1.001107484
1.003079068
1.004650751
1
1
1
1
1
1
1
1
1
1
1
1
1
1
1
1
1
1
1
1
1
1
1
1
1
1
1
1
1
1
1
1
1
1.000000001
1.000000005
1.000000035
1.000000205
1.000001037
1.000004581
1.000017942
1.000062614
1.000196378
1.000569128
1.001435542
1.003468989
1.007350452
1.01462614
1.026187872
1.046938899
1.066741048
1
1
1
1
1
1
1
1
1
1
1
1
1
1
1
1
1
1
1
1
1
1
1
1
1
1
1
1
1
1.000000001
1.00000001
1.000000064
1.000000347
1.000001649
1.000006997
1.000026636
1.000090264
1.000274898
1.000766324
1.00189856
1.004367769
1.009036665
1.017825086
1.031304364
1.052244865
1.079051118
1.115547534
1.158168834
1.203522852
1.246771234
1
1
1
1
1
1
1
1
1
1
1
1
1
1
1
1
1
1
1
1
1
1
1
1
1
1.000000003
1.000000021
1.000000121
1.000000622
1.000002826
1.000011224
1.0000411
1.000131977
1.000388963
1.001039706
1.002516166
1.005583512
1.011445535
1.021427362
1.037079384
1.060877157
1.089568541
1.127671402
1.174052185
1.220886262
1.261820174
1.302651644
1.342580081
1.374242776
1.404689056
1
1
1
1
1
1
1
1
1
1
1
1
1
1
1
1
1
1
1
1
1.000000001
1.000000008
1.000000048
1.000000258
1.000001194
1.000005052
1.000018927
1.000063994
1.000199522
1.000563696
1.001424573
1.003424018
1.007268525
1.014414192
1.026696651
1.044073674
1.069639929
1.105201183
1.143217271
1.187386175
1.235314785
1.281158085
1.327061783
1.363649708
1.38932571
1.414493182
1.438738469
1.45423376
1.460600339
1.467729479
1
1
1
1
1
1
1
1
1
1
1
1
1
1
1
1.000000001
1.000000004
1.000000025
1.000000125
1.000000583
1.000002458
1.000009504
1.00003371
1.000107479
1.000312027
1.000847849
1.002037513
1.004595943
1.009621963
1.018082249
1.032423468
1.053815276
1.080828651
1.11952586
1.164531037
1.204391182
1.251796094
1.298912875
1.336205132
1.378180004
1.398425905
1.413126069
1.429342373
1.440909896
1.445863269
1.452219532
1.455945916
1.46016091
1.463583968
1.467609847
1
1
1
1
1
1
1
1
1
1
1
1.000000002
1.000000014
1.000000078
1.000000372
1.000001547
1.00000585
1.000019965
1.000062842
1.000188005
1.000505715
1.001275981
1.003024133
1.006325054
1.012744387
1.023794098
1.039540345
1.065002445
1.097309544
1.133769443
1.180771401
1.228039249
1.275733863
1.322609214
1.357052323
1.387057963
1.424571512
1.444458426
1.456919937
1.470652934
1.473438036
1.474019701
1.476582532
1.478411991
1.478106072
1.477557328
1.474675024
1.469140585
1.462401058
1.461432166
1
1
1
1
1
1
1
1.000000005
1.000000033
1.000000193
1.000000939
1.000003864
1.00001386
1.000045108
1.000131036
1.000352162
1.000884019
1.002017249
1.004454899
1.009127677
1.016938456
1.030657942
1.050021952
1.075843663
1.114917423
1.155297297
1.197797888
1.251080031
1.296117741
1.340456475
1.375328854
1.395192449
1.416394425
1.438572276
1.444780689
1.452533573
1.458811679
1.45934243
1.46236104
1.470669409
1.473736828
1.474367446
1.476073591
1.478851706
1.47918575
1.478157058
1.475805321
1.472332537
1.46754267
1.463831196
1
1
1
1.000000004
1.000000044
1.000000323
1.000001799
1.00000797
1.000028603
1.000091589
1.00026664
1.000675904
1.001603942
1.003472449
1.006816062
1.013248341
1.023301562
1.038558644
1.063609175
1.093544155
1.130762096
1.178490457
1.223099878
1.273670143
1.321175066
1.357561127
1.39939395
1.430546529
1.448631586
1.466004124
1.47851654
1.480352367
1.483539325
1.487649251
1.487633278
1.486718777
1.483945837
1.478314573
1.471818552
1.46728499
1.465817097
1.465098625
1.464352886
1.463452238
1.462348236
1.460643946
1.458682216
1.456405213
1.453802361
1.452097841
1.000000013
1.000000188
1.000001775
1.000010449
1.000044472
1.000156623
1.000481296
1.001251439
1.002761983
1.00580408
1.011153537
1.019498956
1.033378771
1.051416193
1.075794771
1.112401342
1.150469071
1.19578587
1.245334473
1.287208447
1.33535024
1.369647623
1.39591505
1.429601833
1.444564771
1.451224808
1.46042502
1.462416361
1.464362364
1.471341285
1.481543441
1.484419386
1.485602644
1.487777477
1.487802696
1.486600569
1.483506881
1.479499584
1.475158746
1.471128553
1.467630872
1.463403892
1.458066711
1.452930506
1.449999334
1.44861469
1.447507328
1.44683962
1.447058414
1.4485134
1.00002378
1.000147696
1.000626202
1.001907684
1.004543251
1.009292971
1.018202615
1.03108311
1.047642745
1.07245245
1.101800071
1.136975312
1.180391382
1.222262279
1.271547605
1.324966453
1.368779498
1.408729362
1.431301997
1.448041751
1.472522501
1.483552815
1.4883278
1.492482691
1.492182094
1.490847348
1.48972659
1.486866707
1.482730275
1.480026464
1.477279746
1.474915956
1.470702155
1.465933078
1.4616317
1.460382418
1.459491267
1.457692607
1.454835915
1.453509557
1.452486088
1.450187775
1.447244176
1.443849688
1.44267049
1.442233501
1.442290677
1.442775167
1.444259549
1.448038055
1.003384326
1.010888193
1.025693214
1.047089162
1.069736928
1.099673493
1.14013552
1.171090892
1.206391668
1.248111038
1.280500841
1.320547618
1.349534755
1.373740382
1.401668171
1.418486133
1.435878843
1.454475012
1.465686925
1.479009383
1.493453993
1.495872026
1.493645679
1.488897956
1.486944211
1.485360329
1.482124854
1.475781573
1.470179446
1.466840564
1.464257629
1.460431148
1.454763749
1.451662255
1.451341477
1.450508568
1.449213192
1.448705152
1.448832197
1.449851883
1.450757385
1.450671757
1.449820381
1.449048685
1.449023495
1.449162143
1.449176511
1.449068371
1.449742499
1.450664986
1.055569361
1.121507036
1.191175371
1.257536013
1.324122662
1.386279479
1.43131256
1.473449142
1.530131709
1.555191683
1.569742385
1.598563393
1.607745198
1.604345681
1.599795498
1.589933103
1.57655489
1.560451026
1.539299837
1.514935078
1.497405007
1.488338986
1.480516277
1.472084018
1.467150687
1.463458795
1.457692598
1.449637215
1.447166754
1.44611298
1.444287117
1.440932992
1.438205774
1.438277421
1.43855901
1.43719206
1.436651126
1.43698281
1.438523764
1.44129846
1.444049205
1.44626396
1.447861707
1.450179266
1.453258791
1.455664185
1.456417892
1.45685307
1.457291258
1.456904562
1
1
1
1
1
1
1
1
1
1
1
1
1
1
1
1
1
1
1
1
1
1
1
1
1
1
1
1
1
1
1.000000002
1.000000081
1.00000226
1.000041063
1.000526786
1.004360483
1.025341525
1.098250723
1.26205697
1.492218328
1.679651064
1.872223104
1.932506233
1.923542442
1.888112938
1.844453936
1.795991208
1.728300927
1.65669646
1.550404138
1
1
1
1
1
1
1
1
1
1
1
1
1
1
1
1
1
1
1
1
1
1
1
1
1
1
1
1
1
1.000000002
1.000000083
1.00000242
1.00004511
1.000509086
1.004369698
1.022334498
1.085955004
1.191954528
1.320331768
1.445646377
1.59326647
1.697134122
1.789180552
1.851783272
1.852793936
1.831229858
1.778313218
1.709451609
1.65036056
1.552371796
1
1
1
1
1
1
1
1
1
1
1
1
1
1
1
1
1
1
1
1
1
1
1
1
1
1
1
1
1.000000002
1.000000092
1.000002236
1.00004417
1.000559362
1.004144592
1.023319936
1.079524899
1.192636031
1.306256644
1.356761026
1.392148578
1.458418577
1.548906917
1.673596387
1.785982091
1.816603102
1.794570047
1.73946313
1.689281617
1.646394261
1.55618846
1
1
1
1
1
1
1
1
1
1
1
1
1
1
1
1
1
1
1
1
1
1
1
1
1
1
1
1.000000003
1.000000082
1.000002542
1.000042433
1.000531486
1.004639017
1.022193487
1.084658794
1.190399183
1.294275884
1.37052559
1.392096646
1.393644552
1.404187286
1.435457128
1.500967689
1.587584661
1.673845394
1.704305373
1.698593692
1.683144399
1.652772659
1.571086175
1
1
1
1
1
1
1
1
1
1
1
1
1
1
1
1
1
1
1
1
1
1
1
1
1
1
1.000000002
1.000000096
1.000002169
1.000047249
1.000537706
1.004330599
1.02411208
1.082629164
1.192459009
1.313578477
1.354187597
1.381483331
1.395400434
1.394018166
1.384427651
1.371006699
1.378165418
1.419814395
1.500637922
1.587664311
1.653652512
1.643142679
1.600755461
1.529049256
1
1
1
1
1
1
1
1
1
1
1
1
1
1
1
1
1
1
1
1
1
1
1
1
1
1.000000003
1.000000082
1.000002599
1.000039458
1.000583728
1.004486422
1.022945329
1.085105135
1.195751245
1.299040552
1.378561533
1.39566774
1.394341753
1.393480849
1.384773484
1.364082688
1.333493132
1.305416923
1.308061945
1.338903976
1.408079414
1.507142624
1.554708315
1.550804965
1.5223302
1
1
1
1
1
1
1
1
1
1
1
1
1
1
1
1
1
1
1
1
1
1
1
1
1.000000002
1.000000096
1.000002089
1.000048046
1.000491822
1.004750153
1.023798991
1.083403303
1.191971793
1.321461338
1.360454379
1.386065055
1.4007221
1.397851552
1.38710078
1.365925121
1.334971898
1.301800436
1.264405096
1.238608777
1.240686019
1.269069666
1.340261073
1.424028975
1.504566197
1.49030911
1
1
1
1
1
1
1
1
1
1
1
1
1
1
1
1
1
1
1
1
1
1
1
1.000000002
1.00000008
1.000002555
1.000037182
1.000604865
1.004074013
1.025331302
1.083464825
1.194194451
1.306009309
1.387649554
1.400724914
1.39800188
1.396842245
1.3887301
1.367189229
1.337113932
1.301983857
1.268100573
1.235278735
1.200490991
1.178863148
1.181572054
1.203635043
1.266744371
1.377999309
1.415278697
1
1
1
1
1
1
1
1
1
1
1
1
1
1
1
1
1
1
1
1
1
1
1.000000002
1.00000009
1.000001999
1.000046812
1.000461903
1.004938574
1.022655983
1.086077765
1.1951264
1.323080513
1.358479922
1.38802712
1.405346322
1.402681301
1.391520522
1.368788728
1.338329399
1.302851843
1.268334523
1.234249765
1.204613265
1.175432683
1.143522359
1.122367325
1.123424935
1.148701757
1.207942906
1.31440116
1
1
1
1
1
1
1
1
1
1
1
1
1
1
1
1
1
1
1
1
1
1.000000002
1.000000078
1.000002418
1.000035493
1.000589601
1.003873754
1.026339274
1.082412306
1.191192626
1.316118304
1.397546399
1.399859297
1.398655287
1.401854047
1.394457436
1.372131379
1.339076949
1.303824591
1.269424881
1.234074472
1.204984656
1.174343511
1.146547479
1.117509702
1.086254627
1.070017902
1.071748113
1.088828987
1.183755986
1
1
1
1
1
1
1
1
1
1
1
1
1
1
1
1
1
1
1
1
1.000000002
1.000000082
1.000001923
1.000044763
1.000443535
1.004876447
1.022040971
1.088038782
1.200381692
1.309217429
1.361560635
1.400844334
1.410128672
1.406743051
1.395236291
1.372837565
1.34048748
1.305124898
1.267977294
1.234473106
1.203158156
1.172904885
1.144457083
1.114376464
1.090461313
1.064348853
1.035281095
1.019139992
1.02027119
1.069685348
1
1
1
1
1
1
1
1
1
1
1
1
1
1
1
1
1
1
1
1.000000002
1.000000075
1.000002233
1.000034036
1.000569011
1.003760611
1.026391084
1.081683394
1.193475964
1.321964498
1.401249756
1.399917743
1.404419635
1.407948672
1.399003294
1.374711252
1.342200092
1.305642448
1.269324231
1.233932205
1.20126792
1.172259794
1.14076421
1.111483353
1.086999668
1.061009767
1.03956399
1.012666521
0.9832399067
0.9740739863
0.9895557559
1
1
1
1
1
1
1
1
1
1
1
1
1
1
1
1
1
1
1.000000002
1.000000073
1.000001851
1.000042373
1.000429072
1.0047766
1.021641426
1.089264065
1.202644119
1.302517534
1.372272894
1.414890955
1.414325906
1.410023605
1.399175222
1.376556183
1.34272768
1.306573263
1.268644136
1.231929778
1.201186184
1.17007925
1.139138935
1.109018891
1.08147372
1.059494035
1.033925257
1.008281967
0.9897056761
0.9610149804
0.9432939066
0.9352349352
1
1
1
1
1
1
1
1
1
1
1
1
1
1
1
1
1
1.000000002
1.000000071
1.000002083
1.000033156
1.00055152
1.00369047
1.026191794
1.081375422
1.196345473
1.327295476
1.401118335
1.403041954
1.410942777
1.412400881
1.402407973
1.377973278
1.344486869
1.307712084
1.268571979
1.232073075
1.199314265
1.168692043
1.136724807
1.104270858
1.079273733
1.054845705
1.029133733
1.005642658
0.9800257119
0.9628711174
0.9414018301
0.9203298818
0.8972318882
1
1
1
1
1
1
1
1
1
1
1
1
1
1
1
1
1.000000002
1.000000068
1.000001802
1.00004068
1.000423506
1.004706864
1.021446213
1.089745715
1.203825671
1.302435513
1.383087312
1.41989468
1.417517534
1.413672016
1.403267349
1.38018457
1.345546055
1.307928785
1.269311013
1.23064746
1.198437156
1.167431426
1.132616737
1.102473531
1.075499729
1.052056408
1.026462704
0.9969577222
0.9771403922
0.9549870234
0.9360902152
0.9181921225
0.8964350255
0.869437401
1
1
1
1
1
1
1
1
1
1
1
1
1
1
1
1.000000002
1.000000066
1.000001979
1.000032634
1.000539915
1.003663233
1.026022563
1.081153038
1.197901898
1.332936484
1.400591211
1.408225138
1.415259204
1.415926407
1.406175306
1.3818766
1.347296531
1.309969621
1.269365876
1.23100141
1.196692829
1.164984483
1.1320345
1.098122174
1.072581667
1.048905536
1.019524538
0.9937347934
0.9690167334
0.9505833735
0.9308227297
0.9090848852
0.8907030623
0.8726423197
0.8469033065
1
1
1
1
1
1
1
1
1
1
1
1
1
1
1.000000002
1.000000063
1.000001722
1.000039413
1.000419494
1.004645381
1.021309245
1.08954361
1.204060173
1.303448209
1.390550174
1.422751846
1.420498793
1.417115327
1.407512432
1.383824253
1.349719994
1.310201504
1.270203279
1.229942491
1.195618546
1.164800226
1.129146137
1.096441946
1.068469355
1.043023308
1.016843018
0.9852061632
0.9647983697
0.9447900745
0.9237170527
0.9043010912
0.8815409956
0.8642699003
0.8502754054
0.8259964559
1
1
1
1
1
1
1
1
1
1
1
1
1
1.000000001
1.00000006
1.000001899
1.000031835
1.00053155
1.003634372
1.025799349
1.080617109
1.197898361
1.335908744
1.402277953
1.412094478
1.419294062
1.419645876
1.410180586
1.386490395
1.351273359
1.312363976
1.271544777
1.228929992
1.195994977
1.162708598
1.127454507
1.092103263
1.063010829
1.039459475
1.009757015
0.9821067742
0.9576053613
0.9382983374
0.9180784997
0.8956429154
0.8761234073
0.856529341
0.8412653754
0.8278333708
0.8036934394
1
1
1
1
1
1
1
1
1
1
1
1
1.000000001
1.000000059
1.000001626
1.000038865
1.000415
1.004601011
1.021181975
1.089021026
1.203763799
1.304127835
1.394266125
1.42564484
1.423681229
1.420881083
1.411694748
1.388952143
1.353301554
1.313740934
1.272757277
1.230419139
1.193623102
1.161772603
1.124520345
1.087027193
1.059832251
1.033389846
1.006819223
0.9752169441
0.9508752252
0.9315662166
0.9094738463
0.8898504895
0.8682719619
0.8493161345
0.8340857163
0.8189196567
0.8047231058
0.7814918554
1
1
1
1
1
1
1
1
1
1
1
1.000000001
1.000000053
1.000001851
1.000030863
1.000526915
1.003601386
1.025560326
1.080420345
1.197448369
1.337795076
1.406523153
1.41661474
1.422963753
1.422983839
1.414061263
1.391290106
1.355627631
1.31602581
1.274463861
1.231251512
1.192187966
1.158431931
1.122858716
1.083652046
1.053874504
1.029426091
0.9994505734
0.9693449038
0.9431793508
0.9236171468
0.9037752585
0.8815314006
0.8623197306
0.8416896176
0.8259377682
0.8119901997
0.7952521974
0.7806294434
0.7573016799
1
1
1
1
1
1
1
1
1
1
1.000000001
1.000000054
1.00000148
1.000037819
1.000402946
1.004501867
1.020982597
1.088021744
1.204947979
1.305751743
1.396161394
1.430344539
1.427950266
1.424579075
1.415496906
1.392991237
1.358205445
1.31743543
1.274405335
1.232867537
1.190488523
1.156670465
1.120655827
1.080698796
1.048750038
1.021013782
0.9948078069
0.9616312321
0.936481676
0.9174194611
0.8960605083
0.8753064268
0.85281925
0.8339478937
0.8171443633
0.8033851815
0.7885723427
0.7710357714
0.7566244929
0.7331049387
1
1
1
1
1
1
1
1
1
1.000000001
1.000000043
1.000001711
1.000028402
1.000503957
1.003484099
1.024826699
1.080113101
1.196254502
1.339356203
1.413456149
1.423157027
1.428381036
1.42721179
1.417674221
1.394994045
1.360741082
1.318336997
1.276042306
1.231405503
1.191611388
1.154324261
1.116381608
1.078891261
1.041004562
1.014977572
0.9867791442
0.956507298
0.9296655509
0.9082789992
0.890286377
0.8657123941
0.8444299464
0.8253499708
0.8082100751
0.7944113949
0.7792576205
0.7615676721
0.7445827955
0.7297926837
0.7056984654
1
1
1
1
1
1
1
1
1.000000001
1.000000046
1.000001265
1.000035013
1.00037747
1.004272445
1.020549598
1.086052776
1.206788533
1.308600059
1.393506026
1.435007501
1.433885515
1.430223422
1.41992451
1.397241776
1.362328009
1.32022165
1.275880717
1.231820917
1.190856838
1.15122466
1.112959093
1.073022108
1.038328549
1.00723409
0.9800720365
0.9515368353
0.9214937398
0.9001204387
0.8802344635
0.8575346112
0.834190933
0.8156627818
0.8005993467
0.786131119
0.7708606927
0.7544948199
0.7349741802
0.7194756381
0.7036266052
0.6862467323
1
1
1
1
1
1
1
1.000000001
1.000000033
1.00000154
1.000025651
1.000471134
1.003361822
1.023903098
1.080356975
1.195456153
1.341173577
1.418386351
1.429177499
1.433805564
1.43316893
1.423301766
1.400006367
1.364541586
1.322531309
1.276916823
1.231344273
1.189081649
1.147971236
1.10830484
1.069488214
1.033160741
1.001799994
0.9710891542
0.9437852151
0.9139822897
0.8891199576
0.8714658886
0.8496161813
0.8269750899
0.8069907329
0.792281315
0.7757357968
0.7595560194
0.7423030223
0.7229768184
0.7064964223
0.6908692885
0.6734264277
0.6727049259
1
1
1
1
1
1
1
1.000000039
1.00000108
1.000032074
1.000356993
1.004074458
1.020471753
1.085092209
1.209832456
1.317146958
1.389271443
1.436730464
1.437886634
1.435566639
1.42555392
1.402724211
1.36646615
1.325034983
1.27709192
1.231119743
1.187097085
1.144831129
1.104814363
1.063568271
1.029374186
0.9941303393
0.9632920965
0.934817116
0.9058361589
0.8808263608
0.8603562387
0.8426529474
0.8175665966
0.7972429617
0.7825647437
0.7660934474
0.7502016941
0.7319862135
0.713647992
0.6966194184
0.6832568866
0.674389298
0.6670803142
0.6716732325
1
1
1
1
1
1.000000001
1.000000024
1.000001309
1.000022816
1.000433582
1.003289118
1.023226334
1.082063941
1.196859117
1.345542548
1.420081537
1.43390074
1.438727271
1.437552735
1.428660531
1.405313411
1.369925372
1.325577777
1.279166423
1.229611621
1.184682613
1.143885367
1.098016661
1.059845192
1.022059205
0.9876889735
0.9539962391
0.9242701651
0.8992304714
0.8710596376
0.8517271529
0.8334333207
0.809193307
0.7871189972
0.7699777356
0.7547148752
0.7368293083
0.7185598399
0.7009508842
0.6818979624
0.6688279686
0.6616946596
0.6635779688
0.6661049011
0.7118471533
1
1
1
1
1
1.000000027
1.000000793
1.000026712
1.00032155
1.003789267
1.020174247
1.084984137
1.210221198
1.331050251
1.390376269
1.438275915
1.442388831
1.440240779
1.430674217
1.407871108
1.371890467
1.326942388
1.279825262
1.228838303
1.182389306
1.139740909
1.094539149
1.051736006
1.016955597
0.9814968019
0.9447136158
0.9152594114
0.8904480257
0.8629297446
0.8394197351
0.8207135944
0.7986877993
0.7754438134
0.7598246303
0.7467802345
0.7280017337
0.7098521524
0.6911551547
0.6739281401
0.6656669291
0.6604681162
0.6592958988
0.6672303674
0.6983353434
0.8110970512
1
1
1
1
1.000000012
1.000000866
1.000017337
1.000360483
1.003034805
1.021637199
1.081983802
1.197308263
1.345345418
1.423633348
1.436220301
1.4436322
1.442076075
1.433773974
1.411621381
1.375317912
1.329462946
1.280228636
1.229181874
1.179193757
1.13481205
1.089765679
1.045207699
1.008713765
0.97542216
0.935553105
0.9037844038
0.8806501013
0.8540227363
0.8281834129
0.8084688795
0.7897171314
0.7651713695
0.7474083724
0.7334423861
0.7149767668
0.6955724037
0.6755819351
0.659129071
0.6518877506
0.6545731677
0.6597363018
0.6783439354
0.7361099619
0.8126200527
0.9123461805
1
1
1
1.000000011
1.000000416
1.000018483
1.000257193
1.003295458
1.018905031
1.081958498
1.20498486
1.338552327
1.394347644
1.437061831
1.445825433
1.444745109
1.436722684
1.415705277
1.378806795
1.333283781
1.280463953
1.228843137
1.177599962
1.127705254
1.086060884
1.038224167
1.000529266
0.9667339259
0.9287049296
0.893452516
0.8678387201
0.8450115222
0.8139089403
0.7942916575
0.7789555818
0.7580805253
0.738519625
0.7226163227
0.7051081111
0.6835781609
0.6658063516
0.6559721566
0.6498942889
0.6497688845
0.6586335353
0.6988585753
0.7695219696
0.8649082652
0.9416641467
0.9820097762
1
1
1.000000003
1.000000405
1.000010532
1.000267323
1.002642546
1.01949329
1.079829017
1.194594404
1.338008593
1.424651131
1.43849614
1.446422606
1.445844329
1.43933823
1.418757348
1.383708696
1.336743557
1.282463334
1.229256365
1.174456142
1.124507745
1.07685937
1.033549862
0.9899954169
0.9545520856
0.9217789003
0.8824215596
0.855718161
0.834462375
0.8063474273
0.7817519294
0.7653387976
0.7469452366
0.7229759047
0.7047071457
0.6896046888
0.6671884683
0.6491320141
0.6419592448
0.6444491927
0.6501970479
0.67050106
0.7291544119
0.8235228034
0.9199970417
0.9494953476
0.9711306017
0.9930624517
1
1.000000002
1.000000133
1.000010125
1.000181009
1.002709518
1.017320776
1.078356311
1.200826322
1.34081605
1.39838073
1.439073645
1.446591408
1.446872993
1.440979671
1.42125128
1.386906125
1.339502854
1.285454769
1.227943208
1.173561471
1.119321527
1.068833085
1.025863142
0.9814355873
0.9433051872
0.9115989812
0.8763578504
0.8417113465
0.8186383773
0.7947123104
0.7675770295
0.7506732265
0.7367784263
0.7137390883
0.6920796783
0.6779554277
0.6600046525
0.6464543671
0.6393154431
0.6398827141
0.6486267564
0.6950962054
0.7698994158
0.8582163856
0.9159639722
0.9652380091
0.9756103875
0.9799771701
0.9901375356
1
1.000000076
1.000004188
1.000163917
1.002137039
1.017173925
1.076567904
1.193738569
1.332610091
1.429316073
1.444467986
1.448864502
1.447260565
1.440722442
1.4218269
1.388475133
1.341986593
1.287649676
1.227815784
1.1711925
1.114751627
1.060594787
1.016064981
0.9719731197
0.9315962495
0.8973116258
0.8661110167
0.8312542956
0.803511432
0.7851133832
0.7569383263
0.7338460407
0.7179916778
0.6983456287
0.6758136041
0.657880209
0.6452740178
0.6326518936
0.6341919628