/*--------------------------------*- C++ -*----------------------------------*\
  =========                 |
  \\      /  F ield         | OpenFOAM: The Open Source CFD Toolbox
   \\    /   O peration     | Website:  https://openfoam.org
    \\  /    A nd           | Version:  7
     \\/     M anipulation  |
\*---------------------------------------------------------------------------*/
FoamFile
{
    version     2.0;
    format      ascii;
    class       volScalarField;
    location    "2";
    object      T;
}
// * * * * * * * * * * * * * * * * * * * * * * * * * * * * * * * * * * * * * //

dimensions      [0 0 0 1 0 0 0];

internalField   nonuniform List<scalar> 
2222
(
1.175673299
1.171315319
1.1668131
1.164226263
1.160564909
1.155112598
1.150154992
1.145678628
1.141478271
1.136573501
1.131331244
1.127028466
1.122466516
1.124778749
1.150102672
1.224260929
1.292066363
1.308066588
1.251217934
1.243966589
1.237153898
1.230888668
1.224692307
1.218673294
1.212942006
1.20730413
1.201317035
1.195750975
1.190423201
1.185435633
1.180580742
1.176188973
1.172084359
1.167618695
1.163369273
1.159254694
1.155264369
1.151225626
1.147059775
1.142453569
1.138002734
1.132988684
1.129157967
1.125641264
1.12926117
1.16399696
1.238148485
1.294327715
1.311922728
1.307263994
1.248569779
1.241910198
1.235357501
1.228523828
1.221689644
1.215400676
1.209488326
1.203429735
1.197894898
1.193088092
1.187961085
1.182904615
1.178014307
1.173818862
1.169336466
1.164352818
1.159797439
1.155789886
1.151661115
1.148065482
1.144976249
1.141393139
1.135445068
1.129773241
1.128621499
1.134873295
1.178991374
1.252801154
1.30361388
1.307234037
1.310054842
1.306857162
1.245742984
1.238617904
1.231848262
1.225710326
1.219903248
1.213777762
1.207296689
1.201022228
1.195381032
1.189879348
1.184485228
1.179341521
1.174286734
1.169777039
1.165232802
1.161029094
1.157019481
1.153246754
1.149760004
1.145197734
1.140495621
1.135971106
1.130656457
1.130888167
1.140878109
1.190422566
1.266149107
1.306025594
1.318891795
1.314612877
1.312499584
1.309859553
1.244371061
1.237363329
1.230548634
1.224234024
1.217469858
1.211058836
1.205022179
1.199057697
1.193176263
1.187388499
1.181865181
1.176374556
1.171062091
1.166289031
1.161792213
1.157597191
1.153472143
1.149685692
1.145376894
1.14100976
1.136819891
1.132187626
1.133296451
1.148900716
1.20917778
1.287381432
1.326319771
1.32923415
1.327099275
1.32251631
1.318282284
1.31371247
1.241083909
1.234477383
1.228157532
1.222029609
1.215640735
1.208686516
1.202277071
1.196313909
1.190383585
1.184820238
1.179673406
1.174296145
1.169048315
1.163909231
1.15962867
1.15516965
1.150827486
1.147404293
1.142118959
1.138012414
1.134050179
1.13649029
1.161103827
1.231061701
1.310038194
1.331492245
1.331749109
1.32944362
1.327152313
1.323107678
1.318756966
1.313358087
1.239448591
1.232373546
1.225589796
1.219286671
1.213163454
1.207164372
1.201037949
1.194795801
1.188093764
1.181969468
1.176499389
1.171283717
1.165970941
1.161035611
1.156691966
1.151895439
1.147939563
1.1426244
1.139366743
1.136157171
1.140892892
1.178261934
1.252274777
1.311748697
1.331586138
1.327753389
1.327730046
1.326576057
1.32416067
1.319769825
1.316133143
1.311103198
1.236292649
1.230207781
1.224074447
1.217599471
1.210541284
1.204115581
1.198189034
1.192291898
1.186387882
1.180835301
1.17511539
1.169885173
1.164131535
1.159099382
1.154639522
1.149641431
1.14429618
1.13867605
1.139071239
1.149260618
1.19881575
1.274443573
1.323348863
1.335848548
1.333707903
1.325904422
1.325114048
1.324655968
1.321090984
1.315596487
1.313427946
1.309498834
1.233761401
1.227115557
1.220978696
1.215132739
1.209217052
1.202762166
1.196699212
1.190033392
1.183804236
1.17808162
1.172669792
1.167069871
1.161586072
1.156713732
1.150980749
1.146780775
1.141574236
1.142765539
1.160909771
1.225570083
1.301881251
1.343712603
1.349968253
1.346697713
1.339834977
1.331825098
1.326514442
1.323453318
1.319217155
1.314291581
1.312714363
1.309545425
1.231665706
1.225605546
1.219189144
1.212395118
1.206171397
1.19988364
1.194355672
1.188418286
1.182807525
1.176747047
1.171490265
1.165097012
1.159810039
1.153367853
1.149140643
1.145200691
1.149146864
1.182001277
1.256168429
1.327524255
1.354950814
1.354019589
1.349518696
1.3463154
1.342981877
1.337755364
1.330833757
1.325872202
1.320523748
1.315046391
1.314366459
1.312211102
1.228112456
1.222084897
1.216341666
1.210864835
1.20473939
1.198579372
1.192140364
1.185927828
1.180147574
1.174415224
1.16925551
1.162656989
1.157402786
1.151455073
1.150024719
1.16033159
1.2137153
1.29551726
1.347106494
1.35277944
1.354420041
1.352278644
1.346458976
1.343281241
1.341101589
1.337122793
1.33198731
1.328781348
1.324591916
1.319600129
1.318871068
1.316285399
1.226539314
1.220311384
1.213432386
1.207691521
1.20153462
1.196182363
1.19034948
1.18500238
1.178520133
1.172988562
1.165897207
1.161084694
1.155639849
1.156783868
1.18178169
1.25086317
1.327575955
1.352351475
1.355139886
1.351765791
1.350582711
1.348454589
1.343926847
1.340207155
1.338104926
1.334452556
1.329989208
1.328662238
1.32668021
1.323095243
1.32118138
1.316932885
1.222612747
1.217218677
1.211728149
1.205960943
1.199992676
1.194010669
1.187639556
1.18235873
1.175648325
1.170365347
1.16514329
1.161356234
1.168490779
1.214516879
1.29354147
1.34360043
1.359098081
1.360005763
1.35707947
1.35369544
1.352119603
1.348831613
1.342870474
1.338793064
1.336776848
1.333229062
1.328336681
1.327874805
1.326613132
1.323195473
1.320485279
1.315453251
1.220963521
1.214242922
1.208379586
1.202303525
1.197214067
1.191464185
1.186567428
1.179345624
1.174709945
1.169018923
1.170082249
1.194825893
1.260238014
1.327717071
1.356865847
1.365875083
1.367907557
1.36775469
1.365715195
1.361915194
1.35845489
1.353914704
1.346806851
1.340839053
1.337592782
1.333662054
1.328554587
1.32776705
1.326273981
1.322626005
1.319259726
1.31379115
1.217487243
1.211952566
1.206478289
1.199997332
1.195169168
1.187633665
1.183327148
1.178000573
1.175516833
1.187176023
1.235713689
1.30811027
1.350992267
1.368434898
1.377954146
1.379059732
1.378157289
1.376799583
1.373064473
1.367343731
1.363357986
1.359330997
1.352936617
1.346117216
1.342192364
1.337426654
1.331205142
1.328931867
1.326739108
1.322496644
1.31864462
1.313152229
1.214815757
1.208520999
1.203661132
1.196907991
1.191632573
1.187060798
1.18310286
1.188612513
1.224200776
1.290199777
1.346312282
1.37897556
1.387599725
1.389396564
1.390540138
1.388811091
1.38393091
1.379318839
1.37414011
1.367414801
1.363096152
1.359703268
1.354564584
1.348951237
1.346610824
1.342783751
1.336332893
1.33228593
1.329055123
1.323802143
1.319398812
1.314306192
1.212034694
1.206068457
1.199655728
1.195576356
1.190443785
1.193012306
1.219294934
1.27962141
1.340628256
1.377239895
1.400358641
1.404550783
1.402533435
1.39838818
1.39488239
1.390950154
1.384847168
1.379016782
1.373802111
1.366669038
1.361980021
1.359160415
1.354966054
1.349804911
1.348238105
1.345552147
1.339538342
1.335868222
1.332565997
1.327228318
1.322415677
1.317642963
1.207562354
1.204008623
1.198273887
1.200020457
1.221903549
1.275256063
1.336094326
1.377057657
1.399084323
1.405328347
1.406926872
1.407759143
1.405345152
1.400293136
1.396282812
1.391333924
1.383908167
1.3777
1.372891504
1.366513188
1.361896341
1.359548156
1.355708476
1.350863556
1.348966604
1.346227932
1.340533758
1.336647531
1.334382532
1.329373478
1.324668305
1.320467
1.206397456
1.208168535
1.231262582
1.284745764
1.34742148
1.391291213
1.412989549
1.418928568
1.417052639
1.410621253
1.408254122
1.408803022
1.406190267
1.400145857
1.3950863
1.389750537
1.382756313
1.377637848
1.373444128
1.367765648
1.36293754
1.361123584
1.357844594
1.353045589
1.350164477
1.346858296
1.341008296
1.336249184
1.334336033
1.330084583
1.325691899
1.321957241
1.243453382
1.301485101
1.356278158
1.401559525
1.419749727
1.423150236
1.423181631
1.424143749
1.421470852
1.414508039
1.410414685
1.408304182
1.40472758
1.398503485
1.394168601
1.389772117
1.383353004
1.378800691
1.376015233
1.371683948
1.367020578
1.365176853
1.361947799
1.356534002
1.352358568
1.348223078
1.342012306
1.336427364
1.334514378
1.330763237
1.326808857
1.323477934
1.381642465
1.420861967
1.427022726
1.425863659
1.422418015
1.424238586
1.424292166
1.426141061
1.425141761
1.419065543
1.413266743
1.409524681
1.405399378
1.399116813
1.395104098
1.391632574
1.386085585
1.382954239
1.381781481
1.378498978
1.373760373
1.371338084
1.367658362
1.361397461
1.356181309
1.351256688
1.344485963
1.337745215
1.335548124
1.332402824
1.329131709
1.325939623
1.433951653
1.4366471
1.434301463
1.43087352
1.425711091
1.428441432
1.429269153
1.427066327
1.425684268
1.422448518
1.417474471
1.413270781
1.408787513
1.402375674
1.399069005
1.396844105
1.392518359
1.388689345
1.38674278
1.382867968
1.378159587
1.375360548
1.371616931
1.365638712
1.360429286
1.355082519
1.348271495
1.340860186
1.338469682
1.335972418
1.333242811
1.329872999
1.443092596
1.439355068
1.437752008
1.437208695
1.434438404
1.435574627
1.433538666
1.428709216
1.427558085
1.42604595
1.422926021
1.419833303
1.415751863
1.409337683
1.405526262
1.402733596
1.397490472
1.391034315
1.388534816
1.384830795
1.379633161
1.37637726
1.372232284
1.365884452
1.360365975
1.356809939
1.351777657
1.345293629
1.343097301
1.341263155
1.338828208
1.335051213
1.449220491
1.444882665
1.446201309
1.446732382
1.44474289
1.443397318
1.439790185
1.433309028
1.431606021
1.430353018
1.427452093
1.423959736
1.420010144
1.413763422
1.408444964
1.404442955
1.398946793
1.392742569
1.389766798
1.38598086
1.380533642
1.376433099
1.372128404
1.366061972
1.360648117
1.357847705
1.354282284
1.349247272
1.347785468
1.346569215
1.344170847
1.339914603
1.456133543
1.455487801
1.45704164
1.455441305
1.453088321
1.45098254
1.447382529
1.441413393
1.43799978
1.434778986
1.428704226
1.423836761
1.420394435
1.414525925
1.408554923
1.404768005
1.399823447
1.39413639
1.390981339
1.386971909
1.380810809
1.376675159
1.372557226
1.366661711
1.361572855
1.359442563
1.356713843
1.352140074
1.350825852
1.349838027
1.347264824
1.342493876
1.464582293
1.465147709
1.464784448
1.461293466
1.457019616
1.454287224
1.451835619
1.447059208
1.441902262
1.436210761
1.429116689
1.423359357
1.419861215
1.414496304
1.408430663
1.405393231
1.400985483
1.395587309
1.392164253
1.388094126
1.381706351
1.377523888
1.373799561
1.36836978
1.36392292
1.362251152
1.359703931
1.35474165
1.352956299
1.351698918
1.349049875
1.343953595
1.472976551
1.471182397
1.468423295
1.46423655
1.458941639
1.455224912
1.452570681
1.44786056
1.442283628
1.436887103
1.430114961
1.423780915
1.419966914
1.414958301
1.409187923
1.406635593
1.402805654
1.397447706
1.39424175
1.390782071
1.384844751
1.380216047
1.376786481
1.372053574
1.368192443
1.366099455
1.363266611
1.3577162
1.35519379
1.353508982
1.350821338
1.345322217
1.478865395
1.475302869
1.471092481
1.466599644
1.461070191
1.45583334
1.452656253
1.448011274
1.442461705
1.437874029
1.431669311
1.425071589
1.42123804
1.417022468
1.411766736
1.40946044
1.406263641
1.401086566
1.398009397
1.394913051
1.388792861
1.383501623
1.381025936
1.37718917
1.373438772
1.370773597
1.367433201
1.361580061
1.358074166
1.35602417
1.353211964
1.34714525
1.482008862
1.477673902
1.472883686
1.468706147
1.463039007
1.457185804
1.453070804
1.448537629
1.443114153
1.439186669
1.434258249
1.428160351
1.424750672
1.42173604
1.417147488
1.41449262
1.411371104
1.406192039
1.40145583
1.397016011
1.390733727
1.385677649
1.384402807
1.381441976
1.37734472
1.37475177
1.371675851
1.366408423
1.362058546
1.359448117
1.356360107
1.349751826
1.484643311
1.479973427
1.474938775
1.471125256
1.465808635
1.459248933
1.454351562
1.45006675
1.444405429
1.440843624
1.437914353
1.433529418
1.430745939
1.428330531
1.42366662
1.419878067
1.415612704
1.408360521
1.401212816
1.397293308
1.392111606
1.387448499
1.386495152
1.384157191
1.379718617
1.377337961
1.374942513
1.370702059
1.366321308
1.362977923
1.359440954
1.352415114
1.488766894
1.484415537
1.479052308
1.474911272
1.469446343
1.462757949
1.457255575
1.453463079
1.44708168
1.444382557
1.442931341
1.440091173
1.436497031
1.432980133
1.427835542
1.421146562
1.414684278
1.407325339
1.400907673
1.397872381
1.393773037
1.389179045
1.388310161
1.3865808
1.382518671
1.380117714
1.378049847
1.374151371
1.369255203
1.365668743
1.362062231
1.355000466
1.490124395
1.486105299
1.48053365
1.47613589
1.471185497
1.464342439
1.45897257
1.454682438
1.448703959
1.445913841
1.445346171
1.442108745
1.437752613
1.432884607
1.426738539
1.41957311
1.413201295
1.406704058
1.400469242
1.398232792
1.394864756
1.390242448
1.388594208
1.387674412
1.384134536
1.381676333
1.379421153
1.375730049
1.370632925
1.365446723
1.361462976
1.354165929
1.490332262
1.486169535
1.480553743
1.476166113
1.471545656
1.464642567
1.45973811
1.455141878
1.449435682
1.446474295
1.445665039
1.442294196
1.437584861
1.432585273
1.426133551
1.41905596
1.412778906
1.406593841
1.40047081
1.39872307
1.395462121
1.390749261
1.388841535
1.387905795
1.384496757
1.382030681
1.379711987
1.376047525
1.370941943
1.365588288
1.361523602
1.35422023
1.490474071
1.486156596
1.480604058
1.476291315
1.471845883
1.465029104
1.460379839
1.455541745
1.450267012
1.44701084
1.445945083
1.442290669
1.437534435
1.432357793
1.425759329
1.41864131
1.412525609
1.406620857
1.400678715
1.399238006
1.39615924
1.391283651
1.389246138
1.388177172
1.384856003
1.382343271
1.379979674
1.376311485
1.371217504
1.365782617
1.361560683
1.354263966
1.490607543
1.486138162
1.480534351
1.47626648
1.472086894
1.465406257
1.460593849
1.455794999
1.451039927
1.447576601
1.44622251
1.442299709
1.437457279
1.432156949
1.425372429
1.418286115
1.412329928
1.406657853
1.401131781
1.399863383
1.396915245
1.391866414
1.389768997
1.388498049
1.385202693
1.382643141
1.380204733
1.376506872
1.371469222
1.365996526
1.361595549
1.354252117
1.490749724
1.486160487
1.480470292
1.476271464
1.472414823
1.465827438
1.460636928
1.455979053
1.45177048
1.448150036
1.446453145
1.442275046
1.437412492
1.432088686
1.425019758
1.418024132
1.412292962
1.406885849
1.401766361
1.400586428
1.397665075
1.392435197
1.39027025
1.388868039
1.385570578
1.382958544
1.380445527
1.37664541
1.371709624
1.366194126
1.361701873
1.354212835
1.490908923
1.486220846
1.480431789
1.476320575
1.472796691
1.466328693
1.460693042
1.45617909
1.452532347
1.448699089
1.446616308
1.442252491
1.437368876
1.432007506
1.424722864
1.417725425
1.412347161
1.407433091
1.402630379
1.401365935
1.398385371
1.392972129
1.390718569
1.389251049
1.385962748
1.383282916
1.380662247
1.37671687
1.371825528
1.366381682
1.361888833
1.354179817
1.49110148
1.486289172
1.480412937
1.476418157
1.472976514
1.466956333
1.460906267
1.456520806
1.453060081
1.449136125
1.446756312
1.442200852
1.437275281
1.431958654
1.424562127
1.417481992
1.412426542
1.40825682
1.403631285
1.402140965
1.399021759
1.39346292
1.391158944
1.389665294
1.38639402
1.383642784
1.380899527
1.376868718
1.371947526
1.366688906
1.361921081
1.354172814
1.491331693
1.486387465
1.480437289
1.476540128
1.473086224
1.467437802
1.461383898
1.457043079
1.453251401
1.449519775
1.446898485
1.442158739
1.437182626
1.431927498
1.424394531
1.417470311
1.413267776
1.40919766
1.404642737
1.402856228
1.399573126
1.393915934
1.391568384
1.390048559
1.386822688
1.384002836
1.38111995
1.376955046
1.371887167
1.366838269
1.362038605
1.354254776
1.491563377
1.486545501
1.480514522
1.47667714
1.473189151
1.467616442
1.462008248
1.457703681
1.453418681
1.449872108
1.447054644
1.442171345
1.437142316
1.431869304
1.424246072
1.417649706
1.414130541
1.410104329
1.405505243
1.403491499
1.400059867
1.394319642
1.391937336
1.390423342
1.387247479
1.384356412
1.381345349
1.377076339
1.371916389
1.366876411
1.362237388
1.354442289
1.491799433
1.486715504
1.480625589
1.47682957
1.473201131
1.467719998
1.462554468
1.458384183
1.453700798
1.450207007
1.447304249
1.442229256
1.437115105
1.431766757
1.424205708
1.417849895
1.414989152
1.410929332
1.406244219
1.404023952
1.400462729
1.394689767
1.392279018
1.390772609
1.387643426
1.384682853
1.381567898
1.377178884
1.372008872
1.366900852
1.362182428
1.354424854
1.492037022
1.486890231
1.480734613
1.476947766
1.473138154
1.467822348
1.463016104
1.459004805
1.454107564
1.450638519
1.447521791
1.442361662
1.437060544
1.431623388
1.424291234
1.418687835
1.41576698
1.411607256
1.406916054
1.404413834
1.400741939
1.395014534
1.39257366
1.391090176
1.387996088
1.384985744
1.381773055
1.377310517
1.372161039
1.366922659
1.362220027
1.35450396
1.492261907
1.487057323
1.480851634
1.477069611
1.473195125
1.467847713
1.463444895
1.459567606
1.454594361
1.451120797
1.448032267
1.4424156
1.43697057
1.431575214
1.424385401
1.4191196
1.416359667
1.412140681
1.407474456
1.404690802
1.40096371
1.395336275
1.392866933
1.391401085
1.388332922
1.385273468
1.381977606
1.377407615
1.372138473
1.366969204
1.362292649
1.354624296
1.492487603
1.487244405
1.481006919
1.477199643
1.473288303
1.467799039
1.46384387
1.460094019
1.455142896
1.451581749
1.448444005
1.442661529
1.436901872
1.431635011
1.424887464
1.419694192
1.416877633
1.412606524
1.407873257
1.404943981
1.401199902
1.395678335
1.393154193
1.391700988
1.388643648
1.38555572
1.382170572
1.377521757
1.372178651
1.367093554
1.362402566
1.354745339
1.492714376
1.487429788
1.481176981
1.477276658
1.473312354
1.467693065
1.463882411
1.460500602
1.455577696
1.451901576
1.448662668
1.442781332
1.436876865
1.431828283
1.425180385
1.420121286
1.417280135
1.413067169
1.408204101
1.405219404
1.401483916
1.396068705
1.393460848
1.392013799
1.388970095
1.385831642
1.382372419
1.377649549
1.372249284
1.367106109
1.362531994
1.354862877
1.492945292
1.487599811
1.481345306
1.477270341
1.473240881
1.467608146
1.463914598
1.460726037
1.455865569
1.452137588
1.44873224
1.442805895
1.43688168
1.431892737
1.425405034
1.420359663
1.41762468
1.413447577
1.408565338
1.405578881
1.401880883
1.396488088
1.393787155
1.39234543
1.389309732
1.386099497
1.382570587
1.377777265
1.372317602
1.367178136
1.362684528
1.35503561
1.493153644
1.487737021
1.481448772
1.477281169
1.473160124
1.467585043
1.463974289
1.460896273
1.456110249
1.452299603
1.448796954
1.442778902
1.436880265
1.431853113
1.425534993
1.420491792
1.417906632
1.41377656
1.409014916
1.406087791
1.402405508
1.396976227
1.394135749
1.392706025
1.389673814
1.386370185
1.382764982
1.377908669
1.372400106
1.367272175
1.36284253
1.355162552
1.496543764
1.493300951
1.487795818
1.481476746
1.477301171
1.473124735
1.467628946
1.464054215
1.461121632
1.456381485
1.452400149
1.448788803
1.442715123
1.436813102
1.431769124
1.425531373
1.420530953
1.418134479
1.414156348
1.409597498
1.406763294
1.403015629
1.397513832
1.394539331
1.39311193
1.390063525
1.386653877
1.382953839
1.378047852
1.372505213
1.367374397
1.363016913
1.35535966
1.496629343
1.49333375
1.487759655
1.481470614
1.477327387
1.47313995
1.46774578
1.464259965
1.461432784
1.456710088
1.452520745
1.448738799
1.442579325
1.436607816
1.431612979
1.425474746
1.420517252
1.418341513
1.414557723
1.410287159
1.407537792
1.40367397
1.398092276
1.395010958
1.393564598
1.390479241
1.38694676
1.38315245
1.378198425
1.372634557
1.367462783
1.363141145
1.355563347
1.496660922
1.493314425
1.48770002
1.481430788
1.477370693
1.473179493
1.4677661
1.46455054
1.46183674
1.457056985
1.452616678
1.448575712
1.442264947
1.436220471
1.43134921
1.425352048
1.4204752
1.418594007
1.415030763
1.410961214
1.408297878
1.404396385
1.398802904
1.395567233
1.394050272
1.390921173
1.387262658
1.383345035
1.378368258
1.37280141
1.367556887
1.36326067
1.355742579
1.496639021
1.493246938
1.48759582
1.481389449
1.477407147
1.473253374
1.467986137
1.464852538
1.462319882
1.457437372
1.452683487
1.448283397
1.441684167
1.435633061
1.430973385
1.425225827
1.420532922
1.418852064
1.415546662
1.411532192
1.409029958
1.405240067
1.399687586
1.396218736
1.394573943
1.391371653
1.387621928
1.383597345
1.378557957
1.372980251
1.367669727
1.363376554
1.355881485
1.496565141
1.493158469
1.487490314
1.481406523
1.477449946
1.473198308
1.468077499
1.46531932
1.462853721
1.457779281
1.452666833
1.447829932
1.440981486
1.434937907
1.430612082
1.425104792
1.420590937
1.419122046
1.416052036
1.412062395
1.409767189
1.406180498
1.400687099
1.396934813
1.395128937
1.391869442
1.388000488
1.383873642
1.378787473
1.373185167
1.367829354
1.363514506
1.355993156
1.496494441
1.493124842
1.487419635
1.481446964
1.477487344
1.47337286
1.468442714
1.465895927
1.463359613
1.458044307
1.452439728
1.447253253
1.440427993
1.434319476
1.430178326
1.425016079
1.420679373
1.419452843
1.416489891
1.412669987
1.410589974
1.407105518
1.401517434
1.397641426
1.395734197
1.392413368
1.388429398
1.384188515
1.379055199
1.373431277
1.368010043
1.363655081
1.356088693
1.496447346
1.493134592
1.48743679
1.481429137
1.477600223
1.473451309
1.468885549
1.466489285
1.46376469
1.458238101
1.452134942
1.446676272
1.439762841
1.433823604
1.429817224
1.425000234
1.420896456
1.41987856
1.416918088
1.413446215
1.411546319
1.407908653
1.402118357
1.398298073
1.396375321
1.393017048
1.388883547
1.384545092
1.379358608
1.373730706
1.368262218
1.363823351
1.356194227
1.49643911
1.493193617
1.487404618
1.481709263
1.477700191
1.473440805
1.469295625
1.467089789
1.464073958
1.458329151
1.45177292
1.446103208
1.439297539
1.43340146
1.429631843
1.425082908
1.421320549
1.420468927
1.417467985
1.414310647
1.412409966
1.408585005
1.402719743
1.398978116
1.397054639
1.393653635
1.389389962
1.384913874
1.379690197
1.374064757
1.368569992
1.3640194
1.356311772
1.496464258
1.493142291
1.487579653
1.48192465
1.477801345
1.473897748
1.469775542
1.46757767
1.46426581
1.458224577
1.451385719
1.445659902
1.439024825
1.433068317
1.429422844
1.425301998
1.42193291
1.421276261
1.418287091
1.415067174
1.412947474
1.409107236
1.403409368
1.399740938
1.397746381
1.394261743
1.38990403
1.385314482
1.380066955
1.37443994
1.368931236
1.364267389
1.356481689
1.496370704
1.493287122
1.487649631
1.482090918
1.478064632
1.474154936
1.470179283
1.467980469
1.464363418
1.458125206
1.451077102
1.445234433
1.438676379
1.432969235
1.42927287
1.425607483
1.422737972
1.422323008
1.419337847
1.4157212
1.413471161
1.409663763
1.404118157
1.400577699
1.398402618
1.394821458
1.390373054
1.385721727
1.380474664
1.374836989
1.369304362
1.364558397
1.356696588
1.496213678
1.493360001
1.487874457
1.482244198
1.478227957
1.474379224
1.47056316
1.468292314
1.464441991
1.458077306
1.45081694
1.444798768
1.438454414
1.432891266
1.429225285
1.426015716
1.423703068
1.423438604
1.420402162
1.416438501
1.414094211
1.410289125
1.404696483
1.401307657
1.398986205
1.395300651
1.390803128
1.386134146
1.38089132
1.375251012
1.369675453
1.36488221
1.356944887
1.496292682
1.493334767
1.487944355
1.482338249
1.478325184
1.474616536
1.470933205
1.468516281
1.464516924
1.457990815
1.450553659
1.444461887
1.438301538
1.432833252
1.429279505
1.426533042
1.424634779
1.424372609
1.421378788
1.417296741
1.414734602
1.410827653
1.405116084
1.401804151
1.399481966
1.395710024
1.391165801
1.386513353
1.381292598
1.375666336
1.370080195
1.365230696
1.357258923
1.496324523
1.493262567
1.4879116
1.482355183
1.478387758
1.474872801
1.47125791
1.468698781
1.464578216
1.45786403
1.450451789
1.444337174
1.438239719
1.432849505
1.429449352
1.427098048
1.425443631
1.425188133
1.422369119
1.418281765
1.415337349
1.411266665
1.405450305
1.402159827
1.399911551
1.396148936
1.391537634
1.386861453
1.381661864
1.376055133
1.37048108
1.365578907
1.357610799
1.496310064
1.493189248
1.487868132
1.482318754
1.478439332
1.475147024
1.471611655
1.468870016
1.464612579
1.457780644
1.450443801
1.444325169
1.438249102
1.432935883
1.429760657
1.427629236
1.426253105
1.426106288
1.423560926
1.419163695
1.415695368
1.411588524
1.40573786
1.402413312
1.400105794
1.396452962
1.392020245
1.387366376
1.381996581
1.376399671
1.370864595
1.365917319
1.357961486
1.49622931
1.493010032
1.487716022
1.482250947
1.478510033
1.475437527
1.471963515
1.46903608
1.464591844
1.457804753
1.450528543
1.444381012
1.4383417
1.433145678
1.430230391
1.428179475
1.427253597
1.427394485
1.424847403
1.419566981
1.415845436
1.411856003
1.406008762
1.402599616
1.40017413
1.396389466
1.391907044
1.387290411
1.382232626
1.376673755
1.371171761
1.366238053
1.358300954
1.495988435
1.492701945
1.487500112
1.482198696
1.478621322
1.475756945
1.472393338
1.469130457
1.464539302
1.457877946
1.45070314
1.444511736
1.438525196
1.433455302
1.430794787
1.42885341
1.428681123
1.428970046
1.425510967
1.419801664
1.416026482
1.412114305
1.406233168
1.402729611
1.400109931
1.396340481
1.391812198
1.387319218
1.382423737
1.37691278
1.371377757
1.366515225
1.358609461
1.499399474
1.495781219
1.492268806
1.48727518
1.482101403
1.478813074
1.476061351
1.47275008
1.469152935
1.464484155
1.457828535
1.45089959
1.444660355
1.438762781
1.433898175
1.431396964
1.429806642
1.43041951
1.42983553
1.425732519
1.420100952
1.416279201
1.412366989
1.406466466
1.402820226
1.400074974
1.396272915
1.391757197
1.387354377
1.382551938
1.377118345
1.371627674
1.366805866
1.358938075
1.499343775
1.495679823
1.491916667
1.487064257
1.482216669
1.478971256
1.4764084
1.472858694
1.469049466
1.464421674
1.457899516
1.451112882
1.444827885
1.439052906
1.434408664
1.4321573
1.431449795
1.431684206
1.430127716
1.425796317
1.420293249
1.416507793
1.412592858
1.406705804
1.402896319
1.400070327
1.396181497
1.39168016
1.387434075
1.382687432
1.377321074
1.371885709
1.367100421
1.359261442
1.499345832
1.495669612
1.491753632
1.48693141
1.482299241
1.479174256
1.476715055
1.472795629
1.468889118
1.464348314
1.45791102
1.451219414
1.445046908
1.439412502
1.434868942
1.433295955
1.433676488
1.432327567
1.430163347
1.425700266
1.420330195
1.416626438
1.412772883
1.406940808
1.402983766
1.400106435
1.396198985
1.391695923
1.387585722
1.382874038
1.377563787
1.372155233
1.367408716
1.359587044
1.499384271
1.49570718
1.491680045
1.486860363
1.482445863
1.479556096
1.476847013
1.472933209
1.468721182
1.464085041
1.457797874
1.451306513
1.445327245
1.439830609
1.435481014
1.435141065
1.435055963
1.432748865
1.430137759
1.42557773
1.42030989
1.416696819
1.412899791
1.407191092
1.40309664
1.40014171
1.396263222
1.391862561
1.387830179
1.383154526
1.377874591
1.372527244
1.367721883
1.359950309
1.499444076
1.495818593
1.491674919
1.486792388
1.482689885
1.479976428
1.476950703
1.473072389
1.468537838
1.463661063
1.457591644
1.451387548
1.445664241
1.440322312
1.436507702
1.437066229
1.435619098
1.432973598
1.430200064
1.425563332
1.420350769
1.416728163
1.412983133
1.407438636
1.40322587
1.400176826
1.396334504
1.392014166
1.388150352
1.383498628
1.37816466
1.372743847
1.367943435
1.360346226
1.49946614
1.495923006
1.491741408
1.486938173
1.483053661
1.480211044
1.477252821
1.473101773
1.468349955
1.463317918
1.457425403
1.45153078
1.44611333
1.441079067
1.438159853
1.438308603
1.436027672
1.433103646
1.430242733
1.425613648
1.42037411
1.416734611
1.413059118
1.407685901
1.403373514
1.400251659
1.396453062
1.3921723
1.388260144
1.383746001
1.378413862
1.37297005
1.368205718
1.360744364
)
;

boundaryField
{
    inlet
    {
        type            fixedValue;
        value           nonuniform 0();
    }
    outlet
    {
        type            inletOutlet;
        inletValue      uniform 1;
        value           nonuniform List<scalar> 
69
(
1.354165264
1.354220117
1.354248367
1.354227863
1.354187104
1.354156994
1.354153483
1.354239953
1.354442201
1.35441043
1.35448956
1.354613561
1.354720355
1.354827249
1.354990238
1.355130688
1.355331921
1.355541438
1.355729792
1.355880115
1.356001604
1.356103549
1.356213068
1.356333953
1.356507648
1.35672857
1.356980894
1.357297106
1.357651425
1.35800504
1.358346552
1.358654116
1.358980761
1.359304783
1.359630918
1.359999224
1.360397295
1.360776965
1.307930564
1.307164271
1.306880139
1.310013895
1.313764291
1.313294965
1.311017673
1.309440737
1.309550064
1.31232503
1.316369142
1.316902714
1.315388945
1.31374298
1.313146628
1.314363855
1.317731794
1.320494252
1.321939742
1.323453196
1.32592972
1.329895395
1.335100496
1.339936189
1.342477755
1.343933332
1.345310847
1.347152595
1.349784479
1.352454872
1.355002074
)
;
    }
    bottom
    {
        type            slip;
    }
    top
    {
        type            slip;
    }
    obstacle
    {
        type            zeroGradient;
    }
    defaultFaces
    {
        type            empty;
    }
    procBoundary11to5
    {
        type            processor;
        value           nonuniform List<scalar> 
33
(
1.181161981
1.176528596
1.171842402
1.16641469
1.16176416
1.157332022
1.153179604
1.150022062
1.145545154
1.140184272
1.134806946
1.129859493
1.12447254
1.119956707
1.121467662
1.143810973
1.205466851
1.285258327
1.253148202
1.246172937
1.239302508
1.232596601
1.225984051
1.219875691
1.214416932
1.209333868
1.204503409
1.199619325
1.19434023
1.189211158
1.184187229
1.179671921
1.179671921
)
;
    }
    procBoundary11to10
    {
        type            processor;
        value           nonuniform List<scalar> 
70
(
1.258458791
1.255444943
1.253298736
1.251063502
1.247746514
1.24596599
1.242530224
1.240639451
1.237258099
1.234555208
1.232365912
1.228453301
1.22684469
1.222411469
1.220666162
1.216992745
1.214505962
1.211990081
1.21648264
1.31957866
1.430110322
1.449882254
1.452658102
1.45618714
1.463502409
1.472237925
1.478915225
1.484194298
1.488340639
1.49263528
1.493770619
1.493983181
1.494184108
1.494374293
1.494577929
1.494776027
1.494984363
1.495208282
1.495404599
1.495552461
1.495692694
1.495859995
1.496003789
1.496105044
1.496231499
1.496389291
1.496389291
1.49957807
1.499779051
1.499923945
1.50003363
1.500122545
1.500197729
1.500247256
1.500278775
1.500293681
1.500215183
1.500227104
1.500198018
1.500115858
1.499959249
1.499751837
1.499545666
1.499545666
1.504126747
1.504030285
1.50388591
1.503838069
1.503854005
1.503874687
)
;
    }
    procBoundary11to17
    {
        type            processor;