/*--------------------------------*- C++ -*----------------------------------*\
  =========                 |
  \\      /  F ield         | OpenFOAM: The Open Source CFD Toolbox
   \\    /   O peration     | Website:  https://openfoam.org
    \\  /    A nd           | Version:  7
     \\/     M anipulation  |
\*---------------------------------------------------------------------------*/
FoamFile
{
    version     2.0;
    format      ascii;
    class       volScalarField;
    location    "4.7";
    object      p;
}
// * * * * * * * * * * * * * * * * * * * * * * * * * * * * * * * * * * * * * //

dimensions      [1 -1 -2 0 0 0 0];

internalField   nonuniform List<scalar> 
555
(
0.6703316759
0.65968354
0.6379691888
0.6202461983
0.6198915305
0.9725020879
0.9234269435
0.8729861925
0.8345103301
0.8107208763
0.7794493787
0.7393482963
0.7183291235
0.7008480392
0.670419326
0.6449019269
0.6368125274
0.6245550524
0.609215365
0.6109605806
0.6187315613
0.9094092074
0.8621891251
0.8150442074
0.7845994963
0.758373578
0.7193135357
0.6960002467
0.687963272
0.6681797392
0.6361184577
0.6237743211
0.6166148878
0.6060255041
0.6061081195
0.6232820997
0.676104007
0.8446338992
0.8000011482
0.7675047409
0.7464673429
0.7125158623
0.6743010287
0.6597007651
0.6462865011
0.6173306192
0.6018042555
0.6015586385
0.602724161
0.608120395
0.6411892881
0.7258071368
0.841236331
0.7828656896
0.7365187831
0.7152608316
0.6957879588
0.6595893776
0.6438149516
0.6330563608
0.6109837143
0.5947931471
0.5944828595
0.597510761
0.619292506
0.6763260825
0.7778320435
0.8897756957
0.9698079532
0.7253754495
0.6957089037
0.6748152785
0.639324086
0.6114542904
0.6063301616
0.5961878371
0.5852062059
0.5871186324
0.6022722186
0.6446214023
0.7447519881
0.8464975258
0.9302510368
0.951902148
0.9835724896
0.6607744001
0.6541889474
0.6349220918
0.6060120552
0.5955602226
0.5891101495
0.5812486199
0.5831855125
0.609845824
0.6911314576
0.8011613739
0.8778319675
0.9405831553
0.9845109776
0.9787513014
0.9838511946
0.6242548456
0.6087804842
0.5809970871
0.5723690188
0.576137979
0.5787497875
0.5920423824
0.6385394619
0.7409184636
0.8694372044
0.9586219992
0.9726399372
0.9860867352
0.9979098221
0.99859388
0.9946147681
0.5977162743
0.5814314863
0.5671089755
0.5670508846
0.573943319
0.6059213948
0.6990967307
0.8063054138
0.9096416818
0.9413248268
0.9821535233
0.9885597054
0.994043949
0.9995722092
1.000880766
0.9993497913
0.5618663313
0.5613601124
0.5632350289
0.5825271911
0.6519686928
0.7608191325
0.8571760366
0.9466914618
0.992400709
0.982018058
0.9873052004
0.9891044174
0.990114267
0.9915462023
0.9949384053
0.9970655564
0.5546486494
0.563086187
0.6037146616
0.6988854677
0.834814624
0.9465842053
0.9696388631
0.9890595693
1.000291408
0.9994333787
0.9966625771
0.9940050428
0.9919760295
0.9911412378
0.9919190131
0.9949452919
0.5770419587
0.6614370686
0.7722879425
0.8911952667
0.9304016107
0.9738028386
0.9830098262
0.988647022
0.9958858734
0.9977540897
0.9966802389
0.9956171977
0.9947585209
0.9939518784
0.9942865544
0.9961650207
0.7289894931
0.8426429711
0.9387057055
0.9905416202
0.9861553639
0.9881866679
0.9906813425
0.9906506572
0.9935660895
0.9955343326
0.9958962386
0.9962834311
0.9966399262
0.9973290788
0.9978487753
0.9983778615
0.9226395764
0.9528570688
0.9756105027
1.000293019
0.9996771652
0.9964785492
0.9960709021
0.9949336332
0.9944202112
0.9948029182
0.9952813925
0.9961809965
0.9969527111
0.9979760396
0.9988361225
0.9990434542
0.9772217201
0.984304648
0.9885460511
0.9951135849
0.9978827362
0.9962762895
0.9956042978
0.9960642358
0.9965698263
0.9970082013
0.9972182244
0.9972371367
0.9971581025
0.9975076048
0.9984088331
0.9986256053
0.9916658127
0.993897164
0.9907245404
0.9911461785
0.9927303588
0.9933969157
0.9942691462
0.9959038482
0.9972830186
0.9980411282
0.9982115868
0.9980623261
0.9975428856
0.9975839914
0.9981092528
0.9985791878
0.9948066337
0.9943630441
0.9904872855
0.9893780531
0.9902018007
0.9910148519
0.9929680136
0.9956437461
0.997211669
0.9977137354
0.9975543371
0.9969020777
0.9958744324
0.9955387515
0.9966328024
0.9984958729
0.9952946356
0.9931948924
0.9889532199
0.9882523512
0.9893288761
0.9901000502
0.9922357989
0.996073107
0.9982224509
0.9988703301
0.9985321563
0.9974535502
0.99577707
0.9951219693
0.9959436982
0.9980879215
0.9952800156
0.9931021957
0.989145542
0.9887260579
0.9899180631
0.9908453975
0.9931310828
0.9966373567
0.9994103313
0.9999100642
0.9992957363
0.99778176
0.9964587571
0.9956280692
0.9965321508
0.9979592088
0.9966146785
0.9932805604
0.9899856944
0.9895786306
0.9911198958
0.9926151698
0.9950926646
0.9979692186
0.9995777619
0.999790382
0.9993610047
0.9985141807
0.9972979727
0.9965125195
0.9973391298
0.9976654993
0.9985747601
0.9960700216
0.9930424934
0.9917825134
0.9932136991
0.9948681072
0.9969687852
0.9989855892
0.9995036478
0.999588366
0.9993211407
0.9988543781
0.9979653453
0.9981044815
0.99803905
0.9976807812
0.9992937189
0.9965847355
0.9939272406
0.9921652905
0.9939760007
0.996012512
0.9979178856
0.999259294
0.998986243
0.9988880961
0.999034036
0.9987725609
0.9984416762
0.9991314623
0.9988565492
0.9981022477
0.9990001864
0.9959492046
0.9934314528
0.9917983253
0.9936829466
0.9957865161
0.9979060937
0.9989564934
0.9984986578
0.9980514127
0.9980845927
0.9983368838
0.9988516957
0.9989304237
0.9990679547
0.9984030278
0.9984662187
0.9953562891
0.9922886237
0.9902924467
0.992088852
0.9944230595
0.997229083
0.9986240069
0.9985619483
0.9982168155
0.9972068519
0.9965551424
0.99681885
0.9974141749
0.9985371726
0.999045626
0.9916565824
0.9984583414
0.9942566922
0.9906816061
0.9887790492
0.9904996864
0.9929561463
0.9964058907
0.9983278751
0.9987484882
0.9985698101
0.997505583
0.9962028053
0.9953518556
0.9954120549
0.9969095792
0.9990106704
0.9932692565
0.9982486838
0.9935531213
0.9896207
0.9880775407
0.9898376586
0.9922710629
0.9958079008
0.9986862062
0.9999613585
0.9999608894
0.9977673781
0.9949955764
0.993645277
0.9936472347
0.9955300366
0.998622442
0.995578858
0.9988076164
0.9935108417
0.9892505333
0.9879043064
0.9897803438
0.9923114864
0.9961288083
1.000108404
1.001749725
1.001553194
1.000010929
0.9958097336
0.992970352
0.9930882675
0.9951433256
0.9977980784
0.9963525222
0.999673324
0.9940933424
0.9901062577
0.9896123386
0.9917903625
0.9947440891
0.9982102539
1.000564599
1.001539197
1.001507895
1.000794752
0.9987321231
0.9957044625
0.9939648951
0.995218927
0.9970284033
0.9960070283
0.9995466242
0.9945806757
0.991494165
0.9916369389
0.9941221651
0.9971849508
0.9996672232
1.000410454
1.000920547
1.000978558
1.000499898
0.9996416416
0.9987558126
0.9974798683
0.9962566021
0.996782958
0.9951150741
0.9992254407
0.9949559154
0.9923679278
0.9926596363
0.9955299645
0.9983302378
1.000183756
0.9999591162
0.999787698
0.9994955111
1.000102091
1.00024383
1.0001001
0.9996933142
0.9982976242
0.9947867687
0.998738747
0.9947875133
0.992369672
0.9923358383
0.9958795357
0.9984903608
1.000160212
1.000048004
0.9992157298
0.9985479714
0.9979699963
0.9983638906
0.9992852101
0.9997532338
0.99968627
0.9953840464
0.9982434728
0.9942603458
0.9914611617
0.9912771091
0.9946310012
0.9974101148
0.9993451362
0.9994662786
0.9991856376
0.9983734559
0.9970908059
0.9968156076
0.9971498898
0.9985863444
0.9996563732
0.9829417974
0.9965022432
0.9975168658
0.9928702661
0.9903296642
0.9902465278
0.9938688016
0.9968595008
0.9989134574
0.9992033544
0.9989911115
0.9980848929
0.9964494413
0.9953136062
0.9952969538
0.9965247037
0.9990595583
0.9830449995
0.9964677752
0.996582398
0.9911284321
0.989228701
0.9896554792
0.9933004311
0.9967000537
0.9995161601
1.000440591
1.000286139
0.9988958944
0.9959872529
0.9942443453
0.993855018
0.9949451166
0.9977330303
0.9827944168
0.9956383086
0.9956659028
0.9899816194
0.9886612489
0.9895201344
0.9937785176
0.9981160215
1.000922628
1.00195998
1.001944856
1.00106306
0.9977147751
0.9939849206
0.9930988866
)
;

boundaryField
{
    inlet
    {
        type            fixedValue;
        value           nonuniform 0();
    }
    outlet
    {
        type            zeroGradient;
    }
    bottom
    {
        type            slip;
    }
    top
    {
        type            slip;
    }
    obstacle
    {
        type            zeroGradient;
    }
    defaultFaces
    {
        type            empty;
    }
    procBoundary10to4
    {
        type            processor;
        value           nonuniform List<scalar> 
17
(
0.6980819819
0.6853089351
0.6724575839
0.6447531152
0.6268936391
1.037136516
0.9876422509
0.9362702034
0.8877442319
0.8552331117
0.8255342099
0.7856393132
0.7532653407
0.7393116098
0.7210748813
0.6878471289
0.6878471289
)
;
    }
    procBoundary10to5
    {
        type            processor;
        value           uniform 0.621568368;
    }
    procBoundary10to9
    {
        type            processor;
        value           nonuniform List<scalar> 
27
(
1.026130895
0.9583391539
0.8865712308
0.8276120142
0.7712940878
0.6941039524
0.6440785601
0.6051820601
0.5661488995
0.5581578389
0.555306611
0.6203103081
0.7966944885
0.9417756787
0.9799101501
0.9847137979
0.9848492073
0.9852198471
0.986373382
0.9877541831
0.9892790615
0.9907194097
0.9912560135
0.9912560135
0.9801123953
0.9806368511
0.9817889143
)
;
    }
    procBoundary10to11
    {
        type            processor;
        value           nonuniform List<scalar> 
34
(
0.6547696613
0.7831781589
0.8989535109
0.9768822341
0.9914507087
0.9897882586
0.9939266746
0.9970066873
0.9971480882
0.9971174996
0.9975964975
0.9983249398
0.9992492021
0.9985021099
0.9985096583
0.9987268963
0.9991629233
0.9991741012
0.9978531668
0.9969617376
0.9968723161
0.9971147038
0.9982815317
0.9992413424
0.9994307082
0.9992415966
0.9979934165
0.997000619
0.9966904981
0.9966904981
0.9976386559
0.99913867
0.9998226332
0.9996297846
)
;
    }
    procBoundary10to15
    {
        type            processor;
        value           nonuniform List<scalar> 9(0.9823625029 0.9824157581 0.9819232793 0.981682336 0.9821866404 0.9821866404 0.9889881032 0.9881782812 0.9867798852);
    }
    procBoundary10to16
    {
        type            processor;
        value           nonuniform List<scalar> 
18
(
0.99412092
0.9968631078
0.9830808294
0.9952226184
0.9948429108
0.9893216727
0.989168623
0.9907917065
0.9953752439
0.999412876
1.0016733
1.00238868
1.002224833
1.001550512
0.9995487832
0.9965149192
0.99412092
0.9941640963
)
;
    }
}


// ************************************************************************* //
