/*--------------------------------*- C++ -*----------------------------------*\
  =========                 |
  \\      /  F ield         | OpenFOAM: The Open Source CFD Toolbox
   \\    /   O peration     | Website:  https://openfoam.org
    \\  /    A nd           | Version:  7
     \\/     M anipulation  |
\*---------------------------------------------------------------------------*/
FoamFile
{
    version     2.0;
    format      ascii;
    class       volScalarField;
    location    "3.6";
    object      rho;
}
// * * * * * * * * * * * * * * * * * * * * * * * * * * * * * * * * * * * * * //

dimensions      [1 -3 0 0 0 0 0];

internalField   nonuniform List<scalar> 
2222
(
2.012921359
1.963451487
1.915675858
1.869159236
1.823412424
1.778228011
1.733689842
1.690213459
1.648526789
1.609373987
1.57306043
1.53944266
1.508281497
1.479070658
1.451274377
1.424732716
1.398420903
1.371463272
1.345089739
1.319459448
1.294368901
1.269802643
1.245907033
1.222730947
1.200468765
1.178928691
1.156322186
1.134595764
1.113339634
1.092422727
1.072418486
1.052334498
2.012782621
1.963277372
1.91546597
1.868934765
1.823197776
1.778045049
1.73354914
1.690117236
1.648457796
1.609312668
1.572998386
1.539353425
1.508123798
1.478806187
1.451072201
1.424438285
1.398298253
1.371544089
1.345067447
1.319396938
1.294288892
1.269746801
1.245854566
1.222792718
1.20039086
1.178742062
1.159569854
1.139176655
1.118106787
1.097136949
1.076761394
1.056726569
2.012674774
1.963134994
1.915288011
1.868763425
1.823069886
1.777960889
1.733481375
1.69005125
1.648376748
1.609241815
1.57303936
1.539582766
1.508421285
1.479066346
1.451298574
1.424339186
1.398026567
1.371997308
1.345603897
1.319848605
1.294686279
1.270156699
1.2462747
1.22319925
1.200708394
1.179223459
1.158054831
1.136839329
1.115791142
1.094775665
1.073781472
1.053370046
2.013087967
1.963566902
1.915704541
1.869224943
1.823618744
1.778530227
1.73394213
1.690338459
1.648501381
1.609328262
1.573482131
1.541079132
1.511052866
1.481879453
1.453344546
1.424947097
1.397614316
1.373101532
1.349249531
1.323875754
1.298737459
1.274244218
1.250449841
1.227385344
1.205005126
1.183061915
1.16083187
1.13916635
1.11803845
1.096826862
1.074434435
1.052775863
2.011164015
1.961548324
1.913626787
1.86711011
1.821545803
1.776645806
1.732365714
1.689071562
1.647483201
1.608430676
1.572270016
1.538736392
1.507500048
1.478178878
1.450279519
1.423362022
1.397144205
1.371201715
1.344457394
1.318704145
1.2935843
1.269151073
1.245492749
1.222566716
1.200392485
1.178460954
1.156544415
1.135107765
1.114082486
1.093294467
1.072731953
1.051928276
2.009752504
1.960084464
1.91208301
1.865517039
1.819987815
1.775219215
1.731150279
1.688102486
1.646698841
1.607706149
1.571477621
1.537836587
1.50657572
1.477324932
1.449307211
1.422396654
1.396480381
1.370483248
1.344152423
1.318554092
1.293380776
1.268862857
1.245157137
1.222189757
1.199959164
1.177976061
1.156213664
1.134913203
1.113999169
1.093342303
1.072747233
1.052335607
2.008635078
1.959025801
1.911013864
1.86442413
1.818904422
1.774167684
1.730134057
1.687145629
1.645839366
1.606936565
1.570846662
1.537492115
1.506499343
1.477452889
1.44931001
1.422151764
1.395874639
1.370351919
1.347386774
1.322402339
1.297179657
1.272558302
1.248766902
1.225743896
1.203375866
1.181445243
1.159847084
1.138601819
1.117631215
1.096856482
1.07622953
1.055947195
2.00691507
1.95734599
1.909348139
1.862775586
1.817310906
1.772671094
1.728771677
1.685968466
1.644899995
1.606181151
1.570117437
1.536650214
1.505467683
1.476134024
1.448347043
1.421296231
1.394978134
1.369468328
1.34290787
1.317354353
1.29213136
1.267385771
1.243483109
1.220521717
1.198209633
1.176525262
1.155204748
1.134085734
1.113265798
1.092644018
1.072179409
1.051715945
2.004954257
1.955483931
1.907534721
1.860988131
1.815580809
1.771067938
1.727356035
1.684737331
1.643803422
1.605180066
1.56919322
1.535746205
1.504484339
1.474955531
1.447348946
1.420671813
1.39429719
1.368830181
1.342310309
1.31699715
1.291931891
1.267214325
1.243223061
1.220174674
1.197815431
1.176179192
1.155021424
1.133860747
1.113002469
1.092392138
1.071978113
1.05137915
2.002766228
1.953457057
1.905606406
1.859110755
1.813729602
1.76923928
1.725604454
1.683153281
1.64242765
1.604007382
1.568189272
1.534860805
1.503668605
1.474192619
1.446209243
1.419454441
1.392923531
1.367695839
1.345387655
1.320942749
1.295731267
1.270717978
1.246464762
1.223256922
1.200888062
1.179261654
1.158300901
1.137183184
1.116328653
1.095723727
1.075163044
1.054758209
2.000261689
1.951127108
1.903387219
1.856938104
1.811565078
1.767096169
1.723587417
1.681409202
1.641010285
1.602857418
1.567188876
1.533921682
1.502754529
1.473255602
1.444955789
1.417896054
1.391957346
1.366211946
1.339905338
1.314812142
1.289963862
1.265234787
1.241297177
1.218125977
1.195771457
1.17406515
1.153188612
1.132264473
1.111421224
1.09102164
1.070626137
1.050231824
1.997427736
1.948495361
1.900899055
1.854540987
1.809252002
1.764890412
1.721510286
1.679494799
1.639324094
1.60143283
1.565982837
1.532844889
1.50172629
1.472226195
1.444008367
1.416675355
1.390069083
1.363934814
1.337968052
1.312936017
1.288625475
1.264266295
1.240504182
1.217111513
1.194476865
1.172622351
1.151630189
1.131534839
1.111054462
1.090678494
1.070299444
1.049797619
1.99433905
1.945638234
1.898232566
1.851987911
1.806733982
1.762377663
1.71905161
1.677213559
1.637369533
1.599850443
1.564689261
1.531712941
1.500663615
1.471297381
1.443086637
1.415424224
1.388640585
1.362188506
1.336623205
1.311478655
1.287908345
1.266671463
1.243533571
1.218884075
1.194820622
1.172499913
1.150780733
1.131371213
1.113325478
1.093433751
1.073149137
1.052857991
1.990998313
1.942485885
1.895236511
1.849081544
1.803881277
1.759640721
1.716540666
1.674976812
1.635407695
1.598171867
1.563264932
1.53043088
1.499421218
1.470004346
1.441741624
1.414335485
1.387411378
1.360468939
1.334773516
1.31042391
1.286059887
1.261288661
1.238290693
1.216212277
1.193809176
1.171439827
1.150140886
1.129933146
1.108709302
1.08835018
1.06790419
1.047757036
1.987389973
1.939049352
1.891999186
1.846021694
1.800937418
1.756762267
1.713746591
1.672344177
1.633039265
1.59617261
1.561646266
1.529051484
1.498153146
1.468692719
1.440374056
1.41324113
1.386377434
1.359555278
1.33341351
1.308535759
1.284211982
1.259500757
1.236116951
1.214917289
1.193571668
1.171098281
1.149809623
1.128738016
1.107628433
1.087197958
1.066832816
1.046523328
1.983623831
1.9354078
1.888494814
1.842611264
1.797573722
1.753480061
1.710698585
1.669690724
1.63080516
1.594260324
1.559927872
1.527450632
1.496646745
1.467167469
1.438803779
1.411491982
1.384870141
1.358530685
1.332046937
1.306320484
1.282303613
1.259108831
1.23586018
1.213448078
1.192318277
1.170895361
1.149562988
1.12781112
1.107022739
1.086678536
1.066518383
1.046495904
1.979631356
1.931454087
1.884644059
1.83890003
1.794037584
1.750143081
1.707552668
1.666760529
1.628160155
1.591904359
1.557805417
1.525555442
1.494939501
1.465483282
1.43708438
1.409456589
1.382873914
1.357283941
1.331462855
1.305616199
1.280490037
1.256933505
1.234302474
1.211660545
1.190562986
1.171853814
1.15080084
1.128313245
1.106373456
1.084921528
1.06579834
1.048457731
1.975511994
1.927346499
1.880633079
1.834994519
1.790205941
1.746401871
1.704002305
1.663576576
1.625513984
1.589784954
1.556001478
1.523836957
1.493099732
1.463555567
1.435381795
1.408070176
1.381347265
1.355488989
1.330091751
1.304469935
1.278981848
1.254821045
1.232480217
1.210922477
1.189480415
1.168238771
1.147469771
1.126846543
1.105614595
1.084514982
1.064879644
1.04456123
1.971248795
1.92299799
1.876281461
1.830691834
1.786018132
1.742467757
1.700456928
1.660433714
1.622720138
1.587298771
1.553774121
1.521782359
1.491098374
1.461568459
1.433212733
1.405696282
1.378767926
1.352890579
1.328467204
1.303853549
1.278695664
1.25428901
1.23098663
1.208816738
1.187260983
1.165821499
1.145566924
1.125852231
1.106003438
1.08555867
1.064078075
1.043252167
1.966844705
1.918426211
1.871680109
1.826206224
1.781726322
1.738385947
1.696630023
1.656966646
1.619697123
1.584739616
1.551646186
1.519926309
1.489244373
1.459481764
1.43067598
1.402950311
1.37658746
1.351109381
1.325849438
1.301188622
1.277047612
1.253108476
1.229560587
1.206994291
1.185508287
1.164760331
1.144146938
1.123226727
1.102735343
1.082760628
1.062188372
1.041970962
1.962358287
1.913786787
1.866967339
1.821487617
1.777079996
1.733938327
1.692577711
1.653518006
1.616872071
1.58232742
1.549459716
1.517875371
1.48731444
1.457678917
1.428887956
1.400956666
1.374122845
1.348103934
1.322598552
1.298453431
1.275612846
1.252545979
1.229036842
1.206203263
1.184370314
1.163334819
1.142471482
1.121387081
1.10066697
1.080930329
1.061084724
1.040834584
1.957753654
1.908883046
1.861821282
1.816285347
1.772104225
1.729412408
1.688550867
1.649974626
1.613814634
1.579683895
1.5471319
1.515812989
1.485471498
1.455880735
1.426936727
1.39867676
1.371324539
1.345219443
1.32047163
1.296271021
1.272400174
1.249376618
1.226989719
1.204864384
1.182950395
1.161582512
1.140915795
1.120622661
1.100147288
1.079665006
1.059802047
1.039922786
1.952921909
1.903876792
1.856729758
1.811183082
1.767077287
1.724601609
1.684119585
1.646059723
1.610566724
1.577175787
1.545167292
1.514102984
1.483849472
1.45422601
1.425214767
1.396938929
1.36953868
1.343125228
1.317807456
1.293306477
1.269357411
1.246460674
1.224902672
1.203723135
1.182191591
1.160724628
1.139762586
1.119410042
1.098972073
1.078283221
1.0581131
1.039020431
1.948079922
1.898749217
1.851272973
1.805468497
1.761345279
1.719237715
1.679482383
1.642227737
1.607343613
1.574424451
1.54285023
1.512072313
1.481864244
1.452120518
1.423012727
1.394729221
1.367260703
1.340454034
1.314635549
1.290439357
1.267564888
1.245005399
1.222776039
1.201370573
1.180376902
1.15917447
1.138027915
1.117787662
1.097856156
1.077469941
1.057589406
1.03797073
1.942726906
1.893150843
1.845581146
1.799871559
1.75596396
1.714122485
1.674708003
1.637880391
1.603426837
1.571058865
1.540256179
1.510073055
1.479989988
1.450127331
1.420919287
1.392589491
1.365154287
1.338488979
1.312731985
1.288220567
1.265017915
1.242487909
1.220171752
1.198712581
1.178303306
1.157969783
1.137275709
1.116691429
1.096438849
1.07634688
1.05637882
1.036549039
1.937617798
1.887882069
1.84005128
1.794090485
1.750049227
1.708278312
1.669231674
1.633145946
1.59963923
1.567893195
1.537187569
1.50699585
1.477004684
1.447238479
1.418046356
1.389635313
1.362209533
1.335837258
1.310275701
1.285446852
1.261876196
1.23990817
1.218667995
1.197463801
1.176483992
1.155900056
1.135279305
1.114542498
1.094612294
1.075398953
1.055556424
1.035794787
1.931936975
1.881877557
1.833809637
1.787954501
1.744371322
1.703227241
1.664747859
1.629006561
1.595658875
1.564031831
1.533574376
1.503771703
1.474112261
1.444473009
1.415194276
1.386560331
1.358900442
1.33264493
1.3077377
1.283605893
1.260188323
1.237812806
1.216350739
1.195130619
1.173914138
1.153356597
1.133474048
1.11340992
1.093274209
1.073504891
1.053735039
1.033767744
1.926494657
1.876525312
1.828380721
1.782362696
1.738712141
1.697738208
1.659593529
1.624246353
1.591384848
1.560358089
1.530392647
1.500768177
1.471124292
1.441434076
1.412093312
1.383666754
1.356270327
1.32971666
1.304502977
1.280667817
1.257429947
1.234809824
1.213504124
1.193024564
1.172464951
1.151847744
1.131415134
1.111128714
1.090910399
1.071352416
1.051970896
1.032494186
1.920690638
1.870523222
1.822053493
1.775867859
1.732520132
1.692260909
1.654956477
1.620356737
1.587970075
1.557083505
1.527094038
1.497492979
1.467969911
1.438426097
1.409176287
1.380674517
1.353131164
1.326332295
1.300707288
1.277077649
1.254859267
1.233080652
1.211659726
1.190729038
1.170111959
1.149509446
1.129141457
1.109352443
1.089623175
1.069702328
1.05043261
1.031565285
1.914426533
1.864527417
1.816282261
1.77022847
1.726896555
1.686741062
1.649816573
1.615781905
1.583931987
1.553422981
1.523663544
1.494232769
1.464908708
1.435550674
1.406178229
1.377150801
1.349544201
1.323761394
1.298944868
1.274937665
1.25212585
1.230182177
1.208640032
1.187907945
1.167853523
1.147885989
1.127684846
1.107298667
1.087184526
1.067482924
1.048577208
1.030669599
1.908391222
1.858366414
1.809922068
1.763627441
1.720231016
1.680444852
1.64428275
1.611132757
1.580055505
1.550083777
1.520611153
1.491289615
1.461954742
1.432525899
1.403294217
1.374666271
1.34700513
1.320773089
1.295831719
1.271597281
1.248653499
1.22745019
1.206849704
1.186185388
1.165549666
1.14534896
1.125568502
1.105626235
1.085711038
1.066047259
1.046575098
1.029327006
1.901233259
1.851194397
1.802978493
1.757187998
1.714356499
1.674942046
1.639027279
1.606163856
1.575470056
1.54594202
1.516840031
1.487698021
1.458398626
1.429064169
1.400061958
1.371542836
1.34341218
1.316543595
1.292127347
1.269218407
1.246923214
1.225306066
1.204088618
1.183286638
1.163223539
1.143500533
1.123875413
1.104247514
1.084107448
1.063869967
1.045029582
1.026754127
1.895253694
1.845297969
1.796890924
1.750799336
1.707769378
1.668423775
1.632879162
1.600589067
1.570545838
1.54164946
1.51307939
1.484291248
1.455089102
1.425522049
1.396070042
1.367631307
1.340540257
1.314335103
1.289286283
1.265875014
1.243415685
1.22194657
1.201643495
1.181605698
1.161564901
1.141269451
1.121040098
1.101849335
1.082684212
1.063066893
1.043925181
1.024773576
1.888136328
1.838015825
1.789480133
1.743531502
1.701053686
1.662477257
1.627592933
1.595733138
1.565981481
1.537314471
1.508906384
1.480169528
1.451036139
1.421960265
1.393201262
1.364768544
1.337307093
1.31080555
1.285190064
1.261889292
1.24074366
1.220056498
1.19944308
1.178877168
1.158672351
1.139292343
1.119836356
1.100026191
1.08070031
1.061736434
1.04234404
1.022616318
1.881467276
1.831645973
1.78333104
1.737500759
1.69502237
1.656478399
1.621784577
1.590247395
1.560849704
1.532456402
1.504284698
1.475941179
1.447372475
1.41865102
1.389748941
1.360723183
1.332750055
1.307122842
1.283013501
1.25977499
1.237661649
1.216353712
1.195992395
1.176789242
1.157387601
1.137742383
1.117991204
1.097738734
1.078165108
1.059990236
1.041215029
1.021833375
1.874246071
1.824471634
1.776213535
1.730456997
1.688186618
1.650079631
1.615934861
1.584842512
1.555773494
1.527783639
1.500089849
1.472006135
1.443232294
1.413982122
1.385386884
1.357723902
1.330520863
1.304308666
1.27954186
1.255694654
1.233577441
1.213728293
1.19420975
1.174531174
1.154637367
1.134639963
1.11553824
1.096634213
1.077345279
1.058015489
1.039190283
1.020606298
1.866610254
1.817076902
1.769181487
1.723951835
1.682256949
1.644569415
1.610653701
1.579758238
1.550921963
1.523000824
1.495101049
1.466981477
1.4390057
1.410882952
1.382359406
1.354180731
1.326535861
1.29971729
1.275294126
1.253022256
1.231503214
1.210762258
1.190619066
1.170952634
1.152206728
1.133168455
1.113803132
1.094933169
1.07584642
1.0562858
1.037241426
1.019152932
1.859026428
1.809751699
1.762108558
1.717169874
1.675797296
1.638441933
1.604867315
1.574238098
1.545486822
1.517723845
1.490490126
1.463154353
1.435319287
1.40675975
1.377569861
1.349149375
1.322685078
1.297308814
1.272822665
1.249761911
1.227578499
1.206567155
1.187743012
1.169247656
1.150063232
1.130637407
1.110929275
1.092256577
1.074456431
1.055961607
1.037058769
1.018202382
1.850660877
1.801533097
1.754245972
1.709922452
1.669282433
1.632537212
1.599328957
1.568927878
1.540464062
1.513016842
1.485728216
1.457873563
1.42960655
1.401826453
1.374338724
1.346598442
1.319453764
1.293548523
1.268507412
1.245311639
1.224548815
1.204631801
1.18484987
1.165528485
1.146329949
1.127957282
1.109688797
1.090905635
1.072104054
1.053520617
1.034762413
1.015922414
1.842296329
1.793696844
1.746961376
1.703139038
1.66290258
1.626480935
1.593563841
1.563397188
1.534960158
1.507320294
1.48029626
1.453550627
1.426291365
1.398375707
1.370265975
1.342044952
1.314392534
1.289155095
1.26583428
1.243259203
1.221574019
1.200788497
1.180462735
1.161877665
1.144223736
1.12574261
1.106828515
1.087796087
1.069171334
1.051491875
1.033479226
1.014933106
1.8336331
1.785306278
1.738875367
1.695502923
1.65585893
1.620011437
1.587445368
1.557418325
1.529335371
1.502503051
1.475947814
1.448910104
1.42112258
1.392589597
1.36464125
1.338052186
1.311935788
1.28644762
1.262348367
1.23925106
1.217083379
1.197099567
1.178366956
1.159474978
1.140720028
1.122259711
1.1040972
1.085963788
1.06789472
1.049949485
1.031973514
1.013363455
1.824403639
1.776579023
1.730833295
1.688268091
1.649304767
1.613894675
1.58169287
1.552034781
1.524065826
1.496822556
1.469647345
1.44278323
1.416201943
1.389117726
1.36165831
1.334411439
1.307770632
1.28171519
1.257590577
1.235924103
1.215094
1.194667572
1.174993799
1.15574532
1.137236247
1.119659072
1.101966466
1.083823551
1.065327312
1.046829419
1.029565652
1.012498318
1.815314964
1.768168256
1.723044275
1.681000267
1.642507743
1.607565336
1.575643061
1.545798835
1.517544162
1.490900693
1.465069841
1.43865874
1.411610702
1.38422328
1.356352787
1.328783353
1.303203169
1.278982145
1.255352724
1.232766985
1.211272051
1.190304049
1.170668405
1.152632064
1.134815269
1.116796775
1.098998762
1.081411285
1.063568871
1.045669372
1.027709197
1.009798849
1.805681135
1.75916235
1.714745015
1.673470526
1.635674839
1.601126053
1.56935056
1.540030996
1.512572037
1.485852187
1.459139344
1.431998455
1.404786871
1.378303693
1.352210137
1.326017025
1.300045569
1.275048343
1.250873107
1.227865821
1.207161538
1.187765361
1.168387836
1.149436361
1.131434531
1.113950461
1.096507156
1.078791765
1.060911371
1.04303281
1.024916018
1.006893158
1.795966845
1.750290021
1.706770917
1.66631065
1.629151892
1.595147115
1.563805591
1.534396205
1.506266803
1.478902897
1.452710189
1.42718984
1.401077685
1.374378678
1.347655435
1.321053081
1.29464791
1.270051385
1.247467258
1.225691136
1.204507414
1.184320048
1.164803791
1.145887918
1.127952207
1.110544316
1.093080974
1.075599841
1.058217987
1.040431227
1.02249207
1.005125864
1.786044219
1.741223153
1.698578416
1.65894275
1.622494625
1.588897759
1.557405115
1.527669198
1.50011806
1.474020123
1.448017367
1.421581589
1.394852147
1.367728296
1.341079684
1.316019723
1.291702034
1.267445553
1.243896219
1.221469421
1.199773543
1.179676994
1.161510104
1.143835301
1.125995786
1.108466289
1.091385825
1.074194851
1.056371693
1.038263445
1.020671933
1.003046123
1.775871052
1.731950905
1.690243916
1.651370222
1.615306465
1.581942817
1.551182121
1.522433421
1.494735458
1.467637355
1.441015905
1.415130624
1.389538076
1.363650327
1.337858596
1.312270643
1.287042267
1.262222289
1.238592197
1.217235201
1.197091658
1.177518306
1.158575022
1.140626337
1.123238629
1.105940509
1.088539079
1.071020871
1.05379002
1.036737061
1.018938354
1.000652814
1.7656782
1.722751066
1.682003791
1.644017789
1.608863519
1.576198669
1.545371792
1.51575255
1.487187949
1.460142815
1.434800805
1.409663809
1.384000386
1.358147743
1.332081811
1.306012005
1.281509095
1.258678498
1.236188679
1.214264504
1.193444377
1.173549979
1.154316917
1.136271435
1.119440421
1.103009593
1.086297134
1.069360179
1.052299194
1.034699129
1.016319576
0.9978225532
1.755308408
1.713371679
1.673599737
1.636367011
1.60155859
1.568765044
1.537813116
1.5092151
1.48219439
1.45556005
1.429289356
1.403345739
1.377797641
1.352497976
1.327311782
1.302589805
1.278343084
1.254474237
1.231276597
1.208980544
1.188479697
1.169838667
1.151946248
1.134415364
1.11721859
1.100416304
1.0837695
1.066778901
1.049139467
1.031600568
1.014444616
0.9967489329
1.74487353
1.704049954
1.665273507
1.628782117
1.594711902
1.562811688
1.53265861
1.503770477
1.475747737
1.448609856
1.422396498
1.397095476
1.372298272
1.347398375
1.322354958
1.297358576
1.272458102
1.248811408
1.227087531
1.206264253
1.18606289
1.166778897
1.148590845
1.131086248
1.113746437
1.096561878
1.079989617
1.064150793
1.047774252
1.030166632
1.012047346
0.9941363383
1.734436342
1.694533319
1.656518088
1.620863899
1.587517801
1.555800225
1.525233621
1.495786534
1.468216941
1.442001712
1.416211768
1.390730909
1.365537401
1.3405
1.315741265
1.291859073
1.268720535
1.245953207
1.22358406
1.202185716
1.181678969
1.162141944
1.143996809
1.127231326
1.110990247
1.094783847
1.078501144
1.061919605
1.045005658
1.027389386
1.009049418
0.9908234199
1.723747557
1.685034125
1.648256584
1.61339422
1.580324301
1.548900396
1.519111903
1.490700914
1.46309458
1.436232812
1.410274479
1.385048988
1.360430122
1.336171717
1.312060429
1.287966461
1.263908393
1.24036166
1.217858692
1.197339739
1.178198192
1.159799824
1.141989732
1.124741749
1.10812192
1.09189143
1.075402988
1.05836457
1.041285646
1.024658553
1.007675027
0.9897794464
1.713202044
1.675439488
1.63939149
1.60520049
1.572754159
1.541780662
1.512052111
1.483132629
1.454948528
1.427950355
1.40225024
1.377461768
1.353283799
1.329385903
1.305360318
1.281319615
1.258399839
1.236508485
1.215097338
1.194481472
1.17482464
1.156276943
1.138380345
1.120842057
1.103883249
1.088007236
1.072626621
1.056720072
1.040016154
1.022597022
1.004881021
0.9869071238
1.702478653
1.665714696
1.630666285
1.597358454
1.565382534
1.534604279
1.50522021
1.476944796
1.449618921
1.423123112
1.397340616
1.372208315
1.347717122
1.323753845
1.300210012
1.277241847
1.254481547
1.231872399
1.210024707
1.189168959
1.1695689
1.151560614
1.134704417
1.118346632
1.102190289
1.086090454
1.069939352
1.053740122
1.037000696
1.019433042
1.001373023
0.9836768931
1.691555154
1.655906543
1.621930575
1.589354292
1.557893899
1.527544931
1.498305207
1.469895035
1.442358924
1.415675608
1.389871336
1.364900183
1.340668628
1.317027018
1.293838943
1.270951886
1.248505138
1.227011046
1.206132801
1.186083115
1.167152316
1.149209502
1.131929758
1.115255693
1.09886802
1.082391932
1.065843234
1.04969661
1.033784101
1.017399907
1.000209787
0.9823289315
1.680851648
1.646067917
1.612746816
1.580744249
1.549696075
1.51952955
1.490400392
1.462335115
1.435249434
1.408874469
1.383220144
1.358356942
1.334323144
1.310962961
1.288035121
1.2658441
1.244176056
1.222766111
1.201927241
1.182093002
1.163159506
1.144959232
1.127347887
1.110643977
1.095124853
1.079912409
1.064228986
1.048148942
1.031547168
1.014601927
0.9972567066
0.9792630852
1.636248288
1.603973757
1.572812899
1.542511117
1.513020572
1.484275176
1.456139926
1.428717634
1.402124468
1.376482853
1.351827268
1.328059858
1.304835594
1.281866858
1.259434237
1.237734061
1.217099401
1.197298731
1.178039084
1.159379444
1.141683855
1.124895242
1.108803509
1.092847847
1.076807013
1.06070238
1.044295478
1.0274046
1.010298229
0.9933831398
0.9768476934
1.625625751
1.59385093
1.5632897
1.5334608
1.504112238
1.475232086
1.44695778
1.419619184
1.393322164
1.368041751
1.343769382
1.320445961
1.29795478
1.276203529
1.255038916
1.234216402
1.213805525
1.193771564
1.174362558
1.155721387
1.138014736
1.121055828
1.104528069
1.088098131
1.072206867
1.056980886
1.041384325
1.025093522
1.008547952
0.9916799559
0.9741640449
1.616239333
1.585697942
1.555805296
1.526416326
1.497525317
1.469149303
1.441335122
1.41429522
1.388092329
1.362828903
1.338627483
1.315450932
1.2930315
1.271021107
1.249346066
1.228056097
1.207544388
1.187877323
1.168965135
1.150551262
1.132964399
1.116681501
1.101246109
1.085820103
1.070376281
1.054454986
1.038135459
1.021652604
1.004925145
0.9875616686
0.9699325719
1.605332782
1.574896428
1.545442823
1.516765851
1.488509999
1.460450461
1.432651172
1.40547691
1.379179457
1.353997945
1.330015271
1.307037329
1.284965909
1.264029677
1.243897312
1.223758415
1.204039665
1.184901951
1.166266666
1.148171314
1.130915199
1.114211358
1.097764224
1.081688129
1.065692719
1.049459875
1.033310045
1.017160269
1.000641065
0.9836512671
0.9670044094
1.594672426
1.565882584
1.53731128
1.508910421
1.480749795
1.45286764
1.425329632
1.398469076
1.372538916
1.347776611
1.32424767
1.301873967
1.280618892
1.259916981
1.239155672
1.218583643
1.198799447
1.179838363
1.161620251
1.143795557
1.126266266
1.109007114
1.092743597
1.077805328
1.062761007
1.047217458
1.031450216
1.015230087
0.9986169535
0.981694614
0.9646818565
1.584906251
1.555952546
1.527460251
1.499416911
1.471762131
1.444392912
1.41727163
1.390686732
1.364932872
1.340323272
1.31692396
1.294595835
1.273127678
1.252107353
1.231724671
1.212547949
1.194186207
1.175863237
1.157891771
1.140285123
1.123087063
1.106571729
1.090775821
1.074887045
1.058928638
1.043112872
1.027234165
1.011095454
0.9947199526
0.9781458296
0.9615357955
1.571729815
1.544077706
1.517073396
1.490065419
1.463000444
1.436010581
1.409153654
1.382669663
1.357068336
1.332849105
1.30995271
1.288215179
1.267553461
1.247630708
1.228349709
1.209115043
1.189790579
1.171026248
1.153161862
1.135800808
1.11874571
1.102027797
1.085577902
1.06947163
1.054349138
1.03956307
1.02415229
1.008213873
0.9918891451
0.9752315513
0.9585029154
1.562924284
1.535968903
1.508904563
1.481748561
1.454660182
1.427806792
1.401378835
1.375738998
1.350890138
1.326879174
1.303910117
1.282086345
1.26138028
1.241401423
1.221792471
1.202197168
1.183209903
1.165508198
1.148630909
1.131756585
1.115041741
1.0986883
1.082767734
1.067396599
1.052091806
1.036371106
1.020508317
1.00459283
0.9885760357
0.9723606139
0.9559560547
1.550180172
1.522969947
1.496183526
1.469786211
1.443731858
1.41810736
1.392742127
1.367277536
1.342076512
1.317922846
1.295181606
1.27404637
1.254392662
1.235571754
1.217036999
1.198603549
1.180648996
1.162781499
1.144987498
1.127606904
1.110777444
1.094343407
1.078264334
1.062466275
1.046666757
1.031072208
1.01608901
1.000933879
0.9848724746
0.9684140006
0.9518378696
1.539081912
1.513695436
1.488334743
1.462870046
1.437163721
1.411235797
1.38509891
1.359519452
1.33565231
1.312940743
1.290909267
1.26997699
1.25006032
1.230690405
1.211718331
1.193054231
1.174668006
1.156388835
1.138829374
1.122232335
1.106177074
1.09035675
1.074705609
1.059243965
1.044053948
1.029149129
1.014010171
0.9980703928
0.9817728222
0.9658658977
0.949889523
1.528625367
1.502901122
1.477327382
1.451703959
1.425854437
1.40003983
1.375225041
1.352197784
1.329169206
1.305765571
1.283248352
1.262014507
1.24191215
1.222760739
1.204855754
1.187912484
1.170791004
1.153399868
1.136370805
1.119486649
1.102838063
1.086533463
1.070528983
1.054885445
1.039504819
1.024188286
1.008570702
0.9932519726
0.9787000397
0.9631053539
0.9466562338
1.514650214
1.490563159
1.466746252
1.442649466
1.418098896
1.393613888
1.369355452
1.344645645
1.320228643
1.29780156
1.277064237
1.256858578
1.237499532
1.219203904
1.201557098
1.18360337
1.165473443
1.147642075
1.130167573
1.113030403
1.096556344
1.080893524
1.065877829
1.051036561
1.036040057
1.021056162
1.006042057
0.9908218885
0.9747863701
0.9583983539
0.9422950159
1.50603626
1.482230414
1.458126495
1.433619363
1.408824686
1.384016175
1.359027502
1.334729507
1.312925012
1.292066424
1.270862486
1.250332129
1.230990539
1.212422582
1.194138942
1.176178158
1.159595692
1.143387469
1.12662292
1.110043759
1.094098484
1.078510437
1.062840537
1.047187458
1.031802943
1.01665937
1.001399071
0.9858982031
0.971055689
0.956288202
0.9407021975
1.492362505
1.46860111
1.445041788
1.421908112
1.399161427
1.376008123
1.352475051
1.32965755
1.306919081
1.284361596
1.263474112
1.244044069
1.225330579
1.207121949
1.189661702
1.172975463
1.156098733
1.138424085
1.121119709
1.104457203
1.088271772
1.072340807
1.056746685
1.042020054
1.027736206
1.013188019
0.9983909681
)
;

boundaryField
{
    inlet
    {
        type            calculated;
        value           nonuniform 0();
    }
    outlet
    {
        type            calculated;
        value           nonuniform 0();
    }
    bottom
    {
        type            calculated;
        value           nonuniform List<scalar> 
32
(
2.012921359
1.963451487
1.915675858
1.869159236
1.823412424
1.778228011
1.733689842
1.690213459
1.648526789
1.609373987
1.57306043
1.53944266
1.508281497
1.479070658
1.451274377
1.424732716
1.398420903
1.371463272
1.345089739
1.319459448
1.294368901
1.269802643
1.245907033
1.222730947
1.200468765
1.178928691
1.156322186
1.134595764
1.113339634
1.092422727
1.072418486
1.052334498
)
;
    }
    top
    {
        type            calculated;
        value           nonuniform 0();
    }
    obstacle
    {
        type            calculated;
        value           nonuniform 0();
    }
    defaultFaces
    {
        type            empty;
    }
    procBoundary4to3
    {
        type            processor;
        value           nonuniform List<scalar> 
62
(
2.064441421
2.064299337
2.064163019
2.064433242
2.062624652
2.061177504
2.059893603
2.058067804
2.055945727
2.053543921
2.050838556
2.047804115
2.044521724
2.0410423
2.037355406
2.033555622
2.029626751
2.02561381
2.021520647
2.017347103
2.013063449
2.008702656
2.004072617
1.99939052
1.994274996
1.989159036
1.983665135
1.97797526
1.972198556
1.965692548
1.959633389
1.952584616
1.946208229
1.939156885
1.932056903
1.924783745
1.916926998
1.909019731
1.900567166
1.891704636
1.882710028
1.873037109
1.86328884
1.853074499
1.842614996
1.83193739
1.820970911
1.809889983
1.798646373
1.787217642
1.775833463
1.764153307
1.752563434
1.740832374
1.728930356
1.717192782
1.669844011
1.669844011
1.658833031
1.64766826
1.636843422
1.624347448
)
;
    }
    procBoundary4to5
    {
        type            processor;
        value           nonuniform List<scalar> 
69
(
1.031661876
1.036084026
1.032665379
1.032761677
1.033521185
1.033154118
1.033535163
1.031913866
1.032258934
1.03310066
1.030574353
1.030696375
1.030982755
1.028382159
1.027660946
1.027213775
1.029403191
1.024188406
1.022854017
1.0220277
1.02133565
1.020693017
1.019920871
1.018315295
1.017747366
1.017135752
1.015849593
1.013819938
1.012101445
1.011723161
1.013186429
1.007792437
1.005655545
1.004318176
1.003471998
1.001897824
1.001038098
0.9993932458
0.9975786324
0.9966064581
0.9944621642
0.9940958796
0.9919045051
0.9896475286
0.9876944606
0.984985646
0.9827473835
0.9798914475
0.978576771
0.9761750495
0.9731432477
0.9714605486
0.9685621329
0.9663940313
0.9642414892
0.9609627859
0.9598382994
0.9563201114
0.9532353557
0.950317811
0.9477136585
0.9447740161
0.9418105485
0.9393855808
0.9351486228
0.9336298507
0.9300654494
0.9268054037
0.9245298951
)
;
    }
    procBoundary4to9