/*--------------------------------*- C++ -*----------------------------------*\
  =========                 |
  \\      /  F ield         | OpenFOAM: The Open Source CFD Toolbox
   \\    /   O peration     | Website:  https://openfoam.org
    \\  /    A nd           | Version:  7
     \\/     M anipulation  |
\*---------------------------------------------------------------------------*/
FoamFile
{
    version     2.0;
    format      ascii;
    class       volVectorField;
    location    "4.7";
    object      U;
}
// * * * * * * * * * * * * * * * * * * * * * * * * * * * * * * * * * * * * * //

dimensions      [0 1 -1 0 0 0 0];

internalField   nonuniform List<vector> 
555
(
(3 -1.593075878e-15 0)
(3 -1.407732993e-15 0)
(3 -1.341415701e-15 0)
(3 3.861350666e-17 0)
(3 -7.848852997e-16 0)
(3 8.115409909e-16 0)
(3 2.084914508e-15 0)
(3 3.052854789e-15 0)
(3 3.336837494e-15 0)
(3 4.086788197e-15 0)
(3 4.603677207e-15 0)
(3 5.101982278e-15 0)
(3 5.161219002e-15 0)
(3 4.530197287e-15 0)
(3 2.326213584e-15 0)
(3 -4.433647013e-16 0)
(3 -8.084365947e-16 0)
(3 -4.654262826e-15 0)
(3 -4.57197359e-15 0)
(3 -7.466577564e-15 0)
(3 -6.456690669e-15 0)
(3 -8.293115028e-15 0)
(3 -1.121639543e-14 0)
(3 -1.383337087e-14 0)
(3 -1.125172405e-14 0)
(3 -1.073296653e-14 0)
(3 -1.149915587e-14 0)
(3 -8.847946013e-15 0)
(3 -6.717485847e-15 0)
(3 -5.547627718e-15 0)
(3 -1.756730074e-15 0)
(3 -8.970965919e-16 0)
(3 -1.103922495e-15 0)
(3 -1.551856293e-15 0)
(3 -1.259043172e-15 0)
(3 4.197155114e-16 0)
(3 2.091886728e-15 0)
(3 1.827173745e-15 0)
(3 2.878444421e-15 0)
(3 6.412289835e-15 0)
(3 6.660946588e-15 0)
(3 6.853896917e-15 0)
(3 8.083439378e-15 0)
(3 8.654352614e-15 0)
(3 9.227639847e-15 0)
(3 9.056410114e-15 0)
(3 7.591007071e-15 0)
(3 6.66954843e-15 0)
(3 -3.24183657e-16 0)
(3 -5.023801432e-15 0)
(3 -1.171088084e-14 0)
(3 -1.613582072e-14 0)
(3 -1.754597333e-14 0)
(3 -1.588615246e-14 0)
(3 -1.393102832e-14 0)
(3 -1.347894927e-14 0)
(3 -1.341794716e-14 0)
(3 -1.296111848e-14 0)
(3 -1.533904096e-14 0)
(3 -1.408263353e-14 0)
(3 -1.098502444e-14 0)
(3 -4.919001211e-15 0)
(3 1.393982817e-15 0)
(3 3.86969758e-15 0)
(3 -1.771749742e-16 0)
(3 -2.681654903e-15 0)
(3 9.244743684e-16 0)
(3 1.538142804e-15 0)
(3 1.794645187e-15 0)
(3 1.836000947e-15 0)
(3 2.663482955e-15 0)
(3 2.209672272e-15 0)
(3 5.67492319e-15 0)
(3 5.807719418e-15 0)
(3 7.023253159e-15 0)
(3 7.882737472e-15 0)
(3 1.07189993e-14 0)
(3 1.077742043e-14 0)
(3 1.055601144e-14 0)
(3 9.293403998e-15 0)
(3 7.038618036e-15 0)
(3 4.452494786e-15 0)
(3 4.215189875e-15 0)
(3 -1.168446711e-15 0)
(3 -1.004546754e-15 0)
(3 -4.097471908e-15 0)
(3 -5.922105706e-15 0)
(3 -6.268541122e-15 0)
(3 -7.246772723e-15 0)
(3 -8.551974372e-15 0)
(3 -1.616632339e-14 0)
(3 -1.829948032e-14 0)
(3 -1.73844361e-14 0)
(3 -1.53792438e-14 0)
(3 -1.220878237e-14 0)
(3 -7.690202346e-15 0)
(3 -9.924749115e-15 0)
(3 -1.260760139e-14 0)
(3 -1.34885996e-14 0)
(3 8.168736513e-16 0)
(3 3.399979788e-15 0)
(3 4.248375727e-15 0)
(3 4.560145261e-15 0)
(3 4.847675211e-15 0)
(3 3.239744079e-15 0)
(3 2.31953027e-15 0)
(3 2.19299044e-15 0)
(3 2.309212555e-15 0)
(3 2.288085237e-15 0)
(3 3.606755088e-15 0)
(3 2.781297187e-15 0)
(3 2.98892216e-15 0)
(3 1.868225041e-15 0)
(3 1.567271222e-15 0)
(3 2.093963522e-15 0)
(3 3.305175752e-15 0)
(3 3.593752983e-15 0)
(3 6.851845358e-15 0)
(3 6.432461775e-15 0)
(3 7.638655775e-15 0)
(3 8.541734883e-15 0)
(3 8.825819771e-15 0)
(3 8.799269336e-15 0)
(3 4.619968279e-15 0)
(3 1.468900467e-15 0)
(3 -4.564112603e-15 0)
(3 -7.854040167e-15 0)
(3 -1.239121119e-14 0)
(3 -1.618303796e-14 0)
(3 -1.807428156e-14 0)
(3 -1.527697502e-14 0)
(3 -1.088289735e-14 0)
(3 -1.778468712e-16 0)
(3 8.275666604e-16 0)
(3 1.818353678e-15 0)
(3 1.818687253e-15 0)
(3 1.802271345e-15 0)
(3 1.774922303e-15 0)
(3 7.748467615e-16 0)
(3 1.939963508e-15 0)
(3 -3.597696095e-16 0)
(3 -1.793337409e-15 0)
(3 -3.097629247e-15 0)
(3 -2.458648256e-15 0)
(3 -1.26954434e-15 0)
(3 1.474024215e-15 0)
(3 3.319842647e-15 0)
(3 4.375516052e-15 0)
(3 4.391518961e-15 0)
(3 6.412697884e-15 0)
(3 8.681361416e-15 0)
(3 1.151104715e-14 0)
(3 1.381541614e-14 0)
(3 1.443036895e-14 0)
(3 1.502291805e-14 0)
(3 1.537098044e-14 0)
(3 1.404693603e-14 0)
(3 8.317189618e-15 0)
(3 5.552227546e-15 0)
(3 1.012428586e-15 0)
(3 -9.885989497e-15 0)
(3 -1.469223087e-14 0)
(3 -1.765736155e-14 0)
(3 -1.71999724e-14 0)
(3 -1.318507698e-14 0)
(3 -7.1126574e-17 0)
(3 -5.218077074e-16 0)
(3 -1.029469493e-15 0)
(3 -1.485900749e-15 0)
(3 -1.449666578e-15 0)
(3 1.646756189e-15 0)
(3 1.927405366e-15 0)
(3 1.324840268e-15 0)
(3 7.216941386e-17 0)
(3 -9.788946085e-17 0)
(3 -3.942318286e-16 0)
(3 1.389391595e-15 0)
(3 1.022857696e-15 0)
(3 1.150356209e-15 0)
(3 2.27240366e-15 0)
(3 3.601741915e-15 0)
(3 6.08233347e-15 0)
(3 8.791245658e-15 0)
(3 8.906221559e-15 0)
(3 9.189512114e-15 0)
(3 8.309508743e-15 0)
(3 6.972935829e-15 0)
(3 5.23055721e-15 0)
(3 4.590380311e-15 0)
(3 3.563145647e-15 0)
(3 2.048694472e-15 0)
(3 1.284657604e-15 0)
(3 -2.019486787e-15 0)
(3 -8.307526409e-15 0)
(3 -1.415303763e-14 0)
(3 -1.361059752e-14 0)
(3 -1.194348375e-14 0)
(3 -1.017590864e-14 0)
(3 -5.619381219e-16 0)
(3 -2.914007566e-15 0)
(3 -3.27754736e-15 0)
(3 -3.308809945e-15 0)
(3 -1.505555478e-15 0)
(3 1.206874084e-16 0)
(3 -5.049705097e-16 0)
(3 -1.888514629e-15 0)
(3 2.93799073e-16 0)
(3 1.727554172e-15 0)
(3 2.80837013e-15 0)
(3 1.767840978e-15 0)
(3 -2.60247233e-16 0)
(3 -4.125966121e-15 0)
(3 -4.412487675e-15 0)
(3 -2.577075411e-15 0)
(3 4.316089467e-16 0)
(3 1.302899292e-15 0)
(3 2.119442219e-15 0)
(3 1.36480781e-15 0)
(3 9.821724593e-16 0)
(3 7.529664326e-16 0)
(3 3.776532394e-16 0)
(3 -5.5305253e-16 0)
(3 -1.238255447e-16 0)
(3 -2.278684954e-16 0)
(3 -1.146221433e-15 0)
(3 -2.001466723e-15 0)
(3 -4.006743037e-15 0)
(3 -5.502134645e-15 0)
(3 -7.561253385e-15 0)
(3 -1.512328469e-15 0)
(3 3.620614847e-16 0)
(3 -1.353238505e-15 0)
(3 -2.90704227e-15 0)
(3 -5.513553945e-15 0)
(3 -5.19005587e-15 0)
(3 -4.081659811e-15 0)
(3 -2.660568036e-15 0)
(3 6.523362335e-16 0)
(3 3.99193153e-15 0)
(3 4.314742621e-15 0)
(3 2.37733251e-15 0)
(3 1.560556666e-15 0)
(3 -1.020047135e-15 0)
(3 -2.080361315e-15 0)
(3 -2.043710942e-16 0)
(3 -2.563409868e-15 0)
(3 -2.965572074e-15 0)
(3 -4.36088611e-15 0)
(3 -4.125805904e-15 0)
(3 -1.971577345e-15 0)
(3 -2.198609964e-15 0)
(3 -1.702939562e-15 0)
(3 3.873431806e-16 0)
(3 7.936690094e-16 0)
(3 2.394587207e-16 0)
(3 7.560564547e-16 0)
(3 9.781687739e-16 0)
(3 2.05574225e-15 0)
(3 5.18099758e-15 0)
(3 9.441687358e-15 0)
(3 1.444930651e-14 0)
(3 1.844945407e-14 0)
(3 1.862478155e-14 0)
(3 1.979309185e-14 0)
(3 9.521331005e-16 0)
(3 1.570770679e-15 0)
(3 9.914586325e-16 0)
(3 1.679865851e-15 0)
(3 -3.917093473e-16 0)
(3 -1.067082761e-15 0)
(3 1.544265109e-15 0)
(3 3.83309488e-15 0)
(3 3.851980993e-15 0)
(3 6.803018247e-16 0)
(3 -3.3805267e-16 0)
(3 -1.410244089e-15 0)
(3 1.406380371e-16 0)
(3 -3.444130481e-17 0)
(3 -1.324487846e-15 0)
(3 -1.636711905e-15 0)
(3 -1.363385498e-15 0)
(3 -2.344669149e-15 0)
(3 -4.096149222e-15 0)
(3 -1.673015913e-15 0)
(3 -1.216420696e-15 0)
(3 1.728898559e-15 0)
(3 1.693185426e-15 0)
(3 3.662656217e-15 0)
(3 4.087564118e-15 0)
(3 5.382858474e-15 0)
(3 7.051987278e-15 0)
(3 8.778651819e-15 0)
(3 9.295630697e-15 0)
(3 1.180907106e-14 0)
(3 1.540243808e-14 0)
(3 2.102479089e-14 0)
(3 2.45521921e-14 0)
(3 9.783173621e-16 0)
(3 2.833929526e-15 0)
(3 4.729868983e-15 0)
(3 4.493105682e-15 0)
(3 2.073364818e-15 0)
(3 1.201592954e-15 0)
(3 -1.28656276e-15 0)
(3 -1.643040946e-15 0)
(3 -1.047978711e-15 0)
(3 -1.390328854e-15 0)
(3 3.406206514e-16 0)
(3 1.996659003e-15 0)
(3 4.515549512e-15 0)
(3 3.276685685e-15 0)
(3 3.098962798e-15 0)
(3 6.614084709e-16 0)
(3 1.281201854e-15 0)
(3 2.005005079e-15 0)
(3 5.467793759e-16 0)
(3 2.594580513e-16 0)
(3 5.275849836e-16 0)
(3 2.100033463e-15 0)
(3 4.160485096e-15 0)
(3 6.92425446e-15 0)
(3 5.926283622e-15 0)
(3 6.36633931e-15 0)
(3 5.777932028e-15 0)
(3 6.527315975e-15 0)
(3 6.4201021e-15 0)
(3 4.5398098e-15 0)
(3 4.776692566e-15 0)
(3 6.86065916e-15 0)
(3 7.087333769e-15 0)
(3 -1.059825624e-15 0)
(3 -1.540201896e-15 0)
(3 -4.083103067e-16 0)
(3 -3.908427064e-16 0)
(3 -6.554435004e-16 0)
(3 -8.161032342e-17 0)
(3 -2.235944554e-15 0)
(3 -3.152829448e-15 0)
(3 -1.688249425e-15 0)
(3 4.929416624e-16 0)
(3 6.818858216e-16 0)
(3 1.204865505e-15 0)
(3 1.152197948e-15 0)
(3 -3.872540359e-16 0)
(3 -3.177850883e-16 0)
(3 -4.139951967e-15 0)
(3 -4.050189197e-15 0)
(3 -2.663334466e-15 0)
(3 -1.498210122e-15 0)
(3 -1.612793843e-15 0)
(3 -2.264094297e-15 0)
(3 -2.376581662e-15 0)
(3 -2.034118251e-15 0)
(3 -1.742061079e-15 0)
(3 9.582684434e-16 0)
(3 1.577871403e-15 0)
(3 2.002787863e-15 0)
(3 1.739122242e-15 0)
(3 4.412620683e-15 0)
(3 4.256423754e-15 0)
(3 2.891707629e-15 0)
(3 8.324074669e-16 0)
(3 -2.037277163e-15 0)
(3 -1.511395722e-15 0)
(3 -2.392930014e-15 0)
(3 -5.079203698e-15 0)
(3 -7.281225456e-15 0)
(3 -5.790695146e-15 0)
(3 -5.708277567e-15 0)
(3 -5.009442276e-15 0)
(3 -5.122913716e-15 0)
(3 -4.331473049e-15 0)
(3 -2.524865326e-15 0)
(3 -4.194156278e-15 0)
(3 -5.061895027e-15 0)
(3 -6.130310667e-15 0)
(3 -6.085549329e-15 0)
(3 -5.119854492e-15 0)
(3 -5.692798074e-15 0)
(3 -4.489386424e-15 0)
(3 -3.428405332e-15 0)
(3 -2.463558302e-15 0)
(3 -1.940263259e-15 0)
(3 -2.691099032e-15 0)
(3 -4.464150222e-15 0)
(3 -8.679629615e-15 0)
(3 -1.183334456e-14 0)
(3 -9.394367504e-15 0)
(3 -3.15685532e-15 0)
(3 -1.614055176e-15 0)
(3 -1.023119374e-15 0)
(3 -2.680745755e-16 0)
(3 2.427189816e-15 0)
(3 4.508051434e-15 0)
(3 5.55838221e-15 0)
(3 5.749745015e-15 0)
(3 -6.490601265e-17 0)
(3 1.111307761e-16 0)
(3 -9.744058047e-16 0)
(3 -2.018447077e-15 0)
(3 -5.218275633e-15 0)
(3 -5.46251968e-15 0)
(3 -5.364021314e-15 0)
(3 -5.977473321e-15 0)
(3 -8.610939575e-15 0)
(3 -1.117338048e-14 0)
(3 -1.049908418e-14 0)
(3 -1.01383372e-14 0)
(3 -7.77103811e-15 0)
(3 -3.659193695e-15 0)
(3 4.456974661e-16 0)
(3 3.90046833e-15 0)
(3 7.210290006e-15 0)
(3 7.648665815e-15 0)
(3 8.311581206e-15 0)
(3 7.764529824e-15 0)
(3 5.529972535e-15 0)
(3 4.796808772e-16 0)
(3 -4.760368974e-15 0)
(3 -8.981322161e-15 0)
(3 -1.262467428e-14 0)
(3 -1.315118357e-14 0)
(3 -1.178062603e-14 0)
(3 -5.605072278e-15 0)
(3 -3.241559032e-15 0)
(3 -3.008272596e-15 0)
(3 -2.734331533e-15 0)
(3 8.473743707e-16 0)
(3 5.083156167e-15 0)
(3 7.61548414e-16 0)
(3 1.440485845e-15 0)
(3 1.25561555e-15 0)
(3 2.480088203e-15 0)
(3 8.586276475e-16 0)
(3 -5.484231463e-16 0)
(3 -4.140136985e-15 0)
(3 -4.144999936e-15 0)
(3 -5.50093132e-15 0)
(3 -6.576817588e-15 0)
(3 -5.150674029e-15 0)
(3 -3.708474435e-15 0)
(3 -1.276346699e-15 0)
(3 9.201987355e-16 0)
(3 4.853210414e-15 0)
(3 1.003373557e-14 0)
(3 1.273292238e-14 0)
(3 1.434005161e-14 0)
(3 1.438109111e-14 0)
(3 1.326309934e-14 0)
(3 1.042865478e-14 0)
(3 7.594304365e-15 0)
(3 5.304884282e-15 0)
(3 6.862227234e-16 0)
(3 -4.663731529e-15 0)
(3 -7.696991327e-15 0)
(3 -9.948155059e-15 0)
(3 -9.424489614e-15 0)
(3 -9.686453104e-15 0)
(3 -8.825068038e-15 0)
(3 -8.598248162e-15 0)
(3 -7.057838132e-15 0)
(3 -6.971885601e-15 0)
(3 4.65835516e-16 0)
(3 -9.508227191e-16 0)
(3 -1.492944666e-15 0)
(3 8.706429932e-17 0)
(3 2.310251424e-15 0)
(3 -7.95242862e-16 0)
(3 -1.987667238e-15 0)
(3 -1.719182113e-15 0)
(3 8.927262558e-17 0)
(3 1.559799806e-15 0)
(3 4.052147619e-15 0)
(3 6.327240533e-15 0)
(3 5.754896245e-15 0)
(3 4.520874451e-15 0)
(3 3.823444102e-15 0)
(3 6.14046421e-15 0)
(3 3.601659634e-15 0)
(3 4.024245797e-15 0)
(3 2.536586337e-15 0)
(3 3.106386364e-15 0)
(3 5.471531083e-15 0)
(3 7.304207152e-15 0)
(3 7.541126734e-15 0)
(3 6.245800013e-15 0)
(3 5.318382779e-15 0)
(3 3.079021182e-15 0)
(3 1.899377338e-16 0)
(3 -3.709274259e-15 0)
(3 -7.47950777e-15 0)
(3 -7.67733004e-15 0)
(3 -7.852202066e-15 0)
(3 -8.19273591e-15 0)
(3 -1.237644449e-14 0)
(3 -2.657290454e-16 0)
(3 -2.801568856e-15 0)
(3 -1.349285478e-15 0)
(3 -1.090963689e-15 0)
(3 2.026171825e-15 0)
(3 2.675668651e-15 0)
(3 7.28399142e-15 0)
(3 8.872173654e-15 0)
(3 1.065484707e-14 0)
(3 1.364387577e-14 0)
(3 1.470272353e-14 0)
(3 1.302291397e-14 0)
(3 1.062255222e-14 0)
(3 7.231661298e-15 0)
(3 2.411738473e-15 0)
(3 9.827901224e-16 0)
(3 -6.746401579e-16 0)
(3 -5.306952738e-15 0)
(3 -7.749790754e-15 0)
(3 -6.673826831e-15 0)
(3 -3.940318742e-15 0)
(3 -3.169014549e-15 0)
(3 -1.981069138e-15 0)
(3 -1.039148741e-15 0)
(3 -1.472372524e-15 0)
(3 8.704735202e-16 0)
(3 4.432155687e-15 0)
(3 4.811804398e-15 0)
(3 2.040284768e-15 0)
(3 -1.606655899e-15 0)
(3 -3.817919823e-15 0)
(3 -5.516471097e-15 0)
(3 -7.394418665e-15 0)
(3 9.390792127e-17 0)
(3 -1.233185533e-15 0)
(3 3.571829061e-16 0)
(3 -5.166010581e-17 0)
(3 1.787331007e-15 0)
(3 7.556770153e-15 0)
(3 1.148274711e-14 0)
(3 1.63221421e-14 0)
(3 1.727603713e-14 0)
(3 1.820239791e-14 0)
(3 1.628338421e-14 0)
(3 1.419808738e-14 0)
(3 1.346852046e-14 0)
(3 1.164925739e-14 0)
(3 9.624643311e-15 0)
(3 5.627873123e-15 0)
(3 7.420100799e-15 0)
(3 4.045961265e-15 0)
(3 9.886770993e-16 0)
(3 1.982235908e-16 0)
(3 -1.466632804e-15 0)
(3 -3.905898217e-15 0)
(3 -5.395922601e-15 0)
(3 -4.808342633e-15 0)
(3 -2.936191669e-15 0)
(3 5.428064484e-17 0)
(3 1.764845789e-15 0)
)
;

boundaryField
{
    inlet
    {
        type            fixedValue;
        value           uniform (3 0 0);
    }
    outlet
    {
        type            inletOutlet;
        inletValue      nonuniform 0();
        value           nonuniform 0();
    }
    bottom
    {
        type            slip;
    }
    top
    {
        type            slip;
    }
    obstacle
    {
        type            slip;
    }
    defaultFaces
    {
        type            empty;
    }
    procBoundary0to1
    {
        type            processor;
        value           nonuniform List<vector> 
16
(
(3 -1.782186429e-15 0)
(3 -4.1185387e-15 0)
(3 -1.31142257e-14 0)
(3 -1.057219036e-14 0)
(3 -5.607818447e-15 0)
(3 -6.601654825e-15 0)
(3 2.203775884e-15 0)
(3 1.795930625e-14 0)
(3 2.103845093e-14 0)
(3 9.041302416e-15 0)
(3 6.586515356e-16 0)
(3 4.956229291e-15 0)
(3 7.308779552e-15 0)
(3 -1.691811217e-15 0)
(3 -1.447348794e-14 0)
(3 -1.406823632e-14 0)
)
;
    }
    procBoundary0to6
    {
        type            processor;
        value           nonuniform List<vector> 
34
(
(3 2.286988369e-15 0)
(3 3.189234671e-15 0)
(3 4.02944484e-15 0)
(3 1.39408489e-15 0)
(3 -2.627620419e-15 0)
(3 -5.229216686e-15 0)
(3 -2.486549298e-18 0)
(3 2.086047231e-16 0)
(3 -5.499548885e-16 0)
(3 1.318003324e-17 0)
(3 1.584246154e-15 0)
(3 4.000803571e-15 0)
(3 2.95144414e-15 0)
(3 4.751812104e-15 0)
(3 8.229067565e-15 0)
(3 9.14445546e-15 0)
(3 1.033851316e-14 0)
(3 1.027036388e-14 0)
(3 1.070409195e-14 0)
(3 1.311839989e-14 0)
(3 1.721456166e-14 0)
(3 1.48851526e-14 0)
(3 1.354744871e-14 0)
(3 1.028011752e-14 0)
(3 8.906304491e-15 0)
(3 9.044026006e-15 0)
(3 8.622883531e-15 0)
(3 8.378896946e-15 0)
(3 6.446293716e-15 0)
(3 5.39177095e-15 0)
(3 3.166698369e-15 0)
(3 -1.783446452e-15 0)
(3 2.286988369e-15 0)
(3 -5.092260915e-15 0)
)
;
    }
}


// ************************************************************************* //
