/*--------------------------------*- C++ -*----------------------------------*\
  =========                 |
  \\      /  F ield         | OpenFOAM: The Open Source CFD Toolbox
   \\    /   O peration     | Website:  https://openfoam.org
    \\  /    A nd           | Version:  7
     \\/     M anipulation  |
\*---------------------------------------------------------------------------*/
FoamFile
{
    version     2.0;
    format      ascii;
    class       volScalarField;
    location    "5";
    object      T;
}
// * * * * * * * * * * * * * * * * * * * * * * * * * * * * * * * * * * * * * //

dimensions      [0 0 0 1 0 0 0];

internalField   nonuniform List<scalar> 
2222
(
1.305305467
1.282654241
1.262709606
1.244720363
1.226464554
1.208462354
1.193859144
1.179997964
1.165450523
1.15311704
1.141660823
1.129326575
1.116869612
1.106890346
1.097404329
1.086681049
1.076411103
1.000000208
1.003221011
1.157681452
1.481915924
1.55570123
1.553814242
1.549723624
1.545963295
1.542734896
1.538168488
1.529687986
1.511410795
1.489884148
1.466264603
1.436067742
1.408872316
1.386432786
1.361203789
1.335040061
1.313742482
1.293812314
1.271267543
1.251168933
1.233424311
1.21568812
1.197768546
1.183254918
1.169655857
1.15545733
1.143242057
1.131947249
1.119875211
1.107484133
1.097656154
1.088392193
1.078098305
1.06793501
1.000015476
1.024085716
1.341309606
1.536898346
1.555163636
1.553735332
1.546821411
1.540312061
1.538173762
1.533472401
1.522154761
1.503221091
1.481116104
1.4568326
1.425657557
1.397635638
1.374869666
1.349846916
1.323327467
1.301995765
1.282138368
1.259794242
1.239465559
1.221942338
1.204656482
1.186921764
1.172582844
1.159312763
1.145384159
1.13324435
1.122101784
1.110397765
1.098228751
1.088551942
1.079491456
1.069481239
1.059364174
1.000506413
1.114601334
1.48558757
1.560753479
1.557664283
1.550041358
1.540431705
1.535383353
1.534599515
1.528784255
1.51621747
1.495617465
1.471896373
1.446639686
1.414665876
1.386016119
1.362953576
1.33819314
1.311378715
1.289966178
1.270128858
1.248003602
1.227514697
1.210273162
1.193460635
1.17597374
1.16176631
1.148743156
1.135167133
1.123180134
1.112221169
1.100780573
1.088695118
1.079197593
1.070380421
1.060823036
1.050939579
1.009064757
1.298753097
1.55179521
1.550185506
1.546144656
1.540681622
1.536296568
1.53453741
1.532756412
1.52462264
1.510335184
1.487665678
1.462143161
1.435763956
1.403008687
1.373753153
1.350407336
1.325923979
1.298914774
1.277487387
1.257734415
1.235926153
1.215243479
1.198253415
1.181888603
1.164790441
1.150797882
1.138068678
1.124790291
1.112910473
1.102093117
1.090937161
1.079083918
1.069798298
1.061242417
1.051983588
1.042144718
1.078058223
1.471462935
1.559693681
1.548747515
1.540692194
1.536951333
1.534142221
1.532988723
1.529852703
1.520196081
1.503915106
1.478727174
1.451295011
1.423924319
1.390648241
1.360836211
1.337299145
1.313175778
1.28607845
1.264523788
1.24488626
1.223508278
1.202744663
1.186048303
1.170179333
1.153472227
1.139639683
1.12719935
1.114333477
1.102659832
1.092032305
1.081136256
1.069412892
1.060365971
1.052096532
1.04324701
1.033728216
1.273970995
1.549835567
1.552104332
1.54583791
1.539189981
1.535688179
1.532875627
1.5319396
1.527211127
1.515042883
1.49622477
1.468398887
1.439266826
1.411218641
1.377722801
1.347491117
1.32385815
1.300087282
1.273002264
1.251401128
1.231961993
1.211092377
1.190252012
1.173843593
1.158472493
1.142267165
1.128649066
1.116487262
1.103925248
1.092362034
1.081858193
1.071175041
1.05964955
1.05070705
1.042573666
1.034036253
1.024691818
1.463567412
1.551222111
1.544570624
1.535774472
1.532264012
1.532335446
1.531578996
1.530806292
1.523950156
1.509036389
1.487611945
1.457312596
1.426732169
1.398130911
1.364630656
1.333978287
1.310277137
1.286834995
1.259827131
1.238010226
1.218743182
1.198400135
1.177671581
1.161596516
1.14674806
1.131003309
1.117565312
1.105688602
1.093506094
1.082153886
1.071849444
1.061477603
1.050206886
1.041471324
1.03358084
1.025338272
1.016212638
1.534091932
1.549709122
1.544528515
1.533860656
1.529982591
1.530495641
1.531206181
1.52986547
1.520024364
1.502065877
1.47794791
1.445252331
1.413367551
1.384444399
1.351077804
1.320086414
1.296327384
1.273105733
1.246222164
1.224357814
1.205313259
1.185538189
1.164978445
1.149247302
1.134878708
1.119686847
1.106549589
1.094969635
1.083089006
1.071869058
1.061673222
1.051396204
1.040181447
1.03149675
1.02384005
1.016000498
1.007174407
1.53379468
1.545356579
1.54332363
1.537879758
1.53438712
1.533321918
1.533194144
1.528944784
1.515055434
1.493510348
1.466393228
1.43135818
1.398553276
1.369546716
1.336697911
1.305632927
1.281962955
1.259042883
1.232456477
1.210331233
1.191567144
1.172437389
1.152216391
1.136843786
1.122986723
1.108325434
1.09542842
1.084096686
1.072512672
1.061574868
1.051684777
1.04173097
1.030810404
1.022267676
1.014738445
1.007101215
0.998466484
1.539110603
1.540135514
1.539582979
1.539041524
1.53927651
1.538713014
1.536822713
1.527936994
1.509176591
1.483613813
1.453618616
1.416523722
1.382874934
1.354072614
1.322002076
1.290893581
1.267391483
1.244905229
1.218640301
1.196392146
1.177882401
1.159375932
1.139487102
1.124416924
1.110998776
1.096897463
1.084339735
1.073280147
1.061905951
1.051018988
1.041093293
1.031225497
1.020484994
1.012125125
1.004958982
0.9977582976
0.989493621
1.539930831
1.537529808
1.537657087
1.538288874
1.539248166
1.539293364
1.535521535
1.52411903
1.501955095
1.473000574
1.440667441
1.401873583
1.367462334
1.338575807
1.307096175
1.275993756
1.252662384
1.230570879
1.204902418
1.182483688
1.164297074
1.14638787
1.126936454
1.112173778
1.099229641
1.085679152
1.073367782
1.062528573
1.051497604
1.040914931
1.031206196
1.021522021
1.010926692
1.002637274
0.995630439
0.9886895941
0.9807136084
1.537771802
1.537504075
1.53779128
1.537829695
1.538116435
1.537334965
1.531704798
1.51783189
1.492687287
1.461360716
1.427758291
1.388169003
1.353071473
1.323767582
1.292563637
1.261127872
1.237743321
1.215978526
1.190752601
1.168431546
1.150742389
1.133514373
1.114465988
1.099966763
1.087435187
1.074334137
1.062232727
1.051451234
1.040559099
1.030049066
1.020443955
1.011046554
1.000796285
0.9928511413
0.9862616518
0.9797160704
0.9720235386
1.537019403
1.53821899
1.538033802
1.537653841
1.537103516
1.534452176
1.526001564
1.509207021
1.481239459
1.448284477
1.414326298
1.374653419
1.339220356
1.309536755
1.278258496
1.246256844
1.222545127
1.200785973
1.176124079
1.153972615
1.136936986
1.120409766
1.101925626
1.087803928
1.075729491
1.063125362
1.051380961
1.040959993
1.03035639
1.019921862
1.010357251
1.001136696
0.9912108357
0.9834745262
0.9770371368
0.9706930185
0.963394094
1.538285951
1.538414822
1.537876842
1.537442088
1.536200714
1.531391994
1.519823201
1.499699673
1.468642273
1.434101081
1.399758783
1.360066317
1.324516999
1.294766815
1.2637023
1.231240207
1.20708058
1.185218031
1.160876759
1.138966908
1.122772714
1.107173852
1.089426755
1.075644987
1.063718926
1.051272488
1.039586809
1.029250672
1.018907554
1.008731283
0.9996321759
0.9910099595
0.9815209303
0.9741072397
0.9680981338
0.9621233591
0.9551183575
1.538903344
1.537978181
1.537611397
1.53713191
1.535040382
1.528153039
1.513337172
1.489706275
1.455295712
1.418740012
1.383767153
1.343997939
1.308410092
1.278984588
1.248500993
1.215899139
1.191496643
1.169684818
1.145857066
1.124003739
1.108502281
1.093766411
1.076849361
1.063621491
1.052209845
1.040342173
1.028937468
1.018476019
1.008176429
0.9982978269
0.9893754218
0.9808723655
0.9716851192
0.9647384722
0.959125502
0.9534219545
0.946547538
1.538047976
1.537580183
1.537343099
1.536593885
1.533476467
1.524282101
1.506052707
1.478855671
1.441172022
1.402735725
1.366758442
1.326471671
1.290754273
1.261847553
1.232417435
1.200268193
1.176031531
1.154574204
1.131249326
1.109530812
1.094560466
1.080569102
1.064323054
1.051213536
1.039923728
1.028288129
1.016904871
1.006744373
0.9969474106
0.9874309673
0.9789635439
0.9709615782
0.9624469741
0.9559765143
0.95057966
0.944917848
0.9382399629
1.537264076
1.537264517
1.53694967
1.535678475
1.531399926
1.519467307
1.49750619
1.466926174
1.426296732
1.385969081
1.349198844
1.308510379
1.272363889
1.24390602
1.215542164
1.184139565
1.160531754
1.139874308
1.117470702
1.096024896
1.081351172
1.067724375
1.052408381
1.03986124
1.028825555
1.017376518
1.006144679
0.9961012016
0.9862214634
0.9765798948
0.9686247431
0.9613756487
0.9531173001
0.9465412033
0.94148039
0.9362884332
0.9302698889
1.537127479
1.536922355
1.536363154
1.534652853
1.528796511
1.513559978
1.487706382
1.453755133
1.410360946
1.368768191
1.33138659
1.290232758
1.253752359
1.225577684
1.198165832
1.167691421
1.144943406
1.125268862
1.103899884
1.083112547
1.06838394
1.054546252
1.039410664
1.026860816
1.016182341
1.005470237
0.9948372756
0.9848756297
0.975196122
0.9663972296
0.9590501343
0.9520477223
0.9438600921
0.9377277218
0.9332183031
0.9285103048
0.9224989043
1.536965271
1.536372328
1.535809547
1.533469878
1.525541805
1.506521403
1.476525041
1.439385461
1.393594329
1.350691242
1.312947452
1.27185491
1.235092427
1.207192052
1.180429206
1.150663748
1.128804473
1.110253078
1.090332698
1.070505033
1.056282156
1.042568291
1.027536738
1.014844552
1.004403257
0.9940721699
0.9833735658
0.9735084736
0.9645350641
0.9562480029
0.9487825231
0.9418479668
0.934761165
0.9293242134
0.9247303338
0.9197749816
0.9137104732
1.536293185
1.535916479
1.535337717
1.532025692
1.521546575
1.498294417
1.464105682
1.423772492
1.375567684
1.331825309
1.293908552
1.252801039
1.216047361
1.188484498
1.162377899
1.133302313
1.112210575
1.094692696
1.075677608
1.056406269
1.042259535
1.028628109
1.013866734
1.00140249
0.9916336865
0.9818106939
0.9715276269
0.962683464
0.9543119829
0.9456647066
0.9388158353
0.93295037
0.9264359214
0.9208155158
0.916351277
0.9116585317
0.9065552355
1.535578599
1.535724745
1.53497519
1.530272072
1.516717995
1.488807564
1.450229515
1.406768325
1.356411902
1.311707711
1.273597207
1.232938378
1.19637425
1.169413325
1.14390814
1.115263689
1.094930669
1.078575128
1.061070287
1.043026456
1.029322713
1.015658927
1.001000029
0.9887170533
0.9786620519
0.9689701795
0.9594610121
0.9508761373
0.9425364642
0.9349015492
0.9290799972
0.9235354714
0.9166696576
0.9114122622
0.9076032176
0.9034016154
0.8983285144
1.535314569
1.535877603
1.534710963
1.528185715
1.5109214
1.477784817
1.434703479
1.388085191
1.335469189
1.2901626
1.252157801
1.211848136
1.175680695
1.149460743
1.124822327
1.097064518
1.07692504
1.060502865
1.043631512
1.026252332
1.013430866
1.000894484
0.9872966676
0.9755565487
0.9659140021
0.9567532646
0.9476972871
0.9392937901
0.9317293489
0.9253149958
0.9196027068
0.9137300835
0.9074745357
0.9032460085
0.8999353453
0.8959405618
0.890547254
1.535561712
1.536435841
1.534630754
1.525753808
1.503855948
1.464766079
1.416969974
1.367232439
1.312722853
1.266863586
1.228919086
1.189496478
1.153920962
1.128658017
1.104937933
1.07863211
1.059446307
1.043717658
1.02748911
1.010514852
0.9980942233
0.9864061486
0.9735268995
0.9620853769
0.9529799569
0.9440740032
0.9347834487
0.9273328016
0.9208345743
0.9144048048
0.9091688904
0.9043248164
0.8990025443
0.8945200026
0.8908015362
0.8867116981
0.8818785524
1.536173249
1.537609789
1.53497641
1.522701648
1.494868175
1.44903126
1.396433531
1.343778978
1.287587207
1.241575814
1.204321544
1.165826305
1.131002244
1.106805304
1.083837569
1.05804403
1.038722205
1.023828176
1.008836604
0.9926969816
0.9816021556
0.9714810723
0.9598495531
0.9494983114
0.9409839868
0.9321902215
0.923192228
0.9163921207
0.9102239217
0.904333712
0.9000180271
0.8956838075
0.8899200187
0.8854369842
0.8826368293
0.8791737699
0.8748805204
1.537663848
1.539485986
1.535277482
1.51815454
1.482918356
1.429673002
1.372495509
1.317401274
1.260130652
1.214298404
1.177913969
1.140563761
1.106726294
1.084597471
1.063523898
1.039002156
1.020211671
1.005681574
0.9910953629
0.9754986121
0.9649825304
0.9556845592
0.9454205965
0.9363164614
0.9283502468
0.919967967
0.9117444517
0.9050152555
0.8993469046
0.8944167677
0.8902695586
0.8857833243
0.8808887586
0.8772253871
0.8743828183
0.8711912495
0.8666445199
1.540677148
1.541751933
1.535059642
1.510915793
1.466769933
1.406014122
1.344699841
1.287912312
1.23009517
1.185052114
1.150319045
1.114095142
1.08116187
1.059172512
1.038936714
1.016065571
0.9987401671
0.9859953936
0.972995097
0.9584468359
0.9490381678
0.940909099
0.9318833337
0.9235718935
0.9164603079
0.9089266723
0.9010520037
0.8947557123
0.8895586858
0.884546644
0.8809600883
0.8774948994
0.8737465997
0.8700878191
0.8667500081
0.8630785301
0.858243261
1.544823507
1.544068139
1.532575088
1.499245981
1.445396207
1.377369772
1.312756986
1.255341654
1.197789347
1.154045789
1.120612622
1.087302652
1.0571323
1.036304275
1.01665843
0.9948063396
0.978455235
0.9665867255
0.9544934017
0.9407905724
0.9321018314
0.9250725041
0.9170561349
0.9096938789
0.9039130293
0.8974226196
0.8901825643
0.8841386479
0.8788666403
0.874153527
0.8712103519
0.8682450355
0.8640738841
0.8601160719
0.8576880982
0.8546102138
0.8503524114
1.548671493
1.545583235
1.526958418
1.48238974
1.418339145
1.343693603
1.276939803
1.21955044
1.163142951
1.121485826
1.088912244
1.056472329
1.026813974
1.0081081
0.9912983941
0.9719388063
0.957692962
0.9480302223
0.9375220825
0.9248816243
0.9169782851
0.9104725254
0.9030882855
0.8968796921
0.8920989113
0.8863002619
0.8798458295
0.8741632038
0.8694690498
0.8658187292
0.8627021391
0.8594545022
0.8556542599
0.8528271284
0.8505339428
0.8475563944
0.842866827
1.551602249
1.545643399
1.516636187
1.458871998
1.384911435
1.304253237
1.237053186
1.180779582
1.125951708
1.088044568
1.059381591
1.029229546
1.000413983
0.982721057
0.9672569387
0.949307497
0.9364033899
0.9281847374
0.9190557566
0.9077804829
0.9006589766
0.8947189292
0.8882086145
0.882855255
0.8789536075
0.8743475738
0.869186461
0.8644117468
0.8596890156
0.8547688071
0.8513007675
0.848645403
0.8466242726
0.8445902965
0.8422184592
0.8390225097
0.8341352331
1.553244662
1.541278878
1.499019956
1.427377798
1.344560442
1.259384171
1.193743175
1.13966551
1.086067471
1.048834997
1.022838153
0.9961967772
0.9700388757
0.9561018143
0.9438336552
0.928120109
0.9172693074
0.910750779
0.9028057299
0.8925930126
0.8859430571
0.8804594232
0.8743598729
0.8694869768
0.8666820377
0.8633229322
0.8590019511
0.8545509515
0.8494485537
0.8447103284
0.8426971246
0.8409052602
0.837909507
0.8347590997
0.8324635548
0.8294065707
0.8246924345
1.553731483
1.532326683
1.473361921
1.387417797
1.29723183
1.209562429
1.14565673
1.097565434
1.049769832
1.015583364
0.9906795941
0.9652702902
0.941236664
0.9298744217
0.9197079738
0.9055640615
0.8962882401
0.8915728741
0.885274267
0.8762756586
0.8703702024
0.8652815937
0.8597516557
0.8557530851
0.8534669549
0.8504821252
0.8468457728
0.8432873057
0.839235382
0.8355964418
0.8326211557
0.8297867447
0.8255433943
0.8235812261
0.8232748686
0.8218759333
0.8185169791
1.551697867
1.516175985
1.437763382
1.337470821
1.242246704
1.156502471
1.093447571
1.046241856
1.002643086
0.9750366714
0.9563129075
0.9352895306
0.9146159083
0.906944954
0.8988427744
0.8853308264
0.8774237918
0.8743080872
0.8693055996
0.8616117282
0.8564337412
0.851880744
0.8465946882
0.8422216286
0.8402652119
0.8382557735
0.8362811241
0.8341973703
0.8306846606
0.825989409
0.8217982781
0.8184213813
0.8161608136
0.8155891053
0.8151749239
0.8135958302
0.8096266992
1.546055943
1.490342202
1.389528899
1.27849327
1.18022673
1.101454172
1.047534042
1.003219337
0.9614328468
0.9383038018
0.9235970343
0.905188806
0.8869879443
0.8818433444
0.8759037854
0.8629772454
0.8571683446
0.8558253364
0.8521709799
0.8455755623
0.8411432387
0.83713694
0.8321319027
0.8275698453
0.8262735172
0.8250702967
0.8236100814
0.8214729269
0.8177130261
0.8130932212
0.8111956168
0.8098394708
0.8076410514
0.8061405973
0.8047359242
0.8019247488
0.7982661743
1.534404368
1.451105616
1.328034494
1.212937798
1.111325371
1.03076358
0.9863594114
0.9558500323
0.9209391045
0.9069415438
0.8972915919
0.8811337633
0.8659135703
0.8626436526
0.8574993653
0.844343501
0.8388130485
0.83868155
0.8362122936
0.8305223064
0.8270127192
0.8238031073
0.8189989729
0.8149851433
0.813635062
0.8117575086
0.8105265741
0.8099133344
0.8084598016
0.8064272655
0.803974449
0.8003031805
0.7950536226
0.7925448157
0.7926798766
0.7927462889
0.7923176714
1.513995374
1.39661144
1.249465871
1.141584422
1.056228887
0.9765016464
0.9379457373
0.9127467477
0.8792711839
0.8730882967
0.8673549994
0.8539545375
0.8414990238
0.8396005631
0.8353674684
0.8245022495
0.8190842714
0.8191598187
0.8176480786
0.8125265921
0.8108556349
0.8090973077
0.8053828509
0.8009568245
0.7983253218
0.797233044
0.7974707364
0.798595538
0.7980182368
0.7958846168
0.7921113292
0.7875353154
0.7861089755
0.7864924444
0.7870402734
0.7867320043
0.7852222938
1.481765911
1.324220322
1.146264143
1.033293218
0.9746812491
0.9160536691
0.8991515362
0.8793089457
0.8522427967
0.8490844463
0.8456749247
0.8324223418
0.8215434712
0.8211190358
0.8177248211
0.808061986
0.8019722485
0.8019551082
0.8006567326
0.7957307078
0.7956974058
0.7952820438
0.7924465319
0.7889775137
0.7888074464
0.7883361094
0.7875943381
0.7867954985
0.7844882362
0.7826017047
0.7822887225
0.7818541506
0.7806670826
0.7789030952
0.7770637148
0.7754094568
0.7742652632
1.434490536
1.204128337
1.030251716
0.941857137
0.8856962581
0.8552999605
0.8540662982
0.8441001506
0.8276968573
0.8221527676
0.8173597193
0.8026641026
0.7957337324
0.7974005914
0.7956582801
0.7876972749
0.7837890632
0.784314143
0.783000999
0.7797275032
0.7802256877
0.7800780747
0.7790747027
0.7782838112
0.7774701491
0.7748335166
0.7732618023
0.7737292019
0.774932051
0.7759544122
0.7763311456
0.7752315393
0.7718443213
0.7701705599
0.7699740573
0.7697102657
0.7695983508
1.385165526
0.8704084134
0.7784803179
0.8068975083
0.797415544
0.7952170294
0.8068521756
0.8079821531
0.8058982077
0.8035760017
0.799095121
0.7880730116
0.7817044507
0.7822957712
0.7816487833
0.776352261
0.7730332401
0.7730243454
0.7720114698
0.7703657706
0.7706576928
0.7727778374
0.770649295
0.7683522809
0.7675737055
0.7673758779
0.7691467278
0.770517971
0.7704339292
0.7700651729
0.7699680499
0.7687027402
0.7684037752
0.7673885728
0.7675673802
0.767709808
0.767842084
1.019739999
0.9550816541
0.810119145
0.7595686528
0.760808025
0.769506383
0.7907780444
0.7975556189
0.7985399431
0.7973797806
0.7919732895
0.7817786434
0.7770742849
0.7776101896
0.7769729482
0.7719779285
0.7693443368
0.7692380856
0.7682887807
0.7670425828
0.7676987622
0.7681195253
0.7654027988
0.7655784636
0.7654362946
0.7665394804
0.7672943214
0.7677885211
0.7668120735
0.7684580586
0.7682541646
0.7675972855
0.766986481
0.7664724226
0.7665676184
0.767721107
1.004970819
0.9811488397
0.8230837938
0.7559439921
0.7500301797
0.7624013699
0.7878270715
0.7945842137
0.7967621145
0.7952198519
0.7892634365
0.7797997855
0.7758089838
0.7766290149
0.7758124793
0.7707795708
0.7685749059
0.7685032162
0.7674683291
0.766683437
0.7672413794
0.7671928341
0.7651866093
0.7649809302
0.7649107985
0.7667821658
0.7673003478
0.7669462492
0.7667144087
0.7682214284
0.7678357701
0.767452127
0.7666768394
0.7664952124
0.7665920633
0.7678526604
1.007889012
0.9862798008
0.8435497731
0.7542585846
0.7430048069
0.7592540166
0.7852535448
0.7922905492
0.7955143093
0.7935274061
0.7869202963
0.7784620391
0.7752571977
0.775818387
0.7746090524
0.7697260156
0.7678442736
0.7677064544
0.7665226632
0.7658992515
0.7665906586
0.7664089676
0.7654029709
0.7646923458
0.7647093727
0.7663317275
0.7672822735
0.7667870165
0.7669927211
0.7680920894
0.7674581458
0.7676019114
0.76637682
0.7664799244
0.7668385775
0.7681524199
1.023823938
0.9764495333
0.8569736402
0.7544957983
0.7376997763
0.7563186557
0.7825603566
0.7884131758
0.7928533075
0.7906305854
0.7841581369
0.7767305143
0.7742123866
0.7747762855
0.7732145516
0.7685418564
0.7670507664
0.7666704401
0.7656373751
0.765524527
0.7660801121
0.7655609513
0.7651934916
0.7644315193
0.7649160682
0.7661091936
0.7667482426
0.7665595368
0.7672711207
0.7680362716
0.7670489021
0.7676564517
0.7664489049
0.766707534
0.7670743287
0.7693693648
1.047872486
0.9647328304
0.8600327746
0.7553758414
0.7346999581
0.7545402141
0.7801951225
0.7870547955
0.7914775581
0.7884016623
0.7815326716
0.7750213893
0.7732063789
0.7738768394
0.7720867973
0.7682896797
0.7670204612
0.7663888857
0.7653182549
0.7651154373
0.7656679721
0.7648809149
0.7653048733
0.7645580613
0.7652756044
0.7661845926
0.7666028923
0.7664122803
0.7677752108
0.7678685005
0.7670108659
0.7674667294
0.7668604623
0.7672048797
0.7676900841
0.7746237167
1.054788376
0.9646392977
0.8611787936
0.7570615416
0.7337603414
0.7524759177
0.7782418224
0.7865951561
0.7908580618
0.7873806336
0.7806230575
0.7745702538
0.7728257213
0.7735722371
0.7714445438
0.7682338891
0.7670164717
0.7661576961
0.7649294971
0.7647130577
0.7653675262
0.7645460031
0.7652545214
0.7648810194
0.7659253818
0.7664409888
0.766945454
0.7665165769
0.7679869655
0.7677891162
0.767266581
0.7675672663
0.7673593205
0.7676395355
0.7687361467
0.8071502731
1.049951217
0.9666271458
0.8666640504
0.7596713462
0.7343584218
0.7525038513
0.7768218879
0.7858109459
0.7897909065
0.7862521137
0.7799210359
0.7744846131
0.772946771
0.7729970946
0.7711122663
0.7681058702
0.7667795215
0.7657888975
0.7645957492
0.764745601
0.7654011257
0.7645937621
0.7653858228
0.7652610808
0.7664673515
0.7668927613
0.7669820402
0.7668195746
0.7681151085
0.7681152148
0.7678224309
0.7679919381
0.7680792498
0.7681942514
0.7695293634
0.8602395522
1.028530632
0.9668655566
0.8731640031
0.7610529795
0.7349333122
0.7526454764
0.7745172736
0.7832552513
0.7872887288
0.7844680189
0.7789714653
0.7739751578
0.7728526257
0.7721666655
0.7706481346
0.7680121609
0.7666735724
0.765527172
0.7645474676
0.7648870311
0.7655782035
0.7648332809
0.7656253218
0.7657325993
0.7666994287
0.7670866233
0.7674143364
0.7678655911
0.7687549983
0.7686135845
0.7688510094
0.7689192747
0.76885922
0.7690065324
0.7758439788
0.9430175487
0.9934905941
0.9626883033
0.8729795961
0.7626261053
0.7352360928
0.7516798088
0.7714714763
0.7810916757
0.7848908995
0.7823470886
0.7774927019
0.7737786191
0.7726324978
0.771661248
0.7700448493
0.7679753704
0.7666909718
0.7655259788
0.7647231448
0.7652350744
0.7660428621
0.7654315379
0.766076393
0.7663976876
0.7673818202
0.7676813575
0.7674019963
0.7684864469
0.7689692347
0.7693115499
0.7697415991
0.7695447817
0.7697159171
0.769691551
0.800248479
1.025364177
0.9846768083
0.9604941914
0.870332087
0.7643421199
0.73654654
0.7508519404
0.7702121602
0.7805699779
0.7838892148
0.7813296395
0.7766156021
0.7737747531
0.7726827
0.7715368058
0.7701968992
0.7681314305
0.7668448853
0.7657391754
0.7650953736
0.7657681347
0.7667450001
0.7662595061
0.7666719389
0.7670163672
0.7677439474
0.7684003127
0.767672456
0.7691801889
0.7692708273
0.7698076545
0.7707069009
0.7702429829
0.7705200096
0.7716188873
0.8619099401
0.9848136834
0.9604377913
0.8685515832
0.7664150078
0.7379085944
0.751191393
0.7698129865
0.7806022142
0.7835583414
0.7807755819
0.7766658248
0.773873742
0.772862887
0.7719359739
0.7707054383
0.7686699855
0.7674331646
0.7663076342
0.765633518
0.7662635125
0.7674030688
0.7671021564
0.7676988815
0.7681422898
0.7684023154
0.7687904519
0.7681017347
0.7695158196
0.7697291756
0.770408659
0.7720474691
0.7718128075
0.7710589175
0.7762290806
0.9473925904
0.9851856928
0.9619449358
0.8695080841
0.7697291249
0.7401076479
0.7521965883
0.7693750679
0.7803557656
0.7830135585
0.7803116509
0.776889601
0.7742701905
0.7733895347
0.7726123467
0.7713101959
0.7694511537
0.7681135291
0.7670868103
0.7664605599
0.7669819753
0.7680725923
0.767881282
0.7685478497
0.7692119606
0.7689502987
0.7692850134
0.7690394884
0.769957184
0.7706148202
0.7715050074
0.7728123336
0.772366453
0.7720703319
0.8033139199
1.007291511
0.9859080548
0.9628528012
0.8734276172
0.7739481103
0.7418468292
0.7531533716
0.7685525591
0.7790409491
0.7816877984
0.7799459984
0.7770781208
0.77516516
0.774144719
0.7731435868
0.7720603508
0.7700520371
0.7684240594
0.767451247
0.7670833388
0.7679981459
0.7689433733
0.7687841631
0.7692646874
0.7698017081
0.7698254905
0.7693861426
0.7700571417
0.7703880303
0.7712550424
0.7726576216
0.773189085
0.7725587716
0.7730328182
0.8657657978
1.058842442
0.9928551346
0.9607440846
0.8767306205
0.7769528024
0.7438040869
0.7533104008
0.7667349567
0.7774709333
0.7807545864
0.7795198665
0.7771114331
0.7759894922
0.7746086033
0.773562193
0.7725415445
0.7707278372
0.7689103035
0.7679407737
0.7674033728
0.7684792833
0.7698474581
0.7702267004
0.7707004995
0.7708965599
0.7701934418
0.7695141001
0.7704846949
0.7709802468
0.7716992157
0.7731539047
0.7735112204
0.7729255963
0.7784172343
0.9305222559
1.100913792
1.015209593
0.9578444655
0.8773118298
0.7788623746
0.745992239
0.7524369386
0.7656231963
0.7765621126
0.7799935349
0.7794985931
0.7774049317
0.7764569539
0.7749707886
0.7738404505
0.7729355345
0.7713878472
0.769856401
0.7690030149
0.768003826
0.7689326644
0.7702361338
0.7709788678
0.7717979334
0.7712107895
0.7709200631
0.7697458929
0.770999618
0.7714700717
0.7723318286
0.773986274
0.7743078123
0.7735531855
0.8044914218
1.02117415
1.110130528
1.02306606
0.9577884693
0.8761023588
0.7814497239
0.7481456612
0.7520570582
0.7652188419
0.7760044081
0.7801637551
0.7796588043
0.7776664694
0.7769551437
0.7755923947
0.7743738498
0.7733814455
0.7718509473
0.770395078
0.7698809545
0.7694434192
0.7697367649
0.7706075809
0.7713772497
0.7721079099
0.771797337
0.7713865436
0.7704907801
0.771353123
0.771917539
0.7734587594
0.7753093047
0.7752693323
0.7752705325
0.8620164107
1.076893864
1.109009822
1.02263007
0.9580014971
0.8777360645
0.7847459338
0.7497938618
0.7526307253
0.7648172394
0.7756129733
0.7801222671
0.7799582079
0.7784331871
0.7777569143
0.7768261818
0.7752602919
0.7741659601
0.7724903822
0.7708570816
0.7703253676
0.7704479386
0.7710055299
0.7715719632
0.7722136531
0.7722785419
0.7720049581
0.7717625127
0.7715589739
0.771764004
0.772230314
0.7742513486
0.7760389893
0.7755270125
0.7808006839
0.9525731392
1.085632533
1.107058409
1.021759016
0.9582723502
0.8812422154
0.7877352411
0.7512979504
0.7535389415
0.7642683053
0.7753579509
0.7806741007
0.7805255141
0.7797281992
0.7791823311
0.7782319818
0.776424967
0.7754639632
0.7736096892
0.7718079862
0.7710014563
0.770677106
0.7717443013
0.7729989294
0.7739422921
0.7732434793
0.7723658637
0.7718743362
0.7721635766
0.7721998846
0.7727159636
0.7746737528
0.7759497595
0.7758899457
0.8103730478
1.015919784
1.097552633
1.017133522
0.9585040594
0.884611755
0.7904164903
0.7530956752
0.7536693043
0.762960929
0.7744495513
0.7805265711
0.7808958973
0.7805476295
0.780392033
0.7789920126
0.7772934127
0.7763448241
0.7746154174
0.7731542716
0.7721934318
0.7710697836
0.7719534223
0.7731646101
0.774144429
0.7745242623
0.7731170578
0.7720365996
0.7726047221
0.7726717525
0.7732838906
0.7751683859
0.7758724497
0.7764166448
0.8751233421
1.054822372
1.113823482
0.9982357581
0.9609379372
0.8868780664
0.7921765971
0.7545355247
0.753060211
0.7608557719
0.773668658
0.7807173477
0.7811404251
0.7809007154
0.7809199059
0.7793736779
0.7777917827
0.7767448847
0.7750999644
0.7737926006
0.7729543155
0.7720864094
0.772504062
0.7730845672
0.7740762268
0.7745901225
0.7737100368
0.7724688757
0.7729625786
0.773104662
0.7740834957
0.7760233651
0.7759754594
0.7835848464
0.9395919876
1.095966208
1.11868417
0.9905654905
0.9700256473
0.8883458508
0.7939153334
0.7552917441
0.7514357484
0.7593455457
0.7736420415
0.7810161011
0.7818005495
0.7814549034
0.7814498773
0.7798242229
0.7778708912
0.7770684536
0.7754261409
0.774070151
0.7732715337
0.773165095
0.7731384767
0.7735425441
0.7743971052
0.7744820127
0.7740190541
0.7732555946
0.7733254032
0.7733855265
0.7750676482
0.7763070947
0.7760918902
0.8148221258
1.026912717
1.111657567
1.118947252
0.988821711
0.9750851038
0.8889468522
0.7956629815
0.7557935684
0.750544055
0.759163743
0.7736780743
0.7816092194
0.7830444772
0.7825500116
0.7823210053
0.7808025422
0.7784334374
0.7777083228
0.7759727402
0.7745267485
0.7735291763
0.7735411988
0.7739284048
0.7741717499
0.7746291161
0.7742000576
0.7742655895
0.7739757935
0.7737595084
0.7737314683
0.7754355766
0.776198351
0.777609788
0.8778721256
1.079568207
1.114463444
1.115723686
0.9869608127
0.9754609774
0.888918581
0.7971897588
0.7567571756
0.7502311932
0.7590708676
0.7733784274
0.7824001292
0.7841875722
0.7844214408
0.783757868
0.7819719621
0.7795944352
0.7789376698
0.7770598415
0.7755230449
0.7741076272
0.7737744392
0.7744515773
0.7747048586
0.7749736525
0.7739845056
0.7744058591
0.7743980029
)
;

boundaryField
{
    inlet
    {
        type            fixedValue;
        value           nonuniform 0();
    }
    outlet
    {
        type            inletOutlet;
        inletValue      nonuniform 0();
        value           nonuniform 0();
    }
    bottom
    {
        type            slip;
    }
    top
    {
        type            slip;
    }
    obstacle
    {
        type            zeroGradient;
    }
    defaultFaces
    {
        type            empty;
    }
    procBoundary9to3
    {
        type            processor;
        value           nonuniform List<scalar> 
38
(
1.316348814
1.293634955
1.273882203
1.255708935
1.23706464
1.219091934
1.204349594
1.190148466
1.175328325
1.162872438
1.151246097
1.138528404
1.125952501
1.115877717
1.106216035
1.095220041
1.084923935
1.000000001
1.000349298
1.041910854
1.375551784
1.531082267
1.555236818
1.555021128
1.553704185
1.549328104
1.543576422
1.535317809
1.519836777
1.498840065
1.47533751
1.445942367
1.419635696
1.397592843
1.372294154
1.346579429
1.325323943
1.325323943
)
;
    }
    procBoundary9to4
    {
        type            processor;
        value           nonuniform List<scalar> 9(1.069312589 1.061044663 1.05251652 1.044294668 1.03548637 1.027189893 1.018220375 1.00978294 1.000944895);
    }
    procBoundary9to8
    {
        type            processor;
        value           nonuniform List<scalar> 10(1 1 0.9999999974 0.9999978341 0.9997804734 0.9976930423 1.035787757 1.353842285 1.515932087 1.528609888);
    }
    procBoundary9to10
    {
        type            processor;