/*--------------------------------*- C++ -*----------------------------------*\
  =========                 |
  \\      /  F ield         | OpenFOAM: The Open Source CFD Toolbox
   \\    /   O peration     | Website:  https://openfoam.org
    \\  /    A nd           | Version:  7
     \\/     M anipulation  |
\*---------------------------------------------------------------------------*/
FoamFile
{
    version     2.0;
    format      ascii;
    class       volVectorField;
    location    "2.3";
    object      U;
}
// * * * * * * * * * * * * * * * * * * * * * * * * * * * * * * * * * * * * * //

dimensions      [0 1 -1 0 0 0 0];

internalField   nonuniform List<vector> 5((2.999949045 -8.60420506e-05 0) (2.995417028 -0.00783193944 0) (2.989086587 -0.02030736907 0) (2.98277845 -0.0345005638 0) (2.966723216 -0.07474729666 0));

boundaryField
{
    inlet
    {
        type            fixedValue;
        value           nonuniform 0();
    }
    outlet
    {
        type            inletOutlet;
        inletValue      nonuniform 0();
        value           nonuniform 0();
    }
    bottom
    {
        type            slip;
    }
    top
    {
        type            slip;
    }
    obstacle
    {
        type            slip;
    }
    defaultFaces
    {
        type            empty;
    }
    procBoundary14to7
    {
        type            processor;
        value           nonuniform List<vector> 2((2.999989885 -1.766171842e-05 0) (2.998496492 -0.002428982475 0));
    }
    procBoundary14to8
    {
        type            processor;
        value           nonuniform List<vector> 5((3.000000281 3.197947139e-07 0) (2.999724549 -0.0005309426319 0) (2.999724549 -0.0005309426319 0) (2.999339824 -0.001322673195 0) (2.998204365 -0.003813864593 0));
    }
    procBoundary14to9
    {
        type            processor;
        value           uniform (2.965752138 -0.07858549454 0);
    }
    procBoundary14to13
    {
        type            processor;
        value           uniform (2.973872395 -0.004539721867 0);
    }
    procBoundary14to20
    {
        type            processor;
        value           nonuniform List<vector> 3((2.958831089 -0.0205156345 0) (2.947687105 -0.02624073569 0) (2.928659625 -0.0535594125 0));
    }
}


// ************************************************************************* //
