/*--------------------------------*- C++ -*----------------------------------*\
  =========                 |
  \\      /  F ield         | OpenFOAM: The Open Source CFD Toolbox
   \\    /   O peration     | Website:  https://openfoam.org
    \\  /    A nd           | Version:  7
     \\/     M anipulation  |
\*---------------------------------------------------------------------------*/
FoamFile
{
    version     2.0;
    format      ascii;
    class       volVectorField;
    location    "3.3";
    object      U;
}
// * * * * * * * * * * * * * * * * * * * * * * * * * * * * * * * * * * * * * //

dimensions      [0 1 -1 0 0 0 0];

internalField   nonuniform List<vector> 
2222
(
(3 -4.537840024e-15 0)
(3 -2.304408061e-17 0)
(3 3.029314088e-15 0)
(3 6.530453353e-15 0)
(3 7.533332125e-15 0)
(3 6.931566865e-15 0)
(3 5.070434884e-15 0)
(3 4.268221641e-15 0)
(3 4.13920944e-15 0)
(3 4.721341004e-15 0)
(3 5.064077905e-15 0)
(3 5.211152969e-15 0)
(3 4.702867533e-15 0)
(3 2.719492754e-15 0)
(3 2.368029793e-15 0)
(3 1.87213094e-15 0)
(3 8.8962429e-16 0)
(3 -4.3084212e-16 0)
(3 -1.284027388e-15 0)
(3 7.371542817e-16 0)
(3 2.208661619e-15 0)
(3 2.679041873e-15 0)
(3 3.458835668e-15 0)
(3 3.400181835e-15 0)
(3 3.597679066e-15 0)
(3 2.66148941e-15 0)
(3 2.305118977e-15 0)
(3 1.666128073e-15 0)
(3 1.250746672e-15 0)
(3 3.106661526e-15 0)
(3 3.996870617e-15 0)
(3 1.291615893e-15 0)
(3 2.120365597e-16 0)
(3 -1.50503539e-16 0)
(3 -1.070374621e-15 0)
(3 -5.635227739e-16 0)
(3 4.151125833e-15 0)
(3 4.237723074e-15 0)
(3 3.55293233e-15 0)
(3 2.771805526e-15 0)
(3 3.066354462e-15 0)
(3 3.366838656e-15 0)
(3 4.182881526e-15 0)
(3 4.06362143e-15 0)
(3 4.670422754e-15 0)
(3 4.818887481e-15 0)
(3 4.017274255e-15 0)
(3 3.819402556e-15 0)
(3 2.349694187e-15 0)
(3 2.33553028e-15 0)
(3 2.467573558e-15 0)
(3 1.901772428e-15 0)
(3 2.453278779e-15 0)
(3 4.255512264e-15 0)
(3 4.410705046e-15 0)
(3 3.729823572e-15 0)
(3 2.537784858e-15 0)
(3 1.466305287e-15 0)
(3 -8.61058608e-17 0)
(3 5.221771206e-16 0)
(3 3.31408232e-16 0)
(3 1.700323202e-15 0)
(3 1.527885754e-15 0)
(3 1.280870978e-15 0)
(3 -2.280330602e-16 0)
(3 -1.415545877e-15 0)
(3 -1.710893382e-15 0)
(3 -4.623084727e-15 0)
(3 7.465043159e-16 0)
(3 9.022685794e-16 0)
(3 1.113523596e-15 0)
(3 1.581607383e-15 0)
(3 1.725288045e-15 0)
(3 1.322243931e-15 0)
(3 1.514573726e-15 0)
(3 2.095937085e-15 0)
(3 3.499625418e-15 0)
(3 3.603944156e-15 0)
(3 4.240054229e-15 0)
(3 4.170272962e-15 0)
(3 3.405230541e-15 0)
(3 2.575746178e-15 0)
(3 5.426994639e-16 0)
(3 1.827476321e-16 0)
(3 1.108317649e-15 0)
(3 3.698855626e-15 0)
(3 6.822174691e-15 0)
(3 5.320470106e-15 0)
(3 4.615046457e-15 0)
(3 3.352337375e-15 0)
(3 3.524713845e-15 0)
(3 2.894536774e-15 0)
(3 1.91863033e-15 0)
(3 1.310380773e-15 0)
(3 6.196250178e-16 0)
(3 6.794394207e-16 0)
(3 7.498675101e-16 0)
(3 -8.714194629e-16 0)
(3 -3.097469346e-15 0)
(3 -2.021497238e-15 0)
(3 6.0426629e-17 0)
(3 6.438290381e-16 0)
(3 -1.302990441e-15 0)
(3 -1.971648444e-15 0)
(3 -1.978089778e-15 0)
(3 1.90468091e-15 0)
(3 2.482946463e-15 0)
(3 5.88706079e-16 0)
(3 3.427027096e-16 0)
(3 1.690659041e-15 0)
(3 2.401543052e-15 0)
(3 2.638524175e-15 0)
(3 2.587053518e-15 0)
(3 3.146734416e-15 0)
(3 2.684236541e-15 0)
(3 5.408406041e-16 0)
(3 -3.368741569e-17 0)
(3 7.963614011e-17 0)
(3 2.992103158e-15 0)
(3 5.659525134e-15 0)
(3 6.015683694e-15 0)
(3 3.2777549e-15 0)
(3 2.942860382e-16 0)
(3 1.634382258e-16 0)
(3 2.00892951e-15 0)
(3 4.947772741e-15 0)
(3 5.872719137e-15 0)
(3 5.410311963e-15 0)
(3 4.447579289e-15 0)
(3 1.904816719e-15 0)
(3 9.51548646e-16 0)
(3 9.491370918e-17 0)
(3 -3.172951602e-17 0)
(3 2.061988035e-17 0)
(3 1.177408526e-15 0)
(3 1.972000747e-15 0)
(3 -3.070224609e-15 0)
(3 -3.578006477e-15 0)
(3 -2.536284207e-15 0)
(3 -1.30728612e-15 0)
(3 3.627938007e-16 0)
(3 8.348867447e-16 0)
(3 1.068598228e-15 0)
(3 1.27705301e-15 0)
(3 7.559252829e-16 0)
(3 6.993519497e-16 0)
(3 5.011979935e-18 0)
(3 -2.641742095e-16 0)
(3 -1.160710508e-15 0)
(3 -7.110948333e-16 0)
(3 -1.316031309e-15 0)
(3 5.084859884e-16 0)
(3 3.128684595e-15 0)
(3 5.301236574e-15 0)
(3 4.544516321e-15 0)
(3 2.749383088e-15 0)
(3 1.539437752e-15 0)
(3 7.719594266e-16 0)
(3 -9.005042324e-16 0)
(3 -6.710191989e-16 0)
(3 4.006125851e-17 0)
(3 1.551960534e-15 0)
(3 1.894864283e-15 0)
(3 1.913044331e-15 0)
(3 1.5498865e-15 0)
(3 4.408784586e-16 0)
(3 5.559647577e-16 0)
(3 5.74098577e-16 0)
(3 5.057193906e-16 0)
(3 8.140176699e-16 0)
(3 -1.371655856e-15 0)
(3 -3.517583208e-16 0)
(3 -3.922658655e-16 0)
(3 9.374942832e-17 0)
(3 9.025459747e-16 0)
(3 3.791286352e-15 0)
(3 3.227112181e-15 0)
(3 2.260758799e-15 0)
(3 1.509187896e-15 0)
(3 1.533428272e-15 0)
(3 -2.405858075e-16 0)
(3 -1.648538697e-15 0)
(3 -1.109846446e-15 0)
(3 1.258689823e-15 0)
(3 1.067523496e-15 0)
(3 8.813999425e-16 0)
(3 1.738884157e-15 0)
(3 2.234756854e-15 0)
(3 -4.235476501e-16 0)
(3 -6.568254657e-16 0)
(3 -6.190185686e-16 0)
(3 2.161390001e-16 0)
(3 1.225460201e-16 0)
(3 -1.91157545e-15 0)
(3 -1.508856069e-15 0)
(3 -1.532390776e-15 0)
(3 -1.618180854e-15 0)
(3 -1.113534392e-15 0)
(3 -1.89979831e-15 0)
(3 -3.101649639e-15 0)
(3 -2.705119532e-15 0)
(3 -2.126694874e-15 0)
(3 -1.228860176e-15 0)
(3 1.838313131e-15 0)
(3 1.649655636e-15 0)
(3 2.260511539e-15 0)
(3 2.746734304e-15 0)
(3 3.558600471e-15 0)
(3 3.568787197e-15 0)
(3 3.080452913e-15 0)
(3 2.673269889e-15 0)
(3 2.484931909e-15 0)
(3 9.267133169e-16 0)
(3 6.826956761e-17 0)
(3 3.168050677e-16 0)
(3 -3.458297504e-16 0)
(3 8.035033977e-16 0)
(3 2.447387472e-15 0)
(3 2.947072109e-15 0)
(3 1.094020453e-15 0)
(3 9.427112303e-16 0)
(3 1.564562019e-15 0)
(3 1.295165231e-16 0)
(3 -1.707281758e-15 0)
(3 -2.125905155e-15 0)
(3 -1.509921498e-15 0)
(3 -2.147877784e-15 0)
(3 -2.043388497e-15 0)
(3 -2.037321883e-15 0)
(3 -3.002398957e-15 0)
(3 -2.709207502e-15 0)
(3 -2.235453967e-15 0)
(3 -2.909128383e-15 0)
(3 -1.942473915e-15 0)
(3 -1.130782405e-15 0)
(3 -7.743070834e-16 0)
(3 6.13907758e-16 0)
(3 -2.264712834e-16 0)
(3 2.223045854e-15 0)
(3 2.299002964e-15 0)
(3 3.991935078e-15 0)
(3 4.76068579e-15 0)
(3 3.849252064e-15 0)
(3 3.803556762e-15 0)
(3 3.44716692e-15 0)
(3 3.264724452e-15 0)
(3 2.212576532e-15 0)
(3 1.870675048e-15 0)
(3 1.865170774e-15 0)
(3 1.369191975e-16 0)
(3 -1.370777886e-15 0)
(3 -2.787652607e-16 0)
(3 1.343629754e-15 0)
(3 2.490031384e-15 0)
(3 2.720226701e-15 0)
(3 2.211432897e-15 0)
(3 2.035116733e-15 0)
(3 1.451177958e-15 0)
(3 7.570796639e-16 0)
(3 -5.523302798e-16 0)
(3 -7.52389529e-16 0)
(3 -3.985706151e-16 0)
(3 -2.371981709e-15 0)
(3 -3.948934079e-15 0)
(3 -4.12297619e-15 0)
(3 -3.985445809e-15 0)
(3 -3.641660818e-15 0)
(3 -2.991248825e-15 0)
(3 -1.375897987e-15 0)
(3 7.372886104e-18 0)
(3 -8.483331522e-16 0)
(3 -3.111648035e-15 0)
(3 3.306921625e-15 0)
(3 2.903960665e-15 0)
(3 4.214491997e-15 0)
(3 3.396804178e-15 0)
(3 4.125809015e-15 0)
(3 5.473249352e-15 0)
(3 5.434458538e-15 0)
(3 4.605767238e-15 0)
(3 3.750825462e-15 0)
(3 2.330166852e-15 0)
(3 8.430232265e-16 0)
(3 1.022869641e-15 0)
(3 8.543106788e-16 0)
(3 9.263032994e-16 0)
(3 2.23478698e-15 0)
(3 5.15256657e-15 0)
(3 4.849729595e-15 0)
(3 2.830378011e-15 0)
(3 2.962226901e-15 0)
(3 3.459195102e-15 0)
(3 2.934240594e-15 0)
(3 1.878640114e-15 0)
(3 1.953115055e-15 0)
(3 1.904463314e-15 0)
(3 -8.558937206e-16 0)
(3 -2.352001244e-15 0)
(3 -4.34044927e-15 0)
(3 -4.538475485e-15 0)
(3 -5.346505095e-15 0)
(3 -5.898052886e-15 0)
(3 -5.383043385e-15 0)
(3 -4.874851187e-15 0)
(3 -2.379922436e-15 0)
(3 -2.862689825e-15 0)
(3 1.845313571e-15 0)
(3 4.640718268e-16 0)
(3 4.846824503e-16 0)
(3 -2.011473514e-15 0)
(3 -2.031064799e-17 0)
(3 3.62576427e-15 0)
(3 5.083791058e-15 0)
(3 3.775023772e-15 0)
(3 2.600017577e-15 0)
(3 -5.834017906e-17 0)
(3 -5.030255767e-16 0)
(3 1.667675541e-15 0)
(3 5.166422895e-15 0)
(3 5.016381305e-15 0)
(3 4.384707747e-15 0)
(3 4.468204846e-15 0)
(3 2.585510025e-15 0)
(3 2.68256807e-15 0)
(3 2.87956824e-15 0)
(3 3.174043498e-15 0)
(3 3.628172228e-15 0)
(3 3.112820084e-15 0)
(3 2.370115155e-15 0)
(3 5.848759558e-16 0)
(3 -3.312021477e-16 0)
(3 -2.355189677e-15 0)
(3 -1.981994823e-15 0)
(3 -1.834362488e-15 0)
(3 -2.239017927e-15 0)
(3 -2.08700883e-15 0)
(3 -3.499951166e-15 0)
(3 -5.803452809e-15 0)
(3 -4.033832656e-15 0)
(3 -2.76534665e-15 0)
(3 -8.960173323e-16 0)
(3 -3.618871078e-15 0)
(3 -6.031847228e-15 0)
(3 -8.147285694e-15 0)
(3 -4.707776089e-15 0)
(3 -1.762736081e-15 0)
(3 -2.030519541e-16 0)
(3 -3.008737194e-16 0)
(3 7.942261013e-16 0)
(3 2.427965129e-15 0)
(3 3.686911963e-15 0)
(3 5.906163402e-15 0)
(3 5.404956733e-15 0)
(3 5.920941871e-15 0)
(3 5.311309521e-15 0)
(3 3.977782634e-15 0)
(3 1.929414924e-15 0)
(3 1.471304902e-15 0)
(3 1.640217759e-15 0)
(3 1.997903127e-15 0)
(3 2.566969317e-15 0)
(3 1.707716476e-15 0)
(3 4.437680608e-16 0)
(3 -2.090256181e-16 0)
(3 1.172121329e-15 0)
(3 1.940835523e-15 0)
(3 1.618584163e-15 0)
(3 8.239882155e-16 0)
(3 2.122234371e-15 0)
(3 8.407002348e-16 0)
(3 -2.498937013e-15 0)
(3 -4.583709037e-15 0)
(3 -6.294259384e-15 0)
(3 -5.787563638e-15 0)
(3 1.312651124e-15 0)
(3 -2.199076526e-15 0)
(3 -5.412603928e-15 0)
(3 -5.846887658e-15 0)
(3 -5.72161858e-15 0)
(3 -6.845109515e-15 0)
(3 -4.778318711e-15 0)
(3 -2.33396395e-15 0)
(3 1.0519408e-16 0)
(3 4.806502406e-15 0)
(3 8.506688056e-15 0)
(3 9.02367238e-15 0)
(3 7.128151411e-15 0)
(3 6.683262374e-15 0)
(3 7.009050613e-15 0)
(3 4.934411366e-15 0)
(3 4.308115641e-15 0)
(3 2.789307602e-15 0)
(3 2.700217691e-15 0)
(3 1.725989503e-15 0)
(3 7.226745992e-16 0)
(3 2.063768971e-16 0)
(3 -9.504925436e-16 0)
(3 -9.779118137e-16 0)
(3 1.174181875e-15 0)
(3 2.196748009e-15 0)
(3 1.648071273e-15 0)
(3 1.277887126e-15 0)
(3 8.821251351e-16 0)
(3 -8.829710172e-16 0)
(3 -2.893511201e-15 0)
(3 -3.705263432e-15 0)
(3 -4.617543638e-15 0)
(3 -4.995466873e-15 0)
(3 3.180700438e-15 0)
(3 2.136275615e-15 0)
(3 -1.410080896e-16 0)
(3 -2.621867384e-15 0)
(3 -3.296385733e-15 0)
(3 -4.679903095e-15 0)
(3 -3.313140545e-15 0)
(3 -2.05928843e-15 0)
(3 1.517719935e-16 0)
(3 1.011554887e-15 0)
(3 4.105682885e-15 0)
(3 5.733475292e-15 0)
(3 6.022025274e-15 0)
(3 4.316561367e-15 0)
(3 4.803805551e-15 0)
(3 3.881939717e-15 0)
(3 4.332444806e-15 0)
(3 4.417899693e-15 0)
(3 2.430807107e-15 0)
(3 2.620689636e-15 0)
(3 7.167834166e-16 0)
(3 4.580892115e-16 0)
(3 -5.009203996e-17 0)
(3 -9.777325247e-16 0)
(3 -1.812217814e-15 0)
(3 -9.530675774e-16 0)
(3 -1.641194199e-15 0)
(3 -1.799681767e-15 0)
(3 -2.368436035e-15 0)
(3 -1.126181409e-16 0)
(3 -7.565901852e-16 0)
(3 -2.559741175e-15 0)
(3 -3.173550197e-15 0)
(3 -4.133714858e-15 0)
(3 1.83747152e-16 0)
(3 1.104786889e-15 0)
(3 2.130685436e-15 0)
(3 4.085438754e-16 0)
(3 -1.614835339e-15 0)
(3 -2.660133993e-15 0)
(3 -7.906079515e-16 0)
(3 2.34572248e-16 0)
(3 8.664533554e-17 0)
(3 -1.557376695e-15 0)
(3 -6.714008498e-16 0)
(3 1.782857145e-15 0)
(3 4.775861108e-15 0)
(3 3.956237035e-15 0)
(3 3.426698956e-15 0)
(3 3.564835817e-15 0)
(3 4.108178887e-15 0)
(3 4.828241311e-15 0)
(3 4.418584976e-15 0)
(3 4.318849419e-15 0)
(3 2.519484023e-15 0)
(3 1.56718136e-15 0)
(3 1.193642542e-16 0)
(3 -2.413397993e-15 0)
(3 -3.099851004e-15 0)
(3 -2.519491641e-15 0)
(3 -3.327185743e-15 0)
(3 -2.693953066e-15 0)
(3 -2.463250329e-15 0)
(3 -4.957577128e-16 0)
(3 1.877238476e-16 0)
(3 -1.266307e-15 0)
(3 -2.209676595e-15 0)
(3 -2.835815499e-15 0)
(3 8.25318889e-16 0)
(3 1.809358055e-15 0)
(3 2.149535312e-15 0)
(3 1.571801433e-15 0)
(3 3.007394951e-16 0)
(3 1.839558416e-16 0)
(3 4.524325234e-16 0)
(3 -9.236531758e-16 0)
(3 -1.287105148e-15 0)
(3 1.571498381e-16 0)
(3 1.387657159e-15 0)
(3 1.309000905e-15 0)
(3 3.87868639e-15 0)
(3 3.941211926e-15 0)
(3 4.53773463e-15 0)
(3 5.143430313e-15 0)
(3 4.14618021e-15 0)
(3 4.093167708e-15 0)
(3 4.660882392e-15 0)
(3 2.214660223e-15 0)
(3 1.232221621e-15 0)
(3 -8.119901167e-16 0)
(3 -2.157783957e-15 0)
(3 -2.837345941e-15 0)
(3 -2.569417092e-15 0)
(3 -3.580045174e-15 0)
(3 -3.910526563e-15 0)
(3 -3.235458271e-15 0)
(3 -3.441278975e-15 0)
(3 -4.130335774e-15 0)
(3 -2.753043547e-15 0)
(3 -1.02477192e-15 0)
(3 -1.17639651e-15 0)
(3 -9.486464808e-16 0)
(3 -1.33574451e-15 0)
(3 6.73093223e-16 0)
(3 8.939142441e-16 0)
(3 1.024237377e-15 0)
(3 2.850267569e-16 0)
(3 -2.914854563e-17 0)
(3 -1.206570347e-15 0)
(3 -3.022323174e-15 0)
(3 -1.177387671e-15 0)
(3 -1.911020792e-17 0)
(3 1.357166649e-15 0)
(3 9.760237409e-16 0)
(3 5.662325089e-16 0)
(3 1.642023382e-15 0)
(3 8.386497367e-16 0)
(3 6.741949228e-16 0)
(3 1.524601806e-15 0)
(3 9.955442811e-16 0)
(3 1.526080401e-15 0)
(3 -9.36714224e-17 0)
(3 -8.590255154e-17 0)
(3 -1.254085607e-16 0)
(3 -1.210027464e-15 0)
(3 -2.856549674e-15 0)
(3 -4.05853048e-15 0)
(3 -4.819694328e-15 0)
(3 -4.558549877e-15 0)
(3 -4.651927772e-15 0)
(3 -5.848537018e-15 0)
(3 -7.281000904e-15 0)
(3 -6.543270198e-15 0)
(3 -3.022653656e-15 0)
(3 -9.810573696e-16 0)
(3 7.981533857e-17 0)
(3 8.833930701e-17 0)
(3 7.844976699e-16 0)
(3 9.815373592e-16 0)
(3 1.146309927e-15 0)
(3 1.521760526e-15 0)
(3 7.903188831e-16 0)
(3 -7.300665901e-16 0)
(3 -9.203889745e-17 0)
(3 2.358256308e-16 0)
(3 -9.624704834e-16 0)
(3 -9.132689261e-16 0)
(3 -1.184017003e-15 0)
(3 -8.265132989e-16 0)
(3 -3.642927395e-16 0)
(3 -1.80998378e-15 0)
(3 -3.027025182e-15 0)
(3 -2.4108546e-15 0)
(3 -2.142589736e-15 0)
(3 -2.541498612e-15 0)
(3 -2.523265884e-15 0)
(3 -2.017810856e-15 0)
(3 -1.349695393e-15 0)
(3 -1.75480564e-15 0)
(3 -3.07410729e-15 0)
(3 -6.197035501e-15 0)
(3 -6.954718423e-15 0)
(3 -5.396885193e-15 0)
(3 -4.842750051e-15 0)
(3 -5.591111068e-15 0)
(3 -7.946477244e-15 0)
(3 -7.097535081e-15 0)
(3 -3.887124625e-15 0)
(3 1.230233625e-15 0)
(3 1.3424106e-15 0)
(3 2.314115357e-15 0)
(3 1.062057798e-15 0)
(3 1.957319168e-15 0)
(3 3.980147826e-15 0)
(3 4.259355419e-15 0)
(3 3.503247324e-15 0)
(3 2.45553017e-15 0)
(3 2.367121055e-15 0)
(3 1.331492999e-15 0)
(3 9.016830973e-16 0)
(3 5.633118296e-16 0)
(3 2.201949042e-16 0)
(3 1.408217127e-15 0)
(3 -1.052229905e-15 0)
(3 -5.072089677e-16 0)
(3 1.653776005e-16 0)
(3 -1.116852505e-15 0)
(3 -2.511583667e-15 0)
(3 -4.384903865e-15 0)
(3 -3.944075185e-15 0)
(3 -1.751345222e-15 0)
(3 6.331246599e-16 0)
(3 7.653375934e-16 0)
(3 -8.97069181e-17 0)
(3 -2.343883426e-15 0)
(3 -2.683202911e-15 0)
(3 -1.412621068e-15 0)
(3 -1.636810571e-15 0)
(3 -5.607924509e-16 0)
(3 -9.58613684e-16 0)
(3 -1.697638981e-15 0)
(3 -1.467454039e-15 0)
(3 -2.201827649e-16 0)
(3 2.781996276e-15 0)
(3 -4.41460815e-16 0)
(3 -2.204913824e-15 0)
(3 -2.192443171e-15 0)
(3 -6.155768465e-16 0)
(3 1.065260627e-15 0)
(3 1.288256923e-15 0)
(3 3.964715304e-15 0)
(3 4.569880317e-15 0)
(3 4.463496292e-15 0)
(3 4.62097507e-15 0)
(3 4.288652601e-15 0)
(3 1.682342025e-15 0)
(3 -1.934269598e-15 0)
(3 -9.350882884e-16 0)
(3 4.6654741e-16 0)
(3 2.36653038e-16 0)
(3 1.657201159e-15 0)
(3 -6.340889026e-16 0)
(3 -3.023584094e-15 0)
(3 -2.945070954e-16 0)
(3 2.992007702e-15 0)
(3 4.368669306e-15 0)
(3 4.239347316e-15 0)
(3 3.875844403e-15 0)
(3 2.980118033e-15 0)
(3 2.786429543e-15 0)
(3 2.20692792e-15 0)
(3 5.952530874e-16 0)
(3 2.946067175e-16 0)
(3 5.488273743e-16 0)
(3 -1.463156603e-15 0)
(3 -1.674691664e-15 0)
(3 -3.775927761e-16 0)
(3 1.795237176e-15 0)
(3 -1.546039655e-15 0)
(3 -1.562368884e-15 0)
(3 -2.660543127e-15 0)
(3 -3.805316609e-15 0)
(3 -3.778457751e-15 0)
(3 -2.690107961e-15 0)
(3 9.041823334e-16 0)
(3 4.570099623e-15 0)
(3 4.478804656e-15 0)
(3 4.280324086e-15 0)
(3 2.359657343e-15 0)
(3 -8.307975024e-16 0)
(3 -1.428414101e-15 0)
(3 -2.501619387e-16 0)
(3 8.041636298e-16 0)
(3 1.596687974e-15 0)
(3 2.483379923e-15 0)
(3 1.951984854e-15 0)
(3 1.115701049e-15 0)
(3 1.434370654e-15 0)
(3 1.48040264e-15 0)
(3 1.115118386e-15 0)
(3 1.60654378e-15 0)
(3 2.607609686e-15 0)
(3 4.648613615e-15 0)
(3 3.592916998e-15 0)
(3 1.710477522e-15 0)
(3 -6.893218302e-16 0)
(3 -6.462685765e-16 0)
(3 -1.405071347e-15 0)
(3 -2.884673598e-15 0)
(3 -1.466028108e-15 0)
(3 -9.850679674e-17 0)
(3 1.851782007e-15 0)
(3 -4.047379545e-16 0)
(3 1.533921043e-15 0)
(3 2.785431772e-15 0)
(3 2.384366643e-15 0)
(3 9.802528463e-16 0)
(3 6.163767536e-16 0)
(3 2.500228535e-16 0)
(3 2.523075095e-15 0)
(3 7.123341717e-16 0)
(3 -1.716583094e-15 0)
(3 -3.527390947e-15 0)
(3 -3.811769495e-15 0)
(3 -2.227286606e-15 0)
(3 -2.557061196e-15 0)
(3 -5.697895217e-16 0)
(3 -1.477735848e-16 0)
(3 -6.501142724e-16 0)
(3 3.686100137e-16 0)
(3 1.12545065e-15 0)
(3 -4.969785857e-16 0)
(3 -1.425532254e-15 0)
(3 -1.502565155e-15 0)
(3 -1.531311297e-15 0)
(3 -2.26286996e-16 0)
(3 1.677781824e-15 0)
(3 1.080969395e-15 0)
(3 -7.430692159e-16 0)
(3 -2.410556891e-15 0)
(3 -2.695338158e-15 0)
(3 -3.668995855e-15 0)
(3 -3.345734368e-15 0)
(3 -3.321141581e-15 0)
(3 -3.911652735e-15 0)
(3 -3.631909271e-15 0)
(3 1.432265104e-16 0)
(3 1.445617033e-15 0)
(3 2.814500439e-15 0)
(3 5.021072312e-15 0)
(3 5.281054807e-15 0)
(3 3.00755802e-15 0)
(3 1.679411753e-15 0)
(3 -4.687408423e-17 0)
(3 -1.502207515e-15 0)
(3 -2.185827095e-15 0)
(3 -3.837689466e-15 0)
(3 -4.359182828e-15 0)
(3 -1.446138676e-15 0)
(3 9.092324886e-16 0)
(3 9.043346536e-16 0)
(3 -9.325266235e-16 0)
(3 -3.067751518e-15 0)
(3 -3.081408611e-15 0)
(3 -1.268080274e-15 0)
(3 -2.134313004e-15 0)
(3 -1.456102875e-15 0)
(3 -3.726928192e-16 0)
(3 -7.575245673e-16 0)
(3 2.811222697e-19 0)
(3 -2.604761702e-16 0)
(3 -2.131600722e-15 0)
(3 -1.245294956e-15 0)
(3 -1.762273247e-15 0)
(3 -3.383304524e-15 0)
(3 -4.043987939e-15 0)
(3 -2.775595391e-15 0)
(3 -2.448724945e-15 0)
(3 -4.678456699e-15 0)
(3 -5.486866393e-15 0)
(3 -1.664421218e-15 0)
(3 -1.075644797e-15 0)
(3 -6.351320605e-16 0)
(3 -1.080288149e-15 0)
(3 -8.874021009e-16 0)
(3 3.760841085e-16 0)
(3 8.753085731e-16 0)
(3 -5.410302953e-16 0)
(3 -2.065386011e-15 0)
(3 -2.716526557e-15 0)
(3 -3.317095503e-15 0)
(3 -1.162212634e-15 0)
(3 2.109166458e-16 0)
(3 -4.476465874e-16 0)
(3 -1.949010479e-15 0)
(3 -2.981020834e-15 0)
(3 -4.146133236e-15 0)
(3 -2.478206323e-15 0)
(3 2.580196223e-16 0)
(3 -1.252978102e-15 0)
(3 -1.656227303e-15 0)
(3 -1.39526478e-15 0)
(3 1.22170697e-16 0)
(3 4.002706778e-17 0)
(3 -6.923228858e-16 0)
(3 -1.784479247e-15 0)
(3 -1.700191517e-15 0)
(3 -1.435148961e-15 0)
(3 -2.337168305e-15 0)
(3 -2.409819283e-15 0)
(3 3.158179734e-16 0)
(3 1.843014786e-15 0)
(3 -5.745499999e-16 0)
(3 -3.198393972e-15 0)
(3 -3.213685907e-15 0)
(3 -2.946347e-15 0)
(3 -1.625489672e-15 0)
(3 -3.899185893e-15 0)
(3 -6.330917967e-15 0)
(3 -4.829013583e-15 0)
(3 -4.015223274e-15 0)
(3 -2.980298659e-15 0)
(3 -2.990491903e-15 0)
(3 -3.991508088e-15 0)
(3 -2.655237509e-15 0)
(3 -1.265337759e-15 0)
(3 -1.717096222e-15 0)
(3 -3.370784001e-15 0)
(3 -4.740138125e-15 0)
(3 -4.82580679e-15 0)
(3 -5.010174038e-15 0)
(3 -7.691200301e-16 0)
(3 4.005998046e-16 0)
(3 5.723686027e-16 0)
(3 -5.866376482e-16 0)
(3 -2.242734602e-15 0)
(3 -2.300074587e-15 0)
(3 -2.032178937e-15 0)
(3 -2.319716183e-15 0)
(3 -3.240750051e-16 0)
(3 -1.798686086e-15 0)
(3 -2.552375813e-15 0)
(3 -2.629746836e-15 0)
(3 -1.481262168e-15 0)
(3 1.786743932e-15 0)
(3 1.713702214e-15 0)
(3 2.92386763e-16 0)
(3 -5.497455692e-16 0)
(3 -4.273907419e-15 0)
(3 -3.681023383e-15 0)
(3 -3.515440063e-15 0)
(3 -2.522076397e-15 0)
(3 -3.329671038e-15 0)
(3 -4.286346877e-15 0)
(3 -6.401902494e-15 0)
(3 -5.877885024e-15 0)
(3 -5.13057266e-15 0)
(3 -2.251374943e-15 0)
(3 -1.099573813e-15 0)
(3 -2.937822512e-15 0)
(3 -3.171909918e-15 0)
(3 -2.681428978e-15 0)
(3 -2.096017973e-15 0)
(3 -1.920341374e-15 0)
(3 -1.63954628e-15 0)
(3 -2.85738071e-17 0)
(3 -1.193090277e-15 0)
(3 -4.179628508e-16 0)
(3 4.193904658e-16 0)
(3 9.98212594e-16 0)
(3 9.557364348e-16 0)
(3 5.711461209e-16 0)
(3 -3.3080883e-16 0)
(3 -1.006659347e-15 0)
(3 -2.28796708e-16 0)
(3 -1.094177883e-15 0)
(3 -5.182695314e-16 0)
(3 -3.141041882e-16 0)
(3 5.484033747e-16 0)
(3 -9.400588973e-17 0)
(3 -9.617624927e-17 0)
(3 1.566966297e-15 0)
(3 -2.888199749e-15 0)
(3 -4.070848032e-15 0)
(3 -5.500420915e-15 0)
(3 -4.875188515e-15 0)
(3 -4.34218496e-15 0)
(3 -6.135973045e-15 0)
(3 -7.148486207e-15 0)
(3 -4.595294701e-15 0)
(3 -2.656160694e-15 0)
(3 7.369181366e-16 0)
(3 7.972768615e-16 0)
(3 4.1308949e-16 0)
(3 1.181592869e-17 0)
(3 -5.404919482e-16 0)
(3 2.3294814e-16 0)
(3 2.905240829e-15 0)
(3 4.22658564e-15 0)
(3 2.936983558e-15 0)
(3 -1.40459988e-16 0)
(3 4.307476819e-16 0)
(3 -2.844522057e-16 0)
(3 7.760896811e-16 0)
(3 1.222484076e-15 0)
(3 1.533807683e-15 0)
(3 9.021729363e-16 0)
(3 -2.037387509e-15 0)
(3 -4.495342972e-16 0)
(3 5.527065916e-16 0)
(3 -2.536861534e-17 0)
(3 -1.273421806e-15 0)
(3 -1.302049789e-15 0)
(3 -4.153740936e-16 0)
(3 -5.376067811e-17 0)
(3 1.450139537e-15 0)
(3 -2.354136059e-15 0)
(3 -3.442488568e-15 0)
(3 -5.939971545e-15 0)
(3 -6.791858758e-15 0)
(3 -5.847317695e-15 0)
(3 -6.140553545e-15 0)
(3 -6.097937284e-15 0)
(3 -4.238775732e-15 0)
(3 -6.975241062e-16 0)
(3 2.319428917e-15 0)
(3 4.269523217e-15 0)
(3 5.349166629e-15 0)
(3 5.273029086e-15 0)
(3 3.195140094e-15 0)
(3 2.712867538e-15 0)
(3 4.187126791e-15 0)
(3 3.724507836e-15 0)
(3 2.386428746e-15 0)
(3 2.942967897e-15 0)
(3 3.184077598e-15 0)
(3 1.996672067e-15 0)
(3 -1.570386121e-15 0)
(3 -3.228797782e-15 0)
(3 -1.608862415e-15 0)
(3 -2.133307959e-16 0)
(3 3.297962803e-16 0)
(3 -1.196321765e-15 0)
(3 5.144974127e-17 0)
(3 1.103210051e-15 0)
(3 4.65597587e-16 0)
(3 -1.806587175e-15 0)
(3 -1.958188604e-15 0)
(3 -1.228775042e-15 0)
(3 -3.344608469e-16 0)
(3 -2.789819274e-15 0)
(3 -2.890408703e-15 0)
(3 -4.739175986e-15 0)
(3 -6.260728331e-15 0)
(3 -5.803651768e-15 0)
(3 -4.287566913e-15 0)
(3 -4.3675706e-15 0)
(3 -5.065024752e-15 0)
(3 -4.351640738e-15 0)
(3 -2.354364143e-15 0)
(3 9.578283449e-16 0)
(3 5.066152745e-15 0)
(3 4.809915163e-15 0)
(3 2.122011024e-15 0)
(3 1.628530248e-15 0)
(3 2.431077036e-16 0)
(3 -1.47961404e-15 0)
(3 -1.557318877e-15 0)
(3 -4.937347394e-16 0)
(3 7.336182581e-17 0)
(3 -1.928409602e-16 0)
(3 -1.120235509e-15 0)
(3 1.177570599e-15 0)
(3 8.508552613e-16 0)
(3 7.80566282e-16 0)
(3 8.477450277e-16 0)
(3 -1.097114096e-16 0)
(3 -2.229235409e-16 0)
(3 1.268489004e-15 0)
(3 1.118102661e-15 0)
(3 -5.376140975e-16 0)
(3 -2.165113691e-15 0)
(3 -1.779498816e-15 0)
(3 -3.34590084e-15 0)
(3 -5.033793231e-15 0)
(3 -4.232742428e-15 0)
(3 -3.654449475e-15 0)
(3 -3.792122565e-15 0)
(3 -4.552328002e-15 0)
(3 -3.465424899e-15 0)
(3 -2.827563972e-15 0)
(3 -2.380002853e-15 0)
(3 -1.239789382e-15 0)
(3 -9.667472817e-16 0)
(3 -9.907274697e-16 0)
(3 -1.036942308e-15 0)
(3 -3.435473676e-15 0)
(3 -2.924626588e-15 0)
(3 -3.47846904e-15 0)
(3 -4.839802401e-15 0)
(3 -3.75376564e-15 0)
(3 -1.073357138e-15 0)
(3 -2.338091894e-15 0)
(3 -3.478088205e-15 0)
(3 -4.438860118e-15 0)
(3 -2.32133827e-15 0)
(3 1.465622757e-15 0)
(3 3.462760447e-15 0)
(3 3.577049056e-15 0)
(3 3.922928503e-15 0)
(3 3.010325054e-15 0)
(3 1.907036128e-15 0)
(3 5.515547289e-16 0)
(3 -2.13093328e-15 0)
(3 -5.10822339e-16 0)
(3 -7.255225177e-16 0)
(3 -6.031223255e-16 0)
(3 -1.740261565e-15 0)
(3 -3.132331463e-15 0)
(3 -3.079853275e-15 0)
(3 -2.039939061e-15 0)
(3 -1.510698126e-15 0)
(3 -3.44013168e-15 0)
(3 -4.342757635e-15 0)
(3 -2.30218122e-15 0)
(3 -4.580851485e-16 0)
(3 -1.151998589e-15 0)
(3 -1.222159429e-15 0)
(3 -2.618514438e-15 0)
(3 -4.59397718e-15 0)
(3 -7.653660203e-15 0)
(3 -7.583037997e-15 0)
(3 -5.643834256e-15 0)
(3 -3.732890605e-15 0)
(3 -1.888265784e-15 0)
(3 3.325398427e-16 0)
(3 9.43383282e-17 0)
(3 -3.451872134e-16 0)
(3 -1.619529705e-16 0)
(3 1.818308114e-15 0)
(3 4.151083699e-16 0)
(3 1.159210967e-15 0)
(3 2.672965423e-15 0)
(3 2.02145046e-15 0)
(3 2.070682532e-16 0)
(3 1.70317091e-15 0)
(3 3.568284251e-16 0)
(3 -1.234680202e-15 0)
(3 7.496744582e-16 0)
(3 6.300206747e-16 0)
(3 1.130339822e-16 0)
(3 -5.238928402e-16 0)
(3 -4.23358322e-15 0)
(3 -3.220648776e-15 0)
(3 -3.132029859e-15 0)
(3 -3.02981653e-15 0)
(3 -3.437761616e-15 0)
(3 -5.292615876e-15 0)
(3 -5.919231628e-15 0)
(3 -5.478273483e-15 0)
(3 -5.823608408e-15 0)
(3 -7.73164494e-15 0)
(3 -7.427750387e-15 0)
(3 -7.815784767e-15 0)
(3 -6.294997216e-15 0)
(3 -6.630306094e-15 0)
(3 -6.197315267e-15 0)
(3 -5.176917991e-15 0)
(3 -2.966304349e-15 0)
(3 -1.927390725e-15 0)
(3 -1.053942954e-15 0)
(3 2.398102973e-15 0)
(3 3.959434423e-15 0)
(3 2.721862538e-15 0)
(3 2.239852776e-15 0)
(3 1.218588644e-15 0)
(3 2.208685663e-17 0)
(3 -3.821870324e-15 0)
(3 -6.003594101e-15 0)
(3 -5.831297243e-15 0)
(3 -4.91275028e-15 0)
(3 -4.641923659e-15 0)
(3 -4.343064567e-15 0)
(3 -4.606947789e-15 0)
(3 -4.523180496e-15 0)
(3 -4.50865093e-15 0)
(3 -1.47789202e-15 0)
(3 -4.294581249e-16 0)
(3 -5.432496153e-16 0)
(3 -1.45043392e-15 0)
(3 -1.347459249e-15 0)
(3 -1.89831284e-15 0)
(3 -4.946146396e-15 0)
(3 -5.587116822e-15 0)
(3 -8.001978281e-15 0)
(3 -9.186985322e-15 0)
(3 -9.509775249e-15 0)
(3 -8.197842263e-15 0)
(3 -3.31458132e-15 0)
(3 -2.216089915e-15 0)
(3 -2.706735909e-15 0)
(3 -2.639183228e-15 0)
(3 -2.989870285e-15 0)
(3 -4.457156577e-15 0)
(3 -3.092362986e-15 0)
(3 -6.589242039e-16 0)
(3 2.404710942e-15 0)
(3 2.95577516e-15 0)
(3 5.052704307e-15 0)
(3 5.47279525e-15 0)
(3 1.44193893e-15 0)
(3 1.131555753e-16 0)
(3 -2.188386412e-15 0)
(3 -7.905978105e-15 0)
(3 -8.43099117e-15 0)
(3 -6.204411509e-15 0)
(3 -6.776723775e-15 0)
(3 -6.139223991e-15 0)
(3 -6.286081158e-15 0)
(3 -6.445425018e-15 0)
(3 1.974746542e-15 0)
(3 8.873295036e-16 0)
(3 1.186979883e-15 0)
(3 6.727138874e-16 0)
(3 3.120963389e-16 0)
(3 -6.052570384e-16 0)
(3 -1.455507759e-15 0)
(3 -2.798674704e-15 0)
(3 -4.107091118e-15 0)
(3 -4.197312239e-15 0)
(3 -5.913152811e-15 0)
(3 -5.557138489e-15 0)
(3 -4.562027893e-15 0)
(3 -2.173503187e-15 0)
(3 -1.781311038e-15 0)
(3 -1.908275042e-15 0)
(3 -3.636919014e-15 0)
(3 -3.755424732e-15 0)
(3 -2.258747526e-15 0)
(3 -1.743421784e-15 0)
(3 -1.898293057e-15 0)
(3 1.957058111e-15 0)
(3 4.350182401e-15 0)
(3 1.93056585e-15 0)
(3 -2.93985106e-16 0)
(3 -2.449597906e-16 0)
(3 -1.284898649e-15 0)
(3 -3.04026747e-15 0)
(3 -2.716079141e-15 0)
(3 -1.923211652e-15 0)
(3 -3.999464202e-15 0)
(3 -4.748714184e-15 0)
(3 -6.352520995e-17 0)
(3 2.415914818e-16 0)
(3 7.021886154e-16 0)
(3 1.260857542e-15 0)
(3 1.819279576e-15 0)
(3 2.218275692e-15 0)
(3 2.491133496e-15 0)
(3 1.72138813e-15 0)
(3 1.61829421e-15 0)
(3 7.320347008e-16 0)
(3 3.795844586e-17 0)
(3 -2.170115469e-15 0)
(3 -2.53510761e-15 0)
(3 -2.284556873e-15 0)
(3 -1.796069714e-15 0)
(3 -6.613508399e-16 0)
(3 -2.500570328e-16 0)
(3 -1.438401516e-15 0)
(3 -3.286301807e-15 0)
(3 -4.204161555e-15 0)
(3 -3.85067895e-15 0)
(3 -3.941329482e-15 0)
(3 -5.098516779e-15 0)
(3 -4.158847803e-15 0)
(3 -2.59036048e-15 0)
(3 -3.763804143e-16 0)
(3 8.389932806e-16 0)
(3 1.214195461e-15 0)
(3 -9.905605146e-17 0)
(3 -1.167189754e-15 0)
(3 -1.904657179e-15 0)
(3 -2.194676564e-15 0)
(3 -1.921732499e-15 0)
(3 -2.342240413e-15 0)
(3 -3.328314229e-15 0)
(3 -3.838628768e-15 0)
(3 -4.195089959e-15 0)
(3 -2.917170013e-15 0)
(3 -3.636013764e-15 0)
(3 -4.210097041e-15 0)
(3 -4.172867135e-15 0)
(3 -3.306900725e-15 0)
(3 -3.301114206e-15 0)
(3 -2.950125753e-15 0)
(3 -3.267540165e-15 0)
(3 -2.992569006e-15 0)
(3 -2.214633296e-15 0)
(3 -1.8454384e-15 0)
(3 -1.784752506e-15 0)
(3 -9.434641317e-16 0)
(3 -3.37328579e-17 0)
(3 1.064107667e-15 0)
(3 1.557144598e-15 0)
(3 1.216429614e-15 0)
(3 1.673604976e-15 0)
(3 -2.847657662e-16 0)
(3 -1.707979078e-15 0)
(3 -2.708693683e-15 0)
(3 -1.785723456e-15 0)
(3 6.317817801e-16 0)
(3 1.45995331e-15 0)
(3 5.365812472e-16 0)
(3 -1.417497837e-15 0)
(3 -2.353687719e-15 0)
(3 -2.735910996e-15 0)
(3 -2.763500292e-15 0)
(3 -2.825640212e-15 0)
(3 -3.482640098e-15 0)
(3 -4.016492821e-15 0)
(3 -5.31990556e-15 0)
(3 -5.065561457e-15 0)
(3 -5.799122421e-15 0)
(3 -7.444712884e-15 0)
(3 -5.334734598e-15 0)
(3 -5.222104448e-15 0)
(3 -5.795890488e-15 0)
(3 -5.065260804e-15 0)
(3 -5.260152314e-15 0)
(3 -4.884859688e-15 0)
(3 -3.97947854e-15 0)
(3 -3.436628734e-15 0)
(3 -3.653497263e-15 0)
(3 -2.902208754e-15 0)
(3 -1.489240665e-15 0)
(3 -7.271635486e-16 0)
(3 -2.10543321e-16 0)
(3 5.433518213e-16 0)
(3 1.027422375e-15 0)
(3 1.601805291e-15 0)
(3 1.371296903e-15 0)
(3 9.944718086e-16 0)
(3 2.241134352e-16 0)
(3 9.278075709e-18 0)
(3 -9.447987592e-16 0)
(3 -1.816599975e-15 0)
(3 -2.49275438e-15 0)
(3 -3.143924069e-15 0)
(3 -2.99661635e-15 0)
(3 -3.627252642e-15 0)
(3 -4.274246657e-15 0)
(3 -5.156726197e-15 0)
(3 -5.819116377e-15 0)
(3 -6.397694579e-15 0)
(3 -7.287134951e-15 0)
(3 -7.615073428e-15 0)
(3 -8.928760561e-15 0)
(3 -9.144648041e-15 0)
(3 -9.660898928e-15 0)
(3 -7.099723749e-15 0)
(3 -6.489241593e-15 0)
(3 -5.299854293e-15 0)
(3 -3.379799166e-15 0)
(3 -3.630233936e-15 0)
(3 -2.305407862e-15 0)
(3 -3.337700258e-15 0)
(3 -3.488379628e-15 0)
(3 -3.339622083e-15 0)
(3 -2.290383301e-15 0)
(3 -7.055825447e-16 0)
(3 4.112839335e-16 0)
(3 1.090829919e-15 0)
(3 1.508725636e-15 0)
(3 2.77482115e-15 0)
(3 2.760217062e-15 0)
(3 1.557780655e-15 0)
(3 1.326989375e-16 0)
(3 -2.25822228e-15 0)
(3 -4.548675368e-15 0)
(3 -4.949833275e-15 0)
(3 -5.376092702e-15 0)
(3 -5.489591237e-15 0)
(3 -6.430291556e-15 0)
(3 -6.923413868e-15 0)
(3 -7.616775283e-15 0)
(3 -8.374477794e-15 0)
(3 -8.523505242e-15 0)
(3 -9.957777499e-15 0)
(3 -1.047911905e-14 0)
(3 -1.060449997e-14 0)
(3 -1.051554267e-14 0)
(3 -9.58521074e-15 0)
(3 -6.790485044e-15 0)
(3 -4.690856834e-15 0)
(3 -1.509354147e-15 0)
(3 1.688965618e-15 0)
(3 2.571893881e-15 0)
(3 2.319786239e-15 0)
(3 1.796275343e-15 0)
(3 6.973045287e-16 0)
(3 1.254379802e-15 0)
(3 1.656860781e-15 0)
(3 2.340352918e-15 0)
(3 2.551384888e-15 0)
(3 2.799635645e-15 0)
(3 2.221447621e-15 0)
(3 1.047893614e-15 0)
(3 3.964192933e-16 0)
(3 -4.991934744e-16 0)
(3 -1.235786858e-15 0)
(3 -2.892953226e-15 0)
(3 -3.249453353e-15 0)
(3 -3.344507352e-15 0)
(3 -4.177906858e-15 0)
(3 -5.088517133e-15 0)
(3 -5.471683015e-15 0)
(3 -5.604456811e-15 0)
(3 -5.391606068e-15 0)
(3 -5.178891046e-15 0)
(3 -4.781762742e-15 0)
(3 -6.504194813e-15 0)
(3 -7.712703623e-15 0)
(3 -7.030856895e-15 0)
(3 -7.466115883e-15 0)
(3 -8.289612997e-15 0)
(3 -7.477718112e-15 0)
(3 -6.173391756e-15 0)
(3 -4.050172004e-15 0)
(3 -3.06272746e-15 0)
(3 -2.748027468e-15 0)
(3 -2.361914513e-15 0)
(3 -1.632806167e-15 0)
(3 -7.080080233e-16 0)
(3 -5.294467296e-16 0)
(3 -6.561517367e-16 0)
(3 -7.753477515e-16 0)
(3 -7.007743511e-16 0)