/*--------------------------------*- C++ -*----------------------------------*\
  =========                 |
  \\      /  F ield         | OpenFOAM: The Open Source CFD Toolbox
   \\    /   O peration     | Website:  https://openfoam.org
    \\  /    A nd           | Version:  7
     \\/     M anipulation  |
\*---------------------------------------------------------------------------*/
FoamFile
{
    version     2.0;
    format      ascii;
    class       volScalarField;
    location    "2.3";
    object      rho;
}
// * * * * * * * * * * * * * * * * * * * * * * * * * * * * * * * * * * * * * //

dimensions      [1 -3 0 0 0 0 0];

internalField   nonuniform List<scalar> 
22
(
1.209009547
1.011377356
1.070524082
1.246687671
1.02013295
1.099678457
1.287266154
1.029175007
1.133241756
1.321658934
1.039962992
1.1732265
1.345928602
1.049950043
1.221288855
1.358453372
1.052806023
1.258746922
1.050025544
1.281666299
1.04029711
1.327404988
)
;

boundaryField
{
    inlet
    {
        type            calculated;
        value           nonuniform 0();
    }
    outlet
    {
        type            calculated;
        value           nonuniform 0();
    }
    bottom
    {
        type            calculated;
        value           nonuniform 0();
    }
    top
    {
        type            calculated;
        value           nonuniform 0();
    }
    obstacle
    {
        type            calculated;
        value           nonuniform List<scalar> 8(1.011377356 1.02013295 1.029175007 1.039962992 1.049950043 1.052806023 1.050025544 1.04029711);
    }
    defaultFaces
    {
        type            empty;
    }
    procBoundary15to9
    {
        type            processor;
        value           nonuniform List<scalar> 4(1.153455862 0.9963406953 1.043939978 1.043939978);
    }
    procBoundary15to10
    {
        type            processor;
        value           nonuniform List<scalar> 3(1.341511671 1.353678181 1.358811703);
    }
    procBoundary15to16
    {
        type            processor;
        value           nonuniform List<scalar> 7(1.360633305 1.355826011 1.349597356 1.356628749 1.356628749 1.354483143 1.34979353);
    }
    procBoundary15to21
    {
        type            processor;
        value           nonuniform List<scalar> 2(1.037756676 1.315237449);
    }
}


// ************************************************************************* //
