/*--------------------------------*- C++ -*----------------------------------*\
  =========                 |
  \\      /  F ield         | OpenFOAM: The Open Source CFD Toolbox
   \\    /   O peration     | Website:  https://openfoam.org
    \\  /    A nd           | Version:  7
     \\/     M anipulation  |
\*---------------------------------------------------------------------------*/
FoamFile
{
    version     2.0;
    format      ascii;
    class       volScalarField;
    location    "2.4";
    object      T;
}
// * * * * * * * * * * * * * * * * * * * * * * * * * * * * * * * * * * * * * //

dimensions      [0 0 0 1 0 0 0];

internalField   nonuniform List<scalar> 
2222
(
1
1
1
1
1
1
1
1
1
1
1
1
1
1
1
1
1
1
1
1
1
1
1
1
1
1
1
1
1
1
1
1
1
1
1
1
1
1
1
1
1
1
1
1
1
1
1
1
1
1
1
1
1
1
1
1
1
1
1
1
1
1
1
1
1
1
1
1
1
1
1
1
1
1
1
1
1
1
1
1
1
1
1
1
1
1
1
1
1
1
1
1
1
1
1
1
1
1
1
1
1
1
1
1
1
1
1
1
1
1
1
1
1
1
1
1
1
1
1
1
1
1
1
1
1
1
1
1
1
1
1
1
1
1
1
1
1
1
1
1
1
1
1
1
1
1
1
1
1
1
1
1
1
1
1
1
1
1
1
1
1
1
1
1
1
1
1
1
1
1
1
1
1
1
1
1
1
1
1
1
1
1
1
1
1
1
1
1
1
1
1
1
1
1
1
1
1
1
1
1
1
1
1
1
1
1
1
1
1
1
1
1
1
1
1
1
1
1
1
1
1
1
1
1
1
1
1
1
1
1
1
1
1
1
1
1
1
1
1
1
1
1
1
1
1
1
1
1
1
1
1
1
1
1
1
1
1
1
1
1
1
1
1
1
1
1
1
1
1
1
1
1
1
1
1
1
1
1
1
1
1
1
1
1
1
1
1
1
1
1
1
1
1
1
1
1
1
1
1
1
1
1
1
1
1
1
1
1
1
1
1
1
1
1
1
1
1
1
1
1
1
1
1
1
1
1
1
1
1
1
1
1
1
1
1
1
1
1
1
1
1
1
1
1
1
1
1
1
1
1
1
1
1
1
1
1
1
1
1
1
1
1
1
1
1
1
1
1
1
1
1
1
1
1
1
1
1
1
1
1
1
1
1
1
1
1
1
1
1
1
1
1
1
1
1
1
1
1
1
1
1
1
1
1
1
1
1
1
1
1
1
1
1
1
1
1
1
1
1
1
1
1
1
1
1
1
1
1
1
1
1
1
1
1
1
1
1
1
1
1
1
1
1
1
1
1
1
1
1
1
1
1
1
1
1
1
1
1
1
1
1
1
1
1
1
1
1
1
1
1
1
1
1
1
1
1
1
1
1
1
1
1
1
1
1
1
1
1
1
1
1
1
1
1
1
1
1
1
1
1
1
1
1
1
1
1
1
1
1
1
1
1
1
1
1
1
1
1
1
1
1
1
1
1
1
1
1
1
1
1
1
1
1
1
1
1
1
1
1
1
1
1
1
1
1
1
1
1
1
1
1
1
1
1
1
1
1
1
1
1
1
1
1
1
1
1
1
1
1
1
1
1
1
1
1
1
1
1
1
1
1
1
1
1
1
1
1
1
1
1
1
1
1
1
1
1
1
1
1
1
1
1
1
1
1
1
1
1
1
1
1
1
1
1
1
1
1
1
1
1
1
1
1
1
1
1
1
1
1
1
1
1
1
1
1
1
1
1
1
1
1
1
1
1
1
1
1
1
1
1
1
1
1
1
1
1
1
1
1
1
1
1
1
1
1
1
1
1
1
1
1
1
1
1
1
1
1
1
1
1
1
1
1
1
1
1
1
1
1
1
1
1
1
1
1
1
1
1
1
1
1
1
1
1
1
1
1
1
1
1
1
1
1
1
1
1
1
1
1
1
1
1
1
1
1
1
1
1
1
1
1
1
1
1
1
1
1
1
1
1
1
1
1
1
1
1
1
1
1
1
1
1
1
1
1
1
1
1
1
1
1
1
1
1
1
1
1
1
1
1
1
1
1
1
1
1
1
1
1
1
1
1
1
1
1
1
1
1
1
1
1
1
1
1
1
1
1
1
1
1
1
1
1
1
1
1
1
1
1
1
1
1
1
1
1
1
1
1
1
1
1
1
1
1
1
1
1
1
1
1
1
1
1
1
1
1
1
1
1
1
1
1
1
1
1
1
1
1
1
1
1
1
1
1
1
1
1
1
1
1
1
1
1
1
1
1
1
1
1
1
1
1
1
1
1
1
1
1
1
1
1
1
1
1
1
1
1
1
1
1
1
1
1
1
1
1
1
1
1
1
1
1
1
1
1
1
1
1
1
1
1
1
1
1
1
1
1
1
1
1
1
1
1
1
1
1
1
1
1
1
1
1
1
1
1
1
1
1
1
1
1
1
1
1
1
1
1
1
1
1
1
1
1
1
1
1
1
1
1
1
1
1
1
1
1
1
1
1
1
1
1
1
1
1
1
1
1
1
1
1
1
1
1
1
1
1
1
1
1
1
1
1
1
1
1
1
1
1
1
1
1
1
1
1
1
1
1
1
1
1
1
1
1
1
1
1
1
1
1
1
1
1
1
1
1
1
1
1
1
1
1
1
1
1
1
1
1
1
1
1
1
1
1
1
1
1
1
1
1
1
1
1
1
1
1
1
1
1
1
1
1
1
1
1
1
1
1
1
1
1
1
1
1
1
1
1
1
1
1
1
1
1
1
1
1
1
1
1
1
1
1
1
1
1
2.343063166
2.972574317
2.970104833
2.95427273
2.946674397
2.938444945
2.929022479
2.922203516
2.918517051
2.918030175
2.921706964
2.930108181
2.939275899
2.94330972
2.941377236
2.936868339
2.929451956
2.918333807
2.907770905
2.902552302
2.899486886
2.8991762
2.90192392
2.908360648
2.915824485
2.919358793
2.917234578
1
1
1
1
1
1
2.346284935
2.972719875
2.970017986
2.954344756
2.94725422
2.939032661
2.929388617
2.922207929
2.918467703
2.917774916
2.921237289
2.929445726
2.938770188
2.943171942
2.94149645
2.937109749
2.929928566
2.918975117
2.908151534
2.902609705
2.899462963
2.898922804
2.901451248
2.90770723
2.915309051
2.919180551
2.917311098
1
1
1
1
1
1
2.352803322
2.972269878
2.969676241
2.954593321
2.947900598
2.939912884
2.930108104
2.922431601
2.918532591
2.917481692
2.920619259
2.928487562
2.937950586
2.942871435
2.941622665
2.937363444
2.930552394
2.919955676
2.908837817
2.902776213
2.899487941
2.898576194
2.900783374
2.906684845
2.914394768
2.918790746
2.917444762
1
1
1
1
1
1
2.361828712
2.971221056
2.969044769
2.954862557
2.948573553
2.941071665
2.931259601
2.922813837
2.918678482
2.917100536
2.919707953
2.926963039
2.936526532
2.942227363
2.941709686
2.937648371
2.931353395
2.921294537
2.909863287
2.902967597
2.899477968
2.89800803
2.899748799
2.905097069
2.912906636
2.918135057
2.917767391
1
1
1
1
1
1
2.373501542
2.969563623
2.968083181
2.955320998
2.949308331
2.942423175
2.932827987
2.923488378
2.918865094
2.916725033
2.918615685
2.924970142
2.934400096
2.941042928
2.941615557
2.937876624
2.932178416
2.922875201
2.911302998
2.903245793
2.899477092
2.897336534
2.898464158
2.902989873
2.910610418
2.916888376
2.917970387
1
1
1
1
1
1.00000466
2.388376243
2.967136614
2.966753631
2.956075154
2.950138799
2.943889618
2.934813955
2.924584337
2.919056387
2.916357312
2.917355092
2.922572928
2.931515275
2.93919627
2.941202409
2.938103947
2.932933401
2.924585483
2.91319338
2.903737919
2.899321015
2.896554311
2.896881642
2.900388974
2.907434258
2.914736402
2.91775335
1
1
1
1
1
1.006547333
2.406740892
2.963966775
2.964877652
2.957019795
2.951028305
2.945367898
2.937159413
2.926292408
2.919354098
2.916166492
2.916104769
2.919973035
2.927966758
2.936497653
2.940267142
2.93828011
2.933571951
2.926283061
2.915545565
2.904778775
2.899028529
2.895800726
2.895084449
2.897430172
2.903473056
2.911394025
2.916433736
1
1
1
1
1
1.029317052
2.429615047
2.959896408
2.962502919
2.957734942
2.951885006
2.946764844
2.939721852
2.928743671
2.919980091
2.91626339
2.914937006
2.917427833
2.924007287
2.932853319
2.938479506
2.938347578
2.934118552
2.927934391
2.918282293
2.906770665
2.89888
2.89512928
2.893093822
2.894321832
2.898932503
2.906636469
2.9136019
1
1
1
1
1
1.066018642
2.455977833
2.954614294
2.959550045
2.957791881
2.952643897
2.94800442
2.942299208
2.931876993
2.921405007
2.916448373
2.914109806
2.915148164
2.919996195
2.92826149
2.935600534
2.937810391
2.934838756
2.929481318
2.921238637
2.909940034
2.899660566
2.894421074
2.891406552
2.891195323
2.894090108
2.90067077
2.908807223
1
1
1
1
1
1.115492845
2.485699952
2.948046685
2.955784058
2.956642328
2.953505768
2.948924883
2.944664699
2.935463067
2.923933785
2.916826022
2.913809374
2.913253009
2.916239933
2.923063673
2.931397993
2.936114709
2.935439065
2.930873732
2.924196853
2.914126874
2.902443754
2.894266576
2.890377533
2.888285493
2.889518414
2.894107894
2.90185507
1
1
1
1
1
1.178296231
2.519222517
2.940410372
2.9509374
2.954396053
2.953786848
2.949580567
2.946602642
2.939111123
2.927574633
2.917964478
2.913884855
2.911809879
2.913025185
2.91781983
2.925776505
2.932707045
2.934891936
2.932213494
2.926828229
2.918747911
2.907539975
2.896481969
2.890031979
2.886683577
2.885722782
2.888021741
2.893799468
1
1
1
1
1
1.255085973
2.557419881
2.932324715
2.945059184
2.950841731
2.952639371
2.950289134
2.947914526
2.942320935
2.93193395
2.920602657
2.914076969
2.911125069
2.910382964
2.912976472
2.91924957
2.927300491
2.932296341
2.932629845
2.92878072
2.922844076
2.913866909
2.902322536
2.892159042
2.886694949
2.883689611
2.883593321
2.886583831
1
1
1
1
1
1.34536475
2.600959039
2.924608435
2.938522977
2.945899972
2.94981083
2.950474179
2.94855249
2.944753963
2.936351607
2.924789895
2.915296487
2.910920432
2.908413055
2.908918839
2.912739511
2.919959578
2.927296717
2.930608342
2.929769517
2.925478396
2.919362062
2.910203911
2.898971575
2.88949675
2.884447469
2.88160917
2.88194749
1
1
1
1
1
1.447281039
2.649644721
2.918080728
2.932050301
2.939934887
2.945173189
2.948979126
2.948811754
2.946214463
2.940173853
2.929896522
2.918685269
2.911177278
2.90761709
2.905665172
2.9071251
2.911967876
2.919583408
2.92594285
2.928074159
2.926636424
2.922483633
2.916632472
2.908034434
2.897611286
2.888591768
2.883482141
2.880648541
1
1
1
1
1
1.557078856
2.70187579
2.913708515
2.926476948
2.933872215
2.938775532
2.944939312
2.948201694
2.94683046
2.942897087
2.934963486
2.924079899
2.913750391
2.907542802
2.904081022
2.902824247
2.904925366
2.910457699
2.918025794
2.923543322
2.924967054
2.92345299
2.919705586
2.914554413
2.90706607
2.897853915
2.889341117
2.883879024
1
1
1
1
1
1.669555466
2.755426332
2.9124566
2.922532877
2.928368482
2.931876648
2.938399518
2.944799824
2.946712904
2.944340867
2.938970794
2.930216611
2.919438172
2.909820998
2.904120653
2.900634224
2.899916911
2.902385371
2.908136094
2.915353187
2.920320164
2.921437085
2.920153128
2.916955222
2.912655581
2.906539352
2.898858443
2.891232159
1
1
1
1
1
1.780516822
2.807664499
2.914560501
2.920444842
2.923874305
2.925930196
2.930324161
2.938307077
2.943890364
2.944590137
2.941230765
2.935247848
2.926569296
2.916148804
2.906838561
2.901148268
2.897608362
2.89713896
2.899657728
2.905082694
2.911688377
2.916348933
2.917543266
2.916514996
2.914006385
2.910485894
2.905687626
2.899660312
1
1
1
1
1
1.886356673
2.855721873
2.920368088
2.919430362
2.921603598
2.921366882
2.922923139
2.929093378
2.937541241
2.941786722
2.941696617
2.93785578
2.93211336
2.924120311
2.914259259
2.905028735
2.899016662
2.895420321
2.894728063
2.896989862
2.901584447
2.907264662
2.911647476
2.913263218
2.912510086
2.910603395
2.907834606
2.904125867
1
1
1
1
1
1.98471326
2.896805975
2.928140622
2.921268977
2.920937161
2.918918479
2.917626025
2.92006372
2.927479285
2.935322873
2.938387736
2.938015493
2.934423367
2.929437455
2.922568499
2.91365102
2.904638142
2.898102747
2.894415417
2.892946434
2.894656633
2.898074872
2.902543461
2.906444334
2.908454292
2.908286015
2.906785189
2.904700584
1
1
1
1
1
2.076737523
2.929941464
2.934183444
2.926164736
2.922577659
2.918838968
2.914494762
2.913794817
2.91711854
2.924592678
2.931480805
2.934006901
2.933626168
2.93095992
2.926893563
2.92138508
2.913854394
2.905565541
2.898689653
2.8946161
2.89216598
2.892752862
2.895084919
2.898152737
2.901269289
2.903300559
2.903793068
2.902869831
1
1
1
1
1
2.162003069
2.953254716
2.941010967
2.930486283
2.927234824
2.920883823
2.914767834
2.910060637
2.910023732
2.913588113
2.920205026
2.926313922
2.929075123
2.928883377
2.927269294
2.924215329
2.920003467
2.914163223
2.907203026
2.900588076
2.89586007
2.892876378
2.891604216
2.892738016
2.894666143
2.896719144
2.898397809
2.899175243
1
1
1
1
1
2.239301611
2.963356326
2.949884075
2.935587169
2.932251305
2.926206942
2.917677236
2.910740759
2.906358539
2.906398646
2.909505204
2.914824027
2.920310968
2.923696365
2.92420261
2.92322833
2.921285651
2.918167504
2.913879037
2.908597212
2.903000658
2.898046935
2.894570289
2.892111958
2.891283114
2.892102828
2.893293749
2.894293162
1
1
1
1
1.000000063
2.311553999
2.961803439
2.954470621
2.941678255
2.936884539
2.932103154
2.924540516
2.914988907
2.907816848
2.903884254
2.903239279
2.905490021
2.909370416
2.914009258
2.91781645
2.919530972
2.919123781
2.917850989
2.915788287
2.912741265
2.908983511
2.904773275
2.900476226
2.896727286
2.893916317
2.891762303
2.89076049
2.890881921
1
1
1
1
1.000599591
2.384557575
2.95213991
2.951819546
2.945291247
2.939703333
2.936165603
2.931677081
2.923483072
2.914060629
2.906783565
2.902865516
2.900932065
2.90208412
2.904674985
2.908181861
2.911808658
2.914275318
2.914932131
2.914101044
2.912746048
2.91087385
2.90826556
2.905255956
2.902040159
2.89874916
2.895780947
2.893406226
2.891449337
1
1
1
1
1.093928078
2.466137749
2.93777894
2.941944991
2.941794403
2.939447731
2.937210025
2.935038197
2.930540061
2.923341602
2.91513982
2.90802355
2.903369244
2.900407784
2.89969482
2.901245174
2.903605728
2.906393257
2.90888017
2.910307487
2.910321622
2.909442946
2.908287814
2.906731615
2.904607874
2.902184083
2.899665821
2.897069376
2.894540805
1
1
1
1
1.261434494
2.554774153
2.918976008
2.928615444
2.931346991
2.93372346
2.934181651
2.93425297
2.932708886
2.928951796
2.923479352
2.917254346
2.910976938
2.905593744
2.901821388
2.89924229
2.899006377
2.900518424
2.902398766
2.904235116
2.905733328
2.906440228
2.90624543
2.905488328
2.904446009
2.903057399
2.901244248
2.899153232
2.896997338
1
1
1
1
1.470946812
2.653501422
2.904139822
2.916532208
2.919413333
2.921865687
2.926256569
2.92954867
2.930085554
2.929315641
2.926706606
2.92302392
2.918851367
2.914152858
2.909034227
2.904587339
2.901351573
2.899130492
2.898664413
2.899690095
2.90093163
2.901946314
2.90270168
2.902881827
2.902640014
2.901902383
2.900819783
2.89943242
2.897750845
1
1
1
1
1.681459042
2.752669232
2.903000206
2.909045788
2.911510968
2.912016245
2.914042039
2.919071562
2.923921845
2.925615608
2.92501692
2.923600462
2.921624452
2.91903961
2.915863042
2.91207725
2.907913497
2.904312876
2.901621318
2.899553169
2.898495981
2.898625004
2.899184894
2.899603661
2.899747245
2.899627346
2.899190347
2.89830726
2.897097844
1
1
1
1
1.866102307
2.837626674
2.913211123
2.910059243
2.910120137
2.907787977
2.906884263
2.908548216
2.912696545
2.917279251
2.920082595
2.920643741
2.919923242
2.918940398
2.917782457
2.915762356
2.913099521
2.910082408
2.90691262
2.903988915
2.901659045
2.899712953
2.898212103
2.897493958
2.897256443
2.897102503
2.896849773
2.896316077
2.895523825
1
1
1
1
2.026834792
2.901263175
2.922838447
2.91758487
2.915622837
2.911301304
2.906420529
2.903670471
2.904995657
2.90809412
2.911227122
2.9138859
2.91554817
2.916106366
2.915649939
2.914853063
2.913928969
2.912309036
2.91009662
2.907726077
2.905293691
2.902871442
2.900691404
2.898799989
2.89714835
2.895910896
2.895033092
2.894299925
2.893541136
1
1
1
0.9999999999
2.165304855
2.940463462
2.931531343
2.924178129
2.923831377
2.920388561
2.914092951
2.908056043
2.904310549
2.903307007
2.904877366
2.907001773
2.908596676
2.910155637
2.911410453
2.911954029
2.911590252
2.910820827
2.90988328
2.908578594
2.906798347
2.904767405
2.902697157
2.900588947
2.898510032
2.896636189
2.894919754
2.893406995
2.892073726
1
1
1
1.000000269
2.279757711
2.948257776
2.939019561
2.9294744
2.927754843
2.9269169
2.923914817
2.91812759
2.912068187
2.907715001
2.905014853
2.903517161
2.903864065
2.904956202
2.906027979
2.906970767
2.907757779
2.907978462
2.907688897
2.90698696
2.905995446
2.904725865
2.903145604
2.901295171
2.899374584
2.897436542
2.89546431
2.893549848
2.891711811
1.002950317
2.392406882
2.936448198
2.935644656
2.930968613
2.927163219
2.927503067
2.927462301
2.925007788
2.920833924
2.916217575
2.911921357
2.908480614
2.905702733
2.903575538
2.902744122
2.903131929
2.903838403
2.90435767
2.904538821
2.904438329
2.904099282
2.903396349
2.902306327
2.90092421
2.899359369
2.897629571
2.895776422
2.893845948
2.891863767
2.924842082
2.925078399
2.923947195
2.92128918
2.918374169
2.915310583
2.911974349
2.908847128
2.906260857
2.904215159
2.902818386
2.902288857
2.902221213
2.902118063
2.901895324
2.901472118
2.900853557
2.89994629
2.89875258
2.897315254
2.895708624
2.893942273
2.892046274
2.911299267
2.908567293
2.906258705
2.90437348
2.902829549
2.901663532
2.900869754
2.900237823
2.899547288
2.89875047
2.897851117
2.896743581
2.895414706
2.893854451
2.892125538
2.900439082
2.899260964
2.898246817
2.897260711
2.896195917
2.89498958
2.89360572
2.892049281
2.893179458
2.891731967
)
;

boundaryField
{
    inlet
    {
        type            fixedValue;
        value           nonuniform 0();
    }
    outlet
    {
        type            inletOutlet;
        inletValue      nonuniform 0();
        value           nonuniform 0();
    }
    bottom
    {
        type            slip;
    }
    top
    {
        type            slip;
    }
    obstacle
    {
        type            zeroGradient;
    }
    defaultFaces
    {
        type            empty;
    }
    procBoundary1to0
    {
        type            processor;
        value           nonuniform List<scalar> 
32
(
1
1
1
1
1
1
1
1
1
1
1
1
1
1
1
1
1
1
1
1
1
1
1
1
1
1
1
1
1
1
1
1
)
;
    }
    procBoundary1to2
    {
        type            processor;
        value           nonuniform List<scalar> 
28
(
2.911652886
2.911796999
2.912033804
2.91259822
2.913663649
2.915122471
2.916359573
2.916155465
2.913981576
2.909415038
2.901894651
2.892805352
2.88514009
2.880858015
2.880926821
2.885519313
2.893323542
2.899606457
2.901918731
2.90121227
2.898867816
2.894920806
2.891275392
2.890080597
2.892372811
2.894811119
2.895816342
2.895626904
)
;
    }
    procBoundary1to7
    {
        type            processor;
        value           nonuniform List<scalar> 
72
(
1
1
1
1
1
1
1
1
1
1
1
1
1
1
1
1
1
1
1
1
1
1
1
1
1
1
1
1
1
1
1
1
1
1
1
1
1
1
1.192238805
2.518485498
2.916306504
2.921485073
2.921755418
2.923152409
2.924019831
2.924019831
2.919501314
2.921695334
2.921769186
2.920990797
2.919894323
2.918349547
2.916367041
2.913996374
2.913996374
2.913728131
2.911632174
2.909453078
2.907295929
2.905236662
2.903408125
2.901811913
2.901811913
2.901383697
2.899824378
2.898402956
2.897069526
2.895801041
2.894524008
2.894524008
2.892550589
2.891122229
)
;
    }
    procBoundary1to8
    {
        type            processor;
        value           nonuniform List<scalar> 9(2.894450745 2.892603418 2.89090454 2.89002723 2.889889728 2.890073188 2.890268467 2.890340737 2.890154223);
    }
}


// ************************************************************************* //
