/*--------------------------------*- C++ -*----------------------------------*\
  =========                 |
  \\      /  F ield         | OpenFOAM: The Open Source CFD Toolbox
   \\    /   O peration     | Website:  https://openfoam.org
    \\  /    A nd           | Version:  7
     \\/     M anipulation  |
\*---------------------------------------------------------------------------*/
FoamFile
{
    version     2.0;
    format      ascii;
    class       volScalarField;
    location    "3";
    object      p;
}
// * * * * * * * * * * * * * * * * * * * * * * * * * * * * * * * * * * * * * //

dimensions      [1 -1 -2 0 0 0 0];

internalField   nonuniform List<scalar> 
138
(
0.9832763502
1.013178656
0.5372697244
0.5042254928
0.5198358677
0.5446108528
0.6137048445
0.767614448
0.9450289079
0.9937583439
0.9919218219
0.5412772808
0.5049174082
0.5161371881
0.5382624946
0.5965198994
0.7144976727
0.8988213254
0.9815640233
0.9970903384
0.544863101
0.5077729821
0.5108607722
0.5361855337
0.584390775
0.686798875
0.8653142837
0.9833817537
1.009764934
0.548994719
0.510258671
0.5069903423
0.5345541031
0.5740166691
0.6587109497
0.8352404536
0.9813299417
1.017938744
0.5513476775
0.5134737054
0.5058854272
0.5330512632
0.5687201869
0.6256008317
0.7941462607
0.970169976
1.014944565
0.5748227657
0.5166022631
0.504976699
0.5305424122
0.5633768313
0.5992928911
0.7311423683
0.9364912041
1.002174513
1.090112521
0.6535243655
0.5922605917
0.5715388628
0.5729010845
0.5711231461
0.6074761586
0.7484347284
0.9038857845
1.404367159
1.153070672
0.9081753479
0.7325129066
0.6451101521
0.5723251278
0.5665860797
0.5875145871
0.6755833962
1.483779601
1.385861699
1.162008873
0.9458097932
0.7778660959
0.6550967486
0.6157336708
0.6129682007
0.6156130679
1.470197995
1.462860386
1.368750243
1.193698385
0.9971199773
0.8482970584
0.7541422052
0.6678914122
0.6163019509
1.452824964
1.466598859
1.447336366
1.360158968
1.19758182
1.039954236
0.8875635995
0.7613000904
0.7018680411
1.298961491
1.394858122
1.43253249
1.428516307
1.357130309
1.224748656
1.058643054
0.9450427185
0.8384251476
1.091914305
1.274102047
1.430559158
1.432268823
1.418458735
1.349074973
1.22803297
1.095072482
0.9594953417
1.011635063
1.115243615
1.31623337
1.377630247
1.40419738
1.401389279
1.349709737
1.239143134
1.110279918
1.000590686
1.027059893
1.128625947
1.27399661
1.400149077
1.404649566
1.394718151
1.342622398
1.243345665
1.000013385
)
;

boundaryField
{
    inlet
    {
        type            fixedValue;
        value           nonuniform 0();
    }
    outlet
    {
        type            zeroGradient;
    }
    bottom
    {
        type            slip;
    }
    top
    {
        type            slip;
    }
    obstacle
    {
        type            zeroGradient;
    }
    defaultFaces
    {
        type            empty;
    }
    procBoundary27to20
    {
        type            processor;
        value           nonuniform List<scalar> 7(1.464879105 1.48559964 1.490949193 1.44784453 1.341569448 1.133717636 1.017199092);
    }
    procBoundary27to21
    {
        type            processor;
        value           nonuniform List<scalar> 9(1.000209024 1.022799565 0.5327736967 0.5042447558 0.5223688779 0.553803732 0.6433838063 0.8298133289 0.8298133289);
    }
    procBoundary27to26
    {
        type            processor;
        value           nonuniform List<scalar> 3(1.000374091 0.9999982691 0.9999996298);
    }
    procBoundary27to28
    {
        type            processor;
        value           nonuniform List<scalar> 
16
(
1.005805646
1.005805646
0.9893027573
0.9916844865
0.9950854853
1.002732387
1.008120725
1.000210854
0.9639270571
0.8310478397
0.6488252687
0.6177320484
0.6478828651
0.7378805096
0.8580554049
0.9984007413
)
;
    }
    procBoundary27to33
    {
        type            processor;
        value           nonuniform List<scalar> 10(1.003534644 1.029925449 1.136121284 1.311479128 1.362969322 1.381748953 1.381484336 1.341491078 1.003534644 1.000000114);
    }
    procBoundary27to34
    {
        type            processor;
        value           uniform 1.129543523;
    }
}


// ************************************************************************* //
