/*--------------------------------*- C++ -*----------------------------------*\
  =========                 |
  \\      /  F ield         | OpenFOAM: The Open Source CFD Toolbox
   \\    /   O peration     | Website:  https://openfoam.org
    \\  /    A nd           | Version:  7
     \\/     M anipulation  |
\*---------------------------------------------------------------------------*/
FoamFile
{
    version     2.0;
    format      ascii;
    class       volVectorField;
    location    "2.1";
    object      U;
}
// * * * * * * * * * * * * * * * * * * * * * * * * * * * * * * * * * * * * * //

dimensions      [0 1 -1 0 0 0 0];

internalField   nonuniform List<vector> 
2222
(
(3 8.328816088e-15 0)
(3 9.290160566e-15 0)
(3 1.109758136e-14 0)
(3 1.29534611e-14 0)
(3 1.375582181e-14 0)
(3 1.183534477e-14 0)
(3 9.812124189e-15 0)
(3 1.044364395e-14 0)
(3 1.094254351e-14 0)
(3 9.746626671e-15 0)
(3 6.21833644e-15 0)
(3 1.166076322e-15 0)
(3 -2.186519424e-15 0)
(3 -4.694259726e-16 0)
(3 9.503090237e-16 0)
(3 5.079958293e-16 0)
(3 -5.156409735e-17 0)
(3 3.73270094e-16 0)
(3 -3.720732932e-15 0)
(3 -4.379021585e-15 0)
(3 -3.177302624e-15 0)
(3 -1.603674496e-15 0)
(3 1.626015106e-15 0)
(3 -2.628961649e-16 0)
(3 -1.587877969e-15 0)
(3 -1.105398931e-15 0)
(3 -2.715108886e-16 0)
(3 7.047597445e-16 0)
(3 -4.884092732e-16 0)
(3 -3.934297041e-16 0)
(3 -1.294939562e-15 0)
(3 -1.417591243e-15 0)
(3 -2.04619495e-15 0)
(3 -2.667284566e-15 0)
(3 -3.689323758e-15 0)
(3 -4.279412218e-15 0)
(3 -2.152171155e-15 0)
(3 -8.493491778e-16 0)
(3 8.760432015e-16 0)
(3 1.778844328e-15 0)
(3 2.241061847e-15 0)
(3 4.021619772e-15 0)
(3 6.330986481e-15 0)
(3 4.401726512e-15 0)
(3 2.130493334e-15 0)
(3 -3.070537407e-16 0)
(3 -3.860132484e-15 0)
(3 -5.46717728e-15 0)
(3 -4.433262438e-15 0)
(3 -1.612536527e-15 0)
(3 -5.662100711e-17 0)
(3 1.90636179e-15 0)
(3 2.765637495e-15 0)
(3 2.850859086e-15 0)
(3 8.501178653e-15 0)
(3 1.390880929e-14 0)
(3 1.157666879e-14 0)
(3 8.966128328e-15 0)
(3 9.575438066e-15 0)
(3 7.578906856e-15 0)
(3 4.218287706e-15 0)
(3 3.645304294e-15 0)
(3 3.783415593e-15 0)
(3 5.622782592e-15 0)
(3 9.461529885e-15 0)
(3 1.137681625e-14 0)
(3 1.035918027e-14 0)
(3 6.915993212e-15 0)
(3 9.173928503e-15 0)
(3 9.603309383e-15 0)
(3 1.109658956e-14 0)
(3 1.064170831e-14 0)
(3 9.662485981e-15 0)
(3 6.34254609e-15 0)
(3 4.150450805e-15 0)
(3 3.509780282e-15 0)
(3 2.592125772e-15 0)
(3 -1.484000733e-15 0)
(3 -4.864035957e-15 0)
(3 -6.905763161e-15 0)
(3 -6.393602178e-15 0)
(3 -4.715047003e-15 0)
(3 -5.066136917e-15 0)
(3 -7.707060413e-15 0)
(3 -8.917284429e-15 0)
(3 -8.62679661e-15 0)
(3 -7.492324063e-15 0)
(3 -6.158561967e-15 0)
(3 -5.317686643e-15 0)
(3 -4.025946522e-15 0)
(3 2.491124432e-16 0)
(3 1.26069599e-15 0)
(3 2.787846876e-15 0)
(3 3.307949712e-15 0)
(3 2.93074945e-15 0)
(3 2.812348621e-15 0)
(3 1.363785297e-16 0)
(3 -3.585306793e-15 0)
(3 -5.366874695e-15 0)
(3 -5.782363991e-15 0)
(3 -4.986458098e-15 0)
(3 -5.433672244e-15 0)
(3 -5.546971751e-15 0)
(3 -6.78106253e-15 0)
(3 -7.104200274e-15 0)
(3 -7.087890099e-15 0)
(3 -5.802743056e-15 0)
(3 -4.142661217e-15 0)
(3 -3.253763748e-15 0)
(3 -9.009596427e-16 0)
(3 2.526916528e-16 0)
(3 -4.799518813e-17 0)
(3 -1.482220426e-15 0)
(3 -2.276459419e-15 0)
(3 -4.636169704e-15 0)
(3 -3.629260694e-15 0)
(3 -3.874503435e-15 0)
(3 -5.402093027e-15 0)
(3 -3.986623746e-15 0)
(3 -6.73437048e-16 0)
(3 1.827642489e-15 0)
(3 2.663494585e-15 0)
(3 3.435694242e-15 0)
(3 4.440462223e-15 0)
(3 8.532129182e-15 0)
(3 1.042631777e-14 0)
(3 9.190055987e-15 0)
(3 2.185530886e-15 0)
(3 6.291943524e-17 0)
(3 2.913960545e-16 0)
(3 2.401096751e-15 0)
(3 4.60427178e-15 0)
(3 8.321156679e-15 0)
(3 9.99881594e-15 0)
(3 1.084083013e-14 0)
(3 9.806270685e-15 0)
(3 1.03758719e-14 0)
(3 1.26003414e-14 0)
(3 1.324449815e-14 0)
(3 1.229936655e-14 0)
(3 1.106869111e-14 0)
(3 5.915176382e-15 0)
(3 -2.442288305e-15 0)
(3 -9.611103716e-15 0)
(3 -1.048720426e-14 0)
(3 -8.304032594e-15 0)
(3 -8.063701031e-15 0)
(3 -8.596377698e-15 0)
(3 -8.334693525e-15 0)
(3 -7.852591831e-15 0)
(3 -7.676688033e-15 0)
(3 -5.380235256e-15 0)
(3 -4.610259739e-16 0)
(3 2.260033119e-16 0)
(3 -2.728828902e-15 0)
(3 -3.115458593e-15 0)
(3 -2.27062133e-16 0)
(3 4.980092711e-16 0)
(3 1.546435597e-15 0)
(3 9.941103718e-16 0)
(3 6.673310689e-16 0)
(3 1.364622558e-15 0)
(3 6.609188425e-16 0)
(3 -2.048311274e-15 0)
(3 -1.030364519e-15 0)
(3 -2.432618384e-15 0)
(3 -4.30820061e-15 0)
(3 -7.513692498e-15 0)
(3 -7.334892068e-15 0)
(3 -6.799245931e-15 0)
(3 -7.967936532e-15 0)
(3 -9.51523133e-15 0)
(3 -1.021792103e-14 0)
(3 -9.422768472e-15 0)
(3 -7.050100469e-15 0)
(3 -5.449149347e-15 0)
(3 -8.874118127e-15 0)
(3 -8.459670661e-15 0)
(3 -9.130540328e-15 0)
(3 -9.710012849e-15 0)
(3 -9.224820421e-15 0)
(3 -8.641555764e-15 0)
(3 -8.346358221e-15 0)
(3 -7.44869049e-15 0)
(3 -5.496462939e-15 0)
(3 -4.388205821e-15 0)
(3 -9.894299658e-17 0)
(3 3.555019877e-15 0)
(3 4.196732671e-15 0)
(3 4.644601528e-15 0)
(3 5.593146722e-15 0)
(3 8.227707374e-15 0)
(3 1.447820312e-14 0)
(3 1.717864731e-14 0)
(3 1.772691622e-14 0)
(3 1.862523651e-14 0)
(3 1.917406918e-14 0)
(3 1.730255509e-14 0)
(3 1.494176011e-14 0)
(3 1.071312852e-14 0)
(3 7.168594478e-15 0)
(3 5.515648219e-15 0)
(3 1.904654035e-15 0)
(3 4.093925272e-15 0)
(3 9.683898331e-15 0)
(3 1.55603619e-14 0)
(3 1.524366162e-14 0)
(3 1.090101328e-14 0)
(3 9.491879315e-15 0)
(3 6.362729711e-15 0)
(3 6.530060607e-16 0)
(3 -6.302119417e-15 0)
(3 -7.691560803e-15 0)
(3 -5.83343132e-15 0)
(3 -6.586979994e-15 0)
(3 -5.007044959e-15 0)
(3 -2.908410431e-15 0)
(3 -3.358750886e-16 0)
(3 5.371340573e-15 0)
(3 5.687626022e-15 0)
(3 4.499457468e-15 0)
(3 3.596876465e-15 0)
(3 2.402778238e-15 0)
(3 4.454704696e-15 0)
(3 1.231416094e-17 0)
(3 -8.409826439e-17 0)
(3 -1.203125483e-15 0)
(3 -9.597852825e-16 0)
(3 -1.630359439e-15 0)
(3 -2.675618511e-15 0)
(3 -7.348370315e-16 0)
(3 8.608198826e-16 0)
(3 4.417030213e-16 0)
(3 -3.420827423e-15 0)
(3 -3.623635689e-15 0)
(3 -3.396291136e-15 0)
(3 -1.946465086e-15 0)
(3 -7.468850931e-16 0)
(3 -5.430105182e-16 0)
(3 -2.118752824e-15 0)
(3 -2.201431657e-15 0)
(3 -7.681965341e-16 0)
(3 -8.361060364e-16 0)
(3 -3.027107111e-15 0)
(3 -5.642466542e-15 0)
(3 -9.896914408e-15 0)
(3 -1.273751591e-14 0)
(3 -1.208498892e-14 0)
(3 -1.003771364e-14 0)
(3 -7.260764122e-15 0)
(3 -3.084174611e-15 0)
(3 3.753302462e-16 0)
(3 6.227168954e-15 0)
(3 1.131137209e-14 0)
(3 1.263723442e-14 0)
(3 1.036059086e-14 0)
(3 9.147881395e-15 0)
(3 9.340467901e-15 0)
(3 9.431290593e-15 0)
(3 1.068535307e-14 0)
(3 1.37943339e-14 0)
(3 1.792352918e-14 0)
(3 1.624420399e-14 0)
(3 1.39556559e-14 0)
(3 9.75479686e-15 0)
(3 7.31777006e-15 0)
(3 2.883621277e-15 0)
(3 8.824591925e-16 0)
(3 -1.7782885e-15 0)
(3 -2.378271967e-15 0)
(3 -2.730434706e-15 0)
(3 -1.099493289e-15 0)
(3 5.655363117e-16 0)
(3 3.652805016e-15 0)
(3 4.058575315e-15 0)
(3 4.820074806e-15 0)
(3 3.847478144e-15 0)
(3 1.771097744e-15 0)
(3 -2.972599945e-17 0)
(3 9.552116845e-16 0)
(3 2.076410251e-15 0)
(3 8.660942159e-16 0)
(3 -2.255445867e-15 0)
(3 6.654421182e-16 0)
(3 4.578539615e-15 0)
(3 6.377991891e-15 0)
(3 4.507244376e-15 0)
(3 5.619109354e-15 0)
(3 8.750099221e-15 0)
(3 8.809216265e-15 0)
(3 6.643016082e-15 0)
(3 -2.379437157e-16 0)
(3 7.026405016e-16 0)
(3 4.161744941e-17 0)
(3 -5.782435004e-16 0)
(3 -2.037103285e-15 0)
(3 -2.103423983e-15 0)
(3 -7.529372086e-16 0)
(3 -6.534808746e-16 0)
(3 -9.810587824e-16 0)
(3 -6.296374649e-16 0)
(3 2.868634321e-15 0)
(3 1.793381315e-15 0)
(3 2.668500519e-15 0)
(3 5.118605026e-15 0)
(3 5.165661058e-15 0)
(3 4.98938196e-15 0)
(3 3.978572307e-15 0)
(3 2.73156793e-15 0)
(3 1.579286578e-15 0)
(3 2.833406258e-15 0)
(3 1.623855663e-15 0)
(3 -8.385921828e-16 0)
(3 -4.866076412e-15 0)
(3 -6.198506479e-15 0)
(3 -4.288825497e-15 0)
(3 -4.971997678e-16 0)
(3 2.627159155e-15 0)
(3 7.863429178e-15 0)
(3 1.097945067e-14 0)
(3 1.179427443e-14 0)
(3 1.137357467e-14 0)
(3 7.077790171e-15 0)
(3 7.020825819e-15 0)
(3 6.907324753e-15 0)
(3 7.09656294e-15 0)
(3 7.748917623e-15 0)
(3 6.892769812e-15 0)
(3 9.044216124e-15 0)
(3 8.958480867e-15 0)
(3 4.618787745e-15 0)
(3 -4.58810991e-16 0)
(3 -4.067390981e-15 0)
(3 -8.119018996e-15 0)
(3 -1.120727436e-14 0)
(3 -8.863742483e-15 0)
(3 -6.200984867e-15 0)
(3 -7.295287525e-15 0)
(3 -1.053284853e-14 0)
(3 -1.181490197e-14 0)
(3 -1.232898824e-14 0)
(3 -1.111404648e-14 0)
(3 -8.762984723e-15 0)
(3 -6.988696227e-15 0)
(3 -4.579266361e-15 0)
(3 -2.117922163e-15 0)
(3 3.745067275e-16 0)
(3 7.423677245e-16 0)
(3 6.175644922e-16 0)
(3 7.978491633e-16 0)
(3 1.506738415e-15 0)
(3 1.423662932e-15 0)
(3 9.177696277e-16 0)
(3 2.055786876e-15 0)
(3 5.03349765e-15 0)
(3 7.555181091e-15 0)
(3 7.985356862e-15 0)
(3 5.100132075e-15 0)
(3 1.075474167e-15 0)
(3 6.242365605e-16 0)
(3 -2.093113367e-16 0)
(3 -3.149881662e-16 0)
(3 1.165131153e-15 0)
(3 2.354797842e-15 0)
(3 2.473156319e-15 0)
(3 3.878178783e-16 0)
(3 3.090921245e-16 0)
(3 -6.524300948e-16 0)
(3 -8.972420836e-16 0)
(3 -2.112507144e-15 0)
(3 -2.708023531e-15 0)
(3 -2.157245499e-15 0)
(3 -1.269277793e-15 0)
(3 -1.729893185e-15 0)
(3 -1.114785272e-15 0)
(3 -1.318957397e-15 0)
(3 1.98729981e-15 0)
(3 4.607403139e-15 0)
(3 5.522015339e-15 0)
(3 6.336596742e-15 0)
(3 6.184107936e-15 0)
(3 4.19210424e-15 0)
(3 5.128205884e-15 0)
(3 5.807275496e-15 0)
(3 9.927656118e-15 0)
(3 1.440695204e-14 0)
(3 1.570594062e-14 0)
(3 1.439738166e-14 0)
(3 1.161699353e-14 0)
(3 8.264971359e-15 0)
(3 8.482436971e-15 0)
(3 7.564231821e-15 0)
(3 5.144203711e-15 0)
(3 2.086463686e-15 0)
(3 -1.747371868e-15 0)
(3 -2.265404552e-15 0)
(3 -7.302750123e-16 0)
(3 1.315285492e-15 0)
(3 -3.529373486e-16 0)
(3 -3.010533053e-15 0)
(3 -5.370084501e-15 0)
(3 -9.624667168e-15 0)
(3 -1.167662936e-14 0)
(3 -1.082297621e-14 0)
(3 -1.437377559e-14 0)
(3 -2.00144453e-14 0)
(3 -2.104684438e-14 0)
(3 -1.83990068e-14 0)
(3 -1.707995104e-14 0)
(3 -1.665009314e-14 0)
(3 -1.219809664e-14 0)
(3 -2.590086661e-15 0)
(3 2.027447989e-15 0)
(3 1.560806546e-15 0)
(3 -1.984315601e-16 0)
(3 1.18647468e-15 0)
(3 4.569473348e-15 0)
(3 5.523969619e-15 0)
(3 1.86111142e-15 0)
(3 2.060949632e-15 0)
(3 2.21390942e-15 0)
(3 3.026338704e-16 0)
(3 7.5493659e-17 0)
(3 -8.407422849e-16 0)
(3 3.662547951e-16 0)
(3 4.343744115e-16 0)
(3 -1.074779476e-15 0)
(3 -1.04403681e-15 0)
(3 5.918380139e-16 0)
(3 2.244937955e-15 0)
(3 3.887678708e-15 0)
(3 4.343084375e-15 0)
(3 3.373225472e-15 0)
(3 2.797312966e-15 0)
(3 3.470236711e-16 0)
(3 -2.926921837e-15 0)
(3 -2.984342892e-15 0)
(3 -4.919559905e-15 0)
(3 -6.165350283e-15 0)
(3 -5.945453476e-15 0)
(3 -5.479204671e-15 0)
(3 -4.454916803e-15 0)
(3 -4.155979951e-15 0)
(3 -1.671476469e-15 0)
(3 1.121643278e-16 0)
(3 1.393102965e-15 0)
(3 4.628081857e-15 0)
(3 1.055144988e-14 0)
(3 1.473536755e-14 0)
(3 1.695374433e-14 0)
(3 1.798066053e-14 0)
(3 1.816799229e-14 0)
(3 1.48015773e-14 0)
(3 1.458802228e-14 0)
(3 9.281704937e-15 0)
(3 7.43933919e-15 0)
(3 8.486236514e-15 0)
(3 7.501841884e-15 0)
(3 5.490899568e-15 0)
(3 2.277789214e-15 0)
(3 -3.628782341e-15 0)
(3 -3.511202073e-15 0)
(3 -4.00622185e-15 0)
(3 -3.330057712e-15 0)
(3 -2.206489196e-15 0)
(3 1.508685855e-16 0)
(3 3.141089791e-15 0)
(3 6.50086906e-15 0)
(3 5.137459526e-15 0)
(3 -2.234652795e-15 0)
(3 -9.048668406e-15 0)
(3 -1.190708498e-14 0)
(3 -1.388777572e-14 0)
(3 -1.646337583e-14 0)
(3 -1.356100353e-14 0)
(3 -9.677781324e-15 0)
(3 -8.102059936e-15 0)
(3 -3.518225144e-15 0)
(3 -2.258588411e-15 0)
(3 2.442749171e-15 0)
(3 4.494254913e-15 0)
(3 4.361081505e-15 0)
(3 4.37858504e-15 0)
(3 3.416844116e-15 0)
(3 3.618053581e-15 0)
(3 3.332681387e-15 0)
(3 -8.391380617e-16 0)
(3 -2.775401374e-15 0)
(3 -6.544742183e-15 0)
(3 -8.296152068e-15 0)
(3 -5.928826794e-15 0)
(3 -3.725828643e-15 0)
(3 -1.112290432e-15 0)
(3 -1.809047758e-15 0)
(3 -2.236713342e-15 0)
(3 -2.225256292e-15 0)
(3 -3.607204633e-15 0)
(3 -3.225662733e-15 0)
(3 -1.598626825e-15 0)
(3 -1.462218211e-15 0)
(3 -1.290582004e-15 0)
(3 6.239340703e-16 0)
(3 1.101281168e-15 0)
(3 1.485122164e-15 0)
(3 -4.28405177e-16 0)
(3 -2.582948072e-15 0)
(3 -1.651750225e-15 0)
(3 7.061055728e-16 0)
(3 3.207396983e-16 0)
(3 1.45083571e-15 0)
(3 2.02387709e-15 0)
(3 2.750803863e-15 0)
(3 6.147218681e-15 0)
(3 8.432743184e-15 0)
(3 1.269141046e-14 0)
(3 1.886398036e-14 0)
(3 2.590563527e-14 0)
(3 2.509365385e-14 0)
(3 2.114418388e-14 0)
(3 1.301711965e-14 0)
(3 8.457696471e-15 0)
(3 2.59645376e-15 0)
(3 1.880171081e-15 0)
(3 1.130880558e-15 0)
(3 -6.041845618e-16 0)
(3 -2.641075176e-15 0)
(3 -4.792367508e-15 0)
(3 -3.260255418e-15 0)
(3 -4.805923359e-15 0)
(3 -7.367371259e-15 0)
(3 -6.545878573e-15 0)
(3 -3.263882745e-15 0)
(3 1.597261999e-15 0)
(3 5.841607102e-15 0)
(3 1.120642665e-14 0)
(3 1.097752086e-14 0)
(3 6.289104687e-15 0)
(3 2.070620221e-15 0)
(3 -1.579807332e-15 0)
(3 -2.101786746e-15 0)
(3 -2.508485872e-15 0)
(3 -4.643646912e-15 0)
(3 -2.690755503e-15 0)
(3 -1.682323984e-15 0)
(3 -1.906884494e-15 0)
(3 -2.103895581e-15 0)
(3 8.546197476e-16 0)
(3 3.232449008e-15 0)
(3 2.816714266e-15 0)
(3 2.95918093e-15 0)
(3 2.213079993e-15 0)
(3 4.732507359e-15 0)
(3 3.846907872e-15 0)
(3 -1.665588907e-16 0)
(3 -3.117953995e-15 0)
(3 -6.110732846e-15 0)
(3 -8.254835213e-15 0)
(3 -6.966425947e-15 0)
(3 -3.814429456e-15 0)
(3 -6.730036706e-16 0)
(3 -6.70975663e-16 0)
(3 -1.195328034e-15 0)
(3 -4.066118697e-15 0)
(3 -6.097728804e-15 0)
(3 -4.052845187e-15 0)
(3 -2.504403592e-15 0)
(3 -9.919282114e-17 0)
(3 6.363292521e-16 0)
(3 1.631247044e-15 0)
(3 3.848932235e-15 0)
(3 4.026884178e-15 0)
(3 3.87192957e-15 0)
(3 4.643571372e-15 0)
(3 5.555662242e-15 0)
(3 5.504799999e-15 0)
(3 5.686385503e-15 0)
(3 7.895758932e-15 0)
(3 9.841941286e-15 0)
(3 9.849168832e-15 0)
(3 7.610959971e-15 0)
(3 8.465982503e-15 0)
(3 7.955725061e-15 0)
(3 7.722258293e-15 0)
(3 1.029362862e-14 0)
(3 1.238821694e-14 0)
(3 9.908399856e-15 0)
(3 4.579210771e-15 0)
(3 -1.794783054e-15 0)
(3 -3.602031962e-15 0)
(3 -4.679114707e-15 0)
(3 -7.556741961e-15 0)
(3 -1.004263617e-14 0)
(3 -1.056461421e-14 0)
(3 -7.724911409e-15 0)
(3 -5.745079417e-15 0)
(3 -5.953988571e-15 0)
(3 -5.243246757e-15 0)
(3 -6.950805307e-15 0)
(3 -2.930189524e-15 0)
(3 -4.703127831e-17 0)
(3 1.80409345e-15 0)
(3 4.186856604e-15 0)
(3 8.776164322e-15 0)
(3 9.656987918e-15 0)
(3 7.68366722e-15 0)
(3 3.899270508e-15 0)
(3 2.168962116e-15 0)
(3 1.740694043e-15 0)
(3 -7.012843681e-17 0)
(3 -3.737776023e-15 0)
(3 -5.526308237e-15 0)
(3 -6.58164536e-15 0)
(3 -3.491682546e-15 0)
(3 -1.806326627e-15 0)
(3 7.296512367e-16 0)
(3 2.098407291e-16 0)
(3 -1.281260938e-15 0)
(3 6.16956469e-16 0)
(3 8.014381165e-16 0)
(3 3.597649183e-16 0)
(3 2.763269919e-15 0)
(3 9.757102645e-16 0)
(3 -7.432449247e-16 0)
(3 -8.408213112e-16 0)
(3 -3.537266395e-15 0)
(3 -4.548915649e-15 0)
(3 1.964682531e-16 0)
(3 -7.22159444e-16 0)
(3 -1.719883377e-15 0)
(3 -1.382890891e-15 0)
(3 -5.037705511e-16 0)
(3 1.206986052e-15 0)
(3 1.507662526e-15 0)
(3 3.431601426e-15 0)
(3 6.267384451e-15 0)
(3 6.952507693e-15 0)
(3 7.343629186e-15 0)
(3 8.716387831e-15 0)
(3 1.146937942e-14 0)
(3 1.450440572e-14 0)
(3 1.371620421e-14 0)
(3 1.141196146e-14 0)
(3 9.441833894e-15 0)
(3 7.650197485e-15 0)
(3 5.905270995e-15 0)
(3 5.89448763e-15 0)
(3 5.07755902e-15 0)
(3 5.048376006e-15 0)
(3 2.477245665e-15 0)
(3 -6.574230185e-16 0)
(3 -3.149143933e-15 0)
(3 -3.275200824e-15 0)
(3 -5.059443713e-15 0)
(3 -5.237676809e-15 0)
(3 -4.756129637e-15 0)
(3 -4.785478124e-15 0)
(3 -6.188292943e-15 0)
(3 -3.815251086e-15 0)
(3 -4.837259664e-15 0)
(3 -6.68874887e-15 0)
(3 -4.346515176e-15 0)
(3 -3.419439342e-15 0)
(3 -1.734176762e-15 0)
(3 1.912142918e-15 0)
(3 2.539244068e-15 0)
(3 -1.379039654e-15 0)
(3 -5.724666657e-15 0)
(3 -1.823665148e-15 0)
(3 1.268781896e-15 0)
(3 2.592858195e-15 0)
(3 4.526054263e-15 0)
(3 3.332941236e-15 0)
(3 1.401008257e-15 0)
(3 2.668290987e-16 0)
(3 8.222122851e-17 0)
(3 -2.584111835e-16 0)
(3 -2.306900758e-15 0)
(3 -3.501141732e-15 0)
(3 -4.264132908e-15 0)
(3 -5.125495797e-15 0)
(3 -4.581390435e-15 0)
(3 -6.141465691e-16 0)
(3 -3.731724582e-16 0)
(3 -2.112425628e-15 0)
(3 -3.407060261e-15 0)
(3 -3.683162273e-15 0)
(3 -5.802782026e-15 0)
(3 -5.040525842e-15 0)
(3 -1.870060319e-15 0)
(3 -8.991570737e-16 0)
(3 2.030856751e-15 0)
(3 1.655424622e-15 0)
(3 -2.48781873e-15 0)
(3 -2.763304626e-17 0)
(3 -1.869150247e-16 0)
(3 -7.012071499e-16 0)
(3 1.234156254e-15 0)
(3 5.701345047e-15 0)
(3 5.125263112e-15 0)
(3 2.482273876e-15 0)
(3 1.915447397e-15 0)
(3 1.637314136e-15 0)
(3 3.809531877e-15 0)
(3 6.260837364e-15 0)
(3 6.791376183e-15 0)
(3 8.027414627e-15 0)
(3 9.84240279e-15 0)
(3 9.065118532e-15 0)
(3 8.128209612e-15 0)
(3 6.965841784e-15 0)
(3 3.005878985e-15 0)
(3 -1.288191019e-16 0)
(3 -1.23474143e-15 0)
(3 -1.006786417e-15 0)
(3 -1.120601057e-15 0)
(3 -1.119264854e-15 0)
(3 -2.87312133e-15 0)
(3 -5.966225754e-15 0)
(3 -9.026504212e-15 0)
(3 -8.565850469e-15 0)
(3 -4.974566857e-15 0)
(3 -1.987881958e-15 0)
(3 -1.149452717e-15 0)
(3 -3.933997107e-15 0)
(3 -2.073795044e-15 0)
(3 8.06266122e-17 0)
(3 -1.428956404e-15 0)
(3 -6.548734316e-15 0)
(3 -7.316462988e-15 0)
(3 -6.678488462e-15 0)
(3 -7.137003989e-15 0)
(3 -6.148843244e-15 0)
(3 -6.278271779e-15 0)
(3 -4.105684009e-15 0)
(3 -2.669399925e-15 0)
(3 -2.872108465e-15 0)
(3 -5.103617741e-15 0)
(3 -5.492684013e-15 0)
(3 -5.523256476e-15 0)
(3 -4.976372644e-15 0)
(3 -4.948550444e-15 0)
(3 -4.740145432e-15 0)
(3 -3.963763364e-15 0)
(3 -3.106335573e-15 0)
(3 -1.724230433e-15 0)
(3 -2.578246774e-15 0)
(3 -6.451210565e-15 0)
(3 -6.714294866e-15 0)
(3 -5.200583908e-15 0)
(3 -1.204656532e-15 0)
(3 2.31273294e-15 0)
(3 2.489758225e-15 0)
(3 9.207339125e-16 0)
(3 -1.2096416e-15 0)
(3 -3.114978024e-15 0)
(3 -2.322901064e-15 0)
(3 3.765028997e-17 0)
(3 2.493560538e-15 0)
(3 4.905177834e-15 0)
(3 4.153598781e-15 0)
(3 -3.671979144e-16 0)
(3 8.812661098e-16 0)
(3 2.513125674e-15 0)
(3 3.548894798e-15 0)
(3 3.515503814e-15 0)
(3 4.44378246e-15 0)
(3 3.549337595e-15 0)
(3 2.860498755e-15 0)
(3 2.74079957e-15 0)
(3 1.806168387e-15 0)
(3 2.245242861e-15 0)
(3 -2.406637452e-16 0)
(3 -1.19901659e-15 0)
(3 -1.9973434e-15 0)
(3 -2.246527864e-15 0)
(3 -1.844138482e-15 0)
(3 -9.893787252e-16 0)
(3 -3.536448895e-15 0)
(3 -3.192921879e-15 0)
(3 -4.602549651e-15 0)
(3 -6.155896974e-15 0)
(3 -6.4556407e-15 0)
(3 -7.152565673e-15 0)
(3 -9.330353369e-15 0)
(3 -1.149319814e-14 0)
(3 -1.520902259e-14 0)
(3 -1.650358745e-14 0)
(3 -1.451879393e-14 0)
(3 -1.257304569e-14 0)
(3 -7.51046214e-15 0)
(3 -2.765713514e-15 0)
(3 -1.227226461e-15 0)
(3 1.269753328e-15 0)
(3 1.408116577e-15 0)
(3 -3.185912512e-15 0)
(3 -8.506008771e-15 0)
(3 -1.289093235e-14 0)
(3 -1.270646139e-14 0)
(3 -1.137607655e-14 0)
(3 -1.045605242e-14 0)
(3 -8.010564439e-15 0)
(3 -8.705052109e-15 0)
(3 -1.188271937e-14 0)
(3 -1.494775906e-14 0)
(3 -1.64068271e-14 0)
(3 -1.52877671e-14 0)
(3 -1.32740755e-14 0)
(3 -1.092676718e-14 0)
(3 -9.883623669e-15 0)
(3 -8.157058888e-15 0)
(3 -6.419749984e-15 0)
(3 -7.167746655e-15 0)
(3 -7.00121155e-15 0)
(3 -6.164679131e-15 0)
(3 -7.222218886e-15 0)
(3 -6.259374419e-15 0)
(3 1.037187484e-15 0)
(3 5.431545691e-15 0)
(3 9.052451356e-15 0)
(3 7.000731056e-15 0)
(3 7.497410433e-15 0)
(3 9.717420468e-15 0)
(3 1.170901532e-14 0)
(3 1.160099538e-14 0)
(3 1.037517003e-14 0)
(3 1.045158793e-14 0)
(3 9.736829615e-15 0)
(3 6.621570126e-16 0)
(3 7.73110504e-16 0)
(3 2.961606939e-15 0)
(3 2.431176898e-15 0)
(3 1.418042465e-15 0)
(3 5.336482942e-16 0)
(3 1.257405226e-15 0)
(3 3.378056495e-15 0)
(3 4.292951295e-15 0)
(3 2.409264041e-15 0)
(3 -8.197465051e-17 0)
(3 -2.901766253e-15 0)
(3 -3.57323123e-15 0)
(3 -5.023734266e-15 0)
(3 -4.107787443e-15 0)
(3 -3.7330107e-15 0)
(3 -3.777117515e-15 0)
(3 -4.145237088e-15 0)
(3 -4.719705504e-15 0)
(3 -4.287774446e-15 0)
(3 -5.407484475e-15 0)
(3 -9.028477444e-15 0)
(3 -8.859208509e-15 0)
(3 -6.987397212e-15 0)
(3 -7.726652143e-15 0)
(3 -7.620665756e-15 0)
(3 -5.874027541e-15 0)
(3 -6.379455479e-15 0)
(3 -6.452347685e-15 0)
(3 -6.760454116e-15 0)
(3 -2.362856927e-15 0)
(3 1.363001791e-15 0)
(3 1.013774937e-15 0)
(3 -3.276938786e-15 0)
(3 -6.055232769e-15 0)
(3 -8.593168533e-15 0)
(3 -1.327967368e-14 0)
(3 -1.529854467e-14 0)
(3 -1.55576101e-14 0)
(3 -1.546210456e-14 0)
(3 -1.69283802e-14 0)
(3 -1.420310472e-14 0)
(3 -1.324622277e-14 0)
(3 -1.187238195e-14 0)
(3 -1.230106672e-14 0)
(3 -1.262634667e-14 0)
(3 -1.070188389e-14 0)
(3 -9.124211357e-15 0)
(3 -8.852080976e-15 0)
(3 -8.683132393e-15 0)
(3 -8.739600249e-15 0)
(3 -8.194618294e-15 0)
(3 -7.34014992e-15 0)
(3 -3.560000138e-15 0)
(3 -2.710603407e-15 0)
(3 -9.263410658e-16 0)
(3 7.968350172e-16 0)
(3 1.669278968e-15 0)
(3 2.587542114e-15 0)
(3 -3.952067302e-16 0)
(3 -2.670513471e-16 0)
(3 1.563229234e-15 0)
(3 3.507559734e-15 0)
(3 3.56660633e-15 0)
(3 2.859050673e-15 0)
(3 2.289827251e-15 0)
(3 3.051852401e-15 0)
(3 -1.882989358e-17 0)
(3 1.007318049e-15 0)
(3 2.737194877e-15 0)
(3 2.67783783e-15 0)
(3 1.30061574e-15 0)
(3 -5.004182436e-16 0)
(3 -1.502838947e-15 0)
(3 -1.772895323e-15 0)
(3 -3.365293181e-15 0)
(3 -3.493629762e-15 0)
(3 -3.946297984e-15 0)
(3 -3.535161675e-15 0)
(3 -4.844257973e-15 0)
(3 -3.073315061e-15 0)
(3 -9.155255626e-16 0)
(3 1.989344529e-15 0)
(3 3.165882522e-15 0)
(3 3.751568525e-15 0)
(3 2.269322932e-15 0)
(3 4.223145526e-16 0)
(3 5.840826936e-16 0)
(3 -6.329524533e-16 0)
(3 2.143510291e-15 0)
(3 3.97304101e-15 0)
(3 3.604202523e-15 0)
(3 3.556464822e-15 0)
(3 3.29352631e-15 0)
(3 3.473486063e-15 0)
(3 2.24491495e-15 0)
(3 4.023101812e-16 0)
(3 -2.53528295e-15 0)
(3 -5.590853795e-15 0)
(3 -5.769195293e-15 0)
(3 -5.084523893e-15 0)
(3 -6.724332193e-15 0)
(3 -1.23975768e-14 0)
(3 -1.401377737e-14 0)
(3 -1.80119797e-14 0)
(3 -2.004430313e-14 0)
(3 -1.957242994e-14 0)
(3 -1.747445178e-14 0)
(3 -1.53002972e-14 0)
(3 -1.379534817e-14 0)
(3 -1.204995575e-14 0)
(3 -1.108775393e-14 0)
(3 -1.098480046e-14 0)
(3 -1.091732298e-14 0)
(3 -1.051034101e-14 0)
(3 -8.967649642e-15 0)
(3 -9.11494368e-15 0)
(3 -9.446820339e-15 0)
(3 -4.926351822e-15 0)
(3 -3.159787573e-15 0)
(3 -1.133783794e-15 0)
(3 1.459890909e-15 0)
(3 9.449879229e-16 0)
(3 -3.485121068e-15 0)
(3 -6.035345954e-15 0)
(3 -8.875434123e-15 0)
(3 -9.735954408e-15 0)
(3 -9.721218467e-15 0)
(3 -6.645220199e-15 0)
(3 -2.519775806e-15 0)
(3 -2.550996905e-16 0)
(3 1.877562199e-15 0)
(3 3.12246327e-15 0)
(3 4.315113729e-15 0)
(3 -7.188690655e-16 0)
(3 -3.594571279e-16 0)
(3 -1.365980901e-15 0)
(3 -5.97128773e-16 0)
(3 -1.948040415e-16 0)
(3 -9.050105709e-16 0)
(3 -1.129815808e-15 0)
(3 -4.576539907e-15 0)
(3 -5.72639117e-15 0)
(3 -6.544090299e-15 0)
(3 -7.017411908e-15 0)
(3 -6.459802532e-15 0)
(3 -4.953050799e-15 0)
(3 -3.382201064e-15 0)
(3 -2.691361967e-15 0)
(3 -2.866695969e-17 0)
(3 4.245589479e-15 0)
(3 7.623086494e-15 0)
(3 8.406906262e-15 0)
(3 6.992862205e-15 0)
(3 8.996530314e-15 0)
(3 1.355724052e-14 0)
(3 1.342393952e-14 0)
(3 1.085626863e-14 0)
(3 7.407071269e-15 0)
(3 2.944746599e-15 0)
(3 -1.160267503e-15 0)
(3 -1.290409536e-15 0)
(3 -1.871128008e-15 0)
(3 -2.043887432e-15 0)
(3 -6.32872044e-15 0)
(3 -1.309246056e-14 0)
(3 -1.479014357e-14 0)
(3 -1.612867029e-14 0)
(3 -1.963450431e-14 0)
(3 -2.243002341e-14 0)
(3 -2.009946464e-14 0)
(3 -1.845161381e-14 0)
(3 -1.590044321e-14 0)
(3 -1.618342391e-14 0)
(3 -1.654610064e-14 0)
(3 -1.625718219e-14 0)
(3 -1.473053142e-14 0)
(3 -1.349061951e-14 0)
(3 -1.099590975e-14 0)
(3 -9.54250441e-15 0)
(3 -7.868874224e-15 0)
(3 -7.006597851e-15 0)
(3 -8.417031252e-15 0)
(3 -1.20329476e-14 0)
(3 -1.163573623e-14 0)
(3 -6.75552131e-15 0)
(3 -4.023808443e-15 0)
(3 -2.747961693e-15 0)
(3 -3.510997066e-15 0)
(3 -5.937515807e-15 0)
(3 -1.015012671e-14 0)
(3 -1.558164391e-14 0)
(3 -1.544231992e-14 0)
(3 -1.453915163e-14 0)
(3 -9.236803181e-15 0)
(3 -4.490365518e-15 0)
(3 -6.850971565e-17 0)
(3 5.170109634e-15 0)
(3 8.365969723e-15 0)
(3 1.004332734e-14 0)
(3 1.072234069e-14 0)
(3 8.098964184e-16 0)
(3 5.918893329e-16 0)
(3 -3.463270794e-15 0)
(3 -5.911279058e-15 0)
(3 -4.411879245e-15 0)
(3 -4.634740329e-15 0)
(3 -5.577160209e-15 0)
(3 -4.956168141e-15 0)
(3 -5.115913791e-15 0)
(3 -6.269586209e-15 0)
(3 -7.908951194e-15 0)
(3 -7.657601473e-15 0)
(3 -6.773256158e-15 0)
(3 -7.794359558e-15 0)
(3 -7.390277454e-15 0)
(3 -5.7625639e-15 0)
(3 -3.056094835e-15 0)
(3 -5.381698515e-16 0)
(3 3.908507903e-15 0)
(3 4.545668654e-15 0)
(3 3.586691906e-15 0)
(3 4.81088493e-15 0)
(3 1.993461907e-15 0)
(3 -5.942687085e-16 0)
(3 -4.857956414e-15 0)
(3 -8.339328984e-15 0)
(3 -1.1131867e-14 0)
(3 -1.471127515e-14 0)
(3 -1.825383075e-14 0)
(3 -1.884266799e-14 0)
(3 -2.267029946e-14 0)
(3 -2.388429845e-14 0)
(3 -2.599763397e-14 0)
(3 -2.915311194e-14 0)
(3 -2.968908568e-14 0)
(3 -2.373958119e-14 0)
(3 -1.398891089e-14 0)
(3 -9.817516912e-15 0)
(3 -1.156378524e-14 0)
(3 -8.65053171e-15 0)
(3 -6.81178016e-15 0)
(3 -7.959240083e-15 0)
(3 -5.844069289e-15 0)
(3 -5.52227638e-15 0)
(3 -3.90621784e-15 0)
(3 -1.441806602e-15 0)
(3 -1.080410741e-15 0)
(3 -1.752241931e-15 0)
(3 -8.272438914e-15 0)
(3 -1.408062017e-14 0)
(3 -1.460137154e-14 0)
(3 -1.513483438e-14 0)
(3 -1.124169523e-14 0)
(3 -7.576854065e-15 0)
(3 -9.682032017e-15 0)
(3 -1.537221818e-14 0)
(3 -2.036773978e-14 0)
(3 -1.970922446e-14 0)
(3 -1.954987763e-14 0)
(3 -1.604280409e-14 0)
(3 -4.024258545e-15 0)
(3 5.1910388e-16 0)
(3 6.390959154e-15 0)
(3 7.584369485e-15 0)
(3 9.947931761e-15 0)
(3 1.147081895e-14 0)
(3 1.359864691e-14 0)
(3 6.516560244e-16 0)
(3 9.310308966e-16 0)
(3 4.148795592e-16 0)
(3 -1.615480415e-15 0)
(3 -4.461164286e-15 0)
(3 -6.754421667e-15 0)
(3 -8.292426405e-15 0)
(3 -9.943448195e-15 0)
(3 -8.011349059e-15 0)
(3 -6.059282938e-15 0)
(3 -6.444804606e-15 0)
(3 -5.042019773e-15 0)
(3 -5.607142156e-15 0)
(3 -4.767486327e-15 0)
(3 -5.014182131e-15 0)
(3 -5.036271135e-15 0)
(3 -4.519530315e-15 0)
(3 -3.641138186e-15 0)
(3 -2.669885125e-15 0)
(3 -4.237939511e-15 0)
(3 -6.897049289e-15 0)
(3 -9.134019727e-15 0)
(3 -1.528936947e-14 0)
(3 -1.993807369e-14 0)
(3 -2.417643968e-14 0)
(3 -2.699721664e-14 0)
(3 -2.710713051e-14 0)
(3 -2.751767596e-14 0)
(3 -3.129445885e-14 0)
(3 -2.861435273e-14 0)
(3 -2.256984703e-14 0)
(3 -1.483893586e-14 0)
(3 -1.265589778e-14 0)
(3 -1.364091684e-14 0)
(3 -1.339544e-14 0)
(3 -1.132740633e-14 0)
(3 -1.095608923e-14 0)
(3 -1.35723871e-14 0)
(3 -1.285662722e-14 0)
(3 -1.02846822e-14 0)
(3 -2.930997348e-15 0)
(3 -3.16281563e-16 0)
(3 -7.34189079e-16 0)
(3 -2.170295281e-15 0)
(3 -1.672590003e-15 0)
(3 -2.336133883e-16 0)
(3 -3.669438528e-15 0)
(3 -6.864601974e-15 0)
(3 -9.059172466e-15 0)
(3 -9.918598655e-15 0)
(3 -1.131612999e-14 0)
(3 -1.292621225e-14 0)
(3 -1.307088572e-14 0)
(3 -9.481959633e-15 0)
(3 -1.020199689e-14 0)
(3 -1.506138535e-14 0)
(3 -1.683689805e-14 0)
(3 -1.564427314e-14 0)
(3 -1.220902401e-14 0)
(3 -7.968841313e-15 0)
(3 1.158648098e-16 0)
(3 6.667325127e-15 0)
(3 1.156884811e-14 0)
(3 1.260663958e-14 0)
(3 1.202958203e-14 0)
(3 1.198142204e-14 0)
(3 1.119866867e-14 0)
(3 3.815810832e-16 0)
(3 7.131378689e-16 0)
(3 1.054902734e-15 0)
(3 2.242502422e-15 0)
(3 4.587331092e-16 0)
(3 -1.11189428e-15 0)
(3 -3.328774968e-15 0)
(3 -4.572645639e-15 0)
(3 -2.209739194e-15 0)
(3 -6.966527619e-16 0)
(3 -1.295377865e-16 0)
(3 4.885344047e-16 0)
(3 -5.643260405e-16 0)
(3 -1.379269428e-15 0)
(3 -2.728587591e-15 0)
(3 -5.319379849e-15 0)
(3 -5.422571683e-15 0)
(3 -7.174012679e-15 0)
(3 -7.46022517e-15 0)
(3 -9.118570579e-15 0)
(3 -1.180178492e-14 0)
(3 -1.880745917e-14 0)
(3 -2.418070456e-14 0)
(3 -2.460741206e-14 0)
(3 -2.599897213e-14 0)
(3 -2.471042614e-14 0)
(3 -2.294322722e-14 0)
(3 -2.269751208e-14 0)
(3 -2.406797098e-14 0)
(3 -2.821734747e-14 0)
(3 -2.2136418e-14 0)
(3 -1.534840295e-14 0)
(3 -1.02910109e-14 0)
(3 -8.799652205e-15 0)
(3 -6.687904318e-15 0)
(3 -6.319773393e-15 0)
(3 -2.963146822e-15 0)
(3 -1.653576763e-15 0)
(3 -1.211645962e-15 0)
(3 -1.965833661e-15 0)
(3 -2.899013873e-15 0)
(3 -4.801649396e-15 0)
(3 -2.568799476e-15 0)
(3 -5.235814762e-16 0)
(3 -2.050721824e-15 0)
(3 -3.587405705e-15 0)
(3 -5.545664353e-15 0)
(3 -5.985068302e-15 0)
(3 -6.933787909e-15 0)
(3 -7.06122862e-15 0)
(3 -6.276710513e-15 0)
(3 -7.297485113e-15 0)
(3 -8.902747814e-15 0)
(3 -9.822261244e-15 0)
(3 -8.758893887e-15 0)
(3 -5.582170473e-15 0)
(3 -2.653561644e-15 0)
(3 -1.97074367e-15 0)
(3 4.59572626e-15 0)
(3 9.201762002e-15 0)
(3 1.438704103e-14 0)
(3 2.014992299e-14 0)
(3 2.349365573e-14 0)
(3 2.280993865e-14 0)
(3 2.026693784e-14 0)
(3 1.891773875e-14 0)
(3 9.867308037e-15 0)
(3 -1.718088243e-16 0)
(3 1.535673584e-16 0)
(3 1.030590916e-15 0)
(3 2.510628133e-15 0)
(3 1.906304999e-15 0)
(3 3.075264196e-15 0)
(3 3.014558107e-15 0)
(3 4.680190927e-15 0)
(3 2.794277183e-15 0)
(3 1.697770525e-15 0)
(3 1.894925904e-15 0)
(3 2.013281214e-15 0)
(3 1.020253603e-15 0)
(3 -2.133653127e-16 0)
(3 -9.072701777e-16 0)
(3 -2.833321946e-15 0)
(3 -5.685401841e-15 0)
(3 -8.418323787e-15 0)
(3 -1.052269556e-14 0)
(3 -1.17078719e-14 0)
(3 -1.284187788e-14 0)
(3 -1.381726449e-14 0)
(3 -1.349682758e-14 0)
(3 -1.254141599e-14 0)
(3 -1.114589318e-14 0)
(3 -8.80738333e-15 0)
(3 -6.787667713e-15 0)
(3 -9.200578124e-15 0)
(3 -1.013021243e-14 0)
(3 -9.861988671e-15 0)
(3 -8.204174561e-15 0)
(3 -3.365549914e-15 0)
(3 -3.778547265e-16 0)
(3 3.075306539e-15 0)
(3 4.041518716e-15 0)
(3 4.814705938e-15 0)
(3 5.409812257e-15 0)
(3 5.508982256e-15 0)
(3 3.523329531e-15 0)
(3 8.177316483e-16 0)
(3 -3.865690333e-15 0)
(3 -4.229691041e-15 0)
(3 -2.801295548e-15 0)
(3 -2.175065916e-15 0)
(3 -5.97935137e-15 0)
(3 -1.093162313e-14 0)
(3 -9.292140845e-15 0)
(3 -1.505146491e-15 0)
(3 -1.435700135e-15 0)
(3 -1.999339597e-15 0)
(3 7.219110568e-16 0)
(3 8.85848913e-16 0)
(3 -8.878382491e-16 0)
(3 -4.524257931e-15 0)
(3 -3.855325292e-15 0)
(3 -2.450060496e-18 0)
(3 8.130308598e-15 0)
(3 1.311680112e-14 0)
(3 1.627030006e-14 0)
(3 1.847612131e-14 0)
(3 2.038060872e-14 0)
(3 2.616377399e-14 0)
(3 2.719159865e-14 0)
(3 2.31823891e-14 0)
(3 1.732255988e-14 0)
(3 9.331520954e-15 0)
(3 5.395254065e-15 0)
(3 -3.717620905e-16 0)
(3 -6.809733066e-16 0)
(3 1.340223934e-15 0)
(3 1.877354403e-15 0)
(3 3.265675746e-15 0)
(3 4.152158933e-15 0)
(3 3.966880227e-15 0)
(3 3.333645523e-15 0)