/*--------------------------------*- C++ -*----------------------------------*\
  =========                 |
  \\      /  F ield         | OpenFOAM: The Open Source CFD Toolbox
   \\    /   O peration     | Website:  https://openfoam.org
    \\  /    A nd           | Version:  7
     \\/     M anipulation  |
\*---------------------------------------------------------------------------*/
FoamFile
{
    version     2.0;
    format      ascii;
    class       volVectorField;
    location    "0.5";
    object      U;
}
// * * * * * * * * * * * * * * * * * * * * * * * * * * * * * * * * * * * * * //

dimensions      [0 1 -1 0 0 0 0];

internalField   nonuniform List<vector> 
143
(
(3 -6.355231606e-15 0)
(3 -5.764158607e-15 0)
(3 -4.438562855e-15 0)
(3 -2.922378315e-15 0)
(3 -9.918448891e-17 0)
(3 4.235870076e-15 0)
(3 4.878781645e-15 0)
(3 -4.749933766e-16 0)
(3 5.639820267e-16 0)
(3 1.698041739e-15 0)
(3 5.042568954e-16 0)
(3 5.048689853e-16 0)
(3 1.741516457e-15 0)
(3 1.662889518e-15 0)
(3 -6.785207709e-17 0)
(3 1.822758219e-16 0)
(3 8.442140594e-16 0)
(3 -1.392267451e-15 0)
(3 -3.047778655e-15 0)
(3 -2.521904725e-15 0)
(3 -1.555432324e-15 0)
(3 1.385887346e-15 0)
(3 3.129160823e-15 0)
(3 3.581340443e-15 0)
(3 -6.386441865e-16 0)
(3 -1.059926805e-15 0)
(3 -1.633212546e-15 0)
(3 -1.686579529e-15 0)
(3 9.812303333e-16 0)
(3 3.360397422e-15 0)
(3 1.212636335e-15 0)
(3 7.181925624e-16 0)
(3 2.61933271e-15 0)
(3 3.615485569e-15 0)
(3 3.339908009e-15 0)
(3 2.712206357e-15 0)
(3 3.82199487e-15 0)
(3 3.160425122e-15 0)
(3 1.598631601e-15 0)
(3 4.722301117e-16 0)
(3 -1.221793593e-15 0)
(3 1.044211347e-16 0)
(3 -8.791136023e-16 0)
(3 -5.476219653e-16 0)
(3 1.166977042e-16 0)
(3 1.419965664e-15 0)
(3 -3.19020768e-17 0)
(3 -1.134480662e-15 0)
(3 -1.098746265e-15 0)
(3 -6.517236955e-16 0)
(3 -1.314323361e-15 0)
(3 -6.074590157e-16 0)
(3 3.465104264e-16 0)
(3 2.764758632e-15 0)
(3 3.052698155e-15 0)
(3 2.22354702e-15 0)
(3 -3.516972139e-15 0)
(3 -4.145717795e-15 0)
(3 -7.491413024e-17 0)
(3 1.47732092e-16 0)
(3 1.267664148e-15 0)
(3 6.522713456e-16 0)
(3 -1.407334642e-15 0)
(3 -2.44005921e-15 0)
(3 -1.592298297e-15 0)
(3 -1.23264331e-15 0)
(3 -4.577545441e-16 0)
(3 1.034612151e-16 0)
(3 4.924720724e-16 0)
(3 6.703457143e-16 0)
(3 -1.958439021e-15 0)
(3 -2.005358298e-15 0)
(3 -4.312549431e-16 0)
(3 -7.154466651e-16 0)
(3 2.610537265e-16 0)
(3 -7.176960083e-16 0)
(3 1.837887575e-16 0)
(3 -2.780135798e-16 0)
(3 -4.340822439e-16 0)
(3 -1.26406007e-15 0)
(3 -7.302828538e-16 0)
(3 1.148405991e-15 0)
(3 3.326761606e-15 0)
(3 3.174265159e-15 0)
(3 2.999299889e-15 0)
(3 2.761507803e-15 0)
(3 1.676480818e-15 0)
(3 -6.910196203e-16 0)
(3 -2.482453044e-15 0)
(3 -2.521917052e-15 0)
(3 -2.261778194e-15 0)
(3 -5.460697448e-16 0)
(3 5.278118422e-16 0)
(3 6.344358323e-16 0)
(3 4.030299747e-16 0)
(3 1.088491369e-15 0)
(3 -1.185168501e-15 0)
(3 -2.363294342e-16 0)
(3 2.31592594e-17 0)
(3 -1.006854543e-15 0)
(3 -2.310609812e-16 0)
(3 2.754063184e-16 0)
(3 4.136542884e-16 0)
(3 -5.529353077e-16 0)
(3 -5.653072917e-16 0)
(3 -2.872745748e-15 0)
(3 -4.354713379e-15 0)
(3 -4.057651642e-15 0)
(3 -3.742380776e-15 0)
(3 1.107922281e-15 0)
(3 4.891703154e-16 0)
(3 -1.552472749e-15 0)
(3 -7.975231391e-16 0)
(3 -3.195912454e-16 0)
(3 1.975641344e-16 0)
(3 -1.164717545e-15 0)
(3 -5.717190168e-15 0)
(3 -6.844798456e-15 0)
(3 -4.865793967e-15 0)
(3 -3.100489082e-15 0)
(3 -1.572945804e-15 0)
(3 -4.872932323e-16 0)
(3 1.060562986e-16 0)
(3 8.263133934e-16 0)
(3 4.119544233e-16 0)
(3 2.767706404e-15 0)
(3 2.073998546e-16 0)
(3 9.035033995e-17 0)
(3 -8.481809424e-16 0)
(3 -1.674832641e-15 0)
(3 1.07146061e-16 0)
(3 7.383554622e-16 0)
(3 -3.450975148e-16 0)
(3 -1.230115806e-15 0)
(3 -4.496345761e-15 0)
(3 -4.38123642e-15 0)
(3 -3.330989236e-15 0)
(3 -1.04807235e-15 0)
(3 -5.972708204e-16 0)
(3 2.088314088e-15 0)
(3 2.386997306e-15 0)
(3 1.227895571e-15 0)
(3 3.990764643e-15 0)
)
;

boundaryField
{
    inlet
    {
        type            fixedValue;
        value           uniform (3 0 0);
    }
    outlet
    {
        type            inletOutlet;
        inletValue      nonuniform 0();
        value           nonuniform 0();
    }
    bottom
    {
        type            slip;
    }
    top
    {
        type            slip;
    }
    obstacle
    {
        type            slip;
    }
    defaultFaces
    {
        type            empty;
    }
    procBoundary30to24
    {
        type            processor;
        value           nonuniform List<vector> 
18
(
(3 1.406239736e-15 0)
(3 1.599233896e-15 0)
(3 1.739502802e-15 0)
(3 2.764187055e-15 0)
(3 4.310751871e-15 0)
(3 4.949446891e-15 0)
(3 3.572988875e-15 0)
(3 -3.312351464e-16 0)
(3 1.537141922e-16 0)
(3 5.911108799e-16 0)
(3 2.369873762e-15 0)
(3 -1.066823058e-17 0)
(3 -6.536080384e-16 0)
(3 8.247401852e-16 0)
(3 1.786785842e-15 0)
(3 -4.132535279e-16 0)
(3 -5.54527387e-15 0)
(3 -5.54527387e-15 0)
)
;
    }
    procBoundary30to25
    {
        type            processor;
        value           uniform (3 3.834524231e-15 0);
    }
    procBoundary30to31
    {
        type            processor;
        value           nonuniform List<vector> 8((3 1.203459539e-15 0) (3 -4.276396287e-15 0) (3 -2.641396073e-15 0) (3 5.645217741e-16 0) (3 -4.330445339e-16 0) (3 -1.555033325e-15 0) (3 4.906942451e-15 0) (3 7.08944029e-15 0));
    }
}


// ************************************************************************* //
