/*--------------------------------*- C++ -*----------------------------------*\
  =========                 |
  \\      /  F ield         | OpenFOAM: The Open Source CFD Toolbox
   \\    /   O peration     | Website:  https://openfoam.org
    \\  /    A nd           | Version:  7
     \\/     M anipulation  |
\*---------------------------------------------------------------------------*/
FoamFile
{
    version     2.0;
    format      ascii;
    class       volScalarField;
    location    "1.8";
    object      T;
}
// * * * * * * * * * * * * * * * * * * * * * * * * * * * * * * * * * * * * * //

dimensions      [0 0 0 1 0 0 0];

internalField   nonuniform List<scalar> 
2222
(
1.566910785
1.561840832
1.559648303
1.556046427
1.548946237
1.541947908
1.538269857
1.534371774
1.528584912
1.523536136
1.520058624
1.514783645
1.509935924
1.508365977
1.506343747
1.502607297
1.498304063
1.493983453
1.489288368
1.48390394
1.478398357
1.474397562
1.470929008
1.467481042
1.463623115
1.459789029
1.457216724
1.455061787
1.452768199
1.449298891
1.445592913
1.442098215
1.437963312
1.432776971
1.568761747
1.563446695
1.560087051
1.556194723
1.549175066
1.54229745
1.539007931
1.53484279
1.528715416
1.523707382
1.520543363
1.515966614
1.511633377
1.509566494
1.507015278
1.503163488
1.498749499
1.494300629
1.489584829
1.484351061
1.479722458
1.475285984
1.471017609
1.46747291
1.463651479
1.460220982
1.458508191
1.456807814
1.454015398
1.449576531
1.44559389
1.442139656
1.438111234
1.433278097
1.570269891
1.564441535
1.560313676
1.556371857
1.5495597
1.543066775
1.539905886
1.535233473
1.528678962
1.523890968
1.521522258
1.51800462
1.513398132
1.509818219
1.507152789
1.503438382
1.499043761
1.494612961
1.490020254
1.485324802
1.480957887
1.475568622
1.470985332
1.467579656
1.463835312
1.4613177
1.460236562
1.458000462
1.454222525
1.449624671
1.445614523
1.442243716
1.438358977
1.433983544
1.571131234
1.564981243
1.560559712
1.556645337
1.550292821
1.544250805
1.54075895
1.535516288
1.528614031
1.524354184
1.523058538
1.519858775
1.513983274
1.509859739
1.50731181
1.503717172
1.499378019
1.49503917
1.490776616
1.486645271
1.481627156
1.475654877
1.47093896
1.467780137
1.464533843
1.463020655
1.461487118
1.458214842
1.454246777
1.449709204
1.445692815
1.442394777
1.438849268
1.434717298
1.571665304
1.565404939
1.560834353
1.557008394
1.551430594
1.545446167
1.541048413
1.535734875
1.528848364
1.52557383
1.524581829
1.520560279
1.514126586
1.50996583
1.507563572
1.504063443
1.499771157
1.495625747
1.491868115
1.487698251
1.481848096
1.475525806
1.471038109
1.468392492
1.466220813
1.464604266
1.461824656
1.45822869
1.454273699
1.44987474
1.445870491
1.442732231
1.439670353
1.435284663
1.572086213
1.565804615
1.561154383
1.557612344
1.552746775
1.546022272
1.541155758
1.536057114
1.529654672
1.527211589
1.525475407
1.520795286
1.514122274
1.510192421
1.507959649
1.504593671
1.500412256
1.49652826
1.493004691
1.48817999
1.481907755
1.475309821
1.471377291
1.469812848
1.468255048
1.465262814
1.461907053
1.458194419
1.454386137
1.450151686
1.446227239
1.443444317
1.440648901
1.435540722
1.572511187
1.56623835
1.561635348
1.558598626
1.553823672
1.546244573
1.541227514
1.53657199
1.531552545
1.528638237
1.525778258
1.520787325
1.514074981
1.510522053
1.508613727
1.505471659
1.501468193
1.497748837
1.493736412
1.488403638
1.481864469
1.475350434
1.472528965
1.471666637
1.469326817
1.465386287
1.461856141
1.458269726
1.454609257
1.450608517
1.446940067
1.444538809
1.441471675
1.43555978
1.56687911
1.562533691
1.559745043
1.554308954
1.546404222
1.54144744
1.537560765
1.533632862
1.529475091
1.525876446
1.520715497
1.514270215
1.511146669
1.509724286
1.506907864
1.502966085
1.498741661
1.49400409
1.488606565
1.481987318
1.475719657
1.474417992
1.472944313
1.469500854
1.46533726
1.461916344
1.458448504
1.455057894
1.451368682
1.448088442
1.445735446
1.441972547
1.435512213
1.568015003
1.563774849
1.560211312
1.554510876
1.546667481
1.54181034
1.53890157
1.534899032
1.529727002
1.525874665
1.520946439
1.514706129
1.512350645
1.51130197
1.508426477
1.503860289
1.499053352
1.49423428
1.488843596
1.482266296
1.476938849
1.475883702
1.473323871
1.469474793
1.465254104
1.462132076
1.458917618
1.455867057
1.452487378
1.449429553
1.446646431
1.442187762
1.435484813
1.56954432
1.564408197
1.56022422
1.554643666
1.547037594
1.542560712
1.540205888
1.535553366
1.529833284
1.525987888
1.52138733
1.515813081
1.514064352
1.512612836
1.509057286
1.504154965
1.499317907
1.494529066
1.489112708
1.482975548
1.478922632
1.476602612
1.473415559
1.469317535
1.465375413
1.462622713
1.45987326
1.457052029
1.453703608
1.450478582
1.447162122
1.442229184
1.435495501
1.570596239
1.564476978
1.560224184
1.554853883
1.547495933
1.543852942
1.541385194
1.535899267
1.529763801
1.526168155
1.522357473
1.518022378
1.515584746
1.513113328
1.509356556
1.504474294
1.499628287
1.494861952
1.489515986
1.484448954
1.480391915
1.476835068
1.473410622
1.46926411
1.465691794
1.4636407
1.461260522
1.458216882
1.454544786
1.451078451
1.447423607
1.442247991
1.435655459
1.571000551
1.564489478
1.560272129
1.555094081
1.548318398
1.545412695
1.542317353
1.536076917
1.529593071
1.526656555
1.524097374
1.520364368
1.516272737
1.513361073
1.509667623
1.504839805
1.499980377
1.495298958
1.490403597
1.486071367
1.480931797
1.476935858
1.473521956
1.469405383
1.466511572
1.465052169
1.462434277
1.458848458
1.455011162
1.45146245
1.447595549
1.442294118
1.436134181
1.571269031
1.564533363
1.560359999
1.555517022
1.549800217
1.546804633
1.542803617
1.535927301
1.52972573
1.527789536
1.52595303
1.521449705
1.516530512
1.513574832
1.51001477
1.505247547
1.5004177
1.496095522
1.491858644
1.486991265
1.481103381
1.476973868
1.473722752
1.469842681
1.467853825
1.466110795
1.462833613
1.459143745
1.455395257
1.451834183
1.447768328
1.442465881
1.4369721
1.57159336
1.564663134
1.560519745
1.55637442
1.551567118
1.547581301
1.543078573
1.536017335
1.530251836
1.529253852
1.527105034
1.521736788
1.516652808
1.513851089
1.510439175
1.50579128
1.501149765
1.497437447
1.493122881
1.487276537
1.481150323
1.477155509
1.474192957
1.471123385
1.469060072
1.466450526
1.462970668
1.459430757
1.45588431
1.452302232
1.447985766
1.442952541
1.438167917
1.572029816
1.564914795
1.560930007
1.557667327
1.552802618
1.547805659
1.543120177
1.536393998
1.531619719
1.530542975
1.527536167
1.521835963
1.516721077
1.514202851
1.511113677
1.506736258
1.502422493
1.498657317
1.493614785
1.487426045
1.481102102
1.477581456
1.475321052
1.472804077
1.469552579
1.46656789
1.46312732
1.459866611
1.456618032
1.452882129
1.448274238
1.443908035
1.439614805
1.572644223
1.565418263
1.561843655
1.558873894
1.553275354
1.547824971
1.543222147
1.537338036
1.533442581
1.531377331
1.527719533
1.521694608
1.516913474
1.51486379
1.512288958
1.508245723
1.503621046
1.499082804
1.493833682
1.487480574
1.481295278
1.47864536
1.476914821
1.473619351
1.469662018
1.466698695
1.463460342
1.460619402
1.457569932
1.453368632
1.448639501
1.445085728
1.440887561
1.573570002
1.566432174
1.563024406
1.559476651
1.553480662
1.547783304
1.543462121
1.538950611
1.534966094
1.531654147
1.527736149
1.521619178
1.517318501
1.516030378
1.513897264
1.509484419
1.503952339
1.499254589
1.494026259
1.487684675
1.48184212
1.480176055
1.477965403
1.473762432
1.469677246
1.466963517
1.464210085
1.461732189
1.458325147
1.453549902
1.449082715
1.445907326
1.441595623
1.574824593
1.567846682
1.56380682
1.559707549
1.553593346
1.547828631
1.54403417
1.540498708
1.535735034
1.531682046
1.527809389
1.521871204
1.518380049
1.517535288
1.515051954
1.509814866
1.504067972
1.49940643
1.494243171
1.488103961
1.483224522
1.481371744
1.478227412
1.473737149
1.469786024
1.4676349
1.465480707
1.462839915
1.458541079
1.453610931
1.449529652
1.446267418
1.4418973
1.575973059
1.568685534
1.564047409
1.559890853
1.553683396
1.54791755
1.545020852
1.541606194
1.535929564
1.531629664
1.528056809
1.522592189
1.52009647
1.518765299
1.515334518
1.509925357
1.504207749
1.499595174
1.494551915
1.489105702
1.484953019
1.481877035
1.478330096
1.473562772
1.470107287
1.468834894
1.466882731
1.463297512
1.458554339
1.453721885
1.449915603
1.446413846
1.44204524
1.576683525
1.569043851
1.564241255
1.560134771
1.553885233
1.548379529
1.546203935
1.542294503
1.535944851
1.531628911
1.5285719
1.524427052
1.521853535
1.519253392
1.515379984
1.510009406
1.504358606
1.499857926
1.495191069
1.490643178
1.485910124
1.48204749
1.478343924
1.473643195
1.47103665
1.470243797
1.467683106
1.463314027
1.45854377
1.453982647
1.450289042
1.446551146
1.442162149
1.577110508
1.569444283
1.564508373
1.560437805
1.554221494
1.549532232
1.547378895
1.542532607
1.53567559
1.53170249
1.529660522
1.526767492
1.522975866
1.519366506
1.515327068
1.510122757
1.50457585
1.500406258
1.496390104
1.491892051
1.48615045
1.482103807
1.478473508
1.47404837
1.472478375
1.471339009
1.467848154
1.463209141
1.458610476
1.454402945
1.450726947
1.446756659
1.442287259
1.577595864
1.56997659
1.564883127
1.560845143
1.555052135
1.551063934
1.54806807
1.542541983
1.535395928
1.532130518
1.53124334
1.528327725
1.523283796
1.519350678
1.515349077
1.510306443
1.505020894
1.501504744
1.497753085
1.492330034
1.486229503
1.482149552
1.478777434
1.47527795
1.473875477
1.471756634
1.467873335
1.463174916
1.458803476
1.45496256
1.451253964
1.44708023
1.442466686
1.578184867
1.570683344
1.565398461
1.561468956
1.5564876
1.552087926
1.548119461
1.542341591
1.535497313
1.533365584
1.532759005
1.528990485
1.523388875
1.519261383
1.515481821
1.510749067
1.505996482
1.502901529
1.498457463
1.492443322
1.486114556
1.482364543
1.479643927
1.477146664
1.474657198
1.47188879
1.467830148
1.463241124
1.459283999
1.45567618
1.451830112
1.447512117
1.442742402
1.571634369
1.566129971
1.562436478
1.557845076
1.552232252
1.54799399
1.542328416
1.536105873
1.534982336
1.533868915
1.529233299
1.523254194
1.519324811
1.515900307
1.511753896
1.507490718
1.503737558
1.498650572
1.492382978
1.486082107
1.483011732
1.48127122
1.478579252
1.474837205
1.471839285
1.467885827
1.463496366
1.46010717
1.456509429
1.452371195
1.44802445
1.443156579
1.572877624
1.567154766
1.56360294
1.558592279
1.552232254
1.547718963
1.542523353
1.537742598
1.536513637
1.534426038
1.529277728
1.523031636
1.519593
1.516874045
1.513343917
1.508615596
1.503925498
1.498772262
1.492398579
1.486385138
1.484452102
1.482888489
1.479011152
1.474805148
1.471734692
1.468089291
1.464181637
1.461191091
1.457258552
1.452824415
1.448654689
1.443742695
1.574166044
1.568354822
1.564589448
1.558948411
1.552014768
1.54756324
1.543338664
1.539914813
1.537538961
1.534611744
1.529022446
1.523167347
1.520415924
1.518413507
1.514698636
1.508893411
1.503971626
1.498883144
1.492622451
1.487262907
1.486087
1.483688149
1.479117864
1.474660154
1.471846998
1.46857905
1.465287974
1.462106714
1.457653657
1.453267942
1.449453005
1.44434962
1.575159519
1.569404257
1.565242115
1.559225918
1.551789371
1.547578319
1.544827894
1.541650813
1.537844898
1.534647709
1.529005501
1.52362817
1.521869503
1.519907741
1.515157049
1.50894294
1.503968014
1.499037472
1.493187127
1.489038094
1.487165026
1.48394573
1.479029903
1.474648938
1.472142165
1.469536431
1.466433826
1.462434731
1.457859049
1.45384872
1.450244697
1.444669203
1.575976121
1.570183878
1.565727707
1.559377189
1.551748866
1.547917677
1.546354762
1.542574652
1.537897521
1.534549695
1.529333743
1.524853112
1.523479913
1.520663702
1.515262795
1.508908707
1.504065533
1.499361657
1.494527402
1.490768697
1.487578425
1.48407086
1.478835723
1.474859148
1.472921254
1.470802458
1.467075639
1.462497139
1.458098339
1.454572693
1.450716584
1.444792477
1.576777466
1.570856436
1.566212411
1.559659441
1.551934863
1.549084538
1.547662646
1.542863244
1.537676436
1.534623144
1.530170671
1.526686143
1.524669793
1.520863744
1.515254242
1.508947495
1.504284877
1.500189126
1.496237947
1.491521637
1.487781362
1.484075418
1.478914453
1.475443141
1.474209805
1.471877165
1.467154941
1.462569748
1.458532293
1.455254701
1.450852492
1.444904053
1.57762547
1.571569242
1.566747605
1.560092398
1.552455113
1.550716607
1.548545447
1.542916174
1.537250722
1.534892776
1.531789122
1.528420861
1.525202983
1.520958383
1.515249596
1.509091086
1.504865484
1.501573273
1.497298101
1.491752991
1.487841221
1.484302374
1.479263117
1.476696822
1.475557758
1.472138232
1.467112374
1.462707822
1.459211845
1.455767011
1.450899861
1.445149456
1.578569531
1.572392949
1.56734183
1.560708951
1.554041415
1.552080226
1.548811829
1.542522467
1.537102835
1.535628174
1.533557034
1.529546074
1.525372435
1.520943997
1.515444276
1.509494309
1.506038483
1.502854512
1.497603645
1.491849451
1.487953668
1.48470783
1.480212709
1.478277518
1.47628721
1.47211348
1.467110584
1.463016589
1.460009997
1.456108524
1.450896546
1.445713406
1.579676206
1.573336514
1.568014306
1.561936546
1.55640353
1.552529941
1.548798418
1.542022965
1.537292803
1.536818438
1.534944706
1.530009039
1.525413417
1.5210255
1.515830505
1.510495315
1.507448947
1.503424327
1.497677012
1.49170799
1.488260492
1.485555349
1.482139358
1.479509856
1.476460505
1.47210274
1.467203914
1.463651145
1.460725435
1.456252691
1.450945358
1.446669436
1.580984709
1.57433584
1.568875038
1.563782641
1.557936802
1.552566477
1.54852371
1.542070345
1.538205096
1.538163978
1.535908315
1.530176728
1.525301867
1.52121983
1.516609266
1.511999446
1.50830852
1.503546053
1.497544098
1.491751059
1.488930315
1.487121651
1.484084465
1.479933285
1.47643996
1.472211823
1.467470614
1.46449872
1.461202067
1.456273097
1.451176714
1.44782931
1.582309328
1.575308787
1.5700294
1.565286038
1.558468384
1.552463606
1.54849202
1.542496139
1.539946787
1.539446527
1.536357842
1.530163825
1.525314491
1.521647321
1.517835781
1.513299591
1.508512424
1.503583128
1.497404145
1.492076735
1.49032614
1.488864212
1.484832358
1.479997162
1.476438303
1.472422441
1.468136083
1.465324978
1.461321115
1.45627118
1.45186473
1.448906487
1.583343756
1.57631999
1.571279597
1.56607539
1.558758166
1.552354608
1.548697959
1.543799389
1.541879622
1.540397909
1.536519713
1.529968591
1.525482177
1.522560436
1.519200808
1.513790484
1.508551965
1.503704257
1.497537864
1.492957501
1.491998535
1.489724134
1.484988481
1.479978389
1.476575459
1.472886516
1.469168893
1.46584138
1.46131334
1.456354403
1.452939726
1.449631755
1.584286114
1.577505937
1.572358364
1.566541486
1.558871186
1.552323809
1.549260664
1.546116777
1.543441447
1.540734992
1.53650597
1.530033783
1.526094255
1.523893672
1.520192741
1.513886347
1.508516372
1.503925923
1.497997627
1.494595581
1.492977106
1.489876355
1.484998433
1.480089743
1.476869533
1.473840435
1.47014174
1.465913548
1.4612698
1.456794425
1.45399952
1.449963803
1.585300269
1.578775032
1.573388863
1.566975708
1.558941102
1.552472389
1.550574804
1.548315056
1.544232552
1.540845279
1.536494496
1.530344052
1.527297815
1.525249956
1.520638493
1.51391078
1.508642645
1.5042515
1.499382353
1.496122416
1.49323037
1.48989775
1.484940057
1.480322695
1.47766201
1.475140584
1.470548674
1.465825233
1.461268978
1.4576067
1.454812486
1.450087163
1.586427357
1.579917734
1.574073365
1.567404722
1.559230574
1.552960644
1.552237593
1.549665503
1.544413778
1.540675773
1.536701915
1.531133638
1.528765622
1.526168709
1.520805936
1.513989853
1.508793719
1.50494769
1.501141064
1.496756239
1.493326089
1.489950268
1.485077064
1.480765677
1.479009937
1.476137068
1.470632695
1.465771929
1.461476216
1.45855514
1.45533549
1.450122937
1.58779019
1.581184198
1.574845251
1.568001003
1.559716729
1.554677499
1.553835564
1.550060166
1.543958789
1.540306948
1.537083321
1.533052996
1.530395311
1.526530642
1.520848166
1.514180408
1.509439501
1.506256367
1.502081505
1.496975174
1.493509927
1.490171068
1.485482506
1.482084255
1.480268428
1.476452173
1.470720071
1.465941012
1.462437223
1.459353152
1.455459388
1.45014986
1.591611614
1.584030582
1.577059085
1.570965994
1.563928218
1.55825581
1.55545411
1.551107525
1.545504874
1.543053893
1.540397716
1.535490882
1.530796658
1.526905992
1.521758565
1.515490358
1.511394549
1.507929897
1.503106519
1.498224458
1.495396091
1.492667575
1.488606195
1.484263694
1.481284729
1.477347769
1.471959576
1.46791724
1.464410217
1.460295838
1.456437474
1.452123695
1.596462098
1.589549419
1.582510012
1.576277785
1.569611912
1.563213301
1.559378113
1.555759579
1.550122631
1.546389
1.543419255
1.537948968
1.532697419
1.529052366
1.524096739
1.517513833
1.513207199
1.509585487
1.505083814
1.501130887
1.498805036
1.496181763
1.491914532
1.487025825
1.483745218
1.479980351
1.47455876
1.470345442
1.466705905
1.46263674
1.459446146
1.455556966
1.600473533
1.594714912
1.588871907
1.582643916
1.57693388
1.570289297
1.565725297
1.561754986
1.555352054
1.550304108
1.547400071
1.542256173
1.536688598
1.532533043
1.527122024
1.519927253
1.515532999
1.512262768
1.508065221
1.504462622
1.502109596
1.499310325
1.494887839
1.490005933
1.486573823
1.482721116
1.477195898
1.47290299
1.469533027
1.46537916
1.461928891
1.458097084
1.603832203
1.599343792
1.595188914
1.589399202
1.584349598
1.57796819
1.571865043
1.567774404
1.561825637
1.556111009
1.552682447
1.54739789
1.541272665
1.536360134
1.530688423
1.523198718
1.518653588
1.515541456
1.511241908
1.507657636
1.505200661
1.502220795
1.497788038
1.492935158
1.489263328
1.485270601
1.479647078
1.47531058
1.472044792
1.467824502
1.464338892
1.460740146
1.607335898
1.603666116
1.600531935
1.595090726
1.589643547
1.583912036
1.577523956
1.573802973
1.569011439
1.56287108
1.558804766
1.553285843
1.546549962
1.54115648
1.535465302
1.528033134
1.523084032
1.519694013
1.514940936
1.511049684
1.508474557
1.505420103
1.501163982
1.496345272
1.492246576
1.487871071
1.48193562
1.477364563
1.474138808
1.469959735
1.466585732
1.463186488
1.610774544
1.605425099
1.601919972
1.596976476
1.59310726
1.588813963
1.582872726
1.579500186
1.575464999
1.569164549
1.563617666
1.557916132
1.551899694
1.546745459
1.541202465
1.534318029
1.528643469
1.524374218
1.519227911
1.51497522
1.512276797
1.509123437
1.504783454
1.499832333
1.495300033
1.49050698
1.48428948
1.479487314
1.47631979
1.472416809
1.468977288
1.465318226
1.617318182
1.608932873
1.604542621
1.600574117
1.59721325
1.59356075
1.587903513
1.584601422
1.579947192
1.573421733
1.568020797
1.562941171
1.557522272
1.552760803
1.54754412
1.541036987
1.534868293
1.529847644
1.524488905
1.520140143
1.517174099
1.513612539
1.508897223
1.503699544
1.498780211
1.493604338
1.487230315
1.482353727
1.479195743
1.475415252
1.471868176
1.467670135
1.627266955
1.617439526
1.612090509
1.607385258
1.603051692
1.59898639
1.593201452
1.587279364
1.583436731
1.577497409
1.572333039
1.567630689
1.562921872
1.558401853
1.553275096
1.546929436
1.540929174
1.535843117
1.530490155
1.52610086
1.522675724
1.518563984
1.513441239
1.508155973
1.503111662
1.497708967
1.491121514
1.485962269
1.482567743
1.478599489
1.474957724
1.470244563
1.653932282
1.638419628
1.628509117
1.619856079
1.612059553
1.606088419
1.599031582
1.591882201
1.587393989
1.582376659
1.576769006
1.572057722
1.566610736
1.561585445
1.556494022
1.55140641
1.546657644
1.541995355
1.536562524
1.531906191
1.527736502
1.523347748
1.518229481
1.513160133
1.508350584
1.50307579
1.496101291
1.490565679
1.486743326
1.482426441
1.478741542
1.473602413
1.694321391
1.668444611
1.649802899
1.635890694
1.624956553
1.617477864
1.609779477
1.60173075
1.595680182
1.589699926
1.582972599
1.576490268
1.570591047
1.565362698
1.560767959
1.556259739
1.551957936
1.547348687
1.54194072
1.536459832
1.531762154
1.52777061
1.523314869
1.518709936
1.514104747
1.508964377
1.501640036
1.49531492
1.491195528
1.486590328
1.482893322
1.47750456
1.753431983
1.722386383
1.695644187
1.674234631
1.657485991
1.644067301
1.633641582
1.622242291
1.611644615
1.602305491
1.592381784
1.582815639
1.575573719
1.570418729
1.565951242
1.562335427
1.557988189
1.552219645
1.546410442
1.540961378
1.536220638
1.532177757
1.528103384
1.523588917
1.518947465
1.514101088
1.507131738
1.500175719
1.495940613
1.49139919
1.487644952
1.481999687
1.800394901
1.776049888
1.750706991
1.725803258
1.703321915
1.683389555
1.665083928
1.647778778
1.631606583
1.618400363
1.606316913
1.595692213
1.587341027
1.580528256
1.574596527
1.569648126
1.564019754
1.558193835
1.551839736
1.546250985
1.540967554
1.537051941
1.533344697
1.528316424
1.523139562
1.518328939
1.51220844
1.505407487
1.500930676
1.496297663
1.492485881
1.486775122
1.829858533
1.814663794
1.797957966
1.77928004
1.75944383
1.737930887
1.715400473
1.692800194
1.671686295
1.653002494
1.636156158
1.62107995
1.608870112
1.597530163
1.587782303
1.579341867
1.572376651
1.565819996
1.559571842
1.553810826
1.547779327
1.5415176
1.536543883
1.53178701
1.527097101
1.522425816
1.51721482
1.510893014
1.505966211
1.501094171
1.497149661
1.491661223
1.839120407
1.835745746
1.82929969
1.819823273
1.806536046
1.789809681
1.769108831
1.745949706
1.721846698
1.69796819
1.675423134
1.654967293
1.637002569
1.620973208
1.607782878
1.596528372
1.586375578
1.577935139
1.570827188
1.563200935
1.555303213
1.547537141
1.54093954
1.535468266
1.530794119
1.5266999
1.521709389
1.51575956
1.510704498
1.505608893
1.50158577
1.496481609
1.837276709
1.839067422
1.83726612
1.832849568
1.826096536
1.816291795
1.803596833
1.788668622
1.771529194
1.75062168
1.728025743
1.705243344
1.682717903
1.662165997
1.644270671
1.627947733
1.612741118
1.599521794
1.587640241
1.575987568
1.565554645
1.556266228
1.548240877
1.541120713
1.535481252
1.530816932
1.526006414
1.520429831
1.515541853
1.510544256
1.506351825
1.500940002
1.825238986
1.832207383
1.832080429
1.830546838
1.826055657
1.820816313
1.81456321
1.807058936
1.79683954
1.783950272
1.769378067
1.752482711
1.73254981
1.710966948
1.688589749
1.666786684
1.646946002
1.62875405
1.611945089
1.597369182
1.583522075
1.570919412
1.560598894
1.551048512
1.542907953
1.536983269
1.531602333
1.526654664
1.521547498
1.51628978
1.511430575
1.505740161
1.787842257
1.805194189
1.812668468
1.818581832
1.818891526
1.818659802
1.815856715
1.812487845
1.807170399
1.799542984
1.790458149
1.779681407
1.767394647
1.752323649
1.734030517
1.713640045
1.692276529
1.671170369
1.650558409
1.6311986
1.612627204
1.59505183
1.579948214
1.566948492
1.556075129
1.547580664
1.540853245
1.535773089
1.530397595
1.524536432
1.518073807
1.510184791
1.736911866
1.763652979
1.78222324
1.793918585
1.800328448
1.805853933
1.806958907
1.807337036
1.806073411
1.803435029
1.800152801
1.795115178
1.786959722
1.776339187
1.763892571
1.750247533
1.734242007
1.714585357
1.692711034
1.670174825
1.648116112
1.627372863
1.608303458
1.591440984
1.577512793
1.566057311
1.555978142
1.54857407
1.542137263
1.534320172
1.526967629
1.516573446
1.675850258
1.705265053
1.728647275
1.745006978
1.758159046
1.77178576
1.782447305
1.792644626
1.798349546
1.800782404
1.799313922
1.796236617
1.791784557
1.788073349
1.782283335
1.7739229
1.762884868
1.749071057
1.732189569
1.712498181
1.690808923
1.668965431
1.647851214
1.627896363
1.609710964
1.593793285
1.57947828
1.566851089
1.556631453
1.546963916
1.538263595
1.525525584
1.621389111
1.648085713
1.670571827
1.688478113
1.706630791
1.726008179
1.746736146
1.765371921
1.777735073
1.786142074
1.788381391
1.790076215
1.789012008
1.788071081
1.785630704
1.780310835
1.772913686
1.763427849
1.752824227
1.740665214
1.726293984
1.709325327
1.690549459
1.670187822
1.649727109
1.630665834
1.61282025
1.596070548
1.581269009
1.567714136
1.556525126
1.539056713
1.580188056
1.599602954
1.615519701
1.629776317
1.646657285
1.668160222
1.693600197
1.718563845
1.738873022
1.754087913
1.763488605
1.773106767
1.77801463
1.782000394
1.780901834
1.777586349
1.772098206
1.765221552
1.758748773
1.751897946
1.743201623
1.733575624
1.722505938
1.70901178
1.692813818
1.673994608
1.654335663
1.635153842
1.616840962
1.598773013
1.583770752
1.560134433
1.550939069
1.562233826
1.570842404
1.579741681
1.593258699
1.613386986
1.639754144
1.66693767
1.691366669
1.710399881
1.72616108
1.739671502
1.750644293
1.759960442
1.763399904
1.764854065
1.76398934
1.761641867
1.758519875
1.754786596
1.749983642
1.744872797
1.738591429
1.731355118
1.721996964
1.709339414
1.693370814
1.67524149
1.656092925
1.635996731
1.618260028
1.58997231
1.528688689
1.533504561
1.536621509
1.541407847
1.55165694
1.569044383
1.592663209
1.616646843
1.638285259
1.6564733
1.673209515
1.689301626
1.705838015
1.720771789
1.732507062
1.741079644
1.745997399
1.749316505
1.750383264
1.749674495
1.748305785
1.746923759
1.745548914
1.743797214
1.739486419
1.731977494
1.722443052
1.71034245
1.694781874
1.675920355
1.657637573
1.626963144
1.510331088
1.5108507
1.51128733
1.514197059
1.523415627
1.538657621
1.557691938
1.575261906
1.590697517
1.604242836
1.618806792
1.634957561
1.652994115
1.671206285
1.687363624
1.699939137
1.710614045
1.720549039
1.727945457
1.735140715
1.740046584
1.744146172
1.744123143
1.744638279
1.744024394
1.74235733
1.738006787
1.73050748
1.720528796
1.707505552
1.693613742
1.666488673
1.493817628
1.492725307
1.492780595
1.496655875
1.50688217
1.519976949
1.533418842
1.543648391
1.551720302
1.559466514
1.56978001
1.583173205
1.599981349
1.617801871
1.634541746
1.649199811
1.663789863
1.678547991
1.693775546
1.708899876
1.719899139
1.72954121
1.734228756
1.739238201
1.741297259
1.74208904
1.740892697
1.736644733
1.729800852
1.721262155
1.712924849
1.695949364
1.478959308
1.477772391
1.479705686
1.487084313
1.497490504
1.507551855
1.515252285
1.518893934
1.52141578
1.524660358
1.531315704
1.541929869
1.555872922
1.570524735
1.584709243
1.598132349
1.612653576
1.629308131
1.648014686
1.667163655
1.684329203
1.699722735
1.711335411
1.723371419
1.731102626
1.737129525
1.737293944
1.73521779
1.730899926
1.725640985
1.7211944
1.711974532
1.465544342
1.46648048
1.472960066
1.482141325
1.489837024
1.496466809
1.49867661
1.498074393
1.497930156
1.499087329
1.504011224
1.512663596
1.523215996
1.533205552
1.542821701
1.552609133
1.564547752
1.579853477
1.598725631
1.619661975
1.640129623
1.659197334
1.676732147
1.693322461
1.707428843
1.718766227
1.724893295
1.7266075
1.726305148
1.724261346
1.722286924
1.71873031
1.455474623
1.460744253
1.471052164
1.476820327
1.481186539
1.483673195
1.48265471
1.47983117
1.479536006
1.48107707
1.486036116
1.493337481
1.500377189
1.505710475
1.510845191
1.516929108
1.525716128
1.538121521
1.55451974
1.573335391
1.59222001
1.610833936
1.629184929
1.647537805
1.666374377
1.683724413
1.697698164
1.707830938
1.714354578
1.716152641
1.717415059
1.716919202
1.451222531
1.460521982
1.468774381
1.469182102
1.470458187
1.470009939
1.466835396
1.464393878
1.4656413
1.469011543
1.474328534
1.4801814
1.483713628
1.4854189
1.487484026
1.491049653
1.497454
1.506974942
1.519713846
1.534199792
1.54886204
1.563715991
1.579840567
1.597467164
1.617751345
1.638928759
1.658670857
1.674851749
1.688082277
1.696826235
1.702184431
1.708341787
1.451571692
1.460623204
1.461421919
1.459802332
1.458755441
1.455858609
1.452302206
1.452528568
1.456607155
1.460903324
1.465873991
1.469567188
1.46993844
1.469857093
1.47061531
1.473252537
)
;

boundaryField
{
    inlet
    {
        type            fixedValue;
        value           nonuniform 0();
    }
    outlet
    {
        type            inletOutlet;
        inletValue      uniform 1;
        value           nonuniform List<scalar> 
68
(
1.452176905
1.455595856
1.458128873
1.460776402
1.463223586
1.465351187
1.467698449
1.470268134
1.473623256
1.47752755
1.482025202
1.4868042
1.491691772
1.496514176
1.500965604
1.505771828
1.510194968
1.516556999
1.525503003
1.539016699
1.560077548
1.589910315
1.626911295
1.666454626
1.695924164
1.711998265
1.718765291
1.71695612
1.708388094
1.432777519
1.433326491
1.434050078
1.43476934
1.435289149
1.435490054
1.435489058
1.435436367
1.435415792
1.435436671
1.435642665
1.436181273
1.437075407
1.438320632
1.43977433
1.440977813
1.441610535
1.441884687
1.442027307
1.442141239
1.442262621
1.442441482
1.442729454
1.443174585
1.443789331
1.444379565
1.444647713
1.444754377
1.444872449
1.445157693
1.445794698
1.446812761
1.447986392
1.44902637
1.449678687
1.449952958
1.450049793
1.450075778
1.450105054
)
;
    }
    bottom
    {
        type            slip;
    }
    top
    {
        type            slip;
    }
    obstacle
    {
        type            zeroGradient;
    }
    defaultFaces
    {
        type            empty;
    }
    procBoundary29to23
    {
        type            processor;
        value           nonuniform List<scalar> 
34
(
1.565362987
1.560169323
1.558567395
1.555737641
1.548821842
1.541861999
1.537635625
1.533738601
1.528353221
1.523398928
1.519753026
1.514238481
1.509087379
1.507091329
1.505047446
1.501499217
1.497505529
1.493539776
1.489030613
1.483692279
1.477592847
1.472908067
1.470608239
1.467512331
1.463753102
1.459678643
1.456573842
1.45386009
1.451057817
1.447932947
1.445331132
1.442101822
1.437909579
1.432533476
)
;
    }
    procBoundary29to28
    {
        type            processor;
        value           nonuniform List<scalar> 
70
(
1.571143986
1.572444377
1.573643635
1.574431827
1.574855634
1.575093041
1.575309928
1.573020872
1.573020872
1.573740696
1.574739967
1.575781181
1.576479191
1.576896714
1.577261276
1.577673428
1.578188438
1.578870588
1.579768052
1.580829626
1.58193177
1.582574457
1.58303903
1.583558221
1.578954871
1.578954871
1.580047318
1.58142031
1.582324496
1.582893332
1.583512466
1.584211749
1.58499421
1.585916882
1.587087243
1.588590953
1.589917248
1.590822444
1.591712973
1.592665687
1.593887901
1.598097853
1.603910549
1.607687897
1.609658718
1.611909589
1.615933023
1.625763453
1.639450243
1.675325304
1.726537668
1.784784204
1.820700464
1.841660033
1.842052908
1.834337556
1.814322314
1.767101985
1.708420392
1.646314184
1.594817013
1.558642781
1.535696866
1.519457356
1.505583221
1.492571076
1.479557364
1.466618748
1.454359999
1.446068382
)
;
    }
    procBoundary29to34
    {
        type            processor;