/*--------------------------------*- C++ -*----------------------------------*\
  =========                 |
  \\      /  F ield         | OpenFOAM: The Open Source CFD Toolbox
   \\    /   O peration     | Website:  https://openfoam.org
    \\  /    A nd           | Version:  7
     \\/     M anipulation  |
\*---------------------------------------------------------------------------*/
FoamFile
{
    version     2.0;
    format      ascii;
    class       volScalarField;
    location    "1.9";
    object      p;
}
// * * * * * * * * * * * * * * * * * * * * * * * * * * * * * * * * * * * * * //

dimensions      [1 -1 -2 0 0 0 0];

internalField   nonuniform List<scalar> 
2222
(
0.9849903947
0.9623396396
0.9486578983
0.9476678387
0.9570387239
0.9530428762
0.9535504607
0.9627458682
0.9686692696
0.9712283977
0.9705438426
0.9699491551
0.9725310479
0.9775117115
0.9802037939
0.980374566
0.9782364029
0.9774956197
0.4674936968
0.7087606917
0.9092023489
0.965186725
0.9683577865
0.9620982581
0.9451176303
0.9373601586
0.9493829082
0.9546186639
0.9488987023
0.9573362987
0.9635753102
0.9641783894
0.9662899342
0.9685898019
0.9710381581
0.9753206414
0.9779395272
0.9789392826
0.9780484089
0.9765327831
0.9775019839
0.4328824631
0.5613436286
0.8278372849
0.9785703037
0.9595553913
0.9477818506
0.937929504
0.941166779
0.9528366038
0.9483430609
0.9515446964
0.95952579
0.9589498371
0.9568664112
0.9625540061
0.973253187
0.9761083185
0.9762874015
0.9755879467
0.975098219
0.9757991306
0.9787356816
0.98097145
0.3962526889
0.4810276053
0.7231038232
0.9700759251
0.9730072623
0.9561041624
0.9504861761
0.9526138579
0.9555516464
0.9480087627
0.9535045736
0.9569673039
0.955080392
0.9569682663
0.966175995
0.9734695744
0.9749141044
0.9748965412
0.9739157341
0.9743389942
0.9769759815
0.9800153807
0.980844173
0.3668142123
0.4204787278
0.6205877232
0.9310688289
0.9869451252
0.9817342801
0.9740443977
0.971974535
0.96393562
0.9561765734
0.9583010604
0.9566628899
0.9570316817
0.9621442622
0.9670239342
0.9710249409
0.9715802294
0.9727732347
0.9748239066
0.9765284466
0.9779125373
0.9791805854
0.9795501642
0.329174186
0.355467055
0.5018699819
0.7790030909
0.9741548078
0.9975756466
0.991368247
0.9810403027
0.9668203247
0.9623691852
0.9587204695
0.9557435641
0.9611376547
0.9644704295
0.966608745
0.9689410597
0.9696251877
0.9714174723
0.9748022888
0.9775245806
0.9787528273
0.9785545606
0.9786986162
0.9783126962
0.2970778722
0.3109438119
0.3731077544
0.6229077585
0.8956990763
0.9951655417
0.9903023394
0.9764513968
0.9605025286
0.9614214485
0.9541671783
0.9539733839
0.9613135291
0.9621905085
0.9621397164
0.9648031489
0.9689880745
0.9724326027
0.9752261452
0.9766702463
0.9775336282
0.9775498112
0.9783150758
0.9786411329
0.2844692127
0.2829720913
0.2926756813
0.4707364397
0.7500399946
0.9664385606
0.9748972898
0.9604851485
0.9542237672
0.9588886623
0.9474311583
0.9541821956
0.960099248
0.9554118734
0.9568258445
0.9624905594
0.9700163227
0.9739562251
0.9755992128
0.975760843
0.9758641339
0.9762020744
0.9787827042
0.9797673723
0.2839842754
0.2804268616
0.2769697146
0.3218618326
0.640928699
0.8815030198
0.944438091
0.9472435331
0.9593184387
0.9505745443
0.9472823878
0.9570004789
0.9552191428
0.9525966944
0.9560367169
0.9643631426
0.9708149514
0.9741848411
0.975014905
0.9739648721
0.9751052114
0.9766797725
0.9794489608
0.9804255418
0.2832266909
0.280024385
0.2799578034
0.2798939997
0.487308962
0.8131650625
0.9240862016
0.9482496792
0.9634273814
0.9501299097
0.9550969944
0.9602208786
0.952792958
0.9546514365
0.959897464
0.9667868063
0.9714473123
0.9718391624
0.9726264332
0.9737683034
0.9757714137
0.9778652564
0.9800386968
0.9804770327
0.2820394447
0.279030769
0.2818509452
0.2769183748
0.3238316921
0.7123006018
0.9184291315
0.9598842112
0.9685421234
0.955835049
0.965652502
0.9577031421
0.9566441674
0.9615719676
0.9638115198
0.9680011306
0.9684624225
0.9689802415
0.9716010382
0.9745711782
0.9772672485
0.9788775579
0.9792638855
0.9788934717
0.2817910531
0.2790803426
0.2804074654
0.2797751888
0.2791898873
0.4821286772
0.8674362654
0.9600709862
0.9606859642
0.9700670383
0.9722891729
0.9585502386
0.96240699
0.9664868848
0.9655520389
0.96319498
0.9646895852
0.9681425411
0.9722444066
0.9755141238
0.9770954108
0.9774084151
0.9778752048
0.9780862405
0.9780535696
0.2817005628
0.2792605618
0.2806841672
0.2811422069
0.2755375428
0.3312011213
0.6862019339
0.9382246888
0.9492977287
0.9775009322
0.9651250864
0.9587865979
0.9656193602
0.9656460521
0.95906933
0.9576007137
0.9615529043
0.9679728261
0.9727373681
0.975225138
0.9757541611
0.9761561391
0.9773301208
0.9782756572
0.9786778527
0.2816634468
0.2799388745
0.281451788
0.2822774373
0.2777805708
0.2818682355
0.5015758621
0.8392621074
0.9455464116
0.980827802
0.9559609078
0.9575114614
0.9655238008
0.9571399349
0.9519324811
0.9551367446
0.9607610876
0.9674307513
0.9718986534
0.9741848649
0.9746890916
0.9753834515
0.9773217324
0.9787879337
0.9789441447
0.2819668497
0.2832089853
0.2831879958
0.2826432148
0.2813177069
0.2780008158
0.3669408393
0.7356603069
0.9585216933
0.9663059367
0.9535868708
0.9644843978
0.9617752619
0.9508773314
0.9519259167
0.9577139643
0.9626532105
0.9672918855
0.9704558714
0.972358394
0.9739776751
0.9751725357
0.9777361607
0.9791576865
0.9789628108
0.2831600711
0.2847913591
0.2835005255
0.2832405444
0.2828870709
0.2784689631
0.2904694606
0.5915635676
0.9114518567
0.9374621119
0.9587038565
0.9682614988
0.9522532652
0.9540162405
0.9584220491
0.9637328764
0.9659690148
0.9666440493
0.9681591186
0.9709043574
0.9740771146
0.9756828853
0.9781790336
0.9792915798
0.9784945415
0.284894749
0.2846245479
0.2823270808
0.2835382188
0.2832948289
0.2789588283
0.2798284748
0.3879261682
0.7485206778
0.9209010326
0.9689290261
0.9603825197
0.9514369727
0.9620604094
0.9688239032
0.9678161393
0.9661255319
0.9637831288
0.967126942
0.9713772631
0.9750438824
0.9760581698
0.9772573759
0.9780037181
0.9773679121
0.2867084001
0.2839669414
0.2812131949
0.2827736029
0.2830717049
0.2817734018
0.2797406972
0.3035126619
0.6082093438
0.9201999969
0.9707859727
0.9472012347
0.9582125764
0.9776269684
0.974483665
0.9651833172
0.9607512434
0.9629382852
0.9678195292
0.9722041748
0.9748423111
0.9740576038
0.9750702629
0.9767861854
0.9775069121
0.2876999459
0.2834619165
0.2805164103
0.2822493195
0.2824074565
0.2830294582
0.280274773
0.2848248854
0.4698366929
0.8510823628
0.9561799809
0.9466795355
0.9769981427
0.9829788165
0.9686650528
0.957034058
0.9574418525
0.9616349009
0.9668607088
0.9704370163
0.9713798135
0.9724849764
0.9753946423
0.9777376711
0.9785076435
0.9789518654
0.287939187
0.2831441047
0.2804721233
0.2817104368
0.2820463151
0.2831810264
0.2827352774
0.2815979386
0.3284128387
0.6772294667
0.9059100189
0.9548785564
0.9792850879
0.9765566656
0.955614836
0.9508804366
0.9551971569
0.9614605742
0.9642295243
0.9660040003
0.9694518019
0.9724063858
0.9760090529
0.9781426496
0.9786963788
0.9786308668
0.2878638271
0.2829601171
0.2826301072
0.2826229019
0.2831778367
0.2833240555
0.2836910411
0.2818664085
0.2878141753
0.5223086641
0.8622091629
0.9627082786
0.9752300152
0.9550729958
0.9521004226
0.9552127953
0.9609128482
0.9631893392
0.9610670928
0.9645397662
0.969428865
0.9747016208
0.9768968679
0.9782290387
0.9782873706
0.9775302295
0.2868323128
0.2831021797
0.2851535029
0.2829226807
0.2834423857
0.2833269437
0.2835111795
0.2823762502
0.2807558011
0.3801125852
0.7858006242
0.9536420263
0.9583814507
0.9480491485
0.9563461929
0.9669686425
0.9658565054
0.9615641827
0.9606825704
0.9651707414
0.9728379779
0.9754941536
0.9765819716
0.9772325018
0.9770772657
0.9766075129
0.2868637582
0.283396257
0.2863500697
0.2829854594
0.2833522808
0.2831435585
0.2832935305
0.2824630872
0.2798884805
0.2954710271
0.585907379
0.8780398071
0.9305172532
0.9504194365
0.973898652
0.9746939488
0.9675478172
0.9598773135
0.9611258145
0.9684078421
0.9731289863
0.9749403289
0.974556023
0.9758676416
0.9764498003
0.9761793262
0.2872948115
0.2842767986
0.2869797021
0.2832045414
0.2832911926
0.2830562453
0.2832328973
0.2829866597
0.2802023229
0.2817735659
0.4105502686
0.7565469119
0.9172193792
0.9708000873
0.9823040364
0.9747741165
0.9601963659
0.9591265054
0.9650997692
0.9692204888
0.971231619
0.9712854725
0.9726629538
0.9745868804
0.9758953185
0.9765902157
0.28804309
0.2858181757
0.2874425243
0.2835608176
0.2832846562
0.2830992955
0.283380599
0.2837254101
0.2820611729
0.2804548629
0.3190554014
0.6659321955
0.9308297262
0.9791440282
0.9822164776
0.9613648748
0.95702192
0.9615998003
0.967274016
0.9663176989
0.9658383983
0.9681479886
0.9714886009
0.9746475795
0.9769113729
0.9775603775
0.9786366039
0.2887382268
0.2870449584
0.2878326563
0.2839977178
0.2833064167
0.2831846711
0.2837062419
0.2851581685
0.2831073653
0.2808925229
0.2859139088
0.5104177415
0.884236652
0.9722806344
0.9650502585
0.9547594812
0.956763781
0.9679224449
0.9648996447
0.9613095958
0.9627035596
0.9668613311
0.9729202529
0.9757664249
0.977302888
0.9776801207
0.9783438171
0.2889203122
0.2878422963
0.287734262
0.2844263529
0.2833517721
0.2832633932
0.2843635905
0.2863068004
0.2841223187
0.2818518339
0.2820362082
0.3401223846
0.7151924471
0.9291638516
0.9396781698
0.9540827923
0.9673335076
0.9681711858
0.9598318817
0.9581820852
0.9616839094
0.9697454262
0.9745589194
0.9759122486
0.9770976709
0.9772917393
0.9776962682
0.288983872
0.2884717461
0.2869758719
0.2848904814
0.283424254
0.2833369409
0.2846113503
0.2864213817
0.2846443738
0.2824422531
0.2820971002
0.2891425615
0.5246491051
0.8316557193
0.9342365539
0.9702840828
0.974868378
0.9655146884
0.956805975
0.958238083
0.9676978893
0.9730785137
0.9748323619
0.9749140375
0.9756952658
0.9760277685
0.9765334842
0.2895572141
0.2879491426
0.287017892
0.2855313182
0.2836224091
0.2835521173
0.2846494369
0.2862073413
0.284556518
0.2825106996
0.2828633883
0.283093898
0.3883564717
0.7547290249
0.9482311129
0.9785808271
0.9746930678
0.9579170208
0.9578173669
0.9657711554
0.9721520439
0.9727097205
0.9723147186
0.9728039013
0.9739490501
0.9748902663
0.9758734945
0.2902101916
0.2861359848
0.2873991018
0.2866541593
0.2840009683
0.2844408449
0.2846030329
0.285424398
0.2846370826
0.2824565762
0.2834027598
0.2832071631
0.30122684
0.630367918
0.9292417037
0.9759220363
0.9611069269
0.9558775291
0.9631460015
0.97144639
0.9711588796
0.9691667981
0.9690403312
0.9709310135
0.9733596527
0.9748726858
0.9760694859
0.2904745192
0.2854901624
0.288059003
0.2877043782
0.2851313723
0.2847397975
0.2844913301
0.2847996662
0.2844485138
0.2826638975
0.2835256386
0.2834209749
0.2842478443
0.4336746712
0.8340035538
0.9568469445
0.9430832398
0.9588387861
0.9731031377
0.9717526615
0.9654148708
0.9648019754
0.9665337441
0.9708212324
0.9739812987
0.9754820851
0.9763828445
0.2903687025
0.2856475121
0.2886611051
0.2881749136
0.2862311443
0.2847672185
0.2841569242
0.2845106242
0.2849975032
0.2827053972
0.2837189788
0.2843225238
0.2835210733
0.3181064292
0.6510075823
0.8913963486
0.9417263855
0.9736962374
0.9752312796
0.9648947872
0.9589002842
0.9614081077
0.9672351249
0.9718580324
0.9742126215
0.9751858306
0.9757459919
0.9776629965
0.2902102789
0.2857529429
0.2889298832
0.2882859469
0.2866960976
0.284596552
0.2839571859
0.2844571004
0.2863353356
0.2835613747
0.2840886912
0.2844742986
0.2838005532
0.2861905805
0.504571584
0.833347467
0.9581084778
0.9776004479
0.97070321
0.9556630765
0.9564218274
0.9630666048
0.9700875859
0.9718373963
0.9732342149
0.9743831309
0.9748257142
0.9768585312
0.2895497456
0.2859333898
0.2888665298
0.2879126863
0.2866670827
0.284588566
0.2840085771
0.2846315564
0.2876542903
0.2846504358
0.2844662534
0.2842253613
0.2840813479
0.2833171203
0.3543975347
0.7582384787
0.9536728008
0.9735335574
0.9530690526
0.9531602076
0.9620265303
0.9698902185
0.9712261026
0.9719351916
0.9724341956
0.9736772293
0.9741048548
0.9761406229
0.2890515219
0.2880320541
0.2880980893
0.2875905906
0.2865319823
0.2846491621
0.2841577397
0.2848477222
0.2881359322
0.2856663659
0.2847127464
0.2840792394
0.2842451895
0.2834997038
0.2917776227
0.5684432296
0.9075816432
0.9556327935
0.9449684242
0.9578478858
0.9723428836
0.9724447972
0.9705554188
0.9694565099
0.971416141
0.9729855529
0.9737252035
0.9760469916
0.2889782156
0.2905305159
0.2868702269
0.2871827633
0.2864559563
0.2848510186
0.2847374167
0.285019477
0.2880238753
0.2862014312
0.2847890805
0.2843441576
0.2841471483
0.2843490643
0.2837775093
0.3934630624
0.7583053364
0.9175340672
0.9485913897
0.9708069268
0.9759891694
0.9700567313
0.9659147128
0.9675135407
0.9701680603
0.9728387878
0.9742836681
0.9767624999
0.2892556755
0.2909275605
0.2861235432
0.2868781198
0.2865117107
0.2854273659
0.2853888419
0.2852637338
0.2876679232
0.2861769968
0.2846243118
0.2843718489
0.2841644596
0.2846583983
0.2839807818
0.3092394619
0.6329034029
0.8915549923
0.9662069048
0.9767110224
0.9701376629
0.9618948689
0.9636691529
0.9679209372
0.9716383232
0.9731111361
0.9740179543
0.9758808851
0.2909757428
0.2906957567
0.2857594146
0.2874364258
0.2869590672
0.2860076228
0.285747276
0.2855154293
0.2873678106
0.2860936334
0.284464429
0.28465733
0.2842110393
0.2844840063
0.2840299811
0.2868907276
0.495426749
0.8756447319
0.9688767482
0.974800433
0.9556108704
0.9581968598
0.9649550284
0.9717251957
0.9725151028
0.9717358951
0.9721587149
0.9741849754
0.9756189814
0.2929149979
0.2892437281
0.2860013962
0.2877492137
0.2873321681
0.2862944355
0.2860135845
0.2855515517
0.2871541929
0.2860537367
0.2844736028
0.2846636005
0.2845979121
0.2842768915
0.2848607395
0.2848127771
0.338811563
0.7350315843
0.9515480276
0.9548464594
0.9493420637
0.960540673
0.9717110596
0.9721722926
0.9705461244
0.9699257967
0.970368894
0.973180973
0.9753083782
0.2935055968
0.2870845378
0.2874240919
0.2874430784
0.287470839
0.2864982516
0.2860382015
0.2846029819
0.2868567386
0.2863983752
0.2849132847
0.2852500553
0.2849425719
0.2841921265
0.2850706923
0.2847469687
0.2914758544
0.5262696204
0.8490565734
0.9330800885
0.9559984678
0.9709909556
0.9726407323
0.9706095265
0.9674181165
0.968882407
0.9704518501
0.9724454354
0.9748826968
0.2932839083
0.2866154604
0.2884323723
0.2870422909
0.2874272483
0.2865641744
0.2854991897
0.2838726304
0.2862067505
0.2870041706
0.285548213
0.2856433271
0.2850867303
0.2843410239
0.284834998
0.2853983967
0.2857069731
0.3979483308
0.7515051041
0.9247020093
0.9717168942
0.9736221566
0.9715268681
0.964234321
0.9654541991
0.9677705329
0.9698586141
0.9722442019
0.9746724323
0.2915818162
0.2865195942
0.2885300266
0.2864004655
0.2871872724
0.2860823821
0.2850644624
0.2840073945
0.2857010058
0.2874419627
0.2860227398
0.2857318394
0.2850524545
0.2842973034
0.2847276345
0.2857406005
0.2856018969
0.3092294793
0.6629879888
0.9351447148
0.9731234445
0.9749849167
0.9600673732
0.9619265883
0.9652938936
0.9692425717
0.9714855689
0.9739885196
0.9754146951
0.2888894542
0.2878401642
0.2883745576
0.2854797345
0.2863967951
0.2856034979
0.285197388
0.2844426359
0.285642152
0.2875942596
0.2862954144
0.2856299063
0.284874993
0.2842939424
0.2847592933
0.2858205454
0.2855133677
0.2875465874
0.4815751104
0.8766439197
0.9667751365
0.9578576964
0.9554648842
0.9628478558
0.9709485286
0.9737453275
0.9729067001
0.9734250853
0.9746473201
0.2880991636
0.291737245
0.288110621
0.2852170829
0.2858426829
0.2857119175
0.2858274372
0.2852958136
0.2861836016
0.2876873529
0.2863372233
0.2851525785
0.2848426776
0.2845118907
0.284787446
0.285566174
0.2860900145
0.2856074872
0.3361456707
0.6957581564
0.9146005752
0.9428778619
0.9591659842
0.9734208087
0.9756936142
0.9736691298
0.9716492319
0.9719066151
0.9730984537
0.2882599916
0.2931689268
0.2877717967
0.2852354284
0.285801689
0.2861591297
0.286571304
0.2860382011
0.286804139
0.2878224954
0.2863114753
0.2847737959
0.2847734256
0.2846991746
0.2848173726
0.2854471266
0.2861920698
0.2856795519
0.2921122582
0.5447345869
0.8473263648
0.9425797381
0.9741314993
0.9787859217
0.975055324
0.9712646616
0.9687167123
0.9677732048
0.9698491826
0.9734427562
0.2891838067
0.2936568239
0.2880436552
0.2861424949
0.2858302125
0.2863312483
0.2868901787
0.2864461202
0.2871855724
0.2879676716
0.2860950981
0.2845971229
0.2850338164
0.2849392359
0.2850376329
0.2854464003
0.286050155
0.2858322904
0.2861567726
0.4093213366
0.7999842622
0.958568564
0.9775670606
0.976844491
0.9677213025
0.9639541862
0.964058658
0.9653993965
0.9686207206
0.9717024974
0.2919469599
0.2936761898
0.2883503695
0.2869172143
0.2854117576
0.2861329064
0.2866677321
0.2858987249
0.2865285618
0.2876133747
0.285796365
0.2844746513
0.2853653201
0.2851064215
0.2851166862
0.2854417011
0.2859171754
0.28610533
0.2854793818
0.3072865066
0.6695108388
0.9428917984
0.9754980144
0.9618272534
0.957685094
0.962062521
0.9636550123
0.9655920257
0.9692597528
0.9715101188
0.2933721215
0.2919570139
0.2887652513
0.2869197857
0.2838866109
0.2847367221
0.286053613
0.2855180349
0.2853636206
0.2865970639
0.2854245844
0.2844748769
0.2856472727
0.2851011089
0.2850740404
0.2853121187
0.2857928433
0.2860625094
0.2854419631
0.2867434127
0.4674000019
0.8473180343
0.9516415105
0.9464529257
0.9570573985
0.9641566166
0.9678609649
0.970392719
0.9731517788
0.973449539
0.2935505498
0.2877497953
0.2892206919
0.2863924602
0.2827484951
0.2840482386
0.2858820922
0.2859340106
0.2851536199
0.2860177739
0.2852704438
0.2846207738
0.2856566656
0.2850247329
0.2849346242
0.2851872057
0.2856888528
0.2859914115
0.2854921946
0.2850434334
0.344548216
0.6975502957
0.9024374279
0.9470404923
0.967454626
0.9748285012
0.9746733711
0.9732628902
0.9734508779
0.9735197742
0.2932918643
0.2863274742
0.2897384812
0.2852448295
0.2820685904
0.2837021662
0.2858200376
0.2866833974
0.2854072679
0.2858873119
0.2854105085
0.2846511464
0.2855260447
0.2849688356
0.2849324449
0.28520938
0.2856188089
0.2857123091
0.2854932017
0.2850018
0.2927202868
0.5836808567
0.8720889838
0.9657545806
0.9809329658
0.9792224322
0.9743511208
0.9727891985
0.9720832819
0.972333327
0.2926481607
0.2861027442
0.2904746876
0.2843920536
0.2816519632
0.2837716434
0.2858383869
0.2869700505
0.2854129868
0.2859769666
0.2855621036
0.2846067663
0.2853537917
0.284934443
0.2850028167
0.2853943399
0.2855026524
0.2854414418
0.2854070197
0.2849393943
0.2853506733
0.421235142
0.8408214522
0.970404815
0.9805620922
0.9780178119
0.9701364328
0.96609522
0.9652784486
0.9674971651
0.2900304475
0.2876613928
0.2907973093
0.2839853739
0.2820272155
0.283697365
0.2855434957
0.2866195073
0.2853140518
0.285989617
0.2854574135
0.2846094824
0.2850188194
0.2849327244
0.285014565
0.285393543
0.2853177966
0.2851977687
0.2849477368
0.2847090203
0.2844917215
0.308954912
0.6789538958
0.9497631627
0.9757265301
0.9622413727
0.9578417393
0.9586595129
0.9607970692
0.9643156401
0.9693102887
0.2858426053
0.2929190559
0.2903527168
0.2856130401
0.283041697
0.2831959669
0.2849091135
0.2860773598
0.2853882194
0.2856465508
0.285203755
0.284504996
0.2844944468
0.2848898454
0.284957189
0.2852524662
0.2848098354
0.2846742355
0.2845580184
0.2845387928
0.2844620605
0.2864187232
0.4791945956
0.8313344907
0.940711478
0.9474291415
0.9538351137
0.9577548151
0.9610072147
0.9640239675
0.9685575004
0.284494553
0.295331997
0.2899267054
0.2880256012
0.2833204834
0.2824464773
0.2839675904
0.2858863754
0.2854345323
0.285242153
0.2851311798
0.2839656971
0.2843006748
0.2848697175
0.2848686622
0.2850193978
0.2845281955
0.2844163356
0.2843963698
0.2844624214
0.2845406483
0.2847351308
0.3591944194
0.7166709209
0.9087257643
0.9462444737
0.9598140099
0.9649788599
0.9686632288
0.9689420219
0.9708272089
0.2852883892
0.2958477746
0.289576968
0.2883018157
0.2827725666
0.2817367321
0.2829743938
0.2858224695
0.2853272543
0.2848801996
0.2845008593
0.2835687698
0.2843669181
0.2846296239
0.2845777453
0.2846210173
0.2844605848
0.2843941715
0.2844168002
0.2844555182
0.284543736
0.2845683891
0.2943709679
0.619453433
0.9002045359
0.9667698334
0.9762493592
0.9761048766
0.9752205288
0.9732548317
0.9738529393
0.2886142538
0.2956901212
0.2888833674
0.2880363373
0.2821698348
0.2812675094
0.2822396767
0.2855900172
0.2852049085
0.2847199948
0.2841178278
0.2835276555
0.2844217929
0.2845829708
0.2844423802
0.2843280373
0.2845824477
0.28443638
0.2844109927
0.2843673308
0.2844157803
0.2842542724
0.2849031181
0.4371274826
0.8602335413
0.97460928
0.9794435964
0.9768101533
0.9739106563
0.9724310952
0.9729444273
0.2899803426
0.2948824873
0.2885780268
0.288161956
0.2819510404
0.2810135154
0.2817338171
0.2849114931
0.2850618008
0.2846278428
0.2841075615
0.2837139738
0.2841958871
0.284018758
0.2841323213
0.2842032026
0.284619205
0.2843694411
0.284270815
0.2840600043
0.2838790494
0.2839696335
0.2838523161
0.3148140676
0.6987467909
0.9575351611
0.9770133485
0.970922814
0.9652667005
0.9660699455
0.9691897742
0.2904677331
0.2901102236
0.2894413147
0.2883648298
0.2818224221
0.2807975007
0.2811403263
0.2837543339
0.2848279009
0.2845359787
0.2841374435
0.2837830395
0.2833080707
0.2834938277
0.2839896197
0.2842521714
0.2845505144
0.2841838091
0.2838011333
0.2834525546
0.2834536575
0.2837345595
0.2837938045
0.2865050673
0.5040187749
0.8441040353
0.9512006069
0.9492725745
0.9521465616
0.9555879465
0.9601941431
0.290603495
0.2861460943
0.2919147075
0.2886563503
0.2817293188
0.2804820244
0.2804880756
0.2827841702
0.2845388064
0.2844432952
0.284057918
0.2836230658
0.2826991788
0.2832928456
0.2836221411
0.2842476211
0.2843099458
0.2836121053
0.2832738135
0.2831544068
0.2833424911
0.2836988385
0.2838671413
0.2841532055
0.3747061512
0.733152762
0.9095360144
0.9437943693
0.9513162774
0.9543801157
0.9579945596
0.2901003649
0.2858035727
0.2930168893
0.2891132037
0.2817360582
0.2801488247
0.2800431178
0.2820511902
0.2843022645
0.2843537099
0.2838040954
0.2832558536
0.282519811
0.2833309626
0.2836054739
0.284103702
0.2836198859
0.2832369101
0.2830623626
0.2831540184
0.2834283044
0.2837349681
0.2838218409
0.2837852891
0.2964306387
0.6414702663
0.8881443834
0.9544707212
0.9636455282
0.9610537289
0.9610133255
0.9652521448
0.2874999009
0.2879165773
0.2932707387
0.2896712839
0.2818455463
0.2799148298
0.2797047388
0.281424063
0.2839985239
0.2843319641
0.283552517
0.2828867331
0.2824630255
0.2832456295
0.2835627777
0.2836542178
0.2830966692
0.2831318774
0.2830796826
0.2831279016
0.2833627571
0.2836249733
0.2835096847
0.2831024957
0.2845347519
0.4662795686
0.8744165983
0.9708501562
0.977581906
0.9741161803
0.9723348906
0.9730389344
0.2811923953
0.2925289355
0.2934575491
0.2902367815
0.2819278658
0.2799374708
0.2794852549
0.2808267788
0.2835466351
0.2840735818
0.2832267131
0.2826349776
0.2823518325
0.2828388302
0.2832583983
0.2830049343
0.2828910102
0.2831588195
0.2830025185
0.2829562507
0.2830053155
0.2832152541
0.2828009774
0.2827326543
0.2830414547
0.3269457503
0.7431554751
0.9614768006
0.9774777949
0.9770050443
0.9754469409
0.9760787264
0.2773554802
0.2939914265
0.2931668097
0.2906827261
0.2821687587
0.2800074645
0.2796254929
0.2803929957
0.2830244777
0.2833635804
0.2828747888
0.2824214486
0.2819748674
0.2822206685
0.282685926
0.2826505969
0.2828320362
0.2830677663
0.2827556082
0.282347616
0.2823106395
0.2826073674
0.2824751281
0.2825439167
0.282884902
0.287500327
0.5352291669
0.8819191705
0.9705567524
0.9745433315
0.9731200635
0.9744029121
0.2767607255
0.2945884306
0.2912344802
0.2913041336
0.2820603672
0.2800453229
0.279778177
0.2800020756
0.2822992332
0.2828737907
0.2826032657
0.2822000701
0.2816072357
0.2818471965
0.2822319515
0.2825015827
0.2827876698
0.2827386883
0.2821709586
0.2818262058
0.2819724633
0.2823194969
0.2823670828
0.2825103271
0.2827580709
0.2831973214
0.4027861965
0.7534968118
0.9256649584
0.9521104551
0.9572496089
0.9637385945
0.2787855323
0.2944284108
0.2901946682
0.2915607953
0.2824471508
0.2800102532
0.2797326227
0.2798062618
0.2816103923
0.2825484402
0.2823919495
0.2818813026
0.2813524086
0.2815980093
0.2820573237
0.2824262651
0.2825191461
0.2821285799
0.2817808305
0.2816065717
0.2818526918
0.2822219446
0.2823116679
0.2823176755
0.2824908513
0.2827439138
0.305262302
0.6619349438
0.886694801
0.9390356808
0.9471938329
0.9530183403
0.2815498112
0.2933438139
0.2901328059
0.2918470706
0.2824963173
0.2799948808
0.2796648274
0.2794663313
0.2810429152
0.2822262064
0.2822299202
0.2816195532
0.2812548979
0.2814151127
0.281942199
0.2822483581
0.2820815148
0.2818181646
0.2816316349
0.2815417088
0.2817893062
0.2821077049
0.2820553885
0.2817673612
0.2819458031
0.2820548256
0.284611933
0.5222392982
0.8761202783
0.9427878424
0.9492385431
0.9538081927
0.2822201498
0.2906115579
0.2903299508
0.2921524286
0.2828492605
0.279859575
0.2796621007
0.2791888108
0.2805122666
0.2818532918
0.2820364036
0.2815237239
0.2811007073
0.2812395103
0.2815896999
0.2818960821
0.2818296451
0.2816992645
0.2816441057
0.2814921478
0.2816232111
0.2818348504
0.281463888
0.2813325119
0.2815621727
0.2818820483
0.2820840731
0.3544263657
0.7942717639
0.9577055842
0.9685176115
0.9654594678
0.9619833559
0.2824058872
0.2841787678
0.2923685979
0.294528546
0.2826637503
0.2792695709
0.2796150764
0.2793213637
0.2801266848
0.2814902979
0.2817597308
0.2813670725
0.2808472412
0.280837767
0.2812414213
0.2817363874
0.2817592189
0.2816142293
0.2815550294
0.2813507482
0.2813124065
0.2813549981
0.2811589874
0.2811510916
0.2814529138
0.2818590752
0.2818644174
0.2930554911
0.6064029403
0.9379212848
0.9749281737
0.9788173042
0.9749574041
0.2820506332
0.2794757003
0.2948846726
0.2963938764
0.2827313308
0.2784497658
0.2794664927
0.2797901386
0.2801687657
0.2811129901
0.2814664525
0.281133837
0.2804253976
0.2804093629
0.2809615589
0.2812704802
0.2815290765
0.2813442153
0.2813336791
0.2810682385
0.2808570259
0.2810347076
0.2810745094
0.281098449
0.2813436789
0.2818127835
0.2818052114
0.2822186373
0.4456015915
0.8241881355
0.9710954823
0.9788933993
0.979391918
0.2810234226
0.2782238057
0.2946562878
0.2968337019
0.2830445549
0.2778172996
0.2789265612
0.2799562466
0.2800818904
0.2807248677
0.2811895706
0.2807043414
0.2800053906
0.2801681571
0.280582749
0.2810373459
0.2810006157
0.2808515541
0.2808329266
0.2806286286
0.2804541421
0.2808607966
0.2810003422
0.2809582406
0.2811127819
0.2815209717
0.2816833306
0.2817330143
0.3349096086
0.6878697148
0.9341608931
0.974292169
0.9778706861
0.2756978244
0.2783021317
0.2936807079
0.2967160485
0.2837287577
0.2773765494
0.2788474851
0.2799766462
0.2799853389
0.2803113625
0.2807281803
0.2802720456
0.2796719862
0.2799973762
0.2803484598
0.2805768561
0.2807171108
0.2805931177
0.2803812906
0.2802462308
0.2801925226
0.2806170078
0.2807909775
0.2805743616
0.2804983224
0.2809655314
0.2812078341
0.2810723893
0.2864713274
0.5907783955
0.8581185369
0.9437579299
0.9628649545
0.2667195965
0.2811673045
0.2907937993
0.2964693046
0.284916639
0.2775715859
0.278918256
0.2799463071
0.2799532295
0.279917362
0.2803197337
0.2800419608
0.2795481287
0.2799368171
0.2802220463
0.2805483318
0.2806243767
0.280446478
0.280189763
0.2800814577
0.2800655851
0.2802299456
0.2803360595
0.2801309162
0.2800941821
0.2805099114
0.2807788385
0.2807008761
0.2816557676
0.4317670614
0.805546588
0.9193642524
0.9464325795
0.2636860969
0.282760766
0.2875868903
0.2963966492
0.2869210454
0.277781415
0.2788457149
0.2798805125
0.2800003032
0.2796439453
0.2800123488
0.279947039
0.2799359914
0.2798318436
0.2799483246
0.280326287
0.2806162772
0.2803233562
0.2801354162
0.2800130291
0.2800129765
0.280008527
0.2800320288
0.2799421294
0.2799306584
0.2803043446
0.2806017859
0.2805502559
0.2804609656
0.3110030011
0.7233510327
0.9194458496
0.9444611491
0.263926333
0.2829244303
0.2858095576
0.2974022384
0.2891291429
0.2783106103
0.2786067091
0.2796170698
0.2799104633
0.2795723474
0.2797683527
0.2800623679
0.2799294633
0.2796762183
0.2795194147
0.2800489074
0.2803453032
0.2800770958
0.2801198751
0.279935576
0.2799215154
0.279934058
0.2799273294
0.2798839809
0.2798353387
0.2802061512
0.2805322604
0.2804639185
0.2803218506
0.2837715028
0.5390979257
0.9095475656
0.9648881035
0.2701946001
0.2824735754
0.2845850656
0.2985406778
0.2904546946
0.2787593133
0.2780117096
0.2794643803
0.279784992
0.2793894184
0.2796641424
0.2802996171
0.2797694341
0.279489254
0.2792258552
0.2798211381
0.2801785407
0.2798089939
0.279980123
0.2797309764
0.2797296676
0.2798549535
0.2799172811
0.2798179102
0.2797431583
0.2801127269
0.2804474841
0.2803617513
0.2802291815
0.2801134979
0.3842438016
0.828637947
0.9741148065
0.970845359
0.2751142139
0.2813052362
0.2836397087
0.2986184192
0.2911650218
0.2793113685
0.2775885063
0.2792034146
0.2794472986
0.2792115722
0.2794219372
0.2801993545
0.2795867912
0.2793371362
0.2790369331
0.2793281323
0.2796308373
0.279748257
0.2799362801
0.2795854695
0.2794684787
0.2797263561
0.2798686917
0.2796536369
0.2794524246
0.279931972
0.2803313411
0.2802088984
0.2799986434
0.2800484688
0.3018977356
0.6435112789
0.9580872503
0.9802346883
0.2764965993
0.2784006457
0.2830512685
0.2979847569
0.2914963249
0.2798686321
0.277705824
0.2788646865
0.2797358971
0.27913756
0.2789622276
0.2795226048
0.2793753606
0.2791871909
0.2789194761
0.2791371971
0.2793684454
0.279659203
0.2797061099
0.2795718668
0.2791648957
0.2792737994
0.2796374545
0.2792859881
0.2791432356
0.2796542168
0.2800135106
0.2799408387
0.2798934505
0.2798652681
0.2810102371
0.5130023184
0.8520484479
0.9787848258
0.2773299811
0.2731307337
0.2831538961
0.2972512697
0.2917822012
0.2809924988
0.2781674065
0.279143894
0.2796281974
0.2790052447
0.2782901044
0.2790677682
0.2791961079
0.2790500089
0.2788538091
0.2789564267
0.2792317124
0.279566152
0.2794803027
0.2794228468
0.2790229286
0.2789080435
0.2791497311
0.2790398922
0.2789745528
0.2794769808
0.2797804043
0.2797927692
0.2797257753
)
;

boundaryField
{
    inlet
    {
        type            fixedValue;
        value           nonuniform 0();
    }
    outlet
    {
        type            zeroGradient;
    }
    bottom
    {
        type            slip;
    }
    top
    {
        type            slip;
    }
    obstacle
    {
        type            zeroGradient;
    }
    defaultFaces
    {
        type            empty;
    }
    procBoundary21to15
    {
        type            processor;
        value           nonuniform List<scalar> 
24
(
0.990677677
0.9731845664
0.9612190141
0.9534538832
0.9521102807
0.9562507779
0.95693068
0.9597964989
0.9664633392