/*--------------------------------*- C++ -*----------------------------------*\
  =========                 |
  \\      /  F ield         | OpenFOAM: The Open Source CFD Toolbox
   \\    /   O peration     | Website:  https://openfoam.org
    \\  /    A nd           | Version:  7
     \\/     M anipulation  |
\*---------------------------------------------------------------------------*/
FoamFile
{
    version     2.0;
    format      ascii;
    class       volScalarField;
    location    "1.4";
    object      rho;
}
// * * * * * * * * * * * * * * * * * * * * * * * * * * * * * * * * * * * * * //

dimensions      [1 -3 0 0 0 0 0];

internalField   nonuniform List<scalar> 8(1.402318031 1.40567703 1.400006385 1.400032269 1.400037069 1.400005023 1.400005012 1.400005158);

boundaryField
{
    inlet
    {
        type            calculated;
        value           nonuniform 0();
    }
    outlet
    {
        type            calculated;
        value           nonuniform 0();
    }
    bottom
    {
        type            calculated;
        value           nonuniform 0();
    }
    top
    {
        type            calculated;
        value           nonuniform List<scalar> 3(1.400005023 1.400005012 1.400005158);
    }
    obstacle
    {
        type            calculated;
        value           nonuniform 0();
    }
    defaultFaces
    {
        type            empty;
    }
    procBoundary32to26
    {
        type            processor;
        value           nonuniform List<scalar> 4(1.44675998 1.493308046 1.400791669 1.400791669);
    }
    procBoundary32to31
    {
        type            processor;
        value           nonuniform List<scalar> 2(1.400004964 1.400005025);
    }
    procBoundary32to33
    {
        type            processor;
        value           nonuniform List<scalar> 3(1.458269022 1.414946123 1.401522621);
    }
}


// ************************************************************************* //
