/*--------------------------------*- C++ -*----------------------------------*\
  =========                 |
  \\      /  F ield         | OpenFOAM: The Open Source CFD Toolbox
   \\    /   O peration     | Website:  https://openfoam.org
    \\  /    A nd           | Version:  7
     \\/     M anipulation  |
\*---------------------------------------------------------------------------*/
FoamFile
{
    version     2.0;
    format      ascii;
    class       volScalarField;
    location    "1.4";
    object      T;
}
// * * * * * * * * * * * * * * * * * * * * * * * * * * * * * * * * * * * * * //

dimensions      [0 0 0 1 0 0 0];

internalField   nonuniform List<scalar> 8(1.00068383 1.001686453 1.00000037 1.000008284 1.000009102 0.9999999951 0.999999992 1.000000034);

boundaryField
{
    inlet
    {
        type            fixedValue;
        value           nonuniform 0();
    }
    outlet
    {
        type            inletOutlet;
        inletValue      nonuniform 0();
        value           nonuniform 0();
    }
    bottom
    {
        type            slip;
    }
    top
    {
        type            slip;
    }
    obstacle
    {
        type            zeroGradient;
    }
    defaultFaces
    {
        type            empty;
    }
    procBoundary32to26
    {
        type            processor;
        value           nonuniform List<scalar> 4(1.013836049 1.02719613 1.000232117 1.000232117);
    }
    procBoundary32to31
    {
        type            processor;
        value           nonuniform List<scalar> 2(0.9999999781 0.9999999957);
    }
    procBoundary32to33
    {
        type            processor;
        value           nonuniform List<scalar> 3(1.017146644 1.004244477 1.00042786);
    }
}


// ************************************************************************* //
