/*--------------------------------*- C++ -*----------------------------------*\
  =========                 |
  \\      /  F ield         | OpenFOAM: The Open Source CFD Toolbox
   \\    /   O peration     | Website:  https://openfoam.org
    \\  /    A nd           | Version:  7
     \\/     M anipulation  |
\*---------------------------------------------------------------------------*/
FoamFile
{
    version     2.0;
    format      ascii;
    class       volScalarField;
    location    "3.3";
    object      rho;
}
// * * * * * * * * * * * * * * * * * * * * * * * * * * * * * * * * * * * * * //

dimensions      [1 -3 0 0 0 0 0];

internalField   nonuniform List<scalar> 
555
(
1.258490687
1.25875032
1.260818945
1.259818338
1.260517847
1.260239184
1.258989234
1.258095831
1.25717581
1.25652486
1.255925856
1.255433871
1.255402875
1.255942654
1.256692846
1.257434478
1.258012707
1.258300666
1.258252553
1.257673454
1.257585243
1.259067917
1.260477422
1.261116957
1.260938425
1.259568765
1.259042525
1.258955959
1.258937434
1.258868945
1.258412394
1.257760464
1.257599159
1.25796641
1.258526047
1.258808734
1.258939184
1.258821969
1.258209102
1.258177092
1.259781362
1.262203449
1.262184693
1.262085901
1.261591485
1.261647184
1.262116799
1.262558521
1.26285306
1.262959563
1.262737966
1.262427738
1.262648159
1.262708226
1.262481522
1.262026003
1.261420719
1.260707849
1.260633591
1.261663729
1.26596185
1.264902597
1.264397616
1.26435735
1.264835678
1.265625285
1.266620801
1.267385573
1.267953794
1.268115987
1.267813981
1.267987208
1.267780182
1.26770999
1.26739469
1.266595598
1.265695899
1.264779511
1.265063728
1.270448365
1.269528661
1.269067645
1.268683711
1.26919226
1.270727357
1.272433718
1.273446548
1.274208734
1.27444537
1.274019294
1.273598379
1.272717508
1.272284227
1.272305057
1.272441168
1.272232868
1.270973055
1.269576431
1.275453582
1.275123362
1.275106129
1.275197478
1.275511105
1.27754741
1.279350022
1.28028444
1.280546531
1.280388788
1.279427035
1.278453259
1.277407424
1.276914499
1.276901252
1.277135367
1.277129298
1.276461485
1.275551514
1.281876897
1.281807611
1.282175583
1.283051247
1.283634768
1.284669142
1.285762869
1.286122802
1.285983663
1.286015451
1.285217981
1.284131089
1.283014266
1.282568242
1.282567675
1.282898939
1.282884114
1.282088562
1.281302458
1.28949688
1.289684274
1.290377515
1.291717212
1.291843441
1.292376774
1.292785465
1.292452293
1.291823202
1.291467364
1.290730487
1.289608244
1.288797089
1.288184412
1.288195664
1.288845624
1.289525297
1.288945807
1.288103102
1.29847551
1.299167368
1.300383891
1.30066557
1.300732253
1.300608097
1.299983869
1.299055586
1.297906475
1.296696768
1.295844578
1.295602015
1.295011057
1.294742374
1.294826837
1.296444286
1.297798537
1.296899185
1.308483509
1.309057939
1.309271392
1.309282154
1.309071941
1.308466487
1.307801312
1.306724791
1.304860947
1.30371249
1.303256243
1.303479006
1.303919339
1.304383054
1.304372923
1.304236934
1.306089075
1.306844337
1.320009978
1.320099743
1.319408467
1.318754295
1.318311845
1.317137568
1.31647143
1.315381263
1.313773033
1.313375466
1.313377363
1.313992766
1.314846526
1.315679245
1.315602537
1.315256554
1.315068735
1.315293849
1.333005761
1.331738247
1.329799438
1.328708268
1.328418267
1.327497424
1.326910412
1.325990786
1.325387473
1.325179958
1.325286496
1.325970411
1.327926347
1.32930811
1.328749176
1.327128044
1.32631961
1.325329245
1.345011774
1.3431661
1.34122659
1.33977781
1.339573008
1.338863857
1.338233015
1.337560105
1.337351933
1.337918085
1.338779534
1.340009852
1.342402956
1.343092931
1.34198382
1.339957571
1.337956875
1.336234328
1.355745923
1.35405351
1.352541696
1.351279924
1.351123381
1.350782328
1.349833845
1.349073696
1.349167804
1.35054187
1.352775517
1.354837976
1.355763825
1.355447979
1.354156072
1.352048941
1.349201497
1.34752186
1.365243631
1.364479107
1.363535571
1.362560028
1.362415066
1.362959001
1.36244289
1.362214539
1.363073436
1.365042177
1.366907602
1.367434628
1.367038802
1.366527189
1.365230991
1.36308158
1.360623012
1.35939984
1.373151008
1.373152658
1.373477969
1.373899511
1.375093992
1.376598613
1.376453219
1.376794793
1.377355066
1.376986669
1.376811326
1.377375741
1.376752681
1.375887928
1.374721035
1.372728378
1.371496714
1.371150834
1.380991033
1.381175605
1.381871303
1.382864472
1.384751355
1.388013713
1.388435561
1.388005167
1.387539317
1.386477817
1.385467515
1.385172805
1.384596887
1.382983098
1.381658183
1.381339122
1.381532896
1.382175361
1.388268551
1.388829216
1.389852484
1.391411572
1.393666969
1.395673175
1.39693146
1.396592036
1.395870354
1.394720794
1.393163654
1.391347161
1.389978021
1.388319116
1.387967276
1.389596834
1.390878555
1.391515479
1.396146395
1.396704075
1.397590645
1.399210303
1.400992186
1.402149891
1.403277544
1.402795714
1.401642593
1.400569003
1.398630073
1.395571965
1.393634768
1.393205393
1.394551941
1.397121914
1.399047741
1.399481188
1.403926782
1.404131096
1.404871873
1.405810269
1.40640982
1.407143631
1.407049298
1.405992271
1.404569713
1.403446092
1.401173129
1.39884438
1.398309116
1.399153843
1.401118187
1.403496892
1.405539434
1.405760446
1.410875497
1.410365253
1.410819952
1.410831308
1.409889718
1.408847961
1.40695816
1.405869295
1.405076475
1.404434674
1.403281384
1.40370044
1.40376533
1.405053929
1.407044021
1.40888286
1.410255204
1.409696946
1.415957526
1.41535667
1.415662325
1.414631176
1.412343704
1.408513816
1.405875619
1.405589971
1.405974673
1.406732322
1.406585433
1.407892127
1.408758792
1.410043073
1.41213396
1.41297063
1.413186543
1.41164363
1.419341823
1.419109341
1.417840777
1.414772659
1.409824083
1.408368234
1.408146467
1.408033627
1.408162948
1.409457387
1.409617198
1.41209541
1.413468073
1.414903446
1.415276166
1.413846349
1.410335782
1.421406587
1.420617267
1.419436916
1.416232846
1.412745213
1.412066571
1.411738297
1.411246638
1.41064747
1.41091519
1.411072393
1.411838757
1.414794925
1.415709885
1.414410048
1.410830684
1.407087998
1.421698777
1.420494962
1.418888359
1.415843055
1.41564614
1.415487391
1.415235509
1.41475784
1.413782198
1.41297821
1.413151203
1.414269055
1.414798264
1.413669454
1.409308879
1.406671377
1.407034501
1.419268737
1.418352005
1.416051199
1.415360335
1.417631062
1.418556538
1.418776839
1.417556969
1.416940846
1.416491688
1.416420537
1.416386494
1.413884298
1.408451035
1.405868809
1.406359818
1.408386372
1.415405808
1.415017707
1.414634751
1.415532677
1.416777173
1.418620758
1.419019399
1.41993526
1.419753705
1.419679309
1.418862083
1.41555297
1.409529854
1.406142012
1.406465628
1.407715035
1.410520885
1.414020887
1.414238188
1.415168153
1.416402002
1.417845417
1.419544337
1.420175216
1.420576102
1.421010491
1.420664304
1.416761112
1.410287015
1.407100071
1.407065306
1.408079994
1.409581822
1.412254173
1.414451527
1.415050693
1.416209937
1.417365691
1.418436631
1.419543332
1.420152778
1.420649848
1.42022821
1.417294929
1.412621482
1.410007893
1.409026553
1.409377123
1.410464215
1.411936722
1.413560971
1.415128841
1.415915603
1.417042128
1.41771438
1.417479003
1.417468864
1.416783712
1.415787282
1.413568608
1.410661901
1.409486243
1.409591159
1.410182022
1.411666429
1.413337958
1.414535114
1.414309474
1.415466066
1.416876596
1.417473183
1.41713406
1.415162189
1.413093812
1.410925612
1.40917092
1.407872249
1.40803479
1.408236733
1.408487692
)
;

boundaryField
{
    inlet
    {
        type            calculated;
        value           nonuniform 0();
    }
    outlet
    {
        type            calculated;
        value           nonuniform List<scalar> 
31
(
1.25872157
1.259491468
1.261482374
1.2650163
1.270010251
1.275912921
1.281545149
1.288208464
1.296871405
1.306650628
1.31495319
1.325205354
1.336206804
1.347518663
1.359462493
1.371155466
1.382129773
1.391407005
1.399413106
1.405703972
1.409690919
1.411869303
1.41079854
1.407349965
1.406906657
1.408142221
1.410246122
1.411885168
1.413425689
1.414347798
1.260494969
)
;
    }
    bottom
    {
        type            calculated;
        value           nonuniform 0();
    }
    top
    {
        type            calculated;
        value           nonuniform 0();
    }
    obstacle
    {
        type            calculated;
        value           nonuniform 0();
    }
    defaultFaces
    {
        type            empty;
    }
    procBoundary23to17
    {
        type            processor;
        value           nonuniform List<scalar> 
20
(
1.261469606
1.262030588
1.263769308
1.259437374
1.259828828
1.260018847
1.259594158
1.258703185
1.257878296
1.257276425
1.256226267
1.25553758
1.255539337
1.256042758
1.256803187
1.257576097
1.258245194
1.258675927
1.258763395
1.258763395
)
;
    }
    procBoundary23to22
    {
        type            processor;
        value           nonuniform List<scalar> 
32
(
1.259958561
1.26100485
1.263183426
1.267187614
1.272204417
1.277519607
1.28405818
1.291699603
1.298582803
1.298582803
1.308818857
1.32057369
1.333644713
1.34662694
1.357403523
1.366777191
1.374934425
1.382634368
1.389620339
1.396999231
1.404434653
1.411147375
1.416091101
1.419172703
1.419172703
1.421393961
1.422226894
1.420120242
1.415579914
1.41382361
1.414322542
1.414917333
)
;
    }
    procBoundary23to28
    {
        type            processor;
        value           uniform 1.415118194;
    }
    procBoundary23to29
    {
        type            processor;
        value           nonuniform List<scalar> 
18
(
1.410689672
1.4137004
1.414742649
1.414957229
1.413876856
1.415737879
1.416364587
1.416300672
1.414900748
1.41157935
1.409435589
1.407703069
1.406206755
1.405369598
1.405437859
1.407114709
1.410689672
1.409041394
)
;
    }
}


// ************************************************************************* //
