/*--------------------------------*- C++ -*----------------------------------*\
  =========                 |
  \\      /  F ield         | OpenFOAM: The Open Source CFD Toolbox
   \\    /   O peration     | Website:  https://openfoam.org
    \\  /    A nd           | Version:  7
     \\/     M anipulation  |
\*---------------------------------------------------------------------------*/
FoamFile
{
    version     2.0;
    format      ascii;
    class       volScalarField;
    location    "2.4";
    object      p;
}
// * * * * * * * * * * * * * * * * * * * * * * * * * * * * * * * * * * * * * //

dimensions      [1 -1 -2 0 0 0 0];

internalField   nonuniform List<scalar> 
555
(
1.551125837
1.53660944
1.525136757
1.507731085
1.486920669
1.4771155
1.472127244
1.465390466
1.458860125
1.456408517
1.454393382
1.451082338
1.445169074
1.441680885
1.441266968
1.439923175
1.437204035
1.436183344
1.551125839
1.536609357
1.525136673
1.507731117
1.486920746
1.477115521
1.472127242
1.465390475
1.458860123
1.456408498
1.454393361
1.451082328
1.445169082
1.441680894
1.441266978
1.439923187
1.437204045
1.43618334
1.436488364
1.437926447
1.439127522
1.439758573
1.440477099
1.442259539
1.445492725
1.448844563
1.451202757
1.452923714
1.454717647
1.45620046
1.457205814
1.457306221
1.45696086
1.447514916
1.471952277
1.484240964
1.490491528
1.492989795
1.492769
1.491467374
1.487935379
1.482433142
1.479893051
1.477825487
1.474266385
1.467973067
1.460401508
1.457140227
1.455824382
1.45371003
1.450700463
1.449606366
1.449997016
1.450335707
1.44961039
1.448961007
1.449045476
1.449733503
1.450225821
1.450065187
1.449588007
1.44947823
1.449310093
1.449181328
1.449164208
1.449787246
1.405961863
1.435199856
1.455891275
1.465875044
1.480987961
1.489221675
1.489310188
1.49158861
1.491950632
1.490842633
1.489094276
1.485856673
1.481541628
1.474145175
1.467648007
1.467603247
1.467286012
1.465549712
1.463220243
1.459775089
1.457471748
1.45569866
1.453376444
1.449932337
1.447306412
1.446525321
1.445557846
1.444379038
1.443152304
1.443149701
1.443483262
1.444073169
1.446161681
1.198060015
1.243859582
1.291474399
1.328183422
1.369944515
1.404586731
1.421444443
1.438958249
1.45530331
1.460310424
1.466135564
1.470204872
1.472320394
1.476277948
1.482710148
1.487182118
1.487378416
1.486749402
1.485404952
1.483049585
1.480357025
1.477332682
1.472459023
1.466065335
1.460373996
1.456668395
1.453872261
1.451459087
1.449210699
1.448384163
1.448144229
1.447452641
1.447215075
1.039862029
1.061316827
1.093943958
1.132891633
1.174228826
1.225587371
1.273235445
1.319835224
1.365904592
1.396227704
1.422614563
1.452828823
1.465231338
1.473302073
1.485272848
1.486988926
1.486418044
1.486250506
1.485330678
1.483493225
1.480277493
1.475531208
1.469573359
1.4645319
1.463792811
1.463935018
1.463598349
1.462098523
1.460212652
1.458320113
1.456853462
1.455281422
1.452657693
1.00205269
1.004395491
1.008976729
1.017391746
1.029980538
1.050310262
1.078743498
1.110452739
1.15484467
1.204660456
1.247234066
1.295582402
1.335405902
1.368376435
1.408426002
1.422357987
1.432742502
1.44664705
1.450919047
1.454789965
1.460554367
1.465394726
1.469420087
1.47300023
1.477558313
1.478231128
1.477643873
1.476978606
1.475844023
1.474437674
1.472619507
1.47010937
1.466426553
1.000019859
1.000063282
1.00018462
1.000514963
1.001294295
1.002958014
1.006503606
1.012635127
1.023205681
1.040869198
1.063568936
1.095618285
1.13793715
1.18016295
1.228610301
1.276022713
1.315886207
1.363539635
1.39467269
1.416080881
1.440246067
1.457784725
1.4648378
1.474665146
1.479882323
1.479386793
1.477960182
1.476548505
1.474436582
1.471158259
1.468580438
1.46654165
1.464905368
1.000000024
1.000000126
1.000000585
1.000002485
1.000009606
1.000033332
1.00010761
1.00031296
1.000827432
1.002060192
1.004624965
1.00948191
1.018471657
1.03237845
1.053036334
1.083802128
1.117087594
1.15783028
1.210187419
1.254605482
1.298526779
1.337584218
1.367004884
1.396220065
1.424123749
1.431677322
1.439804347
1.447011033
1.448606614
1.451323625
1.45891631
1.465192608
1.469114619
1
1
1
1.000000001
1.000000008
1.000000048
1.000000255
1.0000012
1.000004998
1.000018909
1.000065268
1.000199273
1.000560535
1.001456224
1.003335288
1.007294949
1.014409605
1.025994486
1.045245234
1.070719245
1.102042768
1.144400363
1.190136737
1.235851264
1.282273146
1.321180224
1.360193645
1.395725142
1.420982959
1.436936376
1.450501651
1.458423479
1.46797103
1
1
1
1
1
1
1
1
1.000000003
1.000000021
1.000000124
1.000000623
1.000002794
1.000011276
1.000040209
1.000132243
1.000389029
1.001039619
1.002534015
1.005673556
1.011296284
1.021674811
1.036867809
1.060082887
1.091524821
1.129623891
1.169069426
1.215646663
1.266066223
1.309390975
1.346032469
1.370579116
1.399172224
1
1
1
1
1
1
1
1
1
1
1
1
1.000000001
1.00000001
1.000000063
1.000000347
1.000001675
1.000007098
1.00002653
1.000091053
1.000273147
1.000763451
1.001879024
1.00441761
1.009059833
1.017693167
1.030986176
1.052465984
1.079941819
1.116575268
1.155704611
1.202424673
1.249588895
1
1
1
1
1
1
1
1
1
1
1
1
1
1
1
1
1.000000001
1.000000005
1.000000035
1.000000204
1.00000103
1.000004551
1.000017762
1.000063223
1.000195785
1.000567789
1.001445156
1.003480689
1.007265425
1.015049857
1.026200996
1.045976204
1.066777093
1
1
1
1
1
1
1
1
1
1
1
1
1
1
1
1
1
1
1
1
1
1.000000003
1.000000021
1.000000125
1.000000652
1.00000303
1.000012234
1.000045043
1.000143072
1.000437238
1.001093304
1.003118948
1.004644277
1
1
1
1
1
1
1
1
1
1
1
1
1
1
1
1
1
1
1
1
1
1
1
1
1
1.000000001
1.000000013
1.000000076
1.000000436
1.000002051
1.000008075
1.000060692
1.000021013
1
1
1
1
1
1
1
1
1
1
1
1
1
1
1
1
1
1
1
1
1
1
1
1
1
1
1
1
1
1.000000001
1.000000006
1.000000287
0.999999992
1
1
1
1
1
1
1
1
1
1
1
1
1
1
1
1
1
1
1
1
1
1
1
1
1
1
1
1
1
1
1
1
1.000000001
1
1
1
1
1
1
1
1
1
)
;

boundaryField
{
    inlet
    {
        type            fixedValue;
        value           nonuniform 0();
    }
    outlet
    {
        type            zeroGradient;
    }
    bottom
    {
        type            slip;
    }
    top
    {
        type            slip;
    }
    obstacle
    {
        type            zeroGradient;
    }
    defaultFaces
    {
        type            empty;
    }
    procBoundary20to13
    {
        type            processor;
        value           uniform 1.571310013;
    }
    procBoundary20to14
    {
        type            processor;
        value           nonuniform List<scalar> 
19
(
1.447514938
1.471952295
1.484240918
1.490491509
1.492989811
1.492769022
1.491467375
1.487935358
1.482433138
1.47989307
1.477825502
1.474266377
1.46797303
1.460401482
1.457140261
1.455824406
1.453710014
1.450700433
1.436488376
)
;
    }
    procBoundary20to19
    {
        type            processor;
        value           nonuniform List<scalar> 
16
(
1.571310073
1.432020875
1.37167724
1.152623938
1.023329257
1.00086808
1.000005775
1.000000004
1
1
1
1
1
1
1
1
)
;
    }
    procBoundary20to25
    {
        type            processor;
        value           uniform 1;
    }
    procBoundary20to26
    {
        type            processor;
        value           nonuniform List<scalar> 
34
(
1
1
1
1
1
1
1
1
1
1
1
1
1
1
1
1
1
1
1
1
1
1
1
1
1
1
1
1
1
1
1
1
1
1
)
;
    }
    procBoundary20to27
    {
        type            processor;
        value           nonuniform List<scalar> 
16
(
1.089100679
1.382859021
1.442269855
1.446188722
1.448749608
1.455589655
1.46114971
1.470663153
1.468204128
1.422307906
1.344262692
1.184735356
1.050538227
1.005804563
1.000282612
1.000005489
)
;
    }
}


// ************************************************************************* //
