/*--------------------------------*- C++ -*----------------------------------*\
  =========                 |
  \\      /  F ield         | OpenFOAM: The Open Source CFD Toolbox
   \\    /   O peration     | Website:  https://openfoam.org
    \\  /    A nd           | Version:  7
     \\/     M anipulation  |
\*---------------------------------------------------------------------------*/
FoamFile
{
    version     2.0;
    format      ascii;
    class       volVectorField;
    location    "1.1";
    object      U;
}
// * * * * * * * * * * * * * * * * * * * * * * * * * * * * * * * * * * * * * //

dimensions      [0 1 -1 0 0 0 0];

internalField   nonuniform List<vector> 
138
(
(2.902246736 -0.1030929314 0)
(2.896324128 -0.122144893 0)
(2.882815853 -0.1502674497 0)
(2.881514843 -0.161028397 0)
(2.874577527 -0.1756840321 0)
(2.871779313 -0.1958324574 0)
(2.865251733 -0.2079063681 0)
(2.8583711 -0.2191218982 0)
(2.856480996 -0.23775045 0)
(2.853676951 -0.250503859 0)
(2.902243556 0.1030963525 0)
(2.896326512 0.1221399545 0)
(2.88281606 0.1502622627 0)
(2.881512054 0.1610346766 0)
(2.874575559 0.1756822448 0)
(2.87177983 0.1958270393 0)
(2.865256613 0.2079136106 0)
(2.858373593 0.2191227469 0)
(2.856482885 0.2377441072 0)
(2.853675788 0.250503587 0)
(2.85326919 0.2577323136 0)
(2.855096602 0.2589956369 0)
(2.858637429 0.2637193945 0)
(2.861446538 0.261954898 0)
(2.860960881 0.2647706099 0)
(2.861138147 0.261312922 0)
(2.860705292 0.2647662576 0)
(2.930790432 0.1752782241 0)
(2.926134985 0.1947965118 0)
(2.909995561 0.2296265302 0)
(2.901620431 0.2551303832 0)
(2.890746976 0.2814026031 0)
(2.884596715 0.2960687699 0)
(2.875676247 0.3122900183 0)
(2.869646964 0.3117841433 0)
(2.864644392 0.3126968126 0)
(2.859322129 0.3048503889 0)
(2.858933247 0.2975491843 0)
(2.859074915 0.2910161882 0)
(2.857084824 0.2877589814 0)
(2.863481968 0.2810874046 0)
(2.869056738 0.2766226738 0)
(2.8703645 0.2755279863 0)
(2.873800489 0.2730751109 0)
(2.989182318 0.02920512348 0)
(2.984685618 0.04276794922 0)
(2.978635617 0.06105354213 0)
(2.974136854 0.07868377214 0)
(2.969086391 0.1001165184 0)
(2.963677068 0.1217304308 0)
(2.958909304 0.1430145591 0)
(2.953628867 0.1681308385 0)
(2.94609122 0.1924150019 0)
(2.940533709 0.2079907338 0)
(2.935362849 0.221978773 0)
(2.920793474 0.2424355197 0)
(2.913397542 0.2535012261 0)
(2.907985645 0.2552928501 0)
(2.90288813 0.2613927373 0)
(2.900697324 0.2642390448 0)
(2.898448228 0.2667240169 0)
(2.999075797 0.00203770371 0)
(2.998176962 0.004094250793 0)
(2.996511151 0.008097615625 0)
(2.994128451 0.01444627692 0)
(2.990599074 0.02428494548 0)
(2.986229308 0.03700516039 0)
(2.979430802 0.05728904564 0)
(2.972946451 0.07969497905 0)
(2.966146117 0.1064051369 0)
(2.955947734 0.1469720998 0)
(2.950882526 0.1687819179 0)
(2.947147308 0.1868267123 0)
(2.931067482 0.2289170965 0)
(2.92372815 0.2462002509 0)
(2.921493479 0.2465964147 0)
(2.911152079 0.2616143169 0)
(2.903068322 0.2800098481 0)
(2.999988285 1.984843796e-05 0)
(2.999961089 6.998091509e-05 0)
(2.999894298 0.0001907144394 0)
(2.999725249 0.0005243337471 0)
(2.999395601 0.001173383895 0)
(2.998671754 0.002703070686 0)
(2.997552482 0.005007488993 0)
(2.995286548 0.01013788969 0)
(2.992083585 0.0176432164 0)
(2.987719352 0.02840609778 0)
(2.981511851 0.0444913159 0)
(2.971594017 0.07110928823 0)
(2.966249449 0.08659134189 0)
(2.956435289 0.1146267185 0)
(2.943110909 0.1511223945 0)
(2.935318055 0.1697832008 0)
(2.927269334 0.1909792004 0)
(2.999999984 2.391501731e-08 0)
(2.999999909 1.311265263e-07 0)
(2.999999535 7.337251094e-07 0)
(2.999998079 3.052612125e-06 0)
(2.999993072 1.154725567e-05 0)
(2.999977707 3.750139903e-05 0)
(2.999935383 0.0001135910906 0)
(2.999827417 0.0003074831666 0)
(2.999597566 0.0007324981363 0)
(2.999027969 0.001850731482 0)
(2.998054593 0.003687001821 0)
(2.995992947 0.007802849494 0)
(2.992946853 0.01443274313 0)
(2.987511322 0.02644954915 0)
(2.982031389 0.0385306985 0)
(2.971886211 0.06259297478 0)
(2.962833378 0.08364098189 0)
(3 -2.313046811e-11 0)
(3 -1.369064468e-10 0)
(3 7.361103552e-10 0)
(3 1.492875608e-10 0)
(2.999999991 1.405926668e-08 0)
(2.999999958 5.849811762e-08 0)
(2.999999763 3.874706279e-07 0)
(2.999999098 1.394711298e-06 0)
(2.999996296 6.422755786e-06 0)
(2.999988719 1.817909028e-05 0)
(2.999960016 7.188317403e-05 0)
(2.999896 0.0001757520185 0)
(2.999688793 0.0005848511453 0)
(2.999348203 0.001163742171 0)
(2.99828509 0.003487599441 0)
(2.997175146 0.005601329761 0)
(2.994165776 0.01217974072 0)
(3 -1.268545497e-11 0)
(3 -2.747052076e-11 0)
(3 -2.732582479e-11 0)
(3 -2.687195859e-11 0)
(3 -3.674538421e-11 0)
(3 4.025511363e-11 0)
(3 -2.624379323e-10 0)
(3 1.474263578e-09 0)
(2.999999998 1.96809391e-09 0)
)
;

boundaryField
{
    inlet
    {
        type            fixedValue;
        value           nonuniform 0();
    }
    outlet
    {
        type            inletOutlet;
        inletValue      nonuniform 0();
        value           nonuniform 0();
    }
    bottom
    {
        type            slip;
    }
    top
    {
        type            slip;
    }
    obstacle
    {
        type            slip;
    }
    defaultFaces
    {
        type            empty;
    }
    procBoundary20to13
    {
        type            processor;
        value           uniform (2.906877546 -0.09950982432 0);
    }
    procBoundary20to14
    {
        type            processor;
        value           nonuniform List<vector> 
11
(
(2.93079152 -0.1752768729 0)
(2.926142215 -0.1947867915 0)
(2.909985636 -0.2296441764 0)
(2.901626456 -0.2551236588 0)
(2.890746887 -0.2814057404 0)
(2.884601781 -0.2960610439 0)
(2.875673376 -0.3122923801 0)
(2.869644751 -0.3117891054 0)
(2.864639 -0.3126944569 0)
(2.85932311 -0.3048342871 0)
(2.853271395 -0.2577316961 0)
)
;
    }
    procBoundary20to19
    {
        type            processor;
        value           nonuniform List<vector> 8((2.906877797 0.09951237615 0) (2.943943553 0.1369676485 0) (2.99217449 0.01928356111 0) (2.999583684 0.000854607965 0) (2.999996635 5.671512355e-06 0) (2.999999999 1.027873815e-09 0) (3 -3.046389588e-11 0) (3 -1.294099812e-11 0));
    }
    procBoundary20to26
    {
        type            processor;
        value           nonuniform List<vector> 
18
(
(2.99999998 3.36882892e-08 0)
(2.999999906 1.405650282e-07 0)
(2.999999536 7.786787465e-07 0)
(2.999997968 3.341921325e-06 0)
(2.999992766 1.248647788e-05 0)
(2.999973226 4.693618146e-05 0)
(2.999920262 0.0001910323795 0)
(2.999867248 0.0002445626266 0)
(3 -2.1136932e-12 0)
(3 -5.079988386e-12 0)
(3 -8.68054367e-12 0)
(3 -1.25213067e-11 0)
(3 -1.767738501e-11 0)
(3 -1.748358387e-11 0)
(3 -1.741690852e-11 0)
(3 -1.639966633e-11 0)
(2.99999998 3.36882892e-08 0)
(3 -1.79066669e-11 0)
)
;
    }
    procBoundary20to27
    {
        type            processor;
        value           nonuniform List<vector> 7((2.954347289 -0.03113551403 0) (2.891527155 0.2390670621 0) (2.895075918 0.2683291169 0) (2.895613199 0.27906033 0) (2.918481296 0.2249062637 0) (2.933047742 0.1660286693 0) (2.981781009 0.04496956396 0));
    }
}


// ************************************************************************* //
