/*--------------------------------*- C++ -*----------------------------------*\
  =========                 |
  \\      /  F ield         | OpenFOAM: The Open Source CFD Toolbox
   \\    /   O peration     | Website:  https://openfoam.org
    \\  /    A nd           | Version:  7
     \\/     M anipulation  |
\*---------------------------------------------------------------------------*/
FoamFile
{
    version     2.0;
    format      ascii;
    class       volScalarField;
    location    "3.5";
    object      rho;
}
// * * * * * * * * * * * * * * * * * * * * * * * * * * * * * * * * * * * * * //

dimensions      [1 -3 0 0 0 0 0];

internalField   nonuniform List<scalar> 
555
(
1.412705547
1.411390686
1.408475204
1.407053011
1.408056698
1.414253826
1.414638667
1.414652629
1.413043609
1.409449288
1.405611255
1.404309696
1.404652002
1.405499807
1.407944015
1.410055132
1.410804519
1.410380585
1.409394804
1.408619115
1.408244119
1.408813069
1.409797785
1.41059087
1.410687779
1.408641742
1.406113171
1.404556687
1.403288109
1.403364387
1.404120255
1.404613577
1.406139571
1.407391269
1.407739725
1.407759249
1.40819881
1.408686475
1.409249501
1.404011224
1.404968992
1.405283785
1.404363911
1.403731934
1.403175924
1.402893815
1.40269039
1.402693819
1.402585518
1.402382635
1.402889539
1.404490065
1.406734855
1.408110861
1.408821954
1.408507473
1.399964261
1.400636402
1.401065427
1.401529677
1.40100639
1.401361273
1.40190512
1.402105824
1.401576462
1.400484781
1.399766528
1.39971069
1.400416132
1.402349113
1.404973766
1.40651736
1.40621119
1.397172674
1.397768071
1.398237198
1.39888604
1.399730035
1.400472103
1.40095932
1.400832121
1.400199716
1.398627151
1.397236647
1.397171519
1.397576953
1.398887996
1.401144685
1.402436375
1.401840609
1.394926093
1.395672869
1.39602479
1.395894877
1.396499824
1.397242666
1.398066877
1.398083145
1.397617554
1.39643057
1.394524917
1.394689702
1.394902357
1.395706503
1.39688399
1.397338895
1.395587432
1.393471065
1.393460423
1.393311866
1.393586166
1.393839393
1.393965293
1.394196127
1.394415906
1.393657973
1.393021208
1.392783897
1.392466577
1.392306871
1.391871636
1.390862799
1.389967444
1.391238741
1.391002904
1.390513327
1.390391414
1.390064625
1.389498842
1.389854882
1.390527672
1.391663952
1.392416532
1.390881085
1.390077225
1.389098983
1.387988236
1.387171658
1.387515065
1.388373809
1.387776857
1.387206614
1.386698751
1.386265345
1.386448743
1.387465755
1.388370225
1.389666887
1.390423088
1.390625869
1.390256455
1.389122199
1.387286739
1.385684303
1.386102658
1.385397394
1.386276059
1.386646667
1.386133511
1.385567314
1.38544353
1.386246724
1.38683437
1.387920976
1.388512182
1.389091804
1.389287325
1.388764824
1.3878284
1.38610406
1.385879722
1.384486978
1.38539708
1.385627973
1.385317443
1.385411698
1.385816859
1.386323653
1.386516722
1.38659666
1.387182487
1.387905877
1.388526029
1.388906585
1.388664754
1.38724296
1.386979942
1.38334794
1.384339951
1.384626741
1.384399126
1.385010765
1.386422229
1.386845208
1.386201671
1.385375102
1.385370905
1.386368935
1.387975889
1.388401356
1.388408839
1.38829849
1.38877994
1.38221496
1.383435465
1.384258149
1.384737239
1.385758777
1.386346644
1.385631767
1.384369118
1.383785388
1.383374642
1.384299369
1.38492633
1.385605688
1.386428378
1.387056877
1.387769114
1.381431727
1.383208512
1.384068194
1.384322824
1.384166891
1.383761107
1.383006757
1.381724981
1.381811577
1.381218942
1.38144645
1.381440387
1.381981101
1.383056466
1.38376331
1.385069597
1.380889256
1.382690728
1.383203643
1.382579816
1.381501442
1.380555216
1.379145598
1.379139181
1.379512383
1.379314747
1.378299532
1.37792668
1.378178551
1.378897785
1.379508053
1.379941405
1.379894699
1.380650029
1.380999156
1.380158728
1.379080546
1.37699105
1.375844945
1.376429461
1.377708937
1.377782906
1.376715893
1.375627219
1.375044875
1.375185519
1.375410777
1.374611109
1.37894868
1.379154777
1.379367502
1.378449948
1.377077202
1.375253238
1.374125949
1.374805523
1.376644333
1.377057694
1.376414513
1.375396103
1.374281176
1.373942845
1.373773707
1.371674837
1.377437726
1.377726069
1.378184168
1.3776129
1.375986825
1.374357788
1.373658233
1.374551511
1.376257815
1.376951716
1.376305202
1.37556491
1.374760571
1.374267042
1.373393211
1.371801401
1.376508265
1.376742929
1.377335111
1.377208015
1.376486271
1.376026477
1.376171984
1.377051234
1.377733536
1.377729046
1.377069871
1.376937347
1.376916311
1.376815904
1.376210777
1.37515955
1.378005767
1.378387563
1.378952355
1.379148275
1.379062122
1.379100306
1.379104296
1.378968801
1.378694726
1.378740153
1.379047442
1.379472022
1.379739212
1.379731718
1.37952889
1.379193641
1.379648803
1.379738382
1.379547329
1.379013283
1.378841051
1.378723883
1.378542294
1.378436322
1.378400115
1.378342691
1.378374462
1.378662323
1.379065613
1.379402473
1.379681893
1.379784861
1.381532647
1.381541294
1.380558761
1.380195459
1.380410871
1.380426276
1.380199869
1.37977766
1.379214873
1.378860054
1.378982085
1.379494064
1.380285729
1.381005924
1.381365212
1.381406622
1.382265267
1.382191388
1.382159532
1.382492987
1.382883599
1.382884873
1.382586214
1.381615061
1.380385204
1.379971008
1.380226355
1.381039563
1.382263885
1.383171612
1.383481837
1.383446953
1.38206922
1.383395535
1.383955852
1.384282656
1.384351024
1.384313254
1.384001191
1.383006703
1.382222411
1.382092969
1.382237374
1.383046799
1.384379471
1.38490838
1.384950039
1.384734179
1.383924171
1.384645616
1.384759874
1.384567282
1.38441904
1.384536678
1.384595627
1.384063647
1.383739614
1.38375882
1.384052986
1.384833921
1.385785054
1.386068459
1.386010918
1.38588159
1.386752289
1.38560455
1.384153753
1.383709041
1.383871029
1.38430535
1.384719595
1.38477153
1.384659282
1.384678743
1.384995124
1.385749293
1.386662593
1.386805037
1.386907582
1.387137485
1.387579888
1.384694371
1.383197875
1.383270532
1.383842274
1.384851605
1.385271608
1.385184482
1.384813385
1.384809117
1.385200273
1.38592532
1.386565999
1.387320982
1.387778617
1.388243644
1.384294724
1.383605551
1.384345612
1.385412509
1.386994172
1.387538722
1.387117266
1.385735667
1.384648563
1.384631313
1.385070905
1.385960065
1.386933486
1.387668875
1.388233077
1.388749056
1.380908751
1.38420723
1.385743685
1.38639581
1.387636266
1.387542031
1.38686425
1.385094211
1.384585895
1.384859454
1.38576337
1.386946917
1.387859585
1.388220008
1.388398261
1.388537935
1.38295832
1.383948304
1.384536164
1.384593859
1.382954821
1.382720943
1.383933847
1.38448154
1.384974401
1.385630963
1.386192072
1.387061433
1.387706508
1.388063722
1.388344942
1.388429488
1.369584756
1.372704064
1.37989809
1.378384893
1.377168084
1.379539629
1.383522627
1.385325891
1.386067453
1.386026484
1.385971766
1.386351306
1.386744604
1.387343517
1.388179989
1.388692781
1.291599098
1.336775505
1.377797467
1.376037818
1.378714554
1.38343403
1.386514258
1.386593947
1.386386401
1.385208888
1.384440785
1.384670806
1.385462835
1.386727054
1.388058289
1.388920785
1.168745914
1.275390849
1.354571693
1.368175827
1.384493348
1.389318977
1.387195944
1.385771994
1.384668833
1.38392772
1.384160091
1.384798409
1.38553387
1.386871915
1.388035223
1.388569981
1.03179061
1.103141598
1.20769481
1.293738133
1.370858671
1.378575823
1.376323806
1.381047962
1.381949565
1.383944835
1.387233476
1.388779483
1.388591248
1.388740181
1.388163388
1.387935431
)
;

boundaryField
{
    inlet
    {
        type            calculated;
        value           nonuniform 0();
    }
    outlet
    {
        type            calculated;
        value           nonuniform List<scalar> 
35
(
1.379190437
1.379785991
1.381403259
1.383448814
1.384737808
1.385881718
1.387133252
1.388237673
1.388747058
1.388538972
1.388431864
1.388694086
1.38891862
1.388564352
1.38793431
1.407971414
1.408780933
1.409202305
1.408520105
1.406227633
1.401931848
1.395830446
1.389932627
1.387435845
1.386001181
1.385745174
1.386853046
1.3887336
1.387808011
1.385115386
1.38007959
1.374841055
1.371745432
1.371896832
1.375048439
)
;
    }
    bottom
    {
        type            calculated;
        value           nonuniform 0();
    }
    top
    {
        type            calculated;
        value           nonuniform 0();
    }
    obstacle
    {
        type            calculated;
        value           nonuniform 0();
    }
    defaultFaces
    {
        type            empty;
    }
    procBoundary29to23
    {
        type            processor;
        value           nonuniform List<scalar> 
18
(
1.413673728
1.411089625
1.407744528
1.406612452
1.408006167
1.41673816
1.416632176
1.416033116
1.414954187
1.413384059
1.410563694
1.407316251
1.406699042
1.408032902
1.411018724
1.412738268
1.413268038
1.413268038
)
;
    }
    procBoundary29to28
    {
        type            processor;
        value           nonuniform List<scalar> 
34
(
1.412888082
1.408596024
1.40313485
1.399204399
1.396465462
1.394098353
1.393472312
1.393472312
1.391447272
1.389393488
1.386235101
1.38419732
1.382613427
1.380859177
1.379375173
1.378811456
1.378712579
1.378543793
1.377560238
1.376530798
1.377628321
1.379530611
1.381267865
1.381819386
1.380558941
1.38180362
1.387366583
1.390029382
1.385544283
1.374803639
1.374377534
1.35997337
1.230210373
1.054880333
)
;
    }
    procBoundary29to34
    {
        type            processor;
        value           uniform 0.9915492739;
    }
    procBoundary29to35
    {
        type            processor;
        value           nonuniform List<scalar> 
16
(
0.9943123313
1.006713906
1.058250953
1.164220418
1.275616294
1.31485965
1.350825972
1.38493302
1.383427991
1.385036192
1.388801375
1.390082989
1.389704483
1.389431973
1.388398491
1.387893665
)
;
    }
}


// ************************************************************************* //
