/*--------------------------------*- C++ -*----------------------------------*\
  =========                 |
  \\      /  F ield         | OpenFOAM: The Open Source CFD Toolbox
   \\    /   O peration     | Website:  https://openfoam.org
    \\  /    A nd           | Version:  7
     \\/     M anipulation  |
\*---------------------------------------------------------------------------*/
FoamFile
{
    version     2.0;
    format      ascii;
    class       volScalarField;
    location    "4.5";
    object      p;
}
// * * * * * * * * * * * * * * * * * * * * * * * * * * * * * * * * * * * * * //

dimensions      [1 -1 -2 0 0 0 0];

internalField   nonuniform List<scalar> 
25
(
0.9969261047
0.9270256578
0.965116203
0.9892166625
0.8951092058
0.924768139
0.9707084916
0.9215915598
0.9113758707
0.9323564206
0.9743247643
0.9155758975
0.9307759354
1.061055445
0.9852885113
0.981892018
1.115680346
1.095080654
1.054511775
1.157904781
1.17610965
1.139908961
1.177645429
1.228816431
1.211841075
)
;

boundaryField
{
    inlet
    {
        type            fixedValue;
        value           nonuniform 0();
    }
    outlet
    {
        type            zeroGradient;
    }
    bottom
    {
        type            slip;
    }
    top
    {
        type            slip;
    }
    obstacle
    {
        type            zeroGradient;
    }
    defaultFaces
    {
        type            empty;
    }
    procBoundary35to29
    {
        type            processor;
        value           nonuniform List<scalar> 4(0.9965596413 0.9865070245 0.9906568779 0.9906568779);
    }
    procBoundary35to34
    {
        type            processor;
        value           nonuniform List<scalar> 8(0.8915930399 0.8848414679 0.9469078354 1.049442994 1.115561807 1.126653548 1.122915592 1.10655004);
    }
}


// ************************************************************************* //
