/*--------------------------------*- C++ -*----------------------------------*\
  =========                 |
  \\      /  F ield         | OpenFOAM: The Open Source CFD Toolbox
   \\    /   O peration     | Website:  https://openfoam.org
    \\  /    A nd           | Version:  7
     \\/     M anipulation  |
\*---------------------------------------------------------------------------*/
FoamFile
{
    version     2.0;
    format      ascii;
    class       volScalarField;
    location    "2.2";
    object      T;
}
// * * * * * * * * * * * * * * * * * * * * * * * * * * * * * * * * * * * * * //

dimensions      [0 0 0 1 0 0 0];

internalField   nonuniform List<scalar> 
2222
(
1.11390218
1.114114254
1.114479207
1.11470143
1.114656196
1.114553749
1.114268137
1.113545557
1.11210461
1.109659554
1.105971415
1.10108324
1.094913289
1.087949788
1.080446035
1
1
1
1
1
1
1
1
1.000000007
1.000000229
1.000005724
1.000068347
1.000839091
1.004346708
1.020081828
1.047834854
1.07628944
1.100696682
1.111062157
1.11202908
1.112709866
1.113616058
1.114286725
1.114600908
1.114802334
1.114756832
1.114629109
1.11433868
1.113679639
1.112343594
1.110024473
1.106437974
1.101549832
1.095556319
1.088318813
1.080678306
1.072751033
1
1
1
1
1
1
1
1.000000007
1.00000023
1.000004582
1.000083231
1.000661687
1.005190475
1.018001455
1.047917319
1.082709577
1.100971393
1.106114283
1.110615361
1.113889865
1.114026507
1.114196887
1.114574813
1.114818506
1.114794937
1.114729224
1.114462457
1.113852954
1.112636716
1.11043513
1.106984861
1.102103777
1.096012402
1.088950323
1.080878063
1.072908586
1.064580477
1
1
1
1
1
1
1.000000005
1.000000198
1.000005121
1.000064416
1.000812667
1.004294018
1.0201022
1.048060615
1.076469913
1.10153353
1.111476206
1.11180422
1.112510819
1.113803617
1.114539403
1.114751425
1.114782136
1.114791216
1.114745897
1.114527607
1.1140075
1.112940931
1.110922668
1.107569301
1.102810845
1.096576532
1.089399242
1.081524968
1.072837744
1.064493177
1.055788275
1
1
1
1
1
1.000000005
1.000000185
1.000004157
1.000076665
1.0006346
1.005117361
1.018093095
1.04809264
1.083738948
1.099840557
1.105848838
1.111053496
1.114218815
1.114231211
1.114424219
1.114746057
1.11479043
1.114800038
1.114701752
1.114504597
1.114080679
1.113168916
1.111362701
1.108197442
1.103472425
1.097415135
1.089893082
1.081870777
1.073349375
1.064096322
1.055683604
1.04708027
1
1
1
1
1.000000003
1.000000158
1.000004398
1.000060072
1.000776933
1.00421547
1.020164728
1.048579115
1.076968972
1.102108027
1.111453538
1.111428016
1.11266266
1.114201478
1.114902849
1.114965274
1.114912688
1.1148572
1.114741819
1.114545159
1.114164156
1.113364379
1.111715195
1.108787443
1.104166047
1.098102168
1.090804477
1.08204607
1.073604429
1.064653145
1.055012595
1.046755791
1.038043552
1
1
1
1.000000003
1.000000108
1.000003309
1.000066176
1.000599049
1.005015767
1.018150802
1.048633448
1.084935611
1.09950753
1.105279525
1.112093485
1.114142178
1.114334587
1.114836411
1.114970358
1.115002686
1.115006211
1.114909347
1.114699547
1.114342292
1.113611586
1.112077142
1.109264554
1.104898754
1.098672413
1.091458593
1.08293887
1.07340017
1.064977647
1.055296823
1.045354813
1.037574387
1.028821359
1
1
1.000000001
1.000000088
1.000002913
1.000048698
1.000679873
1.003991595
1.020076455
1.048962378
1.077808024
1.1031291
1.111649654
1.111394921
1.112775541
1.114452406
1.114846516
1.115005185
1.115039023
1.115052336
1.115021824
1.11489064
1.114608961
1.113946985
1.112513221
1.109786303
1.105520731
1.099490549
1.091757925
1.083727372
1.074026786
1.064172647
1.055699012
1.045235905
1.035833853
1.028641999
1.019345002
1
1
1.000000032
1.000002076
1.000049074
1.000517318
1.004563606
1.017566321
1.04874385
1.085590841
1.09918254
1.105897305
1.112974499
1.114632601
1.114451129
1.114674188
1.114850069
1.115042207
1.115043521
1.115030884
1.114988192
1.114831623
1.11429145
1.112948416
1.110364705
1.106069926
1.100257317
1.092505979
1.083696388
1.074928866
1.064080959
1.054542085
1.046073949
1.035104225
1.026362564
1.019091523
1.008973114
1
1.000000023
1.000001143
1.000033411
1.00055113
1.003655697
1.019378032
1.048774417
1.078079317
1.103443472
1.112294891
1.112186543
1.113667334
1.115041708
1.114972326
1.114924563
1.114990773
1.115039394
1.115025418
1.115001454
1.114916285
1.114520812
1.113329789
1.110885356
1.106731416
1.10073399
1.093438286
1.083976149
1.07459092
1.065188389
1.053755235
1.044796325
1.035818499
1.024371813
1.016455239
1.009171959
0.9989416514
1
1.000000693
1.000025343
1.00039212
1.003931535
1.016932416
1.048999847
1.086359804
1.098454212
1.106251977
1.114403758
1.114977043
1.114991528
1.115061737
1.115045625
1.115070563
1.115124501
1.115079758
1.115020252
1.114952424
1.114643355
1.113618093
1.111303204
1.107379651
1.10133171
1.093781874
1.08500284
1.074222159
1.064887114
1.054687756
1.042845939
1.034406191
1.024992114
1.013910112
1.006785575
0.9991168914
0.9887224279
1.000000004
1.000014159
1.000358325
1.003062977
1.018014734
1.047931982
1.07943659
1.105005916
1.112999314
1.112773685
1.114057621
1.115296512
1.115269521
1.115169967
1.115118367
1.115102623
1.115138052
1.115084574
1.115035223
1.114781488
1.113855525
1.111689065
1.107840944
1.102113417
1.094074067
1.085387308
1.075167536
1.063648898
1.054418472
1.043229336
1.031776402
1.024003248
1.014095066
1.003360375
0.9965809346
0.9883040299
0.9782168297
1.000000688
1.0002066
1.00304328
1.015703535
1.048483028
1.086239862
1.099008134
1.108117458
1.115404358
1.115234741
1.1151705
1.115194702
1.115249702
1.115265253
1.115218452
1.115140424
1.115098584
1.115055275
1.114865819
1.114077541
1.112113017
1.108329629
1.102672269
1.094933461
1.085215075
1.07566702
1.063953614
1.052476327
1.043417603
1.031470563
1.020741976
1.01312111
1.00235656
0.9922352798
0.98597296
0.9775458663
0.9684212741
1.000042668
1.002054051
1.015983406
1.04723845
1.081232002
1.106788108
1.113539389
1.113689755
1.114413485
1.115189886
1.115325477
1.115263712
1.115271274
1.115272547
1.115226651
1.115134797
1.115048178
1.114838361
1.114154509
1.112383465
1.108869567
1.103098166
1.095620144
1.085818821
1.074970078
1.064751188
1.052023187
1.041113245
1.031760647
1.018993758
1.009215957
1.001772265
0.9907337988
0.9818182499
0.9759480982
0.9672019059
0.9584327639
1.00107431
1.012966348
1.046726084
1.089651958
1.102025508
1.110130871
1.115710342
1.115608254
1.115114371
1.115098986
1.115256574
1.115277584
1.115270411
1.115258635
1.115177257
1.115067014
1.114788891
1.11413473
1.112517231
1.10926613
1.103735374
1.095837693
1.086677727
1.075089302
1.063816396
1.052882407
1.039373336
1.029088729
1.019386676
1.006651314
0.9979826752
0.9904075092
0.9790903709
0.9709599989
0.9650774986
0.9558019651
0.9479114708
1.010731247
1.045404054
1.082665895
1.110550857
1.11127079
1.112111492
1.113867129
1.115226144
1.115281052
1.115149426
1.115118914
1.115179325
1.11517167
1.115113587
1.115000726
1.114761365
1.114133419
1.112628096
1.109513891
1.104335669
1.096419487
1.086765253
1.076164864
1.063055193
1.051640927
1.040002293
1.026519245
1.017013873
1.006894873
0.9943815542
0.9864855436
0.9785329148
0.9671532053
0.9599494235
0.9541046551
0.9448788001
0.9380177906
1.043590606
1.086473623
1.103251852
1.113696216
1.115794235
1.11525451
1.114630533
1.114856187
1.115116318
1.115121277
1.115096812
1.1150678
1.115036693
1.114925256
1.11473694
1.114190331
1.112816593
1.109889854
1.104760584
1.097364827
1.087062889
1.076066163
1.063882331
1.049869442
1.039025951
1.026845538
1.013526379
1.004372108
0.9935968949
0.9817215383
0.9745543341
0.9664463349
0.9558740527
0.9497515993
0.9440198873
0.9347825957
0.9282343174
1.084503901
1.109077114
1.109256857
1.111698799
1.114910416
1.115642935
1.115252867
1.114806548
1.114925285
1.115034661
1.115032159
1.114963927
1.114863175
1.114715369
1.114249123
1.113012386
1.110341662
1.105359854
1.097967449
1.088137217
1.075568122
1.063850755
1.050499337
1.036509059
1.025717636
1.012434895
0.9998272199
0.9915071805
0.9807408115
0.9699284468
0.9630627497
0.9544272121
0.9442935685
0.9385176556
0.932449138
0.923308187
0.9180109857
1.109002299
1.115772222
1.114796987
1.112854955
1.113318659
1.114158349
1.114699341
1.114771231
1.114878401
1.114945623
1.114935457
1.114877048
1.114736312
1.114325549
1.113252307
1.110778323
1.106140224
1.098535804
1.08876129
1.07649305
1.062832257
1.050600932
1.035637887
1.021952186
1.011544281
0.998154444
0.9869123581
0.9787788831
0.9675619147
0.9576356558
0.9512544332
0.9425052659
0.9331904848
0.9276673855
0.9209749757
0.912033721
0.9073278998
1.111547812
1.115832673
1.115660203
1.11455268
1.113468187
1.113687782
1.114135519
1.114584356
1.114827707
1.114910731
1.114891684
1.114785167
1.114422951
1.113482396
1.111215126
1.106771193
1.09944694
1.089058229
1.077289763
1.06299951
1.048557486
1.035491874
1.020190453
1.008092583
0.9977682152
0.984014584
0.9736003276
0.9653548328
0.9537670067
0.9445668587
0.9383923083
0.9295295686
0.9216866208
0.9172999456
0.9110594958
0.9032214717
0.8987038828
1.114719567
1.115055465
1.115161995
1.115009565
1.114434127
1.114046543
1.114138803
1.11433174
1.114619483
1.114789392
1.114768894
1.114569904
1.113822891
1.111819356
1.107511719
1.100340317
1.089981014
1.077110332
1.063331457
1.047465622
1.033424789
1.020320563
1.00505807
0.993280944
0.9820880408
0.9685034466
0.9597322948
0.9523104408
0.9415735561
0.9334245482
0.9270834489
0.9175991092
0.9098381064
0.9054660983
0.8993240616
0.8924666869
0.8884131882
1.116072477
1.115354253
1.11494125
1.114885347
1.114827986
1.114619169
1.114371206
1.114413924
1.114521671
1.114691747
1.114631397
1.114131191
1.112432277
1.108463302
1.101254915
1.090953455
1.077512093
1.062538754
1.047641743
1.031680172
1.017606476
1.003416868
0.988685741
0.9781341533
0.9673824916
0.9549471769
0.9465779295
0.9384440753
0.9269360343
0.920296331
0.9151738531
0.9067505536
0.9000366986
0.8951818009
0.8878250085
0.8813006686
0.8779983721
1.115054872
1.114955297
1.114956951
1.114977418
1.115059764
1.115021394
1.114812653
1.114643311
1.114633989
1.114633469
1.11432002
1.112931206
1.109326266
1.102431839
1.091711322
1.078256402
1.062552278
1.046443457
1.030582205
1.014141413
0.999886602
0.9863563211
0.9731662117
0.9633047575
0.9526220022
0.9410112395
0.9335545163
0.9246659849
0.9133940287
0.90730388
0.9016993782
0.8925498165
0.8872719799
0.8836333769
0.8767441173
0.8727723886
0.8708700725
1.114365937
1.114470111
1.114784005
1.115029711
1.115128844
1.115145514
1.115101114
1.114918266
1.114731679
1.11438587
1.113202277
1.109940105
1.103380026
1.09284874
1.078673821
1.062948438
1.045393418
1.027843374
1.012109475
0.9968127251
0.9835967178
0.9703522894
0.9574239242
0.9470890604
0.9351746314
0.9244407109
0.9185203869
0.9105259291
0.9017839213
0.8972372073
0.8909192808
0.8814626363
0.8778385807
0.874366043
0.8678502059
0.8643897078
0.8621928442
1.114449929
1.114506102
1.114631951
1.114915883
1.115123378
1.115192365
1.115156802
1.115047585
1.114654935
1.113523036
1.110519384
1.104122973
1.093820467
1.079495002
1.062264428
1.044774214
1.025951966
1.009068293
0.9940124283
0.9781748341
0.9645403158
0.9519000158
0.9414740072
0.932328559
0.9213422466
0.9122781226
0.905050209
0.8946546964
0.8872344419
0.8849965178
0.879668547
0.872031598
0.8688917812
0.8640261199
0.8567324281
0.8546913841
0.8527770425
1.114718177
1.114769129
1.114808116
1.114871624
1.115033176
1.11514306
1.115115328
1.114886398
1.113957631
1.1112093
1.105118942
1.094469094
1.08008153
1.061982772
1.042910737
1.025265063
1.006016941
0.9891325771
0.9742263443
0.9593481588
0.9465306521
0.934901592
0.924259069
0.9147253675
0.9053340525
0.8993110671
0.8934931824
0.8836068621
0.8773327802
0.8737625271
0.865521322
0.8600580504
0.8582595518
0.8535975769
0.8496181565
0.85004451
0.849062049
1.114810862
1.114934747
1.114986645
1.114981691
1.115008797
1.115076168
1.115001369
1.114372902
1.112012328
1.106257361
1.09559452
1.080018478
1.062139711
1.041411491
1.021830625
1.003287497
0.9829829612
0.9672994659
0.9545188157
0.9413930609
0.9305398216
0.9205389397
0.90949672
0.8990269458
0.8890473266
0.8831379424
0.8771359294
0.8683179528
0.8656558523
0.8621775769
0.8554313023
0.8548166765
0.8539726097
0.8503224162
0.8482468077
0.847792789
0.8458835383
1.114887943
1.115016312
1.115078534
1.115072558
1.115064587
1.115014464
1.114576943
1.112667356
1.107315922
1.096931785
1.08080766
1.061277366
1.040658989
1.017275119
0.9980795103
0.9808714884
0.9626301476
0.9485906478
0.9344698461
0.9196456484
0.9093334222
0.9005824179
0.8924674215
0.8854352349
0.8782569408
0.8730060852
0.8649321754
0.8596548516
0.8582966464
0.8544405008
0.8507157764
0.8503781105
0.8486880517
0.8455162638
0.8447108396
0.8439238479
0.8424042185
1.115069238
1.115094234
1.115124368
1.115142828
1.115098476
1.114779203
1.113226444
1.108401723
1.09800686
1.082096803
1.060679354
1.03787288
1.015115879
0.9914141437
0.9739725429
0.9565379316
0.93912354
0.9281153487
0.9162315059
0.903139261
0.8932741546
0.8838305284
0.8750014659
0.8679526312
0.8657576257
0.862709035
0.8564138185
0.8537009291
0.8510444542
0.8460441944
0.8448687333
0.8444504705
0.8430231378
0.8422916302
0.8424845823
0.8423373586
0.8419728184
1.115179751
1.115187868
1.11519986
1.115178467
1.114998904
1.113794094
1.109521991
1.099365596
1.082570917
1.060811289
1.034408788
1.011629589
0.9887541218
0.9664980186
0.950164721
0.9313736451
0.914677212
0.9047168267
0.8932058227
0.8840566234
0.879466958
0.8725842258
0.8653437603
0.8597468101
0.8559632167
0.8503714544
0.8472157325
0.8461789303
0.8444149251
0.842819533
0.8429002216
0.842772229
0.8422180262
0.8420602113
0.8423123608
0.8422502448
0.842170536
1.115263592
1.115259629
1.115252429
1.115194428
1.114327467
1.110586213
1.100961487
1.083200901
1.059701328
1.033066564
1.00526967
0.9823197854
0.9566747219
0.9361599177
0.9249944059
0.9111880812
0.8990175323
0.8892187995
0.8759855945
0.8663047101
0.8618764755
0.855210487
0.8519635153
0.8504146797
0.8467874869
0.8445136639
0.8451887487
0.8450229948
0.8438448688
0.8429599647
0.8430294183
0.8429040629
0.8426456211
0.8426153287
0.8427333726
0.8426857624
0.8430613942
1.11534701
1.115332008
1.115302637
1.114718361
1.111622513
1.10233639
1.084540076
1.058503339
1.030315608
1.00002283
0.9726008342
0.9521807193
0.929240683
0.9106505834
0.8980872123
0.8822053821
0.8760857223
0.8719678906
0.8628495848
0.8581345821
0.8535399999
0.8466827352
0.8458996844
0.8459115239
0.8445239529
0.8438928791
0.8443387228
0.8441672601
0.8433986189
0.8431064098
0.8431639021
0.843024855
0.842829831
0.8426783717
0.842836499
0.8445825261
0.8529382303
1.115409216
1.1153927
1.115049719
1.112675169
1.103987602
1.085515298
1.058247486
1.024419489
0.9934512986
0.9606821222
0.9362103405
0.9209989683
0.9037021056
0.8930028766
0.8798423226
0.8638421675
0.8585172894
0.8541494068
0.8478548308
0.8482162072
0.8472194553
0.844464507
0.8444172112
0.8443445378
0.8433184379
0.8427991384
0.8430020747
0.8430107214
0.8428313386
0.8428707456
0.8428844284
0.8427100654
0.8426533942
0.8433589398
0.848603875
0.8668892972
0.9041464361
1.115462788
1.115329468
1.113713279
1.106161697
1.086503752
1.056944344
1.019805536
0.9834652474
0.955812619
0.9270289379
0.9063707954
0.8868757818
0.8688937902
0.8661321088
0.8585454939
0.8522740937
0.8517423998
0.8482212798
0.8441140851
0.8436548479
0.8426973671
0.8418840356
0.8421304582
0.8422921796
0.842016779
0.8419966165
0.8421815924
0.8423778934
0.8425335516
0.8427015188
0.8428115401
0.8430916578
0.8455518957
0.8563930045
0.890813459
0.9304627515
0.9709226329
1.115484377
1.114666222
1.108370455
1.089001961
1.054121003
1.01356389
0.9700449745
0.9395059476
0.9080193155
0.8914251748
0.8831513058
0.8685851382
0.8572352728
0.8518923457
0.8450882774
0.8424341206
0.8435998648
0.8427931561
0.8419440357
0.8422088115
0.842007745
0.8415417594
0.8415598991
0.8417600781
0.8421006942
0.8423696326
0.8427316522
0.8428698623
0.8428628707
0.8429976954
0.8439499168
0.8491035057
0.8736546482
0.9138471412
0.9555419437
0.9863172879
1.005376474
1.115489654
1.1107775
1.092251051
1.051223732
1.006079099
0.9641680589
0.9228064624
0.9005107197
0.8757329221
0.8599397813
0.8533300236
0.8488197811
0.8492869956
0.8485757954
0.8453075617
0.8424691083
0.8422326869
0.84227475
0.8425396341
0.8430681573
0.8429673879
0.8424971664
0.8424916408
0.8425971982
0.8426494516
0.8427427459
0.8430076975
0.8432195309
0.8434589087
0.8458820465
0.859148107
0.8907043435
0.940475461
0.9852585218
0.9946402782
1.001151731
1.007251622
1.114153108
1.094603443
1.049945832
0.9868521033
0.9390435543
0.8950119142
0.8824829444
0.8758568437
0.8668814965
0.8559366658
0.8481886269
0.842042054
0.8425596153
0.8445350559
0.8448230046
0.8440981453
0.8437444076
0.8435674434
0.843679113
0.8441707785
0.8445281769
0.8442993391
0.8441582311
0.8439584063
0.8436981788
0.8433360531
0.8432910279
0.8437983529
0.8488972328
0.8760048691
0.9185344376
0.9648499097
0.9846749503
1.001578307
1.006265281
1.006398566
1.007441313
1.102272022
1.044949009
0.9680408766
0.9144834019
0.8777745053
0.8452690715
0.8434364192
0.8452197667
0.8471185928
0.8483471178
0.8468136333
0.8434462076
0.8434735712
0.8447770913
0.8459179516
0.8467350187
0.8467202686
0.8462775299
0.8456648661
0.845871916
0.846094254
0.8460784293
0.8456472047
0.8447573499
0.8439542943
0.8437980273
0.8452280728
0.8577602444
0.8949170583
0.9491686121
0.9839975293
1.001281511
1.00248195
1.006095454
1.009891661
1.009086762
1.008875085
1.049541725
0.9078382099
0.8280687679
0.8330374916
0.8371372715
0.8304164262
0.8246704394
0.8265785908
0.8295529889
0.8343282653
0.8394123907
0.8414149594
0.8430649645
0.844358322
0.84560558
0.8474802636
0.8482527744
0.8477027154
0.8468491377
0.8459033121
0.8455411742
0.8455584319
0.8454579884
0.8449852495
0.8452003276
0.8504074646
0.8732267889
0.9286810048
0.977469813
0.9910275503
1.00125401
1.011028789
1.009608414
1.009125259
1.010151156
1.010952064
1.011447924
0.9055514901
0.9169927789
0.840327526
0.841566407
0.834668023
0.8191467647
0.8169481292
0.8207189849
0.8301105813
0.8367920367
0.8430345445
0.8441370614
0.8454222025
0.8461408326
0.8470430413
0.8481562496
0.8481899305
0.8475192608
0.8467464683
0.8460194819
0.845821284
0.8456189316
0.8455302132
0.8457158496
0.8494132879
0.8686020627
0.9236794409
0.9898503447
1.011614698
1.008973973
1.008396471
1.013342104
1.011862619
1.010772644
1.011001861
1.012234106
0.9081292361
0.9138538646
0.8522337536
0.8480160006
0.8353491118
0.8176169766
0.816477524
0.8209735909
0.8304387866
0.8377381288
0.8434509943
0.8443687725
0.8453461819
0.8460233135
0.8469486719
0.848016374
0.8480515665
0.8473198186
0.8465842358
0.8459618574
0.8458115207
0.8456568462
0.8456571165
0.8463407977
0.8527161326
0.8822703648
0.9436027183
0.9970165431
1.014394093
1.010054723
1.009239323
1.013915417
1.012121027
1.01103436
1.011434497
1.012536416
0.914099871
0.9093362911
0.8610987933
0.8503131854
0.8350797682
0.8176866789
0.8167643331
0.821208206
0.8305374994
0.8384856061
0.843720844
0.8445397763
0.8454020383
0.8459731825
0.8469557684
0.8478822643
0.847927593
0.847129299
0.8464242583
0.8459125861
0.8457771967
0.8456544835
0.8457573334
0.8469878886
0.8564290114
0.8905517679
0.9531374375
1.000093179
1.014533239
1.009683719
1.009359122
1.013753783
1.011837595
1.01100119
1.011643512
1.012581361
0.9180604532
0.906670602
0.8670519089
0.8529810403
0.8351780093
0.8175518218
0.8170233398
0.8213970238
0.8306271788
0.8390989478
0.8440043813
0.8446101912
0.8453887524
0.8458833061
0.8469780504
0.8478653706
0.8477693981
0.8469226432
0.8462522938
0.8458244338
0.8457578156
0.8456864734
0.8458830427
0.8481730848
0.8612870553
0.899292551
0.961742114
1.002754285
1.013819075
1.009317587
1.009417357
1.013368717
1.01135028
1.010809776
1.011590404
1.012578074
0.9206496479
0.9042752058
0.8721516046
0.8552465282
0.8350546606
0.8175511631
0.817368503
0.8217298695
0.8308213289
0.8396162759
0.8441171759
0.8445868627
0.8453446931
0.8457957074
0.8470789829
0.8478519845
0.8476606694
0.8468237576
0.8461784983
0.8457466802
0.845724316
0.845732634
0.8461758261
0.849843513
0.8658929432
0.9179541005
0.9768352263
1.005948215
1.01276028
1.008676657
1.009201231
1.012844205
1.010782958
1.010478027
1.01149877
1.01270539
0.9219492679
0.9028495945
0.875852172
0.8577353471
0.8348471879
0.81741798
0.8175102385
0.8220947146
0.8314400755
0.8403741664
0.8441162836
0.8445150454
0.8452662398
0.8457546669
0.8470404358
0.8477790719
0.8474871401
0.8466738733
0.8460934434
0.845690972
0.8456854737
0.8457804718
0.8466404602
0.8516905157
0.8751281058
0.9370260616
0.9911231127
1.008831273
1.012204319
1.008082383
1.008871711
1.012057737
1.010055679
1.010069796
1.011270325
1.012707288
0.9218796431
0.9023660475
0.8789881128
0.8595402044
0.8346909289
0.8174687506
0.817605632
0.8223244336
0.831986782
0.8406745192
0.8440583884
0.8444253911
0.8451663811
0.8457568112
0.8470342528
0.8476240728
0.8472455274
0.8464472392
0.8459668999
0.8456553795
0.8456499247
0.8458275834
0.8470843001
0.8547152148
0.8887589294
0.9495571985
0.9976559466
1.010071753
1.01175044
1.007857968
1.008643146
1.011575911
1.009632343
1.009599707
1.010926406
1.012527031
0.9214525155
0.9021122748
0.8821800113
0.8611328669
0.8345407178
0.8180697492
0.818073786
0.8227115407
0.8323027969
0.8407320979
0.8439318701
0.8443698314
0.8450413951
0.8457225213
0.8470031394
0.8475008287
0.8470614969
0.8463358533
0.8459114165
0.8456103142
0.8456607609
0.8460203841
0.847904499
0.8598954129
0.8986556649
0.9618142764
0.9985615675
1.010731738
1.011465443
1.00773013
1.00858919
1.011161312
1.009520052
1.009453676
1.010754403
1.01216607
0.920630753
0.902321287
0.8859134084
0.862290529
0.8343063001
0.8186097283
0.8187061528
0.8233316929
0.832675583
0.8408345821
0.8437116904
0.8443303118
0.8448541538
0.8456393005
0.8469387011
0.8473969187
0.846922991
0.8462688089
0.845884471
0.845609199
0.8456940763
0.8462596911
0.8495998526
0.8657071994
0.9090207791
0.9702013987
1.000589953
1.011155098
1.010923053
1.007674094
1.008639205
1.010755679
1.009195016
1.009275597
1.010464338
1.011714333
0.9195416763
0.9027330723
0.8869948335
0.8627873038
0.8338901103
0.8188498907
0.8191144006
0.8239082578
0.8331685276
0.8409889034
0.8434429581
0.8442139196
0.8446622866
0.8455165631
0.8468202662
0.8472684666
0.8467899372
0.8462424459
0.8458776908
0.8456425882
0.8457505451
0.8466371705
0.8516264481
0.871525074
0.925880527
0.9775896021
1.005260428
1.011704716
1.010344127
1.007654584
1.008794545
1.010478599
1.008914848
1.008942401
1.010225577
0.9183676126
0.9032373309
0.8884413999
0.8631281836
0.8336897629
0.8192176594
0.8195382975
0.8244473926
0.833785479
0.8409451011
0.8432246412
0.8440641631
0.8445182013
0.8454189822
0.8466795378
0.8470893515
0.8466347422
0.8462031742
0.8459041285
0.8456536511
0.8457975238
0.8471666093
0.8538839907
0.8820297625
0.9395886075
0.9896840757
1.007999806
1.012264005
1.01017237
1.007637229
1.009099614
1.010370067
1.008749458
1.008820471
1.010237782
0.9170101231
0.9039162079
0.8896241592
0.8637986722
0.8337375855
0.8202122199
0.8203159706
0.8251229913
0.8344065733
0.8407978596
0.8430234437
0.8438782544
0.8443058974
0.8453527035
0.846561053
0.8468519266
0.8464415467
0.8461268207
0.845893362
0.8456692773
0.8460051108
0.8480340727
0.8581600576
0.8945659269
0.9537286342
0.9996040468
1.00912327
1.012361832
1.010076815
1.007746456
1.009309503
1.010206527
1.008989073
1.009044634
1.010496936
0.9153504134
0.9043340744
0.8906018584
0.8643702233
0.8342153862
0.8214213603
0.8214707714
0.8260575186
0.8344967342
0.8405851437
0.8427593643
0.8435868011
0.8440987706
0.8452942095
0.8464679583
0.8465717631
0.8462567992
0.8460225272
0.8458607884
0.8457196474
0.8463517045
0.8496352271
0.8639945686
0.9076732662
0.9715735344
1.003015536
1.009196365
1.012073803
1.010076926
1.007843345
1.009399645
1.010277429
1.009213576
1.009417877
1.010914203
0.9139266885
0.9042608359
0.8911579184
0.864556851
0.8344001993
0.8220631235
0.8222508985
0.8267520734
0.8344422234
0.8402449383
0.8424610006
0.8432978581
0.843930047
0.8452068956
0.8463314743
0.8463264779
0.8461090343
0.8459680658
0.8458346373
0.8457962252
0.8467390532
0.8512899265
0.8706297573
0.9238079732
0.984641164
1.003081831
1.008620873
1.011338877
1.010016838
1.008043913
1.009506688
1.010300857
1.009335189
1.009634394
1.011057654
0.9130591815
0.9042835823
0.8912630021
0.8643681172
0.8339478727
0.8222958458
0.8227193964
0.827153413
0.8343764146
0.8398463165
0.8422105233
0.8431167133
0.8437956149
0.8451045757
0.8461215178
0.8460854321
0.8459685613
0.8459342565
0.8458273744
0.8458990617
0.8471577195
0.8532538547
0.8801387346
0.9410473858
0.9872771637
1.005014125
1.009001672
1.01081213
1.009784342
1.00814237
1.009497464
1.010075567
1.009351312
1.009707394
1.011118034
0.9118749515
0.9042856092
0.8911567907
0.8639283478
0.834182736
0.8227288012
0.8232923096
0.8275554026
0.8343679979
0.8394648627
0.8419027922
0.8429010906
0.8437222551
0.8450177887
0.8459825882
0.8459392556
0.8458486043
0.845873431
0.84580889
0.8460146637
0.847917431
0.8572227951
0.8938027868
0.9498800319
0.9908386878
1.008591424
1.010134254
1.011049354
1.009143545
1.008226201
1.009529436
1.009799814
1.009117476
1.009476272
1.011031755
0.9105289566
0.9041751055
0.8911174461
0.8637790174
0.835135757
0.8239819176
0.824261458
0.8280554539
0.8345090543
0.8390865448
0.8414241428
0.8425565025
0.8436212823
0.8449616649
0.845904671
0.8459108345
0.8458406485
0.8458039757
0.845774094
0.8462208764
0.8492162996
0.8639098562
0.9035895441
0.9570637639
0.9979825109
1.009375394
1.011356246
1.011537101
1.009420704
1.008523183
1.009711058
1.009685498
1.009060148
1.009355985
1.010791846
0.9089531995
0.903823286
0.8913651842
0.8637016708
0.8363536045
0.82597316
0.8258978365
0.8287659367
0.8345129713
0.8387326705
0.8410435217
0.8422956699
0.8434469121
0.8448368071
0.8457877809
0.8458658972
0.845862264
0.845812384
0.8457746768
0.8466255325
0.8513286918
0.8694602969
0.9132891488
0.9735127077
1.004244943
1.009680466
1.011420113
1.012026984
1.009664284
1.009023494
1.010144156
1.009804734
1.00917881
1.00950051
0.9073629039
0.9033800943
0.8919200543
0.863399459
0.8373609125
0.8274681821
0.8270412596
0.8293895343
0.8342700484
0.8383494848
0.8407797723
0.8421314542
0.8432922377
0.8446422655
0.8455309968
0.8457108172
0.8458455876
0.8458146372
0.8457987882
0.8471000229
0.8533802822
0.8757552195
0.9337656827
0.9897031773
1.00684685
1.009293635
1.010951544
1.012146348
1.010036467
1.009415149
1.0105376
1.010244907
1.009544844
1.009727069
0.9058962613
0.9029116689
0.8919931168
0.8626242275
0.8382754419
0.8284080462
0.8275631787
0.8294703264
0.8339196101
0.8378892607
0.8404787302
0.841935459
0.8432556971
0.8445034805
0.8451043536
0.8453785832
0.8457128497
0.8457726936
0.8459190296
0.8476909691
0.8558815203
0.8886268874
0.9548217497
0.996102588
1.006801134
1.008524253
1.010533786
1.011842404
1.010141365
1.009823816
1.010877281
1.010565222
1.010065793
1.010245964
0.904669627
0.9026113935
0.891790706
0.8633198532
0.8393654498
0.8292136692
0.8278414518
0.829479561
0.8334552944
0.8372140909
0.8400595689
0.8417585429
0.843246063
0.844465554
0.8450086777
0.8452633535
0.8455534456
0.8456929396
0.8460967577
0.8488415321
0.8625020244
0.9047445884
0.9624655202
0.9977704664
1.007790333
1.008967606
1.010564413
1.011463142
1.009986911
1.009907592
1.0110963
1.010796622
1.010384962
1.010701568
0.9038383769
0.9026823697
0.8924737071
0.8644646078
0.8414322722
0.8303508296
0.8281129684
0.829476241
0.8329945638
0.8364942732
0.8396426412
0.8416200568
0.8432437629
0.8444391652
0.8450235134
0.8452729672
0.8455340684
0.8456793055
0.8464457648
0.8508809785
0.8690528326
0.9145576088
0.968115507
1.001596367
1.009702482
1.009821586
1.011039479
1.011224523
1.009931696
1.009784991
1.011023066
1.010868739
1.010650014
1.010952663
0.9034846816
0.90316559
0.8935104074
0.8659259891
0.8438538284
0.8320154368
0.8285324734
0.8295454086
0.8326884078
0.8361008788
0.8393642762
0.8415082293
0.8432544596
0.8444325079
0.8449748309
0.8452751361
0.8455228463
0.8456811588
0.8468104394
0.8531802566
0.874499502
0.9257291871
0.9816942713
1.006514002
1.010615091
1.011071274
0.9033846663
)
;

boundaryField
{
    inlet
    {
        type            fixedValue;
        value           nonuniform 0();
    }
    outlet
    {
        type            inletOutlet;
        inletValue      nonuniform 0();
        value           nonuniform 0();
    }
    bottom
    {
        type            slip;
    }
    top
    {
        type            slip;
    }
    obstacle
    {
        type            zeroGradient;
    }
    defaultFaces
    {
        type            empty;
    }
    procBoundary9to3
    {
        type            processor;
        value           nonuniform List<scalar> 
38
(
1.112800577
1.113471089
1.114109762
1.114331551
1.114574588
1.114621303
1.114553996
1.114236943
1.1134386
1.111890909
1.109308318
1.10554766
1.100481055
1.094399839
1.087549482
1
1
1
1
1
1
1
1
1
1.000000008
1.000000267
1.000004891
1.000087463
1.000678667
1.005235677
1.017891186
1.047501234
1.081466865
1.100975741
1.106163219
1.110961659
1.113787633
1.113787633
)
;
    }
    procBoundary9to4
    {
        type            processor;
        value           nonuniform List<scalar> 9(1.07228852 1.064205096 1.055623537 1.046887892 1.038231146 1.028947753 1.019814631 1.010328346 1.000678235);
    }
    procBoundary9to8
    {
        type            processor;
        value           nonuniform List<scalar> 6(1 1 1 1 1 1);
    }
    procBoundary9to10
    {
        type            processor;
        value           nonuniform List<scalar> 
55
(
0.9916747783
0.9820487136
0.9723894742
0.9631858536
0.9530883458
0.9432899749
0.933750989
0.9234720365
0.913807491
0.9032480346
0.8940990425
0.8833939543
0.8730054625
0.866679339
0.8567806644
0.8483820534
0.8468385842
0.8445106671
0.8421968698
0.8419973227
0.8423356045
0.8469375689
0.8827813654
0.9522745028
0.9858855742
1.004939849
1.007375848
1.008253203
1.009092041
1.011801357
1.012920532
1.012920532
1.0131967
1.013158545
1.012983225
1.012871434
1.012765709
1.01262427
1.012554119
1.012261324
1.011467889
1.011467889
1.011255672
1.01123655
1.011505666
1.01165664
1.01168916
1.01177657
1.011713122
1.01078407
1.01078407
1.010894424
1.011183974
1.011659639
1.01191059
)
;
    }
    procBoundary9to14
    {