/*--------------------------------*- C++ -*----------------------------------*\
  =========                 |
  \\      /  F ield         | OpenFOAM: The Open Source CFD Toolbox
   \\    /   O peration     | Website:  https://openfoam.org
    \\  /    A nd           | Version:  7
     \\/     M anipulation  |
\*---------------------------------------------------------------------------*/
FoamFile
{
    version     2.0;
    format      ascii;
    class       volScalarField;
    location    "0.3";
    object      rho;
}
// * * * * * * * * * * * * * * * * * * * * * * * * * * * * * * * * * * * * * //

dimensions      [1 -3 0 0 0 0 0];

internalField   nonuniform List<scalar> 5(1.396554365 1.403521749 1.394815645 1.401015152 1.393775866);

boundaryField
{
    inlet
    {
        type            calculated;
        value           nonuniform 0();
    }
    outlet
    {
        type            calculated;
        value           nonuniform List<scalar> 3(1.39672599 1.395025423 1.393950224);
    }
    bottom
    {
        type            calculated;
        value           nonuniform 0();
    }
    top
    {
        type            calculated;
        value           nonuniform 0();
    }
    obstacle
    {
        type            calculated;
        value           nonuniform 0();
    }
    defaultFaces
    {
        type            empty;
    }
    procBoundary23to16
    {
        type            processor;
        value           nonuniform List<scalar> 2(1.405371177 1.413016928);
    }
    procBoundary23to17
    {
        type            processor;
        value           nonuniform List<scalar> 3(1.398673288 1.405991937 1.405991937);
    }
    procBoundary23to29
    {
        type            processor;
        value           nonuniform List<scalar> 2(1.400798749 1.393814539);
    }
}


// ************************************************************************* //
