/*--------------------------------*- C++ -*----------------------------------*\
  =========                 |
  \\      /  F ield         | OpenFOAM: The Open Source CFD Toolbox
   \\    /   O peration     | Website:  https://openfoam.org
    \\  /    A nd           | Version:  7
     \\/     M anipulation  |
\*---------------------------------------------------------------------------*/
FoamFile
{
    version     2.0;
    format      ascii;
    class       volVectorField;
    location    "0.9";
    object      U;
}
// * * * * * * * * * * * * * * * * * * * * * * * * * * * * * * * * * * * * * //

dimensions      [0 1 -1 0 0 0 0];

internalField   nonuniform List<vector> 
200
(
(3 -2.28823291e-16 0)
(3 -1.64659405e-16 0)
(3 -1.075922138e-15 0)
(3 -2.161121723e-15 0)
(3 -2.349769492e-15 0)
(3 -2.106018004e-16 0)
(3 4.831716353e-16 0)
(3 -9.947910118e-16 0)
(3 -1.386288036e-15 0)
(3 -1.475883542e-15 0)
(3 8.600744481e-16 0)
(3 2.564972343e-15 0)
(3 1.987130485e-15 0)
(3 2.785065231e-15 0)
(3 3.655103391e-15 0)
(3 3.908962424e-16 0)
(3 1.007110451e-15 0)
(3 2.237826383e-15 0)
(3 1.901712709e-15 0)
(3 1.870724592e-15 0)
(3 3.070162555e-16 0)
(3 -6.885347136e-17 0)
(3 1.594718166e-17 0)
(3 -8.339645842e-16 0)
(3 -2.419259057e-15 0)
(3 -1.046733524e-11 0)
(3.000000012 3.998757619e-09 0)
(3.000000016 2.741903133e-09 0)
(3.000000016 -7.313351619e-09 0)
(2.999999972 -6.294197854e-08 0)
(2.999999984 -2.910791394e-08 0)
(3.000000278 3.181229431e-07 0)
(2.999999231 -1.843697705e-06 0)
(2.999997697 -1.118024634e-05 0)
(2.999988129 -2.925262468e-05 0)
(2.999989919 -1.755827148e-05 0)
(2.999948898 -8.634582156e-05 0)
(2.999724887 -0.0005298659192 0)
(2.999339029 -0.001323936015 0)
(2.998205435 -0.003812321775 0)
(2.998496617 -0.002428708112 0)
(2.995416677 -0.007832716885 0)
(2.989087105 -0.02030596504 0)
(2.98277785 -0.03450124409 0)
(2.966722706 -0.07474640903 0)
(2.987330696 -0.003719463003 0)
(2.973872475 -0.004538350181 0)
(2.958831077 -0.02051466999 0)
(2.947687184 -0.02624113209 0)
(2.928660004 -0.0535615964 0)
(2.999482085 -0.000763739016 0)
(2.994937529 -0.00787286011 0)
(2.985635406 -0.01617633514 0)
(2.984031992 -0.008950839146 0)
(2.990651716 -0.0007666617206 0)
(2.99816619 -0.008254549243 0)
(2.996775732 -0.03617565663 0)
(2.988112767 -0.02712830042 0)
(2.990000917 -0.008185537305 0)
(2.994520725 0.01313705891 0)
(2.993862735 -0.03394533413 0)
(2.993052765 -0.0369601974 0)
(2.996336711 -0.01654287299 0)
(2.996701465 0.009277974989 0)
(3.00486995 0.03639838608 0)
(2.965712204 -0.07859655663 0)
(2.980104194 -0.04236483797 0)
(2.992826767 -0.003863471492 0)
(3.001094175 0.01623348746 0)
(3.004321964 0.01655376215 0)
(2.960459646 -0.01303921781 0)
(3.010306831 0.1130181295 0)
(3.008130152 0.07866361765 0)
(2.996538743 0.02910576638 0)
(2.994872791 0.002605460188 0)
(2.923540629 0.2364831193 0)
(3.002954355 0.1103424089 0)
(3.002396297 0.03505373629 0)
(2.983700062 -0.001018877467 0)
(2.978871131 -0.003154709822 0)
(2.867225765 0.2072539896 0)
(2.970794384 0.07998088597 0)
(2.978284935 0.01809491788 0)
(2.969420517 -0.003647456695 0)
(2.970181867 -0.0004303117062 0)
(2.83422918 0.1428504262 0)
(2.905299632 0.04973593668 0)
(2.932308238 0.01226389239 0)
(2.940735379 -0.001452499344 0)
(2.95292855 -0.0011395079 0)
(2.753761193 0.09580624539 0)
(2.836854466 0.03105795391 0)
(2.895986346 0.006080574519 0)
(2.913035248 -0.001500707819 0)
(2.937120351 6.669456397e-05 0)
(2.689668549 0.03338666274 0)
(2.799280411 0.02835740889 0)
(2.888105552 0.001265602964 0)
(2.902282748 -0.002053765076 0)
(2.930950332 -0.0005426415913 0)
(2.692176036 -0.03077921451 0)
(2.802588247 -0.0197147381 0)
(2.888942851 -0.004524614155 0)
(2.902262616 0.002001009938 0)
(2.930968563 0.0004220885311 0)
(2.752144602 -0.09424214787 0)
(2.834824923 -0.0366170116 0)
(2.896590786 -0.006654296825 0)
(2.913267197 0.001230865727 0)
(2.937144808 -0.0001736049425 0)
(2.833487461 -0.144236695 0)
(2.902060283 -0.05648295773 0)
(2.931301404 -0.01156034159 0)
(2.94125318 0.002196096042 0)
(2.952969847 0.001279885208 0)
(2.866129353 -0.2084289722 0)
(2.968710257 -0.08054123761 0)
(2.978218717 -0.01681048237 0)
(2.96889843 0.004658175689 0)
(2.970144519 0.0005012944219 0)
(2.925342438 -0.2360478347 0)
(3.002572616 -0.1084594613 0)
(3.001974327 -0.03273281731 0)
(2.983296516 0.001194265424 0)
(2.978672304 0.003109179343 0)
(2.960488663 0.01302101872 0)
(3.010343663 -0.1129013601 0)
(3.008161355 -0.07869034396 0)
(2.996560575 -0.0291752157 0)
(2.994847172 -0.002611564058 0)
(2.965711146 0.07860093983 0)
(2.980088512 0.04230931496 0)
(2.992818042 0.003879416898 0)
(3.001136191 -0.01631038049 0)
(3.004303577 -0.01656937948 0)
(2.99386193 0.03394373913 0)
(2.993052648 0.03695856495 0)
(2.996338595 0.01654152932 0)
(2.996706324 -0.009289295942 0)
(3.00487061 -0.03641424368 0)
(2.998165655 0.008253720629 0)
(2.996777872 0.03617518088 0)
(2.988112284 0.02712568804 0)
(2.990002414 0.008182413278 0)
(2.99452296 -0.01314858438 0)
(2.999482075 0.0007636683955 0)
(2.994937842 0.007873544386 0)
(2.985636827 0.01617564807 0)
(2.984034174 0.008949348321 0)
(2.990652931 0.000763426894 0)
(2.987330695 0.003719453841 0)
(2.973872474 0.004538361356 0)
(2.958831075 0.02051467828 0)
(2.947687187 0.02624111318 0)
(2.928660002 0.05356162467 0)
(2.998496617 0.002428708125 0)
(2.995416677 0.00783271684 0)
(2.989087105 0.02030596148 0)
(2.982777849 0.03450125534 0)
(2.966722664 0.07474638155 0)
(2.99998992 1.755798194e-05 0)
(2.999948897 8.634695078e-05 0)
(2.999724888 0.0005298616249 0)
(2.999339026 0.001323942677 0)
(2.998205439 0.00381232921 0)
(2.999999984 2.910771203e-08 0)
(3.000000278 -3.181591694e-07 0)
(2.999999231 1.843662275e-06 0)
(2.999997697 1.118229611e-05 0)
(2.99998813 2.925074956e-05 0)
(3 1.046636592e-11 0)
(3.000000012 -4.035351998e-09 0)
(3.000000016 -2.737160789e-09 0)
(3.000000016 7.336919684e-09 0)
(2.999999972 6.295973175e-08 0)
(3 -6.454133418e-17 0)
(3 -2.329014853e-16 0)
(3 -8.005534647e-16 0)
(3 -6.613974786e-16 0)
(3 -8.460575694e-16 0)
(3 -9.853878056e-16 0)
(3 -1.883013726e-15 0)
(3 -2.579775862e-15 0)
(3 -2.232811212e-15 0)
(3 -1.210447684e-15 0)
(3 -5.465577428e-16 0)
(3 -1.648068103e-15 0)
(3 -2.940017215e-15 0)
(3 -2.777522484e-15 0)
(3 -1.857581337e-15 0)
(3 4.73903684e-16 0)
(3 2.68320956e-16 0)
(3 -2.988299971e-16 0)
(3 2.991166312e-16 0)
(3 5.78213502e-16 0)
(3 1.488681415e-16 0)
(3 -4.494152409e-18 0)
(3 1.31374202e-16 0)
(3 1.096788665e-15 0)
(3 1.048522249e-15 0)
)
;

boundaryField
{
    inlet
    {
        type            fixedValue;
        value           uniform (3 0 0);
    }
    outlet
    {
        type            inletOutlet;
        inletValue      uniform (3 0 0);
        value           nonuniform List<vector> 
20
(
(2.994847172 -0.002611564058 0)
(3.004303577 -0.01656937948 0)
(3.00487061 -0.03641424368 0)
(2.99452296 -0.01314858438 0)
(2.990652931 0.000763426894 0)
(2.930968563 0.0004220885311 0)
(2.937144808 -0.0001736049425 0)
(2.952969847 0.001279885208 0)
(2.970144519 0.0005012944219 0)
(2.978672304 0.003109179343 0)
(2.978871131 -0.003154709822 0)
(2.970181867 -0.0004303117062 0)
(2.95292855 -0.0011395079 0)
(2.937120351 6.669456397e-05 0)
(2.930950332 -0.0005426415913 0)
(2.990651716 -0.0007666617206 0)
(2.994520725 0.01313705891 0)
(3.00486995 0.03639838608 0)
(3.004321964 0.01655376215 0)
(2.994872791 0.002605460188 0)
)
;
    }
    bottom
    {
        type            slip;
    }
    top
    {
        type            slip;
    }
    obstacle
    {
        type            slip;
    }
    defaultFaces
    {
        type            empty;
    }
}


// ************************************************************************* //
