/*--------------------------------*- C++ -*----------------------------------*\
  =========                 |
  \\      /  F ield         | OpenFOAM: The Open Source CFD Toolbox
   \\    /   O peration     | Website:  https://openfoam.org
    \\  /    A nd           | Version:  7
     \\/     M anipulation  |
\*---------------------------------------------------------------------------*/
FoamFile
{
    version     2.0;
    format      ascii;
    class       volScalarField;
    location    "4";
    object      p;
}
// * * * * * * * * * * * * * * * * * * * * * * * * * * * * * * * * * * * * * //

dimensions      [1 -1 -2 0 0 0 0];

internalField   nonuniform List<scalar> 
2222
(
1
1
1
1
1
1
1
1
1
1
1
1
1
1
1
1
1
1
1
1.000000021
1.000063213
1.006684966
2.485193367
7.734244785
13.06271622
12.61099531
11.359338
10.30610647
9.606243252
9.059037551
8.57023306
8.128715266
7.729126727
7.361945283
7.02432793
6.716897143
6.433423404
1
1
1
1
1
1
1
1
1
1
1
1
1
1
1
1
1
1
1.000000338
1.00052556
1.077964223
2.321825707
5.93522621
11.44952079
12.46731492
11.3404449
10.34151524
9.629570731
9.067174591
8.579176414
8.143332847
7.741961275
7.368247358
7.025569578
6.715733307
6.431268667
1
1
1
1
1
1
1
1
1
1
1
1
1
1
1
1
1
1.000000003
1.000006311
1.004049616
1.432136004
3.045508134
4.233086023
10.26696191
12.47926493
11.29532982
10.33756573
9.622997869
9.056650375
8.560871881
8.121659867
7.722814411
7.353671381
7.014659574
6.705832067
6.420688063
1
1
1
1
1
1
1
1
1
1
1
1
1
1
1
1
1
1.000000048
1.000105685
1.032882919
2.138306275
3.854743965
3.958704245
7.644129965
11.97109639
11.29284435
10.38562762
9.641940064
9.063614654
8.569838254
8.125968691
7.722091385
7.352025813
7.013060242
6.702171896
6.41373774
1
1
1
1
1
1
1
1
1
1
1
1
1
1
1
1
1
1.000001269
1.001276067
1.204613669
2.945189448
4.106653419
4.049071601
5.182437224
10.70888436
11.25603234
10.39032616
9.642374588
9.050192655
8.550567618
8.106164357
7.706531429
7.343516688
7.008733272
6.695979284
6.402832464
1
1
1
1
1
1
1
1
1
1
1
1
1
1
1
1
1.000000016
1.000024203
1.01216819
1.714783954
3.614983401
4.19172511
4.134720535
4.143241541
8.699648548
11.1089836
10.35453343
9.654298178
9.054129957
8.546401599
8.097654643
7.698991113
7.340316408
7.007567754
6.69148875
6.392218015
1
1
1
1
1
1
1
1
1
1
1
1
1
1
1
1
1.000000375
1.000296606
1.091164827
2.511522032
3.962737385
4.181211851
4.093114524
3.946015706
6.135074849
10.41979791
10.29634868
9.658101574
9.052797878
8.535644425
8.084819234
7.689802882
7.335153903
7.00356704
6.684470538
6.379828566
1
1
1
1
1
1
1
1
1
1
1
1
1
1
1
1.000000005
1.000005378
1.002738398
1.419563514
3.302387087
4.108109762
4.143177385
4.038894267
3.868815525
4.35660619
8.879339634
10.24197407
9.637629503
9.055469645
8.525091233
8.070536251
7.678008121
7.326418377
6.994906071
6.674128921
6.365737973
1
1
1
1
1
1
1
1
1
1
1
1
1
1
1
1.000000073
1.000054808
1.022262344
2.109341147
3.773738345
4.191604852
4.145785519
4.012986874
3.81171799
3.778121863
6.819884855
9.880753932
9.58776559
9.03549913
8.508664398
8.058908463
7.667270521
7.316466776
6.982442546
6.658235501
6.348683257
1
1
1
1
1
1
1
1
1
1
1
1
1
1
1.000000001
1.000000803
1.000460455
1.14024104
2.949297776
3.919240498
4.174670594
4.116874442
3.987395169
3.782536038
3.663175216
4.802395105
8.901148701
9.546157969
9.021807867
8.52782489
8.082871657
7.684173968
7.319659042
6.972520233
6.641622578
6.33049049
1
1
1
1
1
1
1
1
1
1
1
1
1
1
1.000000009
1.000007977
1.003734879
1.530455911
3.601685655
4.171799984
4.172943692
4.084387083
3.939545006
3.758307632
3.608050787
3.721203468
7.218321826
9.385253055
8.962766247
8.485814452
8.032553753
7.634429732
7.277087618
6.938352418
6.613585159
6.30577933
1
1
1
1
1
1
1
1
1
1
1
1
1
1
1.000000071
1.000078243
1.03014406
2.25375846
3.907450359
4.231536319
4.181603255
4.057719583
3.889353881
3.732689925
3.575396294
3.489605476
5.118293445
8.694037315
8.906456761
8.475543664
8.008462714
7.61373037
7.252434225
6.912157217
6.590531633
6.282635859
1
1
1
1
1
1
1
1
1
1
1
1
1
1
1.000000743
1.000801902
1.184730235
3.116077524
4.181714323
4.231465857
4.147624028
4.021949114
3.853368838
3.700611989
3.540251395
3.432101318
3.715385843
7.20869344
8.831140254
8.420993352
7.965453391
7.571220089
7.212697701
6.877764856
6.560283268
6.253851938
1
1
1
1
1
1
1
1
1
1
1
1
1
1.000000005
1.000011103
1.008583162
1.66841368
3.846704037
4.331574725
4.259417137
4.105266464
3.973962832
3.820177502
3.645465196
3.517185893
3.385474767
3.31489643
5.272757538
8.356247371
8.33633523
7.938749149
7.543496808
7.178219873
6.843146037
6.528993537
6.225617998
1
1
1
1
1
1
1
1
1
1
1
1
1
1.000000102
1.000175228
1.074853155
2.503824866
4.213696662
4.302993469
4.217655423
4.067604735
3.929296444
3.791419224
3.606255518
3.490157077
3.343323099
3.239346271
3.724777105
7.027471426
8.211738977
7.894363045
7.517828328
7.146941929
6.811586574
6.498857593
6.196637313
1
1
1
1
1
1
1
1
1
1
1
1
1.000000001
1.00000231
1.002368907
1.38714937
3.392418435
4.324546119
4.305921453
4.197761411
4.039291249
3.887757819
3.754951488
3.575562454
3.439280136
3.326301324
3.197898768
3.184364861
5.31419836
7.84252499
7.843754815
7.490837646
7.115469508
6.779092979
6.467429321
6.168084732
1
1
1
1
1
1
1
1
1
1
1
1
1.00000002
1.000037544
1.025020016
2.092251158
3.976487636
4.397950501
4.356848701
4.210252367
4.017069488
3.856096774
3.709534524
3.549492606
3.388677141
3.302463177
3.163010058
3.060640214
3.715851505
6.791167608
7.716191454
7.438012991
7.092489371
6.759082351
6.445665958
6.147370344
1
1
1
1
1
1
1
1
1
1
1
1
1.000000397
1.000423398
1.175037424
2.951072522
4.191824305
4.378794662
4.305118247
4.143311781
3.961422367
3.814570142
3.665628217
3.520155549
3.348747436
3.25583243
3.137093084
3.003332704
3.035897101
5.241384017
7.42627061
7.353020275
7.04647737
6.708171083
6.391318889
6.099415306
1
1
1
1
1
1
1
1
1
1
1
1.000000003
1.00000587
1.003863759
1.65542107
3.651047147
4.365016934
4.370675129
4.261525587
4.089712628
3.910802113
3.771397984
3.62912181
3.478781483
3.319448435
3.200664456
3.115437496
2.973763904
2.877936062
3.660951581
6.49517905
7.245682707
6.999214039
6.675054565
6.357116571
6.070028089
1
1
1
1
1
1
1
1
1
1
1
1.000000044
1.000065151
1.032324394
2.452880517
4.012723596
4.429743416
4.367297084
4.231578269
4.052849736
3.87240884
3.7330153
3.593143468
3.435384757
3.295951706
3.160976353
3.081585171
2.945827901
2.81673775
2.899386857
5.13999099
7.026399586
6.920785226
6.63196651
6.313333329
6.029765978
1
1
1
1
1
1
1
1
1
1
1
1.000000662
1.000594615
1.198147893
3.272446278
4.161669125
4.370339638
4.333373046
4.198812337
4.018144265
3.831680854
3.686905622
3.550423392
3.396566834
3.256964173
3.130635656
3.032317126
2.923479411
2.781598636
2.714465078
3.6273889
6.236110149
6.819614424
6.585536177
6.278145838
6.002398211
1
1
1
1
1
1
1
1
1
1
1.000000003
1.000009166
1.005280532
1.684977702
3.851293398
4.37269743
4.384587023
4.294017958
4.144135124
3.969314451
3.784760164
3.640903594
3.50759135
3.36496257
3.21718338
3.102605256
2.982999351
2.896813021
2.750224088
2.650247443
2.797222778
5.058059305
6.663648888
6.513615519
6.241678253
5.970124524
1
1
1
1
1
1
1
1
1
1
1.000000053
1.000107979
1.044392421
2.490467312
4.06356571
4.399718224
4.375507723
4.247287657
4.096347104
3.934300581
3.749391086
3.605238689
3.467170903
3.321802468
3.174141007
3.063035208
2.944413043
2.854200797
2.728773021
2.607952749
2.569334864
3.618879669
6.028610689
6.406543159
6.208547437
5.941986206
1
1
1
1
1
1
1
1
1
1
1.000001038
1.001149448
1.256746002
3.347522865
4.396894557
4.405230764
4.34444054
4.202133919
4.055510269
3.900584079
3.711605828
3.56254532
3.423382575
3.283364925
3.136223389
3.018743578
2.909811702
2.800547519
2.703882375
2.568943645
2.499041458
2.718986857
4.979797556
6.317532916
6.155312262
5.911541281
1
1
1
1
1
1
1
1
1
1.000000007
1.000017278
1.011804008
1.835704461
4.011425258
4.487830389
4.444755262
4.323314979
4.163050034
4.010100203
3.853765992
3.6656176
3.511065904
3.380780438
3.244436496
3.101104651
2.976172919
2.872553445
2.755697337
2.662708154
2.546796649
2.454020916
2.434654733
3.627901055
5.836462729
6.04653234
5.881739271
1
1
1
1
1
1
1
1
1
1.000000184
1.000221533
1.096479731
2.708274301
4.319648437
4.431173286
4.379303532
4.266064415
4.114676143
3.962159067
3.809133027
3.629883637
3.467241024
3.338822886
3.203467569
3.064062394
2.935778957
2.83272294
2.721878817
2.616064236
2.528873314
2.41688997
2.356504077
2.664426276
4.875768963
6.005065477
5.831117241
1
1
1
1
1
1
1
1
1.000000001
1.000003158
1.002315228
1.455046992
3.545340453
4.471192134
4.45125795
4.349733079
4.218500332
4.065976464
3.915131162
3.767651505
3.600234759
3.431647815
3.301114189
3.166830998
3.025202678
2.8982224
2.789670999
2.689395442
2.57514782
2.493912857
2.392251109
2.308231409
2.316983948
3.660885026
5.673044618
5.713635295
1
1
1
1
1
1
1
1
1.000000027
1.000037434
1.021201649
2.190208529
4.068125209
4.511736847
4.475973314
4.357277042
4.192704768
4.029865805
3.87494056
3.72501683
3.563554308
3.390566384
3.259008518
3.130055857
2.987729031
2.861449912
2.746801496
2.652563754
2.539049357
2.446263183
2.374212582
2.27633293
2.220073139
2.642568576
4.76994637
5.607820418
1
1
1
1
1
1
1
1
1.000000402
1.000338045
1.146590401
3.060823223
4.229081252
4.481566152
4.430941714
4.301990988
4.147436603
3.982786652
3.826354207
3.674778473
3.518968336
3.345578314
3.213158679
3.088962019
2.949964239
2.81881794
2.708946297
2.610100225
2.505798312
2.40309899
2.341818069
2.246252468
2.170004366
2.206479749
3.674483541
5.369442609
1
1
1
1
1
1
1
1.000000004
1.000004888
1.002843838
1.579285452
3.760406208
4.488819687
4.499236555
4.409209381
4.258150112
4.0997038
3.932649044
3.775124659
3.62378866
3.473540053
3.302424985
3.170772019
3.048835901
2.914482609
2.776393897
2.673980737
2.566010244
2.473654854
2.367141665
2.300040177
2.224005221
2.136926556
2.084960395
2.625321239
4.657898691
1
1
1
1
1
1
1
1.00000004
1.000050535
1.025007099
2.369676084
4.125460425
4.538974304
4.508401331
4.387862076
4.223375113
4.060645784
3.888086649
3.729307042
3.578309562
3.431173715
3.262185095
3.130605841
3.007348291
2.87794496
2.737338232
2.636746429
2.52709647
2.436717324
2.336310205
2.256535291
2.196250653
2.101138291
2.037737241
2.114843791
3.648269209
1
1
1
1
1
1
1
1.000000437
1.000498052
1.169694911
3.274407768
4.32821965
4.474072953
4.475865079
4.365400224
4.196603023
4.028791046
3.846148873
3.681503079
3.529834959
3.383981408
3.219157464
3.088140023
2.963995668
2.839534535
2.700815839
2.59491973
2.493569432
2.395085101
2.30893718
2.21848129
2.160198899
2.077617666
2.002541913
1.962835757
2.60442724
1
1
1
1
1
1
1.000000003
1.000005794
1.005277175
1.651527521
4.011160899
4.562431325
4.520524418
4.456777228
4.313261229
4.145288738
3.982012133
3.797116191
3.630115215
3.481506253
3.335782948
3.175414739
3.042440143
2.920856147
2.79915
2.664657788
2.552893185
2.459977806
2.354603121
2.274252713
2.186585727
2.117945392
2.051559104
1.960109271
1.910557151
2.031341185
1
1
1
1
1
1
1.000000032
1.000086412
1.050067724
2.515626314
4.370749804
4.5607872
4.529291006
4.43292849
4.273292753
4.100556494
3.940660374
3.755920986
3.585100526
3.439566233
3.291671578
3.134564632
2.996755185
2.879725259
2.755746393
2.629521941
2.512561505
2.423000475
2.320056344
2.234118741
2.157060453
2.077302599
2.017878175
1.932885602
1.871135592
1.847031418
1
1
1
1
1
1
1.000000679
1.001175282
1.294595499
3.461051467
4.513310808
4.561818848
4.513000121
4.410535007
4.24532834
4.063468387
3.901609103
3.715386487
3.537624456
3.396432676
3.247541435
3.093667915
2.951220972
2.837595609
2.710728663
2.592690811
2.472953859
2.380397775
2.285497043
2.192359098
2.124546381
2.043578362
1.97636114
1.910737475
1.830135266
1.787323746
1
1
1
1
1
1.000000003
1.000014391
1.012839521
1.925495533
4.137296157
4.650442052
4.622264191
4.518986965
4.384685974
4.212442356
4.023686703
3.85676267
3.669888383
3.484484615
3.34801162
3.201276035
3.050881151
2.905155607
2.791916752
2.667096777
2.550720394
2.434303407
2.336415931
2.249728936
2.15452298
2.084733928
2.012440057
1.934741687
1.880046009
1.802513216
1.745358293
1
1
1
1
1
1.000000106
1.000208344
1.100916615
2.79271842
4.418249468
4.636584646
4.586661614
4.478453207
4.348351012
4.176671813
3.981610749
3.808933671
3.625749431
3.434911208
3.299421611
3.155248346
3.007212509
2.860386421
2.744047794
2.623944834
2.506695194
2.397043229
2.295270437
2.209636921
2.120576564
2.043936571
1.981826571
1.90058567
1.841788753
1.781714741
1.710580536
1
1
1
1
1.000000001
1.000002784
1.0022329
1.45045943
3.638445973
4.538103169
4.605839986
4.552946301
4.439552761
4.306853733
4.131777619
3.932248503
3.760328945
3.583968991
3.391841615
3.252648639
3.10997439
2.963231239
2.817190958
2.696695539
2.581802646
2.462935736
2.357486542
2.25564402
2.167509463
2.086103552
2.005596143
1.946146014
1.872037086
1.80228441
1.755198671
1.684263112
1
1
1
1
1.000000026
1.000039785
1.020256782
2.164016211
4.151802813
4.6390262
4.64201828
4.547785343
4.417025405
4.274946434
4.09137808
3.887823514
3.71470131
3.541293062
3.350181084
3.20426158
3.064149102
2.918682749
2.774511768
2.649725401
2.537593448
2.422504894
2.315446362
2.218227592
2.125346569
2.048266975
1.971521625
1.906994195
1.843829022
1.766337274
1.721651002
1.663298138
1
1
1
1
1.000000519
1.000358824
1.138146349
3.043415755
4.270249512
4.638094221
4.614042168
4.520929662
4.394136474
4.242768107
4.05149269
3.844984255
3.668690799
3.493388576
3.304251318
3.150748788
3.013172639
2.870582479
2.731631935
2.602920035
2.489610838
2.379772753
2.27107098
2.179240773
2.085774706
2.009398408
1.938897953
1.86968427
1.810451619
1.73660662
1.683858527
1.639029481
1
1
1
1.000000005
1.000006108
1.002679312
1.539187783
3.82297834
4.537808347
4.622829678
4.574614901
4.481608073
4.354748826
4.199763444
4.006869415
3.798451405
3.618089645
3.44017408
3.256088082
3.0967653
2.960594613
2.821673902
2.686187968
2.555042144
2.441492153
2.33614557
2.230306543
2.136732692
2.048737646
1.967358271
1.903958435
1.835610602
1.772159489
1.709994843
1.646433912
1.609623709
1
1
1
1.000000051
1.000048843
1.020893721
2.273675444
4.251120158
4.611511171
4.611884473
4.554775093
4.455477379
4.32423524
4.162177718
3.964021377
3.750805912
3.565449117
3.385860247
3.209932904
3.045057063
2.906162012
2.772333672
2.640818828
2.510185122
2.396785421
2.293470102
2.191632884
2.094052109
2.012374804
1.927570742
1.867862893
1.802592932
1.734514678
1.679587744
1.615197403
1.575540144
1
1
1
1.000000428
1.000344272
1.136781987
3.161388224
4.366683857
4.622141376
4.600675675
4.536152755
4.440905626
4.303022174
4.126611969
3.919616574
3.699822935
3.511861289
3.333722301
3.161236037
2.992766776
2.852587349
2.723131402
2.595126454
2.463359417
2.351774844
2.24973997
2.152965779
2.054570837
1.9726422
1.891833571
1.829472233
1.770662594
1.700466533
1.644571429
1.589013108
1.540059874
1
1
1.000000002
1.000003854
1.002915734
1.545290842
3.933351222
4.599840466
4.630829891
4.581188435
4.506896453
4.413248354
4.266429021
4.080975038
3.87136687
3.648529093
3.452977106
3.284155692
3.119426058
2.942003546
2.798878474
2.671809631
2.548628426
2.417267456
2.30940108
2.2058938
2.112804764
2.016392776
1.930336042
1.857666976
1.790333243
1.737354181
1.667620318
1.60865159
1.561413624
1.508243685
1
1
1.000000018
1.000044819
1.028968181
2.330396074
4.351176168
4.653878684
4.623746556
4.563225777
4.487014163
4.388072707
4.22967972
4.030838191
3.821320726
3.602647831
3.395140905
3.219172614
3.059432449
2.886603817
2.745481624
2.622172515
2.503066186
2.370711028
2.26373541
2.161567772
2.071029669
1.977157657
1.88845233
1.8208051
1.754035713
1.701271355
1.636169071
1.573309548
1.530393624
1.480710457
1
1
1.000000357
1.000647276
1.205373796
3.252458735
4.524834256
4.648713063
4.610173575
4.542217646
4.459316788
4.354601176
4.186476715
3.977277538
3.770271832
3.546462256
3.333034942
3.163364409
3.009484753
2.835753891
2.69176616
2.569448712
2.452891057
2.323654795
2.215267028
2.118213238
2.027892921
1.9389939
1.84969811
1.782151456
1.71977907
1.663780019
1.60464904
1.540088398
1.497640074
1.453559125
1
1.000000002
1.000008559
1.00869192
1.773605821
3.998235971
4.682951237
4.684922693
4.609261025
4.52542854
4.432999071
4.317283664
4.13652171
3.918463043
3.715617735
3.493460185
3.276202578
3.105642745
2.952746055
2.780739601
2.635789169
2.517347615
2.403895281
2.279056362
2.167507343
2.075880163
1.985020241
1.900570391
1.811446235
1.743249811
1.684879237
1.627539693
1.570100116
1.51004409
1.463954223
1.425447564
1
1.000000062
1.000143264
1.079912879
2.684880273
4.356077365
4.681225335
4.655097968
4.587113433
4.509827482
4.416552514
4.284802731
4.083754122
3.859056969
3.6573622
3.434808598
3.211791079
3.044744523
2.896872491
2.730041546
2.581951381
2.465657956
2.353581372
2.232737025
2.119229792
2.031461331
1.943033295
1.861499858
1.774638845
1.705226397
1.649499817
1.594313041
1.535819419
1.481364407
1.431600495
1.396502166
1
1.000001126
1.001581411
1.403793752
3.567708971
4.526084739
4.649316182
4.629675102
4.567379501
4.491733644
4.384338574
4.237474496
4.025113639
3.798446819
3.597356112
3.376548329
3.152719918
2.988708729
2.841393622
2.677780144
2.526542201
2.412956091
2.302039508
2.186201027
2.072382666
1.986239898
1.902274111
1.822086754
1.738299136
1.668429752
1.614230894
1.561177274
1.501950235
1.449967401
1.402314876
1.365476658
1
1.000014869
1.013570367
2.113921962
4.127971497
4.612385203
4.648534801
4.633300464
4.566516757
4.47768984
4.348080352
4.189947536
3.967378595
3.736978966
3.5350855
3.316547563
3.089899093
2.9280354
2.783599798
2.626076021
2.472514834
2.360788844
2.251210253
2.138957926
2.024928605
1.939546295
1.860041133
1.78174377
1.700561964
1.632423328
1.578970956
1.528313648
1.470791599
1.417437353
1.374562081
1.334255236
1
1.000153707
1.095633485
3.005154122
4.358139234
4.628982472
4.649911519
4.621978387
4.559914793
4.464959461
4.315126265
4.138326579
3.908905473
3.67441439
3.470601577
3.255329022
3.027028833
2.867376002
2.725252428
2.572903821
2.418122248
2.307554717
2.199757885
2.091117227
1.978264988
1.893318041
1.817634748
1.742992969
1.66351528
1.597883309
1.544206561
1.49529538
1.438926502
1.384376443
1.345590005
1.304577456
1
1.001439102
1.432423477
3.783519505
4.57509652
4.622414894
4.615947278
4.583310077
4.541006171
4.437979338
4.267119967
4.083622679
3.849337865
3.612422251
3.407634803
3.195329448
2.96526416
2.80537335
2.664835305
2.518338812
2.364994942
2.254905449
2.149981131
2.044173061
1.932168719
1.847490378
1.774713097
1.703426817
1.625741523
1.562544948
1.510108361
1.462159602
1.408250465
1.353074419
1.315673785
1.276842055
1.000000004
1.013493873
2.154348065
4.249267041
4.689072332
4.670467732
4.631003296
4.566539364
4.525035111
4.405147123
4.220205991
4.028462685
3.789019593
3.549294782
3.342223819
3.133070986
2.903405077
2.743221892
2.605886972
2.464588724
2.312713897
2.202053846
2.099462546
1.996021847
1.886182799
1.802020974
1.731648289
1.663845297
1.589390418
1.527199997
1.476971252
1.428984743
1.377222931
1.321601919
1.284936725
1.248813448
1.00000077
1.10451921
3.084202118
4.434999954
4.649330576
4.671460799
4.614921497
4.562653963
4.52142268
4.374356569
4.172847977
3.970385
3.724525601
3.480801877
3.27289204
3.067876054
2.841386494
2.680078276
2.545495198
2.408744101
2.260311558
2.149113779
2.049324904
1.94892329
1.841355737
1.757295802
1.689017871
1.6238246
1.552361853
1.49092311
1.443628789
1.395688312
1.346568534
1.292022545
1.254734294
1.220796091
1.00006259
1.473273428
3.914474562
4.683995903
4.696428958
4.658522408
4.590907365
4.553145202
4.493155565
4.331416138
4.120251694
3.908106485
3.655555746
3.406754999
3.199753791
3.000740546
2.780819018
2.618477284
2.487049443
2.354483166
2.209249228
2.09664265
1.998987135
1.901151122
1.796284037
1.712380148
1.645805285
1.582951378
1.515580572
1.454886709
1.40979024
1.363105648
1.314901702
1.261901036
1.224116214
1.192589641
1.003315181
2.228724923
4.431845293
4.671337353
4.667647884
4.63448578
4.580069227
4.541674096
4.460642227
4.286285913
4.066858795
3.846304049
3.588463616
3.333574263
3.127720635
2.934547078
2.721388239
2.557114524
2.428163529
2.298701011
2.157853366
2.044536559
1.949036232
1.853925366
1.752411532
1.668105692
1.603716091
1.54316971
1.478904627
1.418904911
1.375552681
1.33046894
1.28371363
1.233123456
1.195027416
1.164315118
1.084027324
3.148354295
4.50220016
4.628093574
4.652310473
4.634506915
4.587568623
4.534739161
4.42977098
4.241712642
4.01184118
3.781714645
3.519607691
3.259365459
3.054442026
2.865685492
2.659930733
2.49430384
2.36864257
2.242983252
2.107056057
1.99249252
1.898938406
1.806277804
1.708056794
1.62326152
1.560824213
1.502200771
1.441768802
1.383343074
1.341398848
1.298469506
1.252852449
1.203283887
1.166403302
1.136203127
1.518479546
3.954974241
4.731806601
4.688977836
4.657768452
4.619575968
4.565043931
4.500711311
4.387140598
4.186720427
3.944946692
3.707881118
3.445995964
3.183482967
2.981055726
2.797289219
2.599249666
2.431398856
2.307825742
2.185069706
2.054201738
1.939686214
1.848375571
1.758205684
1.664179299
1.579494151
1.519400699
1.462838674
1.405089406
1.347481742
1.306696585
1.265659696
1.222296044
1.174432037
1.139125411
1.108487909
2.390237542
4.49794551
4.741225651
4.722119396
4.671371223
4.615779293
4.548563454
4.469253035
4.338708089
4.124433792
3.871723346
3.630393258
3.371002122
3.106353105
2.906397578
2.727639522
2.538447253
2.369976427
2.247976222
2.127809039
2.002048538
1.886848429
1.79749926
1.710449964
1.62067482
1.536257047
1.477352731
1.422424213
1.367699736
1.3123902
1.273079621
1.234182088
1.192771283
1.145325739
1.111067191
1.081145231
1.054189295
3.22337557
4.486886485
4.612755033
4.650815917
4.632995844
4.597604174
4.542962957
4.443768288
4.294912077
4.06690393
3.803303818
3.558336647
3.301717184
3.034546916
2.834833503
2.659097005
2.478811901
2.309801492
2.188414869
2.07056506
1.948857621
1.833988256
1.746984551
1.663125887
1.577957648
1.495359441
1.437902508
1.384489271
1.33147777
1.277016223
1.238404044
1.201332098
1.162190216
1.117342508
1.083839692
1.055441152
1.028546909
4.385944675
4.705739211
4.641568465
4.580027703
4.564185195
4.549667893
4.507019726
4.408836725
4.25132608
4.012746543
3.740778366
3.490842149
3.234337894
2.964148792
2.763185861
2.588825711
2.414460911
2.246127942
2.126670641
2.011858061
1.894541731
1.780060292
1.695339619
1.615391475
1.535118242
1.454665669
1.397962081
1.345938901
1.295036994
1.243233673
1.206133085
1.170752623
1.133448573
1.089491232
1.055762889
1.028791228
1.002070657
4.775330176
4.801541357
4.75394913
4.658202718
4.586440956
4.549484602
4.493652845
4.371516077
4.19088205
3.937546681
3.658353623
3.407869875
3.156247119
2.889141103
2.688747901
2.516760387
2.348139926
2.180544475
2.061523513
1.950927971
1.838984912
1.726787507
)
;

boundaryField
{
    inlet
    {
        type            fixedValue;
        value           nonuniform 0();
    }
    outlet
    {
        type            zeroGradient;
    }
    bottom
    {
        type            slip;
    }
    top
    {
        type            slip;
    }
    obstacle
    {
        type            zeroGradient;
    }
    defaultFaces
    {
        type            empty;
    }
    procBoundary3to2
    {
        type            processor;
        value           nonuniform List<scalar> 
38
(
1
1
1
1
1
1
1
1
1
1
1
1
1
1
1
1
1
1
1
1
1
1
1
1
1
1
1
1
1
1
1
1
1
1
1
1
1
1
)
;
    }
    procBoundary3to4
    {
        type            processor;
        value           nonuniform List<scalar> 
62
(
6.163472256
6.161266067
6.150355961
6.141034908
6.127015376
6.111871156
6.095320956
6.077261453
6.058914179
6.037772398
6.01634991
5.990547021
5.962720721
5.936338864
5.909073828
5.886107373
5.868979869
5.835993526
5.815827773
5.780330035
5.757171016
5.721996322
5.691093593
5.655232564
5.616745685
5.572752695
5.528745241
5.488973433
5.420633332
5.313067271
5.108793071
4.501177278
3.573339009
2.574769177
1.956750056
1.747523827
1.674597347
1.630694786
1.599014119
1.569011009
1.545797123
1.525064584
1.49994823
1.468201035
1.434238633
1.403137535
1.375810783
1.349609642
1.324082324
1.298379179
1.269478495
1.239807046
1.211323692
1.183965018
1.157933859
1.131296439
1.106104225
1.080261816
1.080261816
1.020164233
0.9969666294
0.9729110706
)
;
    }
    procBoundary3to8
    {
        type            processor;
        value           nonuniform List<scalar> 
25
(
1
1
1
1
1
1
1
1
1
1
1
1
1
1
1
1
1
1
1
0.9999999743
0.9999670678
0.9956383769
0.9641553995
1.598648585
3.706566199
)
;
    }
    procBoundary3to9
    {
        type            processor;
        value           nonuniform List<scalar> 
38
(
1.64408228
1.567458184
1.49151554
1.414390944
1.359614652
1.309428028
1.260228826
1.209049136
1.172290677
1.138138366
1.102903805
1.061666684
1.028934494
1.003402889
0.9778827113
4.741828214
4.762672881
4.74851007
4.729155036
4.676661564
4.605619328
4.505461759
4.342614018
4.127714612
3.850464325
3.557791894
3.309524058
3.068433239
2.810263786
2.612864254
2.44471525
2.28091951
2.114853546
1.996046287
1.889289244
1.782951878
1.64408228
1.673656269
)
;
    }
}


// ************************************************************************* //
