/*--------------------------------*- C++ -*----------------------------------*\
  =========                 |
  \\      /  F ield         | OpenFOAM: The Open Source CFD Toolbox
   \\    /   O peration     | Website:  https://openfoam.org
    \\  /    A nd           | Version:  7
     \\/     M anipulation  |
\*---------------------------------------------------------------------------*/
FoamFile
{
    version     2.0;
    format      ascii;
    class       volVectorField;
    location    "1.4";
    object      U;
}
// * * * * * * * * * * * * * * * * * * * * * * * * * * * * * * * * * * * * * //

dimensions      [0 1 -1 0 0 0 0];

internalField   nonuniform List<vector> 
555
(
(3 2.688944217e-15 0)
(3 2.990599053e-15 0)
(3 6.552319478e-16 0)
(3 -1.196227413e-15 0)
(3 -4.903244963e-15 0)
(3 -4.717509218e-15 0)
(3 -3.391055065e-15 0)
(3 -2.047956138e-16 0)
(3 -9.317565455e-16 0)
(3 -4.733698446e-15 0)
(3 -4.592923329e-15 0)
(3 -5.930325556e-15 0)
(3 1.827250092e-15 0)
(3 4.54960579e-16 0)
(3 -2.003452373e-15 0)
(3 -3.853321262e-15 0)
(3 -6.648603508e-15 0)
(3 -5.89375528e-15 0)
(3 -5.608166708e-15 0)
(3 -5.420141363e-15 0)
(3 -3.616783139e-15 0)
(3 -4.470474918e-15 0)
(3 -2.75392096e-15 0)
(3 4.482344986e-16 0)
(3 2.782889447e-15 0)
(3 3.941932106e-15 0)
(3 1.578389196e-15 0)
(3 -4.432366437e-15 0)
(3 -5.767910118e-15 0)
(3 -7.178449619e-15 0)
(3 -6.958469577e-15 0)
(3 -1.438602586e-15 0)
(3 -5.444963041e-16 0)
(3 -2.735899618e-15 0)
(3 -2.541807648e-15 0)
(3 -3.648462787e-15 0)
(3 -2.454981883e-15 0)
(3 -4.866306449e-16 0)
(3 1.733073204e-15 0)
(3 3.369574768e-15 0)
(3 6.068080774e-15 0)
(3 6.85039091e-15 0)
(3 4.156282228e-15 0)
(3 3.460740188e-15 0)
(3 5.746594604e-17 0)
(3 -1.779179318e-15 0)
(3 -1.603341973e-15 0)
(3 4.557621617e-16 0)
(3 2.954590551e-16 0)
(3 1.214821533e-15 0)
(3 5.980260455e-15 0)
(3 7.38059661e-15 0)
(3 5.506575957e-15 0)
(3 2.947752409e-15 0)
(3 1.996152811e-15 0)
(3 3.553333502e-15 0)
(3 6.043844207e-15 0)
(3 7.806402118e-15 0)
(3 6.821509393e-15 0)
(3 2.400717588e-15 0)
(3 4.800080041e-15 0)
(3 4.232061095e-15 0)
(3 6.23652684e-15 0)
(3 -1.069251263e-14 0)
(3 -4.176177937e-15 0)
(3 4.380410741e-16 0)
(3 5.907437328e-15 0)
(3 9.218562153e-15 0)
(3 9.375752249e-15 0)
(3 8.637016018e-15 0)
(3 6.247730125e-15 0)
(3 2.471427004e-15 0)
(3 2.593735922e-15 0)
(3 2.933294185e-15 0)
(3 4.044882593e-15 0)
(3 5.37153786e-15 0)
(3 7.202019991e-15 0)
(3 9.826867184e-15 0)
(3 1.127460194e-14 0)
(3 1.021511391e-14 0)
(3 -7.367366096e-16 0)
(3 3.719898056e-15 0)
(3 6.397529334e-15 0)
(3 1.127445148e-14 0)
(3 1.125239082e-14 0)
(3 8.729441646e-15 0)
(3 9.14564029e-15 0)
(3 1.01271272e-14 0)
(3 1.028550705e-14 0)
(3 8.843808052e-15 0)
(3 8.955063514e-15 0)
(3 7.48935707e-15 0)
(3 6.76581072e-15 0)
(3 9.311544819e-15 0)
(3 8.610078973e-15 0)
(3 1.073188844e-14 0)
(3 9.156242998e-15 0)
(3 9.072303451e-15 0)
(3 9.129691109e-15 0)
(3 1.100353425e-14 0)
(3 1.026745417e-14 0)
(3 1.090521014e-14 0)
(3 8.576495739e-15 0)
(3 9.071100414e-15 0)
(3 8.776689983e-15 0)
(3 1.176404238e-14 0)
(3 1.150933076e-14 0)
(3 1.143186264e-14 0)
(3 1.071250377e-14 0)
(3 8.954683346e-15 0)
(3 8.301772682e-15 0)
(3 4.715306764e-15 0)
(3 1.456795447e-15 0)
(3 5.354428402e-16 0)
(3 -2.869412967e-15 0)
(3 -7.521409781e-16 0)
(3 -8.045891371e-16 0)
(3 -4.272120201e-15 0)
(3 -3.151287595e-15 0)
(3 -7.772763928e-16 0)
(3 8.318655018e-16 0)
(3 3.294376828e-15 0)
(3 5.80451178e-15 0)
(3 6.711439852e-15 0)
(3 5.504765225e-15 0)
(3 4.04921405e-15 0)
(3 3.451218887e-15 0)
(3 -9.613530103e-16 0)
(3 -1.492112779e-16 0)
(3 -1.013166422e-15 0)
(3 -4.468696818e-15 0)
(3 1.249520252e-14 0)
(3 1.158230776e-14 0)
(3 4.956966232e-15 0)
(3 -3.493194072e-15 0)
(3 -5.464439065e-15 0)
(3 -3.307753239e-15 0)
(3 1.812544583e-15 0)
(3 5.733278929e-15 0)
(3 5.507551178e-15 0)
(3 4.743955575e-15 0)
(3 2.105596795e-15 0)
(3 -1.727273436e-15 0)
(3 -4.843652213e-15 0)
(3 -7.182295751e-15 0)
(3 -4.816157593e-15 0)
(3 1.475324837e-15 0)
(3 4.995971545e-16 0)
(3 3.681484852e-16 0)
(3 -1.792558953e-15 0)
(3 -8.614722575e-15 0)
(3 -1.006460975e-14 0)
(3 -9.086729858e-15 0)
(3 -6.772029566e-15 0)
(3 -2.483321108e-15 0)
(3 -9.896879676e-16 0)
(3 -1.491156078e-15 0)
(3 -2.609843147e-15 0)
(3 -4.009872292e-15 0)
(3 -3.41600201e-15 0)
(3 -8.570603991e-16 0)
(3 7.107738911e-16 0)
(3 5.98672295e-16 0)
(3 5.305339127e-15 0)
(3 8.298026666e-15 0)
(3 -1.854448129e-14 0)
(3 -1.938234291e-14 0)
(3 -1.615671185e-14 0)
(3 -1.386309542e-14 0)
(3 -1.247382719e-14 0)
(3 -1.186804252e-14 0)
(3 -1.120937811e-14 0)
(3 -8.510074863e-15 0)
(3 -3.252414056e-15 0)
(3 9.172182686e-16 0)
(3 2.64636063e-15 0)
(3 4.238364597e-15 0)
(3 9.80253572e-15 0)
(3 1.190306006e-14 0)
(3 1.640436364e-14 0)
(3 1.563512431e-14 0)
(3 1.696297404e-14 0)
(3 -1.903794277e-14 0)
(3 -1.635210153e-14 0)
(3 -9.922416651e-15 0)
(3 -4.85886488e-15 0)
(3 -4.695487984e-15 0)
(3 -8.152269575e-15 0)
(3 -6.709185763e-15 0)
(3 -3.54412127e-15 0)
(3 6.38217303e-17 0)
(3 7.194871444e-15 0)
(3 1.281988418e-14 0)
(3 1.333166931e-14 0)
(3 1.713890144e-14 0)
(3 2.174631176e-14 0)
(3 2.361050427e-14 0)
(3 2.269877529e-14 0)
(3 2.431791516e-14 0)
(3 -1.545216269e-14 0)
(3 -1.806184833e-14 0)
(3 -1.695655103e-14 0)
(3 -1.482098761e-14 0)
(3 -1.227468479e-14 0)
(3 -1.043647829e-14 0)
(3 -6.015430284e-15 0)
(3 -7.550284539e-15 0)
(3 -6.602279799e-15 0)
(3 -3.555669927e-15 0)
(3 1.802797951e-15 0)
(3 7.84112326e-15 0)
(3 1.22362537e-14 0)
(3 1.533814163e-14 0)
(3 1.728841478e-14 0)
(3 1.906821356e-14 0)
(3 2.428263136e-14 0)
(3 -2.279354925e-15 0)
(3 -1.09012844e-14 0)
(3 -9.736831715e-15 0)
(3 -6.226347447e-15 0)
(3 -9.269735736e-16 0)
(3 2.995940328e-15 0)
(3 4.381390494e-15 0)
(3 3.875797432e-15 0)
(3 4.138509683e-15 0)
(3 2.938127287e-15 0)
(3 2.564141656e-15 0)
(3 7.391491099e-15 0)
(3 9.723580078e-15 0)
(3 1.262677558e-14 0)
(3 1.772937854e-14 0)
(3 1.025815539e-14 0)
(3 1.602661184e-14 0)
(3 8.234494018e-15 0)
(3 7.614326329e-15 0)
(3 4.196998577e-15 0)
(3 1.470590198e-15 0)
(3 -2.555633095e-15 0)
(3 -4.415661286e-15 0)
(3 -3.553613889e-15 0)
(3 -1.628671638e-15 0)
(3 2.039502786e-15 0)
(3 2.605546995e-15 0)
(3 2.925837344e-15 0)
(3 3.709431082e-15 0)
(3 2.463167917e-15 0)
(3 -2.783290164e-16 0)
(3 2.113005165e-15 0)
(3 -2.259116723e-15 0)
(3 6.710324613e-15 0)
(3 1.393174211e-14 0)
(3 1.359324859e-14 0)
(3 1.106576269e-14 0)
(3 5.01316829e-15 0)
(3 -1.548365684e-15 0)
(3 -6.259995235e-15 0)
(3 -6.2507214e-15 0)
(3 -4.271577491e-15 0)
(3 -1.397376829e-15 0)
(3 -1.296473487e-15 0)
(3 -2.157195034e-15 0)
(3 -5.086672266e-15 0)
(3 -7.344596271e-15 0)
(3 -1.207970082e-14 0)
(3 -9.959077414e-15 0)
(3 -9.445298479e-15 0)
(3 6.635447025e-16 0)
(3 1.085482608e-14 0)
(3 6.330119027e-15 0)
(3 5.169706405e-15 0)
(3 4.132119111e-15 0)
(3 4.081040483e-15 0)
(3 4.789739393e-15 0)
(3 4.154367872e-15 0)
(3 3.60050966e-15 0)
(3 1.559960039e-15 0)
(3 -2.701996505e-15 0)
(3 -7.903301618e-15 0)
(3 -1.54335635e-14 0)
(3 -2.109328095e-14 0)
(3 -2.50091742e-14 0)
(3 -2.413348699e-14 0)
(3 -2.392572592e-14 0)
(3 -7.345647532e-15 0)
(3 -8.124177431e-15 0)
(3 -8.297596479e-15 0)
(3 -7.982873051e-15 0)
(3 -6.024240024e-15 0)
(3 -5.446376434e-15 0)
(3 -5.031330143e-15 0)
(3 -5.186613327e-16 0)
(3 2.57583755e-15 0)
(3 4.715259701e-15 0)
(3 6.984174048e-15 0)
(3 9.910996802e-15 0)
(3 1.121009086e-14 0)
(3 1.238576672e-14 0)
(3 1.15493399e-14 0)
(3 1.212162314e-14 0)
(3 1.172355307e-14 0)
(3 -1.694009552e-15 0)
(3 -1.534206479e-15 0)
(3 -2.158108472e-15 0)
(3 -9.211131161e-16 0)
(3 1.56176572e-15 0)
(3 2.61758532e-15 0)
(3 2.20733468e-15 0)
(3 2.182137753e-15 0)
(3 3.107472281e-15 0)
(3 2.637363337e-15 0)
(3 3.568659529e-15 0)
(3 4.486365216e-15 0)
(3 7.299997349e-15 0)
(3 7.960756898e-15 0)
(3 7.566031679e-15 0)
(3 6.865127102e-15 0)
(3 6.420560578e-15 0)
(3 6.419655374e-15 0)
(3 7.413253129e-15 0)
(3 8.413146305e-15 0)
(3 9.178831132e-15 0)
(3 9.792929988e-15 0)
(3 9.216075402e-15 0)
(3 7.835854671e-15 0)
(3 5.409795753e-15 0)
(3 3.907933883e-15 0)
(3 1.539762809e-15 0)
(3 -1.166985362e-15 0)
(3 -2.588481883e-15 0)
(3 8.82825281e-16 0)
(3 1.672745977e-15 0)
(3 3.122720418e-15 0)
(3 2.437661783e-15 0)
(3 1.360317052e-16 0)
(3 9.563257245e-15 0)
(3 8.600483018e-15 0)
(3 8.480889783e-15 0)
(3 8.77230929e-15 0)
(3 9.102840921e-15 0)
(3 9.274547299e-15 0)
(3 8.842851741e-15 0)
(3 6.046042604e-15 0)
(3 2.028301803e-15 0)
(3 4.266596718e-16 0)
(3 7.444196328e-16 0)
(3 1.357730558e-15 0)
(3 1.770400255e-15 0)
(3 2.453760705e-15 0)
(3 2.87896244e-15 0)
(3 2.572368195e-15 0)
(3 1.029356201e-15 0)
(3 7.852770394e-15 0)
(3 7.456093293e-15 0)
(3 6.653558975e-15 0)
(3 5.400460372e-15 0)
(3 4.490638745e-15 0)
(3 4.441352067e-15 0)
(3 2.529367435e-15 0)
(3 -8.943126684e-16 0)
(3 -1.153260434e-15 0)
(3 -2.965923478e-16 0)
(3 -5.126772939e-16 0)
(3 -1.282302443e-15 0)
(3 -4.028724112e-15 0)
(3 -6.72165676e-15 0)
(3 -8.684905158e-15 0)
(3 -8.361599864e-15 0)
(3 -5.521422944e-15 0)
(3 -1.238164115e-15 0)
(3 -1.152990816e-15 0)
(3 -1.646903332e-15 0)
(3 -3.318575429e-15 0)
(3 -4.803057917e-15 0)
(3 -6.256598399e-15 0)
(3 -7.856520258e-15 0)
(3 -6.434376977e-15 0)
(3 -5.75526622e-15 0)
(3 -5.793716893e-15 0)
(3 -6.755249379e-15 0)
(3 -7.10632196e-15 0)
(3 -7.259718632e-15 0)
(3 -4.367372183e-15 0)
(3 5.017894523e-15 0)
(3 1.240393789e-14 0)
(3 2.679998472e-14 0)
(3 -5.061726039e-15 0)
(3 -5.836858829e-15 0)
(3 -7.03135048e-15 0)
(3 -1.004179202e-14 0)
(3 -1.168787202e-14 0)
(3 -1.112499702e-14 0)
(3 -1.19057865e-14 0)
(3 -1.115436404e-14 0)
(3 -9.552463123e-15 0)
(3 -7.142945734e-15 0)
(3 -1.149763032e-15 0)
(3 1.105907369e-14 0)
(3 2.509098448e-14 0)
(3 4.626087352e-14 0)
(3 9.414133578e-14 0)
(3 1.21179941e-13 0)
(3 2.129382968e-13 0)
(3 5.556197455e-16 0)
(3 1.895501243e-16 0)
(3 -1.402563205e-15 0)
(3 -4.319605836e-15 0)
(3 -5.667976701e-15 0)
(3 -5.315011399e-15 0)
(3 1.470990731e-15 0)
(3 1.24552794e-14 0)
(3 3.789206976e-14 0)
(3 7.616248138e-14 0)
(3 1.139747499e-13 0)
(3 1.423373193e-13 0)
(3 2.907141722e-13 0)
(3 2.399621855e-13 0)
(3 1.860337061e-13 0)
(3 1.54220915e-13 0)
(3 1.093954866e-12 0)
(3 5.211876294e-15 0)
(3 5.988439689e-15 0)
(3 5.87331755e-15 0)
(3 1.340211111e-14 0)
(3 2.678848898e-14 0)
(3 6.782356295e-14 0)
(3 8.935507597e-14 0)
(3 1.187362729e-13 0)
(3 1.64839837e-13 0)
(3 3.085798824e-13 0)
(3 3.73620727e-13 0)
(3 9.6324788e-14 0)
(3 7.629423545e-13 0)
(3 3.850097432e-12 0)
(3 -4.997413376e-11 0)
(3 -3.192133968e-10 0)
(2.999999998 -2.425682866e-09 0)
(3 1.11064377e-14 0)
(3 1.81929741e-14 0)
(3 8.66356753e-14 0)
(3 2.781735479e-13 0)
(3 2.387195142e-13 0)
(3 1.967318926e-13 0)
(3 2.096916881e-13 0)
(3 9.174454655e-13 0)
(3 -6.592913615e-12 0)
(3 1.930839584e-12 0)
(3 -1.110455871e-10 0)
(2.999999999 -1.235931424e-09 0)
(2.999999994 -8.004158642e-09 0)
(2.999999969 -4.722166834e-08 0)
(2.999999856 -2.241002005e-07 0)
(2.999999416 -9.311278981e-07 0)
(2.999997793 -3.612191369e-06 0)
(3 2.242405876e-14 0)
(3 4.855463855e-13 0)
(3 5.671580385e-13 0)
(3 1.273397576e-12 0)
(3 -4.681090427e-12 0)
(3 -1.040249663e-11 0)
(3 -1.805535197e-10 0)
(2.999999998 -2.731062744e-09 0)
(2.999999986 -1.992182955e-08 0)
(2.999999924 -1.140494205e-07 0)
(2.999999634 -5.715545859e-07 0)
(2.99999855 -2.310084651e-06 0)
(2.999994804 -8.576025145e-06 0)
(2.999983479 -2.784763724e-05 0)
(2.999953088 -8.052277124e-05 0)
(2.999874214 -0.000223054881 0)
(2.999695614 -0.0005436578888 0)
(3 -8.703875557e-13 0)
(3 -2.005174158e-12 0)
(3 -4.4864094e-11 0)
(2.999999998 -2.342019845e-09 0)
(2.999999982 -2.628758738e-08 0)
(2.999999876 -1.880412034e-07 0)
(2.999999319 -1.079764176e-06 0)
(2.999997066 -4.848745553e-06 0)
(2.999989717 -1.773757107e-05 0)
(2.999967729 -5.746199723e-05 0)
(2.999909833 -0.000161982956 0)
(2.999772671 -0.0004256970795 0)
(2.999472867 -0.001008128356 0)
(2.998909594 -0.002158412012 0)
(2.99788078 -0.004437713599 0)
(2.996117439 -0.008014642168 0)
(2.993176568 -0.01481500232 0)
(2.999999995 -7.299252895e-09 0)
(2.99999993 -1.115757906e-07 0)
(2.999999351 -1.05060814e-06 0)
(2.999996221 -6.411921804e-06 0)
(2.999984832 -2.886177569e-05 0)
(2.999948594 -9.839266055e-05 0)
(2.999844044 -0.0002945851579 0)
(2.99960617 -0.000800980882 0)
(2.999148949 -0.001858125644 0)
(2.998343592 -0.003719220487 0)
(2.996821754 -0.007426418742 0)
(2.994548884 -0.01315074919 0)
(2.991367133 -0.021334097 0)
(2.986509416 -0.03603008334 0)
(2.982448691 -0.05058743515 0)
(2.974046322 -0.07386456386 0)
(2.965276174 -0.1043458639 0)
(2.999990771 -1.512749524e-05 0)
(2.999949853 -8.409327467e-05 0)
(2.999791124 -0.0003658339555 0)
(2.999362949 -0.001231506443 0)
(2.998724702 -0.002756412741 0)
(2.997543913 -0.005611411915 0)
(2.995162717 -0.01086861986 0)
(2.992306755 -0.01879402854 0)
(2.989476118 -0.02826706839 0)
(2.985142483 -0.0412738125 0)
(2.9799134 -0.05852152645 0)
(2.975234885 -0.07399782705 0)
(2.968152833 -0.09921554641 0)
(2.964016816 -0.1223986068 0)
(2.963768648 -0.1317018226 0)
(2.953656451 -0.1650822011 0)
(2.946310495 -0.1916999373 0)
(2.99861173 -0.00216110737 0)
(2.995446078 -0.007712601778 0)
(2.989928074 -0.01815877678 0)
(2.983796505 -0.03190676103 0)
(2.97340277 -0.05772358633 0)
(2.965738009 -0.07841069907 0)
(2.956831056 -0.1012084614 0)
(2.940804105 -0.1420770626 0)
(2.93670183 -0.1650120667 0)
(2.922535023 -0.1986663642 0)
(2.910436315 -0.230212194 0)
(2.909268409 -0.244899397 0)
(2.890393358 -0.2812525869 0)
(2.882991516 -0.2994388419 0)
(2.878861981 -0.3025993315 0)
(2.870794712 -0.3143520534 0)
(2.866421168 -0.3181528707 0)
(2.987304416 -0.003520694286 0)
(2.973960226 -0.004124898337 0)
(2.960418721 -0.01572986721 0)
(2.947053613 -0.04017934484 0)
(2.935937155 -0.0415804684 0)
(2.92934466 -0.04691570182 0)
(2.915503823 -0.08554810214 0)
(2.907627431 -0.1006772909 0)
(2.908512372 -0.09940956424 0)
(2.890749678 -0.12644151 0)
(2.884196161 -0.1477873939 0)
(2.886400518 -0.1596080346 0)
(2.874018736 -0.1773416374 0)
(2.868047677 -0.1906081153 0)
(2.866975197 -0.2065659034 0)
(2.862116245 -0.2212692232 0)
(2.857567784 -0.237098786 0)
)
;

boundaryField
{
    inlet
    {
        type            fixedValue;
        value           nonuniform 0();
    }
    outlet
    {
        type            inletOutlet;
        inletValue      nonuniform 0();
        value           nonuniform 0();
    }
    bottom
    {
        type            slip;
    }
    top
    {
        type            slip;
    }
    obstacle
    {
        type            slip;
    }
    defaultFaces
    {
        type            empty;
    }
    procBoundary13to7
    {
        type            processor;
        value           nonuniform List<vector> 
35
(
(3 5.07330905e-15 0)
(3 2.575239005e-15 0)
(3 1.407431181e-15 0)
(3 -3.183230295e-15 0)
(3 -4.059387557e-15 0)
(3 -3.496483899e-15 0)
(3 -1.294518462e-15 0)
(3 -2.909751547e-16 0)
(3 -2.013513608e-15 0)
(3 -6.719805827e-15 0)
(3 -8.850025058e-15 0)
(3 -1.13196754e-14 0)
(3 4.46414952e-15 0)
(3 5.574015136e-15 0)
(3 3.935549797e-15 0)
(3 2.907235134e-15 0)
(3 2.750122479e-15 0)
(3 2.750122479e-15 0)
(3 -6.465633164e-15 0)
(3 -6.465633164e-15 0)
(3 -7.587807297e-15 0)
(3 -8.775298986e-15 0)
(3 -1.001706126e-14 0)
(3 -1.098596812e-14 0)
(3 -1.156395172e-14 0)
(3 -1.069186449e-14 0)
(3 -9.855448536e-15 0)
(3 -6.909814818e-15 0)
(3 -3.490046917e-15 0)
(3 1.061123355e-16 0)
(3 2.165669671e-15 0)
(3 3.688352214e-15 0)
(3 1.987705295e-15 0)
(3 2.612613601e-15 0)
(3 6.275774418e-15 0)
)
;
    }
    procBoundary13to12
    {
        type            processor;
        value           nonuniform List<vector> 
16
(
(3 1.720932361e-15 0)
(3 -8.95584604e-15 0)
(3 -5.19167022e-15 0)
(3 -1.489734816e-14 0)
(3 -4.086751219e-15 0)
(3 6.541097343e-15 0)
(3 -4.388491506e-15 0)
(3 1.140315186e-14 0)
(3 2.99100067e-15 0)
(3 -1.343918352e-14 0)
(3 -1.683188373e-14 0)
(3 -8.921056518e-15 0)
(3 6.392594048e-15 0)
(3 1.098778884e-14 0)
(3 1.266303299e-14 0)
(3 1.282738882e-14 0)
)
;
    }
    procBoundary13to14
    {
        type            processor;
        value           nonuniform List<vector> 
16
(
(3 9.105640645e-15 0)
(3 1.124408822e-14 0)
(3 5.410930902e-15 0)
(3 4.780976585e-16 0)
(3 1.090393814e-15 0)
(3 -2.702448472e-15 0)
(3 5.250453931e-14 0)
(3 1.816831869e-13 0)
(3 -5.49682714e-12 0)
(2.99999999 -1.527990272e-08 0)
(2.999992674 -1.203651307e-05 0)
(2.999302918 -0.001279994554 0)
(2.989153251 -0.02487867034 0)
(2.964339698 -0.1244630095 0)
(2.9503171 -0.1980552266 0)
(2.860941677 -0.3078627928 0)
)
;
    }
    procBoundary13to19
    {
        type            processor;
        value           nonuniform List<vector> 
19
(
(3 -1.882201867e-14 0)
(3 -1.471365417e-15 0)
(3 -9.941499218e-16 0)
(3 -1.13806726e-15 0)
(3 1.322821028e-15 0)
(3 3.540094219e-15 0)
(3 7.245350788e-15 0)
(3 8.151892564e-15 0)
(3 7.601295303e-15 0)
(3 4.410462649e-15 0)
(3 1.609457033e-15 0)
(3 -1.855637356e-15 0)
(3 -6.620253631e-15 0)
(3 -8.555576409e-15 0)
(3 -1.649655821e-14 0)
(3 -2.350512101e-14 0)
(3 -1.882201867e-14 0)
(3 -2.649266181e-14 0)
(3 -1.882201867e-14 0)
)
;
    }
    procBoundary13to20
    {
        type            processor;
        value           uniform (2.85388729 -0.2473608968 0);
    }
}


// ************************************************************************* //
