/*--------------------------------*- C++ -*----------------------------------*\
  =========                 |
  \\      /  F ield         | OpenFOAM: The Open Source CFD Toolbox
   \\    /   O peration     | Website:  https://openfoam.org
    \\  /    A nd           | Version:  7
     \\/     M anipulation  |
\*---------------------------------------------------------------------------*/
FoamFile
{
    version     2.0;
    format      ascii;
    class       volScalarField;
    location    "3.3";
    object      rho;
}
// * * * * * * * * * * * * * * * * * * * * * * * * * * * * * * * * * * * * * //

dimensions      [1 -3 0 0 0 0 0];

internalField   nonuniform List<scalar> 
2222
(
1.40000504
1.40000504
1.40000504
1.40000504
1.40000504
1.40000504
1.40000504
1.40000504
1.40000504
1.40000504
1.40000504
1.40000504
1.40000504
1.40000504
1.40000504
1.40000504
1.40000504
1.40000504
1.40000504
1.40000504
1.40000504
1.40000504
1.40000504
1.40000504
1.40000504
1.40000504
1.40000504
1.40000504
1.40000504
1.400005065
1.400008863
1.401102359
1.449840317
2.410731972
4.461760053
5.918697822
5.900651744
1.40000504
1.40000504
1.40000504
1.40000504
1.40000504
1.40000504
1.40000504
1.40000504
1.40000504
1.40000504
1.40000504
1.40000504
1.40000504
1.40000504
1.40000504
1.40000504
1.40000504
1.40000504
1.40000504
1.40000504
1.40000504
1.40000504
1.40000504
1.40000504
1.40000504
1.40000504
1.40000504
1.400005041
1.400005319
1.400046674
1.406522308
1.624303791
2.444589549
3.416275406
4.957681244
5.631944494
1.40000504
1.40000504
1.40000504
1.40000504
1.40000504
1.40000504
1.40000504
1.40000504
1.40000504
1.40000504
1.40000504
1.40000504
1.40000504
1.40000504
1.40000504
1.40000504
1.40000504
1.40000504
1.40000504
1.40000504
1.40000504
1.40000504
1.40000504
1.40000504
1.40000504
1.40000504
1.40000504
1.40000505
1.400007431
1.400429064
1.433663115
2.021642199
2.770212351
2.924509548
4.009149069
5.298290572
1.40000504
1.40000504
1.40000504
1.40000504
1.40000504
1.40000504
1.40000504
1.40000504
1.40000504
1.40000504
1.40000504
1.40000504
1.40000504
1.40000504
1.40000504
1.40000504
1.40000504
1.40000504
1.40000504
1.40000504
1.40000504
1.40000504
1.40000504
1.40000504
1.40000504
1.40000504
1.400005041
1.400005124
1.400031702
1.404224686
1.56345211
2.490908441
3.03294265
2.996672474
3.172494029
4.410125553
1.40000504
1.40000504
1.40000504
1.40000504
1.40000504
1.40000504
1.40000504
1.40000504
1.40000504
1.40000504
1.40000504
1.40000504
1.40000504
1.40000504
1.40000504
1.40000504
1.40000504
1.40000504
1.40000504
1.40000504
1.40000504
1.40000504
1.40000504
1.40000504
1.40000504
1.40000504
1.400005043
1.40000635
1.400430708
1.436826212
1.919967413
2.858219473
3.064422176
3.045971429
3.024096261
3.45786724
1.40000504
1.40000504
1.40000504
1.40000504
1.40000504
1.40000504
1.40000504
1.40000504
1.40000504
1.40000504
1.40000504
1.40000504
1.40000504
1.40000504
1.40000504
1.40000504
1.40000504
1.40000504
1.40000504
1.40000504
1.40000504
1.40000504
1.40000504
1.40000504
1.40000504
1.40000504
1.400005114
1.400042045
1.406230946
1.609424498
2.449599906
3.029970129
3.052571953
3.032840793
2.975231005
3.001574923
1.40000504
1.40000504
1.40000504
1.40000504
1.40000504
1.40000504
1.40000504
1.40000504
1.40000504
1.40000504
1.40000504
1.40000504
1.40000504
1.40000504
1.40000504
1.40000504
1.40000504
1.40000504
1.40000504
1.40000504
1.40000504
1.40000504
1.40000504
1.40000504
1.40000504
1.400005045
1.40000806
1.400752859
1.459155915
2.025652679
2.892999939
3.08541901
3.06427581
3.024028082
2.949271986
2.884035319
1.40000504
1.40000504
1.40000504
1.40000504
1.40000504
1.40000504
1.40000504
1.40000504
1.40000504
1.40000504
1.40000504
1.40000504
1.40000504
1.40000504
1.40000504
1.40000504
1.40000504
1.40000504
1.40000504
1.40000504
1.40000504
1.40000504
1.40000504
1.40000504
1.400005041
1.400005264
1.400071499
1.408403611
1.699563338
2.509359548
3.076504376
3.088069196
3.046026971
2.978242422
2.923089625
2.839708141
1.40000504
1.40000504
1.40000504
1.40000504
1.40000504
1.40000504
1.40000504
1.40000504
1.40000504
1.40000504
1.40000504
1.40000504
1.40000504
1.40000504
1.40000504
1.40000504
1.40000504
1.40000504
1.40000504
1.40000504
1.40000504
1.40000504
1.40000504
1.40000504
1.400005056
1.400009575
1.400784317
1.459280946
2.151953399
2.876424973
3.110000092
3.098652557
3.032119789
2.940605602
2.898798866
2.822251044
1.40000504
1.40000504
1.40000504
1.40000504
1.40000504
1.40000504
1.40000504
1.40000504
1.40000504
1.40000504
1.40000504
1.40000504
1.40000504
1.40000504
1.40000504
1.40000504
1.40000504
1.40000504
1.40000504
1.40000504
1.40000504
1.40000504
1.40000504
1.400005041
1.400005295
1.400059873
1.405831386
1.670796853
2.582718843
3.036093482
3.114517934
3.086882658
3.006684109
2.913037884
2.861137049
2.806807288
1.40000504
1.40000504
1.40000504
1.40000504
1.40000504
1.40000504
1.40000504
1.40000504
1.40000504
1.40000504
1.40000504
1.40000504
1.40000504
1.40000504
1.40000504
1.40000504
1.40000504
1.40000504
1.40000504
1.40000504
1.40000504
1.40000504
1.40000504
1.400005053
1.400007534
1.400490705
1.43517986
2.096122569
2.867733965
3.087143834
3.115185903
3.070465498
2.977300401
2.887053984
2.826996526
2.782064102
1.40000504
1.40000504
1.40000504
1.40000504
1.40000504
1.40000504
1.40000504
1.40000504
1.40000504
1.40000504
1.40000504
1.40000504
1.40000504
1.40000504
1.40000504
1.40000504
1.40000504
1.40000504
1.40000504
1.40000504
1.40000504
1.40000504
1.400005041
1.400005131
1.400027839
1.403600499
1.575152301
2.576588361
2.997057537
3.095438836
3.107550571
3.046956261
2.948114586
2.863267586
2.799960279
2.749777083
1.40000504
1.40000504
1.40000504
1.40000504
1.40000504
1.40000504
1.40000504
1.40000504
1.40000504
1.40000504
1.40000504
1.40000504
1.40000504
1.40000504
1.40000504
1.40000504
1.40000504
1.40000504
1.40000504
1.40000504
1.40000504
1.40000504
1.400005043
1.400005824
1.400276857
1.425792005
1.938882122
2.926453476
3.072072373
3.091698988
3.084017191
3.012120989
2.915570762
2.839050596
2.773767068
2.722187288
1.40000504
1.40000504
1.40000504
1.40000504
1.40000504
1.40000504
1.40000504
1.40000504
1.40000504
1.40000504
1.40000504
1.40000504
1.40000504
1.40000504
1.40000504
1.40000504
1.40000504
1.40000504
1.40000504
1.40000504
1.40000504
1.40000504
1.400005068
1.400020775
1.40374981
1.553902362
2.464941303
3.078502362
3.08294675
3.073646305
3.051561295
2.970907869
2.883725284
2.816719509
2.749726436
2.695569999
1.40000504
1.40000504
1.40000504
1.40000504
1.40000504
1.40000504
1.40000504
1.40000504
1.40000504
1.40000504
1.40000504
1.40000504
1.40000504
1.40000504
1.40000504
1.40000504
1.40000504
1.40000504
1.40000504
1.40000504
1.40000504
1.400005041
1.400006112
1.400417438
1.440444752
1.926430361
2.927116801
3.15070143
3.125292249
3.058922405
3.014095498
2.932155405
2.851298706
2.793424763
2.727303189
2.669827583
1.40000504
1.40000504
1.40000504
1.40000504
1.40000504
1.40000504
1.40000504
1.40000504
1.40000504
1.40000504
1.40000504
1.40000504
1.40000504
1.40000504
1.40000504
1.40000504
1.40000504
1.40000504
1.40000504
1.40000504
1.40000504
1.400005112
1.400040279
1.406230858
1.638460979
2.456966318
3.134374458
3.143342519
3.107298605
3.032972187
2.979328036
2.900596077
2.82032798
2.769271941
2.707030731
2.642293178
1.40000504
1.40000504
1.40000504
1.40000504
1.40000504
1.40000504
1.40000504
1.40000504
1.40000504
1.40000504
1.40000504
1.40000504
1.40000504
1.40000504
1.40000504
1.40000504
1.40000504
1.40000504
1.40000504
1.40000504
1.400005045
1.400007571
1.400558677
1.452220428
2.074622116
2.896332837
3.170999246
3.15843544
3.095394517
3.009882892
2.951993508
2.877349309
2.790574528
2.741023847
2.684989135
2.617620265
1.40000504
1.40000504
1.40000504
1.40000504
1.40000504
1.40000504
1.40000504
1.40000504
1.40000504
1.40000504
1.40000504
1.40000504
1.40000504
1.40000504
1.40000504
1.40000504
1.40000504
1.40000504
1.40000504
1.400005041
1.400005187
1.40004577
1.404768285
1.652945602
2.534390785
3.095753758
3.168138231
3.132298007
3.062695247
2.982209098
2.92072478
2.851072558
2.761449765
2.712571481
2.662290066
2.596887507
1.40000504
1.40000504
1.40000504
1.40000504
1.40000504
1.40000504
1.40000504
1.40000504
1.40000504
1.40000504
1.40000504
1.40000504
1.40000504
1.40000504
1.40000504
1.40000504
1.40000504
1.40000504
1.40000504
1.400005049
1.400007159
1.40038461
1.429597345
2.067349627
2.860420822
3.151654236
3.158584778
3.110823104
3.031848167
2.955218852
2.89011616
2.82575403
2.738185974
2.684005501
2.637108522
2.574390924
1.40000504
1.40000504
1.40000504
1.40000504
1.40000504
1.40000504
1.40000504
1.40000504
1.40000504
1.40000504
1.40000504
1.40000504
1.40000504
1.40000504
1.40000504
1.40000504
1.40000504
1.40000504
1.400005041
1.400005142
1.400024804
1.402589563
1.551866763
2.538110222
3.017611911
3.160701716
3.156920324
3.093522125
3.002638217
2.922920242
2.857172194
2.796933546
2.715365367
2.654029085
2.611325089
2.551594365
1.40000504
1.40000504
1.40000504
1.40000504
1.40000504
1.40000504
1.40000504
1.40000504
1.40000504
1.40000504
1.40000504
1.40000504
1.40000504
1.40000504
1.40000504
1.40000504
1.40000504
1.40000504
1.400005045
1.400005785
1.400175757
1.416641561
1.895754403
2.892071627
3.101056297
3.148345783
3.142976613
3.07174603
2.974545861
2.894214462
2.827139067
2.767636147
2.695118381
2.62628874
2.583793518
2.527300455
1.40000504
1.40000504
1.40000504
1.40000504
1.40000504
1.40000504
1.40000504
1.40000504
1.40000504
1.40000504
1.40000504
1.40000504
1.40000504
1.40000504
1.40000504
1.40000504
1.40000504
1.40000504
1.400005068
1.400011324
1.401661968
1.501885407
2.415701842
3.059203354
3.124635588
3.134305912
3.115014375
3.042379378
2.949838895
2.868311955
2.796928457
2.735298785
2.671400754
2.598708027
2.55403351
2.50255844
1.40000504
1.40000504
1.40000504
1.40000504
1.40000504
1.40000504
1.40000504
1.40000504
1.40000504
1.40000504
1.40000504
1.40000504
1.40000504
1.40000504
1.40000504
1.40000504
1.40000504
1.400005041
1.400005259
1.400108946
1.41722355
1.800770865
2.899547484
3.167776334
3.156939791
3.122745607
3.077477877
3.010181954
2.924739514
2.842778618
2.768389911
2.703759786
2.645693055
2.574355453
2.524331387
2.476392856
1.40000504
1.40000504
1.40000504
1.40000504
1.40000504
1.40000504
1.40000504
1.40000504
1.40000504
1.40000504
1.40000504
1.40000504
1.40000504
1.40000504
1.40000504
1.40000504
1.40000504
1.400005047
1.400010467
1.402018286
1.529709708
2.325458213
3.147516722
3.181035674
3.152989994
3.100482729
3.040061863
2.979899223
2.90244226
2.820416817
2.742820854
2.673195373
2.616812552
2.549824956
2.494018723
2.447594836
1.40000504
1.40000504
1.40000504
1.40000504
1.40000504
1.40000504
1.40000504
1.40000504
1.40000504
1.40000504
1.40000504
1.40000504
1.40000504
1.40000504
1.40000504
1.40000504
1.400005041
1.400005377
1.400171252
1.425132219
1.892349117
2.842220634
3.211490176
3.212427844
3.171990885
3.090466863
3.012388892
2.952020704
2.878511225
2.794783508
2.714963957
2.642676936
2.586901883
2.525503331
2.464566417
2.417857644
1.40000504
1.40000504
1.40000504
1.40000504
1.40000504
1.40000504
1.40000504
1.40000504
1.40000504
1.40000504
1.40000504
1.40000504
1.40000504
1.40000504
1.40000504
1.40000504
1.40000506
1.400017537
1.40263109
1.569611576
2.399684893
3.128241429
3.212995308
3.185224974
3.13241283
3.065198572
2.98163329
2.918989996
2.850727983
2.769764964
2.69049089
2.617544701
2.560596541
2.502909931
2.436810662
2.388228222
1.40000504
1.40000504
1.40000504
1.40000504
1.40000504
1.40000504
1.40000504
1.40000504
1.40000504
1.40000504
1.40000504
1.40000504
1.40000504
1.40000504
1.40000504
1.400005042
1.400005788
1.400210453
1.422825456
1.964968518
2.816615388
3.191475227
3.202881638
3.161879531
3.103423328
3.038873301
2.953662868
2.88763272
2.823459561
2.745686679
2.66551775
2.591595901
2.531949298
2.477569235
2.408594484
2.357627654
1.40000504
1.40000504
1.40000504
1.40000504
1.40000504
1.40000504
1.40000504
1.40000504
1.40000504
1.40000504
1.40000504
1.40000504
1.40000504
1.40000504
1.40000504
1.400005082
1.400017353
1.401813681
1.530567363
2.453465729
3.058256016
3.227856046
3.209003117
3.148596506
3.070416996
3.007035175
2.925364272
2.852222871
2.790498646
2.718170143
2.639970639
2.568306132
2.507099843
2.455197551
2.38519173
2.329635181
1.40000504
1.40000504
1.40000504
1.40000504
1.40000504
1.40000504
1.40000504
1.40000504
1.40000504
1.40000504
1.40000504
1.40000504
1.40000504
1.40000504
1.400005043
1.400005616
1.400126889
1.411409846
1.846987493
2.843323534
3.142518999
3.204606753
3.196035034
3.125931614
3.034191765
2.970304746
2.895170381
2.816627676
2.757446963
2.691352744
2.615451942
2.545640314
2.482432946
2.429329106
2.359627506
2.299792276
1.40000504
1.40000504
1.40000504
1.40000504
1.40000504
1.40000504
1.40000504
1.40000504
1.40000504
1.40000504
1.40000504
1.40000504
1.40000504
1.40000504
1.400005065
1.400009999
1.400898257
1.465807229
2.32365334
3.03713143
3.194239623
3.220654848
3.192012258
3.106578648
3.00884424
2.942881024
2.868975902
2.783637469
2.723176314
2.660640144
2.58565881
2.518873442
2.457164163
2.403594181
2.336212861
2.273477068
1.40000504
1.40000504
1.40000504
1.40000504
1.40000504
1.40000504
1.40000504
1.40000504
1.40000504
1.40000504
1.40000504
1.40000504
1.40000504
1.400005041
1.400005206
1.400047505
1.406049874
1.678621887
2.796087907
3.172717091
3.205560174
3.197028239
3.172814781
3.08632804
2.981909498
2.90748661
2.836200112
2.749041531
2.687471407
2.62893538
2.555371702
2.49130844
2.432420655
2.377667351
2.311149445
2.247135072
1.40000504
1.40000504
1.40000504
1.40000504
1.40000504
1.40000504
1.40000504
1.40000504
1.40000504
1.40000504
1.40000504
1.40000504
1.40000504
1.400005045
1.40000636
1.400478628
1.443212428
2.112786332
3.104466625
3.201465796
3.191211206
3.180818311
3.150428384
3.062930736
2.96041841
2.879530423
2.810026656
2.721393034
2.655829507
2.59777032
2.522363251
2.457861079
2.402266738
2.347738384
2.283200172
2.220479402
1.40000504
1.40000504
1.40000504
1.40000504
1.40000504
1.40000504
1.40000504
1.40000504
1.40000504
1.40000504
1.40000504
1.40000504
1.40000504
1.400005083
1.400029474
1.406067857
1.633263744
2.647619602
3.23679566
3.235997424
3.198366395
3.154957367
3.115266288
3.041191062
2.944737973
2.856146967
2.779594642
2.689347187
2.62116642
2.564246025
2.488246988
2.422134843
2.370264819
2.317537149
2.255010212
2.194539461
1.40000504
1.40000504
1.40000504
1.40000504
1.40000504
1.40000504
1.40000504
1.40000504
1.40000504
1.40000504
1.40000504
1.40000504
1.400005041
1.4000062
1.40059501
1.461680319
2.0827171
3.081032154
3.260193799
3.240408196
3.186446597
3.122807707
3.081143075
3.01683433
2.925235858
2.832364468
2.750436785
2.660759305
2.590796236
2.533186465
2.456707536
2.385198446
2.335378828
2.284577856
2.223425181
2.165625199
1.40000504
1.40000504
1.40000504
1.40000504
1.40000504
1.40000504
1.40000504
1.40000504
1.40000504
1.40000504
1.40000504
1.40000504
1.400005099
1.400044522
1.408802875
1.730985408
2.619585518
3.244539132
3.248735663
3.226889749
3.173189867
3.098844474
3.049932293
2.989257159
2.903171343
2.810939405
2.72510986
2.634106501
2.560982671
2.500842328
2.425414579
2.346972535
2.298113015
2.24989566
2.191049835
2.136728837
1.40000504
1.40000504
1.40000504
1.40000504
1.40000504
1.40000504
1.40000504
1.40000504
1.40000504
1.40000504
1.40000504
1.400005043
1.400007516
1.400711777
1.474807839
2.234163012
3.039000927
3.277722064
3.265366542
3.223579428
3.157741546
3.074677713
3.01906224
2.955576711
2.872865008
2.784149402
2.696032723
2.60506151
2.530959928
2.468283293
2.395583363
2.310383492
2.260409381
2.214917065
2.158583968
2.105788624
1.40000504
1.40000504
1.40000504
1.40000504
1.40000504
1.40000504
1.40000504
1.40000504
1.40000504
1.40000504
1.40000504
1.400005161
1.400053169
1.406792094
1.743431415
2.697968275
3.215457228
3.279275234
3.247849128
3.193648279
3.125289784
3.044068774
2.985283621
2.917161997
2.835972166
2.753083926
2.666179385
2.576304963
2.501578282
2.435929499
2.365457967
2.276022131
2.223047836
2.179331906
2.125130816
2.074013668
1.40000504
1.40000504
1.40000504
1.40000504
1.40000504
1.40000504
1.40000504
1.40000504
1.40000504
1.40000504
1.400005046
1.400007166
1.400501397
1.443918186
2.221035949
3.000339649
3.273399802
3.281103274
3.240456752
3.17517735
3.100539514
3.01534983
2.95383253
2.879550341
2.794670776
2.716402189
2.631860089
2.54244761
2.468474678
2.401696703
2.333735146
2.244325526
2.187825269
2.145350686
2.093824449
2.04329975
1.40000504
1.40000504
1.40000504
1.40000504
1.40000504
1.40000504
1.40000504
1.40000504
1.40000504
1.400005041
1.400005122
1.400028343
1.403449338
1.606351005
2.688554172
3.149817566
3.284282327
3.2887601
3.24123756
3.162742905
3.072339691
2.981980195
2.918818782
2.838988358
2.748457986
2.674711008
2.594834856
2.507301665
2.435259597
2.36906617
2.302954265
2.215712715
2.155837252
2.113208174
2.063116708
2.012072654
1.40000504
1.40000504
1.40000504
1.40000504
1.40000504
1.40000504
1.40000504
1.40000504
1.40000504
1.400005043
1.400005822
1.400219787
1.42145835
1.98426399
2.990095236
3.23284122
3.282679656
3.290724861
3.23964813
3.148395397
3.044780654
2.950384595
2.884830722
2.801944217
2.704365337
2.631992911
2.556841558
2.470478855
2.399057267
2.333611893
2.268722285
2.185594679
2.124483168
2.081882352
2.034312464
1.983180787
1.40000504
1.40000504
1.40000504
1.40000504
1.40000504
1.40000504
1.40000504
1.40000504
1.40000504
1.400005065
1.400012798
1.401955656
1.522845198
2.49414314
3.128575786
3.251200555
3.284802919
3.286715668
3.22988026
3.132465006
3.021950807
2.922507741
2.850174927
2.76422574
2.661462344
2.588448694
2.516974454
2.431638704
2.361631473
2.299168256
2.236398164
2.158105208
2.097214732
2.053937497
2.008050318
1.955629677
1.40000504
1.40000504
1.40000504
1.40000504
1.40000504
1.40000504
1.40000504
1.40000504
1.400005041
1.400005273
1.400118604
1.418060664
1.846258741
2.953875147
3.246519198
3.281756704
3.273157576
3.256455711
3.203844397
3.108748992
2.992151173
2.889083147
2.811896118
2.725949592
2.622139627
2.547753468
2.479275798
2.395054467
2.324826514
2.264209283
2.202273996
2.127353402
2.067960459
2.025140283
1.981816872
1.929559563
1.40000504
1.40000504
1.40000504
1.40000504
1.40000504
1.40000504
1.40000504
1.40000504
1.400005047
1.400010153
1.401883372
1.529119035
2.380643458
3.205801282
3.249341043
3.266171877
3.246486813
3.218230105
3.166912751
3.077650854
2.959592075
2.854930098
2.774880367
2.68903271
2.586380381
2.509765808
2.442296628
2.358951518
2.287559363
2.229790754
2.169905671
2.098795196
2.041666075
1.999324175
1.957767918
1.905988271
1.40000504
1.40000504
1.40000504
1.40000504
1.40000504
1.40000504
1.40000504
1.40000504
1.400005284
1.400146115
1.423109536
1.891625926
2.902958339
3.304876105
3.296924704
3.278432452
3.233134265
3.179539255
3.124356281
3.041968777
2.923173125
2.815969407
2.732875192
2.648135402
2.549831449
2.473173087
2.40665917
2.326137785
2.253486513
2.197803342
2.139547309
2.069905648
2.013827636
1.972217812
1.932307387
1.881796096
1.40000504
1.40000504
1.40000504
1.40000504
1.40000504
1.40000504
1.40000504
1.400005052
1.400013903
1.4022763
1.562882308
2.423610895
3.215452464
3.304711289
3.277790786
3.251454166
3.214296491
3.144253539
3.080656236
2.999860044
2.880844008
2.774986512
2.693571536
2.612072321
2.518275835
2.441392723
2.37365626
2.295632051
2.220619798
2.16571077
2.109367959
2.041983
1.986895045
1.946149056
1.907385009
1.859000991
1.40000504
1.40000504
1.40000504
1.40000504
1.40000504
1.40000504
1.400005041
1.400005528
1.400167383
1.420980356
1.964756825
2.868443872
3.297584098
3.309623597
3.277729837
3.240063203
3.194903704
3.113598299
3.038027549
2.956419176
2.838351716
2.734060559
2.652285758
2.570004848
2.480152348
2.40637604
2.339490641
2.265735988
2.19019764
2.13627904
2.0822359
2.016546129
1.96062657
1.919906458
1.881492267
1.834895501
1.40000504
1.40000504
1.40000504
1.40000504
1.40000504
1.40000504
1.400005066
1.400014262
1.401638976
1.527181809
2.469667587
3.150740007
3.325372326
3.317622427
3.286829893
3.235485653
3.17452045
3.08306564
2.995549654
2.911748714
2.794115942
2.689595124
2.611780939
2.532629264
2.44701928
2.376049856
2.309193439
2.23755519
2.161543148
2.106775007
2.053282292
1.989348878
1.932964087
1.892955208
1.855240682
1.810506878
1.40000504
1.40000504
1.40000504
1.40000504
1.40000504
1.400005042
1.400005459
1.400110797
1.411440268
1.855554085
2.871849755
3.240385736
3.312839158
3.30933121
3.271209879
3.208499761
3.143157208
3.050654695
2.956895057
2.869918598
2.754615503
2.650013842
2.574829288
2.497345531
2.411778799
2.34186875
2.276039826
2.207310792
2.132614525
2.077542766
2.02557304
1.964982925
1.908255839
1.867730757
1.829334079
1.785169327
1.40000504
1.40000504
1.40000504
1.40000504
1.40000504
1.400005059
1.400009249
1.400877833
1.469657645
2.35300231
3.10019377
3.2787951
3.322702609
3.313791067
3.262251645
3.190942852
3.120009499
3.022145138
2.922702762
2.831530395
2.719147435
2.611804552
2.536479593
2.461322882
2.378156851
2.309458616
2.244961827
2.178353356
2.105046847
2.049494802
1.997499588
1.938507106
1.880391868
1.839695322
1.801674095
1.758854335
1.40000504
1.40000504
1.40000504
1.40000504
1.400005041
1.400005177
1.400044624
1.406208025
1.700331353
2.854493445
3.204190264
3.279635348
3.307104572
3.304131455
3.246620058
3.16550926
3.083529742
2.98429587
2.886382203
2.793529933
2.685594154
2.577310174
2.502301876
2.429449239
2.347749966
2.277754878
2.212554969
2.146371504
2.074722928
2.018682785
1.967217614
1.910968449
1.853195935
1.812582597
1.77504884
1.733184237
1.40000504
1.40000504
1.40000504
1.40000504
1.400005044
1.400006157
1.400442458
1.444558353
2.153666085
3.177932365
3.250857153
3.263552818
3.263684821
3.268332362
3.225395165
3.142428265
3.053049692
2.950667863
2.852464825
2.757366409
2.652855392
2.544645169
2.467344474
2.394539058
2.314494488
2.243406454
2.179136426
2.114704982
2.045146101
1.989170176
1.938009145
1.88356072
1.825388868
1.784182734
1.746791494
1.705694933
1.40000504
1.40000504
1.40000504
1.40000504
1.400005073
1.400025742
1.405444914
1.637616717
2.718060969
3.29066478
3.27876006
3.25215963
3.235331016
3.236794487
3.198659614
3.115202379
3.020697523
2.914723439
2.816295028
2.720607794
2.619588588
2.512933983
2.433481397
2.361203163
2.283537059
2.21112494
2.146111279
2.081215285
2.012150619
1.956044931
1.905501434
1.852953289
1.795686723
1.754653464
1.718398976
1.67912912
1.40000504
1.40000504
1.40000504
1.400005041
1.400006197
1.400531724
1.455941583
2.095267974
3.162499104
3.315316484
3.293297026
3.255945619
3.220871341
3.21150631
3.171887364
3.086661367
2.988335612
2.880340087
2.781462314
2.685559353
2.586667863
2.481150024
2.398769089
2.325322331
2.249260445
2.175303668
2.110262914
2.046653445
1.979418135
1.923399462
1.873612112
1.82283508
1.76651405
1.725295351
1.689480637
1.651464397
1.40000504
1.40000504
1.40000504
1.400005119
1.400044712
1.408019735
1.705293517
2.666933555
3.311821368
3.311984774
3.288979702
3.258615547
3.210200016
3.185492005
3.141612363
3.05685591
2.956910677
2.846980717
2.745196064
2.648006828
2.550056252
2.446203546
2.361183779
2.287550438
2.213769608
2.13953175
2.074852142
2.012492336
1.946393196
1.890329468
1.84116197
1.791550597
1.736526188
1.695496428
1.660417455
1.623684783
1.40000504
1.40000504
1.400005042
1.40000734
1.400635886
1.467635694
2.188694618
3.105344689
3.335026605
3.326326437
3.291603735
3.253546073
3.201186697
3.166090835
3.113924829
3.025240131
2.923277661
2.813592748
2.708379074
2.610064898
2.514183152
2.411585427
2.323780221
2.249137472
2.176420493
2.102251848
2.037235752
1.975347472
1.910803237
1.855082713
1.807204993
1.759429175
1.705989385
1.665215502
1.630896345
1.595707132
1.40000504
1.40000504
1.400005086
1.400038681
1.405506701
1.71107399
2.666250223
3.255674297
3.327184002
3.306099787
3.278066108
3.241832135
3.193787072
3.149432326
3.08756177
2.993570905
2.890243461
2.781604909
2.671329449
2.569545655
2.472359028
2.370820384
2.282033305
2.207745406
2.13706134
2.063927372
1.999734204
1.939750245
1.877327286
1.821761576
1.774573712
1.728098852
1.676167735
1.635688414
1.602062432
1.567905933
1.40000504
1.400005041
1.400005807
1.400318675
1.436272728
2.157353098
2.994021729
3.304013595
3.305291008
3.289846228
3.267084458
3.237797823
3.185027449
3.131839009
3.060776865
2.96057884
2.854158449
2.745019979
2.629693588
2.525737456
2.429666326
2.330405244
2.239981714
2.166142257
2.097224835
2.025401487
1.961874603
1.902853987
1.842074367
1.787073018
1.741081421
1.696093519
1.645640332
1.605600925
1.572937451
1.540167434
1.502259511
1.40000504
1.400005055
1.400016616
1.402350127
1.588617009
2.637931288
3.121233935
3.273218917
3.302210768
3.287144153
3.257712444
3.221769398
3.16907475
3.110697973
3.030587716
2.923167195
2.814087691
2.705692446
2.586565493
2.480973171
2.385975794
2.28852483
2.19734714
2.123804042
2.056385777
1.986409459
1.924093688
1.866461361
1.807488484
1.753045941
1.707887792
1.664247897
1.615634684
1.576229116
1.544413885
1.512649551
1.475592304
1.40000504
1.400005322
1.400169574
1.417451551
1.978929907
2.96845365
3.241416212
3.287192779
3.285967929
3.281380823
3.255698428
3.215688836
3.158031097
3.087096312
2.995751565
2.882318767
2.771016114
2.662095836
2.539962904
2.433102082
2.33870598
2.244367691
2.153136493
2.080557754
2.015106282
1.947052006
1.88568913
1.829462902
1.772534049
1.719087296
1.674867087
1.632454785
1.585397467
1.546560431
1.515713168
1.485108481
1.449410959
1.40000504
1.400010221
1.40195617
1.512101548
2.510665509
3.135045912
3.240203392
3.283520358
3.285022297
3.284080262
3.258336596
3.212547168
3.138313824
3.055712557
2.957165137
2.838566582
2.724202244
2.615091208
2.491944222
2.384630849
2.292241166
2.200989731
2.109808245
2.037845463
1.973942145
1.90795918
1.847879597
1.792840195
1.737600647
1.684894897
1.641588711
1.600593891
1.555518493
1.517579314
1.487652326
1.458050858
1.423412545
1.40000504
1.400097315
1.418653715
1.828430071
2.956918422
3.248711587
3.273165599
3.294313876
3.294135401
3.276949561
3.255702742
3.203466279
3.115198135
3.021332236
2.914833992
2.790483838
2.674232308
2.565472048
2.442308321
2.335146471
2.24461113
2.156579386
2.066264703
1.995103048
1.93268637
1.868759684
1.809650412
1.75594172
1.70267892
1.651204204
1.608847768
1.569128943
1.525693239
1.48844651
1.459456557
1.430834742
1.397603924
1.400005051
1.401333302
1.525519798
2.351860179
3.177688066
3.252706184
3.279203735
3.291624399
3.296783914
3.282995854
3.252373269
3.186646091
3.083733328
2.980246017
2.867805174
2.739596411
2.622605923
2.514574758
2.392848819
2.285586371
)
;

boundaryField
{
    inlet
    {
        type            calculated;
        value           nonuniform 0();
    }
    outlet
    {
        type            calculated;
        value           nonuniform 0();
    }
    bottom
    {
        type            calculated;
        value           nonuniform List<scalar> 
37
(
1.40000504
1.40000504
1.40000504
1.40000504
1.40000504
1.40000504
1.40000504
1.40000504
1.40000504
1.40000504
1.40000504
1.40000504
1.40000504
1.40000504
1.40000504
1.40000504
1.40000504
1.40000504
1.40000504
1.40000504
1.40000504
1.40000504
1.40000504
1.40000504
1.40000504
1.40000504
1.40000504
1.40000504
1.40000504
1.400005065
1.400008863
1.401102359
1.449840317
2.410731972
4.461760053
5.918697822
5.900651744
)
;
    }
    top
    {
        type            calculated;
        value           nonuniform 0();
    }
    obstacle
    {
        type            calculated;
        value           nonuniform 0();
    }
    defaultFaces
    {
        type            empty;
    }
    procBoundary3to2
    {
        type            processor;
        value           nonuniform List<scalar> 
37
(
1.40000504
1.40000504
1.40000504
1.40000504
1.40000504
1.40000504
1.40000504
1.40000504
1.40000504
1.40000504
1.40000504
1.40000504
1.40000504
1.40000504
1.40000504
1.40000504
1.40000504
1.40000504
1.40000504
1.40000504
1.40000504
1.40000504
1.40000504
1.40000504
1.40000504
1.40000504
1.40000504
1.40000504
1.40000504
1.40000504
1.40000504
1.40000504
1.40000504
1.40000504
1.40000504
1.40000504
1.40000504
)
;
    }
    procBoundary3to4
    {
        type            processor;
        value           nonuniform List<scalar> 
62
(
5.651709187
5.598579171
5.523962019
5.290402635
4.77979339
3.816401387
3.063816053
2.811768957
2.738443334
2.714440535
2.700705462
2.685940529
2.661879919
2.633500751
2.610036453
2.586335777
2.561757271
2.53373254
2.508549213
2.487625194
2.463708036
2.439731243
2.416217473
2.392489028
2.367651764
2.340531126
2.311908508
2.284292203
2.255338241
2.228613911
2.201391809
2.17399074
2.147328623
2.118590991
2.090793855
2.060565123
2.030809826
2.001187158
1.971388859
1.943349751
1.915386431
1.889178478
1.864485841
1.839456521
1.816574418
1.792090605
1.767908253
1.742659794
1.716801365
1.69106775
1.663611888
1.637544778
1.610107668
1.582969699
1.555902389
1.528804267
1.528804267
1.47080124
1.44457448
1.418790317
1.393178811
1.367885861
)
;
    }
    procBoundary3to8
    {
        type            processor;
        value           nonuniform List<scalar> 
26
(
1.40000504
1.40000504
1.40000504
1.40000504
1.40000504
1.40000504
1.40000504
1.40000504
1.40000504
1.40000504
1.40000504
1.40000504
1.40000504
1.40000504
1.40000504
1.40000504
1.40000504
1.40000504
1.40000504
1.40000504
1.40000504
1.40000504
1.40000504
1.40000504
1.40000504
1.40000504
)
;
    }
    procBoundary3to9
    {
        type            processor;
        value           nonuniform List<scalar> 
38
(
2.197069429
2.11231677
2.023158152
1.952719649
1.891776529
1.829896355
1.772043704
1.719375372
1.667753821
1.617275079
1.575904393
1.537575259
1.496086646
1.459884689
1.431799126
1.404105532
1.372044657
1.400005564
1.413938128
1.873514556
2.81714567
3.27135641
3.29865751
3.295525692
3.301694001
3.30135988
3.283048516
3.241294685
3.161571294
3.046431153
2.935876846
2.819588602
2.687976837
2.570230577
2.462957765
2.342844476
2.197069429
2.235616868
)
;
    }
}


// ************************************************************************* //
