/*--------------------------------*- C++ -*----------------------------------*\
  =========                 |
  \\      /  F ield         | OpenFOAM: The Open Source CFD Toolbox
   \\    /   O peration     | Website:  https://openfoam.org
    \\  /    A nd           | Version:  7
     \\/     M anipulation  |
\*---------------------------------------------------------------------------*/
FoamFile
{
    version     2.0;
    format      ascii;
    class       volScalarField;
    location    "4.2";
    object      p;
}
// * * * * * * * * * * * * * * * * * * * * * * * * * * * * * * * * * * * * * //

dimensions      [1 -1 -2 0 0 0 0];

internalField   nonuniform List<scalar> 
2223
(
1.252156091
1.214711939
1.177387677
1
1
1
1.000000001
1.000000354
1.000052904
1.003960956
1.095559736
1.859014354
2.566868434
2.743585031
2.83101813
2.839421088
2.810365314
2.782983732
2.756860278
2.707055744
2.651129614
2.569591537
2.448662759
2.337133915
2.23334644
2.123686277
2.027767987
1.938185408
1.839684119
1.74037714
1.674601692
1.614998627
1.544357192
1.479893148
1.430187362
1.384015046
1.331135166
1.288138894
1.249558252
1.210543098
1
1
1
1
1.00000002
1.000004168
1.000434806
1.018021731
1.33885707
2.256140488
2.645900423
2.802695789
2.827434732
2.817281679
2.811082361
2.79601359
2.739051081
2.686044875
2.614846442
2.500003035
2.390146907
2.286838558
2.178692458
2.084201003
1.995354622
1.893080998
1.790328545
1.723347303
1.661223437
1.586800714
1.521907145
1.471271116
1.423532591
1.368579651
1.32366482
1.283501303
1.242338833
1
1
1
1
1.000000001
1.000000296
1.000039437
1.002709996
1.082618665
1.765685866
2.421640031
2.762181665
2.823013671
2.814033233
2.804094433
2.79626664
2.754345896
2.71414496
2.655948356
2.548941046
2.443242165
2.343115635
2.235287456
2.139237373
2.049760741
1.94386823
1.839620295
1.772199826
1.708026694
1.630476561
1.565404466
1.514493432
1.465116583
1.407491743
1.360940304
1.318704617
1.27492401
1
1
1
1
1
1.000000014
1.000002594
1.000278413
1.013932693
1.276900116
1.99552046
2.628168358
2.824889323
2.822174031
2.81003382
2.79390337
2.760551569
2.741267547
2.694593961
2.592334745
2.490689369
2.397118804
2.29206929
2.195568145
2.105952829
1.995070963
1.890107358
1.82174513
1.754360503
1.672351184
1.606128395
1.55515612
1.505247246
1.446242762
1.397710516
1.353896045
1.307387934
1
1
1
1
1
1
1.000000091
1.000016421
1.001416131
1.051997214
1.47647609
2.228230808
2.791605148
2.815708645
2.797021905
2.784966314
2.77297851
2.767479253
2.721769644
2.62783803
2.535756579
2.450361693
2.346085495
2.247529578
2.157606438
2.04298316
1.939135173
1.871557059
1.803434469
1.71930173
1.650837889
1.597644701
1.543921945
1.483048284
1.434376001
1.389572717
1.341094152
1
1
1
1
1
1
1.000000001
1.000000455
1.000072127
1.00519631
1.117324375
1.660904384
2.626318442
2.785018022
2.769184202
2.780434149
2.790562528
2.793285865
2.744143698
2.657807037
2.578920938
2.504656039
2.403196276
2.303889415
2.211773102
2.090764648
1.986877528
1.918551888
1.849663622
1.765327461
1.696008546
1.641025012
1.583592206
1.520461662
1.47066385
1.425062796
1.37474882
1
1
1
1
1
1
1
1.000000008
1.000002104
1.000287393
1.015031957
1.223073366
2.122846482
2.721748329
2.758597203
2.782266632
2.809726178
2.81169179
2.762654001
2.690240197
2.620837117
2.551517039
2.453152426
2.356654455
2.264243328
2.139835329
2.035834268
1.966750301
1.898191702
1.812390728
1.741579212
1.684581181
1.622053883
1.557183893
1.506776849
1.460267069
1.409211512
1
1
1
1
1
1
1
1
1.000000085
1.000014477
1.001379197
1.045510645
1.516650824
2.512538459
2.711401926
2.773437177
2.813378997
2.811543057
2.774222034
2.720408223
2.6615379
2.594673744
2.499042346
2.405796815
2.313407891
2.188394778
2.083585296
2.01350801
1.945590616
1.85826213
1.786861887
1.729663529
1.66393778
1.597154597
1.543848597
1.495192603
1.441715379
1
1
1
1
1
1
1
1
1.000000008
1.000001184
1.00012516
1.007030861
1.153950674
2.048738595
2.593844538
2.746590935
2.80767111
2.80516326
2.776826661
2.736753425
2.691713382
2.63295541
2.543498398
2.45038103
2.357739038
2.2379583
2.135241637
2.06390391
1.994313736
1.900075437
1.826376903
1.769060143
1.70242439
1.637030937
1.582677687
1.533158431
1.477657089
1
1
1
1
1
1
1
1
1.000000001
1.000000112
1.000012456
1.000929599
1.032825757
1.490028754
2.347399778
2.689007831
2.80624066
2.811520381
2.782499592
2.759373755
2.727711475
2.668237762
2.588770332
2.495943954
2.398179169
2.281064964
2.184026555
2.116586591
2.047503593
1.947781024
1.870527341
1.810386174
1.741029756
1.675902665
1.620483757
1.570448749
1.512276472
1
1
1
1
1
1
1
1
1
1.000000007
1.000001017
1.000098446
1.005606889
1.141202718
1.905203697
2.509505985
2.780908375
2.813090429
2.789950325
2.77685943
2.741640716
2.690128603
2.631352105
2.54378446
2.443162799
2.326844865
2.229368381
2.164844412
2.097377137
1.996172809
1.916786758
1.852438409
1.779125673
1.714305542
1.659314898
1.610060081
1.548604
1
1
1
1
1
1
1
1
1
1
1.000000046
1.000007103
1.000643004
1.025288219
1.385692581
2.123135679
2.698022634
2.816783419
2.807869967
2.779973137
2.741826034
2.707622626
2.67163686
2.588241942
2.489049402
2.377738135
2.276122405
2.211794438
2.145402328
2.045395913
1.964973823
1.897159578
1.818740085
1.751406705
1.696369007
1.647831903
1.584149613
1
1
1
1
1
1
1
1
1
1
1.000000001
1.000000254
1.000038734
1.002767536
1.083790412
1.593592251
2.41046707
2.824763485
2.82373392
2.775899449
2.742820618
2.733353963
2.710536225
2.627062211
2.529702953
2.427735317
2.325482055
2.257558917
2.187569208
2.088784811
2.009049782
1.940544664
1.861665399
1.792789603
1.736295903
1.685062824
1.615820571
1
1
1
1
1
1
1
1
1
1
1
1.000000004
1.000001063
1.00015643
1.009326967
1.180831539
1.862224619
2.715768579
2.752841326
2.751459593
2.755350217
2.763336921
2.741727913
2.658252312
2.563792333
2.472570289
2.376686415
2.307674392
2.232318902
2.132838814
2.050660983
1.980499461
1.902742781
1.83491488
1.778708451
1.724159376
1.650362726
1
1
1
1
1
1
1
1
1
1
1
1
1.00000002
1.000005474
1.000605171
1.029295996
1.344928589
2.303926151
2.681581647
2.746489688
2.769841989
2.781997981
2.757460691
2.682007634
2.598348444
2.51432929
2.422294515
2.355396727
2.278780237
2.180170106
2.09450475
2.022382224
1.94297781
1.874261142
1.819325255
1.761362469
1.684589578
1
1
1
1
1
1
1
1
1
1
1
1
1.000000001
1.000000275
1.000032462
1.003242469
1.080458461
1.672076518
2.569552958
2.725517504
2.755542537
2.779378831
2.763747966
2.704404074
2.637020541
2.559967301
2.466986138
2.399023546
2.323560306
2.228111931
2.140676809
2.068167134
1.985563315
1.913369938
1.858920295
1.798414374
1.721830762
1
1
1
1
1
1
1
1
1
1
1
1
1
1.000000026
1.000002581
1.000307341
1.012918443
1.230428283
2.207747908
2.604810842
2.708480099
2.77519776
2.767518545
2.722687954
2.671796798
2.603047923
2.51367912
2.444323434
2.366290201
2.271320055
2.184174146
2.113998941
2.030680503
1.954656953
1.897256264
1.832185058
1.756824664
1
1
1
1
1
1
1
1
1
1
1
1
1
1.000000002
1.000000247
1.000030688
1.001780692
1.055960922
1.638064912
2.420563669
2.686458263
2.787551069
2.770131131
2.73182414
2.695908377
2.636546988
2.557837254
2.491690826
2.408067791
2.308555774
2.22198487
2.155850307
2.074544709
1.998092375
1.937590542
1.867090466
1.791146023
1
1
1
1
1
1
1
1
1
1
1
1
1
1
1.000000017
1.000002729
1.000195921
1.01051559
1.209290169
2.059572576
2.57479769
2.770737192
2.771759357
2.749410764
2.723138334
2.663610513
2.595457938
2.536612489
2.451268501
2.346507923
2.258849709
2.19465875
2.11455198
2.039991705
1.97857971
1.904349597
1.826641104
1
1
1
1
1
1
1
1
1
1
1
1
1
1
1.000000001
1.000000138
1.00001431
1.001328379
1.042571902
1.542942664
2.248646823
2.711864275
2.792633501
2.778125349
2.760971823
2.690269127
2.62658614
2.575971841
2.493576361
2.388191312
2.301551371
2.236081332
2.153825877
2.080809887
2.018263975
1.942567884
1.864575264
1
1
1
1
1
1
1
1
1
1
1
1
1
1
1
1.000000003
1.000000522
1.000092303
1.005491648
1.147617317
1.76836663
2.488271658
2.791575443
2.79800383
2.764226218
2.696351053
2.657014518
2.617976768
2.533743967
2.427612545
2.34597165
2.279421147
2.195603976
2.123352631
2.057371913
1.979467402
1.901728535
1
1
1
1
1
1
1
1
1
1
1
1
1
1
1
1
1.000000009
1.000003135
1.000387373
1.020562819
1.288253419
1.993668539
2.729737588
2.772855512
2.742294474
2.702471928
2.691344254
2.660593885
2.570221428
2.461732171
2.385214201
2.319172502
2.23726817
2.165892415
2.096863074
2.01646449
1.93692749
1
1
1
1
1
1
1
1
1
1
1
1
1
1
1
1
1
1.000000061
1.000015441
1.001603454
1.055208373
1.450401279
2.445992985
2.737585252
2.718751791
2.72099632
2.726631177
2.69509982
2.604540282
2.498740851
2.423281954
2.355547288
2.276610353
2.206467806
2.136532823
2.054801062
1.97243781
1
1
1
1
1
1
1
1
1
1
1
1
1
1
1
1
1
1.000000003
1.000000597
1.000083412
1.006276694
1.125147137
1.864118521
2.632497052
2.683532945
2.715472851
2.741830666
2.71741711
2.635085133
2.540412635
2.466741558
2.395537484
2.317915982
2.247011276
2.176027748
2.094447979
2.011255113
1
1
1
1
1
1
1
1
1
1
1
1
1
1
1
1
1
1
1.000000041
1.00000511
1.000553611
1.022568313
1.328460325
2.319362098
2.608046708
2.70432137
2.742685005
2.717685269
2.652151611
2.575743457
2.508095783
2.436358078
2.359883127
2.286804983
2.214386605
2.132796168
2.04992271
1
1
1
1
1
1
1
1
1
1
1
1
1
1
1
1
1
1
1.000000004
1.000000431
1.000049891
1.003217222
1.080576222
1.784522864
2.454416095
2.685732469
2.748082175
2.72356847
2.670458778
2.60986348
2.541386314
2.471601131
2.400228639
2.325309382
2.251437891
2.169693324
2.087212791
1
1
1
1
1
1
1
1
1
1
1
1
1
1
1
1
1
1
1
1.000000033
1.000004604
1.000375886
1.015503503
1.298465532
2.141646796
2.579003788
2.742309765
2.732483424
2.694461781
2.644674383
2.574085509
2.508663553
2.442066982
2.364357188
2.288938203
2.207446805
2.125724815
1
1
1
1
1
1
1
1
1
1
1
1
1
1
1
1
1
1
1
1.000000001
1.000000303
1.000033804
1.002282202
1.069956881
1.665632777
2.300824263
2.712756988
2.75322559
2.732689996
2.690794063
2.607209933
2.54390162
2.481505155
2.401152491
2.32443695
2.24425008
2.164057098
1
1
1
1
1
1
1
1
1
1
1
1
1
1
1
1
1
1
1
1
1.00000001
1.000001828
1.000204751
1.010738544
1.21793264
1.851080302
2.558791529
2.748242532
2.735830575
2.702765297
2.631161506
2.581671996
2.522529473
2.435588214
2.356469003
2.279964257
2.202615672
1
1
1
1
1
1
1
1
1
1
1
1
1
1
1
1
1
1
1
1
1
1.000000044
1.000009222
1.000914513
1.03543996
1.36146829
2.11043855
2.724039274
2.738754379
2.70440958
2.651921821
2.626440005
2.566333243
2.469588189
2.389541896
2.315801121
2.239834812
1
1
1
1
1
1
1
1
1
1
1
1
1
1
1
1
1
1
1
1
1
1.000000001
1.000000198
1.000038617
1.003083038
1.079950522
1.543998979
2.534713082
2.700059527
2.684313742
2.67428871
2.669451598
2.608311139
2.504045973
2.425233644
2.354260015
2.277936209
1
1
1
1
1
1
1
1
1
1
1
1
1
1
1
1
1
1
1
1
1
1
1.000000006
1.000001273
1.000174001
1.010175201
1.17164385
2.039293246
2.595967311
2.648698471
2.683643879
2.698243873
2.639072189
2.537423586
2.462564773
2.392307505
2.316254033
1
1
1
1
1
1
1
1
1
1
1
1
1
1
1
1
1
1
1
1
1
1
1.000000001
1.000000079
1.000011475
1.001015415
1.035486716
1.457839069
2.370882716
2.599356855
2.700990441
2.707938431
2.653196235
2.567417161
2.503142077
2.431583665
2.353225568
1
1
1
1
1
1
1
1
1
1
1
1
1
1
1
1
1
1
1
1
1
1
1
1.000000008
1.000001026
1.000097942
1.005723979
1.127003842
1.931093688
2.464228096
2.674053603
2.701645909
2.663476238
2.598754005
2.540151507
2.466491075
2.392205758
1
1
1
1
1
1
1
1
1
1
1
1
1
1
1
1
1
1
1
1
1
1
1
1.000000001
1.000000081
1.000009155
1.00072752
1.025325918
1.418346028
2.177853829
2.592131693
2.695363527
2.675920356
2.631757198
2.575762089
2.496710671
2.42895786
1
1
1
1
1
1
1
1
1
1
1
1
1
1
1
1
1
1
1
1
1
1
1
1
1.000000004
1.000000612
1.000067296
1.003881958
1.108380178
1.732698927
2.36173319
2.679826736
2.683944064
2.655942199
2.604701062
2.524624813
2.464100241
1
1
1
1
1
1
1
1
1
1
1
1
1
1
1
1
1
1
1
1
1
1
1
1
1
1.000000021
1.000003834
1.000364482
1.016868693
1.272452587
1.89027876
2.589721546
2.688279846
2.672786976
2.620374521
2.552436303
2.506997084
1
1
1
1
1
1
1
1
1
1
1
1
1
1
1
1
1
1
1
1
1
1
1
1
1
1
1.0000001
1.000017346
1.001463649
1.049182081
1.396942285
2.228441911
2.669349543
2.658247742
2.615211699
2.58311986
2.552867082
1
1
1
1
1
1
1
1
1
1
1
1
1
1
1
1
1
1
1
1
1
1
1
1
1
1
1.000000002
1.000000418
1.000065536
1.004710714
1.098770588
1.650046012
2.554557007
2.61146288
2.608777297
2.614387047
2.596458891
1
1
1
1
1
1
1
1
1
1
1
1
1
1
1
1
1
1
1
1
1
1
1
1
1
1
1
1.000000013
1.000002542
1.000305055
1.01492083
1.2233144
2.147167099
2.535575001
2.606882751
2.648807045
2.630022474
1
1
1
1
1
1
1
1
1
1
1
1
1
1
1
1
1
1
1
1
1
1
1
1
1
1
1
1.000000001
1.000000177
1.000022573
1.001799498
1.050019421
1.575284777
2.358405987
2.572197508
2.654016231
2.641630183
1
1
1
1
1
1
1
1
1
1
1
1
1
1
1
1
1
1
1
1
1
1
1
1
1
1
1
1
1.000000017
1.000002153
1.000191827
1.008739954
1.183285186
1.992514358
2.446730279
2.634988094
2.641628876
1
1
1
1
1
1
1
1
1
1
1
1
1
1
1
1
1
1
1
1
1
1
1
1
1
1
1
1
1.000000001
1.000000173
1.000017895
1.001217748
1.03926175
1.505027987
2.180087047
2.578588673
2.646435027
1
1
1
1
1
1
1
1
1
1
1
1
1
1
1
1
1
1
1
1
1
1
1
1
1
1
1
1
1
1.000000008
1.00000116
1.000114985
1.0062531
1.145994373
1.748578908
2.381442683
2.642506029
1
1
1
1
1
1
1
1
1
1
1
1
1
1
1
1
1
1
1
1
1
1
1
1
1
1
1
1
1
1
1.000000037
1.000006215
1.000583549
1.022976266
1.294279615
1.920392666
2.583306579
1
1
1
1
1
1
1
1
1
1
1
1
1
1
1
1
1
1
1
1
1
1
1
1
1
1
1
1
1
1
1.000000001
1.000000151
1.00002639
1.001952252
1.056897044
1.417169977
2.292418941
1
1
1
1
1
1
1
1
1
1
1
1
1
1
1
1
1
1
1
1
1
1
1
1
1
1
1
1
1
1
1
1.000000003
1.000000671
1.000092921
1.005977176
1.112939839
1.736072001
1
1
1
1
1
1
1
1
1
1
1
1
1
1
1
1
1
1
1
1
1
1
1
1
1
1
1
1
1
1
1
1
1.000000028
1.000004626
1.000460149
1.019540483
1.268075063
1
1
1
1
1
1
1
1
1
1
1
1
1
1
1
1
1
1
1
1
1
1
1
1
1
1
1
1
1
1
1
1
1.000000003
1.000000377
1.000038943
1.002656713
1.063221914
1
1
1
1
1
1
1
1
1
1
1
1
1
1
1
1
1
1
1
1
1
1
1
1
1
1
1
1
1
1
1
1
1
1.000000034
1.000003747
1.000299508
1.011592145
1
1
1
1
1
1
1
1
1
1
1
1
1
1
1
1
1
1
1
1
1
1
1
1
1
1
1
1
1
1
1
1
1
1.000000002
1.000000279
1.000027718
1.001667771
1
1
1
1
1
1
1
1
1
1
1
1
1
1
1
1
1
1
1
1
1
1
1
1
1
1
1
1
1
1
1
1
1
1
1.000000011
1.000001713
1.000154382
1
1
1
1
1
1
1
1
1
1
1
1
1
1
1
1
1
1
1
1
1
1
1
1
1
1
1
1
1
1
1
1
1
1
1
1.00000005
1.000007709
1
1
1
1
1
1
1
1
1
1
1
1
1
1
1
1
1
1
1
1
1
1
1
1
1
1
1
1
1
1
1
1
1
1
1
1.000000001
1.000000177
1
1
1
1
1
1
1
1
1
1
1
1
1
1
1
1
1
1
1
1
1
1
1
1
1
1
1
1
1
1
1
1
1
1
1
1
1.000000004
1
1
1
1
1
1
1
1
1
1
1
1
1
1
1
1
1
1
1
1
1
1
1
1
1
1
1
1
1
1
1
1
1
1
1
1
1
1
1
1
1
1
1
1
1
1
1
1
1
1
1
1
1
1
1
1
1
1
1
1
1
1
1
1
1
1
1
1
1
1
1
1
1
1
1
1
1
1
1
1
1
1
1
1
1
1
1
1
1
1
1
1
1
1
1
1
1
1
1
1
1
1
1
1
1
1
1
1
1
1
1
1
1
1
1
1
1
1
1
1
1
1
1
1
1
1
1
1
1
1
1
1
1
1
1
1
1
1
1
1
1
1
1
1
1
1
1
1
1
1
1
1
1
1
1
1
1
1
1
1
1
1
1
1
1
1
1
1
1
1
1
1
1
1
1
1
1
1
1
1
1
1
1
1
1
)
;

boundaryField
{
    inlet
    {
        type            fixedValue;
        value           nonuniform 0();
    }
    outlet
    {
        type            zeroGradient;
    }
    bottom
    {
        type            slip;
    }
    top
    {
        type            slip;
    }
    obstacle
    {
        type            zeroGradient;
    }
    defaultFaces
    {
        type            empty;
    }
    procBoundary33to26
    {
        type            processor;
        value           nonuniform List<scalar> 
24
(
1
1
1
1
1
1
1
1
1
1
1
1
1
1
1
1
1
1
1
1
1
1
1
1
)
;
    }
    procBoundary33to27
    {
        type            processor;
        value           nonuniform List<scalar> 
38
(
1.216267243
1.180062879
1.144836103
1
1
1
1.00000003
1.000006955
1.000752063
1.029177556
1.370852068
2.417696816
2.699259343
2.774864462
2.824753159
2.837839646
2.809563094
2.77285527
2.737364578
2.680374367
2.611470686
2.519852447
2.394366603
2.279425971
2.17492899
2.064504139
1.969118413
1.881459191
1.787648969
1.691850574
1.627057102
1.569032061
1.500609282
1.436635757
1.388147881
1.344065817
1.29409987
1.29409987
)
;
    }
    procBoundary33to32
    {
        type            processor;
        value           nonuniform List<scalar> 
36
(
1
1
1
1
1
1
1
1
1
1
1
1
1
1
1
1
1
1
1
1
1
1
1
1
1
1
1
1
1
1
1
1
1
1
1
1
)
;
    }
    procBoundary33to34
    {
        type            processor;
        value           nonuniform List<scalar> 
61
(
1.133907547
1.165418429
1.196398676
1.227656944
1.25876107
1.291194947
1.323930513
1.358037095
1.390048923
1.423801942
1.457622714
1.492068497
1.528664404
1.561870129
1.598185755
1.633848435
1.672028338
1.708487673
1.743547087
1.77858758
1.815568461
1.853215946
1.889104066
1.924270223
1.962095345
2.000148109
2.037160211
2.074765494
2.112122922
2.150705054
2.18726229
2.224311534
2.261370904
2.296786811
2.334666655
2.371270534
2.407158405
2.44453665
2.479904696
2.515954381
2.549644284
2.576393395
2.599483942
2.623165228
2.637929669
2.638936206
2.617596623
2.510979016
2.16374579
1.638527906
1.222763434
1.049380545
1.007594781
1.000664466
1.000029131
1.000000873
1.000000045
1.000000004
1
1
1
)
;
    }
}


// ************************************************************************* //
