/*--------------------------------*- C++ -*----------------------------------*\
  =========                 |
  \\      /  F ield         | OpenFOAM: The Open Source CFD Toolbox
   \\    /   O peration     | Website:  https://openfoam.org
    \\  /    A nd           | Version:  7
     \\/     M anipulation  |
\*---------------------------------------------------------------------------*/
FoamFile
{
    version     2.0;
    format      ascii;
    class       volScalarField;
    location    "1.2";
    object      T;
}
// * * * * * * * * * * * * * * * * * * * * * * * * * * * * * * * * * * * * * //

dimensions      [0 0 0 1 0 0 0];

internalField   nonuniform List<scalar> 
2222
(
1.28859052
1.30018465
1.309137615
1.314073082
1.31692762
1.319348881
1.322469737
1.324967675
1.327197173
1.328371329
1.327518055
1.326337855
1.325193211
1.324138793
1.323386328
1.323054765
1.322563062
1.322006769
1.031624991
1.141395895
1.18161641
1.210889076
1.228178236
1.24409642
1.261130466
1.277632101
1.291452989
1.300504276
1.306955267
1.311093183
1.313978517
1.316444458
1.318741038
1.320600317
1.321043211
1.321198897
1.321274962
1.321553809
1.322138131
1.322448944
1.322559744
0.9660815313
1.065714336
1.114861385
1.15264599
1.176060858
1.195707605
1.216434261
1.237655205
1.256314139
1.269457864
1.279310058
1.28712158
1.293287878
1.299070274
1.304625377
1.308583296
1.311499409
1.314040336
1.316048783
1.31750626
1.318683024
1.319537475
1.320043825
0.9349334005
1.022313909
1.065812958
1.104707205
1.131336589
1.150770645
1.170057543
1.191175185
1.211684246
1.227961116
1.240524666
1.251203659
1.26071513
1.270049555
1.278496157
1.28580832
1.291976349
1.297217812
1.301703764
1.30539786
1.308603549
1.311156382
1.312981175
0.9247901224
0.9987122749
1.037748674
1.072897836
1.094594742
1.111105629
1.127859157
1.147565607
1.16797138
1.184999238
1.198363212
1.210099151
1.221846794
1.233874286
1.245843103
1.256618814
1.265499268
1.273067941
1.280031718
1.286437972
1.292517022
1.297768938
1.302046512
0.9192257599
0.9792556246
1.022707461
1.055127494
1.074865671
1.086131875
1.098416656
1.114102149
1.131559769
1.146906947
1.159679879
1.17112712
1.182709978
1.195035519
1.208557971
1.221909323
1.233856568
1.244704999
1.25498847
1.264686835
1.273952437
1.282353517
1.289570323
1.295657019
0.9143391358
0.9612840351
1.006583621
1.041879425
1.063143087
1.075573331
1.084719105
1.095388987
1.107694607
1.119028112
1.129398517
1.139221987
1.149191648
1.160135081
1.172659296
1.185612543
1.19821072
1.210652072
1.222945439
1.234961509
1.246811708
1.258047543
1.268137074
1.27690932
0.9096699617
0.9456779536
0.9929090582
1.030809785
1.054953581
1.068209105
1.075474952
1.081775789
1.088612651
1.095833125
1.103938585
1.113084267
1.122694763
1.132508722
1.142634557
1.152746902
1.163258599
1.174870925
1.1872822
1.200155607
1.213435842
1.226664922
1.239050318
1.250175339
0.9061141529
0.9339131813
0.9823661821
1.024979627
1.050808961
1.063943555
1.069327833
1.072419728
1.076078045
1.08078985
1.086358391
1.093287031
1.100662354
1.108547824
1.116526391
1.124289107
1.13270439
1.142286331
1.153176531
1.165453306
1.178985974
1.193103284
1.206863728
1.219641062
0.902187264
0.9237496513
0.9661166469
1.018498291
1.050513543
1.061874433
1.065437087
1.067577362
1.070475372
1.074337698
1.078296821
1.082704849
1.087197212
1.092360268
1.098180241
1.104146076
1.110943041
1.118138093
1.125914747
1.135262904
1.146751485
1.160021246
1.173924902
1.187318972
0.8987753744
0.9149707396
0.9462165736
1.00009608
1.043737602
1.059200608
1.062873896
1.06538288
1.068920897
1.072663271
1.075733746
1.078581728
1.08131616
1.084792606
1.089376786
1.094008411
1.098305483
1.101958059
1.106527714
1.112765289
1.121225649
1.131987645
1.144107366
1.156386235
0.8958613082
0.9091068645
0.9330635166
0.9767954442
1.026138242
1.051952654
1.060205302
1.064132688
1.067578963
1.070145897
1.072001542
1.074029751
1.076439337
1.079406545
1.082444674
1.085287258
1.087208914
1.08851853
1.091497604
1.096539096
1.103134076
1.110953048
1.11983172
1.129481911
1.139905396
0.8936807877
0.9041251909
0.9224930358
0.9610273937
1.006816674
1.040405104
1.056088604
1.061727813
1.065088848
1.06719568
1.068103401
1.069472321
1.07183545
1.074407723
1.076743863
1.078097832
1.078544434
1.079151491
1.081019036
1.084319435
1.088745353
1.094279397
1.100893681
1.10835606
1.116531069
0.891875819
0.9002781015
0.9130617172
0.9460437527
0.9934544758
1.030828086
1.051226712
1.058850738
1.061953671
1.063329228
1.0637586
1.065252662
1.068153264
1.070269573
1.072034124
1.073390032
1.073545506
1.074303333
1.075432338
1.076654564
1.078927208
1.08313374
1.089008966
1.095474479
1.101727847
0.8906178131
0.8973308337
0.9063354502
0.9291088655
0.9782097481
1.023156289
1.046311534
1.054531763
1.057002497
1.059009007
1.060436622
1.062925085
1.065635035
1.067115008
1.068855138
1.0707173
1.071345373
1.071581656
1.071636105
1.072142093
1.073647123
1.076783566
1.08087947
1.085347967
1.089810042
0.888905305
0.8947610419
0.9008347087
0.9170081089
0.9562269174
1.009327266
1.039175966
1.04843093
1.051928111
1.055357431
1.058148127
1.06081503
1.062709075
1.064293993
1.066730508
1.069114961
1.069113953
1.06823264
1.067633752
1.068076282
1.069318965
1.071136544
1.073659967
1.076419716
1.079044463
0.887889455
0.8925531865
0.8963452023
0.9083772818
0.9381797328
0.9873166613
1.026102747
1.040953051
1.047168049
1.052356366
1.056248806
1.05848741
1.060601058
1.062624028
1.064631018
1.065984743
1.065750467
1.064582301
1.063950708
1.064286867
1.065198411
1.066194692
1.067651195
1.069442314
1.07113976
0.8871687407
0.8910595774
0.8936020706
0.9004791032
0.9258266082
0.9676770629
1.008487106
1.032122135
1.042732038
1.049388168
1.052480763
1.054265322
1.056049557
1.05890166
1.060588618
1.061908723
1.061828998
1.06124094
1.060881202
1.061093548
1.061697645
1.062526186
1.063755762
1.065235545
1.066614578
0.8863113499
0.8895734297
0.891202876
0.8950840917
0.9128300954
0.953558877
0.994785224
1.023278089
1.038399679
1.044646485
1.046603311
1.048381629
1.050611408
1.054089527
1.055697077
1.057379702
1.058393427
1.058153477
1.058259169
1.05844006
1.058722264
1.059719143
1.061286971
1.063257892
1.064958797
1.066562153
0.8853568719
0.8882074779
0.8887435661
0.8907908211
0.9010771069
0.9366542647
0.9846926871
1.01663858
1.032956327
1.038782714
1.040141835
1.042126579
1.045189835
1.048976407
1.05133826
1.053510382
1.055106639
1.055304143
1.055622417
1.055924061
1.056306894
1.057792733
1.059651134
1.061490332
1.062882551
1.064028988
0.8846830953
0.8871523007
0.8867824366
0.886673835
0.8933526168
0.9185043874
0.9689888713
1.009569027
1.026728062
1.032530301
1.034449349
1.037864456
1.041532773
1.044677939
1.046807334
1.049520682
1.051692892
1.051638056
1.051683317
1.052225985
1.053367653
1.05475733
1.056246587
1.057705217
1.058940949
1.059999203
0.8840841176
0.8864001386
0.885548055
0.8838312827
0.886923415
0.9059813398
0.9477401364
0.9964779827
1.018837771
1.026293648
1.031261286
1.03514662
1.037532111
1.039921701
1.042697913
1.045844679
1.047394696
1.047055427
1.046904111
1.047676933
1.04893064
1.050251046
1.051795694
1.05337329
1.054648842
1.055681873
0.8836335883
0.8856230762
0.884747049
0.881808582
0.881796469
0.8951764973
0.9311527142
0.9772215895
1.008762638
1.022348376
1.028950242
1.032073732
1.033793772
1.036308727
1.039137844
1.041367338
1.042566975
1.042263331
1.04204779
1.042763896
1.04384368
1.045195101
1.046749417
1.048498127
1.050083917
1.05142528
0.8831713114
0.8847897779
0.884096128
0.8801488655
0.8776653472
0.8853320484
0.9164285981
0.9614580375
0.9976747657
1.018752328
1.026360965
1.029040085
1.029993056
1.03247106
1.034877272
1.036607277
1.03797477
1.037861652
1.037566438
1.038011087
1.039015684
1.040421466
1.042086969
1.044021646
1.045941134
1.047535945
0.8828377625
0.8840060589
0.8833060159
0.8786261756
0.8742556881
0.8778161216
0.9004624869
0.9486701725
0.9895849968
1.014516957
1.02298073
1.024654308
1.025402504
1.02818464
1.03081961
1.032610496
1.034197812
1.034303789
1.033908352
1.033928622
1.034464881
1.035812084
1.037761444
1.040206225
1.042590849
1.044527474
1.046280734
0.8826193339
0.8833835553
0.8826989137
0.8773764954
0.8715977679
0.8724255454
0.8876733656
0.9302541723
0.9801585366
1.008947576
1.018152438
1.019995471
1.0220703
1.025470981
1.027612558
1.0295063
1.031390905
1.031507058
1.030873014
1.030491339
1.030858614
1.03225802
1.034380699
1.036951352
1.039290647
1.041168349
1.042758714
0.8824988538
0.8828465299
0.882304492
0.876738948
0.8695055263
0.8683216378
0.8791356829
0.9113041424
0.9653454189
1.001755561
1.013210973
1.017722689
1.020478696
1.023147399
1.025106835
1.027176464
1.029057321
1.028936531
1.027885945
1.027346421
1.027846399
1.02909577
1.030694997
1.032540311
1.034454482
1.036189001
1.037716705
0.8823874018
0.8823161753
0.8819534278
0.8763874759
0.8678971244
0.8648402209
0.8717446913
0.8988866122
0.9475473171
0.9911450595
1.008783636
1.01693482
1.019160057
1.021258591
1.023575303
1.025544125
1.026812414
1.026279704
1.024910192
1.024312482
1.024727178
1.025481844
1.026416548
1.027741592
1.029393875
1.031077584
1.03261402
0.882353075
0.8817928668
0.8814789519
0.8760798211
0.8668165006
0.8615883458
0.8653414632
0.8868645868
0.932614965
0.9782703048
1.004389019
1.016036197
1.018015835
1.019565841
1.021663907
1.023409085
1.024152866
1.023663695
1.02243108
1.021657843
1.021705913
1.022026879
1.022566252
1.023670304
1.025174099
1.026755277
1.028190786
0.8822740434
0.8813715706
0.880863353
0.8754133977
0.8659597926
0.8591172111
0.8602346349
0.8744043455
0.9174803203
0.9664959043
0.9995839186
1.014478142
1.015915737
1.017252371
1.019203435
1.020927735
1.021890844
1.021947205
1.021045209
1.019952173
1.019488171
1.019594374
1.019988569
1.020969603
1.022412184
1.023826243
1.025042211
0.8821676399
0.8810529307
0.8802918433
0.8747130029
0.8651293077
0.8572125005
0.8564583043
0.8659057859
0.8987045222
0.952478296
0.9938393058
1.01120105
1.013367277
1.014998114
1.017366139
1.019488346
1.020881622
1.021402066
1.020745213
1.019408264
1.018569448
1.018586323
1.019076389
1.020131957
1.021566981
1.022774683
1.023584725
0.8825729717
0.8807521446
0.8797170699
0.8742652996
0.8647844083
0.855863354
0.8536946739
0.8598591987
0.8851794409
0.9356050169
0.9853496566
1.007282156
1.011964592
1.014136084
1.016586147
1.019147955
1.021092275
1.021952892
1.021350183
1.019820836
1.018822932
1.018893437
1.019419693
1.020234764
1.021232944
1.022019174
1.022419652
1.022890103
0.8830097006
0.8805656259
0.8790620511
0.8739464506
0.8647647562
0.8549325358
0.8511455065
0.8548699807
0.8762126878
0.921937406
0.9737394214
1.003414937
1.012516366
1.015080628
1.017512271
1.019806523
1.021761843
1.022598404
1.021757847
1.020154917
1.01909958
1.018983674
1.019164829
1.019532868
1.0200672
1.020554548
1.020857465
1.021462329
0.8834714051
0.8804026887
0.8783845294
0.8735002674
0.8647308777
0.8541987802
0.8490275359
0.8506023491
0.8655967548
0.9089950154
0.9631417448
0.9999685586
1.013086146
1.016080517
1.017927812
1.019999874
1.021724969
1.022196066
1.021166839
1.01952543
1.018330568
1.017932777
1.017851303
1.018142433
1.018772451
1.019345762
1.019715142
1.020428739
0.8838970592
0.8803103899
0.8776920113
0.87294643
0.8644312301
0.8535695452
0.8472821084
0.8473718168
0.8566526822
0.8908474975
0.9491412406
0.9947285905
1.01182433
1.015867735
1.017675424
1.019420806
1.020769324
1.021127812
1.020247246
1.018610243
1.017260108
1.016794386
1.016786068
1.01723036
1.018084956
1.018854152
1.019353762
1.020146557
0.8843955569
0.8802627016
0.8770101033
0.8724279557
0.8639274398
0.8530860151
0.846031797
0.8452156015
0.8517509509
0.875506769
0.9278278284
0.9837175822
1.009806187
1.015043448
1.016763966
1.01861273
1.019862822
1.020325413
1.019859488
1.018206774
1.016745293
1.016336746
1.016565091
1.0172467
1.01838602
1.019365467
1.019954549
1.020682006
0.8848927804
0.8802333649
0.8763508926
0.8720814141
0.863664338
0.8528156471
0.8451989038
0.8434956731
0.848213577
0.8676319618
0.9101584757
0.9680782183
1.004914706
1.013919324
1.016073974
1.01821075
1.019818751
1.020562485
1.020402434
1.018737051
1.017366538
1.017072086
1.017357774
1.018050089
1.019221259
1.020230006
1.020778767
1.021338748
0.8854190183
0.8803621884
0.87568053
0.8717746767
0.8635180442
0.8526829137
0.8445192397
0.8418970731
0.844741291
0.8600578578
0.9005895979
0.9567916082
0.9991490718
1.013320288
1.016848559
1.018829772
1.021000211
1.022467321
1.022284026
1.020631404
1.019339052
1.018694322
1.018382982
1.018737245
1.019414844
1.020117195
1.020569118
1.021075205
1.021596148
0.8859365466
0.8806257444
0.8752215493
0.8713605476
0.8633344402
0.8525832502
0.844018876
0.8407894312
0.8419346051
0.8516368713
0.8868560273
0.9472393374
0.9956481225
1.014825461
1.019383056
1.021431709
1.023584784
1.024766594
1.024244824
1.022499716
1.020691832
1.018936535
1.018052884
1.01818477
1.018666015
1.019310028
1.019692933
1.020108037
1.020707424
0.8864728102
0.8809517328
0.8749785222
0.8708365801
0.8630736812
0.8524920783
0.8435845814
0.8398333575
0.8404227637
0.8468805029
0.8707890031
0.9278502602
0.9891099594
1.01489513
1.021764164
1.024056834
1.025237549
1.025377854
1.02470491
1.02283207
1.020704171
1.018479696
1.017377758
1.017420702
1.018042702
1.018793262
1.019141029
1.019408718
1.019930906
0.8870090939
0.8812896022
0.8749336203
0.87026191
0.8626867341
0.8521835546
0.8431840127
0.8391278264
0.8394027602
0.8440368764
0.8620157737
0.9060797151
0.9723731993
1.013087879
1.022666922
1.025087188
1.02608016
1.026033239
1.025308546
1.023238514
1.020415104
1.018232878
1.017485007
1.017624668
1.018464365
1.019228235
1.019454207
1.019469644
1.019739279
0.8875719944
0.8816734786
0.8749580653
0.8697462316
0.862289782
0.8517653863
0.8428461663
0.8385177359
0.8383018965
0.8415407755
0.8558315846
0.8933697661
0.9542712431
1.005216022
1.022683813
1.025109089
1.026243167
1.026576859
1.026019666
1.024046072
1.021163023
1.019290082
1.018901023
1.01907092
1.019954394
1.020521697
1.020415022
1.02010912
1.020067867
0.8881154105
0.8820347699
0.8751006011
0.8692419256
0.8619809387
0.8514726905
0.8425911654
0.838096608
0.8374689231
0.8395171461
0.8489554135
0.882067428
0.9425858144
0.9965858702
1.01958636
1.024567256
1.027092158
1.027916053
1.027711221
1.026050778
1.023243696
1.021938644
1.021137688
1.020629398
1.021246617
1.021475045
1.021173065
1.020779916
1.020770967
0.8886760729
0.882404682
0.8752190227
0.868816076
0.8617519397
0.851239
0.8423999032
0.8378737071
0.8370629581
0.8384323667
0.8450363577
0.8681937285
0.9266377727
0.9898722917
1.017020911
1.025350418
1.028656737
1.03045742
1.030621946
1.028829169
1.026371898
1.024681704
1.022795632
1.021584351
1.021994117
1.02208456
1.021684578
1.02151811
1.021982099
0.889209342
0.8827840734
0.8755707955
0.8683741361
0.8615773967
0.8509982344
0.842205018
0.8376204655
0.8365635416
0.8375366175
0.8428566069
0.8597490347
0.9046759087
0.9762439644
1.015936177
1.027460169
1.031725506
1.033808145
1.033503554
1.031313257
1.028926235
1.026510063
1.024309723
1.022745369
1.022901674
1.022825473
1.022644522
1.022738659
1.023576821
1.024466529
0.88973898
0.883109413
0.8759622671
0.8680860015
0.8613305309
0.8507063981
0.8419124251
0.8373874203
0.8363934924
0.8368614586
0.8404887038
0.8541451511
0.8902125831
0.954538636
1.011966743
1.029570378
1.034337867
1.035681513
1.035158442
1.033003936
1.030682898
1.028187388
1.025440502
1.023728698
1.023841346
1.024225511
1.024274305
1.024443509
1.024857815
1.02519887
0.8902560476
0.8834419911
0.8763632799
0.868037108
0.8610241263
0.8503628922
0.8415853376
0.8371613197
0.8361887681
0.8366372953
0.8391207769
0.8486075105
0.8793828845
0.9379931744
1.000511497
1.02998519
1.035464245
1.036158182
1.035857271
1.034378019
1.032151558
1.028989757
1.02661055
1.025343885
1.025438408
1.026153962
1.026433744
1.026033396
1.025954779
1.026062561
0.8907984279
0.8837518667
0.8767833356
0.8681825993
0.8607540782
0.8499967872
0.8412520752
0.8369292812
0.8360185802
0.8363387719
0.8384452294
0.8453354091
0.8672705802
0.923568162
0.9872332699
1.025015396
1.034000102
1.035836217
1.036339937
1.035480263
1.033244815
1.030240846
1.028393802
1.027182649
1.027391362
1.028626565
1.028370562
1.027571447
1.027077581
1.026960006
0.8913644455
0.8840949013
0.8772017992
0.8684114028
0.860528862
0.8496309941
0.8409129145
0.8367014092
0.8358433645
0.836366139
0.8380829188
0.8435014032
0.8591403227
0.9039321801
0.974534637
1.017419376
1.032361896
1.036186792
1.037386619
1.036928636
1.034832283
1.032025001
1.030459254
1.029387151
1.029462121
1.030360658
1.029943579
1.029011967
1.027995487
1.027834192
0.8919620488
0.8844796033
0.8776166607
0.8686733256
0.8603631513
0.8492774478
0.8405796716
0.8365143557
0.8356700322
0.8362009333
0.8378381297
0.8419496462
0.8542265716
0.8881699674
0.9561676963
1.011835403
1.031783319
1.037151068
1.039000974
1.038473175
1.036369897
1.033938102
1.03223132
1.030866381
1.030902532
1.031723415
1.031116146
1.030081223
1.029358846
1.029466863
0.8925418685
0.8849173477
0.8780927716
0.8690505672
0.8602984617
0.8489553874
0.8402282212
0.8362977731
0.8354930061
0.8360149232
0.8375199597
0.8412450383
0.8497483776
0.8775339222
0.9355724105
1.003653516
1.030911964
1.039162972
1.040562893
1.039782925
1.037570527
1.03518769
1.033358292
1.031775189
1.031522562
1.0323627
1.032021938
1.031477707
1.031161997
1.031579465
0.8930963619
0.8854098405
0.8785435899
0.8693422672
0.8604719414
0.8486910279
0.8399054881
0.8360893353
0.8353018393
0.8358783557
0.8376097521
0.8409769254
0.8470350613
0.8665449206
0.9192061644
0.9874768297
1.0282639
1.040173922
1.041553143
1.040400975
1.038388991
1.036109046
1.033657433
1.032045929
1.032006976
1.03320505
1.033260618
1.033067853
1.03303524
1.033947788
1.033879103
0.8935985322
0.8859481246
0.8790692759
0.8696411505
0.8600922109
0.8484951743
0.8396003064
0.8358780191
0.8351416807
0.8358001563
0.8376478861
0.8406499573
0.8456755066
0.8589584259
0.9008044994
0.968472535
1.021374588
1.039623142
1.04112337
1.040275966
1.038867971
1.036311984
1.033619289
1.032572756
1.032763643
1.034168562
1.034633286
1.034765054
1.034840414
1.035807316
1.035979072
0.8940622512
0.8865371158
0.8796737779
0.8700138422
0.8599770714
0.8484005505
0.8394040104
0.8356827745
0.8350099526
0.8357414367
0.837732395
0.840545404
0.8445888281
0.8545970548
0.885387868
0.9532711917
1.011104507
1.035166453
1.039994488
1.040040423
1.039033919
1.036117695
1.034091285
1.033248953
1.033294383
1.034686265
1.035530436
1.035626008
1.035559767
1.036560525
1.036822542
0.8944976593
0.8871829825
0.8802837216
0.8702232706
0.8600994406
0.848492941
0.8393217349
0.8355423565
0.8349233285
0.8356306979
0.8378031331
0.8405280671
0.8439527982
0.8509321749
0.8758290983
0.9359909363
1.00379622
1.03239176
1.039155953
1.03995938
1.039216203
1.036477136
1.034815388
1.033931295
1.033868722
1.035284541
1.036111316
1.036083229
1.03593468
1.036898595
1.037286164
0.8949379544
0.8879174741
0.8809000716
0.8705513374
0.8595523184
0.8481122106
0.8389370885
0.8353170188
0.8348509022
0.8355037204
0.8378283805
0.8405360369
0.8437097964
0.8483121554
0.8654056096
0.9176865533
0.9925939304
1.030010637
1.038962608
1.040578567
1.039756441
1.037359617
1.035488234
1.034507708
1.034334312
1.035585919
1.036239359
1.035999739
1.035762001
1.036684981
1.037012056
0.8953779363
0.8887332077
0.8815067319
0.8708420348
0.8593664948
0.8480251648
0.8387881425
0.8351414261
0.8347271897
0.8353992809
0.8378387662
0.8406690681
0.8432689249
0.8469599628
0.8580674521
0.8979660808
0.9702382562
1.023149606
1.039424081
1.041238333
1.040192678
1.038038877
1.035907109
1.034799313
1.034288506
1.035240683
1.036062669
1.036021304
1.035943578
1.036865025
1.037096735
0.8957915236
0.8896501985
0.8820936842
0.8710214559
0.8593555554
0.8482322669
0.8388743066
0.8350211355
0.8344984344
0.83537287
0.8379113544
0.8407625779
0.8429642063
0.8459880495
0.8544860341
0.8827146185
0.9462651952
1.008533001
1.037941682
1.041024456
1.040343319
1.038345027
1.035835621
1.034445552
1.033777543
1.034780341
1.036203247
1.036482432
1.036493279
1.037294806
1.037659553
0.8961386869
0.8906548574
0.8827146407
0.8714264004
0.8586780407
0.8478835558
0.8384697865
0.8346093855
0.8343060359
0.8354621907
0.8380105642
0.841271424
0.8428105431
0.845245717
0.8514933564
0.8740992692
0.9309287214
0.9956435141
1.032587283
1.04022726
1.040128339
1.038162642
1.035278041
1.033895254
1.033609317
1.034689887
1.036607955
1.037006788
1.036920564
1.037479892
1.038091248
0.8964077046
0.8917250791
0.8832805429
0.8717859543
0.8585316176
0.8477517656
0.8382894948
0.8343531254
0.834289824
0.8355208727
0.838199411
0.8415921883
0.8426220347
0.8449237721
0.8489603054
0.8653902695
0.9166916227
0.9875535849
1.027208849
1.038103776
1.039399091
1.037615279
1.034731331
1.033757503
1.033677839
1.034718785
1.036775235
1.037276612
1.037155435
1.037452708
1.038211034
1.038175567
0.8966022335
0.892807008
0.8838382691
0.8721912872
0.8584875026
0.8478240386
0.8384760284
0.8342176658
0.8343536097
0.8355188003
0.8385219857
0.8419067982
0.8423477969
0.8445594689
0.8476961862
0.8576648852
0.8980371404
0.974275721
1.023087919
1.036800199
1.038651536
1.037315294
1.034774431
1.033790236
1.033778955
1.03483893
1.036674526
1.037093686
1.037050226
1.037288846
1.038208369
1.038657883
0.8967457826
0.8938350372
0.8844161158
0.8726229382
0.8585064706
0.8473210046
0.8381583935
0.8340944491
0.8342699514
0.8355183768
0.8386199368
0.8421751959
0.8424443251
0.844283333
0.8468515949
0.8542094652
0.8825290841
0.9499651457
1.014839794
1.036262407
1.038586587
1.037316047
1.034946085
1.033813914
1.033713684
1.034574602
1.036116355
1.036614969
1.036820407
1.037238645
1.038414382
1.039101211
0.8968736126
0.8947517219
0.885014244
0.8730400624
0.8586085667
0.8471111112
0.8379957748
0.8339121975
0.8340785782
0.8357180148
0.838665394
0.8424305282
0.84257429
0.8440448183
0.8460380836
0.8512883753
0.8727720481
0.9287864729
0.9981001643
1.033643774
1.03861937
1.037443523
1.035184876
1.033662854
1.033375324
1.034068536
1.035620485
1.036416575
1.036875869
1.037558211
1.038939891
1.039386429
0.8970363076
0.8955430555
0.8856621069
0.8735098775
0.8588050163
0.8471099506
0.8380763699
0.8336762178
0.8339115034
0.8358307274
0.8387017865
0.8427103486
0.8430903373
0.8439171805
0.8455444877
0.8488744192
0.8650356117
0.9137697197
0.9815854115
1.026031467
1.038439517
1.037768583
1.035302848
1.033313505
1.033072469
1.033827227
1.035661236
1.036686069
1.037229112
1.037940876
1.03929652
1.039424359
0.8972172773
0.8962008755
0.8863505041
0.8739870094
0.8589473688
0.8464760154
0.8376795133
0.8334205713
0.8338199889
0.8357947994
0.8387921545
0.8430002469
0.8434815285
0.8438561515
0.8451767616
0.8476213049
0.8578442392
0.8981069278
0.9693734943
1.01822054
1.037164172
1.037887536
1.035001458
1.032983459
1.03290691
1.033693121
1.03579798
1.036956712
1.037487225
1.038094038
1.039249282
1.039100274
0.8973324311
0.8967636723
0.8871007639
0.8744979436
0.8591431546
0.8461873085
0.8375311229
0.8332227347
0.8337402153
0.8357237875
0.8390806595
0.8432833447
0.8438916987
0.8437704163
0.8448104364
0.8468087612
0.8539048063
0.883599537
0.9522933168
1.01284023
1.034591406
1.037897073
1.034617749
1.032851574
1.032869908
1.033623427
1.035872684
1.037027573
1.037468525
1.037869086
1.038750926
1.038477808
0.897374474
0.8971941486
0.8879062642
0.8750621984
0.8593578538
0.8461475802
0.8376258858
0.8330731055
0.8335428612
0.8357965929
0.8394692201
0.843545545
0.8443359768
0.8436633633
0.844444555
0.8460524109
0.8513196388
0.8733967167
0.9304208588
1.003292319
1.0325417
1.037026117
1.03467882
1.032887378
1.032819152
1.033426038
1.035691873
1.036672039
1.036972073
1.037230676
1.038162807
1.038288933
1.037368121
0.8974012315
0.8975243949
0.8887461943
0.8756500284
0.8595033486
0.8454627197
0.8372155242
0.8328551749
0.8333026341
0.8361836469
0.8397138122
0.8438115424
0.8448832068
0.8439209126
0.8441768534
0.8454430595
0.8488573814
0.8654411984
0.9139746801
0.9838602122
1.028105375
1.035836155
1.035021657
1.03305616
1.032744016
1.033263814
1.035218109
1.036030623
1.036453861
1.036753612
1.038011213
1.038435809
1.037657737
0.8974268902
0.8977911966
0.88953911
0.8762190452
0.8597067214
0.8451224446
0.836920079
0.8325704102
0.8332760832
0.8363539336
0.8398422863
0.8440813786
0.8454320681
0.844162914
0.8439882506
0.8450024451
0.847530305
0.8589962947
0.8994092296
0.9658933645
1.018717507
1.035081531
1.035854922
1.033375401
1.032764911
1.033060221
1.034744392
1.035548123
1.036180331
1.036682603
1.038078173
1.038683437
1.038059334
0.8974487206
0.8980501381
0.8903317774
0.8767061181
0.859886932
0.8450372293
0.8367211459
0.8322998498
0.8332944792
0.8362671921
0.8399515945
0.844367627
0.8459627929
0.8444670653
0.8437445131
0.8445327098
0.8465724537
0.8547153924
0.8853658959
0.9527283213
1.010543729
1.035860138
1.036446141
1.033537694
1.032718031
1.03294179
1.034413033
1.035591283
1.036314069
1.03682213
1.03824026
1.038785931
1.038263084
0.8973907254
0.8983794923
0.8910905301
0.8771096258
0.8600403355
0.844454988
0.8365002813
0.8321233614
0.8331215279
0.8361368851
0.8401528212
0.8446846847
0.8464158802
0.8448372158
0.8436264286
0.8442207781
0.8456836769
0.8518332311
0.875027426
0.9347330857
1.004944792
1.034746217
1.036749183
1.033503803
1.032676421
1.032780563
1.034345924
1.03579285
1.036517086
1.036913519
1.038319865
1.038681182
1.038248215
0.8974292169
0.8986456298
0.8918267476
0.8773821576
0.8602346584
0.8441129637
0.8362291441
0.831901976
0.8327470593
0.8361957141
0.8406137318
0.8450623772
0.8468112679
0.8453211942
0.8435545542
0.8439348025
0.8451923826
0.8495286323
0.866792999
0.9152730676
0.9910294297
1.030842432
1.036174237
1.033326999
1.032416499
1.032542734
1.034508021
1.035872071
1.036430893
1.036752105
1.038246393
1.03851903
1.03807955
0.8972100419
0.8988110526
0.8925027224
0.8774700178
0.860387685
0.8438776472
0.8359530817
0.8315438894
0.8325492975
0.8366238169
0.84116807
0.8454571062
0.8471658163
0.8458532501
0.8436895349
0.8437279275
0.8447610539
0.8480314428
0.8605844368
0.9008693991
0.9697325146
1.023292042
1.034512194
1.033105869
1.032219371
1.032493931
1.034637077
1.035755745
1.036177266
1.036501234
1.038198825
1.038602851
1.038157615
0.8970508393
0.8989399748
0.8930798194
0.878373537
0.8605634984
0.8436586385
0.8355785363
0.831195408
0.8325636124
0.8368591721
0.8415291114
0.8457864252
0.8475303808
0.846408835
0.8438630023
0.8435431264
0.8443677921
0.8470148415
0.8563851797
0.8873492448
0.9532380393
1.014136319
1.033492712
1.033291029
1.032360743
1.032547617
1.034694601
1.035617399
1.036000917
1.036381428
1.038379501
1.038856106
1.038430191
0.8969539323
0.8988927497
0.8934693804
0.8789468226
0.8609483885
0.8434836666
0.8351623676
0.8309853819
0.8325602793
0.8368294353
0.8417597735
0.8460557166
0.847913631
0.8469426384
0.8441946145
0.8433941376
0.8440646261
0.8461488045
0.8532072676
0.8762517153
0.9371175191
1.004726984
1.033231411
1.033779715
1.032681921
1.032783851
1.034805784
1.035612342
1.036048235
1.036429805
1.038563443
1.039069274
1.038664799
1.036426393
0.8968490809
0.8986961948
0.8938171342
0.8796028431
0.8612615945
0.8433814975
0.8348024842
0.8307350653
0.8323334273
0.8367259108
0.8419859966
0.8463495573
0.84826921
0.8474175698
0.8446129891
0.8433118935
0.8438297424
0.8455314535
0.8509872976
0.8683573422
0.9168577485
0.9934100965
1.032186302
1.034347506
1.03278218
1.03295862
1.034819753
1.035657594
1.036047501
1.036531622
1.038679911
1.039154095
1.03876375
1.036526424
0.8963050269
0.898359924
0.8941810126
0.8802945918
0.8615901731
0.8433573131
0.8344693552
0.8302993296
0.8319662085
0.8367313283
0.8423778504
0.846740227
0.8485585213
0.8478589751
0.8451505072
0.8432679774
0.8436559049
0.8450409169
0.8494033255
0.8619832044
0.9019427296
0.9751500398
1.027680588
1.034516273
1.032891564
1.033088396
1.0346773
1.035667731
1.036178303
1.036661462
1.038664552
1.039102598
1.038720415
1.036650979
0.895756467
0.8979309484
0.8945148286
0.8809634996
0.8618858453
0.8433018885
0.8341112704
0.8299709246
0.8317701591
0.8369564872
0.8428279356
0.8471708281
0.8488083335
0.8482607899
0.8457288433
0.8434125628
0.8435222877
0.8445698488
0.8482497336
0.8576846647
0.8900270837
0.9557385486
1.017134328
1.033257959
1.03257781
1.032844548
1.034381301
0.8951801227
0.8974472317
)
;

boundaryField
{
    inlet
    {
        type            fixedValue;
        value           nonuniform 0();
    }
    outlet
    {
        type            inletOutlet;
        inletValue      nonuniform 0();
        value           nonuniform 0();
    }
    bottom
    {
        type            slip;
    }
    top
    {
        type            slip;
    }
    obstacle
    {
        type            zeroGradient;
    }
    defaultFaces
    {
        type            empty;
    }
    procBoundary21to15
    {
        type            processor;
        value           nonuniform List<scalar> 
23
(
1.314589015
1.323866899
1.328991068
1.330379685
1.328973298
1.329237238
1.331966355
1.334217571
1.335507856
1.33529227
1.332721808
1.330252381
1.328243107
1.326508896
1.325197235
1.324092559
1.322868479
1.127696452
1.227106222
1.249380978
1.264498232
1.277508487
1.277508487
)
;
    }
    procBoundary21to22
    {
        type            processor;
        value           nonuniform List<scalar> 
70
(
1.322252168
1.322120982
1.322621397
1.320436572
1.314509256
1.30571138
1.30571138
1.30079411
1.284528463
1.260162951
1.231645857
1.200282628
1.168745011
1.168745011
1.151432263
1.125845716
1.107989627
1.094509342
1.082057808
1.073268099
1.068346318
1.068346318
1.068405243
1.065306983
1.061211734
1.056871395
1.052856918
1.049137782
1.049137782
1.048155184
1.04475122
1.039875538
1.034756109
1.030023641
1.02642476
1.02427259
1.02427259
1.024021912
1.022650781
1.021529431
1.021082061
1.021383793
1.021802724
1.021802724
1.021808084
1.021102093
1.020239171
1.019830112
1.019941389
1.020794366
1.02270766
1.02270766
1.02461351
1.025077242
1.025742979
1.026290805
1.027082428
1.028895124
1.031173547
1.031173547
1.033346337
1.035457793
1.036487253
1.036994845
1.036700202
1.036691695
1.037209561
1.037707289
1.037707289
1.036363496
)
;
    }
    procBoundary21to27
    {
        type            processor;