/*--------------------------------*- C++ -*----------------------------------*\
  =========                 |
  \\      /  F ield         | OpenFOAM: The Open Source CFD Toolbox
   \\    /   O peration     | Website:  https://openfoam.org
    \\  /    A nd           | Version:  7
     \\/     M anipulation  |
\*---------------------------------------------------------------------------*/
FoamFile
{
    version     2.0;
    format      ascii;
    class       volScalarField;
    location    "2.3";
    object      rho;
}
// * * * * * * * * * * * * * * * * * * * * * * * * * * * * * * * * * * * * * //

dimensions      [1 -3 0 0 0 0 0];

internalField   nonuniform List<scalar> 
2222
(
1.378538119
1.378884859
1.379670051
1.379864758
1.379747814
1.378859295
1.377756066
1.377463853
1.37850424
1.380960584
1.383196581
1.383739563
1.38315103
1.3819774
1.380729082
1.379747765
1.379809995
1.379817688
1.380495777
1.379848996
1.380351943
1.380475643
1.379904071
1.379107735
1.379748304
1.378021552
1.377350065
1.377031531
1.380031207
1.378116965
1.377434459
1.377693982
1.378666101
1.37990585
1.379849474
1.378989224
1.379389121
1.379803869
1.379718584
1.378833881
1.378547742
1.379732019
1.381575913
1.383041362
1.38329636
1.383015549
1.381746031
1.380594159
1.379124119
1.378915344
1.379263576
1.379403494
1.379602198
1.379729185
1.378980845
1.378892725
1.378482971
1.379099068
1.378298477
1.377985801
1.377539282
1.376667419
1.378897312
1.377693771
1.377229364
1.379467034
1.381139171
1.380797017
1.379322281
1.378646839
1.378139915
1.378617275
1.378775659
1.378945963
1.379641526
1.381103104
1.38223237
1.38266709
1.382315106
1.381597521
1.380367809
1.379022345
1.378259939
1.378648113
1.379009127
1.3792591
1.378793503
1.37902348
1.378616728
1.377988031
1.378113785
1.377976644
1.376808614
1.376564868
1.376249741
1.37598463
1.378206156
1.377978179
1.379159601
1.381058675
1.381713727
1.380909556
1.378721674
1.377279913
1.376378239
1.376942909
1.377464835
1.378804451
1.380043712
1.380750145
1.381189111
1.381372594
1.38111114
1.380141892
1.378866762
1.378277901
1.378202091
1.378658195
1.378707518
1.378567193
1.378624501
1.378618725
1.379049593
1.378338733
1.377983146
1.376563024
1.376019842
1.375366705
1.375150984
1.375844845
1.379173766
1.379446316
1.380368435
1.381176021
1.380680928
1.379716364
1.377901211
1.375664208
1.375663211
1.37596657
1.376789467
1.378176793
1.379223659
1.380065682
1.379959872
1.379717257
1.379474898
1.378744371
1.378412837
1.378543577
1.378613924
1.378997621
1.378652726
1.377916711
1.379131256
1.378937726
1.378672968
1.378670978
1.377114536
1.375736633
1.376052507
1.375684779
1.376566689
1.378326273
1.38018123
1.379776093
1.379626766
1.380122445
1.379152363
1.377875982
1.376329543
1.374575908
1.37492334
1.375150946
1.376217694
1.377188362
1.378125812
1.378950219
1.37987951
1.379583334
1.379138204
1.378964623
1.378949719
1.379188219
1.379275431
1.378854754
1.378438398
1.378168461
1.378223848
1.378632937
1.377718169
1.377592739
1.376317785
1.376430936
1.376357169
1.377992239
1.379885791
1.380317072
1.379528354
1.378831076
1.378369277
1.378606825
1.377867294
1.376692422
1.375055542
1.375014431
1.374522063
1.375222394
1.375989409
1.376529917
1.377493547
1.378065838
1.378690902
1.379022628
1.379082734
1.37965054
1.380655827
1.380297581
1.37921755
1.37771458
1.377318622
1.377277978
1.376893557
1.377300868
1.377173207
1.376320754
1.376912797
1.377619305
1.379663439
1.381488741
1.38174506
1.380488658
1.37748233
1.376970419
1.37757902
1.377986104
1.377500366
1.376602939
1.376199307
1.376224185
1.376560449
1.376751188
1.376805773
1.377072034
1.377509435
1.378015725
1.379014301
1.380066538
1.381216688
1.381883286
1.380671127
1.378298398
1.376274605
1.375772747
1.375965065
1.376441856
1.376262937
1.377237649
1.37744041
1.378826558
1.381414071
1.383098238
1.382975431
1.38171014
1.380467204
1.376747118
1.376680912
1.37755614
1.378096068
1.379106449
1.379711589
1.379131135
1.378120528
1.377699941
1.377714162
1.37730608
1.377302316
1.377857016
1.378949739
1.380382207
1.381396675
1.381793708
1.381450174
1.379919077
1.377061643
1.376526643
1.374984191
1.374870899
1.376400277
1.377015077
1.377573558
1.379621613
1.382290377
1.383861152
1.383896247
1.383221323
1.381659444
1.380600234
1.38039665
1.376864813
1.376829112
1.378773313
1.381160563
1.381992558
1.381430806
1.380092843
1.378268054
1.377775213
1.378053721
1.378398398
1.378914673
1.379464892
1.380317563
1.381135055
1.381380236
1.381346703
1.3806144
1.378976747
1.37731563
1.375664805
1.375200254
1.375531846
1.3767139
1.378897995
1.381084008
1.382807393
1.383561742
1.383951743
1.383551056
1.382720044
1.381780874
1.380555253
1.380593331
1.378298169
1.378935372
1.38132093
1.382916027
1.382837159
1.381506267
1.379326814
1.377767926
1.37736355
1.377765929
1.379066083
1.380116901
1.380373258
1.380671538
1.380784059
1.380860227
1.380272708
1.379422346
1.377658484
1.376382386
1.375065059
1.37545549
1.377298806
1.380333437
1.382408466
1.383400168
1.383668443
1.383600789
1.383120756
1.382601927
1.381775138
1.381081699
1.380284609
1.379992583
1.379696364
1.379832689
1.381786991
1.382397668
1.382124515
1.38081502
1.37828785
1.376763052
1.376654195
1.37732325
1.379014504
1.380171327
1.380367916
1.379988086
1.379970978
1.379813378
1.378968338
1.377619642
1.376717361
1.375809583
1.376541009
1.378739132
1.381816719
1.383380181
1.383586154
1.383278146
1.383063625
1.382603955
1.381930709
1.381033919
1.380340207
1.380025602
1.380335532
1.379606415
1.37934639
1.3791899
1.381098683
1.381528224
1.381188701
1.379795182
1.37728462
1.376057163
1.376125257
1.377088036
1.378692891
1.379779049
1.379938872
1.379149115
1.379189733
1.378522004
1.377413931
1.376544498
1.376304946
1.377331915
1.380305615
1.383371413
1.383939761
1.383620462
1.383261854
1.382480605
1.381985589
1.381072948
1.380464396
1.379521786
1.379269543
1.379057863
1.379456898
1.379259089
1.378548002
1.378144576
1.38013639
1.380662857
1.380309953
1.37895454
1.377316617
1.376197038
1.376301209
1.377414254
1.378477048
1.379109215
1.379136401
1.378958834
1.377855758
1.377214819
1.376988614
1.376571175
1.37787032
1.381340534
1.383766586
1.384181548
1.383878713
1.382880149
1.382280451
1.381691234
1.380942928
1.379302037
1.379321408
1.379299293
1.379306162
1.379138954
1.378377257
1.378241942
1.377275179
1.377006408
1.379065136
1.380635332
1.38054297
1.379322867
1.377872998
1.377627828
1.377625492
1.377923426
1.378357813
1.378611072
1.378480821
1.378049779
1.37742139
1.37733432
1.376670633
1.377990402
1.381947832
1.384035757
1.384056884
1.3834819
1.382991479
1.381919249
1.381008304
1.380565485
1.37955334
1.379248631
1.378217516
1.378222153
1.378297036
1.378196199
1.377436911
1.377312873
1.376514584
1.378468853
1.380687107
1.381398826
1.381056768
1.380420479
1.379492558
1.378593978
1.37804936
1.378366701
1.378415246
1.378175713
1.377663672
1.377467294
1.377506106
1.378398524
1.382165394
1.384232603
1.384290069
1.383544083
1.382401121
1.381652343
1.380616924
1.379083539
1.377576011
1.377451059
1.377998391
1.377384472
1.377389907
1.377475218
1.377454557
1.377972289
1.378393641
1.376563515
1.378961789
1.38212057
1.382818869
1.382608168
1.381636599
1.379887784
1.378285185
1.377869297
1.378199381
1.378381919
1.378513671
1.378402892
1.378572638
1.379586442
1.382438503
1.38452201
1.384616296
1.383884879
1.382638524
1.381403695
1.379684768
1.37704519
1.376648997
1.37638038
1.37659801
1.377029596
1.378211957
1.378423732
1.378716326
1.37890717
1.379603879
1.380618199
1.377608663
1.380296802
1.382962769
1.383216145
1.382636362
1.381348647
1.379423376
1.377648919
1.377267788
1.377763155
1.378172337
1.378714188
1.379565295
1.38059682
1.382754501
1.384646669
1.38470697
1.384468362
1.38332217
1.381277386
1.378400336
1.376286802
1.375510332
1.375846919
1.376893045
1.377745848
1.378994704
1.379985528
1.380618632
1.380950362
1.381230581
1.381374493
1.38156296
1.378191425
1.380406462
1.38260583
1.382821142
1.382559817
1.380938274
1.378742011
1.376550279
1.376523742
1.377126501
1.377849713
1.378746912
1.380191855
1.382293491
1.384085667
1.384548678
1.384446072
1.383949115
1.382628312
1.378741745
1.375748133
1.375415151
1.375706537
1.376420631
1.37848512
1.380880792
1.382605979
1.383064367
1.382576079
1.382023578
1.381904214
1.381611776
1.381380696
1.377895005
1.379999872
1.382200952
1.382246544
1.382225586
1.380545663
1.377765254
1.376165951
1.376130253
1.376726277
1.377627807
1.378857226
1.380573089
1.382572859
1.383779386
1.384035036
1.383718232
1.382850454
1.379972421
1.377373584
1.376211274
1.375970629
1.37690059
1.379496641
1.382531391
1.384021279
1.38422542
1.383657311
1.382793599
1.382063421
1.381610344
1.381398756
1.381068696
1.377269014
1.379145405
1.381583708
1.381990928
1.38149263
1.380155244
1.377802824
1.376009172
1.376155189
1.376790463
1.378062696
1.379343026
1.380841875
1.382221929
1.383041788
1.382925302
1.38227506
1.380578309
1.378373143
1.376904265
1.376712593
1.378083203
1.381177102
1.383751372
1.384497398
1.38439266
1.383932341
1.383244777
1.382364116
1.381629121
1.38111607
1.380826525
1.380478976
1.37654172
1.378437871
1.381359722
1.381756036
1.381238585
1.379791311
1.377729993
1.376687572
1.37704885
1.378048912
1.379213203
1.379971062
1.380567759
1.381251863
1.381683177
1.381549911
1.380515039
1.378909611
1.377961905
1.37795676
1.37943114
1.382433958
1.384140027
1.384519526
1.38471505
1.384415676
1.383447205
1.38252059
1.38151067
1.380791798
1.380385617
1.379702363
1.378867245
1.376215219
1.377996686
1.381190208
1.382042648
1.382014324
1.381246026
1.379857279
1.379344837
1.379330376
1.379567122
1.379848393
1.380034033
1.380070104
1.380366108
1.380517693
1.380165887
1.379051754
1.378373389
1.378597745
1.38087446
1.382703699
1.383797488
1.384335692
1.384426154
1.38434669
1.383909459
1.382916289
1.381075081
1.379994147
1.379299505
1.379002168
1.378376851
1.377797148
1.378106687
1.381657975
1.383412215
1.38374859
1.383502703
1.382659854
1.381673534
1.380385096
1.379824724
1.379892271
1.3798597
1.379693416
1.379687583
1.379599949
1.378885794
1.378760636
1.378778747
1.380823695
1.382237226
1.383139943
1.38367174
1.384071153
1.384108863
1.383450779
1.382485884
1.380536907
1.378767232
1.378256156
1.377935278
1.377716152
1.377715907
1.37789555
1.377902219
1.381946372
1.384103917
1.384491605
1.384291879
1.383258466
1.381774998
1.380549744
1.379636481
1.379654994
1.379769983
1.378904041
1.378514374
1.378562511
1.37866672
1.379203143
1.380779327
1.382103602
1.382515745
1.383040085
1.383539393
1.383112287
1.382651507
1.381620516
1.379444238
1.377811377
1.377429721
1.377319919
1.377565
1.37749969
1.377441127
1.377636029
1.379208532
1.377568416
1.381757354
1.383903028
1.384223265
1.384076017
1.383257775
1.381694452
1.380255955
1.379307859
1.379189662
1.379423407
1.379223252
1.378728274
1.378706691
1.379416706
1.3807035
1.381986393
1.382420763
1.382573629
1.382603322
1.382350221
1.381535634
1.37977083
1.378167218
1.377471355
1.377511764
1.377509578
1.377290596
1.377753705
1.377867546
1.378406777
1.379954532
1.381980581
1.377186561
1.381264406
1.383316625
1.38364457
1.383633589
1.382914362
1.381382558
1.379092385
1.378016248
1.377938282
1.378281965
1.37877402
1.379004883
1.379428709
1.380544041
1.381835558
1.382348358
1.382572526
1.382444019
1.381371821
1.379997273
1.378489749
1.37764863
1.37740526
1.377544108
1.377700818
1.3775728
1.377839923
1.378240093
1.379462516
1.381241532
1.382527296
1.382604316
1.376829201
1.380910171
1.382650373
1.38280497
1.382581959
1.381616167
1.379414548
1.377004978
1.376586723
1.377110904
1.377925932
1.378753143
1.379472726
1.380549306
1.381853711
1.382079861
1.382411854
1.382350228
1.381375223
1.379840463
1.378382516
1.377594027
1.377535812
1.377647398
1.37796127
1.378647888
1.379388234
1.380104425
1.380939879
1.382271212
1.38280516
1.382731861
1.382428637
1.376426141
1.380617395
1.381824783
1.381813545
1.38131406
1.379887021
1.377493552
1.37595442
1.37613132
1.376612287
1.378157134
1.379359443
1.380113901
1.381121652
1.382011237
1.382136136
1.382123025
1.381278389
1.3804067
1.379535511
1.378467942
1.377927123
1.377930301
1.378837938
1.380538133
1.381894109
1.382957915
1.383196945
1.383109757
1.382692678
1.382809289
1.382489212
1.382497346
1.375629499
1.379719009
1.38107377
1.381456715
1.381023448
1.379487442
1.377334413
1.376032137
1.376267127
1.376801658
1.377882096
1.378713098
1.379486446
1.380879538
1.38180961
1.381628074
1.380996906
1.380314005
1.379956764
1.379749244
1.378839784
1.379108778
1.379981999
1.381972297
1.383082895
1.383545698
1.383549949
1.383687506
1.383397324
1.38301173
1.382690763
1.38250379
1.381439508
1.374783413
1.378177372
1.380309141
1.381312359
1.381196831
1.379664178
1.377757532
1.377198504
1.378026402
1.378267443
1.37842365
1.378480262
1.378586421
1.379431973
1.380232145
1.380330394
1.379767804
1.379663514
1.379641502
1.379554395
1.379614112
1.380798969
1.381848959
1.382691999
1.383589813
1.384019914
1.383629649
1.383491298
1.38314765
1.382678509
1.382264507
1.381159109
1.379171523
1.377025792
1.37957293
1.381066787
1.381777417
1.380764842
1.379845745
1.379301643
1.378891863
1.379017456
1.378972342
1.378687849
1.378313721
1.378496836
1.37875159
1.378579172
1.378626351
1.379307161
1.379680536
1.379849739
1.380013086
1.38093487
1.381926546
1.382611472
1.383325514
1.383451621
1.383832312
1.383631135
1.383182892
1.38185764
1.380174284
1.378441482
1.377606737
1.376370769
1.379679531
1.381596977
1.382075949
1.381356468
1.380709645
1.379963777
1.379130566
1.378547481
1.378260125
1.377820314
1.377206908
1.376861147
1.376747871
1.376882132
1.377850858
1.379210488
1.379839763
1.37989024
1.379906449
1.38079768
1.381402259
1.381864039
1.382488902
1.383015915
1.383141683
1.382575726
1.381452729
1.379746099
1.378059443
1.3773373
1.377456198
1.375830255
1.379870065
1.382052152
1.382545878
1.381902001
1.381216993
1.380413216
1.379278829
1.377930772
1.377201115
1.376825249
1.376251479
1.375921634
1.376092956
1.376821202
1.378128104
1.379476301
1.380011988
1.379787764
1.379351052
1.379968105
1.380224953
1.380611919
1.381219962
1.381806703
1.381424373
1.38024697
1.379152402
1.378434807
1.377888336
1.377748009
1.377999791
1.375318345
1.379699529
1.381905462
1.382444098
1.381991824
1.381277069
1.380294813
1.378195863
1.376611263
1.376264315
1.376298437
1.376201043
1.376196475
1.37658397
1.377450035
1.378732282
1.379801457
1.380190154
1.379807036
1.378904102
1.379516792
1.379556439
1.38002049
1.380488365
1.380344356
1.379196592
1.378821416
1.378623326
1.378522839
1.378441317
1.378444959
1.378948707
1.374952401
1.379268035
1.381435961
1.38184344
1.381471022
1.380565467
1.378896232
1.376168234
1.375550513
1.375917057
1.376338734
1.376584022
1.376870435
1.377495411
1.378502235
1.379552737
1.380165532
1.380131882
1.379696494
1.378993218
1.379468211
1.379806442
1.380072767
1.380078712
1.379197236
1.378831421
1.378966738
1.379151811
1.379107669
1.379002447
1.379394033
1.380649095
1.3746947
1.37847503
1.380504041
1.380561239
1.380451536
1.379279193
1.377304015
1.375878199
1.376195989
1.376963065
1.377627125
1.377929242
1.378164935
1.378756527
1.379661222
1.380303494
1.380489589
1.380275283
1.380200402
1.379829283
1.379808487
1.380146374
1.380246875
1.379638743
1.379074919
1.379156813
1.379432674
1.379851244
1.380045591
1.380553569
1.381807048
1.382685385
1.373677811
1.376955134
1.37915495
1.379849691
1.380134683
1.379149668
1.377696155
1.376839822
1.377331581
1.378209173
1.379015082
1.379274468
1.379216613
1.379822571
1.380668022
1.380833756
1.380873102
1.380844125
1.380899269
1.380751637
1.38034896
1.380361604
1.380203584
1.379446765
1.379188317
1.379674923
1.380158121
1.380756138
1.381691941
1.382859047
1.383352733
1.383082319
1.37278856
1.37639512
1.379295184
1.380346299
1.380720241
1.379672518
1.378277462
1.378037893
1.379146376
1.37989975
1.379887321
1.379829649
1.379642591
1.380226679
1.381031227
1.38121097
1.381151761
1.38105862
1.381316621
1.380959232
1.380575538
1.380438155
1.379802973
1.379580399
1.379861443
1.380487094
1.381647003
1.382910641
1.383871304
1.383985441
1.383579716
1.383057929
1.372986106
1.376586697
1.37959323
1.381179931
1.381557895
1.380820127
1.380081491
1.380155981
1.38066914
1.380110325
1.379459736
1.37932627
1.379098555
1.379463954
1.379866295
1.379943788
1.380157019
1.380568433
1.380949155
1.38059223
1.379999621
1.379485879
1.379341626
1.379882337
1.381051408
1.382668051
1.383819399
1.384276222
1.384243693
1.38391584
1.382828878
1.381425656
1.377820216
1.380595229
1.382041555
1.382709496
1.38278522
1.382454935
1.38173511
1.380911074
1.380281317
1.379888482
1.379432256
1.378802953
1.378778128
1.378991675
1.379337805
1.379766439
1.38025481
1.380618849
1.380575345
1.380308739
1.380470552
1.380950057
1.381542439
1.381950683
1.382174371
1.382245868
1.382221713
1.382195823
1.382070713
1.38176906
1.381486758
1.381798615
1.381770975
1.382108814
1.383389846
1.384719356
1.384688842
1.384279776
1.383804087
1.383335496
1.382539343
1.381478194
1.380499995
1.380014198
1.380131845
1.380464504
1.380869563
1.381445093
1.382045502
1.382214012
1.382171604
1.382206899
1.382346853
1.38256595
1.382665482
1.382819164
1.382998675
1.383071223
1.38316893
1.383230223
1.383142848
1.38295796
1.384128498
1.383576208
1.383262094
1.384560511
1.385554434
1.385393712
1.385399749
1.385444822
1.385252378
1.384855988
1.38412042
1.383416428
1.38297733
1.383339583
1.383785838
1.383895161
1.384020831
1.38421379
1.384130663
1.383841477
1.383791047
1.38395419
1.384102884
1.383978731
1.383959256
1.384140003
1.38417749
1.384216341
1.384266123
1.384206313
1.38403411
1.378500661
1.381723736
1.384420453
1.386107222
1.386173739
1.385523678
1.38463099
1.384599592
1.384988431
1.385204314
1.385425007
1.385700211
1.385785594
1.385755858
1.385558585
1.385190798
1.385001927
1.384855557
1.38474345
1.38478087
1.385026745
1.385409952
1.385779703
1.385922244
1.385833521
1.385818977
1.385806482
1.385765452
1.385760772
1.385649164
1.385434038
1.365296498
1.38513908
1.38582293
1.382953453
1.383095688
1.382700625
1.38240917
1.38332952
1.384090268
1.385096966
1.386253902
1.386662003
1.386564105
1.386385577
1.386063209
1.385624379
1.385343701
1.385111751
1.384978164
1.384994693
1.385293269
1.385711607
1.386093149
1.386394108
1.386332838
1.386342654
1.386462924
1.386482522
1.386441776
1.38619082
1.385835073
1.348850943
1.378980513
1.368512106
1.374308453
1.379349323
1.381217558
1.381991905
1.383756702
1.384896767
1.385657456
1.386148534
1.386462586
1.386096347
1.385576853
1.385625016
1.385455268
1.38518437
1.384861814
1.384616376
1.384705314
1.385055927
1.385454576
1.385890364
1.386505562
1.386575455
1.38657604
1.386803819
1.386861079
1.386787763
1.386499386
1.386133583
1.195026126
1.292397578
1.32894779
1.374552562
1.381769317
1.386126835
1.388766771
1.3883474
1.387194272
1.385708926
1.384942872
1.383645367
1.383457781
1.384268387
1.385578628
1.38570965
1.385399802
1.384521989
1.383870068
1.383950085
1.384216805
1.384526096
1.384923742
1.385625394
1.386175212
1.386503679
1.386914131
1.387016687
1.386943773
1.386661752
1.386389534
0.9986820693
1.122440849
1.260654903
1.349251262
1.363658356
1.377840976
1.387001178
1.386359074
1.382438973
1.383433005
1.38325958
1.382311175
1.382940848
1.385115151
1.386771326
1.386502423
1.38572661
1.384343518
1.383639661
1.383612996
1.383766816
1.383955067
1.38425496
1.385008536
1.385781063
1.386249968
1.386768354
1.386939187
1.386950864
1.386851639
1.386732303
0.9156602347
0.9578035838
1.053569742
1.180191813
1.261539994
1.333900736
1.371039086
1.365499359
1.372401299
1.379779683
1.381806995
1.384704565
1.387200106
1.389103665
1.388385058
1.387171723
1.385843287
1.384643852
1.384232939
1.384514414
1.38504363
1.385088507
1.38492612
1.384716105
1.385081893
1.385702873
1.386364047
1.386658057
1.386792154
1.386881248
1.386882458
0.9061361785
0.9093034826
0.9289312294
0.984590759
1.110449047
1.238440445
1.321283953
1.342146798
1.376397745
1.382517876
1.383761705
1.387973539
1.390809449
1.390274527
1.388277942
1.386555189
1.385830466
1.385863019
1.385640495
1.38580814
1.385980409
1.385745627
1.38518718
1.384740791
1.384761209
1.385227495
1.385932576
1.386295781
1.386481668
1.38666108
1.386722266
0.905515878
0.9056714097
0.9067721885
0.9129129626
0.9477419491
1.026428776
1.158210503
1.283056441
1.359581557
1.367980312
1.374894173
1.384336847
1.386685028
1.383578155
1.385101299
1.386825472
1.387297056
1.38692215
1.38652593
1.38603173
1.385576379
1.385320106
1.384761391
1.38450693
1.384632412
1.385247151
1.385973294
1.386438852
1.386571659
1.386542286
1.386473029
0.9060077401
0.9054354388
0.905793242
0.9061188557
0.9082448904
0.9220172692
0.9760908865
1.081889068
1.213053878
1.282431113
1.333266989
1.36894835
1.367583029
1.373328548
1.382509904
1.388778452
1.38788372
1.386727317
1.385364049
1.383686308
1.383502181
1.383850066
1.383976232
1.384279206
1.384881665
1.38568555
1.386356883
1.386493727
1.386483109
1.386457417
1.38636765
0.9121512166
0.9065826545
0.9062739525
0.9062410279
0.9060857746
0.9066015036
0.9117934668
0.9393020158
1.006866157
1.14113588
1.263508114
1.341439142
1.351174673
1.377991212
1.389460825
1.387557048
1.384086322
1.384329364
1.384052756
1.383361327
1.383825437
1.384753458
1.384817689
1.384937414
1.385407994
1.385869656
1.385994359
1.385999394
1.386041175
1.386162064
1.386225469
0.9202126462
0.9128865606
0.9118694442
0.9105676266
0.9071930455
0.9071587904
0.9080591909
0.9092356697
0.9175452445
0.9613965342
1.05266473
1.182926102
1.291134396
1.365787931
1.379498703
1.368121883
1.374834125
1.380727904
1.383871511
1.38654174
1.38859388
1.38841053
1.387020955
1.385977068
1.38515068
1.384842416
1.384803393
1.385098631
1.385550214
1.385956862
1.38605588
0.9270222827
0.9199961323
0.9198273047
0.9196477899
0.9155194235
0.9128215771
0.9124098882
0.9107596057
0.9091167227
0.9117492001
0.9315619278
0.9921943415
1.107583519
1.2327042
1.302792386
1.335815931
1.379595611
1.382994437
1.385748696
1.388783466
1.390410943
1.389516577
1.387637365
1.385535325
1.384829268
1.384719408
1.384938982
1.38545757
1.385932806
1.386279104
1.386182885
0.9485738417
0.9332613747
0.9276561175
0.9268876287
0.9229574413
0.9177848159
0.9168844508
0.9152695971
0.9120405261
0.9125208246
0.9137240062
0.9196799373
0.9536081292
1.030788587
1.161921585
1.285861603
1.361090397
1.367964769
1.378498193
1.385899979
1.38496608
1.382686594
1.384746338
1.385376317
1.386015287
1.386943547
1.387803196
1.387995683
1.387383458
1.386692134
1.385823923
0.9704496644
0.9571274249
0.9436404935
0.9387560031
0.9319203433
0.9200310534
0.9186408848
0.9182955224
0.9148024584
0.9133223111
0.914760132
0.9147037927
0.9155390556
0.927180062
0.9809780678
1.084226508
1.213528218
1.282565737
1.343613219
1.367765198
1.366446322
1.374050937
1.382326069
1.386364576
1.387508702
1.389195768
1.389575377
1.389105082
1.387836048
1.386663622
1.385810176
0.9935708281
0.9844979468
0.9689542566
0.9624054719
0.9556913952
0.9398186413
0.9314488826
0.927588442
0.9201320696
0.9141910979
0.9151494299
0.9145824784
0.9132988316
0.9133522403
0.9184630111
0.945638327
1.012908489
1.147578967
1.282788728
1.339130353
1.353706943
1.380882887
1.386655542
1.385704958
1.386483746
1.387971191
1.387573645
1.386944588
1.387075227
1.386767908
1.386653088
1.02116076
1.010077659
0.9888068202
0.9792525814
0.9745308425
0.9627727479
0.9508377949
0.9480350361
0.9419722788
0.929440002
0.9245940025
0.920716099
0.9145218542
0.9133860797
0.9145762375
0.9167382468
0.9252597591
0.9713124088
1.064607046
1.197472997
1.30365367
1.370339426
1.373525318
1.374198367
1.378942144
1.377832216
1.378987919
1.383700398
1.387102879
1.387909472
1.387452295
1.045564802
1.036727354
1.016699777
0.9997435876
0.9938088962
0.9824048878
0.9653724159
0.9637369874
0.9607194811
0.9497570634
0.9410218455
0.9380510734
0.9292905275
0.9200891302
0.9194174041
0.9182142083
0.9171767112
0.9199865391
0.9402634343
1.009844503
1.117349457
1.247738479
1.297963114
1.344794028
1.376569253
1.372279659
1.376071615
1.383502839
1.388919835
1.388489193
1.387702258
1.072287046
1.066314913
1.051218741
1.029598819
1.02099389
1.011479689
0.9902377454
0.9802667316
0.9753128723
0.9626409483
0.9502834933
0.9493062294
0.9451509069
0.9347165977
0.9312974066
0.9291404947
0.9223508601
0.9213113872
0.92239554
0.9295422068
0.9649810052
1.043631105
1.178560927
1.29631474
1.361126943
1.367686301
1.385688535
1.390690071
1.388708228
1.386554931
1.386397735
1.101996366
1.091671473
1.07705731
1.050363455
1.041615305
1.036698173
1.020519632
1.004308267
0.9982562566
0.9869888721
0.9678565731
0.9617850121
0.9572221409
0.9445648356
0.9382706692
0.9380629415
0.9324900158
0.9261259717
0.9266682409
0.9260221261
0.9269688327
0.9389800048
0.9964652682
1.095598456
1.222492826
1.31042353
1.37598347
1.380179224
1.373640236
1.380033055
1.384351814
1.130598099
1.117538478
1.107891877
1.083531897
1.066672358
1.060355111
1.045515118
1.025262384
1.02053092
1.013565642
0.9961774431
0.9851658864
0.9800504625
0.9681812154
0.954244653
0.9491681621
0.9430245478
0.9304791235
0.929385023
0.9289394962
0.9266332491
0.9262346834
0.9316150342
0.9601294155
1.039845465
1.158573403
1.275662754
1.315391201
1.347250238
1.384266214
1.387242197
1.163059078
1.143715505
1.136204691
1.117153512
1.093422157
1.084550146
1.071940524
1.047389739
1.038139992
1.031564808
1.014896741
1.00282979
1.000063075
0.9924882952
0.9780629175
0.9709412488
0.9654143997
0.952108654
0.9424700404
0.9380524655
0.9299445428
0.9262366633
0.927935228
0.9303857085
0.940102682
0.9880979108
1.078395877
1.20643595
1.309743079
1.372702371
1.373952876
1.20312602
1.175210717
1.16242384
1.144455039
1.116369692
1.107723045
1.099711354
1.078939312
1.063678005
1.056221564
1.040923831
1.022966091
1.016935218
1.009048936
0.9927862148
0.9866345763
0.9831896081
0.9737986612
0.9625404731
0.9582070023
0.951070459
0.9382413139
0.9340622045
0.931671023
0.9303850581
0.9331594169
0.9520635103
1.022199134
1.126578388
1.252226553
1.303745118
1.234232216
1.203955792
1.190307898
1.177166775
1.150624844
1.134102196
1.123427644
1.102698577
1.084541402
1.078421841
1.067199839
1.048309406
1.039043826
1.031457474
1.014840082
1.002938302
0.9974039008
0.9871987339
0.9740645654
0.9715845239
0.9677025963
0.9569655259
0.9492551407
0.9452282165
0.9366651354
0.9339383421
0.9350692312
0.9430345596
0.9792004907
1.061464362
1.195324422
1.267641876
1.235003425
1.217276928
1.204766607
1.180728631
1.160565566
1.149971479
1.132201054
1.109991094
1.100254587
1.089154727
1.069560448
1.06032171
1.054459938
1.040832373
1.026173901
1.01947512
1.010342298
0.9938362491
0.986395278
0.9809654637
0.9689549175
0.9586063807
0.9570476407
0.9509444627
0.9425430073
0.9417190949
0.9404255752
0.94131334
0.9548350197
1.015543922
1.301498842
1.271457717
1.247681007
1.23225362
1.207114334
1.183665617
1.174647511
1.160870059
1.138751725
1.1260588
1.114919747
1.094227717
1.080252032
1.07270446
1.058802494
1.042413165
1.037877808
1.032092792
1.017820238
1.007631601
1.002237769
0.9914294352
0.9774485194
0.9710620643
0.9649486852
0.9519064389
0.9481934037
0.946826615
0.9431808983
0.9426426262
0.9485067972
1.331700021
1.302408736
1.277066602
1.262969444
1.241790274
1.215111016
1.200886418
1.184962191
1.159762714
1.146966529
1.138384883
1.1208175
1.104257574
1.09612625
1.083656434
1.064112822
1.056073837
1.049261578
1.034238945
1.023072422
1.019591733
1.012198114
0.9988729053
0.9914611565
0.9861237917
0.9747214568
0.9629348881
0.9574340329
0.9488665392
0.9431125745
0.945421689
1.365329182
1.33591195
1.305505546
1.289987095
1.270342178
)
;

boundaryField
{
    inlet
    {
        type            calculated;
        value           nonuniform 0();
    }
    outlet
    {
        type            calculated;
        value           nonuniform 0();
    }
    bottom
    {
        type            calculated;
        value           nonuniform 0();
    }
    top
    {
        type            calculated;
        value           nonuniform 0();
    }
    obstacle
    {
        type            calculated;
        value           nonuniform 0();
    }
    defaultFaces
    {
        type            empty;
    }
    procBoundary28to21
    {
        type            processor;
        value           nonuniform List<scalar> 
19
(
1.380872442
1.379858463
1.379371412
1.379914255
1.380700172
1.380544223
1.378491236
1.378491236
1.377597407
1.377652583
1.378865187
1.380243517
1.380136508
1.379469595
1.378608172
1.376495644
1.376495644
1.376421435
1.377415705
)
;
    }
    procBoundary28to22
    {
        type            processor;
        value           nonuniform List<scalar> 
36
(
1.380128782
1.3774191
1.378759068
1.37948868
1.37933216
1.378866564
1.377702414
1.37680172
1.376575009
1.377338919
1.380058146
1.383037161
1.383712037
1.383113257
1.381944321
1.381249753
1.380815607
1.380946624
1.381045337
1.38124501
1.381642572
1.381463752
1.381923304
1.380994181
1.380278094
1.379648306
1.378747209
1.378747209
1.380581869
1.379031626
1.37755521
1.376830155
1.377489308
1.377741494
1.378361101
1.378361101
)
;
    }
    procBoundary28to23
    {
        type            processor;
        value           nonuniform List<scalar> 3(1.378507289 1.376994951 1.376268924);
    }
    procBoundary28to27
    {
        type            processor;
        value           nonuniform List<scalar> 
55
(
1.378113268
1.37783332
1.377239176
1.376428012
1.376085874
1.376328306
1.376328306
1.376487265
1.376477
1.376312576
1.376115882
1.375866394
1.375251629
1.374543681
1.373969351
1.373969351
1.373346114
1.372817674
1.372186703
1.371550018
1.371284054
1.370616664
1.370079137
1.370270945
1.37419219
1.37419219
1.378605957
1.384682082
1.379921476
1.33844502
1.254137195
1.072361116
0.9341915148
0.9067471787
0.9059680821
0.9054987214
0.906643858
0.9158733353
0.924582787
0.9313717656
0.9555208224
0.9780114756
1.000117702
1.031031707
1.058767895
1.089144256
1.127897837
1.1606568
1.193461265
1.226908988
1.255362718
1.287466272
1.319646676
1.350949608
1.385452364
)
;
    }
    procBoundary28to29
    {
        type            processor;
        value           nonuniform List<scalar> 
69
(
1.376156042
1.376997953
1.379368094
1.380171364
1.380052022
1.379950715
1.379950715
1.380297122