/*--------------------------------*- C++ -*----------------------------------*\
  =========                 |
  \\      /  F ield         | OpenFOAM: The Open Source CFD Toolbox
   \\    /   O peration     | Website:  https://openfoam.org
    \\  /    A nd           | Version:  7
     \\/     M anipulation  |
\*---------------------------------------------------------------------------*/
FoamFile
{
    version     2.0;
    format      ascii;
    class       volScalarField;
    location    "2";
    object      p;
}
// * * * * * * * * * * * * * * * * * * * * * * * * * * * * * * * * * * * * * //

dimensions      [1 -1 -2 0 0 0 0];

internalField   nonuniform List<scalar> 
2222
(
1
1
1
1.000000002
1.000000623
1.000043891
1.00453277
1.094953355
1.920083556
3.748080705
5.296189635
5.712751934
5.489847474
5.140171659
4.890749333
4.724485962
4.55805702
4.400704801
4.257707346
4.12806674
4.001991914
3.869739104
3.731313441
3.597338425
3.478207396
3.375606736
3.283760012
3.194300815
3.103387162
3.011276494
2.920157494
2.830960268
1
1
1
1.00000006
1.000014987
1.000808428
1.034455463
1.319180751
2.100991383
2.927972776
4.079150243
5.038632786
5.272379351
5.144622646
4.925001879
4.730435789
4.582108137
4.439531833
4.3014213
4.171607421
4.042710174
3.906402527
3.76552738
3.631626583
3.514112431
3.411596309
3.318233161
3.226556555
3.133790258
3.040523657
2.948547257
2.858902986
1
1
1.000000016
1.000002802
1.000345529
1.011703504
1.175132816
1.816655624
2.357586754
2.486019874
3.067002258
4.351156987
5.052460438
5.124086466
4.992027903
4.742651866
4.571588599
4.429625913
4.286924004
4.147083557
4.015104092
3.883667079
3.748748503
3.61659662
3.497031731
3.39160784
3.294870394
3.201239169
3.108245832
3.013869123
2.919297229
2.827911451
1
1.000000004
1.0000008
1.000082429
1.004917595
1.098684009
1.530327815
2.285595324
2.544514783
2.520127515
2.559127119
3.087412181
4.289382839
4.955532881
4.8904501
4.757396389
4.602916958
4.459595401
4.311308353
4.159560326
4.021670233
3.89644266
3.765722826
3.63334039
3.50931761
3.400359245
3.29588082
3.196223992
3.102820795
3.009069437
2.914163635
2.82049542
1.000000001
1.000000169
1.000018037
1.001184013
1.038596277
1.407190275
2.002167938
2.484488213
2.54991676
2.523630833
2.480895664
2.527442481
3.195058773
4.480007869
4.724253813
4.693509395
4.586111706
4.43504974
4.273400139
4.131669852
3.995255197
3.861189433
3.728926931
3.598046042
3.477286835
3.371075672
3.282832
3.194596425
3.103780369
3.011661418
2.918217313
2.825013251
1.000000025
1.000003055
1.000228035
1.009451838
1.191404559
1.86374664
2.362388814
2.532753872
2.523794237
2.500188075
2.451104851
2.397676929
2.507886864
3.319115919
4.26166108
4.636432874
4.577748524
4.42407489
4.265902348
4.133796982
3.996275219
3.85564042
3.721348542
3.591903453
3.470522003
3.362388449
3.274950888
3.204037788
3.122155331
3.032415081
2.940459714
2.84688449
1.000000357
1.000035162
1.002094945
1.052922483
1.572946675
2.231120397
2.505618536
2.546405498
2.518366568
2.456985217
2.408745247
2.346400712
2.30720335
2.496369005
3.493216638
4.402425133
4.506297743
4.398658186
4.278323634
4.139949837
3.983976312
3.837513749
3.704972549
3.578596422
3.461985289
3.361221021
3.268405332
3.175129029
3.085583468
2.997564805
2.908053997
2.816740757
1.000004004
1.000370154
1.014920524
1.232809789
2.062128245
2.414439072
2.54140598
2.554120624
2.506788882
2.42391978
2.374665939
2.318730972
2.240880358
2.234450863
2.562180196
3.544977248
4.269205687
4.374611993
4.301735264
4.148510898
3.981428764
3.827871685
3.690932259
3.567243288
3.458661367
3.358795227
3.259695937
3.165067307
3.077324248
2.990965878
2.902234808
2.810974597
1.000055435
1.003960696
1.084049319
1.676876288
2.390451987
2.504552836
2.548647019
2.556615524
2.490816982
2.394600364
2.331351281
2.293829404
2.221519873
2.153125458
2.17937536
2.649839486
3.744114702
4.281306709
4.266227202
4.13984341
3.984550766
3.825680874
3.684044523
3.563196849
3.45672637
3.354277355
3.253514723
3.160103689
3.072752736
2.985605332
2.896007482
2.80534138
1.001023004
1.03539088
1.328314474
2.232443251
2.534866864
2.543283741
2.549719107
2.535152118
2.458127902
2.36325658
2.296977469
2.258130185
2.204969686
2.131316054
2.089870723
2.157644356
2.749561726
3.744220968
4.138210313
4.115057779
3.985855425
3.819894942
3.676342867
3.558508278
3.45271937
3.348427267
3.247441663
3.153450613
3.064697803
2.976964017
2.887629328
2.798717134
1.014148143
1.202228262
1.805092481
2.541808017
2.582421283
2.549932667
2.517255835
2.486101335
2.417591841
2.334994864
2.269972146
2.22232183
2.173039738
2.116537688
2.057352444
2.031179881
2.14721915
2.896944908
3.847246831
4.045939111
3.957536674
3.808794502
3.670156734
3.55153596
3.443056469
3.339957753
3.244213958
3.151828229
3.061120607
2.97242102
2.884399252
2.795819587
1.109402388
1.601290367
2.314910584
2.607649909
2.597308759
2.555000885
2.491858841
2.43674806
2.378250403
2.310895897
2.244655268
2.193064725
2.141015991
2.091828963
2.039378302
1.981469295
1.972207039
2.177120078
2.987116309
3.761825181
3.873843765
3.795381863
3.667340982
3.544628032
3.431038471
3.330427757
3.243871809
3.159577388
3.065641983
2.974050269
2.888659446
2.79923691
1.434794181
2.060330428
2.54879133
2.615809928
2.598131819
2.557853351
2.473381424
2.396805398
2.343067638
2.285719369
2.221920975
2.16424476
2.112262043
2.060810754
2.022452682
1.962749165
1.911980571
1.921553068
2.229609893
3.150436487
3.746955555
3.753048595
3.669397827
3.545839777
3.427001365
3.327853477
3.233750301
3.134738618
3.039377158
2.948829408
2.861579271
2.780781595
1.904926325
2.396690454
2.602171099
2.598447444
2.551175262
2.501781
2.438539654
2.359990763
2.310473981
2.257768411
2.19741049
2.135243118
2.081035807
2.031314237
1.992635217
1.949724721
1.887563305
1.85365474
1.893420704
2.320364193
3.155333438
3.654180261
3.63602175
3.548890552
3.434441141
3.33448468
3.231378735
3.124376312
3.027948821
2.93775574
2.84789735
2.766048229
2.268482421
2.543656908
2.61417227
2.590309946
2.521556021
2.463027727
2.40501488
2.324996685
2.275869682
2.228871845
2.170859672
2.110215343
2.049857723
2.00417103
1.963506597
1.925825808
1.871300801
1.818424497
1.802033295
1.875446469
2.461373883
3.376075639
3.551003812
3.503047418
3.422485792
3.322471854
3.208441827
3.106164592
3.016955921
2.927388303
2.838448323
2.756136504
2.460773184
2.58419204
2.617692793
2.578510533
2.489939503
2.420394157
2.369216563
2.295427429
2.24266905
2.198247165
2.144380317
2.084709696
2.023076094
1.974735657
1.938758712
1.896203585
1.851672621
1.797781152
1.755562508
1.74926827
1.914335707
2.606242546
3.245896407
3.46490308
3.422119662
3.317435085
3.193837161
3.097025008
3.008939595
2.915006239
2.823972877
2.741862143
2.554845913
2.585597619
2.605992115
2.5588783
2.457975068
2.379593631
2.331921482
2.266504112
2.210825921
2.166455627
2.117584705
2.057321413
1.994919506
1.944217304
1.909806755
1.870678904
1.820543049
1.779834596
1.733471421
1.697097039
1.707437449
1.962836836
2.770502116
3.376266181
3.373454143
3.289907795
3.188684746
3.095165526
2.997849748
2.89881232
2.810539969
2.7321852
2.596428858
2.583990964
2.578153289
2.523951609
2.426648244
2.343940935
2.294941712
2.236865757
2.178739651
2.134081467
2.087721184
2.030597678
1.965507357
1.916629672
1.880139467
1.845644245
1.79534975
1.753502384
1.717224195
1.672336496
1.643598938
1.68003156
2.077806773
2.883175083
3.239048074
3.254626009
3.193960588
3.093270055
2.982256971
2.88266912
2.798633014
2.721697943
2.619364165
2.566391775
2.532754828
2.48131105
2.397780813
2.313702465
2.259530269
2.206000974
2.146793782
2.102264785
2.056905558
2.002292402
1.93729999
1.888172811
1.853785867
1.817904251
1.773001724
1.725278683
1.695050577
1.654442712
1.609834712
1.595473829
1.680368804
2.236947092
2.998818954
3.214830019
3.187920504
3.087058963
2.96861998
2.872087916
2.786894918
2.707675443
2.62849665
2.560176584
2.492464702
2.4375274
2.368161316
2.287144339
2.227299553
2.175591202
2.11588418
2.070632772
2.027616769
1.97397006
1.909068185
1.857896756
1.82608635
1.790430429
1.746922628
1.703141626
1.667790904
1.635967284
1.588951144
1.5514065
1.554740154
1.725742518
2.357746179
2.994820699
3.079447614
3.045217622
2.963012257
2.873095484
2.780665148
2.695828832
2.617837814
2.545984268
2.461074661
2.399248733
2.336900579
2.260509963
2.197150555
2.143998697
2.083840882
2.03869267
1.997255592
1.944679827
1.879752051
1.830166081
1.79825292
1.764719616
1.720418796
1.679718813
1.643720595
1.610270649
1.573618567
1.528194696
1.508321728
1.525636294
1.78852112
2.525532308
2.968081056
3.010385211
2.96220444
2.886247619
2.784522181
2.690293087
2.572529126
2.508919302
2.428707015
2.364144414
2.304877495
2.231740159
2.166054211
2.110934583
2.050976956
2.006365992
1.966389792
1.915808386
1.850529216
1.802652243
1.771290667
1.738085822
1.695872655
1.654307037
1.621473131
1.585518384
1.550602945
1.51340112
1.481350311
1.465934544
1.510356024
1.894690649
2.541341094
2.924270931
2.922070439
2.849273471
2.749172514
2.669164462
2.538249225
2.472701595
2.394714196
2.32804781
2.27068045
2.201627415
2.137076355
2.08112957
2.020053409
1.975193121
1.936248411
1.88742402
1.821970018
1.775192421
1.744923776
1.711937207
1.67130374
1.629975676
1.597014278
1.563096201
1.522930634
1.494751288
1.461572939
1.43139207
1.426353802
1.507257542
2.005145957
2.752141975
2.854679128
2.812961494
2.743962013
2.67309668
2.49862987
2.42919147
2.360310936
2.295914083
2.238199365
2.172121984
2.109240136
2.052206198
1.989222797
1.944199135
1.905347028
1.857669278
1.792963157
1.747648308
1.718413234
1.686129199
1.644840532
1.605173276
1.571231798
1.539507977
1.500322249
1.468535727
1.445820667
1.413159031
1.38268787
1.383957662
1.565456377
2.204123626
2.595987238
2.763957836
2.748289164
2.695986425
2.460275203
2.386133284
2.323203174
2.263270744
2.205435963
2.141782858
2.080037506
2.022184225
1.957638469
1.912198396
1.874397673
1.828222008
1.764368717
1.720493437
1.691826484
1.66082822
1.619390466
1.580518228
1.547292011
1.515337516
1.478666892
1.44485321
1.424158084
1.397862793
1.35793101
1.336990683
1.367338786
1.648765988
2.275664516
2.737877961
2.73443173
2.648650945
2.424226904
2.345318254
2.284617982
2.230252984
2.171730968
2.109824931
2.050773413
1.993899769
1.927913464
1.881506456
1.843581419
1.798205935
1.735481877
1.692670978
1.664581675
1.634981093
1.594017573
1.555293136
1.52360849
1.491769546
1.454882627
1.424991045
1.399936835
1.37951425
1.341889825
1.306709413
1.305304736
1.368283064
1.785503441
2.500715965
2.595506274
2.590269647
2.392379566
2.307754763
2.246616065
2.196437549
2.138308024
2.078449024
2.020755685
1.964352481
1.897484673
1.850533072
1.813498965
1.769427424
1.708224184
1.666231763
1.638569177
1.60995159
1.569232052
1.53057067
1.499509398
1.46877788
1.430964778
1.403410759
1.378691914
1.356543031
1.326264498
1.286425929
1.271463824
1.276130039
1.422107918
1.991329322
2.401508436
2.579098133
2.363236075
2.275622154
2.212046941
2.162553974
2.103683355
2.04514518
1.989520422
1.934467295
1.867224648
1.819358364
1.782974749
1.740282782
1.680521619
1.639169658
1.611805584
1.584149456
1.543939177
1.505628789
1.475739705
1.445910049
1.408555683
1.381204522
1.35841565
1.334654292
1.303611087
1.273593137
1.248106393
1.24067382
1.266435281
1.496065949
2.071358543
2.542210731
2.331890203
2.242237913
2.176347985
2.127424593
2.069186916
2.012262255
1.95805278
1.904162285
1.83719784
1.788711145
1.753251422
1.712114526
1.653793052
1.612927486
1.585558791
1.558366771
1.51842802
1.480323859
1.451934007
1.422809441
1.386372491
1.359251659
1.336860716
1.31384823
1.280177559
1.256651121
1.232981755
1.215502645
1.211948188
1.257054972
1.623537668
2.278876662
2.296889496
2.206423635
2.140023839
2.092255287
2.034724292
1.978821936
1.926066859
1.873428754
1.807708558
1.758917993
1.724636562
1.685368839
1.628032376
1.587062127
1.559471971
1.532447452
1.493113694
1.455275128
1.428453153
1.399956419
1.364187091
1.338091559
1.314817349
1.293353988
1.26056734
1.233127201
1.218513893
1.197192983
1.180357232
1.17787393
1.291222008
1.778537913
2.261590529
2.172527414
2.106049629
2.058255985
2.000671283
1.944942221
1.893702355
1.842350839
1.777798407
1.729035689
1.695352974
1.657613981
1.601169917
1.55968499
1.532451744
1.505762861
1.467151453
1.430134411
1.404895872
1.377592115
1.3422909
1.316694485
1.293191009
1.271633181
1.241709566
1.212356031
1.200025558
1.184167202
1.16026136
1.14357072
1.159032414
1.341898343
2.223885823
2.135650668
2.070295743
2.023869206
1.9676822
1.911804333
1.86141191
1.810993131
1.748149166
1.700080258
1.667150452
1.631155896
1.575976455
1.533313677
1.506138217
1.47953596
1.441690785
1.405659569
1.381377359
1.355145459
1.320498476
1.295371578
1.272241517
1.250466901
1.222600391
1.194878301
1.1789351
1.167276335
1.144147306
1.119236751
1.109070704
1.141951437
2.185947121
2.100506374
2.035837097
1.989581573
1.934363656
1.87725219
1.828354425
1.779595161
1.718110532
1.671069071
1.638384426
1.603833592
1.550664316
1.506505467
1.479572633
1.453194938
1.415969241
1.381279509
1.357985012
1.333258214
1.299656455
1.274398752
1.25137699
1.229162472
1.202850172
1.176969915
1.160224034
1.147306576
1.130800351
1.100995048
1.080899642
1.081335391
2.149441588
2.06647112
2.002405004
1.955788414
1.901597682
1.843338422
1.795513149
1.748210938
1.688298756
1.642518535
1.60993281
1.576497721
1.526045805
1.480149679
1.453153089
1.427019118
1.390709512
1.357459759
1.334656736
1.311077368
1.278559828
1.253444163
1.230667402
1.208660075
1.184175303
1.157847398
1.142518317
1.127350648
1.113331158
1.087716774
1.059669698
1.050301108
2.112396447
2.031252594
1.967471081
1.920302491
1.8675944
1.808231778
1.762052061
1.716890824
1.658438582
1.613825784
1.581231586
1.548496025
1.501437723
1.454242132
1.427257585
1.401496429
1.366100364
1.334207233
1.311674257
1.289455275
1.258475514
1.233264802
1.210600347
1.188481588
1.16492149
1.13797024
1.123918452
1.109510137
1.093537175
1.072816562
1.044351212
1.029094806
2.076197999
1.995649003
1.932540856
1.885026149
1.833468903
1.773761753
1.728943586
1.685845001
1.628967124
1.585224481
1.55269798
1.520138343
1.47666784
1.428798663
1.401643704
1.37633555
1.341946262
1.310993681
1.28802225
1.266384554
1.236975137
1.211982526
1.190021167
1.167985543
1.145643223
1.118886486
1.104522358
1.092481031
1.074958949
1.053677399
1.032523523
1.012763063
2.039542725
1.960144176
1.898507004
1.851037106
1.800265153
1.740318586
1.696511393
1.655344941
1.600190499
1.557096061
1.524940647
1.492278253
1.451884471
1.404275897
1.376709432
1.351595419
1.317887578
1.28778645
1.264762897
1.243995081
1.217189063
1.192020508
1.170440744
1.14854646
1.12652479
1.100349727
1.085382026
1.074478105
1.057750038
1.033504221
1.016325095
0.9997465922
2.003785988
1.925834012
1.864396872
1.816002731
1.764591861
1.705444437
1.663296001
1.624494167
1.572031883
1.529162277
1.497394963
1.464395031
1.42614124
1.379284189
1.351460684
1.326877626
1.294621872
1.265561782
1.242223921
1.221248896
1.195715051
1.170617625
1.149872524
1.128827746
1.107222074
1.081706628
1.06705632
1.055870128
1.041343777
1.016668916
0.9982225275
0.9875224434
1.969382104
1.891089655
1.828836174
1.780070681
1.728604619
1.671244657
1.630746019
1.594244843
1.544738511
1.50127274
1.469830441
1.436713311
1.399824145
1.354408842
1.326609333
1.302715518
1.271758175
1.243036623
1.219447358
1.198140841
1.174904855
1.150638776
1.130216787
1.110032105
1.088520404
1.06314559
1.049094141
1.037558139
1.023961771
1.001353516
0.9811647646
0.9715064855
1.934725131
1.855926527
1.792911109
1.744671657
1.693568766
1.638784665
1.599286342
1.563978711
1.517237285
1.472697145
1.441521143
1.408661048
1.37277369
1.329150587
1.301521298
1.27836248
1.248843759
1.2206045
1.197257691
1.176004035
1.153949084
1.129822449
1.110085081
1.09122253
1.070415607
1.045409402
1.031764374
1.020170737
1.006435664
0.9854404236
0.9665601191
0.9540600078
1.897903967
1.821195491
1.757980299
1.710858246
1.660512095
1.60714302
1.567350351
1.532403164
1.489408898
1.444574151
1.413913927
1.382102772
1.347233825
1.305722515
1.277934182
1.25482966
1.226379707
1.198254312
1.175062421
1.153628477
1.132735557
1.109651974
1.090515682
1.072622649
1.052189176
1.027035302
1.013262305
1.002059465
0.9885777896
0.9688858672
0.9523442329
0.9389326677
1.860053118
1.787806071
1.723629483
1.677198486
1.627171237
1.574769458
1.535336005
1.500672604
1.461636733
1.417120361
1.386506358
1.355632859
1.321175776
1.28042679
1.252555898
1.229932943
1.203371727
1.176110362
1.153546857
1.132656046
1.112760796
1.089879181
1.071254546
1.054186578
1.034438019
1.009855381
0.9960706221
0.9848179056
0.9716752708
0.9523955488
0.9366556603
0.924259275
1.822458965
1.754555579
1.689567815
1.643202356
1.593886903
1.542579785
1.503724498
1.468983001
1.433261215
1.389893776
1.359099502
1.329237669
1.295325374
1.256269874
1.229033748
1.206781281
1.181927251
1.155022667
1.132612997
1.112028287
1.09246582
1.069806574
1.051605128
1.035137804
1.016076213
0.9918201448
0.9780520636
0.9666762979
0.9543214021
0.9364766792
0.920819206
0.9102059912
1.785010839
1.719733249
1.65388933
1.607868813
1.560269619
1.510789118
1.472866089
1.438060821
1.404477558
1.362290824
1.331366497
1.302820821
1.270263198
1.232594261
1.205243076
1.182868886
1.159636368
1.133884539
1.111925043
1.091839986
1.072443608
1.049643344
1.031933045
1.016133491
0.9981016366
0.9747337439
0.9610260578
0.9494472164
0.9374587571
0.9209275505
0.9045156528
0.89436095
1.746178736
1.68332483
1.61941947
1.574549295
1.529628299
1.481756827
1.44391106
1.408282439
1.375117956
1.33419559
1.303465024
1.276385843
1.245182942
1.208875489
1.181994528
1.159982291
1.13831341
1.112961042
1.090757797
1.070958086
1.051664582
1.029448572
1.012648784
0.9976537175
0.980861408
0.9581742348
0.9442467701
0.9326813278
0.9205734099
0.9051153835
0.8894200416
0.8787780265
1.706723002
1.646639774
1.585008498
1.541278666
1.4984735
1.450959074
1.412891746
1.377339219
1.345092135
1.30667376
1.277049291
1.251497847
1.222002573
1.18684829
1.159568245
1.137077567
1.115806472
1.091056537
1.069690848
1.051066863
1.032534239
1.010840477
0.9941600593
0.9790218301
0.962782509
0.9409013847
0.9267306877
0.9153803404
0.9033107466
0.8888444717
0.8741317384
0.863104072
1.66765065
1.609995112
1.552239037
1.509396571
1.468293597
1.421445451
1.383577241
1.348910444
1.317557642
1.280648689
1.250957063
1.225907656
1.197409734
1.163030162
1.135805538
1.113527415
1.093201893
1.069440098
1.048600586
1.03078747
1.012714141
0.9913859889
0.9752190896
0.9605485235
0.9454837581
0.9250760674
0.910621999
0.8994573676
0.8875369641
0.8734395373
0.8593292768
0.8483446872
1.631014267
1.576098236
1.519635214
1.475689517
1.435736796
1.390675237
1.353431025
1.319886809
1.288907321
1.25293187
1.224385051
1.200706419
1.173993696
1.140805847
1.113446205
1.0914789
1.071807062
1.048969991
1.029087243
1.012232741
0.9947915487
0.9736998113
0.9572919188
0.9422197693
0.9273121923
0.9077380375
0.8930562429
0.8821407265
0.8707367391
0.8571893041
0.8435039276
0.8335106181
1.595044486
1.540608432
1.484699217
1.441182765
1.403614192
1.361724483
1.324595895
1.291907292
1.261553058
1.226665344
1.198221337
1.17473508
1.148975016
1.11699344
1.090181771
1.069185308
1.050536299
1.028718693
1.009231324
0.9926849974
0.97547346
0.954533642
0.9385280902
0.9238003394
0.9095309074
0.8917854067
0.8773336969
0.8665013983
0.8555888835
0.8423798256
0.8285800263
0.8187728172
1.558232647
1.505803488
1.451269322
1.408593328
1.372792393
1.333231231
1.29605279
1.264104175
1.234116468
1.199346525
1.171621671
1.149290717
1.12537526
1.095857475
1.069178075
1.048367964
1.029738771
1.007747899
0.9886530104
0.9727970164
0.9564521709
0.9364175699
0.9205729802
0.906008731
0.89215763
0.8753846236
0.8607237333
0.8501149669
0.8397307401
0.8271641121
0.81390672
0.8047027851
1.522502504
1.472007393
1.418692747
1.376590388
1.341403623
1.303559363
1.266399249
1.235280742
1.206201176
1.173378612
1.146822129
1.125250245
1.10230761
1.073771838
1.046928262
1.026530262
1.008271503
0.9870211213
0.9689314714
0.9538160633
0.9382581749
0.9189838932
0.9033948202
0.888944232
0.8751025963
0.859111876
0.8445880786
0.8341954335
0.8241079391
0.8117992638
0.798751294
0.7893173366
1.485676884
1.438867796
1.387301614
1.34552137
1.310836058
1.274749466
1.238432727
1.208583484
1.180689925
1.149140077
1.122839888
1.101457248
1.079171601
1.052311582
1.02566279
1.005532302
0.9875021028
0.9663672284
0.9485628564
0.9336951861
0.9187573958
0.9006741597
0.8852550852
0.8710219776
0.8575946553
0.842433333
0.8279431878
0.818489821
0.8094181063
0.7980197351
0.7858276909
0.7764454595
1.451837726
1.407722008
1.356825708
1.314653924
1.279668448
1.244249657
1.208610422
1.180216659
1.15368824
1.124092926
1.098378962
1.077478263
1.055775747
1.029588179
1.003211639
0.9840657689
0.9668344538
0.9467585908
0.9301384672
0.9160935877
0.9020565104
0.8847471643
0.868908914
0.8543925527
0.8408624217
0.8258056488
0.8113754442
0.8021438382
0.7932801238
0.7823643332
0.7707570018
0.761825177
1.417295178
1.375486194
1.325008248
1.282940611
1.248628905
1.21523598
1.181919977
1.154714464
1.128882711
1.099853821
1.07358601
1.052703454
1.031388284
1.00690568
0.9821761021
0.963961197
0.9474038877
0.9282653762
0.9118086976
0.8974815786
0.88327442
0.8660576767
0.8503128763
0.8364714847
0.8236113843
0.8096292802
0.7960331483
0.7874917003
0.7791148293
0.7685960249
0.7572155735
0.7481716965
1.382483141
1.342510034
1.292987919
1.251936998
1.219009406
1.187324778
1.154551512
1.127655761
1.102398646
1.074670424
1.049012758
1.029115863
1.008956046
0.9858462363
0.9616198137
0.9439133241
0.9278819583
0.9094503005
0.8932430608
0.8789351623
0.8648889779
0.8485092101
0.8331796992
0.8197251694
0.8072296218
0.7937190175
0.7798931249
0.7713356222
0.763558917
0.7540125059
0.7433031048
0.7350143444
1.347362127
1.30950844
1.262108746
1.222308482
1.190241041
1.159182126
1.127394312
1.101197597
1.076549552
1.05010861
1.024974794
1.005745099
0.9861279403
0.9637921787
0.9406320212
0.9234337731
0.9077034483
0.8896184959
0.8734194665
0.8594052472
0.8460420766
0.8306416591
0.8161104577
0.8040942848
0.7925897542
0.7797717248
0.766404244
0.7575276902
0.7493504694
0.7395891269
0.7288968488
0.7206677827
1.311083181
1.275482635
1.230866283
1.192414616
1.161326059
1.131401283
1.100150929
1.074428636
1.050517752
1.026058484
1.002369385
0.9840170048
0.9651392382
0.9438931207
0.921296981
0.9037991102
0.8878595159
0.869891469
0.8539452386
0.8402711928
0.8274246873
0.8128924499
0.7990411952
0.7874648563
0.7761265866
0.7637747538
0.7504751516
0.7419303668
0.7343536321
0.7254013924
0.7154886952
0.70758208
1.277824771
1.244105118
1.201634819
1.163493088
1.13266767
1.103152677
1.07266322
1.048156763
1.02569539
1.003333376
0.9801906741
0.9618523739
0.9431472121
0.9218304389
0.8991170986
0.8818257376
0.8664203001
0.8494405303
0.834333983
0.8216996337
0.8100112644
0.7970075687
0.7840901124
0.7730541545
0.7619775179
0.7495651273
0.7359617772
0.7272198447
0.7197216935
0.711308748
0.7019259729
0.69460384
1.211479758
1.170748793
1.13377135
1.103952518
1.07589753
1.046828035
1.023148483
1.001184421
0.9795703163
0.9568581074
0.9391549818
0.9211404597
0.9006244615
0.8790668721
0.8623937833
0.8474494312
0.8313245277
0.8167114647
0.8043402405
0.7927285637
0.7798190705
0.7667281494
0.7561867379
0.7458372192
0.7342718633
0.7215465793
0.7134674584
0.7061902802
0.6980086999
0.6890444649
0.6817136473
1.179572806
1.14060627
1.104321692
1.075233442
1.0484493
1.02087788
0.9978967583
0.9765706263
0.9557724645
0.9333086017
0.9158009425
0.8983156238
0.8787968891
0.8582412938
0.8421016794
0.8278961622
0.8129851926
0.7993602328
0.7879441849
0.7768759794
0.7641039869
0.750995433
0.7404715418
0.7300233351
0.7188214997
0.7065297373
0.6985564338
0.6916315191
0.6841510363
0.6757690826
0.668678023
1.147599918
1.110385362
1.075639897
1.04793224
1.022813673
0.9964324701
0.9735759876
0.9523824532
0.9318708654
0.9098341108
0.8931159048
0.8764902625
0.858068762
0.838554345
0.8227967088
0.8090864544
0.7945616372
0.7808541933
0.7693849996
0.7585808106
0.7465302807
0.7340980274
0.7247736954
0.7155764643
0.7054757527
0.6937174516
0.6856559509
0.678696497
0.6712925621
0.6627607186
0.6557037095
1.11606019
1.081271847
1.047716497
1.020703308
0.9963004394
0.9704465461
0.9478242692
0.9270169616
0.9072874514
0.8863370676
0.870346595
0.8544849453
0.83716115
0.8185347473
0.8036901237
0.7910309846
0.7775076148
0.7646161943
0.7535415738
0.7427311786
0.730682479
0.7183553922
0.7092749847
0.7002694653
0.6905884592
0.6792904649
0.6716055177
0.6649824156
0.6578621768
0.6497310756
0.6429881884
1.084904501
1.051877164
1.019501549
0.9935090297
0.9703542042
0.9457142751
0.9238562914
0.9039783516
0.8852250032
0.8652511074
0.8493824947
0.8336217219
0.8167923106
0.7987837918
0.7838583353
0.7709536315
0.7577244428
0.7454066148
0.7352989841
0.7255219944
0.7145998343
0.7033047702
0.6949274459
0.6862820416
0.6769985562
0.6661529955
0.6582739198
0.6514903274
0.6444973423
0.6365937836
0.6299791351
1.054456928
1.023692592
0.9922031384
0.9665956746
0.9438607272
0.9196402438
0.8982996637
0.8792542494
0.8614888521
0.8424451222
0.8270433849
0.8122339797
0.796748291
0.7797192533
0.7657143975
0.7535954707
0.7409891547
0.7290996993
0.7191498389
0.7095029359
0.6991432587
0.6880176095
0.6796689335
0.671448131
0.6627028917
0.6519058891
0.6441733496
0.6377826399
0.6311709834
0.6236887349
0.6176283015
1.024588946
0.9948425777
0.9639423163
0.9393851046
0.9178727043
0.895250134
0.8751286757
0.8569467133
0.8398360224
0.8214672537
0.8061113407
0.7914575019
0.7759541523
0.7590768599
0.7458499088
0.7348942379
0.7235389648
0.7125701609
0.7037358483
0.6949618135
0.6851236438
0.6740337652
0.6656733526
0.6574113505
0.648729062
0.6383593662
0.6312714679
0.6254079364
0.6194690607
0.6127158372
0.6068321841
0.9943472259
0.9661960744
0.9363698352
0.9124299568
0.8917034695
0.870161934
0.8507424194
0.8334152832
0.817242441
0.7998052505
0.7854790938
0.7720374526
0.7576383317
0.7421413738
0.7292619453
0.7180285945
0.7066812758
0.6960984208
0.6874102494
0.6786937263
0.6689710328
0.6579316788
0.6499566528
0.6422354307
0.6342880304
0.6248132048
0.6181116095
0.6123908162
0.606548998
0.59985763
0.5938850192
0.9658146313
0.9389807106
0.9099531941
0.8866979157
0.8666846883
0.8462779955
0.8275111951
0.8105967997
0.7947848311
0.777569722
0.7634033041
0.7505932785
0.73733209
0.7228522591
0.7106590528
0.7004533268
0.690442019
0.680845661
0.6726864469
0.6642042402
0.6547195738
0.6439689577
0.6362093863
0.6287427282
0.6211895317
0.6121401276
0.6056000651
0.6001610599
0.5946661444
0.5882693943
0.5824417746
0.9354968128
0.9097993818
0.8817857854
0.8595341451
0.8406931524
0.8215497745
0.8037297363
0.78841838
0.7742020825
0.7585369316
0.7454937793
0.7331515118
0.720011251
0.7057850347
0.6937726396
0.6837147758
0.6738170184
0.6640979683
0.656149971
0.6482118746
0.6393511677
0.6289805433
0.6215946753
0.6145010182
0.607355962
0.5987497523
0.5925321919
0.5874230647
0.582188919
0.5758352517
0.5700737926
0.9081244268
0.8840854384
0.857242287
0.8353092802
0.8167456021
0.7980524848
0.7807120108
0.7656470578
0.751605946
0.7367410046
0.724502388
0.7132278098
0.7012658433
0.6883097334
0.6770633047
0.6673597286
0.6577288969
0.6485598197
0.6411818081
0.6335276499
0.6249603565
0.6151149062
0.6081677348
0.6014040052
0.5946287649
0.5865641842
0.580411401
0.5753566304
0.5701961304
0.5640806789
0.5586656342
0.8785035825
0.8557099919
0.830097
0.809306163
0.7920032013
0.7749861004
0.7592669263
0.7456158803
0.7323445233
0.7182534066
0.7062256515
0.6951438667
0.6834878885
0.6707413153
0.6592956097
0.6496853355
0.6405537355
0.6318715357
0.6250545013
0.6180908719
0.6104124668
0.6013927513
0.5947493207
0.5882566914
0.5817507937
)
;

boundaryField
{
    inlet
    {
        type            fixedValue;
        value           nonuniform 0();
    }
    outlet
    {
        type            zeroGradient;
    }
    bottom
    {
        type            slip;
    }
    top
    {
        type            slip;
    }
    obstacle
    {
        type            zeroGradient;
    }
    defaultFaces
    {
        type            empty;
    }
    procBoundary4to3
    {
        type            processor;
        value           nonuniform List<scalar> 
62
(
1
1
1
1
1
1
1.000000003
1.000000032
1.000000428
1.000011907
1.000321377
1.004617583
1.035061334
1.173339729
1.547955586
2.075491637
2.462697712
2.616291554
2.652517162
2.660686361
2.652640966
2.629558063
2.609196694
2.587089131
2.558541693
2.520651637
2.483490723
2.446698518
2.41133204
2.374235787
2.336474614
2.298200136
2.258469917
2.219785599
2.180065274
2.142286449
2.104047064
2.064207725
2.02582923
1.988524026
1.949806549
1.908494391
1.868438797
1.831145477
1.793851983
1.75476074
1.714813119
1.676273628
1.639475316
1.601520788
1.564590133
1.52515386
1.489537941
1.453860879
1.418295758
1.382492106
1.345025829
1.310392548
1.244009429
1.244009429
1.211087767
1.178006978
)
;
    }
    procBoundary4to5
    {
        type            processor;
        value           nonuniform List<scalar> 
69
(
2.743535718
2.771102
2.742872016
2.734017661
2.735984796
2.749661261
2.726217724
2.720443442
2.715804833
2.713309913
2.708913026
2.707417284
2.701376027
2.699280151
2.679095444
2.665464136
2.658215567
2.646789193
2.633026405
2.624161969
2.61943025
2.604046933
2.598633289
2.597262848
2.565259038
2.56456536
2.5716076
2.537638759
2.407416755
2.209964721
1.869770739
1.458895146
1.174910818
1.065812658
1.026630915
1.00322666
0.9854288607
0.9712242804
0.9590231304
0.9450056679
0.9291710959
0.9119755641
0.8971562762
0.8824461459
0.8685333235
0.8534892076
0.8384614734
0.823792411
0.8091509375
0.7957395441
0.780563948
0.7676721615
0.7533329654
0.7393529515
0.7268841542
0.7126819779
0.6997598175
0.6875785855
0.6744155918
0.661591453
0.6490138846
0.6363396383
0.6235788179
0.6118588321
0.6010680845
0.5880413
0.5769248504
0.5646878737
0.5535214579
)
;
    }
    procBoundary4to9
    {
        type            processor;
        value           nonuniform List<scalar> 9(1.145064578 1.112717854 1.08074363 1.050039191 1.01872635 0.9891071498 0.958114254 0.9292507761 0.8989799806);
    }