/*--------------------------------*- C++ -*----------------------------------*\
  =========                 |
  \\      /  F ield         | OpenFOAM: The Open Source CFD Toolbox
   \\    /   O peration     | Website:  https://openfoam.org
    \\  /    A nd           | Version:  7
     \\/     M anipulation  |
\*---------------------------------------------------------------------------*/
FoamFile
{
    version     2.0;
    format      ascii;
    class       volScalarField;
    location    "1";
    object      T;
}
// * * * * * * * * * * * * * * * * * * * * * * * * * * * * * * * * * * * * * //

dimensions      [0 0 0 1 0 0 0];

internalField   nonuniform List<scalar> 
2222
(
0.8912828564
0.8904821946
0.8887679469
0.8853850636
0.9917273978
0.9850946447
0.9790901439
0.9731086463
0.9662212304
0.9615080487
0.9572680065
0.9526731842
0.9471126624
0.9427362655
0.9390946809
0.9351346543
0.930069859
0.9253494641
0.9222876434
0.9193242347
0.9159750191
0.9122577489
0.9100929432
0.9078370916
0.9051449505
0.9013313034
0.8984280217
0.8960108959
0.8936401516
0.8907061927
0.8878768624
0.8859034675
0.884930825
0.8837014469
0.8805980946
0.9829314882
0.9764941375
0.9708152575
0.9651830732
0.9586071671
0.9539836008
0.9499159525
0.9454848857
0.9401422638
0.9358168096
0.9322425238
0.9283313002
0.9234912251
0.9189890655
0.916227467
0.9134888356
0.910235613
0.9065227966
0.9042906152
0.9019445921
0.8992084935
0.8954407514
0.8927008253
0.89057468
0.8884573446
0.8857519131
0.8832169201
0.881642615
0.8800812816
0.8790648872
0.8764646086
0.9742374562
0.9678972922
0.9624444423
0.9570846178
0.9508669337
0.9464236111
0.9424864914
0.9381585088
0.9330219153
0.928813602
0.9253778858
0.9216367376
0.9169511384
0.9124044651
0.9096076195
0.9069221926
0.9038662679
0.9003198329
0.8983179171
0.8962311957
0.8938298312
0.8903876583
0.8875948967
0.8855171381
0.8834799195
0.8808106431
0.878172118
0.8768940141
0.8752510797
0.8739457377
0.8719808787
0.9657411624
0.959564328
0.9544095222
0.9493528582
0.9434857737
0.9391176439
0.9353166829
0.9311105554
0.9261510317
0.9219432093
0.9185666719
0.91491964
0.9104300969
0.9061658058
0.9036806787
0.9011836954
0.8982626855
0.894825817
0.8927118573
0.8905412231
0.8880659029
0.884560443
0.8817516112
0.8797120875
0.8777219367
0.8751495816
0.8723733762
0.87142204
0.8699963517
0.8685270892
0.8668822023
0.9570992903
0.9510570842
0.9461779786
0.9414283317
0.9358586252
0.9316455592
0.9280116406
0.9239591192
0.9192234454
0.9151575349
0.9118601143
0.9082881891
0.9039626444
0.89966172
0.8971561888
0.8947563294
0.8920379422
0.8887834152
0.8868370492
0.8847816711
0.8823844916
0.8790129957
0.8762918186
0.8744622666
0.8727846639
0.8705392955
0.8679635991
0.8670145676
0.8657552017
0.8640835624
0.8621500023
0.9487915049
0.9428990853
0.9383055847
0.9338083602
0.9285841919
0.9245122576
0.921046364
0.9171195332
0.9125620211
0.9084623746
0.9052659989
0.9018796188
0.8977585369
0.8937052807
0.8913909021
0.8890715615
0.8863786477
0.8830484245
0.8810408875
0.8790689642
0.8768541128
0.8736764039
0.8711064727
0.8693104635
0.867797015
0.8656555984
0.8630924003
0.862054503
0.8610200801
0.8591230473
0.855963455
0.9402593923
0.9345126756
0.9301849853
0.9259619394
0.9210478688
0.9170979935
0.9137679927
0.9099982881
0.9055730101
0.9016191248
0.8984830609
0.8951451024
0.8912354303
0.8872606075
0.8850125074
0.8828476383
0.8803357525
0.8773442297
0.8755378405
0.8736423075
0.8713349061
0.8680960883
0.8654138075
0.8637435172
0.8621175535
0.8601508265
0.8574849967
0.8568016934
0.8557133504
0.8535619504
0.8491433515
0.9321967092
0.926550049
0.9224813701
0.9184867409
0.913807145
0.9099184993
0.9067604446
0.9031369605
0.8990586591
0.8952243974
0.8922446575
0.8891062977
0.8852994723
0.8814169355
0.8792751149
0.8771098262
0.8746984513
0.8717009066
0.8698016543
0.8679489253
0.8657908152
0.8625251164
0.8599630669
0.8583992839
0.8571201985
0.8551748832
0.8531807719
0.8519698037
0.8507701078
0.8485763037
0.8468224222
0.9238348457
0.9183689688
0.9145569136
0.910783589
0.906461098
0.9027905536
0.8997403805
0.8962628396
0.8921288564
0.8881836942
0.8852184812
0.8821871786
0.8787268554
0.8751772841
0.8732273026
0.8712943348
0.8689769051
0.8660555126
0.8642417426
0.8624634619
0.8603604568
0.8572381058
0.8547666697
0.8534354766
0.8521898236
0.850568417
0.8479204189
0.8464985953
0.8459139182
0.8455227177
0.8529553544
0.9161056576
0.9107662404
0.9072089029
0.9036394391
0.8994843522
0.8957199237
0.892705685
0.8892615023
0.8854579365
0.8819411882
0.8792828939
0.8764710894
0.8730610978
0.8694060572
0.8673909908
0.8653584658
0.8630717569
0.860302799
0.8586302683
0.857014339
0.8550185648
0.8520684614
0.8495568119
0.8482992744
0.8466969987
0.8442632313
0.8412141596
0.8417416557
0.8440279756
0.8573391211
0.9233790418
0.9077921263
0.9026145883
0.8993849813
0.8961046272
0.8922992086
0.8888579257
0.8859965489
0.8826889349
0.8789915368
0.8752923087
0.872496021
0.8697400733
0.8665353648
0.8632323717
0.861625668
0.8598254331
0.8577388027
0.8550541123
0.8532825561
0.851642187
0.8497793829
0.8467569002
0.8444699615
0.842515897
0.840897904
0.8380622483
0.8382470031
0.8419397776
0.8766134516
0.9477544304
1.015749787
0.9002934604
0.8953242083
0.8923390428
0.8892445688
0.8857014688
0.882158886
0.8792703192
0.8760404351
0.8724016671
0.8688254331
0.8663545578
0.8638772924
0.8609952667
0.8579863096
0.8561277987
0.854242456
0.8519554885
0.8491507389
0.8474274381
0.8460223855
0.8441872942
0.8416039462
0.8385279887
0.8369720435
0.8356660925
0.8360126977
0.8470314378
0.8951669725
0.9832661824
1.05597049
1.071514692
0.8921983285
0.8873748293
0.8847482489
0.8819917143
0.8785770466
0.8751848241
0.8724721311
0.8693445134
0.8659313281
0.8624724468
0.8600339816
0.8578654163
0.8552511366
0.8522078951
0.8505770054
0.8486147045
0.8463061194
0.8435755753
0.8419650851
0.8406961934
0.8389254387
0.8354686347
0.8325975012
0.8330937402
0.8354278963
0.8590336824
0.9319565034
1.01886752
1.045073855
1.073601862
1.078843709
0.8847699523
0.8800230405
0.8775242087
0.8748679195
0.8718894675
0.8688071976
0.8662918462
0.8632858598
0.8596610697
0.8557380263
0.8533327088
0.8512538839
0.8487563011
0.8462202584
0.8447812665
0.8430653816
0.840966122
0.838154554
0.8365958928
0.8350912667
0.8329681365
0.8291441669
0.8295699146
0.8403101739
0.8837508437
0.9666779599
1.037652317
1.081145226
1.080814233
1.0822151
1.081899747
0.8771917263
0.872709383
0.8704732925
0.8681186048
0.8651522481
0.8618549637
0.859390652
0.8566418865
0.8530825472
0.8490458455
0.8470857018
0.8455785234
0.8437142412
0.8416187284
0.8400856057
0.8382775928
0.8357734816
0.8326224003
0.8302818479
0.8287053271
0.8276306842
0.82928704
0.847734498
0.9296236253
1.008763121
1.064335036
1.073411378
1.084980062
1.087677264
1.08669756
1.084649596
0.8699446177
0.8654569486
0.8631071247
0.8607718409
0.8579930518
0.8550600779
0.853114518
0.8506982736
0.8469684211
0.8426388775
0.8407252616
0.8393390966
0.8375486035
0.8353424458
0.8341335766
0.832443431
0.8298516806
0.8257533463
0.8244140079
0.8248070349
0.8286102855
0.8732177582
0.9613345502
1.026630895
1.061513666
1.07763754
1.077005329
1.08059823
1.085562118
1.087463235
1.086921912
0.8624453534
0.8581185224
0.8557810316
0.8535147231
0.8511329564
0.8485847285
0.8467931533
0.84437871
0.8404506116
0.8358244985
0.8336522719
0.8323926335
0.83083926
0.8291890465
0.8284317733
0.8271056553
0.823939981
0.8208651906
0.8219695957
0.8373053191
0.8970111307
0.9953846548
1.072616026
1.078557297
1.082094402
1.082131137
1.080067424
1.080837418
1.083885502
1.087325511
1.088363162
0.8557695633
0.8517553518
0.8491304548
0.8468873662
0.8444348304
0.8417151496
0.8401551461
0.8380081849
0.8346225336
0.8307009204
0.8284275162
0.8270622718
0.8257450245
0.8239629748
0.8228052353
0.8212133337
0.8192298529
0.8218373736
0.8591824052
0.9405104074
1.027634811
1.054908914
1.085471746
1.087673586
1.088955274
1.088321598
1.086831345
1.085535358
1.085941863
1.087723885
1.089421154
0.8482794898
0.8436576629
0.840585804
0.8382333252
0.8360480913
0.8340093679
0.8330586276
0.8314571372
0.8285860358
0.8250133185
0.8224662739
0.8206901923
0.8187834135
0.8167712424
0.8163879647
0.8172424791
0.8303007155
0.8886910101
0.9913146419
1.057362519
1.087748486
1.084789247
1.087812354
1.089807612
1.090995882
1.091194879
1.091502766
1.091285232
1.090352418
1.090163754
1.090900257
0.8402753826
0.836783391
0.8346138106
0.8324559693
0.8303672843
0.8283897414
0.8271095484
0.8253254544
0.8224458208
0.8190813447
0.8159263183
0.8138270824
0.8112702002
0.8117108814
0.8151890778
0.8484679055
0.9356576687
1.029244494
1.05921121
1.077907134
1.095914378
1.094459763
1.092065605
1.09213709
1.09265619
1.093363197
1.094663039
1.094559136
1.093732068
1.092582655
1.092616336
0.8333988631
0.8303505493
0.8275794285
0.8247413816
0.8219342383
0.8192888199
0.8182094274
0.8170362128
0.8153154202
0.812819159
0.8103679301
0.8079896357
0.8082959283
0.8214587149
0.8791744876
0.9860549672
1.059541816
1.09385556
1.093477449
1.090221314
1.09321771
1.095849957
1.095342334
1.094867191
1.094687704
1.094800713
1.095457313
1.096181895
1.095865653
1.095057268
1.094584607
0.8246980703
0.821766208
0.8200395094
0.8178922063
0.8152175743
0.8126355927
0.811925385
0.8109867226
0.8093786115
0.8061832926
0.8051976933
0.8082409957
0.8372909447
0.9390200968
1.031313691
1.081498463
1.088085017
1.101029723
1.102702907
1.100137186
1.096941574
1.097732044
1.098555276
1.098339385
1.097918877
1.097641439
1.097276516
1.096829151
1.096914996
1.096849607
1.09676756
0.816472411
0.814276435
0.813277411
0.8116875813
0.8086734013
0.8058725489
0.8042933889
0.8031516862
0.8005361222
0.8006242711
0.8104026138
0.8820366635
0.9866218956
1.044701219
1.081687847
1.093027654
1.093017284
1.096866376
1.102668385
1.102694628
1.101655055
1.101018362
1.101166242
1.101410995
1.101262394
1.101185775
1.100786878
1.100038924
1.099149065
1.099141134
1.09914792
0.8080193674
0.8066311192
0.8058249479
0.8042989508
0.8015256145
0.797957429
0.7959674903
0.7964759579
0.7997815934
0.8274446284
0.9210947737
1.035251276
1.098776954
1.097550376
1.099098804
1.100288526
1.099375957
1.100121024
1.102752011
1.105116619
1.105229563
1.104596655
1.103848655
1.103829511
1.104039444
1.104471638
1.104373529
1.103934773
1.103076503
1.102199834
1.101916865
0.8004023885
0.7996193312
0.7993882692
0.797986909
0.7947126555
0.7907186388
0.7911111944
0.8011302508
0.8800644069
0.9745919295
1.057685163
1.082641975
1.110153896
1.109300574
1.107231875
1.107528013
1.10763522
1.106018457
1.105640785
1.106527192
1.107391118
1.10746292
1.107062013
1.106828677
1.106996975
1.107433523
1.107851265
1.107703893
1.107191505
1.10627028
1.105426669
0.7927941849
0.7912928663
0.7908479804
0.7898840214
0.7878918472
0.7889609086
0.8283904887
0.9299670489
1.026787968
1.083883194
1.107970871
1.104065446
1.108814185
1.110873829
1.110563747
1.110922114
1.111618286
1.111592562
1.109798894
1.109493983
1.109907185
1.110875181
1.110888818
1.110687978
1.110488911
1.11065601
1.111288792
1.111527773
1.111331381
1.110706409
1.109781007
0.7816193119
0.7816652612
0.7826598341
0.78335047
0.794266112
0.8640865215
0.988403002
1.086210975
1.094309229
1.106753165
1.117030496
1.116352691
1.114944223
1.115044746
1.115155054
1.115735048
1.116591081
1.116257501
1.11483454
1.114430199
1.114494279
1.11495566
1.115373598
1.115234839
1.115131019
1.115030161
1.115215866
1.115495455
1.115395544
1.115081171
1.114618947
0.7778043231
0.7769953837
0.7784776358
0.8184560663
0.929843003
1.045011892
1.085448926
1.112743141
1.116055343
1.118278558
1.122176264
1.122244412
1.12135293
1.120955146
1.120843617
1.120653861
1.120841872
1.121071925
1.120824338
1.120615942
1.120570976
1.120542683
1.120760412
1.12091768
1.120909232
1.120811671
1.120559704
1.120388018
1.120223017
1.12010044
1.119966332
0.7715820768
0.7779194696
0.8548023443
0.9987303466
1.084613848
1.115901384
1.118009741
1.124428256
1.12808167
1.126258348
1.127233189
1.128823677
1.129065806
1.128767712
1.128343248
1.127453868
1.126071177
1.126021669
1.126133971
1.126569425
1.126953794
1.127033325
1.127060119
1.127182113
1.127159995
1.127071983
1.126850901
1.126508489
1.126311464
1.126151091
1.126150915
0.7836122376
0.9257923237
1.071918437
1.102901009
1.123375317
1.13498664
1.132379373
1.130676924
1.131818032
1.132099774
1.132972172
1.134607078
1.135663277
1.135495314
1.135028914
1.134052786
1.13269105
1.13205594
1.132158538
1.132667368
1.133399987
1.133626588
1.133635788
1.133622803
1.13346961
1.133274039
1.133097676
1.132874174
1.132732012
1.132633949
1.13268605
0.7678961377
0.8885237294
1.075714035
1.143798685
1.136589988
1.135547562
1.141599244
1.136715023
1.133351497
1.134163168
1.135252077
1.136156782
1.137975936
1.138833801
1.13871599
1.138182301
1.137016302
1.135917202
1.135094765
1.135158991
1.13567928
1.136421504
1.136753745
1.136749429
1.136727795
1.136617607
1.136530493
1.136382209
1.13612049
1.135862471
1.13579548
1.136121191
0.7766570459
0.9820935331
1.100185589
1.139829947
1.133620021
1.133196192
1.140469007
1.135720514
1.132941627
1.133957911
1.135315277
1.136293117
1.137856444
1.138751478
1.138679849
1.138120382
1.136907874
1.135957969
1.135274301
1.135350372
1.13589482
1.136636223
1.136963473
1.136960186
1.136901232
1.136785045
1.136777259
1.136732545
1.136504341
1.136157316
1.136035153
1.13622867
0.8107079762
1.040464844
1.109840353
1.134040662
1.129289519
1.129304918
1.137562425
1.133332516
1.131516805
1.132779333
1.13439885
1.135498557
1.137204
1.138112645
1.138184442
1.137752019
1.136723386
1.135874648
1.135205392
1.135263353
1.135832831
1.136687772
1.136989241
1.136960152
1.136886146
1.136761841
1.136742012
1.136751249
1.136619359
1.136295387
1.136201079
1.136269919
0.8840329701
1.084961916
1.114959169
1.129168819
1.124920393
1.124936295
1.133280832
1.129257722
1.129112595
1.131021603
1.133161742
1.13406447
1.135521442
1.136548282
1.136926934
1.136757588
1.136074698
1.135324773
1.134806801
1.134876714
1.135515339
1.136421357
1.136807371
1.136831827
1.136728901
1.136538914
1.136516583
1.136567494
1.136512428
1.136320908
1.136239351
1.136292874
0.9746741767
1.114477994
1.11585091
1.128439924
1.122053443
1.121371325
1.12936918
1.12547279
1.125692749
1.127827094
1.130800742
1.132016523
1.133499584
1.134102869
1.134600067
1.13484597
1.134651233
1.134225334
1.134008902
1.134046259
1.13467267
1.135627171
1.136198554
1.136355425
1.136269083
1.13607038
1.136046674
1.13610604
1.136222373
1.136224666
1.136117466
1.136130793
1.029166425
1.119367014
1.116581439
1.128118846
1.121257396
1.119404836
1.126230114
1.122441014
1.122813105
1.124796999
1.127684332
1.129100221
1.1305139
1.131196112
1.131824366
1.13219675
1.132215274
1.132136311
1.132314535
1.132577059
1.13326166
1.134083553
1.134871671
1.135132838
1.135066835
1.135106265
1.135242843
1.135377685
1.135501689
1.135718382
1.135764296
1.135722103
1.070403544
1.112910323
1.115503132
1.126953461
1.120379476
1.118796416
1.125060802
1.120559583
1.120691988
1.122519872
1.125449724
1.126807626
1.127909208
1.128379731
1.128839557
1.129241529
1.129482088
1.129688301
1.130009649
1.130420243
1.131263296
1.132193966
1.132971548
1.133189643
1.133124697
1.133373852
1.133675367
1.134057117
1.134450062
1.134738724
1.134911635
1.134909158
1.108861647
1.108525358
1.113994595
1.125413217
1.119116611
1.118424941
1.124158802
1.119837195
1.119731286
1.121392964
1.123729423
1.12468208
1.125533772
1.125958068
1.126436403
1.126795923
1.12699269
1.127307126
1.127762713
1.128180703
1.129022264
1.130014352
1.130919929
1.131060833
1.130943394
1.131175236
1.131531269
1.13208214
1.132741683
1.13330681
1.133585752
1.133652919
1.115471488
1.112641389
1.113505292
1.123706598
1.117939113
1.117462002
1.122838641
1.1190986
1.11905953
1.120564638
1.122324604
1.123240396
1.12389823
1.124090944
1.124426397
1.124936527
1.125110286
1.125311311
1.125666578
1.126056583
1.126866694
1.12777015
1.128656862
1.128759543
1.128721801
1.128881842
1.129268177
1.12989917
1.130611196
1.131383068
1.131824911
1.132041271
1.084548337
1.115240115
1.118747866
1.113547717
1.12272917
1.11720013
1.116674977
1.121473773
1.118265699
1.118329531
1.119908384
1.121609661
1.122868356
1.123324503
1.123276882
1.123245698
1.12343597
1.123570753
1.123699146
1.12393316
1.124275557
1.124985251
1.12577767
1.126538546
1.126573608
1.126561535
1.126722122
1.12711142
1.127787727
1.128458221
1.129236188
1.129766846
1.130107809
1.102264316
1.110518362
1.118829932
1.113010168
1.122291987
1.116911292
1.11642812
1.120689464
1.117630215
1.117762054
1.119535506
1.121437623
1.122592016
1.122646059
1.122660654
1.122648226
1.122678986
1.122634061
1.122693738
1.122837093
1.123106397
1.123695287
1.124454998
1.125076086
1.125052475
1.124904371
1.125043994
1.125326049
1.125906177
1.126497
1.127186161
1.127730761
1.128049111
1.099219883
1.111421138
1.117991984
1.112431709
1.122063485
1.116830485
1.116574017
1.120105152
1.117234917
1.117412865
1.119387722
1.121277194
1.121842657
1.121818425
1.121867413
1.121913368
1.122217635
1.122264552
1.122337809
1.122309171
1.122487483
1.122932989
1.123542112
1.123856795
1.12373986
1.123599367
1.123756162
1.124040779
1.124491256
1.124945574
1.125495533
1.126037498
1.126322633
1.105312668
1.116666064
1.115028278
1.11134853
1.121519815
1.116247373
1.116914005
1.11958784
1.117282009
1.117423264
1.119205185
1.120714793
1.121115801
1.121057153
1.121146303
1.121233766
1.121601637
1.121651684
1.121806554
1.121656069
1.121880394
1.122211576
1.122680687
1.122864759
1.122721695
1.122526149
1.122670623
1.123139526
1.123598224
1.123856088
1.124173184
1.12457635
1.12482432
1.116180534
1.1195348
1.112408685
1.110847175
1.120892036
1.115628286
1.116562288
1.118941231
1.117169384
1.117251853
1.118703404
1.120026768
1.120338008
1.120350419
1.120413304
1.120574611
1.121045093
1.121046785
1.121163584
1.121013556
1.121239249
1.121516485
1.122002022
1.122298825
1.122222898
1.121970227
1.122070329
1.122448502
1.122940545
1.123141405
1.123248629
1.123472944
1.123727614
1.119660698
1.119531824
1.112569978
1.110862962
1.120128188
1.114957207
1.116041368
1.118272876
1.116613891
1.116658778
1.118084798
1.119446563
1.11978062
1.119862748
1.119913931
1.120102847
1.120594999
1.120653346
1.120726877
1.120576796
1.120757752
1.120983998
1.121546387
1.121905441
1.121804268
1.121557603
1.121564611
1.121745049
1.122333715
1.12276457
1.122870689
1.122838866
1.122970138
1.119067755
1.117306267
1.11365545
1.111400447
1.119796941
1.114540238
1.115621915
1.117546185
1.116069012
1.116121591
1.117648255
1.11906005
1.119379142
1.119491068
1.119501287
1.119663624
1.120091905
1.12028638
1.120522811
1.120393572
1.120484992
1.120634168
1.121218346
1.121317582
1.121185697
1.120932584
1.12089825
1.121119352
1.121838914
1.122511906
1.122673462
1.122423512
1.122189972
1.117440643
1.113470222
1.116031942
1.111832222
1.119608879
1.114392201
1.115440851
1.117060546
1.115782311
1.115812831
1.117644565
1.119055919
1.119069381
1.119083328
1.119074482
1.119252548
1.119714927
1.120061532
1.120476834
1.120354428
1.12029887
1.120321662
1.120690924
1.120696573
1.120563409
1.120322551
1.120254942
1.12062331
1.121377179
1.122085047
1.122314148
1.122162868
1.114758358
1.1127405
1.112920293
1.116028604
1.1114864
1.11949062
1.114558313
1.115579701
1.116894394
1.115688322
1.115799106
1.117923096
1.118919352
1.118656694
1.11862864
1.118571012
1.118776012
1.119365209
1.119807358
1.120169335
1.120023781
1.119927132
1.119837933
1.12012093
1.120053075
1.119902188
1.119707986
1.119780046
1.120206623
1.120847716
1.121523983
1.121789159
1.121723529
1.110563312
1.111674204
1.113685939
1.115268681
1.110905815
1.119187958
1.114756681
1.115964262
1.116948594
1.115877287
1.116076484
1.117978463
1.118584313
1.118301234
1.11815759
1.118041868
1.118262336
1.118962317
1.119383137
1.119760446
1.119624253
1.119523999
1.119382449
1.11952272
1.119453323
1.119344078
1.119211981
1.119354063
1.1197924
1.120314969
1.120813037
1.121154362
1.12121477
1.110625387
1.11287508
1.11630184
1.113811545
1.110109112
1.118804369
1.114610927
1.115957806
1.116921844
1.115918914
1.11610324
1.117699481
1.118195997
1.117923239
1.117855084
1.117762792
1.117978655
1.118610846
1.119034573
1.119350575
1.119193019
1.11907682
1.118926752
1.118998717
1.119018896
1.118925124
1.118830544
1.119005577
1.119351583
1.119808099
1.120201719
1.120659063
1.120878066
1.115180171
1.116180217
1.116718588
1.11248673
1.109796687
1.118371897
1.114293123
1.115713724
1.116666829
1.115674159
1.115835439
1.117303495
1.117845774
1.117576718
1.117490637
1.117511372
1.117771147
1.118481236
1.118919683
1.119093343
1.118916415
1.118741027
1.118589632
1.118660535
1.118764976
1.118662406
1.118542255
1.1186045
1.118910096
1.119410026
1.119786431
1.120122923
1.120390346
1.117908489
1.116615062
1.116264348
1.112301037
1.109815319
1.1179895
1.113984098
1.115412778
1.11637792
1.11538917
1.115561028
1.117062942
1.117618734
1.117368647
1.117251194
1.117301167
1.117549142
1.118261447
1.118896144
1.119025041
1.118808517
1.118487492
1.118353343
1.11843896
1.118532549
1.118406848
1.118199823
1.118184967
1.11850768
1.119070599
1.119450383
1.119683589
1.119836508
1.118175934
1.116174419
1.114308829
1.113043441
1.110171137
1.117742171
1.113772975
1.115166683
1.11616465
1.115224728
1.115416397
1.117022714
1.117599603
1.117310356
1.117060877
1.117102134
1.117358191
1.118034379
1.11887465
1.119099768
1.118914905
1.118464017
1.118081201
1.118215108
1.118194458
1.118109327
1.117954751
1.117902962
1.118213678
1.118746388
1.119107118
1.119248231
1.119310503
1.116019672
1.114028578
1.113548485
1.114020029
1.11010526
1.11766461
1.11382308
1.115119632
1.116042257
1.115213173
1.115517564
1.117216893
1.117534476
1.117136352
1.116708942
1.116730967
1.1170256
1.117827574
1.118794947
1.119066166
1.118895529
1.118382444
1.11778647
1.117844395
1.117810613
1.11774907
1.117741147
1.117813453
1.118184416
1.118505428
1.118732462
1.118775454
1.11883715
1.113901174
1.113410108
1.113801693
1.11394981
1.10980109
1.117571125
1.114110561
1.115363758
1.116079133
1.115352984
1.115768441
1.117336603
1.117391155
1.116936922
1.116400578
1.116334843
1.116605028
1.117486682
1.118451001
1.118767421
1.118608777
1.118207808
1.117559783
1.11745958
1.11746194
1.117408677
1.117462876
1.117721179
1.11823293
1.118508429
1.118565515
1.118627948
1.118576066
1.112144149
1.11393553
1.113912767
1.115068445
1.113682901
1.10938691
1.117295603
1.114193238
1.115325516
1.116112769
1.115433006
1.115813595
1.117199021
1.117232037
1.116805593
1.116235023
1.116084919
1.116320638
1.117119155
1.118015292
1.118386239
1.118237237
1.117903604
1.117452556
1.117180074
1.117192406
1.117174005
1.117283227
1.117633284
1.118119233
1.118545787
1.118671668
1.11870416
1.118657687
1.113576381
1.114839911
1.114983284
1.115417132
1.113082444
1.109149271
1.116986045
1.113943708
1.114973929
1.115815969
1.115149661
1.115529219
1.116934081
1.11705083
1.11667499
1.116142448
1.115999175
1.116232802
1.116899965
1.117680604
1.118049651
1.117897504
1.11754344
1.117266159
1.117003738
1.117045116
1.11702288
1.117112843
1.117415803
1.11788497
1.118360372
1.118570913
1.118684875
1.11868531
1.115939744
1.115193451
1.114820083
1.115184371
1.112443946
1.109159235
1.116780658
1.113724042
1.114678063
1.115462424
1.114839137
1.115247248
1.116723147
1.116923389
1.116629568
1.116152875
1.116020591
1.116224079
1.116810142
1.117510278
1.117851711
1.11762952
1.117266191
1.117063918
1.11693407
1.116953746
1.116854296
1.116856597
1.117090559
1.117565161
1.118181425
1.11843097
1.118582959
1.118635972
1.115909148
1.114712646
1.114200318
1.114343477
1.11232701
1.10942683
1.1166894
1.113647485
1.114549085
1.1152828
1.114694927
1.115145344
1.116647036
1.116833793
1.116576457
1.116254017
1.116108939
1.116257631
1.116742905
1.11744499
1.117785569
1.117535536
1.117098208
1.116783986
1.116788967
1.116814542
1.116761998
1.116732065
1.116806336
1.117295442
1.117966598
1.118266599
1.118376128
1.118439975
1.114865626
1.113264189
1.112730703
1.113281565
1.112564819
1.109546414
1.116671227
1.113768305
1.114594168
1.115250907
1.11471763
1.115222448
1.116583773
1.116584392
1.116288767
1.116108637
1.115967441
1.116084686
1.116625997
1.117355322
1.117723389
1.117508297
1.116936982
1.11654169
1.116561343
1.116606978
1.116650974
1.116727456
1.116706633
1.117117369
1.117705454
1.118026697
1.118091895
1.118118534
1.112820607
1.11143906
1.111654831
1.113142815
1.112838099
1.109487445
1.116598595
1.114159049
1.114895471
1.11536891
1.114893065
1.115391308
1.116442813
1.116372872
1.116024472
1.115828876
1.115698788
1.115828165
1.116434448
1.117163643
1.117532142
1.117344728
1.116835982
1.11632361
1.116336688
1.116397253
1.116507005
1.116766149
1.116760986
1.117062298
1.117440172
1.117750641
1.117876742
1.117900484
1.112041179
1.110952348
1.111518198
1.113279031
1.112744597
1.109394246
1.116562303
1.114355923
1.114987748
1.115342963
1.114910885
1.115384532
1.116370055
1.116317678
1.115888221
1.115625431
1.115490543
1.115604437
1.11614681
1.116924768
1.117317139
1.117147318
1.116727104
1.116253899
1.116163834
1.116242294
1.116444522
1.116806303
1.116934286
1.117029888
1.117229958
1.117499064
1.117715787
1.117900822
1.111972814
1.111065272
1.111714233
1.113485204
1.112552872
1.10923822
1.11654421
1.114364133
1.114949229
1.115299631
1.11484457
1.115291051
1.116263154
1.116252334
1.1158833
1.115625583
1.115475396
1.115492363
1.115900797
1.116528819
1.116918578
1.116807372
1.116604377
1.116255537
1.116089746
1.116213137
1.116416255
1.116802733
1.117097651
1.117029938
1.117096028
1.117300578
1.117588669
1.114146868
1.11311274
1.111843814
1.111810578
1.113438268
1.112262806
1.109258166
1.116562968
1.114391337
1.114946836
1.115221721
1.114721638
1.115138032
1.116155999
1.116160241
1.115831843
1.115649969
1.115545171
1.115554456
1.115783959
1.116326823
1.11655965
1.116408219
1.116305321
1.116217462
1.116143189
1.116278281
1.116424168
1.116765376
1.117158795
1.117073923
1.117055012
1.117189544
1.117624484
1.114934595
1.113697501
1.112143492
1.111685579
1.113163928
1.112162767
1.109443192
1.116644195
1.114490595
1.115033755
1.115220416
1.114664739
1.115024068
1.115973786
1.116006475
1.115780389
1.115642822
1.115563265
1.115593315
1.115848963
1.116241842
1.116423414
1.116238878
1.11596723
1.116046827
1.116142165
1.116299488
1.116492735
1.116787214
1.117200629
1.117179504
1.117128531
1.117230991
1.117466963
1.114764981
1.113629282
1.112047056
1.111345178
1.112837355
1.112291172
1.109826787
1.116758272
1.114762471
1.115252174
1.115290169
1.114677561
1.115011749
1.115694078
1.115632128
1.115512951
1.115555931
1.115560808
1.115612181
1.115848396
1.116390558
1.116517019
1.116225354
1.115851808
1.115815733
1.116018205
1.116250228
1.116550518
1.116888061
1.117325011
1.117410024
1.117320358
1.117246442
1.11734374
1.113898863
1.113082185
1.111795994
1.111430118
1.113017027
1.112701019
1.110000419
1.116845027
1.115019497
1.115471765
1.115422261
1.114810208
1.115088208
1.115624571
1.115504995
1.115328528
1.115344827
1.115352262
1.115514677
1.115807455
1.116430121
1.116546953
1.116348096
1.115856884
1.115705312
1.115838586
1.116232167
1.116640788
1.117041577
1.117494842
1.117581168
1.117492933
1.117342005
1.117371361
1.113589859
1.112965312
1.112246395
1.111935972
1.113388476
1.113143214
1.109994624
1.116806737
1.11511905
1.115590621
1.115539879
1.114939087
1.115227972
1.115683298
1.115546045
1.11531993
1.115308985
1.115247429
1.115240052
1.115514367
1.11619286
1.116553544
1.116394271
1.116052356
1.115751265
1.11584368
1.116171655
1.116629595
1.11710161
1.117568026
1.117653256
1.117543928
1.117451924
1.117526588
1.113730707
1.113348255
1.112900863
1.112683815
1.114124709
1.113292331
1.109899576
1.116682068
1.115141645
1.115654967
1.11561252
1.115058531
1.115333438
1.115693463
1.115535507
1.115345375
1.115372914
1.115252362
1.115160087
1.115229955
1.115619156
1.116318591
1.116405896
1.116192771
1.115968737
1.115967949
1.116213416
1.116580371
1.116975618
1.117395194
1.117599616
1.117579054
)
;

boundaryField
{
    inlet
    {
        type            fixedValue;
        value           nonuniform 0();
    }
    outlet
    {
        type            inletOutlet;
        inletValue      nonuniform 0();
        value           nonuniform 0();
    }
    bottom
    {
        type            slip;
    }
    top
    {
        type            slip;
    }
    obstacle
    {
        type            zeroGradient;
    }
    defaultFaces
    {
        type            empty;
    }
    procBoundary10to4
    {
        type            processor;
        value           nonuniform List<scalar> 
32
(
0.8961474543
0.8953008435
0.8931020587
0.8898728816
1.000452298
0.9937448483
0.9875531697
0.9813016556
0.9740456106
0.9691985326
0.9648349748
0.9601044124
0.9543153229
0.9498424847
0.9460716441
0.941934764
0.9367320642
0.9319732392
0.9288611308
0.9258240171
0.9221556256
0.9182060716
0.9160101559
0.9136228393
0.9107730491
0.9069635787
0.9041036162
0.9016182554
0.8993029453
0.8965646229
0.8931099345
0.8931099345
)
;
    }
    procBoundary10to5
    {
        type            processor;
        value           uniform 0.8828625049;
    }
    procBoundary10to9
    {
        type            processor;
        value           nonuniform List<scalar> 
55
(
1.000346747
0.9912870276
0.9823651983
0.9736174747
0.9647010397
0.9561453575
0.9473338561
0.939001987
0.9303629494
0.9222830229
0.9137140168
0.9058222507
0.8974391891
0.8897698102
0.8817643919
0.8743943583
0.8663839205
0.8592352248
0.8516334292
0.8431628856
0.8353460765
0.8266637271
0.8179912955
0.8090528531
0.8010033067
0.7939046025
0.7820132991
0.7782262717
0.772556066
0.7675922881
0.7675922881
0.7658908006
0.765938999
0.7662804547
0.7678434959
0.774401407
0.8070294127
0.880292916
0.9484176508
1.023877126
1.023877126
0.8681129564
0.9565725767
1.035214937
1.061962891
1.08330325
1.110598489
1.118775729
1.119109832
1.119109832
1.107946283
1.104127682
1.10706319
1.114163562
1.118164584
)
;
    }
    procBoundary10to11
    {
        type            processor;
        value           nonuniform List<scalar> 
70
(
0.8772716324
0.8721696957
0.8681365267
0.8638027723
0.8591960903
0.8536752933
0.8489142456
0.8485927592
0.889337362
1.004537852
1.059712827
1.078766514