/*--------------------------------*- C++ -*----------------------------------*\
  =========                 |
  \\      /  F ield         | OpenFOAM: The Open Source CFD Toolbox
   \\    /   O peration     | Website:  https://openfoam.org
    \\  /    A nd           | Version:  7
     \\/     M anipulation  |
\*---------------------------------------------------------------------------*/
FoamFile
{
    version     2.0;
    format      ascii;
    class       volScalarField;
    location    "5";
    object      T;
}
// * * * * * * * * * * * * * * * * * * * * * * * * * * * * * * * * * * * * * //

dimensions      [0 0 0 1 0 0 0];

internalField   nonuniform List<scalar> 
2222
(
1.303593667
1.280941044
1.26153421
1.245522495
1.227949357
1.208387902
1.192386372
1.178368561
1.162715088
1.148643385
1.136987932
1.125380798
1.111766203
1.101293554
1.09243045
1.082850573
1.070934713
1
1
1.000000014
1.000003961
1.000414137
1.016130507
1.126910385
1.27756783
1.37281608
1.390190933
1.389999373
1.38874691
1.389493606
1.389765448
1.385191746
1.374531268
1.361236227
1.34679042
1.329121043
1.310436643
1.291400835
1.268993308
1.249131799
1.233059571
1.215848022
1.196527651
1.180649715
1.166838709
1.151477521
1.137640275
1.126312257
1.115182227
1.102103728
1.091459539
1.082659585
1.073231347
1.061707039
1
1.000000001
1.000000403
1.000067988
1.003868681
1.080337906
1.238229471
1.34270833
1.383256308
1.38937614
1.390642806
1.390238405
1.388928595
1.388432397
1.383384783
1.370562657
1.35424221
1.337020918
1.317207681
1.297700176
1.278639319
1.256581416
1.236730818
1.220751484
1.204093694
1.185121162
1.169299142
1.155650975
1.140868407
1.127146247
1.115976882
1.105071341
1.092316647
1.081822676
1.073218931
1.064104781
1.052870376
1
1.000000024
1.000008216
1.000748257
1.024151343
1.199784016
1.319009196
1.370898359
1.387183569
1.390818153
1.391820964
1.391094745
1.387823982
1.385473426
1.378734439
1.363718844
1.344936532
1.325910843
1.304792857
1.28465759
1.265695972
1.244239709
1.22431398
1.208500839
1.192293262
1.173629594
1.157947858
1.144526597
1.130061214
1.1165956
1.10574786
1.095205932
1.082899842
1.072203669
1.063636912
1.054626896
1.043735625
1
1.000000686
1.000127918
1.005787972
1.097816159
1.298731302
1.366134323
1.385989522
1.388257739
1.389774731
1.389819046
1.388566666
1.38527178
1.380927272
1.371504882
1.354236801
1.33421346
1.314522114
1.292501591
1.271901876
1.253036041
1.231954736
1.212197092
1.196527314
1.180684246
1.162294438
1.146737801
1.133523834
1.119705283
1.106341649
1.09553314
1.085085483
1.07293349
1.062433245
1.05423229
1.045702606
1.035330229
1
1.000014639
1.00146636
1.032690677
1.227714927
1.354115488
1.383200798
1.387798587
1.388538538
1.388606297
1.387851383
1.385540643
1.381289232
1.374851208
1.36283044
1.343843913
1.322914832
1.302609607
1.279963181
1.259071094
1.240346476
1.219848379
1.200078309
1.184523702
1.169026685
1.1510785
1.135719281
1.12269482
1.109036668
1.095793454
1.085321209
1.075253674
1.063681464
1.05308547
1.044868118
1.036374275
1.026118953
1.000000014
1.000227677
1.0119597
1.116385246
1.330421222
1.382075894
1.391098621
1.390708004
1.388979613
1.38610501
1.384082084
1.381751239
1.377540231
1.367586478
1.353387066
1.333169208
1.311514079
1.290843386
1.267572761
1.246409146
1.227901402
1.207765191
1.188170421
1.172693676
1.157444111
1.139742448
1.124476592
1.111614906
1.098527264
1.085446002
1.075013025
1.065033358
1.053548714
1.043075783
1.035166802
1.027084368
1.017449534
1.00000103
1.002587817
1.060776884
1.248802921
1.377596662
1.393945325
1.392057943
1.390434666
1.386603911
1.382440056
1.380196653
1.377589543
1.370583831
1.359047971
1.343692134
1.322407133
1.300027774
1.278798593
1.255011978
1.233716979
1.215251055
1.195522426
1.175842402
1.160420041
1.145477322
1.128309783
1.1132204
1.100498529
1.087476912
1.074423779
1.064344348
1.054803917
1.044132096
1.033816218
1.025948009
1.01799288
1.00848858
1.000047311
1.020971131
1.170542607
1.354637049
1.388602992
1.390488843
1.38938021
1.387873073
1.385951572
1.381353173
1.377807788
1.373242669
1.364243732
1.350997881
1.334142599
1.311374082
1.288006507
1.266272321
1.241927287
1.220320275
1.202073184
1.18271896
1.163269492
1.147984368
1.133336596
1.116424729
1.101433159
1.088942737
1.076587621
1.063976926
1.054030457
1.044622152
1.03397231
1.023576758
1.015820075
1.008084089
0.9990332105
1.001241268
1.09963894
1.287941522
1.391318207
1.39327547
1.391274489
1.389818212
1.387152966
1.383051694
1.378193826
1.374936711
1.369134565
1.357815564
1.342315166
1.323579497
1.299266402
1.275203334
1.253067832
1.228391849
1.206787606
1.188731064
1.169922516
1.150479372
1.135277241
1.120982526
1.104746341
1.090040521
1.077712051
1.065446473
1.052774523
1.043057687
1.03396639
1.02410302
1.014269715
1.006776186
0.9993064154
0.9905202895
1.019453259
1.23257563
1.365453891
1.393993386
1.392509828
1.388157545
1.385524372
1.383082277
1.379287718
1.375902365
1.372041926
1.364515711
1.35047575
1.332568657
1.312056863
1.286400386
1.261742642
1.23943374
1.214672224
1.192891924
1.175087098
1.156710538
1.137624373
1.122583999
1.108565726
1.092532577
1.07790583
1.065823801
1.054222923
1.042240961
1.032809743
1.023938301
1.014222877
1.004193585
0.9968026892
0.9896308609
0.9813041621
1.12772696
1.326303928
1.379916601
1.386442443
1.386765004
1.384749832
1.38260859
1.380678115
1.377215173
1.373726164
1.368899362
1.35920442
1.342235787
1.322035188
1.299816453
1.272788981
1.247644952
1.225235735
1.20047219
1.178854193
1.161303727
1.143479904
1.124459362
1.109461804
1.095701419
1.08043091
1.06632474
1.054539139
1.043129825
1.031084014
1.021801538
1.013150478
1.003802978
0.9941894016
0.9870796733
0.9801273385
0.9721540162
1.290522697
1.364586109
1.381965664
1.385749151
1.385382652
1.384527917
1.382348091
1.379285605
1.375239329
1.371489637
1.364738719
1.352166592
1.33228973
1.310028187
1.286335013
1.258288637
1.232876226
1.210557099
1.186099766
1.164476614
1.147192062
1.129818171
1.111330036
1.096537659
1.08306294
1.06795881
1.053831566
1.042222641
1.031206398
1.019796625
1.010938461
1.002707324
0.993980482
0.9847927932
0.9780467292
0.9714631073
0.9637572235
1.353837734
1.382627561
1.386966254
1.38709252
1.385583805
1.383433744
1.380840269
1.377034517
1.373072811
1.368443202
1.359016226
1.343397101
1.32071733
1.296760555
1.272107964
1.243288515
1.217692024
1.195576623
1.171446554
1.150195371
1.133209477
1.116334784
1.097858894
1.082998015
1.069654676
1.055217312
1.041858695
1.030886403
1.020501599
1.009405414
1.000589171
0.9923572218
0.9836487316
0.9743841976
0.9677843612
0.96148918
0.9543092395
1.377523185
1.382191581
1.385392426
1.385793567
1.384544927
1.38196401
1.37871399
1.375337248
1.372002436
1.365160434
1.35218797
1.333425686
1.308161099
1.282581372
1.2568537
1.227409849
1.201956437
1.180201487
1.156707235
1.135542188
1.11880531
1.102208514
1.084332805
1.069857306
1.056918789
1.042845093
1.02944601
1.018465704
1.008229125
0.9974326247
0.9891932861
0.9817580998
0.9736806105
0.9647724888
0.9582215599
0.9519795853
0.9450511692
1.377127797
1.380127516
1.383120506
1.383283594
1.382546568
1.380516897
1.378043002
1.374663683
1.371436711
1.361153948
1.344470942
1.322585337
1.294404763
1.267117203
1.240544606
1.210711882
1.185432931
1.164201425
1.141308157
1.12079351
1.104485297
1.088404861
1.070528122
1.055906665
1.043094132
1.029505352
1.01698282
1.00696606
0.9974881458
0.9871138993
0.9789567382
0.9715523862
0.9639029656
0.95562363
0.9494818385
0.9436612591
0.9371259135
1.379267429
1.380702773
1.380788361
1.380585496
1.380210044
1.379465858
1.377959646
1.376279173
1.369244419
1.355102909
1.335268405
1.310090731
1.279127677
1.25029047
1.222956639
1.192912641
1.168297373
1.147821332
1.125863622
1.105592046
1.089514816
1.073639814
1.056309839
1.042329814
1.030114653
1.017209166
1.004878955
0.9952629377
0.9863940504
0.9767493653
0.9689495065
0.9614720729
0.9537216536
0.9452206491
0.939002142
0.9333363528
0.9271000278
1.381176064
1.381032648
1.380465744
1.380186507
1.379850361
1.379295766
1.378100567
1.373944967
1.364773742
1.347247105
1.323748619
1.29548835
1.262129356
1.232465813
1.205031241
1.175119749
1.150929196
1.131038461
1.1098044
1.090333444
1.074982067
1.059920047
1.043092784
1.029038834
1.016865584
1.004269467
0.9924913094
0.9830951137
0.9743021719
0.9648673445
0.9574130506
0.9508368796
0.9437511671
0.9356032393
0.9296916011
0.9243179941
0.9184969427
1.380923935
1.380470841
1.38027493
1.380248833
1.380078706
1.379371198
1.37693325
1.370679196
1.357863652
1.335900931
1.309182428
1.278689131
1.244107742
1.214344121
1.18711319
1.157632761
1.13415065
1.114889331
1.094607435
1.075284011
1.060037341
1.045063861
1.028457948
1.014633609
1.003077167
0.9916723523
0.9810417546
0.9726781212
0.9645012453
0.9552612897
0.9479128656
0.941389657
0.9347739674
0.927253816
0.9217031225
0.9167733537
0.9112996208
1.380258012
1.379768713
1.380030951
1.380228421
1.379995964
1.378871007
1.374863258
1.365366542
1.348242511
1.321958672
1.292505259
1.260560557
1.225482789
1.196108521
1.169603352
1.140981893
1.11778898
1.098587169
1.078284123
1.059503508
1.045031179
1.031286915
1.015774521
1.002322567
0.9908014383
0.9792074894
0.968284711
0.9602919283
0.9529409447
0.9447335782
0.9377418156
0.9311023022
0.9242506009
0.9163984901
0.9107714566
0.9062568989
0.901179311
1.37996378
1.379848416
1.380134612
1.380242402
1.379887743
1.377970651
1.371639578
1.358376577
1.336718386
1.306197413
1.274621074
1.241575803
1.206311669
1.177565214
1.151583823
1.123518976
1.101100565
1.082361383
1.062939907
1.044316972
1.029584242
1.015544723
0.9998685239
0.9873459368
0.9772738407
0.9665891485
0.9562714137
0.9481228972
0.9405397118
0.9323411103
0.925992995
0.9207836972
0.9148824936
0.90768362
0.9034379914
0.900439309
0.8960964309
1.379847612
1.38032017
1.380560876
1.380460716
1.379731056
1.37652034
1.367101728
1.349466542
1.323218634
1.289015807
1.255437279
1.221468165
1.186153319
1.158008911
1.13299102
1.106028396
1.083961906
1.065226492
1.045705228
1.027332325
1.013342084
1.000169021
0.9851463564
0.9728511527
0.9630345098
0.9536177318
0.9450072606
0.9383418048
0.9316393089
0.9240036445
0.9177041703
0.9126701696
0.9070794103
0.8993252999
0.8969330928
0.8949436625
0.8907999574
1.379942126
1.380600711
1.380937401
1.380796315
1.379498054
1.374286273
1.360806035
1.33837281
1.307366882
1.269721297
1.234958585
1.200369961
1.165191662
1.137475083
1.112923214
1.086172463
1.064844186
1.046894462
1.028444123
1.010519282
0.9972918216
0.9855274152
0.9721976446
0.9606957082
0.9506934882
0.9412345567
0.9322511104
0.9257235201
0.9196282308
0.9125443439
0.9062655463
0.9020183739
0.896516514
0.8892048244
0.8886699305
0.8878179719
0.8849077333
1.380442525
1.380935314
1.381426056
1.3811714
1.378840124
1.370722528
1.352216511
1.324321416
1.288964519
1.248767144
1.212692955
1.17778721
1.142417733
1.115570928
1.091920063
1.066680306
1.046194445
1.029163807
1.011504591
0.9938821597
0.9804793501
0.9680735535
0.9545695181
0.9440790769
0.9368099861
0.9290600847
0.9210179039
0.9150084265
0.9095213174
0.9028922001
0.8983389504
0.8958547143
0.8916101003
0.8867303354
0.8864677305
0.886086434
0.8838937389
1.381163806
1.381480379
1.382149668
1.38150192
1.377393618
1.365136955
1.340540497
1.307321247
1.267740438
1.224961457
1.188698961
1.15399265
1.11940716
1.093273959
1.070058679
1.044865852
1.024243484
1.007858899
0.9921797879
0.9775384217
0.9662877321
0.9550611475
0.9417367146
0.931579999
0.9250921075
0.9186729732
0.9119220328
0.907406491
0.9033285559
0.897501351
0.8942628504
0.8919625525
0.8881196869
0.8845692251
0.8845218749
0.8843564292
0.8828422591
1.382009432
1.382573168
1.383186041
1.381665734
1.374558949
1.356700036
1.325101913
1.286528575
1.243469741
1.199513331
1.163174887
1.128507035
1.094480286
1.068815934
1.04708182
1.024592403
1.005833767
0.99034704
0.9746808889
0.9592812217
0.9493862375
0.9405612928
0.9297702685
0.9212243482
0.9144823083
0.9076811499
0.9007440542
0.8975459289
0.8943183162
0.8892493331
0.8878985192
0.8865441859
0.8838493152
0.8817072766
0.8816424811
0.881669318
0.8810435961
1.382870391
1.38425086
1.384210634
1.381067843
1.369355397
1.34425737
1.30542224
1.262238293
1.216277518
1.170907473
1.135302994
1.101775381
1.069391208
1.045006148
1.023884712
1.001367811
0.9843783153
0.9720567028
0.9584271346
0.9441110753
0.9339208815
0.9245976498
0.9138977027
0.9067375077
0.903142793
0.8982382779
0.8944060004
0.8935535202
0.891013571
0.886918871
0.8866236237
0.8859958287
0.8837507429
0.8816207368
0.8814159998
0.8813231991
0.8808646219
1.384191163
1.385948131
1.385022192
1.378810948
1.360588908
1.327201578
1.280888724
1.233847741
1.185801755
1.141209605
1.106399972
1.073927799
1.042517108
1.02029226
1.001087252
0.9790090131
0.9621376459
0.9505608606
0.9395078982
0.9292459937
0.9222998754
0.9153194211
0.9060302805
0.9010775923
0.8985654769
0.8937821316
0.8903689462
0.8904582826
0.8888495374
0.8858318543
0.885779234
0.8855517325
0.8841289754
0.882128997
0.8816531226
0.881571139
0.8812795626
1.386326228
1.387276074
1.385141111
1.373880922
1.346962839
1.304132245
1.251474563
1.202154493
1.152610758
1.108585819
1.074693647
1.043335244
1.013030297
0.9941900315
0.9794244264
0.9620119584
0.9478565045
0.9359511221
0.9238992698
0.911782911
0.9073126566
0.9030181578
0.8954712559
0.8938363688
0.8920415477
0.8876817928
0.8850627231
0.8854143239
0.8847724768
0.8837230017
0.8840483775
0.8841515944
0.8835070996
0.8820204616
0.8815381869
0.8815040178
0.8815059055
1.388472151
1.388103253
1.383233231
1.364225059
1.327090255
1.274570257
1.217095265
1.165507627
1.116667524
1.074594135
1.043973453
1.016343181
0.9888669246
0.9693284096
0.9528041571
0.9359414642
0.924782625
0.9190933811
0.9088995654
0.8994373298
0.8984868893
0.8954586413
0.889208977
0.8890810937
0.8884218427
0.8857258271
0.8840642991
0.8841499776
0.8838413997
0.8830408848
0.8825776269
0.8825156834
0.8820897681
0.8812563611
0.881206363
0.8813614314
0.8833678102
1.389727689
1.388354482
1.378363858
1.348675773
1.299298148
1.238327895
1.177314394
1.126447721
1.079729239
1.037540039
1.006590266
0.9821165595
0.961855684
0.9490842872
0.9358990281
0.9172509308
0.9084133842
0.9049900657
0.8970792103
0.8925225024
0.8935830462
0.8918873815
0.888137667
0.8881513543
0.8879298982
0.8861389603
0.8845443073
0.8841307635
0.883631709
0.8826303411
0.8818167881
0.8816818948
0.881467902
0.8812297137
0.8814267359
0.8850709417
0.9050560199
1.390248969
1.386614248
1.368137293
1.324566003
1.2632802
1.195210975
1.133057859
1.082389781
1.039244228
1.003521579
0.9775753964
0.9535769122
0.9301491774
0.9237953343
0.9171088997
0.9020495671
0.8998311343
0.8973708825
0.8908504628
0.8863383925
0.8869817195
0.8863267664
0.8854729956
0.8861692872
0.8866321944
0.8856448624
0.8844220408
0.8837062033
0.8829821533
0.8820761866
0.8815680704
0.8815803509
0.8815621294
0.8822475433
0.8901558284
0.915906158
0.968152251
1.39020608
1.381835941
1.34989079
1.290670748
1.217315549
1.144583573
1.083866851
1.036123145
0.9939569516
0.9645625011
0.9533792162
0.9329693904
0.9116434464
0.9055580141
0.898519068
0.8886239393
0.8891139347
0.8888745908
0.8853930533
0.8839914584
0.8846254894
0.8846513773
0.8844984285
0.8848178834
0.8852840591
0.8849733069
0.8841583444
0.8832596412
0.8824369843
0.8817891111
0.8815726621
0.8816826586
0.8836189445
0.895938811
0.9341226673
0.9842673688
1.012145868
1.38891116
1.371172351
1.320403206
1.2433861
1.16266858
1.089520561
1.032830857
0.9971435495
0.955860232
0.9269157599
0.918985715
0.9036758581
0.896580883
0.8969984191
0.8921695151
0.8855771022
0.8856255151
0.8857273631
0.8841572339
0.8836436918
0.8841111144
0.8844406522
0.8843684944
0.8845123214
0.8846467998
0.8844645182
0.8838210457
0.8828183114
0.8819328376
0.8817844476
0.8818618936
0.8863870192
0.9057897248
0.9484034459
1.003474443
1.037880737
1.040930456
1.38518076
1.350012346
1.277044716
1.182588204
1.101067517
1.023878634
0.9744633468
0.9577297761
0.9291027741
0.9149649542
0.904653098
0.8917785104
0.8851398866
0.8869518547
0.8852463999
0.8828825221
0.8835971588
0.8842244239
0.8836590386
0.8832320926
0.883474942
0.8837898236
0.8838564851
0.8839990519
0.8839259864
0.8835428347
0.8827414883
0.8821340222
0.8817809663
0.8824932065
0.8894001135
0.9228222224
0.9673639939
1.011466064
1.028158795
1.044480346
1.045901709
1.376262534
1.314211553
1.214123401
1.111166845
1.040983218
0.9790392303
0.9387458362
0.9125396212
0.8928503838
0.896548105
0.8952906542
0.8884315388
0.8844440125
0.8846139703
0.8843541829
0.8836711496
0.8842466113
0.8846998967
0.8843060775
0.8835866757
0.8832597852
0.8829781094
0.8826588137
0.8824823688
0.88226794
0.8820158418
0.8817668307
0.8818190452
0.8833322203
0.8974255354
0.9348239409
0.988149758
1.027274718
1.045713769
1.042953479
1.045680623
1.045818313
1.356425882
1.260233572
1.128168221
1.019985221
0.9657059167
0.9320180836
0.92211034
0.9060614759
0.8942982601
0.8910525481
0.8899220766
0.8869596436
0.8863141877
0.8863277989
0.8862304929
0.8861567216
0.8863389615
0.8862552068
0.8855249799
0.8843129958
0.8832245597
0.8823556709
0.881615284
0.8808592476
0.8807828322
0.8809194306
0.8813029812
0.8850081064
0.9048375753
0.9522547859
1.010310565
1.024116903
1.038103753
1.047547442
1.047096887
1.046864232
1.046277046
1.319747242
1.165368864
1.027023638
0.9545422931
0.8969639827
0.889712632
0.9001105899
0.8994713515
0.8963886509
0.8934959376
0.8914638691
0.8889449589
0.8890771383
0.8897507431
0.889640293
0.889114435
0.8883111118
0.8874652506
0.8861883144
0.88469139
0.8835943044
0.8828067424
0.8818904512
0.8811580508
0.881024925
0.8816418327
0.8891422175
0.9155449721
0.9726377314
1.018906083
1.042102351
1.043506474
1.044537862
1.046976875
1.047404681
1.047119771
1.046642454
1.254565349
0.9520740097
0.8916425764
0.9009023673
0.878317447
0.8706801184
0.8770708953
0.8854880298
0.8897611479
0.8904077498
0.8907106488
0.8905567179
0.8908232905
0.8916542793
0.891581858
0.890857675
0.8894317694
0.8876248137
0.8866967743
0.8859512942
0.8848651664
0.883903176
0.8827638097
0.88224257
0.8841974475
0.8952838065
0.9355379482
0.9984980868
1.024566692
1.037195128
1.047784099
1.049399646
1.047449245
1.047183656
1.046987806
1.046889979
1.046879003
1.059583124
1.030363717
0.9230649617
0.8798406738
0.8620839987
0.8684045109
0.8800885119
0.8894855112
0.8938143861
0.8939911218
0.8931957587
0.8928255668
0.8936012311
0.8943747799
0.8936549329
0.8919465764
0.8898528361
0.8877492852
0.8872010647
0.8866159864
0.88554405
0.8842639031
0.8832850318
0.8839269197
0.8911555341
0.9203802747
0.9822327749
1.035134806
1.050843093
1.043577236
1.04919815
1.048984853
1.047499745
1.046908252
1.046892807
1.047012603
1.067183497
1.049322513
0.9402654148
0.8840235892
0.8620638909
0.8697809319
0.8811138245
0.8900364041
0.8935959867
0.893764531
0.8931003065
0.8927256542
0.8935020638
0.8940455537
0.8934098407
0.8916373969
0.8895224481
0.8875276468
0.8871320478
0.8865386939
0.8854006717
0.8841712417
0.8835012657
0.8851885873
0.8968326365
0.9362030207
1.001652779
1.042891335
1.052531785
1.044022334
1.050039223
1.049481639
1.047903657
1.046868741
1.046882713
1.047036736
1.076642014
1.04770726
0.9571918849
0.8907930859
0.865579163
0.8716705113
0.8820436793
0.8903626685
0.8932330379
0.8934269075
0.8929518603
0.892613412
0.893539913
0.8938929011
0.893230207
0.8913260163
0.8891929675
0.8874370011
0.8871367445
0.886530836
0.8852924159
0.8841086746
0.8837321224
0.8864022866
0.9025334367
0.9507656386
1.01099094
1.04609025
1.052113382
1.0438725
1.050076054
1.050014806
1.048574825
1.047353647
1.046921976
1.047086568
1.077756772
1.042995721
0.9663556673
0.8979779451
0.8702749353
0.8737378957
0.8827238381
0.8903511154
0.8928572418
0.893058985
0.8928514717
0.8924749299
0.893538383
0.8937563056
0.8929813993
0.8909455036
0.8888237973
0.8873331321
0.8871378088
0.8865047263
0.8851801163
0.8841190434
0.8841365541
0.8885034799
0.9094119951
0.967731249
1.019222262
1.047439026
1.05136775
1.043964802
1.050041469
1.050066724
1.0486921
1.047611909
1.047144194
1.047181966
1.07673554
1.035408198
0.9695425318
0.903624553
0.8753533643
0.8757804746
0.8829968317
0.8900796077
0.8923145705
0.8926918622
0.8927246605
0.8924420012
0.8934705173
0.8935923145
0.8927166539
0.8905750399
0.8884847277
0.8872041525
0.8871063956
0.886380898
0.8850028649
0.8841370246
0.8846886492
0.8910767565
0.919932018
0.9776536515
1.029342509
1.048932102
1.050912641
1.043908721
1.049720018
1.04984082
1.048432349
1.04751622
1.047280056
1.047578661
1.073384304
1.031128612
0.9724750207
0.9081069079
0.8792240557
0.8773969984
0.8831947588
0.8896321175
0.8915486804
0.8923029355
0.892573713
0.8924395211
0.8934055396
0.8933915637
0.8924128452
0.8902258924
0.8882825449
0.887091518
0.886935219
0.8861538942
0.8848286739
0.884260915
0.8854066282
0.8946270441
0.9310245623
0.9889527711
1.036543536
1.050011621
1.050564511
1.044069714
1.049475092
1.049538789
1.048006533
1.047316773
1.047279367
1.04777723
1.068641511
1.028450398
0.9746484293
0.9117917413
0.8817031118
0.8787666529
0.8833977952
0.8891797946
0.8908773915
0.8918321024
0.8923599438
0.8923677651
0.8933013859
0.8931899534
0.8920692864
0.8899120262
0.8882014631
0.8871577249
0.8868001846
0.8859213964
0.8848235021
0.8844300381
0.88657827
0.9004628489
0.9426398284
1.007897659
1.039662206
1.050529589
1.049996882
1.0443881
1.049320146
1.049309457
1.047611124
1.04709104
1.047208382
1.047844426
1.064802689
1.027903021
0.9770649925
0.9151225046
0.8834989303
0.8798350148
0.8837154399
0.8887653905
0.8904522511
0.8914363804
0.8920268672
0.892316825
0.8932223704
0.8930333993
0.891706678
0.8895974957
0.8881079587
0.8873134768
0.8868805877
0.8858480324
0.8848754414
0.8847926309
0.8884492417
0.9071921751
0.9607454754
1.021319832
1.040865134
1.050848196
1.049709496
1.044859418
1.049388455
1.04934395
1.047546813
1.046899566
1.04698667
1.047596282
1.06276364
1.028359945
0.9804292421
0.9184022312
0.8852056008
0.8805137389
0.8838778134
0.8882330371
0.8901279134
0.8911918473
0.8915943497
0.8922437009
0.8931558447
0.8928974641
0.8914038422
0.8893408403
0.8879513912
0.8873257154
0.8869466755
0.8858412521
0.8849526501
0.8852872
0.8906641103
0.9156509283
0.9776796648
1.025262745
1.043530959
1.050813485
1.049454531
1.045252907
1.049534881
1.0494467
1.047740249
1.046852588
1.046838948
1.04748159
1.062120659
1.029268182
0.9845676941
0.921799056
0.8871088367
0.8807874575
0.8836695672
0.8875616501
0.8897881876
0.8910774279
0.8911653859
0.8921363058
0.8930511715
0.8927281534
0.8910928811
0.8890546246
0.8877628398
0.8872550489
0.8868807887
0.8857533587
0.8850260033
0.8858697065
0.8936848455
0.9284136654
0.9857031029
1.030692852
1.047054871
1.050884784
1.049122708
1.045771051
1.049699389
1.049528774
1.047892191
1.046893857
1.046817809
1.061192531
1.030699447
0.9887974736
0.9247859525
0.8890976244
0.8812152674
0.8831995445
0.886779994
0.8893273445
0.8909888481
0.8908359774
0.8920301249
0.8929413315
0.8924991759
0.8907264059
0.888781257
0.8877361876
0.887249461
0.8867357511
0.8856555571
0.8852543964
0.8869227104
0.8989582161
0.9388542537
0.9957114509
1.038170761
1.04821069
1.051169913
1.048902059
1.045897387
1.049713464
1.049565895
1.048003008
1.046980965
1.047014594
1.060538956
1.032765621
0.9929561127
0.9272923509
0.8906615704
0.8815951627
0.8828909321
0.885874323
0.8888567093
0.8908487363
0.8906507953
0.891916166
0.8928354809
0.8922621258
0.8904041338
0.8886946514
0.8878128586
0.887402805
0.8867518802
0.8857365648
0.8855781634
0.8888069239
0.9056783905
0.9494771848
1.013536906
1.042945787
1.048829757
1.051508362
1.048964237
1.046153187
1.049562335
1.049274018
1.047934792
1.047119719
1.047201727
1.060579466
1.035632358
0.9961594146
0.9301672389
0.8918538871
0.8813841968
0.8823059262
0.8849014447
0.8883738364
0.8907502477
0.8906920087
0.891886595
0.8926803772
0.8920552365
0.8902322422
0.8887052697
0.887876043
0.8875693737
0.8868466084
0.8859313474
0.8861094125
0.8911253732
0.9124386136
0.9701404441
1.026767239
1.044605133
1.049138527
1.051984354
1.049214233
1.046533062
1.049571046
1.048947372
1.047462046
1.047193399
1.047453041
1.059878272
1.039182056
0.9992629003
0.9326394676
0.8923964195
0.8807507169
0.8811620401
0.8837705651
0.8877930211
0.8906382606
0.8907361559
0.8918942485
0.8924669231
0.8918090538
0.8900354774
0.8886838532
0.8878967446
0.8875618257
0.8869170831
0.8861304635
0.88674212
0.8936553409
0.9242474731
0.9903405222
1.031473393
1.045314472
1.04957517
1.052318203
1.04944172
1.04704827
1.04973808
1.048975656
1.047260251
1.047145575
1.0474879
1.060061641
1.042603383
1.002135474
0.9349590572
0.8929762816
0.8804655728
0.8801263513
0.8825001163
0.8870764239
0.890477708
0.8908209618
0.8919670869
0.8922582779
0.8914753278
0.8897379414
0.8885758612
0.8879269667
0.8874460566
0.8868324348
0.8862727479
0.8876193575
0.8979650474
0.9401128182
0.9981397535
1.035358904
1.047102262
1.050171332
1.052380432
1.049390049
1.047657896
1.050065208
1.049205843
1.047441261
1.047188991
1.047562594
1.06091964
1.045060328
1.004457895
0.9370422694
0.8936593268
0.8804579531
0.8794772044
0.8814156634
0.8863803458
0.8902563005
0.8909059171
0.8920516233
0.8921019916
0.8911038033
0.8894593417
0.8884749153
0.887975794
0.8874424425
0.8866820216
0.8866164056
0.889253204
0.9054636312
0.9492486241
1.00572972
1.041580761
1.049252672
1.050727337
1.052185243
1.049164637
1.04816888
1.050471069
1.049530816
1.047789784
1.047388596
1.047848411
1.062293783
1.046441317
1.005737119
0.9376463027
0.89420727
0.8802713722
0.8788712356
0.8806219854
0.8858225437
0.889965406
0.8908586979
0.892045371
0.8919696587
0.8907551472
0.889212489
0.8885481468
0.8880920831
0.8875939013
0.8868188797
0.8869685257
0.8915892319
0.9120197728
0.9592614501
1.018623636
1.045800049
1.049996002
1.051191877
1.051972361
1.048982579
1.048307693
1.050691826
1.049734908
1.048139572
1.047639069
1.048239297
1.063026266
1.047084467
1.006324015
0.9387617122
0.8943354013
0.8797929218
0.8781681191
0.8800833036
0.8853675057
0.8897110485
0.8907928004
0.8919238803
0.891764492
0.8904051458
0.8889295985
0.8886127507
0.888275639
0.8878081701
0.8871614713
0.8876047313
0.894032297
0.9194114648
0.9796089494
1.030507208
1.047146361
1.050273384
1.051444378
1.05200893
1.04920915
1.048424401
1.050650564
1.04973345
1.04830982
1.047924926
1.063145354
1.047524872
1.006595437
0.9394344781
0.8941453327
0.8793644368
0.877605919
0.8796262438
0.8849240197
0.8894569905
0.8907857541
0.8917688005
0.8914083573
0.8900438487
0.8887216104
0.8884727339
0.8883011018
0.8878311503
0.8874595261
0.888519073
0.897236283
0.9343988875
0.99850948
1.037170041
1.047660242
1.050263415
1.051735426
1.052333533
1.049641868
1.048695812
1.050643569
1.049490928
1.048393717
1.048256784
1.06211278
1.048124227
1.006669067
0.9397130328
0.8941469816
0.879044608
0.8770982601
0.8792648237
0.8846496675
0.8890636398
0.8906673033
0.8917606136
0.8911269309
0.8897284246
0.8886299857
0.8883571873
0.8881970805
0.8878139326
0.887491292
0.8899285732
0.9036816668
0.9510722881
1.00903875
1.039522704
1.047759779
1.050078771
1.05188689
1.052648769
1.05004785
1.049118546
1.050718047
1.04929874
1.048421285
1.048500222
1.059504754
1.048787735
1.006488914
0.9396478988
0.8941608538
0.8789125078
0.876837046
0.879011368
0.8844748558
0.8886656204
0.8905607592
0.8917361849
0.8909858797
0.8895184772
0.8886103205
0.8883951575
0.88822809
0.8878925088
0.8878665139
0.8919871144
0.9129314545
0.9610832945
1.018371054
1.043777547
1.048574564
1.05049925
1.052093846
1.05265302
1.050115101
1.049580977
1.050938795
1.049494357
1.048558098
1.048552144
1.05706291
1.049486861
1.005820788
0.9394534648
0.8945015074
0.878947182
0.8767435077
0.8788345424
0.8844295783
0.8882868278
0.8903320265
0.8914122866
0.8907677449
0.8893346185
0.8886116239
0.8885035913
0.8883653221
0.8882325018
0.8885852011
0.8949545955
0.9203438848
0.9745075995
1.029637927
1.048729846
1.05020047
1.051091433
1.052432694
1.052485857
1.049856231
1.049909381
1.051260191
1.049847392
1.048817681
1.048739849
1.055512273
1.049294476
1.004790538
0.9393728035
0.8949361382
0.8792081378
0.8768087654
0.8788172778
0.8844403606
0.8877979791
0.8899990253
0.8907647646
0.8903488142
0.8891123207
0.8886324161
0.8886395746
0.8885708252
0.8885807267
0.8897330703
0.898430631
0.9304319897
0.9915861915
1.035022823
1.049810733
1.051495497
)
;

boundaryField
{
    inlet
    {
        type            fixedValue;
        value           nonuniform 0();
    }
    outlet
    {
        type            inletOutlet;
        inletValue      nonuniform 0();
        value           nonuniform 0();
    }
    bottom
    {
        type            slip;
    }
    top
    {
        type            slip;
    }
    obstacle
    {
        type            zeroGradient;
    }
    defaultFaces
    {
        type            empty;
    }
    procBoundary9to3
    {
        type            processor;
        value           nonuniform List<scalar> 
38
(
1.31493438
1.292318939
1.273299583
1.257556904
1.239768308
1.220140672
1.204154976
1.189920495
1.173753599
1.15966982
1.147825369
1.135845914
1.121776199
1.111167431
1.102159389
1.092281351
1.080203141
1
1
1
1.00000014
1.000025071
1.001719646
1.035816698
1.170299217
1.346162931
1.383676038
1.383526103
1.386199605
1.388850531
1.389374361
1.384862583
1.376730557
1.367115886
1.35568531
1.340098762
1.322460346
1.322460346
)
;
    }
    procBoundary9to4
    {
        type            processor;
        value           nonuniform List<scalar> 9(1.060974419 1.05206378 1.043174957 1.034376264 1.02591468 1.016885224 1.008392315 0.9994161295 0.9903440389);
    }
    procBoundary9to8
    {
        type            processor;
        value           nonuniform List<scalar> 8(1 1 1 1 1 1 1 0.9999999954);
    }
    procBoundary9to10
    {
        type            processor;
        value           nonuniform List<scalar> 
55
(
0.981915193
0.9730464953
0.9640792719
0.9559104689
0.9467728578
0.9378067116
0.9301887342
0.9202400015
0.9122510874
0.9051488705
0.8949918523
0.8910772939
0.8869346789
0.8827234104
0.8823394168
0.8820294584
0.8807467806
0.8806621517
0.8812423954
0.8821993715
0.8947227059
0.9452890275
1.017828393
1.035353725
1.044589876
1.046572363
1.046072399
1.045796185
1.046068839
1.046806755
1.047331782
1.047331782
1.047485432
1.047540263