/*--------------------------------*- C++ -*----------------------------------*\
  =========                 |
  \\      /  F ield         | OpenFOAM: The Open Source CFD Toolbox
   \\    /   O peration     | Website:  https://openfoam.org
    \\  /    A nd           | Version:  7
     \\/     M anipulation  |
\*---------------------------------------------------------------------------*/
FoamFile
{
    version     2.0;
    format      ascii;
    class       volVectorField;
    location    "2";
    object      U;
}
// * * * * * * * * * * * * * * * * * * * * * * * * * * * * * * * * * * * * * //

dimensions      [0 1 -1 0 0 0 0];

internalField   nonuniform List<vector> 
2223
(
(2.904766866 0.225983609 0)
(2.911092952 0.2127018303 0)
(2.918340262 0.1971971582 0)
(3 2.308179327e-15 0)
(3 -2.540022922e-15 0)
(3 -6.44349221e-15 0)
(3 -9.596192024e-15 0)
(3 -7.032776812e-15 0)
(3 -2.130159197e-15 0)
(3 4.15437483e-15 0)
(3 5.650758794e-15 0)
(3 8.957035174e-14 0)
(3 1.213073461e-11 0)
(3 8.077650188e-10 0)
(2.999999987 3.271238972e-08 0)
(2.99999951 1.266750571e-06 0)
(2.999991439 2.259962905e-05 0)
(2.999863939 0.0003443209283 0)
(2.998946629 0.002743941059 0)
(2.993991344 0.01625233639 0)
(2.974878991 0.05932564653 0)
(2.955494444 0.1234146184 0)
(2.916631378 0.2232510022 0)
(2.912353841 0.2285486265 0)
(2.894477839 0.2470655337 0)
(2.888558423 0.2600886811 0)
(2.886753742 0.2634786914 0)
(2.884994763 0.262259227 0)
(2.886103592 0.2626353578 0)
(2.886363424 0.2632054785 0)
(2.886534389 0.2639642426 0)
(2.886554094 0.2641141858 0)
(2.88667204 0.2637142921 0)
(2.887064834 0.2625064153 0)
(2.888207205 0.2598556724 0)
(2.890490825 0.2551045399 0)
(2.893959237 0.2481025655 0)
(2.899011022 0.2377228557 0)
(2.905170699 0.2246270206 0)
(2.911420464 0.2118385654 0)
(3 1.066407014e-15 0)
(3 -3.209092863e-15 0)
(3 -3.23375522e-15 0)
(3 -5.979247141e-15 0)
(3 -2.688511948e-15 0)
(3 2.751874161e-15 0)
(3 5.87320229e-15 0)
(3 5.919439861e-15 0)
(3 1.019297485e-14 0)
(3 1.625033329e-13 0)
(3 1.366113678e-11 0)
(3 7.167879179e-10 0)
(2.999999982 4.599936666e-08 0)
(2.999999578 1.098489701e-06 0)
(2.999989757 2.568238449e-05 0)
(2.999859556 0.0003781484362 0)
(2.999068771 0.002416492293 0)
(2.992549683 0.01870545388 0)
(2.981052656 0.05154224856 0)
(2.939784684 0.1480609524 0)
(2.935935437 0.1775085561 0)
(2.903859554 0.2499886423 0)
(2.894790241 0.2639517038 0)
(2.886614505 0.2595986674 0)
(2.884258673 0.2583394048 0)
(2.885585047 0.2610036104 0)
(2.885705822 0.2632167995 0)
(2.886260047 0.2636221107 0)
(2.886702665 0.264040252 0)
(2.886728835 0.2640140363 0)
(2.886875236 0.2636069554 0)
(2.887365271 0.2622958657 0)
(2.888591952 0.2594218696 0)
(2.89087653 0.2544060449 0)
(2.894347077 0.2470802734 0)
(2.899514618 0.2362760142 0)
(2.9055639 0.2236322295 0)
(3 -3.334190849e-15 0)
(3 -5.327728796e-15 0)
(3 -3.46459474e-15 0)
(3 -2.083534077e-15 0)
(3 5.118234754e-15 0)
(3 7.966491001e-15 0)
(3 6.376173537e-15 0)
(3 5.894953041e-15 0)
(3 9.758572042e-15 0)
(3 9.10932447e-15 0)
(3 1.425188168e-13 0)
(3 1.463678822e-11 0)
(3 1.021864326e-09 0)
(2.999999986 3.718814964e-08 0)
(2.999999406 1.526251593e-06 0)
(2.999990659 2.478001508e-05 0)
(2.999862936 0.000355037278 0)
(2.998867985 0.0029005951 0)
(2.994087776 0.01580557574 0)
(2.972496601 0.06451275953 0)
(2.958154019 0.1219719598 0)
(2.916229162 0.2253883701 0)
(2.909977703 0.2300171027 0)
(2.894400305 0.249509809 0)
(2.889165151 0.2586336205 0)
(2.887956184 0.2643785545 0)
(2.884971406 0.2640248702 0)
(2.884954647 0.2624612265 0)
(2.88614962 0.2634795328 0)
(2.886765638 0.2641768697 0)
(2.886813786 0.2639677123 0)
(2.887007694 0.2634253296 0)
(2.887611086 0.2619716067 0)
(2.888975136 0.2588396192 0)
(2.891307002 0.2536075698 0)
(2.894855802 0.2459836945 0)
(2.900099544 0.2349641613 0)
(3 -7.426921309e-15 0)
(3 -8.378256265e-15 0)
(3 -4.267570435e-15 0)
(3 2.746832933e-15 0)
(3 5.916214018e-15 0)
(3 6.115219905e-15 0)
(3 5.483705087e-15 0)
(3 4.479840063e-15 0)
(3 5.75880982e-15 0)
(3 2.128903454e-15 0)
(3 -2.599313413e-15 0)
(3 1.988396022e-13 0)
(3 1.851100651e-11 0)
(3 8.982743085e-10 0)
(2.999999979 5.274630709e-08 0)
(2.999999469 1.416726252e-06 0)
(2.999990036 2.488892631e-05 0)
(2.999845889 0.0004103830994 0)
(2.999016203 0.002573626226 0)
(2.992149651 0.01922190248 0)
(2.981107964 0.05347146778 0)
(2.940086972 0.1508553918 0)
(2.931362997 0.1758388602 0)
(2.90379236 0.2409977294 0)
(2.895761885 0.2629965966 0)
(2.890397432 0.2597210516 0)
(2.885730263 0.2591746682 0)
(2.884744896 0.2618650473 0)
(2.885494519 0.2644257218 0)
(2.886263863 0.2644899839 0)
(2.886618103 0.2639592391 0)
(2.886850335 0.2636425847 0)
(2.887120907 0.2631517991 0)
(2.887904072 0.2616016887 0)
(2.889421123 0.2582015372 0)
(2.891783096 0.2527751008 0)
(2.895423675 0.2448398709 0)
(3 -6.596645134e-15 0)
(3 -6.105076727e-15 0)
(3 -3.032647204e-15 0)
(3 4.871514225e-16 0)
(3 5.09737199e-15 0)
(3 4.76662491e-15 0)
(3 6.705359457e-15 0)
(3 6.634173812e-15 0)
(3 5.62996504e-15 0)
(3 2.454845102e-15 0)
(3 -5.100671346e-16 0)
(3 8.007737591e-16 0)
(3 2.185763447e-13 0)
(3 1.768156091e-11 0)
(2.999999999 1.379167683e-09 0)
(2.999999983 4.27752286e-08 0)
(2.99999932 1.747854165e-06 0)
(2.999989453 2.781691767e-05 0)
(2.999862533 0.0003583586292 0)
(2.99873124 0.003231958066 0)
(2.994212446 0.01554844214 0)
(2.971481416 0.06648474918 0)
(2.957827357 0.1206138105 0)
(2.91479641 0.2305457425 0)
(2.908488017 0.2326725965 0)
(2.895005171 0.2491516516 0)
(2.88979149 0.2552879041 0)
(2.888111301 0.2633572576 0)
(2.886779478 0.264332196 0)
(2.885199119 0.2637683437 0)
(2.885852156 0.2638100279 0)
(2.886491391 0.2639243736 0)
(2.886722554 0.2635935552 0)
(2.887188259 0.2629833766 0)
(2.88816258 0.2611936793 0)
(2.889772259 0.2575085187 0)
(2.892190551 0.2519202884 0)
(3 -2.833892561e-15 0)
(3 7.497063445e-16 0)
(3 -6.536191821e-16 0)
(3 7.832760786e-16 0)
(3 3.11123925e-15 0)
(3 6.457896475e-15 0)
(3 8.576013327e-15 0)
(3 8.608999749e-15 0)
(3 7.686092516e-15 0)
(3 5.537557644e-15 0)
(3 3.053616357e-15 0)
(3 -1.218685703e-15 0)
(3 -2.674924139e-15 0)
(3 2.768643587e-13 0)
(3 2.413749424e-11 0)
(3 1.171284207e-09 0)
(2.999999976 6.044203966e-08 0)
(2.999999344 1.767648769e-06 0)
(2.999989741 2.590845838e-05 0)
(2.999838366 0.0004224903416 0)
(2.998961758 0.002695648154 0)
(2.991650668 0.01984877888 0)
(2.980801709 0.0547893305 0)
(2.94162259 0.1517540823 0)
(2.926771927 0.1804414803 0)
(2.905132765 0.2324946158 0)
(2.8954153 0.2631524875 0)
(2.891087857 0.2591478184 0)
(2.88804121 0.260238202 0)
(2.885353415 0.2621853772 0)
(2.885723802 0.2648741886 0)
(2.885679325 0.2646249043 0)
(2.886227218 0.2640106015 0)
(2.886554822 0.2635640496 0)
(2.887182792 0.2628910389 0)
(2.888305493 0.2607513001 0)
(2.890044327 0.2567687109 0)
(3 -6.810296827e-17 0)
(3 3.362761084e-15 0)
(3 3.714715901e-15 0)
(3 2.639392306e-15 0)
(3 2.055477606e-15 0)
(3 2.115330331e-15 0)
(3 4.08249318e-15 0)
(3 8.313191348e-15 0)
(3 5.977495906e-15 0)
(3 4.84902242e-15 0)
(3 -3.190822899e-15 0)
(3 -7.805130516e-15 0)
(3 -9.962450056e-15 0)
(3 1.176628671e-15 0)
(3 3.403722298e-13 0)
(3 2.070463435e-11 0)
(2.999999999 1.889463537e-09 0)
(2.99999998 5.29725533e-08 0)
(2.999999281 1.839114605e-06 0)
(2.999988061 3.081424892e-05 0)
(2.999860736 0.0003572403274 0)
(2.998575208 0.00356980955 0)
(2.994122672 0.01606087099 0)
(2.970951715 0.06912755878 0)
(2.958379581 0.1176441786 0)
(2.9126261 0.2334778233 0)
(2.902818512 0.2407969018 0)
(2.898150667 0.2462171006 0)
(2.890724592 0.2546504416 0)
(2.888170085 0.262971019 0)
(2.887579557 0.2636262496 0)
(2.885576589 0.2633575447 0)
(2.885702985 0.2635789425 0)
(2.886011902 0.2638575023 0)
(2.886330809 0.2637198682 0)
(2.887021873 0.2627204951 0)
(2.888271388 0.2603763748 0)
(3 1.371771417e-15 0)
(3 3.768473956e-15 0)
(3 4.206421653e-15 0)
(3 2.520298026e-15 0)
(3 1.850269008e-15 0)
(3 5.816590094e-16 0)
(3 -4.551174694e-16 0)
(3 3.097607235e-15 0)
(3 -1.16782587e-15 0)
(3 -5.80317538e-15 0)
(3 -7.342874123e-15 0)
(3 -1.183628207e-14 0)
(3 -1.029039157e-14 0)
(3 -6.90770632e-15 0)
(3 2.733597319e-15 0)
(3 3.561181008e-13 0)
(3 3.052703492e-11 0)
(2.999999999 1.504577453e-09 0)
(2.999999973 6.675618861e-08 0)
(2.999999237 2.011928508e-06 0)
(2.99998882 2.827775017e-05 0)
(2.999826558 0.0004513782723 0)
(2.99890753 0.002876528845 0)
(2.991318418 0.0204284101 0)
(2.979979954 0.0567481701 0)
(2.943386936 0.1484461413 0)
(2.922738946 0.1871591993 0)
(2.907403377 0.2258122057 0)
(2.897718091 0.2614827342 0)
(2.89169685 0.2601338032 0)
(2.889248749 0.2595659037 0)
(2.886258829 0.2614761392 0)
(2.885769155 0.2636805841 0)
(2.885651397 0.2640998824 0)
(2.885716969 0.2640252179 0)
(2.886147077 0.2635886566 0)
(2.886950855 0.2625867669 0)
(3 2.649355809e-15 0)
(3 3.444328493e-15 0)
(3 4.428269257e-15 0)
(3 2.609466712e-15 0)
(3 1.807430981e-15 0)
(3 9.477414107e-17 0)
(3 -3.020565444e-15 0)
(3 -5.474345439e-15 0)
(3 -1.274579452e-14 0)
(3 -1.653785303e-14 0)
(3 -1.728782505e-14 0)
(3 -1.433610164e-14 0)
(3 -1.122893664e-14 0)
(3 -7.200090877e-15 0)
(3 -4.683775234e-16 0)
(3 6.984444206e-15 0)
(3 4.418720607e-13 0)
(3 2.288849666e-11 0)
(2.999999999 2.332519957e-09 0)
(2.999999975 6.730813628e-08 0)
(2.999999253 1.91188993e-06 0)
(2.999986662 3.457338503e-05 0)
(2.999858811 0.0003622858529 0)
(2.998442199 0.003837982477 0)
(2.994020014 0.01633467416 0)
(2.970187986 0.07213627062 0)
(2.958750059 0.1156833693 0)
(2.913004277 0.2288536785 0)
(2.895913939 0.2580280165 0)
(2.896770256 0.2465358272 0)
(2.892061949 0.2538011551 0)
(2.889624991 0.262410526 0)
(2.8880769 0.2627662254 0)
(2.886261846 0.2629236272 0)
(2.885751994 0.2632795351 0)
(2.885712865 0.263605518 0)
(2.886168862 0.263392588 0)
(3 8.290818497e-16 0)
(3 3.1807384e-15 0)
(3 3.415733208e-15 0)
(3 4.565704246e-15 0)
(3 4.656179282e-15 0)
(3 1.428297705e-15 0)
(3 -2.736567071e-15 0)
(3 -7.705417985e-15 0)
(3 -1.165327155e-14 0)
(3 -1.440828027e-14 0)
(3 -1.755754989e-14 0)
(3 -1.613810673e-14 0)
(3 -8.943643657e-15 0)
(3 -2.204020398e-15 0)
(3 1.746342736e-15 0)
(3 3.28525082e-15 0)
(3 7.091439882e-15 0)
(3 3.575205036e-13 0)
(3 3.845244879e-11 0)
(2.999999999 1.908085206e-09 0)
(2.999999971 7.253708765e-08 0)
(2.999999185 2.115284985e-06 0)
(2.999988165 2.987394457e-05 0)
(2.999813378 0.0004800070165 0)
(2.998830928 0.003107421621 0)
(2.991206406 0.02064452244 0)
(2.978783617 0.06054256234 0)
(2.945285959 0.1451615064 0)
(2.921317287 0.1921591784 0)
(2.907895431 0.2226711791 0)
(2.896475924 0.2554765045 0)
(2.893413884 0.2616050184 0)
(2.890149471 0.2597425132 0)
(2.887001319 0.2610431515 0)
(2.886199234 0.262727871 0)
(2.886000901 0.2635300446 0)
(2.885855103 0.2633291868 0)
(3 -1.587313326e-15 0)
(3 5.697872536e-15 0)
(3 7.18755707e-15 0)
(3 8.288982807e-15 0)
(3 7.255157832e-15 0)
(3 4.481457927e-15 0)
(3 7.621797978e-16 0)
(3 -4.029390501e-15 0)
(3 -8.203023964e-15 0)
(3 -1.228571654e-14 0)
(3 -1.287530587e-14 0)
(3 -1.381105925e-14 0)
(3 -1.15773015e-14 0)
(3 -9.989328988e-15 0)
(3 -4.549504793e-15 0)
(3 9.836112521e-16 0)
(3 3.226352991e-15 0)
(3 3.965396874e-15 0)
(3 5.115202223e-13 0)
(3 2.617495793e-11 0)
(2.999999999 2.463102013e-09 0)
(2.999999971 7.629387253e-08 0)
(2.999999242 1.927053609e-06 0)
(2.999985277 3.843075151e-05 0)
(2.999855467 0.0003763736961 0)
(2.998327259 0.004135610451 0)
(2.993991102 0.01652794502 0)
(2.970379149 0.07302088044 0)
(2.955336379 0.1187452384 0)
(2.917582831 0.2155199176 0)
(2.894559108 0.2672668689 0)
(2.890749457 0.2531246287 0)
(2.891340979 0.2546799212 0)
(2.889802512 0.2591614214 0)
(2.888657052 0.263207668 0)
(2.887142245 0.2630864356 0)
(2.886178235 0.2630433434 0)
(3 -1.786986017e-15 0)
(3 4.153991489e-15 0)
(3 7.373046457e-15 0)
(3 6.033846908e-15 0)
(3 3.998714742e-15 0)
(3 2.876787556e-15 0)
(3 -2.744627617e-16 0)
(3 -4.461298979e-15 0)
(3 -1.235175833e-14 0)
(3 -1.7495592e-14 0)
(3 -1.82299044e-14 0)
(3 -1.430877685e-14 0)
(3 -1.066915575e-14 0)
(3 -8.245000089e-15 0)
(3 -3.205190445e-15 0)
(3 3.258380166e-15 0)
(3 7.206970954e-15 0)
(3 -1.782344933e-15 0)
(3 -1.884915713e-15 0)
(3 3.306369259e-13 0)
(3 4.315988053e-11 0)
(2.999999999 2.194315416e-09 0)
(2.99999997 7.683474107e-08 0)
(2.999999154 2.201623659e-06 0)
(2.999987808 3.118869261e-05 0)
(2.999806574 0.0004938368784 0)
(2.998751806 0.003335795939 0)
(2.991429871 0.02012851077 0)
(2.977438138 0.06278071622 0)
(2.945179649 0.1431059215 0)
(2.923663376 0.1944204014 0)
(2.90653678 0.2286342744 0)
(2.894988671 0.2473265322 0)
(2.892201066 0.2602720171 0)
(2.890545888 0.2611887529 0)
(2.88785187 0.2617612398 0)
(2.88733695 0.2621416029 0)
(3 -1.944079953e-15 0)
(3 -1.950410791e-15 0)
(3 2.981843287e-15 0)
(3 4.076295387e-15 0)
(3 3.70358343e-15 0)
(3 1.990342666e-15 0)
(3 -3.638545276e-15 0)
(3 -8.148474719e-15 0)
(3 -1.50506487e-14 0)
(3 -1.59701325e-14 0)
(3 -1.867450785e-14 0)
(3 -1.524016629e-14 0)
(3 -1.051691355e-14 0)
(3 -5.381728207e-15 0)
(3 -1.250573956e-15 0)
(3 4.150832153e-15 0)
(3 9.423897749e-15 0)
(3 -1.496459844e-15 0)
(3 -5.453818368e-15 0)
(3 3.679001118e-15 0)
(3 6.18543371e-13 0)
(3 3.208423597e-11 0)
(2.999999999 2.476527844e-09 0)
(2.999999968 8.144689527e-08 0)
(2.99999926 1.86661472e-06 0)
(2.999984047 4.145169359e-05 0)
(2.999852698 0.0003841099101 0)
(2.998241279 0.004358459874 0)
(2.993878695 0.01685234696 0)
(2.971266165 0.07090271955 0)
(2.948463019 0.1296154492 0)
(2.926258276 0.2024847904 0)
(2.897184335 0.2661330498 0)
(2.886619308 0.2545072844 0)
(2.888371342 0.2535779079 0)
(2.889468141 0.2601640576 0)
(2.889089143 0.2633057082 0)
(3 -2.436804955e-15 0)
(3 -2.459540229e-15 0)
(3 6.816479332e-16 0)
(3 4.656830658e-15 0)
(3 4.922404707e-15 0)
(3 1.495202058e-15 0)
(3 -1.959259868e-15 0)
(3 -6.203879852e-15 0)
(3 -1.007149424e-14 0)
(3 -9.32688264e-15 0)
(3 -7.827571015e-15 0)
(3 -1.410240373e-15 0)
(3 -7.737784865e-16 0)
(3 -4.806090934e-16 0)
(3 1.036627039e-16 0)
(3 -5.901369738e-16 0)
(3 -2.316538256e-15 0)
(3 -9.023769885e-15 0)
(3 -1.063941484e-14 0)
(3 -1.916374743e-15 0)
(3 1.120139949e-14 0)
(3 3.811758796e-13 0)
(3 4.604871584e-11 0)
(2.999999999 2.324869186e-09 0)
(2.999999969 7.85239597e-08 0)
(2.999999124 2.273395316e-06 0)
(2.999987111 3.346220522e-05 0)
(2.999802386 0.0005019504813 0)
(2.998676666 0.003588192905 0)
(2.991618739 0.01994631352 0)
(2.976518202 0.06259067953 0)
(2.94389553 0.1472218999 0)
(2.924079283 0.1972214774 0)
(2.910734289 0.2255041621 0)
(2.892168291 0.2458628907 0)
(2.890888013 0.2626710861 0)
(2.890033128 0.2627707829 0)
(3 -2.271423164e-15 0)
(3 -3.245421949e-15 0)
(3 -2.80933793e-15 0)
(3 1.046072733e-15 0)
(3 2.050509223e-15 0)
(3 -1.985036698e-15 0)
(3 -2.905643553e-15 0)
(3 -4.90796156e-15 0)
(3 -4.790792256e-15 0)
(3 -5.812402826e-15 0)
(3 1.939267003e-15 0)
(3 7.861149823e-15 0)
(3 5.784358137e-15 0)
(3 8.176650964e-16 0)
(3 -2.004165065e-15 0)
(3 -9.243181776e-15 0)
(3 -1.83251349e-14 0)
(3 -1.611876298e-14 0)
(3 -1.330386206e-14 0)
(3 -4.686886289e-15 0)
(3 -2.167665313e-15 0)
(3 6.092896406e-15 0)
(3 6.804407494e-13 0)
(3 3.840814246e-11 0)
(2.999999999 2.471076763e-09 0)
(2.999999966 8.728736672e-08 0)
(2.999999276 1.842212937e-06 0)
(2.999982869 4.480008063e-05 0)
(2.999849433 0.0003965393254 0)
(2.998234443 0.00439423445 0)
(2.993311217 0.01812200707 0)
(2.973955862 0.06385912884 0)
(2.941525291 0.1422687396 0)
(2.931422862 0.1958593171 0)
(2.900127632 0.2645222411 0)
(2.890727246 0.2558795797 0)
(2.886890665 0.2537389721 0)
(3 -2.549841391e-15 0)
(3 -4.045894254e-15 0)
(3 -2.948842205e-15 0)
(3 -7.339783207e-16 0)
(3 -8.771898369e-16 0)
(3 -4.096722704e-15 0)
(3 -5.441296161e-15 0)
(3 -7.61681079e-15 0)
(3 -5.425952746e-15 0)
(3 -1.607008317e-15 0)
(3 3.570845284e-15 0)
(3 4.215987814e-15 0)
(3 3.870043991e-15 0)
(3 1.943180093e-15 0)
(3 -1.79381097e-15 0)
(3 -6.86723416e-15 0)
(3 -1.245394787e-14 0)
(3 -1.282409953e-14 0)
(3 -1.354419947e-14 0)
(3 -7.185140413e-15 0)
(3 -2.731454355e-15 0)
(3 9.945100182e-15 0)
(3 2.320582285e-14 0)
(3 4.549650843e-13 0)
(3 4.878054147e-11 0)
(2.999999999 2.345463254e-09 0)
(2.999999969 7.810014494e-08 0)
(2.999999103 2.326024024e-06 0)
(2.999986464 3.550209057e-05 0)
(2.999798923 0.0005082886067 0)
(2.998629398 0.003691421956 0)
(2.991652623 0.02008962148 0)
(2.9757368 0.06068569056 0)
(2.942997852 0.1519951505 0)
(2.922971936 0.206204519 0)
(2.913295213 0.2247968939 0)
(2.891934986 0.2419159752 0)
(3 -1.242469333e-15 0)
(3 -1.901091069e-15 0)
(3 -3.382979207e-15 0)
(3 -4.551531072e-15 0)
(3 -5.326674524e-15 0)
(3 -4.643649966e-15 0)
(3 -2.248360149e-15 0)
(3 -2.033852513e-15 0)
(3 -1.086614913e-15 0)
(3 3.095800961e-15 0)
(3 3.945670007e-15 0)
(3 5.141442075e-15 0)
(3 4.30428957e-15 0)
(3 2.07329991e-15 0)
(3 -3.874376836e-15 0)
(3 -1.142596573e-14 0)
(3 -1.216655554e-14 0)
(3 -1.141148655e-14 0)
(3 -1.121579954e-14 0)
(3 -9.586204716e-15 0)
(3 -1.348136996e-15 0)
(3 6.140574106e-15 0)
(3 7.429713047e-15 0)
(3 1.357671247e-14 0)
(3 7.309282323e-13 0)
(3 4.204940585e-11 0)
(2.999999999 2.349559207e-09 0)
(2.999999964 9.276632566e-08 0)
(2.999999281 1.843492896e-06 0)
(2.999981982 4.701135658e-05 0)
(2.999839175 0.0004250128342 0)
(2.99832035 0.004125882265 0)
(2.992339614 0.02030160564 0)
(2.976793228 0.05929074112 0)
(2.938827297 0.1504159716 0)
(2.930194466 0.1924290911 0)
(2.902209208 0.2617888442 0)
(3 2.494664658e-15 0)
(3 -4.20240322e-15 0)
(3 -4.415126422e-15 0)
(3 -6.491903784e-15 0)
(3 -8.191413125e-15 0)
(3 -4.815378169e-15 0)
(3 1.996405517e-16 0)
(3 3.898408082e-15 0)
(3 5.363381903e-15 0)
(3 6.446662347e-15 0)
(3 6.3996145e-15 0)
(3 5.219127397e-15 0)
(3 1.997536187e-15 0)
(3 -5.791257823e-15 0)
(3 -1.107350366e-14 0)
(3 -1.643077291e-14 0)
(3 -1.563402907e-14 0)
(3 -1.458849304e-14 0)
(3 -1.074971151e-14 0)
(3 -8.874946011e-15 0)
(3 -1.254248433e-15 0)
(3 -1.098938571e-15 0)
(3 4.900647918e-16 0)
(3 2.482362515e-15 0)
(3 6.620773243e-15 0)
(3 5.144645608e-13 0)
(3 5.12769195e-11 0)
(2.999999999 2.380295801e-09 0)
(2.999999969 7.907810198e-08 0)
(2.999999073 2.404081949e-06 0)
(2.999985777 3.756043459e-05 0)
(2.999791246 0.0005261794052 0)
(2.998614826 0.003695268802 0)
(2.991770832 0.02079902586 0)
(2.975418223 0.05991648147 0)
(2.943693364 0.14684453 0)
(2.918284556 0.2200151151 0)
(3 2.458482629e-15 0)
(3 -2.833943956e-15 0)
(3 -3.585502054e-15 0)
(3 -4.126112215e-15 0)
(3 -3.833155688e-15 0)
(3 4.21343196e-16 0)
(3 4.936761786e-15 0)
(3 6.950893433e-15 0)
(3 6.418670505e-15 0)
(3 5.130265944e-15 0)
(3 3.811871602e-15 0)
(3 1.626308967e-15 0)
(3 -5.43488657e-15 0)
(3 -1.125685796e-14 0)
(3 -1.285093611e-14 0)
(3 -1.526418824e-14 0)
(3 -1.891042386e-14 0)
(3 -1.811825085e-14 0)
(3 -9.791897988e-15 0)
(3 -2.01614055e-15 0)
(3 -2.613023857e-15 0)
(3 -3.025527757e-16 0)
(3 -6.346961942e-16 0)
(3 -6.447087814e-16 0)
(3 -1.239328844e-15 0)
(3 -5.843951718e-15 0)
(3 7.520556666e-13 0)
(3 4.565233362e-11 0)
(2.999999999 2.219126542e-09 0)
(2.999999962 9.85662594e-08 0)
(2.99999926 1.913685388e-06 0)
(2.999981649 4.743327059e-05 0)
(2.99982176 0.0004744231524 0)
(2.99851128 0.003662648475 0)
(2.991587647 0.02197166879 0)
(2.978076832 0.05773717099 0)
(2.937248052 0.1533971788 0)
(3 4.508448442e-15 0)
(3 1.866326761e-15 0)
(3 -8.032371342e-16 0)
(3 -1.565895165e-15 0)
(3 8.091759163e-16 0)
(3 4.250397051e-15 0)
(3 1.074805813e-14 0)
(3 1.085683976e-14 0)
(3 6.728300052e-15 0)
(3 9.166888487e-16 0)
(3 -1.225797042e-15 0)
(3 -2.028532596e-15 0)
(3 -6.265608491e-15 0)
(3 -8.445309657e-15 0)
(3 -1.295593137e-14 0)
(3 -1.476355866e-14 0)
(3 -1.500746899e-14 0)
(3 -1.733233008e-14 0)
(3 -1.079840096e-14 0)
(3 -6.143779133e-16 0)
(3 3.774135997e-15 0)
(3 5.863644527e-15 0)
(3 4.282993969e-15 0)
(3 7.641617761e-16 0)
(3 -6.27188357e-15 0)
(3 -1.543672054e-14 0)
(3 -1.020733903e-14 0)
(3 5.594045943e-13 0)
(3 5.254541401e-11 0)
(2.999999999 2.446500456e-09 0)
(2.999999969 8.073220186e-08 0)
(2.99999901 2.555802813e-06 0)
(2.999985321 3.854237269e-05 0)
(2.999784654 0.0005431930661 0)
(2.998624704 0.003617928017 0)
(2.992016895 0.02117395234 0)
(2.973554214 0.06365555498 0)
(3 7.428766093e-15 0)
(3 1.824125377e-15 0)
(3 -5.167550962e-16 0)
(3 7.894312795e-16 0)
(3 1.481731855e-15 0)
(3 4.025272516e-16 0)
(3 1.616120134e-15 0)
(3 6.843935427e-15 0)
(3 1.273869613e-14 0)
(3 1.199112284e-14 0)
(3 8.438304541e-15 0)
(3 2.449699955e-15 0)
(3 -1.682088056e-15 0)
(3 -9.012682246e-15 0)
(3 -1.43584741e-14 0)
(3 -1.184403379e-14 0)
(3 -9.041792568e-15 0)
(3 -7.352062878e-15 0)
(3 3.038367452e-16 0)
(3 3.032722084e-15 0)
(3 5.728194001e-15 0)
(3 5.894743356e-15 0)
(3 7.939354195e-15 0)
(3 5.605082647e-15 0)
(3 -5.206825018e-15 0)
(3 -1.66238557e-14 0)
(3 -1.597217435e-14 0)
(3 -5.435483866e-15 0)
(3 8.305318769e-13 0)
(3 5.053756783e-11 0)
(2.999999999 2.19149099e-09 0)
(2.99999996 1.046896004e-07 0)
(2.999999184 2.119960734e-06 0)
(2.999982067 4.53608546e-05 0)
(2.999799407 0.000541515842 0)
(2.998673962 0.003389042851 0)
(2.991181976 0.02273975447 0)
(3 4.882041388e-15 0)
(3 9.325224419e-16 0)
(3 -2.154988582e-15 0)
(3 -6.049138062e-16 0)
(3 -1.762644161e-15 0)
(3 -1.740665242e-15 0)
(3 -9.037171951e-16 0)
(3 2.359793652e-15 0)
(3 3.957748882e-15 0)
(3 5.019288831e-15 0)
(3 2.978063159e-15 0)
(3 -1.326303345e-15 0)
(3 -5.589802516e-15 0)
(3 -9.711411387e-15 0)
(3 -1.290920294e-14 0)
(3 -8.450635817e-15 0)
(3 8.393717574e-16 0)
(3 4.246142219e-15 0)
(3 6.689591947e-15 0)
(3 5.431818304e-15 0)
(3 -1.629929427e-16 0)
(3 -4.507060005e-15 0)
(3 -3.041148835e-15 0)
(3 -7.118731485e-15 0)
(3 -1.238281698e-14 0)
(3 -1.942963585e-14 0)
(3 -1.84230305e-14 0)
(3 -1.562795569e-14 0)
(3 -4.20424731e-15 0)
(3 6.563799432e-13 0)
(3 5.356088918e-11 0)
(2.999999999 2.672823067e-09 0)
(2.999999968 8.327830525e-08 0)
(2.999998898 2.847379611e-06 0)
(2.999984982 3.971627901e-05 0)
(2.999786265 0.0005521491403 0)
(2.998583215 0.003683267509 0)
(3 3.883460023e-15 0)
(3 2.726261937e-15 0)
(3 -3.100996444e-15 0)
(3 -4.137587788e-15 0)
(3 -3.56662168e-15 0)
(3 -1.766717483e-15 0)
(3 -1.416413278e-15 0)
(3 -2.522027922e-15 0)
(3 -6.378926935e-15 0)
(3 -6.910818944e-15 0)
(3 -4.96797775e-15 0)
(3 -3.587874464e-15 0)
(3 -4.677644659e-15 0)
(3 -7.533883197e-15 0)
(3 -7.657330166e-15 0)
(3 5.419977221e-18 0)
(3 7.362182472e-15 0)
(3 1.077276516e-14 0)
(3 1.134962176e-14 0)
(3 9.274756026e-15 0)
(3 -4.635281295e-15 0)
(3 -7.957384487e-15 0)
(3 -1.462474262e-14 0)
(3 -2.07212434e-14 0)
(3 -2.077098927e-14 0)
(3 -1.862601975e-14 0)
(3 -1.52759897e-14 0)
(3 -1.411998185e-14 0)
(3 -9.309753424e-15 0)
(3 1.640218427e-15 0)
(3 8.713507764e-13 0)
(3 5.502756837e-11 0)
(2.999999999 2.28023975e-09 0)
(2.999999958 1.093370821e-07 0)
(2.999999072 2.460445067e-06 0)
(2.999983156 4.228088113e-05 0)
(2.999782728 0.0005869513181 0)
(3 3.795032869e-15 0)
(3 -7.925852516e-16 0)
(3 -3.681884197e-15 0)
(3 -4.782338139e-15 0)
(3 -2.183288239e-15 0)
(3 -8.073246531e-16 0)
(3 -1.594054868e-15 0)
(3 -6.640659882e-15 0)
(3 -7.518982315e-15 0)
(3 -7.196384197e-15 0)
(3 -5.094399965e-15 0)
(3 -1.917980154e-15 0)
(3 -1.054387076e-16 0)
(3 2.90965975e-15 0)
(3 3.15957482e-15 0)
(3 3.079504196e-15 0)
(3 1.150373038e-14 0)
(3 1.210884237e-14 0)
(3 1.110828917e-14 0)
(3 9.865149888e-15 0)
(3 -1.145071651e-15 0)
(3 -7.733210809e-15 0)
(3 -1.981644415e-14 0)
(3 -2.58651853e-14 0)
(3 -2.506800346e-14 0)
(3 -1.967102185e-14 0)
(3 -1.23990626e-14 0)
(3 -1.005587293e-14 0)
(3 -3.722196303e-15 0)
(3 -5.958646208e-15 0)
(3 8.280427374e-16 0)
(3 7.216585484e-13 0)
(3 5.175502412e-11 0)
(2.999999999 3.012427695e-09 0)
(2.999999967 8.538868034e-08 0)
(2.999998805 3.103923056e-06 0)
(2.999984296 4.192759702e-05 0)
(3 -1.020984749e-15 0)
(3 -3.513883513e-15 0)
(3 -3.186580562e-15 0)
(3 -2.944376411e-15 0)
(3 1.657397435e-15 0)
(3 7.446620659e-16 0)
(3 -1.552578602e-15 0)
(3 -5.769899176e-15 0)
(3 -7.380222804e-15 0)
(3 -8.549946303e-15 0)
(3 -8.18181196e-15 0)
(3 -5.539905632e-15 0)
(3 -2.378044545e-15 0)
(3 3.46567522e-15 0)
(3 8.778715216e-15 0)
(3 1.080759635e-14 0)
(3 1.078880756e-14 0)
(3 9.205765483e-15 0)
(3 4.279271587e-15 0)
(3 1.6110875e-15 0)
(3 -5.876309259e-15 0)
(3 -1.425507561e-14 0)
(3 -2.134545694e-14 0)
(3 -2.304225225e-14 0)
(3 -2.362705572e-14 0)
(3 -2.027946249e-14 0)
(3 -1.84579746e-14 0)
(3 -1.429740964e-14 0)
(3 -7.176241186e-15 0)
(3 -8.135725691e-15 0)
(3 -9.828886919e-15 0)
(3 -4.558449223e-15 0)
(3 8.605074123e-13 0)
(3 5.801883053e-11 0)
(2.999999999 2.47194486e-09 0)
(2.999999956 1.128443071e-07 0)
(2.999998951 2.84053617e-06 0)
(3 -7.321953657e-15 0)
(3 -4.707873429e-15 0)
(3 -3.431978034e-15 0)
(3 -6.456342365e-16 0)
(3 4.861243832e-16 0)
(3 -1.537844464e-15 0)
(3 -2.204323428e-15 0)
(3 -6.360446247e-15 0)
(3 -4.784007393e-15 0)
(3 -3.407735129e-15 0)
(3 -4.884431639e-15 0)
(3 -3.328709524e-15 0)
(3 -9.02860678e-17 0)
(3 3.533896996e-15 0)
(3 1.159783742e-14 0)
(3 1.916893085e-14 0)
(3 1.644624404e-14 0)
(3 1.155975298e-14 0)
(3 4.626083594e-15 0)
(3 -3.472416392e-15 0)
(3 -9.102944707e-15 0)
(3 -1.438549892e-14 0)
(3 -1.613171548e-14 0)
(3 -1.871490514e-14 0)
(3 -1.914553854e-14 0)
(3 -1.823482393e-14 0)
(3 -1.909049704e-14 0)
(3 -1.585276673e-14 0)
(3 -1.160968672e-14 0)
(3 -9.242958938e-15 0)
(3 -7.454750107e-15 0)
(3 -7.832059062e-15 0)
(3 9.454472377e-15 0)
(3 8.24908919e-13 0)
(3 4.932497988e-11 0)
(2.999999999 3.494105181e-09 0)
(2.999999965 9.097051933e-08 0)
(3 -1.100014689e-14 0)
(3 -9.646331498e-15 0)
(3 -6.521956375e-15 0)
(3 -1.471044352e-15 0)
(3 -9.858663281e-16 0)
(3 8.469508257e-16 0)
(3 1.909896946e-15 0)
(3 2.255453561e-15 0)
(3 1.433161175e-15 0)
(3 4.671033528e-15 0)
(3 2.057739342e-15 0)
(3 1.713190815e-15 0)
(3 1.957435968e-15 0)
(3 4.833288151e-15 0)
(3 6.822825358e-15 0)
(3 9.891255181e-15 0)
(3 6.701601849e-15 0)
(3 4.048798673e-15 0)
(3 1.905994069e-15 0)
(3 -3.144132423e-15 0)
(3 -7.37188237e-15 0)
(3 -8.73470726e-15 0)
(3 -1.030882001e-14 0)
(3 -1.625061304e-14 0)
(3 -1.375071891e-14 0)
(3 -1.612527324e-14 0)
(3 -1.5783707e-14 0)
(3 -1.392863294e-14 0)
(3 -1.253754922e-14 0)
(3 -8.743982136e-15 0)
(3 -6.269900173e-15 0)
(3 -2.035244993e-15 0)
(3 -2.116786623e-16 0)
(3 1.199776113e-14 0)
(3 8.857219594e-13 0)
(3 6.13802831e-11 0)
(2.999999999 2.779629096e-09 0)
(3 -1.21447371e-14 0)
(3 -9.094698934e-15 0)
(3 -5.979394913e-15 0)
(3 -5.755755462e-16 0)
(3 5.080645354e-15 0)
(3 6.234075382e-15 0)
(3 8.060625306e-15 0)
(3 1.20958942e-14 0)
(3 1.033358396e-14 0)
(3 7.19295057e-15 0)
(3 5.73998047e-15 0)
(3 2.909243176e-15 0)
(3 3.969180063e-15 0)
(3 5.585218772e-15 0)
(3 8.578833485e-15 0)
(3 7.373676271e-15 0)
(3 1.45466378e-15 0)
(3 -2.024114985e-16 0)
(3 -1.462250119e-15 0)
(3 -2.635457804e-15 0)
(3 -6.162689234e-15 0)
(3 -4.166149576e-15 0)
(3 -4.631081663e-15 0)
(3 -7.951046917e-15 0)
(3 -1.223078139e-14 0)
(3 -1.320529442e-14 0)
(3 -1.426428241e-14 0)
(3 -1.269418701e-14 0)
(3 -1.412110898e-14 0)
(3 -1.356546251e-14 0)
(3 -6.85072383e-15 0)
(3 -9.939104744e-16 0)
(3 4.843016051e-16 0)
(3 -7.241273046e-16 0)
(3 8.248397234e-15 0)
(3 9.134153145e-13 0)
(3 4.770805847e-11 0)
(3 -1.100314589e-14 0)
(3 -4.812407953e-15 0)
(3 -1.487361784e-15 0)
(3 1.945983616e-15 0)
(3 4.012008006e-15 0)
(3 3.833091334e-15 0)
(3 7.025456861e-15 0)
(3 9.611480475e-15 0)
(3 8.575046995e-15 0)
(3 4.917729902e-15 0)
(3 5.91999145e-15 0)
(3 7.215452593e-15 0)
(3 9.793312017e-15 0)
(3 9.53845282e-15 0)
(3 1.201781706e-14 0)
(3 9.038529129e-15 0)
(3 5.692444104e-15 0)
(3 2.627780547e-15 0)
(3 5.555053454e-16 0)
(3 -1.031491317e-15 0)
(3 -2.864467508e-15 0)
(3 -3.786370414e-16 0)
(3 4.421889161e-15 0)
(3 1.245278084e-15 0)
(3 -6.862596845e-15 0)
(3 -7.610756874e-15 0)
(3 -5.060476881e-15 0)
(3 -8.607956271e-15 0)
(3 -9.873199274e-15 0)
(3 -1.068657027e-14 0)
(3 -2.65846214e-15 0)
(3 1.855996625e-15 0)
(3 4.154986422e-15 0)
(3 4.191958232e-15 0)
(3 4.604103578e-15 0)
(3 1.490590937e-14 0)
(3 8.298542541e-13 0)
(3 -1.041285192e-14 0)
(3 -4.694451989e-15 0)
(3 5.637776294e-16 0)
(3 -3.200720585e-16 0)
(3 -1.587229182e-15 0)
(3 7.987616747e-16 0)
(3 8.305035868e-16 0)
(3 8.229773925e-16 0)
(3 1.727217166e-15 0)
(3 2.877997297e-15 0)
(3 5.73409261e-15 0)
(3 9.305480576e-15 0)
(3 1.315112775e-14 0)
(3 1.393830402e-14 0)
(3 1.061666429e-14 0)
(3 9.180291537e-15 0)
(3 8.244551524e-15 0)
(3 6.789775133e-15 0)
(3 3.631677408e-15 0)
(3 2.620471874e-15 0)
(3 -1.689187377e-16 0)
(3 5.853851852e-15 0)
(3 6.996097035e-15 0)
(3 3.732782944e-15 0)
(3 6.03549224e-16 0)
(3 1.654450821e-15 0)
(3 4.509436744e-15 0)
(3 -3.033557657e-15 0)
(3 -6.428074986e-15 0)
(3 -6.266957453e-15 0)
(3 -1.287948666e-15 0)
(3 1.135112653e-15 0)
(3 4.213427742e-15 0)
(3 4.012085185e-15 0)
(3 1.346415873e-15 0)
(3 -3.619394152e-16 0)
(3 1.400706735e-14 0)
(3 -9.068225453e-15 0)
(3 -5.510380299e-15 0)
(3 -1.397387055e-15 0)
(3 -1.559160547e-16 0)
(3 -2.072258019e-15 0)
(3 -1.403766902e-15 0)
(3 -2.938171694e-15 0)
(3 -1.957268433e-15 0)
(3 9.502455637e-16 0)
(3 4.69337633e-15 0)
(3 6.935881669e-15 0)
(3 7.943095431e-15 0)
(3 6.830928688e-15 0)
(3 8.667852479e-15 0)
(3 9.111777062e-15 0)
(3 7.068094782e-15 0)
(3 5.875692984e-15 0)
(3 4.040697335e-15 0)
(3 3.289422156e-15 0)
(3 2.559864266e-15 0)
(3 1.09589456e-15 0)
(3 4.027891421e-15 0)
(3 3.781140585e-15 0)
(3 2.708309732e-16 0)
(3 -1.89931522e-15 0)
(3 2.172977898e-15 0)
(3 3.401754639e-15 0)
(3 3.679664386e-15 0)
(3 -2.616721332e-17 0)
(3 9.360172396e-16 0)
(3 1.611060937e-16 0)
(3 -1.928862612e-15 0)
(3 2.334706201e-15 0)
(3 1.250596723e-15 0)
(3 -1.462075845e-15 0)
(3 -2.543727047e-15 0)
(3 9.442661341e-16 0)
(3 -3.007629884e-15 0)
(3 -1.909023319e-15 0)
(3 -2.06118892e-15 0)
(3 -1.639504656e-15 0)
(3 -2.603964229e-15 0)
(3 -1.91666671e-15 0)
(3 -3.124376224e-15 0)
(3 -2.243293008e-15 0)
(3 -1.390600901e-16 0)
(3 3.233779118e-15 0)
(3 4.001474691e-15 0)
(3 6.141521816e-15 0)
(3 4.54045707e-15 0)
(3 4.354467691e-15 0)
(3 5.437472126e-15 0)
(3 4.893632075e-15 0)
(3 2.250641966e-15 0)
(3 -9.610542315e-16 0)
(3 -5.839641709e-16 0)
(3 -1.317146496e-15 0)
(3 -1.398664163e-16 0)
(3 2.824624919e-15 0)
(3 4.762880844e-16 0)
(3 -2.41673414e-16 0)
(3 3.253637868e-15 0)
(3 6.898006564e-15 0)
(3 9.190360056e-15 0)
(3 1.083099924e-14 0)
(3 8.781626648e-15 0)
(3 3.378381987e-15 0)
(3 -2.164744633e-15 0)