/*--------------------------------*- C++ -*----------------------------------*\
  =========                 |
  \\      /  F ield         | OpenFOAM: The Open Source CFD Toolbox
   \\    /   O peration     | Website:  https://openfoam.org
    \\  /    A nd           | Version:  7
     \\/     M anipulation  |
\*---------------------------------------------------------------------------*/
FoamFile
{
    version     2.0;
    format      ascii;
    class       volScalarField;
    location    "0.2";
    object      T;
}
// * * * * * * * * * * * * * * * * * * * * * * * * * * * * * * * * * * * * * //

dimensions      [0 0 0 1 0 0 0];

internalField   nonuniform List<scalar> 
138
(
1.006860311
1.026118076
1.053310748
1.069066432
1.071454568
1.067871926
1.059464734
1.000267367
1.007177637
1.031276463
1.064581847
1.080253319
1.083097975
1.078765541
1.07117008
1.059687931
1.004268046
1.033039068
1.073797177
1.093337082
1.089145321
1.083618778
1.077073374
1.0627301
1.040897729
1.027825348
1.077928815
1.103740397
1.101696656
1.093290344
1.078910222
1.056803478
1.028062336
0.996464592
1.076066978
1.10733315
1.106620886
1.100696511
1.0827436
1.051817163
1.016721877
0.9820795258
0.9496904031
1.114220163
1.116407804
1.110740338
1.087468372
1.048872925
1.005436018
0.960792892
0.9284892536
0.9065294694
1.118308525
1.11552002
1.094236466
1.049508452
0.9969518507
0.9532744406
0.9148216812
0.8847556951
0.8693899589
1.122218938
1.097790996
1.044050829
0.98214298
0.9237779768
0.8828317639
0.8740025837
0.8627164758
0.863594388
1.106305658
1.04156903
0.96614936
0.9017870129
0.8626489347
0.8361452002
0.838823878
0.8460636522
0.8794309659
1.04926984
0.9022014844
0.8247848947
0.8193473902
0.8210160013
0.8207853673
0.8376220983
0.886653352
0.951413076
0.9085804331
0.9156325532
0.840841678
0.8301960236
0.8237132915
0.8286828357
0.8733488948
0.9460281655
0.9897015523
0.9110969165
0.9145099403
0.851888303
0.8353931815
0.8250489615
0.8379669638
0.8956071685
0.9580107745
0.992197945
0.9172257963
0.9114515835
0.8587918041
0.8375233569
0.8270172197
0.8447675766
0.9078792586
0.960530803
0.9919161843
0.9207342565
0.9067704919
0.8648115413
0.8397720182
0.8314816822
0.8568976197
0.9136029371
0.9604042213
0.9904852408
0.922024192
0.9032861418
0.8688544752
0.8431598909
0.8369805251
0.8702436124
0.922763495
0.9615130423
0.9922692384
0.9215974812
0.9001818306
0.8711187377
0.8485579326
0.8472048321
)
;

boundaryField
{
    inlet
    {
        type            fixedValue;
        value           nonuniform 0();
    }
    outlet
    {
        type            inletOutlet;
        inletValue      nonuniform 0();
        value           nonuniform 0();
    }
    bottom
    {
        type            slip;
    }
    top
    {
        type            slip;
    }
    obstacle
    {
        type            zeroGradient;
    }
    defaultFaces
    {
        type            empty;
    }
    procBoundary9to3
    {
        type            processor;
        value           nonuniform List<scalar> 10(1.000686314 1.005245673 1.019219366 1.039596658 1.0537918 1.057743542 1.054683863 1.000007405 1.000732435 1.000732435);
    }
    procBoundary9to4
    {
        type            processor;
        value           nonuniform List<scalar> 3(1.047865633 1.043570835 1.01548556);
    }
    procBoundary9to8
    {
        type            processor;
        value           uniform 0.9999997345;
    }
    procBoundary9to10
    {
        type            processor;
        value           nonuniform List<scalar> 
12
(
0.9717677392
0.9244311399
0.8964577572
0.8769567709
0.8828990127
0.9520982995
0.9882377101
0.9984190601
1.006788399
1.012816901
1.012416749
1.011520478
)
;
    }
    procBoundary9to14
    {
        type            processor;
        value           nonuniform List<scalar> 8(1.00011043 1.004882948 1.037708874 1.090075108 1.113753144 1.124008609 1.122834829 1.119027506);
    }
    procBoundary9to15
    {
        type            processor;
        value           nonuniform List<scalar> 10(0.8827113771 0.938506292 0.9693163897 0.9961172025 0.9203762641 0.8981743032 0.8734639773 0.8546923301 0.8827113771 0.8594282729);
    }
}


// ************************************************************************* //
