/*--------------------------------*- C++ -*----------------------------------*\
  =========                 |
  \\      /  F ield         | OpenFOAM: The Open Source CFD Toolbox
   \\    /   O peration     | Website:  https://openfoam.org
    \\  /    A nd           | Version:  7
     \\/     M anipulation  |
\*---------------------------------------------------------------------------*/
FoamFile
{
    version     2.0;
    format      ascii;
    class       volScalarField;
    location    "2.2";
    object      p;
}
// * * * * * * * * * * * * * * * * * * * * * * * * * * * * * * * * * * * * * //

dimensions      [1 -1 -2 0 0 0 0];

internalField   nonuniform List<scalar> 
2222
(
1
1
1
1
1
1
1
1
1
1
1
1
1
1
1
1
1
1
1
1
1
1
1
1
1
1
1
1
1
1
1
1
1
1
1
1
1
1
1
1
1
1
1
1
1
1
1
1
1
1
1
1
1
1
1
1
1
1
1
1
1
1
1
1
1
1
1
1
1
1
1
1
1
1
1
1
1
1
1
1
1
1
1
1
1
1
1
1
1
1
1
1
1
1
1
1
1
1
1
1
1
1
1
1
1
1
1
1
1
1
1
1
1
1
1
1
1
1
1
1
1
1
1
1
1
1
1
1
1
1
1
1
1
1
1
1
1
1
1
1
1
1
1
1
1
1
1
1
1
1
1
1
1
1
1
1
1
1
1
1
1
1
1
1
1
1
1
1
1
1
1
1
1
1
1
1
1
1
1
1
1
1
1
1
1
1
1
1
1
1
1
1
1
1
1
1
1
1
1
1
1
1
1
1
1
1
1
1
1
1
1
1
1
1
1
1
1
1
1
1
1
1
1
1
1
1
1
1
1
1
1
1
1
1
1
1
1
1
1
1
1
1
1
1
1
1
1
1
1
1
1
1
1
1
1
1
1
1
1
1
1
1
1
1
1
1
1
1
1
1
1
1
1
1
1
1
1
1
1
1
1
1
1
1
1
1
1
1
1
1
1
1
1
1
1
1
1
1
1
1
1
1
1
1
1
1
1
1
1
1
1
1
1
1
1
1
1
1
1
1
1
1
1
1
1
1
1
1
1
1
1
1
1
1
1
1
1
1
1
1
1
1
1
1
1
1
1
1
1
1
1
1
1
1
1
1
1
1
1
1
1
1
1
1
1
1
1
1
1
1
1
1
1
1
1
1
1
1
1
1
1
1
1
1
1
1
1
1
1
1
1
1
1
1
1
1
1
1
1
1
1
1
1
1
1
1
1
1
1
1
1
1
1
1
1
1
1
1
1
1
1
1
1
1
1
1
1
1
1
1
1
1
1
1
1
1
1
1
1
1
1
1
1
1
1
1
1
1
1
1
1
1
1
1
1
1
1
1
1
1
1
1
1
1
1
1
1
1
1
1
1
1
1
1
1
1
1
1
1
1
1
1
1
1
1
1
1
1
1
1
1
1
1
1
1
1
1
1
1
1
1
1
1
1
1
1
1
1
1
1
1
1
1
1
1
1
1
1
1
1
1
1
1
1
1
1
1
1
1
1
1
1
1
1
1
1
1
1
1
1
1
1
1
1
1
1
1
1
1
1
1
1
1
1
1
1
1
1
1
1
1
1
1
1
1
1
1
1
1
1
1
1
1
1
1
1
1
1
1
1
1
1
1
1
1
1
1
1
1
1
1
1
1
1
1
1
1
1
1
1
1
1
1
1
1
1
1
1
1
1
1
1
1
1
1
1
1
1
1
1
1
1
1
1
1
1
1
1
1
1
1
1
1
1
1
1
1
1
1
1
1
1
1
1
1
1
1
1
1
1
1
1
1
1
1
1
1
1
1
1
1
1
1
1
1
1
1
1
1
1
1
1
1
1
1
1
1
1
1
1
1
1
1
1
1
1
1
1
1
1
1
1
1
1
1
1
1
1
1
1
1
1
1
1
1
1
1
1
1
1
1
1
1
1
1
1
1
1
1
1
1
1
1
1
1
1
1
1
1
1
1
1
1
1
1
1
1
1
1
1
1
1
1
1
1
1
1
1
1
1
1
1
1
1
1
1
1
1
1
1
1
1
1
1
1
1
1
1
1
1
1
1
1
1
1
1
1
1
1
1
1
1
1
1
1
1
1
1
1
1
1
1
1
1
1
1
1
1
1
1
1
1
1
1
1
1
1
1
1
1
1
1
1
1
1
1
1
1
1
1
1
1
1
1
1
1
1
1
1
1
1
1
1
1
1
1
1
1
1
1
1
1
1
1
1
1
1
1
1
1
1
1
1
1
1
1
1
1
1
1
1
1
1
1
1
1
1
1
1
1
1
1
1
1
1
1
1
1
1
1
1
1
1
1
1
1
1
1
1
1
1
1
1
1
1
1
1
1
1
1
1
1
1
1
1
1
1
1
1
1
1
1
1
1
1
1
1
1
1
1
1
1
1
1
1
1
1
1
1
1
1
1
1
1
1
1
1
1
1
1
1
1
1
1
1
1
1
1
1
1
1
1
1
1
1
1
1
1
1
1
1
1
1
1
1
1
1
1
1
1
1
1
1
1
1
1
1
1
1
1
1
1
1
1
1
1
1
1
1
1
1
1
1
1
1
1
1
1
1
1
1
1
1
1
1
1
1
1
1
1
1
1
1
1
1
1
1
1
1
1
1
1
1
1
1
1
1
1
1
1
1
1
1
1
1
1
1
1
1
1
1
1
1
1
1
1
1
1
1
1
1
1
1
1
1
1
1
1
1
1
1
1
1
1
1
1
1
1
1
1
1
1
1
1
1
1
1
1
1
1
1
1
1
1
1
1
1
1
1
1
1
1
1
1
1
1
1
1
1
1
1
1
1
1
1
1
1
1.814530887
8.917508399
11.59602678
11.64154021
11.75040101
11.85906404
11.92346102
11.91714499
11.8594489
11.77295377
11.6410902
11.48570366
11.37234886
11.31856669
1
1
1
1
1
1
1
1
1
1
1
1
1
1
1
1
1
1
1
1.82996669
8.947423949
11.59375671
11.63442117
11.7422993
11.85243055
11.91958763
11.91546215
11.85916116
11.77565433
11.64780841
11.49349091
11.37520018
11.31896107
1
1
1
1
1
1
1
1
1
1
1
1
1
1
1
1
1
1
1
1.869450286
9.010032879
11.58670478
11.62201594
11.72900084
11.84218489
11.91435667
11.91478867
11.85986005
11.77981704
11.65762851
11.50571368
11.38148593
11.32081112
1
1
1
1
1
1
1
1
1
1
1
1
1
1
1
1
1
1
1
1.927847507
9.102471128
11.57664469
11.60368422
11.70726899
11.82342225
11.90365743
11.9123198
11.86095928
11.78577348
11.67111587
11.52311658
11.39141428
11.32314214
1
1
1
1
1
1
1
1
1
1
1
1
1
1
1
1
1
1
1
2.005688409
9.223019324
11.56627961
11.58222289
11.67932077
11.7962163
11.8867663
11.90782341
11.86260234
11.7929473
11.68739627
11.54559326
11.40667548
11.32722663
1
1
1
1
1
1
1
1
1
1
1
1
1
1
1
1
1
1
1
2.105520326
9.370802048
11.556621
11.55964375
11.64646875
11.76025137
11.86217217
11.8998734
11.86460774
11.80090289
11.70576868
11.57300019
11.42902821
11.33353845
1
1
1
1
1
1
1
1
1
1
1
1
1
1
1
1
1
1
1
2.229234636
9.544399198
11.54914676
11.53810493
11.61044271
11.71630872
11.82843765
11.8861552
11.86649892
11.80901932
11.72518411
11.60420707
11.45967525
11.34573283
1
1
1
1
1
1
1
1
1
1
1
1
1
1
1
1
1
1
1
2.378155643
9.741281554
11.54571553
11.52034663
11.57379344
11.66669672
11.7845187
11.8633937
11.86662953
11.81712502
11.74483134
11.63765155
11.49853872
11.36791613
1
1
1
1
1
1
1
1
1
1
1
1
1
1
1
1
1
1
1
2.553293456
9.957394064
11.54859617
11.50993562
11.53953529
11.61483731
11.72986909
11.8285143
11.86034704
11.82609755
11.76294389
11.67098813
11.54341168
11.403205
1
1
1
1
1
1
1
1
1
1
1
1
1
1
1
1
1
1
1
2.755362637
10.18747627
11.56019272
11.50873707
11.51041471
11.56469215
11.66677743
11.77966414
11.84197228
11.83225283
11.77825423
11.70174754
11.59024686
11.45112291
1
1
1
1
1
1
1
1
1
1
1
1
1
1
1
1
1
1
1
2.984430929
10.42558992
11.58383001
11.51339113
11.49158593
11.52047777
11.60109078
11.71546959
11.80537127
11.82839304
11.79197139
11.72771747
11.63440895
11.50682875
1
1
1
1
1
1
1
1
1
1
1
1
1
1
1
1
1
1
1
3.239876716
10.66344315
11.62403943
11.52191259
11.48759683
11.48514453
11.53842227
11.63931254
11.74883381
11.8071655
11.79985745
11.7476539
11.67245402
11.56321552
1
1
1
1
1
1
1
1
1
1
1
1
1
1
1
1
1
1
1
3.520285968
10.89209245
11.68080047
11.54528427
11.48941397
11.46294413
11.48601585
11.56114677
11.6717125
11.76229565
11.79138147
11.7642004
11.70312385
11.61504577
1
1
1
1
1
1
1
1
1
1
1
1
1
1
1
1
1
1
1
3.823973025
11.10492672
11.74280947
11.59001609
11.49908348
11.45878277
11.44806927
11.49193321
11.58315182
11.69218189
11.7592382
11.76789473
11.72795926
11.65972052
1
1
1
1
1
1
1
1
1
1
1
1
1
1
1
1
1
1
1
4.153147765
11.30065586
11.79401133
11.64930222
11.53334299
11.46648773
11.43007904
11.43990842
11.49943975
11.5999894
11.69917441
11.74642356
11.74277494
11.69526116
1
1
1
1
1
1
1
1
1
1
1
1
1
1
1
1
1
1
1
4.512539018
11.4759511
11.83070978
11.70578857
11.5974195
11.487732
11.43538799
11.40873426
11.43348286
11.50502358
11.60856899
11.69502806
11.728573
11.71857724
1
1
1
1
1
1
1
1
1
1
1
1
1
1
1
1
1
1
1
4.89906623
11.61325077
11.87498847
11.75437153
11.66633541
11.54233789
11.45184403
11.4059065
11.39116747
11.42538083
11.50406947
11.60588232
11.68135868
11.70680919
1
1
1
1
1
1
1
1
1
1
1
1
1
1
1
1
1
1
1
5.315641383
11.70224245
11.92058144
11.80543231
11.72924554
11.61344557
11.49688763
11.41997899
11.3776143
11.37184529
11.41091211
11.49187366
11.58950507
11.65786275
1
1
1
1
1
1
1
1
1
1
1
1
1
1
1
1
1
1
1
5.764728932
11.73810372
11.95434584
11.85849485
11.78884625
11.68428168
11.56786072
11.45790793
11.38808537
11.34856532
11.34725851
11.38704797
11.46538625
11.55794057
1
1
1
1
1
1
1
1
1
1
1
1
1
1
1
1
1
1
1.000000161
6.253250035
11.73932652
11.95181849
11.90194618
11.84274596
11.75295012
11.6494644
11.53070386
11.42358122
11.35668067
11.31844564
11.31798626
11.35418133
11.42528686
1
1
1
1
1
1
1
1
1
1
1
1
1
1
1
1
1
1
1.001137435
6.790160807
11.73461521
11.90152383
11.91346964
11.8763013
11.81339416
11.73212203
11.62514472
11.50644033
11.39834326
11.33080231
11.29058902
11.28656639
11.31646784
1
1
1
1
1
1
1
1
1
1
1
1
1
1
1
1
1
1
1.115975171
7.343008755
11.68886698
11.82295044
11.8704726
11.88258023
11.85038925
11.79971499
11.72028053
11.61921925
11.50177358
11.39074111
11.31626002
11.2720906
11.2578972
1
1
1
1
1
1
1
1
1
1
1
1
1
1
1
1
1
1
1.343419402
7.954966923
11.59707398
11.70476827
11.77791173
11.8367765
11.84895682
11.83402557
11.78703428
11.72042789
11.62968286
11.5192163
11.40698411
11.32097906
11.270012
1
1
1
1
1
1
1
1
1
1
1
1
1
1
1
1
1
1
1.683699781
8.641209992
11.51523894
11.57474833
11.64308333
11.73194829
11.79503743
11.81356244
11.80680664
11.77257806
11.71858416
11.64485566
11.54933941
11.44437538
11.35069812
1
1
1
1
1
1
1
1
1
1
1
1
1
1
1
1
1
1
2.139037729
9.350979841
11.47859274
11.48758021
11.51943189
11.58420222
11.67184243
11.74236206
11.76736015
11.76278933
11.74595473
11.70496073
11.64867912
11.57502168
11.48757578
1
1
1
1
1
1
1
1
1
1
1
1
1
1
1
1
1
1
2.675876298
10.01681257
11.5279142
11.46022246
11.45118011
11.47253231
11.52227388
11.59755064
11.66986072
11.70934647
11.71088828
11.69904962
11.67684928
11.63557227
11.58171504
1
1
1
1
1
1
1
1
1
1
1
1
1
1
1
1
1
1
3.255796654
10.5816265
11.6389776
11.51180679
11.45567574
11.4240275
11.42929483
11.46250607
11.51853297
11.58173078
11.63002162
11.65098732
11.64565907
11.62953505
11.60546766
1
1
1
1
1
1
1
1
1
1
1
1
1
1
1
1
1
1
3.883478427
11.0428895
11.74078454
11.62870495
11.53091667
11.45563918
11.40764472
11.39065887
11.41329206
11.45007471
11.49687625
11.542791
11.57437428
11.58580343
11.57635968
1
1
1
1
1
1
1
1
1
1
1
1
1
1
1
1
1
1
4.559602576
11.39736704
11.82753114
11.73965558
11.66895157
11.5665879
11.47996192
11.4195784
11.38000194
11.3778527
11.40328451
11.43470305
11.46669218
11.49626333
11.51472659
1
1
1
1
1
1
1
1
1
1
1
1
1
1
1
1
1
1
5.272451111
11.60582232
11.89656309
11.82184649
11.77889107
11.70771731
11.62261245
11.53678
11.46538493
11.41409188
11.38035586
11.37469038
11.39311019
11.41538218
11.43405364
1
1
1
1
1
1
1
1
1
1
1
1
1
1
1
1
1
1.000001829
6.042379008
11.67196935
11.90078753
11.85994061
11.82597098
11.78577495
11.73348889
11.67029884
11.60101924
11.5291259
11.46771392
11.42339412
11.39097859
11.37583077
11.3814529
1
1
1
1
1
1
1
1
1
1
1
1
1
1
1
1
1
1.010903781
6.915295055
11.65026173
11.78993021
11.82678075
11.81097498
11.78192054
11.76279853
11.72763897
11.6824915
11.6320363
11.57786862
11.52076583
11.4704219
11.43237258
11.40230231
1
1
1
1
1
1
1
1
1
1
1
1
1
1
1.292086503
7.805554197
11.5247942
11.60319103
11.65046643
11.71229487
11.73127424
11.72277947
11.70597408
11.68797025
11.66223055
11.62716806
11.58730316
11.54559148
11.50342334
11.46291066
1
1
1
1
1
1
1
1.800617181
8.796325273
11.42727869
11.46632557
11.50189673
11.54303062
11.59255976
11.63007769
11.64658758
11.64574268
11.6329146
11.6133043
11.59309576
11.56856816
11.53775117
11.50509426
9.789903897
11.52670103
11.46530031
11.44372054
11.45772082
11.48611281
11.5152901
11.53958943
11.55815858
11.56884584
11.57121572
11.56201295
11.54539115
11.52859623
11.51021294
11.46681419
11.48624728
11.49899102
11.50625465
11.51054326
11.50948583
11.502317
11.490832
11.46878541
11.46354329
)
;

boundaryField
{
    inlet
    {
        type            fixedValue;
        value           nonuniform 0();
    }
    outlet
    {
        type            zeroGradient;
    }
    bottom
    {
        type            slip;
    }
    top
    {
        type            slip;
    }
    obstacle
    {
        type            zeroGradient;
    }
    defaultFaces
    {
        type            empty;
    }
    procBoundary1to0
    {
        type            processor;
        value           nonuniform List<scalar> 
32
(
1
1
1
1
1
1
1
1
1
1
1
1
1
1
1
1
1
1
1
1
1
1
1
1
1
1
1
1
1
1
1
1
)
;
    }
    procBoundary1to2
    {
        type            processor;
        value           nonuniform List<scalar> 
28
(
11.28437696
11.28340203
11.28284218
11.28246684
11.28345919
11.28566469
11.28943528
11.29526388
11.30644685
11.32921339
11.36927729
11.42589507
11.4921294
11.5598618
11.621488
11.66848149
11.69519881
11.67907326
11.62326928
11.51128312
11.376295
11.28078952
11.23956081
11.28762655
11.39981107
11.51680421
11.5674246
11.55738681
)
;
    }
    procBoundary1to7
    {
        type            processor;
        value           nonuniform List<scalar> 
72
(
1
1
1
1
1
1
1
1
1
1
1
1
1
1
1
1
1
1
1
1
1
1
1
1
1
1
1
1
1
1
1
1
1
1
1
1
1
1
1
1
1
1
1
1
1
1
1
1
1
1
1
1
1
2.502300126
2.502300126
10.6063616
11.7054068
11.61284248
11.54920074
11.4946105
11.45546376
11.44941321
11.44941321
11.48604238
11.46490574
11.45886882
11.46326009
11.46813384
11.47028157
11.47028157
11.4477659
11.44240666
)
;
    }
    procBoundary1to8
    {
        type            processor;
        value           nonuniform List<scalar> 9(11.51857921 11.44967623 11.39353662 11.38043367 11.42881843 11.47283725 11.48769837 11.47626108 11.45563831);
    }
}


// ************************************************************************* //
