/*--------------------------------*- C++ -*----------------------------------*\
  =========                 |
  \\      /  F ield         | OpenFOAM: The Open Source CFD Toolbox
   \\    /   O peration     | Website:  https://openfoam.org
    \\  /    A nd           | Version:  7
     \\/     M anipulation  |
\*---------------------------------------------------------------------------*/
FoamFile
{
    version     2.0;
    format      ascii;
    class       volScalarField;
    location    "4";
    object      T;
}
// * * * * * * * * * * * * * * * * * * * * * * * * * * * * * * * * * * * * * //

dimensions      [0 0 0 1 0 0 0];

internalField   nonuniform List<scalar> 
2225
(
0.7561042996
0.7566145495
0.7620644776
0.7967103422
0.8529096982
0.9202030971
0.9679643743
1.037470239
1.203058348
1.314163735
1.367496062
1.393983416
1.400280492
1.398260316
1.39108438
1.384794111
0.7714836144
0.7713177293
0.7707741658
0.7692040808
0.7681796309
0.7680411658
0.7675309775
0.7660414979
0.7652674771
0.7651249089
0.7645086157
0.7631423572
0.7627109576
0.7625314482
0.7616497594
0.7605381853
0.7600605706
0.7592611759
0.7587779683
0.7593782985
0.7636580764
0.7887225103
0.8336477372
0.880966497
1.010241782
1.178255315
1.320244664
1.379837477
1.389655149
1.387897869
1.384918351
1.379277621
0.7761984274
0.775655987
0.7754747796
0.7745834872
0.7728559397
0.7723522482
0.7721573842
0.7712161188
0.7696900321
0.7693198203
0.7690170571
0.7678866261
0.766706967
0.7664661383
0.7659959067
0.7646093836
0.7640524078
0.7637088507
0.7626946353
0.7614621127
0.7616557578
0.7621396201
0.7645504355
0.7725521792
0.8073914658
0.9570567877
1.208761162
1.388706299
1.384602975
1.383177326
1.379385594
1.374026444
0.7818430248
0.7802209476
0.7799152168
0.7795250924
0.7781296207
0.7766838557
0.7764582994
0.7760435112
0.7746098694
0.7735624083
0.7733453415
0.7727256052
0.7713018611
0.7707435295
0.7705087902
0.7696502986
0.7683763367
0.7680138647
0.7675689003
0.7661534899
0.7650633836
0.7646791569
0.7640200724
0.763913892
0.7645388272
0.7767605359
0.9186121346
1.301162975
1.420157547
1.414510606
1.402944697
1.385161905
0.7870517214
0.7851174015
0.7840825057
0.7839403932
0.7832681835
0.7814680689
0.7806164636
0.7804187228
0.7795913866
0.7779616081
0.7774590352
0.777138058
0.7760004226
0.7747827758
0.7744727255
0.7739684574
0.7726564708
0.7720025781
0.7718277879
0.7711787345
0.7698139911
0.7692663191
0.7686270316
0.7673831818
0.7663266754
0.7664822896
0.7717365962
0.977426787
1.368788673
1.431511185
1.423388558
1.407665651
0.7922275599
0.7909846022
0.7889927074
0.7883760855
0.7880347701
0.786793817
0.785028326
0.7846053076
0.7841891916
0.7827663855
0.7814720275
0.7811695717
0.7805197758
0.7789978431
0.7782991982
0.7779871564
0.7770249263
0.7756511
0.7753425339
0.7750133306
0.7738866774
0.7729410517
0.7728034345
0.7721896554
0.7708892847
0.76975582
0.7698146018
0.7796166952
1.053129223
1.356149834
1.490571545
1.466354227
0.7963751075
0.7958290973
0.7940801104
0.7925075221
0.7922762654
0.791740518
0.7900209396
0.7888185831
0.788532025
0.7877322466
0.7860126114
0.7853406604
0.7849870844
0.7838426887
0.7824920025
0.78213819
0.7816044554
0.7801615649
0.779183891
0.778900159
0.7781720468
0.7766476841
0.7761524529
0.7759278314
0.7749924856
0.7739578331
0.7730102364
0.7730433621
0.7917871166
1.017847505
1.361198327
1.498051354
0.8008785943
0.8006154614
0.799679254
0.7975688909
0.7965334713
0.7961951427
0.795120499
0.7932133759
0.7925885549
0.7921672105
0.7907889502
0.7893678377
0.7890137338
0.7883739249
0.7868115151
0.7860428238
0.7857610496
0.7848606767
0.783415184
0.7829903076
0.7826372792
0.781498643
0.7802211143
0.7799378209
0.7794202476
0.778125931
0.7772972065
0.7762113012
0.7761677493
0.7860538969
0.9886606523
1.458770311
0.8055872436
0.8048388538
0.8043482118
0.8028637135
0.8008417107
0.8003391092
0.7998649657
0.7982771894
0.7967820056
0.796402676
0.7956323571
0.7938683591
0.793016913
0.7926119467
0.7914443241
0.7899300063
0.7895410732
0.7890510122
0.7876057009
0.786508812
0.7862729146
0.7856638071
0.7841850748
0.7835383519
0.7833407958
0.7824674237
0.7812902358
0.7808069749
0.7797495619
0.7792522521
0.7869263943
1.301314157
0.8108675424
0.8090529975
0.8086887341
0.8080361011
0.8061125882
0.8045895358
0.8041744489
0.8032426706
0.8012796005
0.8004153241
0.7999815943
0.7986816406
0.7971210264
0.7966855738
0.7960615342
0.7944511072
0.7934608039
0.7931494258
0.7922835204
0.7906438506
0.7900260312
0.7896988661
0.7885957084
0.7870681569
0.7866936176
0.7862465302
0.7848374161
0.7840799799
0.7837288321
0.782432264
0.7822034403
0.9721803277
0.816615787
0.8143307488
0.8128957779
0.8123913926
0.8112372184
0.8090407211
0.8081185801
0.8076748666
0.8062502944
0.8045100727
0.8040462762
0.8033450375
0.8015991313
0.80062959
0.8002430836
0.7991614184
0.7975093328
0.7969764499
0.7965091352
0.795131832
0.7937641147
0.7934763332
0.7929641218
0.7915046237
0.7904469446
0.7901837807
0.7893901331
0.7878772402
0.7873666737
0.7868089287
0.785225353
0.8044847803
0.8211492102
0.8196797605
0.8173351525
0.8164819968
0.8160178352
0.8144970479
0.8125983542
0.8120612147
0.8112921497
0.809402554
0.8082132504
0.8076989974
0.8064377731
0.8046894203
0.804139444
0.8035503787
0.8019666187
0.8006968516
0.8003389856
0.7995719987
0.797829518
0.7969512877
0.796671301
0.7957777389
0.794164324
0.7936683842
0.7933236322
0.7921231585
0.7910127706
0.7906428472
0.7893418034
0.7894700466
0.8254681666
0.8248220735
0.8230426651
0.8209048838
0.8202064054
0.8193475361
0.8172490814
0.8158292865
0.8153551959
0.8141398814
0.8122827009
0.8116874875
0.811046447
0.8093717731
0.8081777046
0.8077594254
0.8067860139
0.8050039228
0.8042464647
0.8038250774
0.8026233398
0.8009356392
0.8003921715
0.7999068762
0.7984619447
0.7970347715
0.7967397618
0.7961168618
0.7946489216
0.7940293894
0.7935508272
0.7921253961
0.8298662692
0.829070333
0.8281135496
0.8258902399
0.8242057575
0.8237456508
0.8226071089
0.8204746711
0.8196631923
0.8189920283
0.8172373267
0.815794407
0.8152108995
0.8140331284
0.8121453746
0.8114026173
0.8108354898
0.809338458
0.8077625226
0.8073629689
0.8067669025
0.8051535129
0.8038973725
0.8036107788
0.8029141663
0.8012284043
0.8003971043
0.8000681239
0.7990138707
0.7976594153
0.797177706
0.7959767974
0.8347829027
0.8329583625
0.8324955612
0.8313814341
0.8290271882
0.8279611613
0.8273176379
0.8255519844
0.8237450665
0.8230934802
0.8219701834
0.8200339215
0.8191972405
0.8185565402
0.8169564564
0.8154272044
0.8149160659
0.8140597005
0.8121605248
0.8110117285
0.8106390424
0.8096820839
0.807799157
0.8070187867
0.8066675076
0.8054996096
0.8038849334
0.8034502633
0.8029016971
0.8015178063
0.8006708679
0.7996183198
0.8408157237
0.8381810502
0.8368339013
0.8361647733
0.8343892779
0.8320679501
0.8313116715
0.8303614715
0.828274871
0.8271554877
0.8264923806
0.8249032367
0.8233314368
0.822695437
0.8216331189
0.8196924304
0.8186920469
0.8181726218
0.8168948994
0.8149875647
0.8143121982
0.8138288079
0.8124081012
0.8106516243
0.8102140594
0.8096723393
0.8080828628
0.8069159363
0.8065275902
0.8056076319
0.8043943337
0.8031032262
0.8454895914
0.8435510631
0.8408931612
0.8400809281
0.8393001456
0.8371283014
0.8355478411
0.8349431641
0.8334977501
0.8315588612
0.8306617592
0.8295170426
0.8275182502
0.8263954396
0.8256997138
0.8241588868
0.8223033845
0.8217423932
0.8211067103
0.819407627
0.8178244583
0.8174381083
0.8167585409
0.8149411195
0.8137192119
0.8134186203
0.8125353183
0.8108470843
0.810136166
0.8095683763
0.8084912018
0.8067906114
0.8496304165
0.8488286522
0.8465086384
0.8444258712
0.8438351826
0.8425542869
0.8401491475
0.8389567781
0.8379783232
0.8360613916
0.8346894409
0.8338954583
0.8323553874
0.8306239376
0.8299308743
0.829004764
0.8270275404
0.8255829512
0.8250621178
0.8240372994
0.8219592676
0.8208579577
0.8204983337
0.8194315773
0.8174356137
0.8167294657
0.8162863556
0.814906548
0.8135233211
0.8129976419
0.8123085482
0.8106207413
0.8541398429
0.8533830137
0.851984223
0.849193994
0.8476779457
0.8469161662
0.8450767645
0.8430955043
0.8422336763
0.8409212818
0.8391133568
0.838102931
0.8369339144
0.8348877317
0.8335605829
0.8328888005
0.8315437489
0.8294175414
0.8285818387
0.8281068341
0.8267316073
0.8246863677
0.8240582249
0.8235668818
0.8220211732
0.8202905445
0.8198395788
0.8190868456
0.8174224327
0.8164179549
0.8158549858
0.8143615263
0.8586883991
0.8570604362
0.8563757915
0.8546513821
0.8520777691
0.8511624131
0.8501838058
0.8481435906
0.8466034228
0.8454134484
0.8435841028
0.8421028151
0.8411370791
0.839520858
0.8374764647
0.8367035619
0.8359933022
0.8342236966
0.8323240568
0.8317634975
0.8310408001
0.8291664523
0.8274876278
0.8271017154
0.826371301
0.8244625315
0.8233462794
0.822935699
0.8217908649
0.820230373
0.8194905171
0.8181042268
0.8647379517
0.8619134027
0.8608305419
0.859871579
0.8575435469
0.8553300155
0.8542953992
0.8527786686
0.8508515444
0.8495217951
0.8479923128
0.8462489172
0.8453036118
0.8442534085
0.842212368
0.8405575722
0.8399231767
0.8388522297
0.8366574065
0.8351995051
0.834751898
0.8337491271
0.8315694815
0.8304587822
0.830081639
0.8288892667
0.8268961556
0.8262286412
0.8256070901
0.8241193386
0.8229965921
0.8216116855
0.8696930884
0.8672086528
0.8646425162
0.8636725659
0.8624138933
0.8600212613
0.8583120898
0.8572163366
0.8556832431
0.8541857679
0.8527246942
0.8507562647
0.8492617372
0.8483401795
0.8468310163
0.8444923821
0.8433564891
0.8427942029
0.8414256468
0.8391814908
0.8383077462
0.8378049616
0.8363524582
0.8342066086
0.8334840687
0.8329032376
0.8312054784
0.8296087985
0.8291161925
0.8281713875
0.8268472658
0.8251895518
0.8740413393
0.8727230168
0.8699985701
0.8679190582
0.8670588063
0.8655312794
0.8632152669
0.8614897803
0.8600050493
0.8584531744
0.8569951312
0.8551535639
0.8531136872
0.8521198247
0.8512765385
0.8494818214
0.8473472145
0.8465894557
0.8458313308
0.8439525662
0.8418521691
0.8412240045
0.8405275104
0.838651093
0.8369319705
0.8365142901
0.8356645737
0.8337213803
0.8326460839
0.8319658736
0.8308440677
0.8288934557
0.8779640133
0.8770267628
0.8754051434
0.8725623647
0.8707445684
0.8696970725
0.8679989177
0.865834424
0.8640261084
0.8625831341
0.8614094704
0.8600373042
0.8579115218
0.8561314498
0.8553195954
0.8541584942
0.8518987345
0.8500684384
0.849423906
0.8484156147
0.8462018993
0.8446167778
0.8441733142
0.843172662
0.8409591862
0.839755174
0.8392559836
0.8378960944
0.8360887047
0.8352561347
0.8344538606
0.8325424669
0.8829890918
0.8810651668
0.8800834594
0.8782165945
0.8753557713
0.8737598244
0.8727242751
0.8710710591
0.8689034301
0.8669229953
0.865536594
0.8643420908
0.862590303
0.8601932479
0.8587346005
0.8579620456
0.8565758016
0.8541976106
0.8529185359
0.8523762679
0.8510743384
0.8487148921
0.8475660561
0.8470104956
0.8455561735
0.8433583226
0.8426222561
0.8419744864
0.8403395824
0.8389087806
0.8382082446
0.8365134856
0.8886030723
0.8854798471
0.8839104379
0.8828581319
0.8807267857
0.8779432722
0.8764576752
0.8753284127
0.8735817974
0.8712760803
0.8693024626
0.8681617535
0.8670725734
0.8652120911
0.8629188299
0.8618618097
0.8610430826
0.8592718316
0.856892915
0.8558555499
0.8550966043
0.8533176309
0.8510445843
0.8503555089
0.8497039384
0.8478409953
0.846078148
0.845495524
0.844460761
0.8426510551
0.8415775219
0.8399769601
0.8935677532
0.8911745297
0.8881722595
0.8868801862
0.8857581223
0.8834599093
0.880716448
0.8793357797
0.8782308649
0.8764446168
0.8740415357
0.8722361301
0.8712001355
0.8698745651
0.8676062775
0.8654330779
0.8644682977
0.8634234583
0.8613248017
0.859216298
0.858561094
0.8577375583
0.8556499091
0.8537695524
0.8532092054
0.8521899549
0.8500133333
0.8486930221
0.8480104942
0.8466359886
0.8452221708
0.8435077974
0.8980027381
0.8964879088
0.8936134052
0.890838815
0.8896784648
0.88834182
0.8857964436
0.8832219919
0.8819706146
0.8807842738
0.8788074356
0.8763228589
0.8746818721
0.8736879047
0.8722744541
0.8699236492
0.8681070094
0.8673701179
0.8662066655
0.8638598811
0.8621161044
0.8614638973
0.8602464531
0.8578174184
0.8564220339
0.8558805512
0.8545188685
0.8524831839
0.8515752392
0.850690958
0.849326457
0.8471962322
0.9016270497
0.9004722778
0.898868532
0.895927663
0.8935099591
0.8924592943
0.8910085905
0.8883997018
0.885989992
0.8847959444
0.883554391
0.8814664643
0.8790007133
0.8775919437
0.8766084365
0.8749148796
0.8723950503
0.8708424749
0.8699922144
0.8684329873
0.8658923812
0.8645703491
0.8639620952
0.8624701759
0.8600745895
0.8591714103
0.8584619239
0.8566853272
0.8549352754
0.8540076721
0.852974947
0.8508109457
0.9068565138
0.9047466794
0.9036182134
0.9016162097
0.898455858
0.8963437148
0.8951771583
0.8934049396
0.8906645594
0.8884664144
0.8873062456
0.8859371943
0.8836788264
0.8812785941
0.8800060893
0.8789312937
0.8770304301
0.8745401592
0.8733930047
0.872617586
0.8708627072
0.868428638
0.8675082378
0.8667389068
0.8647732489
0.8626235106
0.8618481698
0.8608245897
0.8589164868
0.8574886756
0.8566580952
0.8547346829
0.912237605
0.9088576116
0.9070764354
0.9058440544
0.903633836
0.9006521625
0.8988883154
0.897705549
0.8958671432
0.8932026936
0.8911445023
0.8899964461
0.8885635387
0.8861912961
0.8839179927
0.8828410129
0.8816940115
0.8794901236
0.8771490141
0.8761709336
0.8751317079
0.872904337
0.8706692383
0.8699278882
0.8689399998
0.8667028654
0.8650959773
0.8644184597
0.8631413398
0.8613011099
0.8601206999
0.8582300849
0.9173724066
0.9146904518
0.9114961328
0.9100656863
0.9087434817
0.9062272999
0.9033528025
0.9017067284
0.9003257128
0.8982083999
0.8954914709
0.8935781666
0.8924150122
0.8907973631
0.8882390983
0.8861949132
0.8852242786
0.8838982349
0.8814597988
0.8794102932
0.8786394879
0.8774983004
0.8750757722
0.8733174275
0.8726956543
0.871390467
0.8690785855
0.8677723389
0.866877289
0.8652965456
0.8637779592
0.8617491641
0.9214399048
0.9197881952
0.91670438
0.9137660712
0.9123815664
0.9107782424
0.9080849451
0.9054616038
0.9039882034
0.9026021719
0.900504711
0.8978678064
0.8961194638
0.8949967757
0.8932727437
0.8905897108
0.8888136854
0.8879309556
0.8864041106
0.8837664521
0.8821035362
0.8813245496
0.8797884468
0.8771870996
0.8758123496
0.8750429973
0.8733390307
0.8712202469
0.8701553822
0.8690597828
0.8676623188
0.8654058262
0.9252990683
0.9238822885
0.9220999353
0.918948298
0.9163302236
0.9150990479
0.9134226443
0.9106350527
0.9081673745
0.9067288807
0.9051859209
0.9028136491
0.9001461637
0.8985862344
0.8973997107
0.8953748163
0.8926235279
0.8911596868
0.8902277961
0.888401825
0.885740648
0.8844413102
0.8836140591
0.8818160605
0.8793710991
0.87837143
0.8774859186
0.8756176598
0.8738005388
0.8726602132
0.8714714842
0.869122301
0.9304341594
0.9278371968
0.9264435496
0.924361145
0.9210380505
0.9186711175
0.9173577366
0.9154058872
0.9124942339
0.9101782832
0.9088301178
0.9072691477
0.9048538801
0.9023200798
0.9009992411
0.8998189078
0.8976356398
0.8949517432
0.8937708458
0.8927819227
0.890660995
0.8881406401
0.8871315639
0.8861308291
0.8839526997
0.8817971945
0.8808522256
0.8796094554
0.8776390249
0.8759832585
0.8748810352
0.8727193431
0.9358396572
0.9324390099
0.930097193
0.9286793118
0.9264930557
0.9232035442
0.9210476325
0.9197981689
0.9178281516
0.9148962696
0.9127827721
0.9115323808
0.9098215905
0.9071173187
0.90471615
0.9035115952
0.9021250497
0.8995885505
0.8971174835
0.8960955948
0.8948882676
0.8924472617
0.8902461269
0.8893704898
0.888154976
0.8858854565
0.8840911577
0.8831315979
0.8817405741
0.8798877623
0.8785716659
0.8764379542
0.9405856723
0.9380277872
0.9346294461
0.9325403133
0.9311006517
0.9286685606
0.92535071
0.9233814093
0.9220391262
0.9197939859
0.9167444027
0.914790396
0.9135535751
0.9117176656
0.9089468545
0.9068213164
0.9057640606
0.9043046668
0.9016568144
0.8994939543
0.898606254
0.8972338575
0.8946224703
0.892783055
0.8919222294
0.8904199076
0.8881453179
0.8865882586
0.8854310824
0.8837910351
0.8821843198
0.8798592423
0.9443988991
0.9426574923
0.9399397991
0.9366225971
0.9346767404
0.9331639462
0.9306528102
0.9274278928
0.9256320131
0.9243077071
0.922009758
0.9189596531
0.9172666671
0.9161177883
0.9141216469
0.9112241373
0.9093399779
0.908247073
0.9064529304
0.9035981923
0.9017866863
0.9008482969
0.8991231228
0.8964788053
0.894954224
0.8939554523
0.8922387495
0.8901401167
0.888736152
0.887407856
0.8859597404
0.8835304958
0.9486320798
0.9466333557
0.944862759
0.9419981948
0.9387766899
0.937017688
0.9354535174
0.9327168704
0.9295703339
0.9279454744
0.9265193221
0.9239417667
0.9209069175
0.9193401339
0.9180659957
0.9158384825
0.9129848783
0.9113937613
0.9103089862
0.9083825654
0.9055899587
0.9041039966
0.903141953
0.9012362016
0.8987604103
0.8974343731
0.8962693835
0.8944311982
0.8925147401
0.8910624873
0.8897597981
0.8872621608
0.9538645357
0.9506376146
0.9487241953
0.9468336651
0.9438462182
0.9407649254
0.9390832475
0.9373990323
0.9345794476
0.9315727338
0.930062976
0.9286026115
0.9259784332
0.9230501128
0.9216747604
0.9204056499
0.9180246655
0.915270454
0.9139125386
0.9127151595
0.9104228171
0.9077239795
0.9064267213
0.9052392726
0.9030443871
0.9007783239
0.899497923
0.8981184022
0.8962447764
0.8944295848
0.893104899
0.8907625587
0.9557515064
0.952662481
0.9508399385
0.9488800888
0.9457853931
0.9428766813
0.9413136286
0.9395462102
0.936556139
0.9337203533
0.9323126407
0.9307151754
0.9278583313
0.9250987325
0.9237895324
0.9223062563
0.9196618997
0.9170752129
0.9158570165
0.9145523247
0.9121623336
0.9097366288
0.908584353
0.9072599283
0.9050595437
0.9030592221
0.9017643766
0.9003021568
0.8984427358
0.8969018982
0.8944748219
0.9607918317
0.9575844864
0.9546428688
0.9528453479
0.9507501351
0.9475912127
0.9448461418
0.9432878417
0.9413824507
0.9383613115
0.9356978019
0.9343141485
0.9326199618
0.9297288204
0.9271675978
0.9259739173
0.9244462104
0.9216956161
0.9193522972
0.9182663859
0.916793956
0.9142050931
0.912024092
0.9108395035
0.9092462684
0.9069663609
0.9050998678
0.9036977332
0.9020576533
0.9004269557
0.8978552783
0.9649441264
0.9626344935
0.9594098806
0.9566163512
0.9548422761
0.95265959
0.9494607313
0.9468901778
0.9453813504
0.9433785283
0.9402722662
0.9378201532
0.9364867457
0.9346267788
0.9315738131
0.9292539775
0.9280638531
0.9262820428
0.9233859516
0.9212586068
0.9201207264
0.9184344666
0.9158621663
0.9139710108
0.9127657543
0.9111046548
0.9089754667
0.9072378798
0.9057181302
0.9042617384
0.9016721051
0.9689124129
0.9668039969
0.9644135732
0.9612014721
0.9585373439
0.9567481196
0.9544505099
0.9512545195
0.9488244191
0.9472712139
0.9451211536
0.9420211767
0.939750025
0.9383920951
0.9364110976
0.9333740595
0.9312566155
0.9300760703
0.9282040897
0.9253389311
0.9234695522
0.9223524689
0.9205188304
0.9179729213
0.9162373383
0.9149067087
0.9130806756
0.9109949497
0.9092132717
0.9077612933
0.9051394169
0.9735534085
0.9707294176
0.9686105152
0.9661602313
0.9629775306
0.960426755
0.9586286262
0.9562515586
0.9530721623
0.9507971298
0.9492470053
0.946982891
0.943871786
0.9418104305
0.9404595546
0.9382999206
0.9352414197
0.933344358
0.9320947772
0.9299655995
0.9271157708
0.9254027802
0.9241326253
0.9221103449
0.9196713261
0.9180328065
0.9166133585
0.9148195946
0.912859857
0.9113275499
0.9087737433
0.9782269988
0.9752322731
0.9724944763
0.9703656498
0.9678641498
0.9647255257
0.9622706365
0.9604402227
0.9579650307
0.9548325709
0.9526839379
0.9510670589
0.9486615754
0.9456151687
0.9436871276
0.9422503815
0.9399638396
0.937022115
0.9352784282
0.9339551229
0.9317499161
0.9290237131
0.9274557454
0.9261473192
0.9240948576
0.9218017898
0.9201925728
0.9186777275
0.9167801989
0.9150530819
0.9123361594
0.9822722509
0.9798026812
0.9768705814
0.9742128797
0.9720719502
0.9695363051
0.9664475552
0.9640851877
0.962223363
0.9596679027
0.9565983606
0.9545774536
0.9529264644
0.9504122302
0.9474475258
0.9456689016
0.9441851303
0.9417441394
0.9388996397
0.9373012472
0.9358770806
0.9335029769
0.9308878776
0.9293414205
0.9278642374
0.9257182399
0.9235183591
0.9218866486
0.920240515
0.9185937654
0.9158330858
0.9861017496
0.9837826717
0.9813324987
0.9784730386
0.9758809093
0.9737320881
0.9711635162
0.9681404208
0.9658603143
0.9639515595
0.9613118834
0.9583353704
0.9563964016
0.9546547609
0.9520365075
0.9491974414
0.9474889293
0.9458832059
0.9433593126
0.9406621004
0.9391102145
0.9375898976
0.935228158
0.932771196
0.9312284284
0.9296953384
0.9276171945
0.9255664188
0.9238720924
0.9223799046
0.9196013925
0.9899004754
0.9874989125
0.9852314599
0.9828179152
0.9800289305
0.9775093301
0.9753467465
0.9727551617
0.969802965
0.9675975918
0.9656419562
0.9629438522
0.9600726613
0.9582024396
0.9563925626
0.9537090276
0.9509919218
0.9493653012
0.9476931185
0.9450959143
0.9425340088
0.9410191889
0.9394032971
0.9369908899
0.9346422928
0.9330517118
0.9313929419
0.9293058443
0.9272383593
0.9256584102
0.9229499549
0.9931950927
0.9911073097
0.9888269401
0.986620711
0.9842495619
0.9815439562
0.9790881045
0.9769204671
0.9743087242
0.971442514
0.9692886032
0.9672766132
0.9645378103
0.9617815652
0.9599449951
0.9580408316
0.9553153734
0.9527195833
0.9510910183
0.9493080894
0.9467122541
0.9442802022
0.9427180409
0.9410102044
0.9386735108
0.936448046
0.9347908169
0.9331128861
0.931076138
0.9293251354
0.9265759241
0.9958066154
0.9941802897
0.9922388657
0.9900827497
0.9879486058
0.9856315809
0.9830085623
0.9806211346
0.978445803
0.9758353686
0.9730517648
0.9709400654
0.9688714139
0.9661227703
0.9634688592
0.9616522528
0.9596863038
0.9569584694
0.954466553
0.9528451949
0.9510036657
0.9484232247
0.946097696
0.9445117209
0.9427489782
0.9404353206
0.9382760026
0.9365599085
0.9347545214
0.9329539098
0.92998998
0.9977588765
0.9965533263
0.9950821296
0.9932865622
0.9912656065
0.9892125529
0.9869588215
0.984430929
0.9821001791
0.9799263346
0.9773274282
0.9746331039
0.9725436989
0.970425273
0.9676858994
0.9651253322
0.9632969415
0.9612646494
0.9585622668
0.9561582526
0.9544852697
0.9525641258
0.9500328471
0.9477893749
0.9461171017
0.9442990591
0.9420794682
0.9400022968
0.9381749682
0.9365400829
0.9336214001
0.9990007616
0.9982501683
0.9972117874
0.9958912888
0.9942558287
0.9923688006
0.9904096596
0.9882340454
0.9857985365
0.9835329855
0.9813579271
0.9787944044
0.9761766242
0.9741020533
0.9719439166
0.9692419444
0.966753171
0.9649032056
0.9628315193
0.9601756957
0.9578438971
0.9561318566
0.9541846475
0.9517128888
0.9495254979
0.9478106757
0.9459612221
0.943821547
0.9417264464
0.9400630633
0.9371637416
0.9996420271
0.9992690219
0.9986608031
0.9977776758
0.9966170642
0.9951355633
0.9933972463
0.9915347867
0.9894507377
0.987118046
0.9849086925
0.982749188
0.9802255165
0.9776891375
0.9756113831
0.9734276825
0.970773934
0.9683512482
0.9664592993
0.9643553803
0.961754747
0.9594750801
0.9576973491
0.955709065
0.9533154411
0.9511568186
0.949357871
0.9474750549
0.9453545913
0.9435371688
0.9406027753
0.9999031714
0.9997586919
0.9994782548
0.9989948316
0.9982612021
0.9972516068
0.9959349621
0.9943398288
0.9925916557
0.9906075079
0.9883777378
0.986235216
0.9840910737
0.9816307511
0.97916043
0.9770779773
0.9748806993
0.972286862
0.969915114
0.9679822948
0.9658638716
0.9633341799
0.9610837644
0.9592588546
0.9572603651
0.9549514817
0.9528207379
0.950987163
0.949035207
0.9471993334
0.9441564153
0.9999813168
0.9999409039
0.9998421083
0.9996366499
0.9992628248
0.9986628084
0.9978057174
0.9966429159
0.9952058706
0.9935705654
0.9917015293
0.9895835959
0.9875007826
0.9853948421
0.9829913496
0.9806002445
0.9784991478
0.9763047612
0.9737727924
0.9714415103
0.9694691067
0.9673381469
0.9648831762
0.9626528668
0.9607642171
0.9587432745
0.9565034954
0.9544134476
0.9524621414
0.9506998937
0.9476293531
0.9999975684
0.9999898569
0.9999651688
0.9998997986
0.9997539034
0.9994713953
0.9989936254
0.9982750496
0.9972720201
0.9959815977
0.9944808645
0.9927247089
0.9907281845
0.9887137165
0.986646901
0.9843235596
0.9819894736
0.9798880862
0.9776945935
0.9752367786
0.9729303064
0.9709249815
0.968792597
0.966414194
0.964204057
0.9622655163
0.9602341464
0.9580742997
0.9559604694
0.9542042855
0.9511684055
0.9999997988
0.9999988461
0.9999947122
0.9999802013
0.9999384817
0.9998379565
0.9996307371
0.9992578823
0.9986710321
0.9978138835
0.9966805935
0.9953078851
0.993682387
0.9918084297
0.9898671605
0.9878569911
0.9856060772
0.9833425526
0.9812355752
0.9790592731
0.9766670728
0.9743894215
0.9723477035
0.9702157899
0.9679051827
0.9657212264
0.9637316324
0.9616986534
0.9595238248
0.9576623186
0.954583934
0.9999999899
0.9999999179
0.999999477
0.9999973564
0.9999891743
0.9999634855
0.9998966276
0.9997485135
0.9994663627
0.9989940985
0.9982815492
0.9972909728
0.9960640843
0.9945632414
0.992821623
0.9909664206
0.9890112443
0.9868560363
0.9846403276
0.9825526134
0.9803881427
0.9780689136
0.9758170938
0.9737477503
0.9716169942
0.9693665533
0.9672053709
0.9651994421
0.9631084808
0.9612111502
0.9580599605
0.9999999997
0.9999999965
0.9999999682
0.999999774
0.9999987348
0.9999943138
0.9999791026
0.9999361237
0.9998337253
0.9996250849
0.9992565612
0.9986698307
0.9978293473
0.9967326595
0.9953789441
0.9937606141
0.9920038303
0.9901221785
0.9880468096
0.985907981
0.9838230098
0.9816920359
0.9794270666
0.9772149128
0.9751233191
0.9729980554
0.9707900931
0.968664932
0.966578051
0.9647193807
0.9615267885
1
0.9999999999
0.9999999989
0.9999999883
0.999999907
0.9999994214
0.9999971361
0.9999884853
0.9999618722
0.9998932617
0.9997438621
0.9994619713
0.9989931091
0.9982844415
0.997333021
0.9961099223
0.9946347672
0.9929769257
0.9911748456
0.9891987804
0.98711642
0.9850704059
0.9829551646
0.9807552548
0.978572225
0.9764772224
0.9743557335
0.9722028369
0.9700381127
0.9681741332
0.9649884405
1
1
1
0.9999999996
0.9999999959
0.9999999636
0.9999997477
0.9999986185
0.9999939076
0.9999780255
0.9999337337
0.9998295732
0.9996210825
0.9992514268
0.9986730917
0.9978485975
0.9967756685
0.9954276737
0.9938883828
0.9921766608
0.9902848185
0.9882933273
0.9862659988
0.9842001324
0.982038112
0.9798989622
0.9777976463
0.9757041084
0.9735253705
0.9716193885
0.9684070978
1
1
1
1
0.9999999999
0.9999999986
0.9999999865
0.9999998952
0.9999993631
0.9999969077
0.9999878119
0.9999601874
0.9998901606
0.9997393723
0.9994579515
0.9989891714
0.9983005842
0.997353922
0.9961577885
0.9947270454
0.9931187151
0.9913281501
0.9894012648
0.9874403627
0.9853956541
0.9833005097
0.9811805338
0.9791085843
0.976967188
0.975059925
0.9718202006
1
1
1
1
1
1
0.9999999996
0.9999999952
0.9999999586
0.9999997198
0.9999984973
0.9999934998
0.9999769392
0.9999313203
0.9998261301
0.9996155329
0.999249399
0.9986747826
0.997871067
0.9967995776
0.995506829
0.9939994488
0.9923054187
0.9904772268
0.9885497363
0.9865759814
0.9845074459
0.9824524693
0.9803290084
0.9784468295
0.9752057018
1
1
1
1
1
1
1
0.9999999999
0.9999999984
0.9999999845
0.9999998826
0.9999993017
0.9999966763
0.9999871184
0.9999585541
0.9998870951
0.9997353692
0.9994521168
0.9989925707
0.9983047041
0.9973830042
0.9962033414
0.9948214361
0.9932327994
0.9914804547
0.9896423491
0.9876893753
0.9857111837
0.983616972
0.9817644134
0.9785391019
1
1
1
1
1
1
1
1
1
0.9999999995
0.9999999945
0.9999999532
0.9999996903
0.9999983716
0.9999930884
0.9999758149
0.999929171
0.9998220586
0.9996118739
0.9992445317
0.998683653
0.997877309
0.9968461011
0.9955687474
0.9940947817
0.9924492903
0.9906563027
0.9888080711
0.9867919982
0.9849917573
0.9817901554
1
1
1
1
1
1
1
1
1
1
0.9999999999
0.9999999981
0.9999999823
0.9999998691
0.9999992375
0.9999964376
0.999986426
0.999956898
0.9998843523
0.9997302914
0.9994504771
0.9989879967
0.9983203061
0.9973980742
0.9962641415
0.9948950303
0.9933406578
0.9916651651
0.9897854045
0.9880733143
0.984902342
1
1
1
1
1
1
1
1
1
1
1
1
0.9999999994
0.9999999936
0.9999999474
0.999999659
0.9999982427
0.9999926593
0.9999747559
0.9999267918
0.9998189402
0.9996060263
0.9992461448
0.9986791314
0.99790415
0.9968709797
0.9956326176
0.9941882538
0.9925070259
0.9909121155
0.9877762138
1
1
1
1
1
1
1
1
1
1
1
1
1
0.9999999998
0.9999999978
0.9999999799
0.9999998548
0.9999991703
0.999996197
0.9999857125
0.9999554269
0.9998811374
0.9997278892
0.9994439696
0.9989951185
0.9983145429
0.9974224095
0.9962608042
0.9948285653
0.9933538933
0.9902188287
1
1
1
1
1
1
1
1
1
1
1
1
1
1
0.9999999999
0.9999999993
0.9999999927
0.9999999408
0.9999996239
0.999998091
0.9999921469
0.9999731849
0.9999231956
0.9998091237
0.9995892779
0.9991980028
0.9986028352
0.9977174696
0.9965285827
0.9951638824
0.9920450122
1
1
1
1
1
1
1
1
1
1
1
1
1
1
1
1
0.9999999998
0.9999999976
0.9999999778
0.999999841
0.9999990946
0.9999958172
0.9999841456
0.9999491621
0.9998620243
0.999668799
0.9993091599
0.9986748739
0.9977103389
0.996454171
0.9933503733
)
;

boundaryField
{
    inlet
    {
        type            fixedValue;
        value           nonuniform 0();
    }
    outlet
    {
        type            inletOutlet;
        inletValue      uniform 1;
        value           nonuniform List<scalar> 
71
(
1.38478797
1.379282323
1.374009025
1.385135939
1.407745452
1.466385394
1.498166092
1.45879792
1.301382867
0.9722874943
0.8044998699
0.7894681508
0.7921229681
0.795977265
0.7996220254
0.8031059991
0.8067887205
0.8106178571
0.814360155
0.8181051484
0.8216147291
0.8251908062
0.8288922892
0.8325393535
0.8365124038
0.8399796808
0.8435102018
0.8471956151
0.850808271
0.8547337863
0.8582319932
0.8617506035
0.8654050725
0.8691207428
0.8727190265
0.8764390666
0.8798602253
0.8835296574
0.8872612036
0.8907630484
0.8944755716
0.8978550485
0.9016714873
0.9051393872
0.9087743019
0.9123365246
0.9158324448
0.9196008071
0.9229505982
0.9265765485
0.9299893709
0.9336208334
0.9371642132
0.9406033087
0.944156109
0.947628879
0.9511685493
0.9545843366
0.9580598786
0.961526508
0.9649885077
0.9684072365
0.9718201654
0.975205652
0.9785391111
0.9817901724
0.9849023378
0.9877762085
0.9902188326
0.9920450107
0.9933503723
)
;
    }
    bottom
    {
        type            slip;
    }
    top
    {
        type            slip;
    }
    obstacle
    {
        type            zeroGradient;
    }
    defaultFaces
    {
        type            empty;
    }
    procBoundary35to29
    {
        type            processor;
        value           nonuniform List<scalar> 
33
(
0.7639517715
0.7962861208
0.8615980766
0.9429547336
0.9994057673
1.023861755
1.051259086
1.171455174
1.312144663
1.365868331
1.390520027
1.397523571
1.395165449