/*--------------------------------*- C++ -*----------------------------------*\
  =========                 |
  \\      /  F ield         | OpenFOAM: The Open Source CFD Toolbox
   \\    /   O peration     | Website:  https://openfoam.org
    \\  /    A nd           | Version:  7
     \\/     M anipulation  |
\*---------------------------------------------------------------------------*/
FoamFile
{
    version     2.0;
    format      ascii;
    class       volScalarField;
    location    "2.4";
    object      p;
}
// * * * * * * * * * * * * * * * * * * * * * * * * * * * * * * * * * * * * * //

dimensions      [1 -1 -2 0 0 0 0];

internalField   nonuniform List<scalar> 
2222
(
1.004253792
1.005322646
1.005142904
1.003477258
1.001489856
1.000684709
1.000893408
1.002087532
1.004269577
1.007396613
1.009796639
1.010661724
1.011000023
1.011184536
1.011069672
1.009982375
1.008400414
1.007938248
1.008239775
1.008683671
1.009550873
1.011626957
1.013973178
1.014641422
1.014909583
1.014886021
1.013969251
1.01178301
1.010313922
1.010228858
1.010827459
1.012514863
1.018131663
1.286844273
1.00369519
1.004568442
1.004068045
1.002661682
1.001172019
1.000453351
1.000639357
1.001483345
1.003531364
1.006553375
1.009338061
1.010348625
1.010572002
1.010482371
1.009787897
1.008338181
1.007512247
1.007726555
1.008227821
1.009005123
1.011108052
1.013833709
1.014498169
1.014614184
1.014623768
1.01425605
1.012502173
1.010637964
1.010406775
1.010668081
1.012257938
1.014250006
1.018336303
1.257842907
1.003111008
1.00343899
1.003009307
1.002467092
1.001287159
1.000529842
1.000593761
1.001451875
1.003307697
1.005982297
1.008769542
1.009804497
1.009869114
1.009516954
1.0086464
1.007631619
1.007272297
1.007702475
1.008624582
1.010482314
1.013250676
1.014200621
1.01421891
1.014244307
1.014154731
1.013043155
1.011010634
1.010448549
1.010557349
1.012093235
1.014150701
1.014980027
1.018091068
1.240807408
1.002196415
1.002259029
1.002987044
1.003187376
1.002267912
1.001102987
1.000763077
1.001246781
1.002780267
1.005381852
1.008195197
1.009171909
1.009316081
1.009126084
1.008310946
1.00739254
1.007351232
1.008183456
1.009939301
1.012412086
1.014000088
1.01417154
1.013887044
1.013603015
1.012634406
1.011133848
1.010902871
1.010875927
1.011885467
1.013906369
1.01441799
1.014782113
1.017071808
1.226765111
1.001711908
1.00202756
1.002992747
1.004085546
1.003281022
1.00156882
1.000659948
1.001003748
1.002472069
1.005095711
1.007887849
1.009081112
1.009287289
1.009125376
1.008216773
1.007532239
1.007881783
1.009096259
1.011103869
1.012799049
1.013752464
1.01381741
1.013525681
1.012470268
1.010755564
1.010673985
1.010935203
1.012033836
1.013485966
1.014082184
1.014157837
1.014318828
1.015222657
1.209430184
1.001384502
1.0018174
1.003522427
1.005123797
1.00411931
1.002049974
1.000821935
1.001031906
1.00248965
1.005069457
1.00779155
1.009076008
1.009249069
1.00905667
1.008237328
1.008034369
1.008464723
1.009516271
1.011109715
1.012586899
1.013301893
1.013065991
1.012097643
1.010536878
1.010516066
1.010953626
1.012159686
1.013437657
1.013685776
1.013613177
1.013482011
1.013156096
1.01364395
1.184674127
1.001025704
1.001822767
1.003870053
1.005340366
1.004638111
1.00274728
1.001399937
1.001461813
1.002779014
1.005231405
1.007743787
1.009064415
1.009159429
1.008869001
1.008242247
1.008304487
1.008629716
1.009489179
1.010921874
1.012293342
1.012491547
1.011723628
1.010397065
1.010070829
1.010482509
1.011877279
1.013466746
1.013686666
1.013341563
1.013030465
1.012359988
1.01187029
1.013037757
1.157873006
1.001305186
1.003597781
1.005121763
1.004675762
1.003190612
1.002194199
1.002109865
1.003157374
1.005398993
1.007840301
1.009008056
1.009042241
1.008711248
1.008349851
1.008249443
1.008481306
1.009293788
1.010696759
1.011527346
1.010949072
1.010163422
1.010181953
1.010404258
1.011557487
1.013092065
1.013558497
1.013424166
1.013057865
1.01205585
1.011193036
1.011471959
1.012753024
1.139879117
1.001061326
1.003067806
1.00452289
1.004318788
1.003057668
1.002791461
1.002650369
1.003464347
1.005318475
1.007754372
1.008968574
1.009018555
1.008701751
1.008528836
1.008059078
1.00829157
1.009110073
1.010235854
1.010185387
1.009724567
1.009827083
1.010271246
1.011432292
1.012927327
1.013383812
1.013338896
1.012998518
1.012128983
1.010953666
1.010927169
1.011337233
1.012739358
1.129620503
1.000850627
1.002532993
1.003590208
1.003401411
1.002837414
1.003023009
1.002954342
1.003707831
1.005411994
1.007722641
1.009065516
1.009186798
1.009021552
1.008326476
1.007775369
1.008038392
1.008877864
1.009264637
1.009224087
1.009608106
1.010096749
1.011248847
1.012523451
1.013155859
1.013270275
1.01310177
1.012185114
1.01105619
1.01115147
1.011450685
1.012147755
1.013487074
1.120788842
1.000410075
1.001184299
1.00169601
1.001880178
1.002642497
1.003220762
1.003369832
1.004068105
1.005799118
1.007914302
1.009458392
1.009494607
1.008854147
1.008124936
1.007348621
1.007522526
1.008142555
1.008555939
1.009160711
1.009852425
1.011024074
1.012092091
1.012552793
1.013040796
1.013067491
1.012284402
1.011048481
1.010993325
1.011347999
1.012357676
1.013699968
1.014403629
1.109031949
0.9992288114
0.9989648886
0.9994260303
1.001554922
1.002744358
1.003474186
1.003797536
1.00453373
1.006337567
1.008460485
1.009192475
1.009138031
1.008752074
1.007862915
1.006735855
1.00686032
1.007535931
1.008427225
1.009314272
1.010664816
1.011710373
1.012059363
1.012388702
1.012635443
1.012348567
1.011270039
1.01079754
1.010897216
1.011870692
1.013944902
1.01470892
1.014609788
1.093666184
0.9977359034
0.9977010133
0.999057906
1.001406035
1.003076999
1.003813514
1.004363976
1.005394444
1.007365467
1.00894435
1.009027458
1.008950159
1.008594956
1.007389013
1.006315742
1.006600175
1.007413531
1.008506446
1.009837129
1.01112537
1.011662061
1.011849381
1.012013797
1.011922982
1.011343913
1.010971572
1.010751821
1.011189824
1.013052114
1.014320297
1.014763502
1.014683179
1.08078831
0.9973843503
0.9976446231
0.9989897991
1.00129833
1.003419478
1.0043733
1.005470761
1.006979635
1.008340137
1.009154519
1.00897893
1.008822747
1.008267347
1.006941628
1.006522836
1.006728732
1.007464245
1.008560957
1.009968719
1.011000587
1.011407792
1.0115187
1.01135233
1.011125635
1.01108015
1.010853571
1.011073318
1.012032088
1.013035444
1.014074894
1.014523076
1.014242378
1.073411173
0.9973386078
0.9976559318
0.9989320591
1.001208861
1.003473865
1.005151481
1.006953341
1.008582902
1.009030105
1.009229564
1.008987016
1.008643054
1.0079298
1.007131018
1.00686939
1.007063494
1.007710738
1.008664898
1.009878644
1.010848176
1.010970668
1.010935724
1.010857729
1.011035669
1.01106128
1.011232833
1.01189389
1.012408504
1.012882264
1.013377624
1.013695847
1.013548952
1.068378686
0.9973468476
0.9975891863
0.9986818684
1.001036288
1.003703111
1.006286153
1.008565477
1.009552931
1.00948729
1.009229623
1.008750261
1.008361992
1.007905998
1.007325774
1.007191384
1.007412674
1.007925431
1.008702822
1.009757276
1.010372665
1.010457368
1.0106086
1.010913467
1.011163527
1.011510851
1.012005344
1.012276807
1.012605236
1.012877278
1.012734416
1.012695336
1.012920076
1.062870545
0.997467068
0.9976170879
0.9985108591
1.000693222
1.003911598
1.007143888
1.009422646
1.009926328
1.009733844
1.009070588
1.008335712
1.008088196
1.007931457
1.007496685
1.00728874
1.007506994
1.007993298
1.008599225
1.009367256
1.009846335
1.010286284
1.010590941
1.011024261
1.011532197
1.012128953
1.012297869
1.012505236
1.012748378
1.012452638
1.011780066
1.011972356
1.012618977
1.055423557
0.9976043722
0.9976851787
0.9984700148
1.000527288
1.003874674
1.007297707
1.009588891
1.010016247
1.009838719
1.008881912
1.007974157
1.007931801
1.007952236
1.00761315
1.007340843
1.007516671
1.007925211
1.008322881
1.009023363
1.009633986
1.010214497
1.010660975
1.011466974
1.01201698
1.012214186
1.012384668
1.012651319
1.012389198
1.011488079
1.011272824
1.011967942
1.012600576
1.047463639
0.9974670728
0.9975777199
0.9984284568
1.000548843
1.003695382
1.007113727
1.009434347
1.009879904
1.009738233
1.008766195
1.00792702
1.007988234
1.008026848
1.00771487
1.007329863
1.007386526
1.007685735
1.008121856
1.008896285
1.009727841
1.010400247
1.010862387
1.011393026
1.011871869
1.012181375
1.012285852
1.012198569
1.011892816
1.012026137
1.012079722
1.012705602
1.013083733
1.042549778
0.9970645176
0.9972062966
0.9982103847
1.000546452
1.003646764
1.006798826
1.0089315
1.009467724
1.009391353
1.008708338
1.007983728
1.008131346
1.008346604
1.007857442
1.007423003
1.007398378
1.007585901
1.008082865
1.00904876
1.009965106
1.010809001
1.01118053
1.011506649
1.011814517
1.011965032
1.011664154
1.011232268
1.011533868
1.012127407
1.012815436
1.01384206
1.013905328
1.040071939
0.9968775419
0.9970180563
0.9979608816
1.000368385
1.003486402
1.006555449
1.008328578
1.009101476
1.009409346
1.008823238
1.008235777
1.008397868
1.008555279
1.008209238
1.007767326
1.007611451
1.007765014
1.008225111
1.009225412
1.010234035
1.011142926
1.011377332
1.011569492
1.011740505
1.011500589
1.010670776
1.010635278
1.011305907
1.012441926
1.013814617
1.014910729
1.014426325
1.038325797
0.9969012524
0.9970346875
0.9978788662
1.000149386
1.003209066
1.006053713
1.007730364
1.009180947
1.009612105
1.009017835
1.008419377
1.008590102
1.008776762
1.008496103
1.008151547
1.007972198
1.008018338
1.008364282
1.009249735
1.010469236
1.011365066
1.011493997
1.011602014
1.011479224
1.010676165
1.010138143
1.01042433
1.011331642
1.012937092
1.014867996
1.015376549
1.014675974
1.036362477
0.9971398869
0.9973070071
0.9980540003
1.000017028
1.002826362
1.005440712
1.007826532
1.009615626
1.010038678
1.009333208
1.008554893
1.008630096
1.008920707
1.008713348
1.008383842
1.008215659
1.008231347
1.00840484
1.008994053
1.010476556
1.011413412
1.011586141
1.011590324
1.010968626
1.010008168
1.010051334
1.010540213
1.011498249
1.013468369
1.015037211
1.015471159
1.014690192
1.033305165
0.9975410067
0.9982781361
0.999871152
1.002244442
1.005136034
1.008324502
1.010424263
1.010522701
1.009789039
1.008846845
1.008626163
1.008762937
1.008678253
1.008386429
1.008340358
1.008323008
1.008432369
1.008872404
1.009891324
1.010926822
1.011346714
1.011358592
1.010432832
1.009996383
1.010235516
1.010831813
1.011878887
1.013018819
1.014491925
1.014988923
1.013956068
1.029177711
0.9975356471
0.9981907514
0.9995507038
1.001915276
1.005284067
1.008918047
1.010865017
1.010854399
1.010181315
1.00919208
1.008780926
1.008526208
1.00829489
1.008021011
1.008264764
1.00829719
1.008547692
1.009058848
1.009793311
1.010505902
1.010934791
1.010996352
1.010408574
1.010204303
1.010694965
1.011549285
1.012379111
1.013029829
1.01365638
1.013850729
1.012720608
1.025482386
0.9970058973
0.9975053849
0.9991452206
1.002036122
1.005570046
1.009330889
1.011018876
1.010995076
1.010372576
1.009389001
1.008753671
1.008343415
1.008134225
1.0079288
1.008287004
1.008268565
1.00877425
1.009447904
1.010013514
1.010411293
1.010578732
1.0106686
1.010566965
1.010788185
1.011464368
1.012266691
1.012774901
1.013185451
1.012885095
1.012418933
1.011664326
1.022940331
0.9964372004
0.99688843
0.9988391005
1.002209102
1.005707662
1.009035197
1.010517508
1.010569965
1.010177034
1.009061624
1.008528788
1.008289398
1.008262193
1.008127199
1.008540885
1.008540071
1.009214508
1.009958653
1.010248154
1.010395609
1.01040963
1.010387467
1.010658044
1.011318252
1.012256833
1.012628562
1.013072515
1.01285751
1.011759261
1.011070697
1.010838836
1.020997539
0.9963547704
0.9968644875
0.9988217502
1.002218165
1.006143547
1.008839287
1.00958278
1.009438181
1.00912484
1.008456192
1.008386908
1.008468193
1.00859557
1.008551421
1.009052937
1.009027699
1.009566217
1.010274638
1.010481646
1.010622842
1.01065603
1.010333452
1.010922918
1.012132277
1.01268278
1.01289324
1.012917242
1.011946955
1.010750319
1.010589738
1.010806295
1.019986712
0.9966524394
0.9972367237
0.9992106112
1.002553368
1.006446951
1.008357706
1.00870521
1.008615944
1.008369768
1.008082528
1.008324222
1.008632552
1.008880869
1.008918283
1.009527374
1.009495823
1.009811801
1.010182053
1.010708889
1.011047706
1.011099361
1.010840716
1.011005378
1.011932284
1.01251379
1.012582211
1.011807301
1.01076055
1.010411132
1.010865246
1.011188754
1.019888168
0.9970568279
0.9977695843
0.9997994127
1.002978066
1.006145396
1.007422108
1.00838169
1.008713729
1.008390697
1.008088765
1.008315649
1.008703505
1.008779707
1.008684154
1.009526758
1.009387397
1.009564326
1.009753257
1.010908886
1.011594131
1.011778915
1.011730976
1.011797182
1.012198732
1.012404355
1.011752745
1.010536277
1.010226168
1.010466596
1.011328755
1.012089434
1.020257702
0.9968727815
0.9977420124
1.000015487
1.003166257
1.005332482
1.006512803
1.008278152
1.009074222
1.008788768
1.008481931
1.008717084
1.009068873
1.008984222
1.008659554
1.009346924
1.009205949
1.009252284
1.009561129
1.010989732
1.012203241
1.01263582
1.01268973
1.012657041
1.01261658
1.012058797
1.010556775
1.010070038
1.010238284
1.010653622
1.011603625
1.012578945
1.020619947
0.9965770488
0.9974435579
0.9996977507
1.002468771
1.004544409
1.006135663
1.008160078
1.008917626
1.008824482
1.008597022
1.008857546
1.009005272
1.008910323
1.008637002
1.009359608
1.009301804
1.009273242
1.009758359
1.011170933
1.012439304
1.013138532
1.013166392
1.012905374
1.012467217
1.011165618
1.010032457
1.010321103
1.01068122
1.01106278
1.012244822
1.013391229
1.020583523
0.9967754429
0.9976696474
0.9995211119
1.001749462
1.004224065
1.006355064
1.008461833
1.008895571
1.008636716
1.008386781
1.008432405
1.008468497
1.008349434
1.008255063
1.009183469
1.009364465
1.009398407
1.009990569
1.011489186
1.012598429
1.013278523
1.01328627
1.012858293
1.011834492
1.010302336
1.010163439
1.010666636
1.011053179
1.011428771
1.012601982
1.013779886
1.02004612
0.9964052935
0.9975100765
0.9992325064
1.001393278
1.004297826
1.006995037
1.009035712
1.009106434
1.008702555
1.008101266
1.007762233
1.007716907
1.00780459
1.007998024
1.009114052
1.009383324
1.009504825
1.010213839
1.011926987
1.013130895
1.01369233
1.013555032
1.012786366
1.011241663
1.010098926
1.010411473
1.010942741
1.011366083
1.011850234
1.012923773
1.013861762
1.018780383
0.9964029986
0.9976221554
0.9993500574
1.001605849
1.004645864
1.007521605
1.009179672
1.008676927
1.007975239
1.007096323
1.006906634
1.007227494
1.007655704
1.008018919
1.009149008
1.009449219
1.009613727
1.010366148
1.01224852
1.013584225
1.013895888
1.013585391
1.012521023
1.010772419
1.010382413
1.010879051
1.011404822
1.011800477
1.012129579
1.01287625
1.013363771
1.017049751
0.9963304946
0.9977894521
0.9995733795
1.001835434
1.004892214
1.007563793
1.00879338
1.007942549
1.007113534
1.00649125
1.0065537
1.006919067
1.007428646
1.008079347
1.009323485
1.009780764
1.009842357
1.010542984
1.012469084
1.013738944
1.013961278
1.0135589
1.012392829
1.0108762
1.010884843
1.011315407
1.011447601
1.011618335
1.011872258
1.012551522
1.013009255
1.016081772
0.9961007484
0.9978695359
1.000050038
1.002556639
1.005546899
1.007268785
1.008050156
1.006962945
1.006126321
1.005971221
1.006436199
1.007091072
1.007937478
1.008846145
1.009850838
1.01013361
1.009682624
1.010100608
1.012202269
1.013611191
1.013872822
1.013517134
1.012441273
1.011497496
1.011233024
1.011387558
1.011466258
1.011660005
1.011868006
1.01224412
1.012518668
1.015258546
0.9968136817
0.9987577293
1.000997792
1.00349228
1.005461112
1.005882891
1.006403917
1.005926516
1.00566363
1.006026801
1.00671044
1.007416685
1.008378356
1.009275444
1.0098525
1.009893097
1.009761832
1.010423752
1.012608766
1.014047093
1.01423118
1.013870034
1.012873495
1.011761246
1.010979901
1.011040501
1.0112079
1.011378925
1.01141207
1.011582618
1.012209612
1.015452909
0.9972130522
0.9992537299
1.001494769
1.003267642
1.004290043
1.005151232
1.006362387
1.006184886
1.005927581
1.006240022
1.006840065
1.0075744
1.00845104
1.008939396
1.009230331
1.009617814
1.00981349
1.010749673
1.012746075
1.013876235
1.014050451
1.013750043
1.012882576
1.011691698
1.011103913
1.011227588
1.011421207
1.01163766
1.01171531
1.011970112
1.012672607
1.015962762
0.9999140438
1.001152994
1.001942415
1.002528081
1.00296863
1.003465433
1.00395197
1.004825023
1.005575433
1.005809949
1.005604061
1.006076651
1.007247218
1.00837861
1.008667664
1.008403219
1.008918821
1.010826929
1.012509744
1.013231456
1.01345515
1.013401044
1.012833131
1.012022003
1.011468182
1.011160683
1.011067504
1.011366298
1.011977834
1.012903222
1.013867742
1.016518093
1.001797538
1.001461759
1.001913715
1.002774219
1.003266926
1.003605293
1.003772104
1.004239602
1.005027516
1.005454281
1.005507932
1.005700618
1.006368345
1.007300477
1.007946023
1.009011049
1.010224939
1.010857561
1.010843136
1.010732902
1.010877225
1.011232821
1.011376582
1.011376734
1.011279372
1.011445192
1.011837662
1.012372506
1.012992074
1.013522651
1.013615584
1.014298801
0.9994949319
0.9999585026
1.001181129
1.002796243
1.003529074
1.00358339
1.003341575
1.003762021
1.004465029
1.004981313
1.005145273
1.005345464
1.005821958
1.00647016
1.006811783
1.0074881
1.008202415
1.008716474
1.009044804
1.009520918
1.009994828
1.010405116
1.010785513
1.010986362
1.011095231
1.011363005
1.011794124
1.012540324
1.012991508
1.013415164
1.01349798
1.013664315
1.001270523
1.002121109
1.003341751
1.00479462
1.005345358
1.005057352
1.00419593
1.003655921
1.003638618
1.004066171
1.004413452
1.00486503
1.005782933
1.006533719
1.007073571
1.007844324
1.008663506
1.009149096
1.009288372
1.009616421
1.009890195
1.010177476
1.010540022
1.011035023
1.011427624
1.011572632
1.011730671
1.012151224
1.012244219
1.012406908
1.012542818
1.012790063
1.002492456
1.002877348
1.003225439
1.003616027
1.003451029
1.002984091
1.002296904
1.001585461
1.001166845
1.001551967
1.002262753
1.003314726
1.00485148
1.006144477
1.006854913
1.007433726
1.007903268
1.00837089
1.009038532
1.009309548
1.009384032
1.009313215
1.009321851
1.009760979
1.010246587
1.0107344
1.011442459
1.012116694
1.012463944
1.012759721
1.013092558
1.013400741
1.002316776
1.001676276
1.000733174
1.00002015
0.9997921666
0.9998118566
0.9999688038
1.000003218
1.000375957
1.001432229
1.003410716
1.006124789
1.008915285
1.01025373
1.010367147
1.010225507
1.009764157
1.009344389
1.009377035
1.009445139
1.009486326
1.009441654
1.009480001
1.00993367
1.010636281
1.011338505
1.012299677
1.012995332
1.013143585
1.013269839
1.013488949
1.013579021
1.00110647
1.000322106
0.9985375169
0.9968365422
0.9965768975
0.9967740528
0.997734238
0.9991024879
1.000533371
1.002100458
1.004324122
1.007110001
1.00990693
1.011486094
1.012030898
1.011958166
1.011580901
1.011030575
1.010448408
1.010143945
1.009845136
1.009452605
1.009105827
1.009226581
1.009886628
1.011263367
1.012884971
1.013712087
1.013755779
1.01364314
1.013353388
1.012797485
1.000030086
0.9993933564
0.9981782467
0.9965234563
0.996075075
0.9962143412
0.9975199057
1.000056751
1.002534935
1.004288309
1.005663414
1.006897877
1.007880071
1.008474971
1.008895852
1.00889662
1.008675216
1.008271265
1.007784323
1.007363146
1.007374139
1.007559364
1.00779223
1.008240416
1.009248974
1.01078791
1.012246837
1.013158939
1.013232811
1.013126821
1.012674114
1.011830035
0.998990195
0.9999431096
1.001623247
1.001798007
1.001213251
1.00045422
1.000656026
1.00219413
1.004016203
1.005226046
1.005476512
1.005307188
1.004933006
1.004965303
1.005265149
1.005454782
1.005374105
1.005046444
1.004968503
1.005036343
1.005574122
1.00650222
1.007567557
1.008729207
1.009948151
1.010907117
1.011590339
1.012234108
1.01247663
1.012453078
1.012174855
1.011601614
1.004399893
1.006819254
1.009335098
1.008984191
1.007373968
1.004341559
1.002076844
1.00211687
1.002776407
1.003125673
1.002965102
1.002652462
1.002028774
1.001320939
1.001308102
1.001693496
1.002714089
1.003774634
1.004630753
1.005526257
1.006478939
1.007586248
1.008885138
1.010254788
1.011242104
1.011663142
1.011690199
1.011648487
1.011594087
1.01171685
1.011717577
1.011681951
1.014567971
1.011674055
1.010852588
1.009136317
1.006740344
1.004591638
1.002049228
1.000132819
0.9999413055
1.000101381
1.000149077
1.000221977
1.00049622
1.00039762
1.000345427
1.000862861
1.002029929
1.003550754
1.005175329
1.006704996
1.007864419
1.009127654
1.010612987
1.011871375
1.01231567
1.012352264
1.012155563
1.011638016
1.011093406
1.011058118
1.011213521
1.011605412
1.016314278
1.010785073
1.004068578
1.000896896
1.000632219
1.00075928
1.000249009
0.9990863126
0.9989534322
0.998935817
0.9994755512
1.001091628
1.002968444
1.003207978
1.003011023
1.002329881
1.002251429
1.003175075
1.004973084
1.007253538
1.008786372
1.009477143
1.010131687
1.010745494
1.011236699
1.011777911
1.011996155
1.011804334
1.011205216
1.010791296
1.01095779
1.011425794
0.9972847348
0.9972414603
0.9950952067
0.9967369051
0.9999502204
1.000956378
1.001718508
1.00323361
1.003920523
1.003475943
1.002725119
1.00281813
1.003258773
1.003342115
1.003127426
1.00234124
1.001821971
1.002406144
1.004167843
1.006185855
1.007513474
1.008173047
1.008552818
1.009031913
1.009734096
1.01051591
1.01111295
1.011148035
1.010917897
1.010493546
1.010396373
1.010659993
0.969770237
0.9936016532
0.9977754569
1.006870316
1.009594882
1.009132279
1.00875754
1.01013928
1.010166734
1.008704229
1.004545524
1.002696541
1.00228217
1.002313023
1.00168169
1.001331388
1.001449282
1.001879549
1.002853802
1.004116573
1.005900718
1.007475962
1.008042681
1.008326156
1.008574807
1.008722062
1.008963144
1.009538499
1.009717597
1.009596046
1.009408042
1.009852218
0.9084755915
0.9709870689
0.9936253765
1.01778529
1.018010396
1.013200237
1.011995462
1.012724317
1.012483303
1.011002369
1.005545965
0.999018734
0.998035879
0.9985196986
0.9997710546
1.00047232
1.001533988
1.002520868
1.003424092
1.004470259
1.005590111
1.006445885
1.007130844
1.007407081
1.007241209
1.006549807
1.006427533
1.006920833
1.007741453
1.008364934
1.008819871
1.010018844
0.6023288592
0.7562734286
0.8924479409
0.9995956438
0.9990164888
1.001748242
1.002952001
1.001538762
1.002515744
1.004906683
1.002664747
0.9975845697
0.9970333926
0.9980987449
1.000406472
1.002949765
1.004825995
1.005975107
1.00605014
1.00536508
1.004333214
1.004389945
1.004773872
1.005050244
1.004824234
1.004195823
1.004146989
1.004747132
1.006086315
1.008019047
1.009738301
1.011507722
0.4509064539
0.5148262677
0.6383246159
0.8062560489
0.8815429837
0.9531447508
0.9837090815
0.9826961121
0.99443508
1.002860846
1.005295608
1.004973693
1.005087177
1.006051884
1.00656741
1.00645005
1.00690471
1.006969863
1.006167526
1.004349248
1.001873876
1.000953113
1.001239079
1.002171222
1.002694694
1.003169842
1.003925914
1.005226978
1.007013056
1.009040258
1.010887222
1.012009884
0.4444113068
0.4466366996
0.4655651731
0.5317118817
0.6846478222
0.8474591469
0.9563931488
0.972632461
1.009396265
1.009805382
1.013819612
1.016546444
1.014951012
1.012886814
1.009770164
1.005173759
1.002686877
1.002404971
1.002435696
1.001479401
0.9997999482
0.999259889
0.9996749346
1.000761698
1.00286407
1.005455664
1.007059898
1.008263196
1.009171497
1.009779952
1.010315725
1.0105272
0.455677168
0.449690699
0.450127625
0.4541851357
0.4855776395
0.5616128666
0.7092681297
0.8704509407
0.9773813147
0.9895281397
1.005091869
1.014597591
1.013972847
1.011789616
1.006971385
0.9989465686
0.9961358894
0.9969129322
0.9992740054
1.000122925
1.000187131
1.000601884
1.001556058
1.003169421
1.005450115
1.007636963
1.009264667
1.009594665
1.009325445
1.008685202
1.008584989
1.008601688
0.4698975425
0.4647374388
0.4572385818
0.4563623181
0.4577682957
0.4629012674
0.5001638067
0.6009487827
0.7442605092
0.8500048843
0.9497696007
0.9898519577
0.9839864474
0.9945753989
0.9980485123
0.9966409758
0.9962960799
0.9980706594
1.000666194
1.003823492
1.006597371
1.00775513
1.008176588
1.007340813
1.006661756
1.006838194
1.007534966
1.00789282
1.007658902
1.006899429
1.006221494
1.006288469
0.4808814385
0.4793929296
0.4730653169
0.4662584017
0.4647782088
0.4635662616
0.4636715486
0.4723678876
0.5138356485
0.6375750416
0.7941133192
0.9097488529
0.9413848728
0.987790037
0.9982820327
1.006878131
1.009765132
1.00970998
1.00911261
1.008537933
1.008724297
1.008799508
1.008643409
1.007293642
1.003908163
1.002645739
1.002958078
1.003783
1.004921286
1.00513065
1.005195853
1.005595106
0.4912757217
0.4903305052
0.4877808801
0.4808278116
0.4753740424
0.4734799039
0.4694851835
0.4675077023
0.4690156449
0.4865079358
0.5406698227
0.6705291571
0.8296459446
0.9491193375
0.9795083731
1.005136769
1.015309237
1.013470785
1.009936183
1.008137649
1.005191922
1.004201347
1.004619737
1.003835768
1.001407762
1.000564654
1.000868222
1.001883148
1.003507411
1.006090189
1.007232648
1.0075465
0.5036077469
0.5007163726
0.4995494622
0.4955057289
0.4880077207
0.4853652929
0.4832046728
0.4775953227
0.4721891763
0.4730176213
0.4763390747
0.4996471469
0.575489041
0.6983855404
0.8215040198
0.9485854637
0.9953600329
0.993129946
0.9997275957
0.9965758832
0.9937205107
0.9961660573
1.000796996
1.002454404
1.003125702
1.003312969
1.003581141
1.004268199
1.005390794
1.006415583
1.007354086
1.007358936
0.5187009655
0.5117539668
0.5101392821
0.5081888881
0.5024951634
0.4957858589
0.4943608203
0.4922867637
0.4852806084
0.4791361846
0.4786264329
0.4794013512
0.4838928478
0.5104972634
0.6085487007
0.750997312
0.8716406139
0.9222670172
0.9800826504
0.9860701657
0.9920191884
0.9988889241
1.003068559
1.007359926
1.009255428
1.008958363
1.008203478
1.006481673
1.00507989
1.004890326
1.005756362
1.006174298
0.5342653388
0.5257444441
0.5205114979
0.5191986119
0.5160153638
0.5087666753
0.5041224762
0.5031801469
0.500499278
0.4927525488
0.4874087108
0.4861222912
0.4844994609
0.4840989158
0.4932615698
0.5324598615
0.6430002011
0.7876319607
0.9313529571
0.9712932834
1.000123831
1.008318198
1.009009661
1.010913438
1.012292747
1.012011639
1.010617206
1.007007852
1.000654102
0.9995904416
1.000674473
1.003247784
0.5465935669
0.5413886241
0.5327353721
0.5296923054
0.5281903538
0.5235870309
0.5157294696
0.5127792157
0.511684585
0.5079117955
0.5004268744
0.4962274041
0.4939657067
0.4890562522
0.487660334
0.4894190233
0.505196524
0.5618385089
0.6701865001
0.8053297601
0.9492166961
0.9905358499
0.9939969545
1.003316372
1.00419226
1.00153332
1.0015449
1.000695927
0.9972800762
0.9972868341
0.9989340318
1.002544483
0.5587297866
0.5560724255
0.5486133128
0.5407312059
0.5387677315
0.536344732
0.5299456418
0.522940471
0.5212258325
0.5195798305
0.5144273925
0.5072842337
0.5053853723
0.5027348508
0.4965446665
0.4920826549
0.4928590885
0.4961938523
0.5149160177
0.5942888245
0.7195727508
0.8425796969
0.9101785043
0.9747643044
0.9778991948
0.9840310043
0.9943223712
0.9974233669
1.000395601
1.002998973
1.005108678
1.006969267
0.5691943658
0.5673035292
0.5634658519
0.5546382892
0.5488287042
0.5474910223
0.5441936086
0.5363820968
0.5310663227
0.5296735812
0.5270665405
0.5206920935
0.5149957999
0.5136163552
0.510886421
0.5031647262
0.4977952943
0.4975122376
0.4982680462
0.5042808783
0.5319860584
0.6249363957
0.7550637481
0.9079276151
0.9465582642
0.9817713089
1.002819981
1.003562061
1.010044659
1.013716203
1.013533089
1.010148771
0.5838475127
0.5791812015
0.5771929879
0.5715441088
0.5619594164
0.5580817135
0.5562642556
0.5512232911
0.5427004599
0.5392229735
0.5378275294
0.5339669081
0.5266080274
0.5229821743
0.5218634183
0.5185002869
0.5103772188
0.505987098
0.5045223626
0.5026756336
0.5027509212
0.5118803955
0.5540399744
0.6478606783
0.7916076906
0.9317130226
0.9781003509
0.9899211413
1.006595934
1.013719295
1.012499617
1.004853122
0.6007904149
0.5908299975
0.587718622
0.5848240956
0.5772904075
0.5684034712
0.566269722
0.5641188931
0.5576601119
0.5497700073
0.5475809315
0.5456142404
0.5402554864
0.5328652339
0.5306042386
0.5293210536
)
;

boundaryField
{
    inlet
    {
        type            fixedValue;
        value           nonuniform 0();
    }
    outlet
    {
        type            zeroGradient;
    }
    bottom
    {
        type            slip;
    }
    top
    {
        type            slip;
    }
    obstacle
    {
        type            zeroGradient;
    }
    defaultFaces
    {
        type            empty;
    }
    procBoundary29to23
    {
        type            processor;
        value           nonuniform List<scalar> 
34
(
1.004950742
1.006086934
1.006018021
1.004819272
1.002965544
1.001587179
1.001644197
1.002486224
1.004404599
1.006966248
1.009293236
1.010720132
1.011317602
1.011661094
1.011772515
1.01119487
1.010211058
1.009430933
1.008900405
1.008793105
1.009304465
1.00989219
1.011494286
1.013757541
1.015093418
1.015186335
1.014306608
1.013080867
1.011257981
1.010492906
1.010668576
1.01160141
1.017982464
1.329023712
)
;
    }
    procBoundary29to28
    {
        type            processor;
        value           nonuniform List<scalar> 
70
(
1.004020144
1.003634578
1.003004578
1.002457788
1.001945496
1.001263316
1.000613286
1.000491568
1.000491568
1.000344881
1.000342027
1.000205616
0.9995961134
0.9984898513
0.9977336929
0.9976321676
0.9977294656
0.997966639
0.9980965861
0.9978305603
0.9973520423
0.9970520646
0.9970409939
0.9972496548
0.9973995334
0.9973995334
0.9974914238
0.9974105482
0.9973439002
0.9973018528
0.9974236281
0.9975372587
0.997128703
0.9973142985
0.9976733644
0.9970783708
0.9967955992
0.9963261812
0.995731371
0.9961721398
0.9963313802
0.9980106915
1.001951477
0.9996531564
1.00058254
1.001690488
1.002877107
1.002033741
1.001666735
0.9990318901
1.003204276
1.016442045
1.018922521
0.9944705172
0.9167110427
0.7441882876
0.4937452251
0.440519256
0.4466067845
0.4596316549
0.4711181811
0.4821991244
0.4961636996
0.5116577833
0.5253623596
0.5379662644
0.5482479492
0.5612006206
0.5763059641
0.594533239
)
;
    }
    procBoundary29to34
    {
        type            processor;
        value           uniform 0.6091643292;
    }
    procBoundary29to35
    {
        type            processor;
        value           nonuniform List<scalar> 
33
(
0.5249780201
0.5175083912
0.5136030964
0.5111114264
0.5060822759
0.5053941742
0.5076643291
0.5219811769
0.5876247503
0.6951476202
0.8139951214
0.898984829
0.9799295792
0.9888468426
0.9904129385
0.9945878209
0.6178165499
0.6076933915
0.5994060995
0.5973990874
0.593656953
0.5844788824