/*--------------------------------*- C++ -*----------------------------------*\
  =========                 |
  \\      /  F ield         | OpenFOAM: The Open Source CFD Toolbox
   \\    /   O peration     | Website:  https://openfoam.org
    \\  /    A nd           | Version:  7
     \\/     M anipulation  |
\*---------------------------------------------------------------------------*/
FoamFile
{
    version     2.0;
    format      ascii;
    class       volScalarField;
    location    "5";
    object      p;
}
// * * * * * * * * * * * * * * * * * * * * * * * * * * * * * * * * * * * * * //

dimensions      [1 -1 -2 0 0 0 0];

internalField   nonuniform List<scalar> 
2222
(
10.21311517
10.26401422
10.31074507
10.36023927
10.41109395
10.46640883
10.5204842
10.57122049
10.61673414
10.65462879
10.68106575
10.69926152
10.70426231
10.68976739
10.66482034
10.38109393
1.036117285
0.2934593819
0.07254655469
0.01382144187
0.01710751035
0.02898699862
0.02536290166
0.01973679568
0.02152609356
0.03054451269
0.04874956295
0.07259881826
0.09428087746
0.1162955464
0.1407890615
0.1637187234
0.1864392585
0.2125865352
1.867794163
0.9766196602
0.5092714122
0.2118837026
0.1808611155
0.1658401078
0.1440030579
0.1244496251
0.1130051461
0.1029807522
0.09791501084
0.1037139149
0.1085583158
0.1080403176
0.1067773398
0.1084695608
0.1152569114
0.1290351128
0.145892713
0.1602225907
0.1761757101
0.1974449628
0.2179330936
0.2348137648
0.2534821272
0.2750736112
0.3113655936
0.3495145508
0.3706293817
0.3874164918
0.410053528
0.4324141527
0.4559280746
2.703362407
1.741086724
1.195186681
0.8732072463
0.6655718974
0.4658575321
0.3749471175
0.3217591456
0.2770687472
0.2455214934
0.2214157782
0.2127004462
0.1985297018
0.1751872706
0.1675517809
0.170945864
0.1731353366
0.170989655
0.1700140722
0.1737283957
0.1829354003
0.1960607369
0.2100198097
0.2203306068
0.2271657594
0.2314155947
0.2354373069
0.2485786332
0.2626989381
0.2765135764
0.2949909905
0.319220316
0.3474946994
3.334684518
2.546430463
1.984173331
1.523796667
1.169443469
0.950404258
0.7901639564
0.6786870168
0.5467186629
0.4645076645
0.420514225
0.3885907847
0.3724892946
0.3409569149
0.3082833845
0.2924957266
0.2881282567
0.2853189222
0.2743784791
0.2660155706
0.2583968114
0.2482029464
0.2457343987
0.2470347633
0.2455560152
0.2408718033
0.236144823
0.2380271524
0.2467378191
0.2581479251
0.2593205945
0.2625591695
0.2699976596
3.864339306
3.209083966
2.604009803
2.128092591
1.807524494
1.522519249
1.223154854
1.023982009
0.9079917372
0.8189308691
0.7170635356
0.6166070894
0.5709302882
0.5343702816
0.5086093586
0.4714903853
0.4336283068
0.4119092678
0.3917858917
0.3804861029
0.3728458991
0.3578804169
0.3373457178
0.3226300035
0.3187550053
0.3214204348
0.3219927726
0.3182988179
0.3128279151
0.3054339246
0.300491186
0.301952529
0.3046808543
4.256523483
3.680890256
3.174003687
2.717044453
2.289678113
1.979489031
1.741895942
1.516501467
1.267476524
1.112770188
1.02842088
0.9508039734
0.8695595443
0.7634646521
0.7026385266
0.6613077647
0.6272978719
0.5944170299
0.5455645191
0.5158975007
0.5004057391
0.4875346209
0.4756310789
0.4575349235
0.4340292181
0.4177453076
0.4108661716
0.4065546202
0.4003851614
0.3895047083
0.3759670782
0.3639278742
0.3574459159
4.557060252
4.067642855
3.589406847
3.161975847
2.802002468
2.456266275
2.12487289
1.898615113
1.719681361
1.551222529
1.353424195
1.206991845
1.137060018
1.06619076
0.9890456152
0.8793753161
0.8017494438
0.7665493282
0.7331668064
0.703730255
0.6597055189
0.6192703166
0.5993204939
0.5824497822
0.5680955196
0.5489954462
0.5176502578
0.4962153307
0.4875861264
0.4814281867
0.4755013393
0.4659448986
0.4491848294
4.790827619
4.358979588
3.948536849
3.553015587
3.170662021
2.854943832
2.587819487
2.315134639
2.046411731
1.876347086
1.736245033
1.594079461
1.421795813
1.279877493
1.214443315
1.147281275
1.074815295
0.9797863584
0.8935528466
0.8650009957
0.8388041721
0.8086528638
0.7681933822
0.7154810961
0.6886282184
0.6709381494
0.6523698524
0.6316660612
0.600138932
0.5775182552
0.5702399912
0.5641501069
0.5556388563
4.983060212
4.600508651
4.221800703
3.864465816
3.535970411
3.209527921
2.909633055
2.672993622
2.458138086
2.230437657
2.007357341
1.868430364
1.746069054
1.618878319
1.46855833
1.337719385
1.279526285
1.222206127
1.157605228
1.078274933
0.9908276886
0.9561944462
0.9310389502
0.8978371994
0.8567473324
0.7978835
0.7648025765
0.748379917
0.7302412197
0.7123848928
0.6852911957
0.6559532135
0.6431480164
5.138513756
4.796912911
4.46198645
4.131659725
3.809668571
3.522961184
3.256845552
2.981973252
2.737918646
2.545065921
2.364768584
2.173827953
1.982789258
1.861744252
1.754208241
1.646030659
1.522798566
1.404507314
1.347122653
1.294609895
1.232963608
1.160494732
1.07200669
1.030287251
1.004669543
0.9709532026
0.9336544882
0.8795751379
0.8406925796
0.8258283081
0.8092079641
0.78936822
0.762175971
5.267798572
4.965850462
4.655105854
4.350563083
4.068512141
3.785872241
3.507169336
3.271138086
3.05666874
2.827522012
2.612962926
2.446347023
2.297504382
2.146617295
1.9818956
1.868095021
1.772613616
1.678781188
1.57745725
1.464594709
1.40133252
1.349070817
1.289368914
1.2251852
1.142448014
1.096521514
1.072687101
1.041680427
1.007808209
0.9601376187
0.913271917
0.8932952836
0.8756234322
5.380328292
5.099859906
4.820888964
4.548563821
4.271561396
4.005941533
3.76920597
3.529548239
3.287198692
3.081548857
2.905766382
2.72268209
2.531948032
2.378313237
2.253351881
2.133396141
1.993730399
1.876678241
1.786966034
1.699535183
1.615444939
1.513396199
1.44557156
1.394712068
1.339139636
1.285994693
1.215006968
1.161448456
1.135498728
1.105847073
1.071825257
1.027720569
0.9749660695
5.467356363
5.211008078
4.959212409
4.702598651
4.452146167
4.216981993
3.972097265
3.734568905
3.535881992
3.339665265
3.129225998
2.938843302
2.788310367
2.64170628
2.481087605
2.332491025
2.217276281
2.11285261
2.002353075
1.883444161
1.794922418
1.71754429
1.648487843
1.565117614
1.489094715
1.439470408
1.387757519
1.339067324
1.277983762
1.218483295
1.18766211
1.158103186
1.124511456
5.545500754
5.312306463
5.077181297
4.841528552
4.613485508
4.380674562
4.155859476
3.950559638
3.738496642
3.526912352
3.347864524
3.185477184
3.010191764
2.833679888
2.691589446
2.568682182
2.439977498
2.300323942
2.187862796
2.094079228
2.003056079
1.90042581
1.812079737
1.741566628
1.67581552
1.608948985
1.530618654
1.476242455
1.427695706
1.381347749
1.330576675
1.26779206
1.232989406
5.613464216
5.39649724
5.177579062
4.960286822
4.741985479
4.529024555
4.324511213
4.112330814
3.908027839
3.73222422
3.553960882
3.364636492
3.193051579
3.054149954
2.913431255
2.758364653
2.615515129
2.504725478
2.400579006
2.285875703
2.170103398
2.080969586
2.001489267
1.920190879
1.830004887
1.760271442
1.696268909
1.635985159
1.565335298
1.50990708
1.464151466
1.416509529
1.373327085
5.675072315
5.47016946
5.265482861
5.061144426
4.856768123
4.657538473
4.458699193
4.265010017
4.080499851
3.892260553
3.709878566
3.551407215
3.398605074
3.233000454
3.073325361
2.944533253
2.82684007
2.698680443
2.563381235
2.453416612
2.361822784
2.269713793
2.16443786
2.069673296
1.995500342
1.927008429
1.851519989
1.771344946
1.709792063
1.656474335
1.603112241
1.541620484
1.495056215
5.726202599
5.533200288
5.341065181
5.149311116
4.957026402
4.766940293
4.583047449
4.400483882
4.214887957
4.040544641
3.878947795
3.711748393
3.544265738
3.397134522
3.265118575
3.125706714
2.978055369
2.852131335
2.749264936
2.643987488
2.522953146
2.411827794
2.326433793
2.245429187
2.156555317
2.06453201
1.992500933
1.926867502
1.863511958
1.789863351
1.725007953
1.675010934
1.629612147
5.771830172
5.589482428
5.407692758
5.226749178
5.045637572
4.865930161
4.689365662
4.515724168
4.345747413
4.17576017
4.006997018
3.851697077
3.706513616
3.555178877
3.401430323
3.268158069
3.15006612
3.028941893
2.897107409
2.776973311
2.67836666
2.587081414
2.488539672
2.380117397
2.291779333
2.219640287
2.147373783
2.06193128
1.990655325
1.929527903
1.868135349
1.800555032
1.742182097
5.809549001
5.637519468
5.46504316
5.294366248
5.123012389
4.951107319
4.784448696
4.620113153
4.452766872
4.290584678
4.13809624
3.983925644
3.828173048
3.686231357
3.556139324
3.422885873
3.282534582
3.157111364
3.049782761
2.944473668
2.82908625
2.71259183
2.618306277
2.536228156
2.452875192
2.360008608
2.266617726
2.192794018
2.131615016
2.068764094
1.992337587
1.923949246
1.868478184
5.841957218
5.678561234
5.515849469
5.353131509
5.190672238
5.028821102
4.866885903
4.707606045
4.554217927
4.399419585
4.241488296
4.094734447
3.959493162
3.819001607
3.673199372
3.542997984
3.427528096
3.309345707
3.180966735
3.062482884
2.96450965
2.870116016
2.770123267
2.658865652
2.56798857
2.496046131
2.422140204
2.339261152
2.24591799
2.175451381
2.121378656
2.06479872
2.001658765
5.868494931
5.71338434
5.558507176
5.403433772
5.24980316
5.095784033
4.939881342
4.789733046
4.642126299
4.489927572
4.344218179
4.207134505
4.065752743
3.924758606
3.799053876
3.676540733
3.546095362
3.420721928
3.312532058
3.208315395
3.096079153
2.983776766
2.891480911
2.804102894
2.714249374
2.615001107
2.530428436
2.462161595
2.390699518
2.316763532
2.229877113
2.161568055
2.11485523
5.891065543
5.743926312
5.596674577
5.449106527
5.302345005
5.15602126
5.009269154
4.863156319
4.719682091
4.580129721
4.440606244
4.299063171
4.164464508
4.039758364
3.911721693
3.779288777
3.656527306
3.548486214
3.436746995
3.319494966
3.208700795
3.115348853
3.02172886
2.921444518
2.82427315
2.74116633
2.663729117
2.580413296
2.494567299
2.427200805
2.361361296
2.292168583
2.214457341
5.911801006
5.771843549
5.632022752
5.491210693
5.350840284
5.211958311
5.07219605
4.931000659
4.795019795
4.661487685
4.523544696
4.389836592
4.265297192
4.138078524
4.006297634
3.885652534
3.77478227
3.660006508
3.540198153
3.429841472
3.333622998
3.236619528
3.13437356
3.031637498
2.944227901
2.862262423
2.780599829
2.693301859
2.610647376
2.538199951
2.469439651
2.404547578
2.334669616
5.931336678
5.797919482
5.664983793
5.531106519
5.396610763
5.263400435
5.130550496
4.997167924
4.863875569
4.73326641
4.606315114
4.47851113
4.348413484
4.22484005
4.109795592
3.992246591
3.869180878
3.753277259
3.652468854
3.552070385
3.443936301
3.333969281
3.239607973
3.155804964
3.068302718
2.972625339
2.878923713
2.803033548
2.733462208
2.660698134
2.578311612
2.49956841
2.438985823
5.95393913
5.826337485
5.69882125
5.570988777
5.441875942
5.313188491
5.186261432
5.058323661
4.929769017
4.804483625
4.680498095
4.555180936
4.433839301
4.31655546
4.196771024
4.077902795
3.968759096
3.863530513
3.752969032
3.642156008
3.542717744
3.451621359
3.357374399
3.255882673
3.160451516
3.079344937
3.002284785
2.920662312
2.831397283
2.753299728
2.686897456
2.62160508
2.552008177
5.975007524
5.852573883
5.729697426
5.606766711
5.483208146
5.358774012
5.235370176
5.11348572
4.990818693
4.867767601
4.747737264
4.630373012
4.511149471
4.391830638
4.27992113
4.172019437
4.059444128
3.945658977
3.842580297
3.747729432
3.648631269
3.542400982
3.443284115
3.358259446
3.276060237
3.186973323
3.092730049
3.010039016
2.939260367
2.869257913
2.791604158
2.710420911
2.642354288
6.001091667
5.882471639
5.763126937
5.643835061
5.524512748
5.404574671
5.284705634
5.166303585
5.048704228
4.930943061
4.813911943
4.69793346
4.584051169
4.4723639
4.360072392
4.248371428
4.142615568
4.040841479
3.93621121
3.829610052
3.731824701
3.641766343
3.550704188
3.453477939
3.358580395
3.276192875
3.199843546
3.12126446
3.035129308
2.951889265
2.8817283
2.81746343
2.751177261
6.017628495
5.903541398
5.788597866
5.673361358
5.558427505
5.443365521
5.327727129
5.212838231
5.099486923
4.985890828
4.872109236
4.761131806
4.651119164
4.539376151
4.430404883
4.327246031
4.223017522
4.115248723
4.012710186
3.919146022
3.825264159
3.725290033
3.62811268
3.541773221
3.460426572
3.375342536
3.284097555
3.200765013
3.128084639
3.057799037
2.983239173
2.90218071
2.830120727
6.040267687
5.92982562
5.818567563
5.707014944
5.595282158
5.48386859
5.372563053
5.260910518
5.149691749
5.040262092
4.931638984
4.821808516
4.713084444
4.608231146
4.503212613
4.395764584
4.292577941
4.195980884
4.097902067
3.99527201
3.897696899
3.810117433
3.723498828
3.631178427
3.53703397
3.454225104
3.378874971
3.302132498
3.218534835
3.135101242
3.064489916
2.999735459
2.933871882
6.057471383
5.950667764
5.84293581
5.735044925
5.626649477
5.518520918
5.41100986
5.302723595
5.194570274
5.088510577
4.982256232
4.875224379
4.771306922
4.66852933
4.563588861
4.461268905
4.364180908
4.265464385
4.16446315
4.06991483
3.981441647
3.889735303
3.795065867
3.707039876
3.62709235
3.546065947
3.459387565
3.375956646
3.302300287
3.232208419
3.159867083
3.080993857
3.008890665
6.074262094
5.971310532
5.866920615
5.762429973
5.657848471
5.552735447
5.447826928
5.343775841
5.239129887
5.134036407
5.031164018
4.929491476
4.826127876
4.723621399
4.62586057
4.528082824
4.426407407
4.328856953
4.239043851
4.146794525
4.049449219
3.957955514
3.876676869
3.793561289
3.703847716
3.61611619
3.540012645
3.467966614
3.390968438
3.308567436
3.233782819
3.168761226
3.104237665
6.094004813
5.994044529
5.892341198
5.790369356
5.688612567
5.58627131
5.483613514
5.382218662
5.280624859
5.177891994
5.07730535
4.97848066
4.877403548
4.777872474
4.682707357
4.585992
4.487696066
4.39541862
4.30507927
4.211119961
4.119305799
4.035498119
3.950739477
3.862211178
3.777074312
3.700725871
3.623361684
3.541878545
3.462569548
3.392068126
3.323534077
3.251574812
3.176898414
6.108867072
6.012086692
5.913593693
5.814331023
5.715043983
5.615969517
5.516339567
5.416528928
5.318150407
5.219878179
5.120426443
5.022892051
4.928035591
4.831578189
4.734289903
4.641810225
4.55193682
4.458189039
4.364178285
4.278201319
4.193924952
4.103780197
4.014456911
3.935819818
3.858844735
3.775277032
3.690117965
3.615610568
3.547318105
3.473861881
3.395110452
3.321069623
3.258218121
6.036245679
5.939753524
5.842430293
5.744831012
5.647696203
5.550522668
5.452864725
5.35638366
5.260960469
5.164463887
5.068977419
4.976330448
4.882835672
4.788373713
4.698157968
4.60935881
4.517456931
4.428321937
4.34414086
4.257956973
4.168848298
4.086856059
4.008315609
3.926491554
3.842370922
3.766674661
3.694361917
3.618979936
3.540988717
3.469270928
3.4033216
3.335783172
3.682024669
3.615911283
3.547825927
3.473952349
3.3991505
3.334903513
1
1
1
1
1
1
1
1
1
1
1
0.999999999
1.596350723
7.975410288
10.12485304
10.03704956
10.09256095
10.1518907
10.20083482
10.24499055
10.28694099
10.3264412
10.36405028
10.40260452
10.43687242
10.46295272
10.47264806
10.46341837
10.4262131
10.30254312
9.950345861
8.739254397
6.085106897
1
1
1
1
1
1
1
1
1
1
1
0.9999999999
1.057409761
6.909029527
10.07539637
9.998875999
10.02161207
10.08372532
10.13448503
10.17415815
10.20831317
10.2376171
10.26140802
10.27967838
10.29471889
10.29278128
10.26930937
10.21310035
10.08651728
9.80313519
9.16490376
7.938831681
5.123154538
1
1
1
1
1
1
1
1
1
1
1
1
1.000355395
5.531365738
9.69943789
9.843066048
9.943409984
10.00758614
10.0554981
10.09223057
10.12014658
10.13979922
10.14996993
10.15080165
10.14452917
10.11134884
10.05124257
9.940529071
9.725821372
9.323074276
8.582156145
7.333552365
4.880386622
1
1
1
1
1
1
1
1
1
1
1
1
0.999995742
4.175723403
9.338923219
9.833002007
9.915464182
9.952430526
9.974078496
10.00197051
10.0226862
10.03497941
10.03400171
10.01821302
9.985297126
9.924141245
9.825103449
9.660475659
9.380292037
8.89107623
8.173629412
6.788958191
4.860934198
1
1
1
1
1
1
1
1
1
1
1
1
0.9999989186
2.841004725
8.736672065
9.816104187
9.864215155
9.887756729
9.902214945
9.919330791
9.927827181
9.929705406
9.915811704
9.882423657
9.824243157
9.735323461
9.601262403
9.389787748
9.066681657
8.539685339
7.804840514
6.487814687
4.983470128
1
1
1
1
1
1
1
1
1
1
1
1
0.9999997839
1.661870353
7.996068883
9.910341534
9.796852874
9.804922706
9.822582937
9.833743854
9.830965867
9.8207764
9.793179751
9.743680842
9.664016662
9.54837718
9.383763881
9.137615318
8.784928534
8.256219819
7.503686027
6.348864495
5.145330403
1
1
1
1
1
1
1
1
1
1
1
1
0.9999999771
1.064973995
6.753992205
9.769805871
9.685042402
9.699295763
9.732907381
9.744146591
9.734485035
9.713413699
9.672469049
9.607351967
9.508775784
9.369656881
9.178923158
8.910705868
8.535851706
8.017210192
7.283471284
6.298540134
5.293387506
1
1
1
1
1
1
1
1
1
1
1
1
0.9999999987
1.000369556
5.087376378
9.283214918
9.561405501
9.621255891
9.644063874
9.652438897
9.636047412
9.604634612
9.551888487
9.472148249
9.357822718
9.200093109
8.989075603
8.706446567
8.323677676
7.819486354
7.127679234
6.284915875
5.425845453
1
1
1
1
1
1
1
1
1
1
1
1
1
0.9999948575
3.48009161
8.886934905
9.550805911
9.559930754
9.574078838
9.566104389
9.540213006
9.497855125
9.434203336
9.341046873
9.212975255
9.040747134
8.815319296
8.523693944
8.142991044
7.657240828
7.015241755
6.283859602
5.536791491
1
1
1
1
1
1
1
1
1
1
1
1
1
0.9999986731
1.978833328
8.148656473
9.550833911
9.482862425
9.500429311
9.486615423
9.450841106
9.395759082
9.320045151
9.214937377
9.075302804
8.892437913
8.657687706
8.362541768
7.987914787
7.522952641
6.932352097
6.288495719
5.627679979
1
1
1
1
1
1
1
1
1
1
1
1
1
0.9999997321
1.123401753
6.781225875
9.511302994
9.42579552
9.405521647
9.39762466
9.358354257
9.294371922
9.208419119
9.09320645
8.944554841
8.754108583
8.513929867
8.2208217
7.852556135
7.40893389
6.869283932
6.294842368
5.703140813
1
1
1
1
1
1
1
1
1
1
1
1
1
0.9999999715
1.001522783
4.984776025
8.993054975
9.263340039
9.338326745
9.315858401
9.267392386
9.195911072
9.100709379
8.97702903
8.820392806
8.626511046
8.384071784
8.097413826
7.733542744
7.312646176
6.820437701
6.303011443
5.771299417
1
1
1
1
1
1
1
1
1
1
1
1
1
0.9999999989
0.9999811505
3.011826814
8.519509397
9.317639348
9.28384572
9.243211291
9.188873279
9.105685589
8.998877148
8.866530367
8.703340291
8.507521729
8.26788859
7.985400277
7.628944125
7.233165732
6.783646135
6.31282682
5.828894849
1
1
1
1
1
1
1
1
1
1
1
1
1
1
0.9999949762
1.412775194
7.57538395
9.40040329
9.202938652
9.141804164
9.094418665
9.007603905
8.896744214
8.760589316
8.594248828
8.396276699
8.163661612
7.882135787
7.54128471
7.170844386
6.758092641
6.324363526
5.879480622
1
1
1
1
1
1
1
1
1
1
1
1
1
1
0.9999989741
1.021827176
5.943990611
8.937934661
9.034709336
9.065768223
9.007042864
8.911180908
8.797648587
8.660033576
8.494194702
8.294911809
8.068617299
7.789039416
7.467975854
7.120214575
6.737533874
6.333741629
5.921763543
1
1
1
1
1
1
1
1
1
1
1
1
1
1
0.9999999247
0.9998578758
3.744124501
8.502276973
9.032206988
9.008721406
8.93796482
8.835402083
8.713556708
8.569325068
8.401189139
8.203925343
7.980373304
7.708628907
7.407789579
7.080594341
6.723850469
6.347145264
5.963314769
1
1
1
1
1
1
1
1
1
1
1
1
1
1
0.9999999989
0.9999574365
1.755478341
7.857245728
9.167255719
8.963573521
8.841729214
8.738230633
8.618171315
8.477915659
8.313692671
8.118463529
7.90054076
7.641063812
7.356486504
7.045917429
6.710373824
6.357236075
5.997316486
1
1
1
1
1
1
1
1
1
1
1
1
1
1
1
0.999990806
1.066297052
6.274314835
8.77200167
8.780545194
8.738864404
8.646528354
8.52821356
8.393062159
8.23370206
8.045080537
7.83020261
7.584279947
7.313987548
7.017695604
6.700160892
6.367634751
6.027964519
1
1
1
1
1
1
1
1
1
1
1
1
1
1
1
0.9999988584
1.000200687
3.90556866
8.339517245
8.752311675
8.680650012
8.58139193
8.466127926
8.330938401
8.168711141
7.980738629
7.767975189
7.5308454
7.272817698
6.990265092
6.688883671
6.373831238
6.051854713
1
1
1
1
1
1
1
1
1
1
1
1
1
1
1
0.9999999477
0.9999967031
1.720472632
7.686169507
8.892278583
8.644964165
8.498766375
8.390611323
8.261769852
8.104418619
7.922217853
7.716701853
7.486083171
7.236889965
6.965743642
6.678202338
6.37828194
6.072287516
1
1
1
1
1
1
1
1
1
1
1
1
1
1
1
0.9999999995
0.999999131
1.058546966
6.025168623
8.52284355
8.430706971
8.402748332
8.324983571
8.20017824
8.045029428
7.866731642
7.667112071
7.442813625
7.201414383
6.940199427
6.665003168
6.378843429
6.087418313
1
1
1
1
1
1
1
1
1
1
1
1
1
1
1
1
0.9999998216
1.000118302
3.500143639
7.988341883
8.397874861
8.380674367
8.295816324
8.164482807
8.007050822
7.827079626
7.626616481
7.404759604
7.168463712
6.914718797
6.650499451
6.377168299
6.099540366
1
1
1
1
1
1
1
1
1
1
1
1
1
1
1
1
0.9999999866
0.9999978783
1.502131575
7.001637571
8.536928067
8.37764214
8.249537702
8.107356475
7.948163403
7.771676677
7.57739089
7.363647276
7.1351117
6.889672723
6.636394771
6.374930682
6.110479078
1
1
1
1
1
1
1
1
1
1
1
1
1
1
1
1
0.9999999998
0.9999993877
1.028103673
5.020276923
8.134081142
8.241895317
8.182476147
8.052148261
7.898197076
7.725452645
7.536071786
7.327939479
7.104938759
6.867051657
6.623537898
6.3726018
6.120630546
1
1
1
1
1
1
1
1
1
1
1
1
1
1
1
1
1
0.9999998828
0.9999902224
2.381269021
7.550837552
8.375172286
8.192589356
8.01542966
7.853105749
7.679453202
7.493533282
7.289961105
7.073119602
6.844880196
6.613336592
6.374519165
6.134770749
1
1
1
1
1
1
1
1
1
1
1
1
1
1
1
1
1
0.9999999948
0.9999932682
1.182985981
6.123964168
8.279179761
8.055507118
7.928506057
7.782275685
7.617525677
7.439144945
7.244053918
7.03860464
6.82321899
6.604791313
6.377854568
6.148736247
1
1
1
1
1
1
1
1
1
1
1
1
1
1
1
1
1
0.9999999999
0.9999985928
1.003165489
3.598394618
7.71076157
7.961387391
7.880551322
7.754258649
7.600442852
7.425364575
7.234281315
7.035867867
6.827407221
6.61498295
6.393696794
6.170150855
1
1
1
1
1
1
1
1
1
1
1
1
1
1
1
1
1
1
0.9999998865
0.9999949884
1.532561006
6.625595
8.085661936
7.890657629
7.735564358
7.573219815
7.393581446
7.20663849
7.016123767
6.816083258
6.611173718
6.397271697
6.180964896
1
1
1
1
1
1
1
1
1
1
1
1
1
1
1
1
1
1
0.9999999979
0.9999985512
1.029286702
4.480275439
7.69501853
7.750128423
7.66886384
7.532513597
7.365872262
7.191412521
7.009876633
6.816675262
6.617506951
6.409161311
6.198822612
1
1
1
1
1
1
1
1
1
1
1
1
1
1
1
1
1
1
1
0.9999996997
1.000102122
1.948701592
6.828169496
7.889119527
7.702683818
7.527786372
7.359300687
7.18733136
7.006483116
6.81519241
6.619279898
6.415891315
6.211184975
1
1
1
1
1
1
1
1
1
1
1
1
1
1
1
1
1
1
1
0.9999999646
1.000000036
1.087541291
4.991174233
7.659623138
7.608307881
7.489161944
7.339332744
7.170182145
6.992407913
6.80662538
6.617035266
6.4206658
6.222896203
1
1
1
1
1
1
1
1
1
1
1
1
1
1
1
1
1
1
1
0.9999999974
0.9999999975
1.000887402
2.305929277
6.836927972
7.658481241
7.498113572
7.332770023
7.158284939
6.985203445
6.806600341
6.622797211
6.431921815
6.238903979
1
1
1
1
1
1
1
1
1
1
1
1
1
1
1
1
1
1
1
0.9999999999
0.999999999
1.000001795
1.156754497
5.197541767
7.572473873
7.454578814
7.297475758
7.133229064
6.971734501
6.801237619
6.622941974
6.437678748
6.249929277
1
1
1
1
1
)
;

boundaryField
{
    inlet
    {
        type            fixedValue;
        value           nonuniform 0();
    }
    outlet
    {
        type            zeroGradient;
    }
    bottom
    {
        type            slip;
    }
    top
    {
        type            slip;
    }
    obstacle
    {
        type            zeroGradient;
    }
    defaultFaces
    {
        type            empty;
    }
    procBoundary19to13
    {
        type            processor;
        value           nonuniform List<scalar> 
51
(
10.25460962
10.31415278
10.37094462
10.4322126
10.49482874
10.56068819
10.62608344
10.68817476
10.74764239
10.80635115
10.86465329
10.92770991
10.99928739
11.09775491
11.1735832
11.07990543
1
1
1
1
1
1
1
1
1
1
1
0.9999999912
2.554481954
8.635362259
10.06584879
10.09163145
10.14993912
10.14993912
12.17658119
0.2350531018
0.2350531018
0.2588753692
0.287799468
0.3134468363
0.3372155476
0.3628257021
0.3884656799
0.4206458589
0.4562246312
0.4887927882
0.5145463851
0.5379403281
0.5541820317
0.5639374038
0.5736814557
)
;
    }
    procBoundary19to18
    {
        type            processor;
        value           nonuniform List<scalar> 
33
(
1
1
1
1
1
1
1
1
1
1
1
1
1
1
1
1
1
1
1
1
1
1
1
1
1
1
1
1
1
1
1
1
1
)
;
    }
    procBoundary19to20
    {
        type            processor;
        value           nonuniform List<scalar> 
30
(
0.4837793545
0.3780050753
0.2814434536
0.305958491
0.3565619187
0.436040481
0.5426779515
0.6339730866
0.7271504648
0.8543611566
0.9508315911
1.086610033
1.205892769
1.317607127
1.449145186
1.578271792
1.696407082
1.814974937
1.924994945
2.062190607
2.152411217
2.26678719
2.382938778
2.475097452
2.582626164
2.676858218
2.769148101
2.861137735
2.946498988
3.035012465
)
;
    }
    procBoundary19to24
    {
        type            processor;
        value           uniform 1;
    }
    procBoundary19to25
    {
        type            processor;
        value           nonuniform List<scalar> 
70
(
6.131048314
6.131048314
6.054108006
5.960240493
5.865644303
5.770578452
5.675471802
5.581147745
5.486877331
5.392224212
5.299024337
5.207171176
5.114023229
5.021427898
4.93252328
4.843168207
4.751057419
4.662489298
4.578327782
4.49167843
4.402189852
4.317989678
4.238868985
4.155862226
4.069175495
3.989964136
3.91751687
3.840634209
3.758485258
3.758485258
3.755736461
3.685309807
3.611657575
3.538897169
3.474104268
3.410536652
1
1
1
1
1
1
1
1
1
1
1
1
1
1
1
0.9999999998
1.000000001
1.002769388
2.519728943
6.773552128
7.44186437
7.294939641
7.144928116
6.986378859
6.814970272
6.637251875
6.45465874
6.269702192
1
1
1
1
1
1
)
;
    }
    procBoundary19to26
    {
        type            processor;
        value           nonuniform List<scalar> 5(3.109080461 3.195274725 3.265033066 3.265033066 3.275902191);
    }
}


// ************************************************************************* //
