/*--------------------------------*- C++ -*----------------------------------*\
  =========                 |
  \\      /  F ield         | OpenFOAM: The Open Source CFD Toolbox
   \\    /   O peration     | Website:  https://openfoam.org
    \\  /    A nd           | Version:  7
     \\/     M anipulation  |
\*---------------------------------------------------------------------------*/
FoamFile
{
    version     2.0;
    format      ascii;
    class       volVectorField;
    location    "2.5";
    object      U;
}
// * * * * * * * * * * * * * * * * * * * * * * * * * * * * * * * * * * * * * //

dimensions      [0 1 -1 0 0 0 0];

internalField   nonuniform List<vector> 
80000
(
(3 1.183170543e-15 0)
(3 3.394486343e-15 0)
(3 5.657194297e-15 0)
(3 4.705764309e-15 0)
(3 4.77113585e-15 0)
(3 4.628879904e-15 0)
(3 5.469080012e-15 0)
(3 5.114958933e-15 0)
(3 4.833265642e-15 0)
(3 3.954346229e-15 0)
(3 3.23803016e-15 0)
(3 1.556869883e-15 0)
(3 -3.737120884e-16 0)
(3 -1.136793971e-15 0)
(3 -4.080861414e-16 0)
(3 -3.021890457e-16 0)
(3 8.145330339e-16 0)
(3 1.052758065e-15 0)
(3 1.042536231e-15 0)
(3 1.859401043e-15 0)
(3 4.338920462e-15 0)
(3 3.332692002e-15 0)
(3 5.661534984e-15 0)
(3 4.810428112e-15 0)
(3 5.787129196e-15 0)
(3 5.816123428e-15 0)
(3 7.890192056e-15 0)
(3 8.381457334e-15 0)
(3 7.250369456e-15 0)
(3 1.049845761e-14 0)
(3 1.33906902e-14 0)
(3 1.796932593e-14 0)
(3 1.420125186e-14 0)
(3 7.216101991e-15 0)
(3 4.117665068e-15 0)
(3 2.731472652e-15 0)
(3 1.587556211e-15 0)
(3 1.632616151e-15 0)
(3 -1.698009092e-16 0)
(3 -1.326940822e-17 0)
(3 -2.904905341e-15 0)
(3 -6.771200601e-15 0)
(3 -7.506948901e-15 0)
(3 -5.675487856e-15 0)
(3 -5.661253472e-15 0)
(3 -3.794847562e-15 0)
(3 -3.384307872e-15 0)
(3 -2.750469006e-15 0)
(3 -9.134580331e-16 0)
(3 2.77329213e-15 0)
(3 6.851457903e-15 0)
(3 9.67259845e-15 0)
(3 1.081589813e-14 0)
(3 8.070193893e-15 0)
(3 5.675736925e-15 0)
(3 3.202835981e-15 0)
(3 -2.323645976e-15 0)
(3 -5.740144019e-15 0)
(3 -7.364641852e-15 0)
(3 -7.446905812e-15 0)
(3 -7.716929205e-15 0)
(3 -8.101014517e-15 0)
(3 -8.365246146e-15 0)
(3 -5.929655596e-15 0)
(3 -3.694413791e-15 0)
(3 -2.642146539e-15 0)
(3 -3.901896208e-15 0)
(3 -4.992188537e-15 0)
(3 -3.238632589e-15 0)
(3 -2.349205032e-15 0)
(3 -2.783368747e-15 0)
(3 -2.58715356e-15 0)
(3 -1.567842019e-15 0)
(3 -2.179604705e-15 0)
(3 -4.809884941e-15 0)
(3 -7.404058844e-15 0)
(3 -5.916280856e-15 0)
(3 -5.886607454e-15 0)
(3 -5.241128073e-15 0)
(3 -4.252952989e-15 0)
(3 -4.543263053e-15 0)
(3 -2.249277207e-15 0)
(3 -1.011349651e-15 0)
(3 -1.373646022e-15 0)
(3 -3.124969855e-15 0)
(3 -4.161739576e-15 0)
(3 -5.585546858e-15 0)
(3 -4.29668193e-15 0)
(3 -2.53250412e-15 0)
(3 1.147618247e-16 0)
(3 4.311361324e-15 0)
(3 4.542906844e-15 0)
(3 4.093298914e-15 0)
(3 4.294285707e-15 0)
(3 5.149968472e-15 0)
(3 4.940467213e-15 0)
(3 1.142475379e-14 0)
(3 1.358656658e-14 0)
(3 1.114873576e-14 0)
(3 8.990469369e-15 0)
(3 9.969616546e-16 0)
(3 1.079110759e-15 0)
(3 2.892450608e-15 0)
(3 1.459266197e-15 0)
(3 1.458884063e-15 0)
(3 1.929962348e-15 0)
(3 3.429978772e-15 0)
(3 2.303213201e-15 0)
(3 1.637166013e-15 0)
(3 2.003150309e-15 0)
(3 1.739484874e-15 0)
(3 4.813580011e-16 0)
(3 2.629953055e-16 0)
(3 8.496290853e-16 0)
(3 1.109412285e-15 0)
(3 -9.426897147e-17 0)
(3 2.541421808e-16 0)
(3 1.174148668e-15 0)
(3 2.939042893e-16 0)
(3 6.605498363e-16 0)
(3 5.416655952e-15 0)
(3 6.306482809e-15 0)
(3 6.923146717e-15 0)
(3 7.257341e-15 0)
(3 8.675358538e-15 0)
(3 1.004604654e-14 0)
(3 1.40878978e-14 0)
(3 1.266593378e-14 0)
(3 9.241508075e-15 0)
(3 1.421019306e-14 0)
(3 1.711694785e-14 0)
(3 2.129085861e-14 0)
(3 2.148805539e-14 0)
(3 1.021478594e-14 0)
(3 -3.746592308e-15 0)
(3 -9.555931892e-15 0)
(3 -9.870631642e-15 0)
(3 -1.435619973e-15 0)
(3 -1.22184908e-15 0)
(3 -8.663342807e-16 0)
(3 -5.433195957e-15 0)
(3 -1.472113791e-14 0)
(3 -1.942196017e-14 0)
(3 -1.920424043e-14 0)
(3 -1.127724338e-14 0)
(3 -6.276709472e-15 0)
(3 -4.033048234e-15 0)
(3 -3.553931415e-15 0)
(3 -4.62653518e-15 0)
(3 -1.223467873e-15 0)
(3 7.576955705e-15 0)
(3 1.372112283e-14 0)
(3 1.542797753e-14 0)
(3 1.118307673e-14 0)
(3 1.398544106e-15 0)
(3 -3.541228765e-15 0)
(3 -8.178709481e-15 0)
(3 -1.016321581e-14 0)
(3 -1.197424242e-14 0)
(3 -1.103380286e-14 0)
(3 -9.787321114e-15 0)
(3 -1.005093005e-14 0)
(3 -9.493610958e-15 0)
(3 -9.540087316e-15 0)
(3 -6.511642011e-15 0)
(3 -4.23111842e-15 0)
(3 -6.045356539e-15 0)
(3 -6.182551381e-15 0)
(3 -4.669634847e-15 0)
(3 -1.674715659e-15 0)
(3 -2.240588564e-15 0)
(3 -2.284038479e-15 0)
(3 -3.30817658e-15 0)
(3 -5.623434106e-15 0)
(3 -1.152500175e-14 0)
(3 -1.756054895e-14 0)
(3 -1.777713967e-14 0)
(3 -1.424511089e-14 0)
(3 -1.046677196e-14 0)
(3 -5.690472091e-15 0)
(3 -3.966804957e-15 0)
(3 -3.502365934e-15 0)
(3 -3.490203123e-15 0)
(3 -5.685593699e-15 0)
(3 -8.505730607e-15 0)
(3 -1.035606781e-14 0)
(3 -1.083780521e-14 0)
(3 -9.977488346e-15 0)
(3 -7.750080207e-15 0)
(3 -2.16000348e-15 0)
(3 3.942942227e-15 0)
(3 4.460955231e-15 0)
(3 5.561367141e-15 0)
(3 7.091226109e-15 0)
(3 5.155655669e-15 0)
(3 7.894256463e-18 0)
(3 7.404502112e-15 0)
(3 9.925789753e-15 0)
(3 3.549483035e-15 0)
(3 3.903275138e-16 0)
(3 -6.699711138e-16 0)
(3 -2.179978963e-15 0)
(3 -2.233420842e-15 0)
(3 -1.097761878e-15 0)
(3 -2.514797817e-15 0)
(3 -2.149939976e-15 0)
(3 -2.933450785e-15 0)
(3 -3.723672229e-15 0)
(3 -4.432941794e-15 0)
(3 -4.076278357e-15 0)
(3 -3.890149662e-15 0)
(3 -1.934000484e-15 0)
(3 -1.113011417e-15 0)
(3 8.50220356e-16 0)
(3 1.12137643e-16 0)
(3 2.97389624e-16 0)
(3 -1.489580566e-15 0)
(3 -3.155123658e-15 0)
(3 -4.977890287e-15 0)
(3 -6.932318314e-15 0)
(3 -3.963226257e-15 0)
(3 -2.261644946e-15 0)
(3 -1.715045368e-15 0)
(3 4.047557152e-15 0)
(3 7.818168386e-15 0)
(3 1.258273115e-14 0)
(3 1.828810211e-14 0)
(3 2.373153752e-14 0)
(3 2.625308805e-14 0)
(3 3.161533219e-14 0)
(3 3.832544698e-14 0)
(3 3.784180893e-14 0)
(3 3.330006465e-14 0)
(3 2.821420558e-14 0)
(3 2.175634914e-14 0)
(3 8.805990529e-15 0)
(3 3.531529791e-15 0)
(3 2.276514621e-15 0)
(3 -6.535340998e-16 0)
(3 -5.13954994e-15 0)
(3 -9.240424551e-15 0)
(3 -2.137804561e-14 0)
(3 -2.973005717e-14 0)
(3 -2.867133565e-14 0)
(3 -2.173339433e-14 0)
(3 -1.548682102e-14 0)
(3 -5.599037158e-15 0)
(3 -1.884750667e-15 0)
(3 2.037713195e-15 0)
(3 2.523919154e-15 0)
(3 4.838130176e-15 0)
(3 7.997688015e-15 0)
(3 1.367353401e-14 0)
(3 1.538590368e-14 0)
(3 1.322459218e-14 0)
(3 3.156500388e-15 0)
(3 -7.422686081e-15 0)
(3 -9.83727228e-15 0)
(3 -9.993367501e-15 0)
(3 -1.028260438e-14 0)
(3 -7.408221203e-15 0)
(3 -1.670050799e-15 0)
(3 -6.484452811e-16 0)
(3 -3.048807439e-15 0)
(3 -4.616986583e-15 0)
(3 -5.612957649e-15 0)
(3 -7.07871352e-15 0)
(3 -5.443087927e-15 0)
(3 -2.350917497e-15 0)
(3 5.68125702e-17 0)
(3 1.347611782e-16 0)
(3 -1.392391314e-15 0)
(3 -3.860809492e-15 0)
(3 -6.271562651e-15 0)
(3 -7.161378109e-15 0)
(3 -1.11155171e-14 0)
(3 -1.152814278e-14 0)
(3 -1.180896545e-14 0)
(3 -1.234008517e-14 0)
(3 -1.150515957e-14 0)
(3 -1.021980887e-14 0)
(3 -1.309036565e-14 0)
(3 -1.569693499e-14 0)
(3 -1.865141113e-14 0)
(3 -1.906323815e-14 0)
(3 -1.974207993e-14 0)
(3 -2.003039797e-14 0)
(3 -1.788742269e-14 0)
(3 -1.175284502e-14 0)
(3 -6.692037433e-15 0)
(3 5.646764161e-17 0)
(3 4.498926242e-15 0)
(3 1.020737669e-14 0)
(3 1.442894871e-14 0)
(3 1.41492391e-14 0)
(3 1.196083433e-14 0)
(3 1.341666487e-14 0)
(3 1.175711759e-14 0)
(3 9.786924249e-15 0)
(3 7.884923277e-15 0)
(3 -6.136138095e-17 0)
(3 7.642809933e-16 0)
(3 -8.47047438e-16 0)
(3 -6.818499726e-16 0)
(3 -2.40226352e-15 0)
(3 -3.297143468e-15 0)
(3 -2.329206675e-15 0)
(3 -1.917642776e-15 0)
(3 -3.200444686e-15 0)
(3 -4.644075045e-15 0)
(3 -4.87309734e-15 0)
(3 -2.803440869e-15 0)
(3 -4.375088948e-16 0)
(3 -6.471821588e-16 0)
(3 -7.081562348e-16 0)
(3 8.090757567e-16 0)
(3 -9.062878783e-16 0)
(3 -6.847655933e-15 0)
(3 -1.01302947e-14 0)
(3 -9.337205483e-15 0)
(3 -7.371221102e-15 0)
(3 -6.169944468e-15 0)
(3 -3.027780351e-15 0)
(3 2.046896543e-15 0)
(3 7.424215671e-15 0)
(3 1.026065141e-14 0)
(3 1.357107677e-14 0)
(3 1.866642877e-14 0)
(3 2.760492304e-14 0)
(3 2.916568227e-14 0)
(3 2.763886157e-14 0)
(3 2.137547703e-14 0)
(3 1.855070526e-14 0)
(3 2.042554331e-14 0)
(3 1.905302845e-14 0)
(3 1.420167627e-14 0)
(3 7.646335246e-15 0)
(3 8.727786046e-16 0)
(3 -7.531059308e-15 0)
(3 -1.421615889e-14 0)
(3 -2.013146664e-14 0)
(3 -2.498852597e-14 0)
(3 -2.844207675e-14 0)
(3 -3.133731273e-14 0)
(3 -3.037415824e-14 0)
(3 -2.589973532e-14 0)
(3 -1.031510313e-14 0)
(3 5.348875253e-15 0)
(3 7.900526632e-15 0)
(3 7.466680352e-15 0)
(3 6.943930973e-15 0)
(3 7.086302605e-15 0)
(3 7.341402591e-15 0)
(3 1.008486604e-14 0)
(3 1.231291082e-14 0)
(3 7.242444381e-15 0)
(3 -4.303103813e-15 0)
(3 -1.006403055e-14 0)
(3 -1.332318343e-14 0)
(3 -1.228749092e-14 0)
(3 -1.176049006e-14 0)
(3 -1.092744076e-14 0)
(3 -1.168122566e-14 0)
(3 -1.253303963e-14 0)
(3 -1.770597073e-14 0)
(3 -2.020276109e-14 0)
(3 -1.71206865e-14 0)
(3 -1.057166535e-14 0)
(3 -5.879192979e-15 0)
(3 -1.354077494e-15 0)
(3 1.911827488e-15 0)
(3 2.49164072e-15 0)
(3 3.923166843e-15 0)
(3 4.436146709e-15 0)
(3 4.611933505e-15 0)
(3 1.775704683e-15 0)
(3 4.635085417e-16 0)
(3 -2.596551029e-15 0)
(3 -7.512264991e-15 0)
(3 -1.237435957e-14 0)
(3 -1.86019815e-14 0)
(3 -2.25344365e-14 0)
(3 -2.336449366e-14 0)
(3 -2.09305233e-14 0)
(3 -1.688880925e-14 0)
(3 -1.385277948e-14 0)
(3 -9.853119467e-15 0)
(3 -6.58026246e-15 0)
(3 -4.374125239e-15 0)
(3 -1.958378967e-15 0)
(3 1.952150163e-15 0)
(3 8.126071018e-15 0)
(3 9.450151428e-15 0)
(3 1.183014111e-14 0)
(3 1.242580729e-14 0)
(3 1.518814573e-14 0)
(3 1.383291581e-14 0)
(3 1.15587052e-14 0)
(3 1.204447128e-14 0)
(3 1.270639599e-14 0)
(3 -2.465263161e-16 0)
(3 2.007659992e-15 0)
(3 2.252755227e-15 0)
(3 7.782741862e-16 0)
(3 -1.498219045e-15 0)
(3 -1.807871806e-15 0)
(3 -1.905477712e-15 0)
(3 -5.69136387e-16 0)
(3 -5.069795704e-16 0)
(3 -5.739698754e-16 0)
(3 8.137706388e-16 0)
(3 -1.22302559e-16 0)
(3 -4.027893162e-16 0)
(3 -6.864653393e-16 0)
(3 1.210104171e-16 0)
(3 -4.346058992e-16 0)
(3 -1.731686256e-15 0)
(3 -1.661809326e-15 0)
(3 -1.487153766e-15 0)
(3 -1.18751615e-15 0)
(3 8.249208995e-17 0)
(3 3.35562145e-15 0)
(3 8.289049461e-15 0)
(3 1.081709685e-14 0)
(3 1.319503885e-14 0)
(3 1.418065527e-14 0)
(3 1.516348866e-14 0)
(3 1.483325543e-14 0)
(3 1.542370348e-14 0)
(3 1.218733376e-14 0)
(3 8.849032863e-15 0)
(3 4.912544697e-15 0)
(3 3.647872405e-15 0)
(3 4.12983897e-15 0)
(3 2.356439828e-15 0)
(3 -2.582873682e-15 0)
(3 -5.764000338e-15 0)
(3 -9.422713616e-15 0)
(3 -1.486522956e-14 0)
(3 -1.641458817e-14 0)
(3 -2.065360064e-14 0)
(3 -2.174970732e-14 0)
(3 -2.032774943e-14 0)
(3 -1.641975937e-14 0)
(3 -1.826952129e-14 0)
(3 -1.570312421e-14 0)
(3 -6.337749303e-15 0)
(3 -1.286443929e-15 0)
(3 4.42168801e-15 0)
(3 1.096481459e-14 0)
(3 1.387619579e-14 0)
(3 1.42853713e-14 0)
(3 9.652362717e-15 0)
(3 4.761161332e-15 0)
(3 5.7331825e-15 0)
(3 4.037862294e-15 0)
(3 -5.560678213e-15 0)
(3 -1.318978561e-14 0)
(3 -1.700795755e-14 0)
(3 -1.576114915e-14 0)
(3 -1.440241692e-14 0)
(3 -1.201523905e-14 0)
(3 -1.048880106e-14 0)
(3 -9.458299317e-15 0)
(3 -9.401996303e-15 0)
(3 -1.097244654e-14 0)
(3 -8.012702923e-15 0)
(3 -5.509633896e-15 0)
(3 -1.458721093e-15 0)
(3 6.363590842e-15 0)
(3 8.412016672e-15 0)
(3 1.277662721e-14 0)
(3 1.528784773e-14 0)
(3 1.528540519e-14 0)
(3 1.443884958e-14 0)
(3 1.366854427e-14 0)
(3 9.770344474e-15 0)
(3 6.494278314e-15 0)
(3 2.401643735e-15 0)
(3 -2.493494465e-15 0)
(3 -1.779145388e-15 0)
(3 -5.436740203e-15 0)
(3 -9.044501971e-15 0)
(3 -1.090147204e-14 0)
(3 -1.021691699e-14 0)
(3 -8.036377283e-15 0)
(3 -4.254376232e-15 0)
(3 1.405045067e-15 0)
(3 6.715586532e-15 0)
(3 9.10209021e-15 0)
(3 8.496075457e-15 0)
(3 6.099255058e-15 0)
(3 3.708533521e-15 0)
(3 4.679032617e-15 0)
(3 7.290757549e-15 0)
(3 1.1508949e-14 0)
(3 1.11001987e-14 0)
(3 8.790222346e-15 0)
(3 1.053523491e-14 0)
(3 1.430905934e-14 0)
(3 5.859718588e-16 0)
(3 3.193050004e-16 0)
(3 2.379772503e-15 0)
(3 2.083172544e-15 0)
(3 1.23643338e-15 0)
(3 4.796297889e-16 0)
(3 -5.745531525e-16 0)
(3 3.240744976e-16 0)
(3 2.278757889e-15 0)
(3 2.742221556e-15 0)
(3 4.146939177e-15 0)
(3 2.563192977e-15 0)
(3 1.114349592e-15 0)
(3 -1.684590456e-16 0)
(3 1.085599017e-15 0)
(3 -5.447161493e-16 0)
(3 5.505674923e-16 0)
(3 2.898858454e-15 0)
(3 5.964411655e-15 0)
(3 6.54221449e-15 0)
(3 7.619608515e-15 0)
(3 8.720570784e-15 0)
(3 1.151479687e-14 0)
(3 1.281917796e-14 0)
(3 1.238293849e-14 0)
(3 1.132622725e-14 0)
(3 7.7224649e-15 0)
(3 8.223875339e-16 0)
(3 -1.095424855e-15 0)
(3 -3.555643319e-15 0)
(3 -4.16333125e-15 0)
(3 -3.64603488e-15 0)
(3 -5.132103861e-15 0)
(3 -6.104345512e-15 0)
(3 -1.024214296e-14 0)
(3 -1.221207388e-14 0)
(3 -1.683725255e-14 0)
(3 -1.777539632e-14 0)
(3 -1.711341609e-14 0)
(3 -1.816038933e-14 0)
(3 -1.712069112e-14 0)
(3 -2.04212289e-14 0)
(3 -1.748048786e-14 0)
(3 -1.24465982e-14 0)
(3 -6.65980994e-15 0)
(3 -1.87003379e-15 0)
(3 4.851923804e-16 0)
(3 9.626580381e-16 0)
(3 3.229297059e-15 0)
(3 9.741878307e-15 0)
(3 1.486323348e-14 0)
(3 1.785770208e-14 0)
(3 1.496910921e-14 0)
(3 6.89745553e-15 0)
(3 5.576500352e-16 0)
(3 -1.50203442e-15 0)
(3 -9.758938792e-15 0)
(3 -1.693764995e-14 0)
(3 -1.850988146e-14 0)
(3 -1.936616141e-14 0)
(3 -2.069708469e-14 0)
(3 -1.834777804e-14 0)
(3 -1.391495248e-14 0)
(3 -9.261284527e-15 0)
(3 -4.515153559e-15 0)
(3 1.521519944e-15 0)
(3 1.280771964e-15 0)
(3 3.597136654e-15 0)
(3 5.050621884e-15 0)
(3 9.479111166e-15 0)
(3 1.311778932e-14 0)
(3 1.726964664e-14 0)
(3 2.055548425e-14 0)
(3 1.992981418e-14 0)
(3 1.906784084e-14 0)
(3 1.716559387e-14 0)
(3 1.263300328e-14 0)
(3 7.929788359e-15 0)
(3 3.299022168e-15 0)
(3 4.78578962e-15 0)
(3 7.750659821e-15 0)
(3 4.572703749e-15 0)
(3 2.617176262e-15 0)
(3 -5.770424022e-15 0)
(3 -1.070084769e-14 0)
(3 -8.189825264e-15 0)
(3 -5.026731418e-15 0)
(3 6.630578067e-16 0)
(3 5.087578275e-15 0)
(3 6.74291917e-15 0)
(3 5.525570853e-15 0)
(3 2.872464918e-15 0)
(3 1.420505598e-15 0)
(3 3.586516429e-15 0)
(3 6.12043253e-15 0)
(3 6.633428037e-15 0)
(3 8.557629092e-15 0)
(3 7.348527674e-15 0)
(3 8.634508521e-15 0)
(3 1.236273345e-14 0)
(3 6.852049818e-16 0)
(3 8.534497056e-16 0)
(3 9.855360078e-16 0)
(3 7.520831746e-16 0)
(3 2.454480857e-15 0)
(3 2.301232743e-15 0)
(3 3.116630129e-15 0)
(3 1.84161638e-15 0)
(3 2.09474465e-15 0)
(3 1.86798358e-15 0)
(3 1.480253808e-16 0)
(3 -5.259022519e-16 0)
(3 5.938916265e-17 0)
(3 8.634832571e-16 0)
(3 1.624397037e-15 0)
(3 6.244212177e-16 0)
(3 6.376908296e-16 0)
(3 2.8028218e-15 0)
(3 5.225867651e-15 0)
(3 9.566037708e-15 0)
(3 8.113193267e-15 0)
(3 8.098538109e-15 0)
(3 6.43645399e-15 0)
(3 8.4950853e-15 0)
(3 6.703989616e-15 0)
(3 4.623411094e-15 0)
(3 -3.853108424e-15 0)
(3 -9.594178584e-15 0)
(3 -1.677256976e-14 0)
(3 -1.728934532e-14 0)
(3 -1.710300755e-14 0)
(3 -1.364657394e-14 0)
(3 -1.152374248e-14 0)
(3 -1.158300344e-14 0)
(3 -1.206292469e-14 0)
(3 -1.304045615e-14 0)
(3 -1.266095455e-14 0)
(3 -1.01262064e-14 0)
(3 -9.96401863e-15 0)
(3 -1.288752182e-14 0)
(3 -1.455426148e-14 0)
(3 -1.08986306e-14 0)
(3 -7.676332008e-15 0)
(3 -3.75142031e-15 0)
(3 4.588525565e-16 0)
(3 4.414393815e-15 0)
(3 6.698387814e-15 0)
(3 7.118920603e-15 0)
(3 7.395518621e-15 0)
(3 1.13579321e-14 0)
(3 1.118424588e-14 0)
(3 1.016434246e-14 0)
(3 1.097567786e-14 0)
(3 9.040753957e-15 0)
(3 1.994756104e-15 0)
(3 -2.699828655e-15 0)
(3 -3.342863077e-15 0)
(3 -3.46587502e-15 0)
(3 -4.020029994e-15 0)
(3 -4.623123196e-15 0)
(3 -3.011068708e-15 0)
(3 -3.784318715e-15 0)
(3 -1.678013373e-15 0)
(3 -2.704785066e-15 0)
(3 -6.371681927e-16 0)
(3 2.51362658e-15 0)
(3 3.055070394e-15 0)
(3 1.230415433e-15 0)
(3 -1.011584541e-15 0)
(3 -1.368750051e-15 0)
(3 3.640504242e-15 0)
(3 6.213302042e-15 0)
(3 9.932516364e-15 0)
(3 1.142551023e-14 0)
(3 1.081482815e-14 0)
(3 7.596822827e-15 0)
(3 4.851228651e-15 0)
(3 5.884146928e-15 0)
(3 7.416465257e-15 0)
(3 1.071949045e-14 0)
(3 1.163180622e-14 0)
(3 6.370980103e-15 0)
(3 3.196460225e-15 0)
(3 8.376970308e-16 0)
(3 5.85105027e-16 0)
(3 2.256105841e-15 0)
(3 3.239577435e-15 0)
(3 6.729971794e-15 0)
(3 5.447814173e-15 0)
(3 6.529710599e-15 0)
(3 5.966138292e-15 0)
(3 5.958276082e-15 0)
(3 5.808301867e-15 0)
(3 6.303632716e-15 0)
(3 6.962199038e-15 0)
(3 7.738057988e-15 0)
(3 7.690996734e-15 0)
(3 9.638843066e-15 0)
(3 1.217909108e-14 0)
(3 1.391308066e-14 0)
(3 -1.49305776e-16 0)
(3 4.76112063e-16 0)
(3 -7.344214096e-16 0)
(3 -1.036637647e-15 0)
(3 1.199175553e-16 0)
(3 4.134683844e-16 0)
(3 1.766506314e-15 0)
(3 4.681508183e-16 0)
(3 4.017959074e-16 0)
(3 1.095354603e-16 0)
(3 -1.588543809e-15 0)
(3 -2.437977414e-15 0)
(3 -1.301853829e-15 0)
(3 -6.487064123e-16 0)
(3 8.098730965e-16 0)
(3 5.115404044e-15 0)
(3 6.312676766e-15 0)
(3 7.510155194e-15 0)
(3 6.758638847e-15 0)
(3 5.86996468e-15 0)
(3 3.037637899e-15 0)
(3 2.575737415e-15 0)
(3 -3.468546646e-15 0)
(3 -5.541233428e-15 0)
(3 -7.600959247e-15 0)
(3 -1.341188719e-14 0)
(3 -1.822894071e-14 0)
(3 -1.840425193e-14 0)
(3 -1.834830605e-14 0)
(3 -1.596706397e-14 0)
(3 -1.456224971e-14 0)
(3 -1.507715703e-14 0)
(3 -1.734175931e-14 0)
(3 -1.889088416e-14 0)
(3 -1.580640629e-14 0)
(3 -9.421757037e-15 0)
(3 -5.85779339e-15 0)
(3 -5.747280637e-16 0)
(3 -1.157899413e-15 0)
(3 2.764063408e-15 0)
(3 5.531653124e-15 0)
(3 5.876648594e-15 0)
(3 6.355918616e-15 0)
(3 5.977525466e-15 0)
(3 6.338706822e-15 0)
(3 6.70076733e-15 0)
(3 9.480879602e-15 0)
(3 8.979668276e-15 0)
(3 8.174452525e-15 0)
(3 8.527012432e-15 0)
(3 4.345806176e-15 0)
(3 6.916115125e-16 0)
(3 6.679152136e-16 0)
(3 1.87012822e-15 0)
(3 4.301010791e-15 0)
(3 3.393311562e-15 0)
(3 1.302827736e-15 0)
(3 -3.208309887e-15 0)
(3 -6.803516179e-15 0)
(3 -8.100207605e-15 0)
(3 -8.499767209e-15 0)
(3 -5.735187453e-15 0)
(3 -3.408838977e-15 0)
(3 2.218824678e-15 0)
(3 6.503346567e-15 0)
(3 9.702192688e-15 0)
(3 9.272633359e-15 0)
(3 7.962464373e-15 0)
(3 6.211550544e-15 0)
(3 2.290096363e-15 0)
(3 7.243512707e-16 0)
(3 2.600086411e-16 0)
(3 2.170900289e-15 0)
(3 1.805161105e-15 0)
(3 -2.037645138e-15 0)
(3 -2.350697154e-15 0)
(3 2.855876353e-16 0)
(3 4.673171109e-15 0)
(3 1.388815781e-14 0)
(3 1.478704966e-14 0)
(3 1.365034611e-14 0)
(3 1.082889813e-14 0)
(3 6.050163713e-15 0)
(3 8.120067778e-15 0)
(3 1.011154832e-14 0)
(3 7.985627178e-15 0)
(3 8.056117405e-15 0)
(3 8.040307964e-15 0)
(3 1.231196998e-14 0)
(3 1.176210234e-14 0)
(3 1.078684081e-14 0)
(3 8.617126061e-15 0)
(3 7.535020212e-15 0)
(3 5.623622871e-15 0)
(3 6.126602805e-15 0)
(3 7.548794078e-15 0)
(3 8.07288902e-15 0)
(3 9.207087034e-15 0)
(3 1.252229255e-14 0)
(3 1.302278083e-14 0)
(3 -6.270539516e-16 0)
(3 -1.084355126e-15 0)
(3 -4.657882778e-16 0)
(3 4.929056144e-16 0)
(3 5.911818933e-16 0)
(3 -1.303721354e-15 0)
(3 -7.897376064e-16 0)
(3 4.0410433e-16 0)
(3 9.442294782e-16 0)
(3 4.499407719e-15 0)
(3 3.478103789e-15 0)
(3 1.778179146e-15 0)
(3 2.010407158e-15 0)
(3 2.642386456e-15 0)
(3 5.414795338e-15 0)
(3 9.675402153e-15 0)
(3 1.221281162e-14 0)
(3 1.034095574e-14 0)
(3 8.707809631e-15 0)
(3 6.403098327e-15 0)
(3 5.239772228e-15 0)
(3 1.097425332e-15 0)
(3 -3.07685458e-15 0)
(3 -1.091554776e-14 0)
(3 -1.750134039e-14 0)
(3 -2.060751329e-14 0)
(3 -2.285022941e-14 0)
(3 -2.327193546e-14 0)
(3 -1.796843494e-14 0)
(3 -1.28418885e-14 0)
(3 -8.477879071e-15 0)
(3 -7.619592076e-15 0)
(3 -7.943309934e-15 0)
(3 -8.646437193e-15 0)
(3 -4.985461009e-15 0)
(3 -2.784225455e-15 0)
(3 6.896452574e-16 0)
(3 3.310019838e-15 0)
(3 5.267595508e-15 0)
(3 7.15235239e-15 0)
(3 8.915406333e-15 0)
(3 9.359620549e-15 0)
(3 9.341874063e-15 0)
(3 6.772363856e-15 0)
(3 3.331248167e-15 0)
(3 -1.551087776e-15 0)
(3 -4.036562613e-15 0)
(3 -6.491426146e-15 0)
(3 -9.771601208e-15 0)
(3 -8.963451048e-15 0)
(3 -7.403177215e-15 0)
(3 -5.912169342e-15 0)
(3 -4.079469856e-15 0)
(3 -7.753289706e-16 0)
(3 1.481345432e-15 0)
(3 1.884774835e-15 0)
(3 -1.155890457e-15 0)
(3 -1.589848822e-15 0)
(3 -2.749720072e-15 0)
(3 -4.046997402e-15 0)
(3 -3.455835406e-15 0)
(3 6.305015086e-16 0)
(3 3.90750358e-15 0)
(3 1.128019155e-14 0)
(3 1.553646106e-14 0)
(3 1.674799779e-14 0)
(3 1.735527831e-14 0)
(3 1.773141629e-14 0)
(3 1.568737373e-14 0)
(3 1.137808453e-14 0)
(3 4.032334342e-15 0)
(3 -5.20935619e-16 0)
(3 -2.930831923e-15 0)
(3 -6.981448184e-15 0)
(3 -8.79218437e-15 0)
(3 -8.994122609e-15 0)
(3 -6.801248785e-15 0)
(3 -1.517842441e-15 0)
(3 3.076726827e-15 0)
(3 5.570117609e-15 0)
(3 6.532974809e-15 0)
(3 7.18184353e-15 0)
(3 9.44166283e-15 0)
(3 9.959812438e-15 0)
(3 8.900598006e-15 0)
(3 1.864971676e-15 0)
(3 -4.982506752e-16 0)
(3 -1.836200754e-15 0)
(3 1.540641181e-15 0)
(3 1.189713728e-15 0)
(3 2.647520484e-15 0)
(3 1.886689212e-15 0)
(3 -1.942070965e-16 0)
(3 -3.438960508e-16 0)
(3 1.253029606e-15 0)
(3 2.9575676e-15 0)
(3 6.34044931e-15 0)
(3 6.300855671e-15 0)
(3 6.043532517e-15 0)
(3 5.217564244e-15 0)
(3 2.836512073e-16 0)
(3 1.057995752e-16 0)
(3 3.659677028e-15 0)
(3 3.29052229e-15 0)
(3 3.280403328e-15 0)
(3 3.358913056e-15 0)
(3 1.758836571e-15 0)
(3 2.437670282e-15 0)
(3 3.24312095e-15 0)
(3 3.101248574e-15 0)
(3 3.046369333e-15 0)
(3 2.204965687e-15 0)
(3 1.468047962e-15 0)
(3 9.640713058e-16 0)
(3 1.706362264e-15 0)
(3 1.306371023e-15 0)
(3 3.292399734e-15 0)
(3 3.844343619e-15 0)
(3 4.135399187e-15 0)
(3 2.411653944e-15 0)
(3 6.419546776e-16 0)
(3 -1.754073795e-15 0)
(3 -5.414116922e-15 0)
(3 -7.573794599e-15 0)
(3 -1.14928909e-14 0)
(3 -1.214009363e-14 0)
(3 -9.780498849e-15 0)
(3 -8.086828147e-15 0)
(3 -6.79192321e-15 0)
(3 -6.485646858e-15 0)
(3 -4.582720259e-15 0)
(3 -3.152042263e-15 0)
(3 6.246939898e-16 0)
(3 2.536998417e-15 0)
(3 5.019033291e-15 0)
(3 4.959942997e-15 0)
(3 6.47671443e-15 0)
(3 6.517712575e-15 0)
(3 7.302905264e-15 0)
(3 7.695506585e-15 0)
(3 6.583295252e-15 0)
(3 9.793378592e-15 0)
(3 6.762466992e-15 0)
(3 4.507706658e-15 0)
(3 1.891984919e-16 0)
(3 -5.272657693e-15 0)
(3 -1.000613229e-14 0)
(3 -1.362673123e-14 0)
(3 -1.816502069e-14 0)
(3 -1.767698085e-14 0)
(3 -1.501852458e-14 0)
(3 -1.323958205e-14 0)
(3 -1.216794252e-14 0)
(3 -1.18928557e-14 0)
(3 -1.101007089e-14 0)
(3 -8.406344171e-15 0)
(3 -5.933614942e-15 0)
(3 -2.023010202e-15 0)
(3 1.751578003e-16 0)
(3 1.953531033e-15 0)
(3 2.81145936e-15 0)
(3 3.466626758e-15 0)
(3 8.183192312e-15 0)
(3 7.94315576e-15 0)
(3 1.089803073e-14 0)
(3 1.154059577e-14 0)
(3 1.193102735e-14 0)
(3 1.253781788e-14 0)
(3 1.147404853e-14 0)
(3 9.649985667e-15 0)
(3 7.072103866e-15 0)
(3 3.87125017e-15 0)
(3 3.168183854e-15 0)
(3 7.466990189e-16 0)
(3 2.8253927e-15 0)
(3 1.274420307e-16 0)
(3 -2.279580625e-15 0)
(3 -3.096181465e-15 0)
(3 -2.822395086e-15 0)
(3 -1.514678698e-15 0)
(3 -2.732140988e-16 0)
(3 1.855588408e-15 0)
(3 7.033004674e-15 0)
(3 8.846767005e-15 0)
(3 6.580066138e-15 0)
(3 3.655870142e-15 0)
(3 -2.823493475e-15 0)
(3 -5.362025752e-15 0)
(3 -6.414720357e-15 0)
(3 -6.207920882e-15 0)
(3 -5.267833123e-15 0)
(3 -4.962504935e-15 0)
(3 -4.862463617e-15 0)
(3 -3.539710542e-15 0)
(3 -2.516370427e-16 0)
(3 3.699154552e-15 0)
(3 5.478874423e-15 0)
(3 8.875468006e-15 0)
(3 7.300412402e-15 0)
(3 3.956542436e-15 0)
(3 2.50690619e-17 0)
(3 -1.435531932e-15 0)
(3 -1.287517801e-15 0)
(3 -5.558246739e-16 0)
(3 5.026501814e-18 0)
(3 1.25262978e-15 0)
(3 1.115564099e-15 0)
(3 1.014564973e-15 0)
(3 2.405008095e-15 0)
(3 1.493741377e-15 0)
(3 1.254280927e-15 0)
(3 3.794602319e-16 0)
(3 -2.13331476e-15 0)
(3 -4.61872314e-15 0)
(3 -5.741115888e-15 0)
(3 -6.131178974e-15 0)
(3 -5.106169411e-15 0)
(3 -3.829501608e-15 0)
(3 -4.379830447e-15 0)
(3 -5.106201477e-15 0)
(3 -6.798903016e-15 0)
(3 -7.829919202e-15 0)
(3 -7.507511439e-15 0)
(3 -5.161791784e-15 0)
(3 -5.059159301e-15 0)
(3 -2.133169319e-15 0)
(3 5.091719363e-15 0)
(3 6.603888352e-15 0)
(3 6.707846291e-15 0)
(3 1.474248184e-15 0)
(3 -1.437186203e-17 0)
(3 1.650012587e-16 0)
(3 1.881273976e-15 0)
(3 3.99882566e-15 0)
(3 3.827755662e-15 0)
(3 5.637799287e-15 0)
(3 7.116127036e-15 0)
(3 7.463745973e-15 0)
(3 7.154151001e-15 0)
(3 5.792599202e-15 0)
(3 7.065144603e-15 0)
(3 7.678195005e-15 0)
(3 6.766932828e-15 0)
(3 -2.691317836e-15 0)
(3 -7.049049323e-15 0)
(3 -1.019726629e-14 0)
(3 -1.354477865e-14 0)
(3 -1.658801984e-14 0)
(3 -1.884602429e-14 0)
(3 -2.119205223e-14 0)
(3 -2.2036084e-14 0)
(3 -2.348252121e-14 0)
(3 -2.268124151e-14 0)
(3 -2.078460598e-14 0)
(3 -1.72617497e-14 0)
(3 -1.654731633e-14 0)
(3 -1.307405986e-14 0)
(3 -9.583399005e-15 0)
(3 -6.406549375e-15 0)
(3 -2.525871232e-15 0)
(3 7.579707021e-16 0)
(3 2.343983151e-15 0)
(3 3.47902703e-15 0)
(3 2.69188998e-15 0)
(3 6.48780466e-15 0)
(3 1.017088157e-14 0)
(3 1.007005055e-14 0)
(3 8.339610494e-15 0)
(3 6.239253875e-15 0)
(3 4.862325484e-15 0)
(3 3.381055081e-15 0)
(3 2.939317275e-15 0)
(3 6.551637336e-15 0)
(3 9.411630467e-15 0)
(3 1.046181332e-14 0)
(3 7.79135351e-15 0)
(3 8.095178624e-15 0)
(3 6.892411538e-15 0)
(3 2.947394966e-15 0)
(3 1.948218638e-15 0)
(3 2.882253214e-15 0)
(3 5.255791827e-15 0)
(3 5.474809727e-15 0)
(3 8.793407696e-15 0)
(3 7.962472077e-15 0)
(3 6.412756471e-15 0)
(3 2.906801874e-15 0)
(3 -2.220792631e-15 0)
(3 -4.550726944e-15 0)
(3 -3.920516207e-15 0)
(3 -4.492582684e-15 0)
(3 -4.49752806e-15 0)
(3 -2.352588515e-15 0)
(3 4.567404253e-16 0)
(3 2.720786384e-15 0)
(3 2.291851608e-15 0)
(3 3.172860394e-15 0)
(3 6.166136501e-15 0)
(3 6.665280915e-15 0)
(3 5.644394563e-15 0)
(3 -7.211088737e-16 0)
(3 -3.184631661e-15 0)
(3 -4.709380797e-15 0)
(3 -3.249546948e-15 0)
(3 -2.1831975e-15 0)
(3 -9.932591395e-16 0)
(3 -1.158039549e-15 0)
(3 1.518696562e-15 0)
(3 2.748718976e-15 0)
(3 5.022409824e-15 0)
(3 4.38414349e-15 0)
(3 4.19850086e-15 0)
(3 2.762455991e-15 0)
(3 9.376588822e-16 0)
(3 -2.185993418e-15 0)
(3 -4.320444408e-15 0)
(3 -5.899173639e-15 0)
(3 -7.243372146e-15 0)
(3 -9.121110051e-15 0)
(3 -9.580005234e-15 0)
(3 -8.355696913e-15 0)
(3 -5.336639824e-15 0)
(3 -3.758903872e-15 0)
(3 -1.568793105e-15 0)
(3 4.060575786e-15 0)
(3 8.556171651e-15 0)
(3 1.216493703e-14 0)
(3 1.427172684e-14 0)
(3 1.407067513e-14 0)
(3 1.306442564e-14 0)
(3 1.289747902e-14 0)
(3 1.063331048e-14 0)
(3 1.089126032e-14 0)
(3 1.229342209e-14 0)
(3 1.170784514e-14 0)
(3 1.02304287e-14 0)
(3 9.083081827e-15 0)
(3 9.22431301e-15 0)
(3 8.593834981e-15 0)
(3 3.742977323e-15 0)
(3 1.368315855e-15 0)
(3 -2.444643471e-15 0)
(3 -1.807559225e-15 0)
(3 -6.945888347e-15 0)
(3 -8.344222051e-15 0)
(3 -9.440392248e-15 0)
(3 -1.045070458e-14 0)
(3 -1.28802485e-14 0)
(3 -1.529472521e-14 0)
(3 -1.963074306e-14 0)
(3 -2.431634037e-14 0)
(3 -2.683676486e-14 0)
(3 -2.69052619e-14 0)
(3 -2.179711326e-14 0)
(3 -1.97228121e-14 0)
(3 -2.139292611e-14 0)
(3 -2.023724034e-14 0)
(3 -1.749097816e-14 0)
(3 -1.230788701e-14 0)
(3 -4.999304755e-15 0)
(3 -1.141256561e-15 0)
(3 -2.484481786e-15 0)
(3 -5.247760407e-15 0)
(3 -4.129963813e-15 0)
(3 -3.631004787e-15 0)
(3 -1.722342551e-15 0)
(3 -1.045503761e-16 0)
(3 -8.909294547e-16 0)
(3 -3.328446361e-16 0)
(3 5.909103476e-16 0)
(3 3.610024918e-15 0)
(3 6.608774836e-15 0)
(3 7.736453312e-15 0)
(3 7.121512201e-15 0)
(3 6.603482893e-15 0)
(3 1.044505621e-14 0)
(3 1.306298817e-14 0)
(3 1.39256502e-14 0)
(3 1.315807595e-14 0)
(3 1.30042927e-14 0)
(3 9.697732855e-15 0)
(3 7.699507151e-15 0)
(3 2.905572057e-15 0)
(3 3.546670224e-15 0)
(3 4.92617539e-15 0)
(3 2.921285905e-15 0)
(3 -2.758717348e-15 0)
(3 -4.191710588e-15 0)
(3 -5.515092524e-15 0)
(3 -3.587356522e-15 0)
(3 5.074345906e-17 0)
(3 3.930331235e-15 0)
(3 7.076925662e-15 0)
(3 6.23109201e-15 0)
(3 4.434659526e-15 0)
(3 2.820879013e-15 0)
(3 3.180713038e-15 0)
(3 3.299250248e-15 0)
(3 7.527801741e-15 0)
(3 1.253911479e-14 0)
(3 9.15312428e-16 0)
(3 2.649083632e-15 0)
(3 8.09290508e-16 0)
(3 -7.440778127e-16 0)
(3 1.514665521e-15 0)
(3 1.517776557e-15 0)
(3 8.365855213e-16 0)
(3 2.576784121e-15 0)
(3 2.340249231e-15 0)
(3 7.992073298e-16 0)
(3 3.009054851e-15 0)
(3 6.448854296e-15 0)
(3 6.51956941e-15 0)
(3 6.298088016e-15 0)
(3 3.34499856e-15 0)
(3 1.808526837e-15 0)
(3 -8.18056465e-16 0)
(3 -1.589211414e-15 0)
(3 -2.148052573e-15 0)
(3 -4.104730517e-15 0)
(3 -2.24666004e-15 0)
(3 9.727882652e-16 0)
(3 4.386568878e-15 0)
(3 9.66785859e-15 0)
(3 1.467757018e-14 0)
(3 1.509535486e-14 0)
(3 1.599657921e-14 0)
(3 1.571114327e-14 0)
(3 1.965771964e-14 0)
(3 2.121033355e-14 0)
(3 2.189248624e-14 0)
(3 2.151973577e-14 0)
(3 1.771027031e-14 0)
(3 1.466580621e-14 0)
(3 1.362750446e-14 0)
(3 1.100174211e-14 0)
(3 7.749905402e-15 0)
(3 5.255093712e-15 0)
(3 3.588200438e-15 0)
(3 2.569342658e-15 0)
(3 -1.453588602e-15 0)
(3 -6.664798399e-15 0)
(3 -9.922863602e-15 0)
(3 -7.880359384e-15 0)
(3 -6.713037178e-15 0)
(3 -3.624761924e-15 0)
(3 -4.624161243e-15 0)
(3 -6.971362033e-15 0)
(3 -8.833518163e-15 0)
(3 -1.288800246e-14 0)
(3 -1.782170341e-14 0)
(3 -2.283976626e-14 0)
(3 -2.240686638e-14 0)
(3 -2.385310434e-14 0)
(3 -2.50826606e-14 0)
(3 -2.34918417e-14 0)
(3 -2.020307572e-14 0)
(3 -1.746795783e-14 0)
(3 -1.395273893e-14 0)
(3 -6.379416007e-15 0)
(3 -3.218361131e-15 0)
(3 -3.562814929e-15 0)
(3 -5.733623299e-15 0)
(3 -7.480168469e-15 0)
(3 -8.443087973e-15 0)
(3 -9.657671772e-15 0)
(3 -8.844879552e-15 0)
(3 -6.411136634e-15 0)
(3 -3.557962193e-15 0)
(3 1.497836469e-15 0)
(3 5.378263542e-15 0)
(3 5.185977008e-15 0)
(3 5.137758741e-15 0)
(3 4.275087973e-15 0)
(3 5.094340162e-15 0)
(3 6.569626394e-15 0)
(3 9.847738364e-15 0)
(3 1.161076554e-14 0)
(3 1.396585981e-14 0)
(3 1.400694837e-14 0)
(3 1.169928019e-14 0)
(3 6.551776877e-15 0)
(3 4.947459363e-15 0)
(3 1.989613304e-15 0)
(3 1.846313845e-15 0)
(3 2.919602122e-15 0)
(3 4.328019721e-15 0)
(3 3.849415678e-15 0)
(3 3.114560429e-15 0)
(3 2.344585071e-15 0)
(3 6.886427571e-17 0)
(3 1.284690709e-15 0)
(3 4.220406255e-15 0)
(3 4.991265149e-15 0)
(3 4.081922065e-15 0)
(3 1.724058007e-15 0)
(3 9.912834949e-16 0)
(3 1.769243634e-15 0)
(3 4.419752726e-15 0)
(3 9.824796222e-15 0)
(3 -4.376172933e-18 0)
(3 3.256191287e-15 0)
(3 3.825711552e-15 0)
(3 3.154916191e-15 0)
(3 3.512810392e-15 0)
(3 3.385013656e-15 0)
(3 -9.197553136e-17 0)
(3 -1.743616883e-15 0)
(3 -2.699448109e-15 0)
(3 -2.151980026e-15 0)
(3 -2.613885546e-15 0)
(3 -2.625014014e-15 0)