/*--------------------------------*- C++ -*----------------------------------*\
  =========                 |
  \\      /  F ield         | OpenFOAM: The Open Source CFD Toolbox
   \\    /   O peration     | Website:  https://openfoam.org
    \\  /    A nd           | Version:  7
     \\/     M anipulation  |
\*---------------------------------------------------------------------------*/
FoamFile
{
    version     2.0;
    format      ascii;
    class       volVectorField;
    location    "3.1";
    object      U;
}
// * * * * * * * * * * * * * * * * * * * * * * * * * * * * * * * * * * * * * //

dimensions      [0 1 -1 0 0 0 0];

internalField   nonuniform List<vector> 
22
(
(3.064367275 -0.2742782474 0)
(3.072279899 -0.1633473701 0)
(2.966438355 -0.3229471688 0)
(3.077358308 -0.290855926 0)
(3.070271259 -0.2096065899 0)
(2.947097266 0.06570678259 0)
(3.015475706 -0.3036104019 0)
(3.059981641 -0.2220157319 0)
(3.040796988 -0.1489459727 0)
(2.917981297 0.2056443092 0)
(2.934691269 0.1101243399 0)
(2.981956 -0.0172251263 0)
(3.010103899 -0.08891019299 0)
(2.948111766 0.1226559288 0)
(2.946948926 0.1243118865 0)
(2.968946471 0.0651687484 0)
(2.989412186 -0.006598521417 0)
(2.979020098 0.05127907663 0)
(2.950019371 0.1322450398 0)
(2.952384928 0.1238446965 0)
(2.96592458 0.08442843099 0)
(2.996303011 0.008876040903 0)
)
;

boundaryField
{
    inlet
    {
        type            fixedValue;
        value           nonuniform 0();
    }
    outlet
    {
        type            inletOutlet;
        inletValue      nonuniform 0();
        value           nonuniform 0();
    }
    bottom
    {
        type            slip;
    }
    top
    {
        type            slip;
    }
    obstacle
    {
        type            slip;
    }
    defaultFaces
    {
        type            empty;
    }
    procBoundary27to20
    {
        type            processor;
        value           nonuniform List<vector> 2((2.887004477 0.1372622968 0) (2.914078037 0.2224952125 0));
    }
    procBoundary27to21
    {
        type            processor;
        value           nonuniform List<vector> 4((3.0482172 -0.2527059335 0) (3.06329476 -0.1297290501 0) (2.975181615 -0.3190591823 0) (2.975181615 -0.3190591823 0));
    }
    procBoundary27to26
    {
        type            processor;
        value           nonuniform List<vector> 3((2.983709658 0.0471013306 0) (2.997978284 0.004628291308 0) (2.999967508 5.328993583e-05 0));
    }
    procBoundary27to28
    {
        type            processor;
        value           nonuniform List<vector> 6((3.042647579 -0.02439647234 0) (3.049575783 -0.04885766765 0) (3.049575783 -0.04885766765 0) (3.024420017 -0.07339741559 0) (3.009554776 -0.09923716816 0) (3.006277824 -0.1303473753 0));
    }
    procBoundary27to33
    {
        type            processor;
        value           nonuniform List<vector> 5((2.97452867 0.0643756946 0) (2.961227073 0.09552594104 0) (2.96187655 0.09652951898 0) (2.97452867 0.0643756946 0) (2.999767582 0.0005322780692 0));
    }
    procBoundary27to34
    {
        type            processor;
        value           uniform (2.989784256 0.004132309322 0);
    }
}


// ************************************************************************* //
