/*--------------------------------*- C++ -*----------------------------------*\
  =========                 |
  \\      /  F ield         | OpenFOAM: The Open Source CFD Toolbox
   \\    /   O peration     | Website:  https://openfoam.org
    \\  /    A nd           | Version:  7
     \\/     M anipulation  |
\*---------------------------------------------------------------------------*/
FoamFile
{
    version     2.0;
    format      ascii;
    class       volScalarField;
    location    "2.6";
    object      p;
}
// * * * * * * * * * * * * * * * * * * * * * * * * * * * * * * * * * * * * * //

dimensions      [1 -1 -2 0 0 0 0];

internalField   nonuniform List<scalar> 
2222
(
1.647960839
1.574391152
1.500903136
1.423002135
1.359277752
1.307555694
1.258305117
1.206174331
1.163960234
1.133070314
1.100811541
1.064690089
1.030639322
1.006164714
0.9801032812
4.61973816
4.760468709
4.76970689
4.753663646
4.702936884
4.609285316
4.48783957
4.310348287
4.094095425
3.842599387
3.557777389
3.314722996
3.088184749
2.840358258
2.618261742
2.446713619
2.286863626
2.119043458
1.985841278
1.884250246
1.785314401
1.681770801
1.597052321
1.526697236
1.456844236
1.383553487
1.320756253
1.270645782
1.222724775
1.172289545
1.13144351
1.102380911
1.072377885
1.038923746
1.005164332
0.9811510471
0.956134481
4.68164731
4.700304531
4.722342562
4.739546224
4.719594695
4.654113198
4.521626544
4.303624593
4.055083311
3.781751878
3.479682339
3.225696692
2.996939595
2.755263485
2.534931982
2.370066369
2.217302676
2.057807625
1.923903028
1.824450897
1.728910116
1.630287569
1.546725717
1.478996891
1.411880239
1.341417685
1.280399439
1.233166966
1.18791541
1.140850896
1.100420419
1.07219643
1.043102547
1.01086635
0.9778514436
0.9543532816
0.9302673385
4.682569143
4.66256166
4.677938218
4.702046523
4.693635208
4.642247749
4.511904792
4.288621052
4.022911087
3.729948759
3.408568919
3.138008286
2.904460301
2.66665542
2.446674238
2.289697703
2.145410425
1.994799738
1.862598894
1.765985685
1.673340188
1.579020756
1.495950578
1.43108502
1.367617633
1.302364803
1.242985137
1.197275705
1.153462995
1.107951512
1.068357396
1.04173891
1.014316796
0.9852738064
0.9539379612
0.9306395249
0.9072807695
4.65568626
4.661567928
4.666956225
4.668119777
4.658550156
4.608622983
4.479954758
4.256311041
3.980975734
3.680449039
3.346318172
3.061999643
2.822191314
2.585530218
2.363954763
2.210488503
2.073281687
1.933899708
1.804752386
1.709892678
1.620250827
1.530128878
1.447669812
1.384471598
1.324064706
1.261818522
1.204228261
1.161090519
1.119758483
1.077980499
1.039325262
1.013126431
0.9862572371
0.9578854923
0.9268383275
0.9038344234
0.8815460477
4.65688001
4.669714248
4.665547813
4.658614312
4.634851792
4.56594497
4.420765266
4.179105822
3.899891321
3.604986455
3.276246547
2.989637565
2.747991491
2.514856146
2.292473691
2.138498865
2.005007878
1.872893506
1.747516457
1.656329567
1.569862073
1.48306422
1.400508217
1.338981486
1.281347485
1.224065772
1.169344086
1.127789393
1.087918548
1.047336803
1.009167788
0.9838775837
0.9578805127
0.9307797304
0.9018079081
0.8792161151
0.8577817763
4.675282526
4.670215152
4.664299965
4.655846639
4.620830291
4.528233891
4.354403563
4.088389445
3.801106242
3.512158973
3.192394882
2.911500897
2.676342194
2.450877785
2.229973964
2.073511206
1.939024523
1.810997126
1.688708839
1.600125589
1.517721464
1.435428104
1.354521584
1.294665018
1.239924171
1.185702985
1.132848037
1.093431261
1.05553941
1.01775185
0.9810539989
0.9555726553
0.930148852
0.9041275339
0.8759353696
0.8537083154
0.833601281
4.675827621
4.66579766
4.664195136
4.65369617
4.607707309
4.493329994
4.291840697
3.998174415
3.696191453
3.407283527
3.095244342
2.823372831
2.598338649
2.386085719
2.172193661
2.013644208
1.878475632
1.750863097
1.62954676
1.54347866
1.464832773
1.386450707
1.307016361
1.249321254
1.197110204
1.146839301
1.097217669
1.06055686
1.025452885
0.989744418
0.9536802162
0.928395895
0.9034542455
0.8777327043
0.8503288603
0.8290233053
0.8095080819
4.6642577
4.665965915
4.664886737
4.649815625
4.591863325
4.455714698
4.229224535
3.911856095
3.594014022
3.299955503
2.991272094
2.725318646
2.512126086
2.313678846
2.108468813
1.951802532
1.818832361
1.692411581
1.571848569
1.485166731
1.408453638
1.334364058
1.259047123
1.204524276
1.155937063
1.108445108
1.060631754
1.025853627
0.992222779
0.9581188313
0.9235121207
0.898945441
0.8752027201
0.8510250541
0.8250383128
0.8050193266
0.7870465452
4.662776203
4.668552378
4.663988346
4.644044587
4.571929085
4.412237318
4.162512935
3.825492404
3.494861986
3.196713661
2.889081497
2.623022686
2.417603034
2.232648387
2.040992405
1.888584478
1.760092696
1.637039625
1.517264136
1.429427874
1.354057435
1.283220588
1.210799162
1.158788585
1.113038422
1.068623835
1.024001063
0.9918778362
0.9610989093
0.9295322414
0.8965610527
0.8720977453
0.8488391968
0.8255028705
0.7998641545
0.7803420351
0.7631229019
4.670236486
4.668409707
4.662027897
4.636608666
4.547254213
4.361656068
4.089380068
3.73570552
3.395327965
3.095185619
2.789725413
2.522191216
2.321614334
2.144866985
1.963257811
1.817821707
1.697835739
1.582118716
1.466251711
1.377757274
1.301826558
1.231973434
1.163171975
1.114072285
1.072719284
1.031725218
0.988465066
0.9568003981
0.9273702372
0.8976481431
0.8661837579
0.8428367848
0.8214487975
0.8000395913
0.7763391992
0.7584934613
0.7428576069
4.672081163
4.666320703
4.659965337
4.627111648
4.516941284
4.30351477
4.009140632
3.640459034
3.292681697
2.992819199
2.692547821
2.424675575
2.226503791
2.054487556
1.88253764
1.742750232
1.631524016
1.524838223
1.415192464
1.327790803
1.253972872
1.185950111
1.11921343
1.071243023
1.032782331
0.9949601157
0.954807576
0.9248629509
0.896815329
0.8682033827
0.8385210199
0.815713064
0.7947346696
0.7739120669
0.7508489808
0.7333739129
0.7188939323
4.667363632
4.665584226
4.657919028
4.614669751
4.4806166
4.237329542
3.921320582
3.540255722
3.186402019
2.887807358
2.59480766
2.328639466
2.134580993
1.967188372
1.800542748
1.663894608
1.56092034
1.465015764
1.364705883
1.281075194
1.210078145
1.142731239
1.077123793
1.029382472
0.9932262656
0.9583404412
0.920835988
0.8918709043
0.8656259499
0.839169984
0.8113763691
0.7895294628
0.7702229438
0.7510519258
0.729600433
0.7128998972
0.6989308463
4.665261717
4.6662962
4.654934968
4.598538326
4.437232072
4.163210235
3.826813808
3.434166179
3.075934221
2.780295937
2.495812924
2.233910014
2.044424056
1.881247275
1.7211974
1.586956778
1.490362699
1.4026357
1.310920712
1.232457622
1.166489746
1.102388412
1.038804805
0.991798241
0.95751115
0.9252064471
0.8899790932
0.8620169467
0.8367528666
0.8112020987
0.7844584064
0.7630406036
0.7444499881
0.7266780554
0.706641921
0.6907521025
0.678301444
4.668003459
4.666347772
4.64960245
4.577643536
4.386301103
4.080496347
3.724589018
3.323601193
2.962392518
2.670104997
2.394954858
2.138156974
1.954354276
1.799167777
1.645848319
1.512457046
1.419357778
1.338270725
1.255890986
1.184169289
1.124286311
1.06438168
1.003159862
0.9555372968
0.9205907627
0.8891812848
0.8561819512
0.8308008646
0.8088972695
0.7860624206
0.761601928
0.7409553487
0.7227231378
0.7050117133
0.6852808059
0.669981157
0.6580679952
4.669995952
4.66493865
4.642551156
4.551026608
4.326072223
3.988785839
3.615984406
3.208279674
2.845204312
2.557409737
2.29236432
2.043226047
1.865945785
1.71635189
1.570562137
1.441615889
1.35331992
1.276589951
1.200130099
1.132790705
1.079364308
1.025514643
0.9688921067
0.9235792928
0.8880154121
0.8560004773
0.8240687957
0.7999759757
0.7795557875
0.757773952
0.7339199417
0.7135819277
0.6968309196
0.6813418445
0.664206468
0.6503991823
0.6397144301
4.669083753
4.663351756
4.633226063
4.517020048
4.255829462
3.888150494
3.499748246
3.087742687
2.72596037
2.444133358
2.18881341
1.946453809
1.775560304
1.635898093
1.499832881
1.374729617
1.28873853
1.214056614
1.142084222
1.080007755
1.032733804
0.9847307258
0.9338234009
0.8904305066
0.8548266173
0.822539637
0.7923521523
0.7707669974
0.7534015726
0.7339428529
0.7114939373
0.6911502954
0.6747912389
0.6602299882
0.6443198834
0.6312077614
0.6215437471
4.667746321
4.662483839
4.620381144
4.474520094
4.175156228
3.777068375
3.376865511
2.964616568
2.603786113
2.327812284
2.083633263
1.851575287
1.688342522
1.554832629
1.42625528
1.307071452
1.226947822
1.156441539
1.090026981
1.030464054
0.9880732129
0.9462535653
0.9004204558
0.8593814091
0.8244084274
0.7912176039
0.7611596772
0.7394097883
0.724031713
0.7070051422
0.6863177561
0.6668657141
0.6517385033
0.6382971069
0.6233206756
0.6113379465
0.6026839054
4.668697693
4.661430429
4.602554322
4.422663213
4.083092277
3.658456241
3.247159245
2.834673556
2.480008286
2.213042163
1.978980815
1.755276646
1.598458467
1.474329788
1.356736615
1.244686722
1.16809302
1.101091206
1.035528305
0.9755631358
0.9364980255
0.9003460145
0.861759993
0.8257237346
0.7940938488
0.762109078
0.7316678281
0.7101029973
0.695125576
0.6783793755
0.6585880194
0.6400775583
0.6261429473
0.614008504
0.6010668072
0.590676847
0.5834805289
4.670570957
4.659452588
4.57908456
4.361064139
3.981408299
3.528968095
3.110834752
2.704108634
2.35407347
2.094948148
1.873433417
1.661126695
1.512171849
1.395911625
1.286017149
1.178376898
1.107628897
1.045873654
0.9858926788
0.9300452055
0.893019025
0.8601963925
0.8256489471
0.792077554
0.7622127458
0.7309219883
0.7022092091
0.6815985367
0.6680413307
0.6537718547
0.6365100175
0.6188276843
0.6057613049
0.5948546191
0.5832551239
0.5733626035
0.566820872
4.670648619
4.653072744
4.548394526
4.288138914
3.867322346
3.393884512
2.96958659
2.566283639
2.227230414
1.979914687
1.768332214
1.566015384
1.424870739
1.317074457
1.21645752
1.117640266
1.051629257
0.9939006028
0.9368431434
0.8809392787
0.8464138554
0.8188386172
0.790562326
0.7618387699
0.7358975688
0.7077617713
0.6799668117
0.6583185896
0.6444885679
0.6305010076
0.613878966
0.5968343006
0.5847415162
0.5744185699
0.5629947944
0.553745641
0.5481999502
4.669535772
4.64512871
4.508079706
4.201735661
3.742918055
3.24818986
2.82225658
2.429706048
2.098512321
1.861041695
1.662739154
1.474687599
1.342442025
1.241441276
1.147601952
1.055748199
0.9958502191
0.9428152748
0.8892190329
0.8367632592
0.8038598246
0.7765340098
0.7499671268
0.7242546135
0.7016506215
0.6766139808
0.6501169427
0.6296616566
0.6164555682
0.6022782234
0.5860845994
0.57067969
0.5603630029
0.5513657328
0.5416914881
0.5337418811
0.5292009027
4.669175686
4.632279949
4.455667429
4.10079007
3.605013895
3.097155743
2.671110124
2.28673545
1.969287204
1.745849384
1.560398382
1.38299205
1.256950941
1.164435957
1.078725777
0.9943440157
0.9378105824
0.8898575589
0.8421530641
0.7948541029
0.7653098492
0.740057417
0.7157604973
0.6922191895
0.6713874207
0.6488174406
0.6257276204
0.6073964517
0.5942438178
0.5807429184
0.5666597588
0.5523097315
0.5425169581
0.5345324905
0.5260984766
0.5184182062
0.5142803548
4.670022
4.613326501
4.390154104
3.984761198
3.455629224
2.936210349
2.514740132
2.144692086
1.839929104
1.628715085
1.456624352
1.291946708
1.175778878
1.094718619
1.018872541
0.9394348387
0.8857818629
0.8416095285
0.7978609499
0.7528334239
0.7247438239
0.7026129521
0.6824060494
0.6611843368
0.6438496197
0.6260024537
0.6065416387
0.5889770446
0.5763612138
0.5631896436
0.5492385504
0.5347593765
0.5259263518
0.5187273336
0.5103938953
0.5027271284
0.4989860409
4.671403987
4.58734162
4.311790613
3.853601082
3.293832089
2.768376392
2.354236807
1.998276493
1.710608922
1.51471255
1.356349277
1.205633949
1.099117659
1.02046084
0.9468969015
0.8737500063
0.8272373219
0.7921668643
0.7558928132
0.7156842208
0.6900683046
0.6678352186
0.6462940934
0.6258023596
0.6110736426
0.5957428928
0.5781666432
0.5627285723
0.552131271
0.5396965653
0.5256026021
0.5121994864
0.5049141826
0.4988560566
0.4912375611
0.4839164649
0.4810087383
4.669362118
4.552946021
4.218927515
3.705924095
3.11846556
2.593386638
2.189597793
1.852499565
1.58322735
1.400844772
1.253254192
1.118263882
1.023680131
0.955520025
0.8910149203
0.8234794547
0.7788205314
0.7449996486
0.7112606941
0.6754648435
0.652304695
0.6322077368
0.6125533657
0.59405486
0.5800183653
0.5665682521
0.5524642935
0.5399170716
0.530588158
0.5194001326
0.5066218997
0.4942389742
0.4870879598
0.4813708022
0.4749214707
0.4685187173
0.4662966957
4.660953741
4.50704556
4.106365152
3.538667852
2.931639729
2.408776579
2.022065517
1.706288697
1.452385798
1.289021559
1.161250986
1.037370444
0.9455615513
0.8829806665
0.8259732869
0.7651179301
0.7276222259
0.7006543891
0.6722208155
0.6407102869
0.6199186084
0.6027065516
0.5863274056
0.5686182681
0.5558751911
0.545621227
0.5340548727
0.5222871555
0.5140116699
0.5040519728
0.4921083885
0.4800852348
0.473468002
0.4681920229
0.4621254289
0.4556793687
0.4532576948
4.651008426
4.45062621
3.973224375
3.35045793
2.728678091
2.218168754
1.852699647
1.560426791
1.325397499
1.181050849
1.068002287
0.9578079604
0.8765290666
0.8204556625
0.7685007745
0.7141309471
0.6797056629
0.6566103419
0.6328810727
0.6042423497
0.5860676138
0.5720320131
0.5571277887
0.5400653649
0.5294716399
0.5210288285
0.5108697468
0.5011214307
0.4947137915
0.4862677523
0.4749879201
0.4637704281
0.4577314339
0.4525956768
0.4466836382
0.4398396365
0.4375216428
4.637426918
4.375566608
3.812125055
3.139146266
2.514859956
2.023657368
1.676389998
1.409944074
1.205233941
1.075370746
0.9712102987
0.8739641431
0.8017958625
0.7560443066
0.7135847924
0.6667190027
0.6374842877
0.6169731174
0.5948033572
0.56821674
0.5528486857
0.5407551998
0.526780326
0.511796453
0.5023503476
0.4939659678
0.4849858175
0.4770582328
0.4723578392
0.4658129777
0.4561757472
0.4465842665
0.4411162895
0.4355427635
0.429924959
0.423178665
0.4206851823
4.622333058
4.277737034
3.622254378
2.909250746
2.28520771
1.816433579
1.501961281
1.268231581
1.09134317
0.9808976217
0.8894334855
0.8017360924
0.7358432442
0.6952429686
0.6576388698
0.6155881909
0.58879584
0.5725208409
0.5553451812
0.5351034568
0.5231936384
0.5136295905
0.5020565554
0.4889328886
0.47907001
0.4706748045
0.462659773
0.4554941163
0.4521242637
0.4472041249
0.439432209
0.43131513
0.4265824169
0.4212312037
0.4159234065
0.4102315835
0.4078812754
4.599694985
4.152260617
3.396588464
2.65458303
2.043764319
1.610035788
1.339217222
1.128043001
0.9617420178
0.8661056387
0.7942940538
0.7232598312
0.6694632404
0.6405008263
0.6113270565
0.5752703571
0.5537361298
0.5421204979
0.5280694091
0.5081678343
0.4963632019
0.4889852669
0.4800122023
0.4685545128
0.4595695838
0.4520151035
0.4443705442
0.4376922315
0.4348242203
0.4306772127
0.4238214493
0.4165589329
0.4123019134
0.407077365
0.4018311527
0.3954840315
0.3927827725
4.561663367
3.985039769
3.132587921
2.379516979
1.796399329
1.396632387
1.169260366
1.004017281
0.8657376542
0.7835628563
0.7209798357
0.6551164983
0.6059612276
0.5838955987
0.5612801756
0.5309046559
0.5140676185
0.5072705252
0.4965546597
0.4770412848
0.4677304644
0.4631834978
0.4564344916
0.4473267578
0.4404069433
0.433624694
0.4262025163
0.4183824025
0.4166982148
0.413898355
0.4086529718
0.4026871341
0.3987587406
0.3934499841
0.387623419
0.3808321344
0.3788583356
4.503944584
3.768562816
2.828880292
2.065942207
1.553115152
1.212045323
1.007047525
0.861689348
0.7461451183
0.6875841993
0.643061035
0.588336951
0.5519313192
0.539916604
0.5228607941
0.491361618
0.4779602174
0.4734294652
0.4637103097
0.4454553684
0.4373984594
0.4350363294
0.4301346543
0.4224577285
0.4166845573
0.4110111522
0.404946325
0.3969673828
0.3963176807
0.3953387272
0.3925570693
0.3888877768
0.38577598
0.3806490518
0.3744532719
0.3673886905
0.3658652677
4.414058341
3.477162105
2.48238889
1.752981837
1.285769399
1.021246933
0.8671629491
0.7474047393
0.6534209142
0.6100043044
0.5758969574
0.523716525
0.4973778273
0.4931404985
0.4816689149
0.453506734
0.4449558083
0.4442887997
0.4378565832
0.421700421
0.4128359567
0.4103025196
0.406052208
0.3991924769
0.3945341469
0.3902391945
0.3839118661
0.37750834
0.3764172328
0.3765999274
0.375462246
0.3729382972
0.3704676153
0.3661858749
0.3601433316
0.3535048153
0.3521031642
4.274060422
3.112117265
2.074397826
1.437391563
1.032803682
0.8228919252
0.7155721938
0.6327367435
0.5600426287
0.5383596601
0.5165556677
0.4699083294
0.4517618568
0.4525892919
0.4453072206
0.4236244571
0.4167296325
0.4169133709
0.4127524657
0.3997761293
0.3927887126
0.3904604046
0.3869284338
0.3809897803
0.3781519674
0.375091463
0.3694254855
0.3623635875
0.3599272101
0.3595103289
0.3577422261
0.3556749888
0.3544459883
0.3513360781
0.3457781318
0.3400665962
0.3389100939
4.062584066
2.64367057
1.631886935
1.126723661
0.8384860027
0.6770086431
0.6062274981
0.5370666696
0.478074094
0.4719416943
0.456934093
0.422384938
0.4051464951
0.407502906
0.4036167132
0.3875926407
0.3840302861
0.386243478
0.3837571289
0.3746553324
0.3707332209
0.3698949425
0.3676255719
0.3620925627
0.3610292003
0.359723321
0.3558913827
0.3480938928
0.3458718018
0.345102551
0.3433898576
0.343102632
0.343016303
0.3409679499
0.3360539449
0.3311070306
0.3292027618
3.665083131
2.125695488
1.208427664
0.7922947904
0.5950770971
0.5223804732
0.5012582017
0.4504050878
0.4120329177
0.4169324577
0.4095818275
0.3860820612
0.3750006388
0.3756198434
0.3717095821
0.3598510522
0.3550716556
0.3561843313
0.354776262
0.3479457488
0.3466240348
0.3471081866
0.3454569813
0.3400501075
0.3397246075
0.3396189419
0.3376429313
0.3322982769
0.3304672047
0.330530038
0.3303433226
0.3307941238
0.3313152586
0.3302845166
0.3262954094
0.3214893918
0.320177563
3.080955425
1.360347968
0.8166284661
0.6090675657
0.4515838153
0.4192442516
0.4054743719
0.3705614965
0.3487030172
0.352023298
0.3454238384
0.3294963022
0.3302215699
0.3374850847
0.3367297104
0.3301154847
0.3293314306
0.3312954902
0.3307664975
0.325156367
0.3238736669
0.3250294485
0.3236576142
0.3194277468
0.3195737101
0.3203026735
0.319120342
0.3162235091
0.315637605
0.3162506522
0.316424178
0.3172701563
0.3186267553
0.3182165316
0.3151293099
0.3109253686
0.3096781908
2.029679754
0.6348619548
0.4024668066
0.3789717557
0.3273016846
0.3244072563
0.3222861799
0.3043573017
0.298852128
0.2994856142
0.3013153444
0.3014765277
0.3049841093
0.3117486075
0.312047193
0.3084146189
0.3080589578
0.3096481886
0.3091905463
0.3050675973
0.3047662029
0.3058023828
0.3054618885
0.303391176
0.3034004109
0.3043464836
0.3038784177
0.302506012
0.3020684074
0.3025153728
0.3026417196
0.3031186511
0.3044796018
0.3047063602
0.3033539934
0.3014165118
0.3008395587
0.4112329277
0.3645328478
0.3226874772
0.3186523589
0.2928279212
0.2999184744
0.3012308913
0.2878845093
0.2829030008
0.2837472552
0.2840247743
0.2838688884
0.2864679311
0.2932786613
0.2931869139
0.2918998807
0.2931223
0.2944985902
0.2936737446
0.292031489
0.2925889212
0.2939307772
0.2926868104
0.2914251367
0.2919213307
0.2928749919
0.2923500418
0.2913916898
0.2922633369
0.2930390526
0.2936139595
0.2944097706
0.2958754069
0.2958841418
0.2946684955
0.2933441383
0.2894570253
0.2675731545
0.2911172006
0.2981148879
0.2781016464
0.2881067939
0.29193848
0.2817670173
0.2782643856
0.2800465698
0.2806552644
0.2805926772
0.2818028391
0.2871875436
0.2877964294
0.2873910786
0.2888485559
0.2906102738
0.2897420982
0.288784656
0.289448039
0.2909097618
0.2896351875
0.2883312159
0.2885009143
0.289184121
0.2884998189
0.2876372452
0.2879550848
0.2886511437
0.2894348545
0.2908811301
0.293046408
0.29339172
0.2923346263
0.2913822166
0.2440574573
0.2363854096
0.2705145158
0.2757161733
0.265386225
0.2778787906
0.2789505345
0.2696106492
0.2658043115
0.2706190051
0.274235623
0.2757802822
0.2784085898
0.2820629772
0.2830492048
0.2827852736
0.2844295758
0.2863615048
0.28545114
0.284511913
0.2850323708
0.287565004
0.2867698488
0.2860647893
0.2867184484
0.2873117919
0.2864613118
0.2857653583
0.2856856305
0.2855527437
0.2852998242
0.2861430371
0.2888434296
0.2901956715
0.2896669383
0.2896766945
0.2211373833
0.2371202434
0.2371731392
0.2409772565
0.245281215
0.2635430427
0.2648014065
0.2589883237
0.2582821889
0.2593744701
0.2636141119
0.2664543002
0.2729481703
0.2765095792
0.2765682959
0.2765332662
0.2771811583
0.2794556048
0.2788145883
0.2785023256
0.2790504031
0.2814085829
0.2815161748
0.2824509179
0.2842271868
0.2851151098
0.2841649767
0.2838756446
0.2840900236
0.2840143407
0.283518968
0.2833310388
0.2843981273
0.2853083305
0.2853630923
0.2869664401
0.2097427973
0.2368778665
0.2118735077
0.2269206328
0.2330520621
0.2515737409
0.2550803689
0.2538575537
0.2547672264
0.2568065045
0.2576833276
0.2573429423
0.2632532157
0.2682268739
0.2679362061
0.2691380161
0.2697036122
0.2720195288
0.2733354655
0.2731156662
0.2737306772
0.2756837716
0.275113199
0.2763292414
0.2794054552
0.2810172415
0.2800139913
0.2803996363
0.2816736818
0.2821439057
0.2822083803
0.2821376745
0.2825985039
0.2820900298
0.281561835
0.2828755714
0.2034072104
0.2327572301
0.2077874616
0.2243771377
0.2306004718
0.2467794614
0.2472335322
0.2455886352
0.2476026118
0.2539084678
0.2551178098
0.2545269344
0.2556042325
0.260441136
0.2627447317
0.2652996292
0.2673552907
0.2692620407
0.2709328118
0.2715218976
0.2717310316
0.2732297559
0.27235011
0.2721826095
0.2736877964
0.2749704236
0.2739534236
0.2746972157
0.2769026821
0.2784901469
0.2799214223
0.2808938111
0.2816072311
0.2809995617
0.2802250153
0.2805313343
0.1981806239
0.225208341
0.2091276659
0.2188585577
0.227163423
0.2405957799
0.2370059998
0.2309732789
0.2346239404
0.246749334
0.2508938892
0.2529036696
0.2532479587
0.2568845028
0.2599858395
0.2624326503
0.2652992395
0.2676193246
0.2691071965
0.2700844933
0.2705010403
0.2712268773
0.271116109
0.2710692724
0.2718332212
0.2719461989
0.2712199926
0.2712443287
0.2718589701
0.272799804
0.2751988335
0.2782130677
0.2801349529
0.2802540321
0.2796956657
0.2796709041
0.1961110862
0.2145550264
0.2098577498
0.2068161292
0.2178454882
0.2289594873
0.2242672354
0.2237744273
0.2275014198
0.2355154724
0.2417102805
0.2492821266
0.2514359166
0.2539537013
0.2565701401
0.2585085108
0.2620407564
0.264692796
0.2660701342
0.267741235
0.2686676094
0.2693230269
0.2696135069
0.2703838662
0.2710802915
0.2708757523
0.2702571574
0.2700350071
0.2699815822
0.2699555506
0.2703522072
0.2731208296
0.2769457002
0.2784531825
0.2787771957
0.279344833
0.1986620357
0.2075856609
0.2094362686
0.1985469686
0.2107265595
0.2188824696
0.2184723551
0.2228554425
0.2258687718
0.2305202481
0.2316465066
0.24058299
0.2475758274
0.2499980315
0.2498332499
0.2511239097
0.2558928736
0.2590804464
0.2596629079
0.2625252769
0.2641152638
0.265051015
0.2661536529
0.2684200247
0.2700396226
0.2699201253
0.2694986121
0.2695659683
0.269439865
0.2690607403
0.2686955916
0.2693874453
0.2719129032
0.2746444195
0.2763359631
0.2781465977
0.2106106772
0.2053905792
0.206116945
0.1984286198
0.2102427652
0.2163855305
0.2160524235
0.2214642999
0.2253497678
0.2290992306
0.2284481318
0.2302463635
0.2387791891
0.2419874949
0.2392834079
0.2417751801
0.247602905
0.2519100178
0.2543016447
0.2550563571
0.2565236439
0.2578053879
0.2596073239
0.2637572027
0.2670160825
0.2674564341
0.2672990223
0.2680713198
0.2686147825
0.2686161294
0.2682406644
0.2682112899
0.2692479312
0.270030656
0.2719650397
0.2393061556
0.2049726358
0.2002798373
0.1997396118
0.2108815332
0.2149726722
0.2132546153
0.2161008017
0.2221620212
0.2274558301
0.2278598511
0.2272694611
0.2285912513
0.2320814151
0.2348027493
0.2384472978
0.2441568438
0.2488167812
0.2513777843
0.2522922234
0.253078553
0.2539999017
0.2547243965
0.2573266418
0.2611202584
0.261927099
0.2623283907
0.2643261262
0.2661460445
0.2669545169
0.2675491637
0.2679440314
0.2683660298
0.268219582
0.2690440383
0.2611702741
0.205679871
0.2008560052
0.2040413375
0.2129377616
0.2119849408
0.2083684956
0.2059192178
0.2147224575
0.2228438079
0.2267613411
0.2266698858
0.2256776032
0.2291328057
0.2338362732
0.2372686584
0.24327453
0.2475364398
0.2501918518
0.250931299
0.2517497892
0.2526823861
0.2532366833
0.2547966591
0.2567277509
0.2568509638
0.2571669224
0.258544382
0.2609216772
0.2628918067
0.2652718836
0.2669819804
0.2680000133
0.267732846
0.2680421006
0.2615556539
0.2096233248
0.2028369944
0.2054380038
0.2117678894
0.2062824266
0.2010979252
0.2016635405
0.2081124892
0.2132359
0.2218348999
0.2243045875
0.2253645332
0.2279829989
0.2336523675
0.2372326416
0.2423090667
0.2461300758
0.248997663
0.2501168144
0.2509778182
0.251906186
0.2528888727
0.2541534171
0.2553792449
0.2553375015
0.2553561434
0.255730566
0.2563220866
0.2574483136
0.2604474211
0.264248537
0.2666598089
0.2673850692
0.2678714553
0.2547335777
0.2139288322
0.2058247715
0.2046807598
0.2076901239
0.2000498725
0.1976998037
0.201169334
0.2063233283
0.207901856
0.2119824924
0.2203608596
0.224747883
0.2268791249
0.2317604749
0.2354038814
0.2393237294
0.2430627368
0.2460978238
0.2477484151
0.2487981769
0.2499201885
0.251675906
0.2538197333
0.2548705869
0.2546889654
0.2546751282
0.2547915122
0.2549997052
0.2554683063
0.2564812955
0.2593383395
0.263469951
0.2658278364
0.2671054984
0.2328330528
0.2158970475
0.2077186422
0.2027824291
0.2042298834
0.1991223863
0.1974270118
0.20153566
0.2059908484
0.2070376239
0.2075741152
0.2154335245
0.2212083839
0.2243650843
0.2267361622
0.2303952127
0.2327486082
0.2363321432
0.2394163537
0.2421793434
0.2436872872
0.2452317541
0.2483630064
0.2519536035
0.2535557534
0.2536938398
0.2540018805
0.2544044182
0.2546949638
0.2549675455
0.2554340484
0.2566665461
0.2586594551
0.2622445259
0.2647297326
0.1962546836
0.2178398133
0.2069024838
0.2020876486
0.2036536175
0.1991532317
0.1978184745
0.2037105509
0.2069683724
0.2075843929
0.2071065421
0.2079363827
0.2135764046
0.218867289
0.2187274712
0.2232963252
0.2263528648
0.2288545934
0.2310372576
0.2344481438
0.2365757612
0.2385015268
0.2419471241
0.2473160915
0.2503251984
0.2511394468
0.2518764783
0.2528494341
0.2538287912
0.2547783489
0.2554681633
0.2559800111
0.2565122742
0.2576658335
0.260081879
0.1868575883
0.2155813662
0.2031597471
0.2019123681
0.2034890796
0.1999130676
0.1989995943
0.2039966963
0.2068553639
0.2068781124
0.2063850466
0.2037760034
0.2077106416
0.211548871
0.2157397635
0.220773487
0.2246883972
0.2267342198
0.2284156664
0.231611633
0.2339739733
0.2360026072
0.2378418752
0.2409683354
0.2439087686
0.2455188104
0.2470058288
0.2491155223
0.2513208239
0.2532973399
0.2551048492
0.2559422445
0.2558071179
0.2558480676
0.2568843581
0.1870861599
0.2113601049
0.2018759268
0.2020729024
0.2032574374
0.1999352299
0.1991648684
0.2031066668
0.2058496774
0.2044885732
0.2040254442
0.2027164266
0.2066539174
0.2093510968
0.2151247677
0.2201272561
0.2244472699
0.2262318811
0.2277657568
0.2308213649
0.2332545816
0.2353067266
0.2367211908
0.2386196881
0.2392071585
0.2399180746
0.241033461
0.2433050032
0.2464564124
0.2498601908
0.2532191693
0.2550637422
0.2555597097
0.2552889353
0.188223848
0.2117512522
0.2025267546
0.2038726492
0.2024956176
0.1995616738
0.1989196041
0.2001133526
0.2023684502
0.1987169629
0.1991372627
0.2027224421
0.2067023489
0.2089003933
0.2156140743
0.2202774843
0.2241362392
0.2258457515
0.227695193
0.2306616063
0.2330353263
0.2351149594
0.2365905466
0.2378075603
0.2378981498
0.2383136502
0.2391828347
0.2408330794
0.2429162915
0.2451390149
0.2489772321
0.2526622234
0.2544466572
0.2551198879
0.1915841379
0.2111454895
0.2026622933
0.2038575777
0.2016545019
0.1980000518
0.1976472513
0.1985482395
0.1984146598
0.1953802518
0.1962450367
0.2031302279
0.206704568
0.2089955813
0.2145851767
0.2188966174
0.2220588757
0.2238824591
0.2260911105
0.2292456159
0.2316225757
0.2338408387
0.2359010335
0.2374360546
0.2375991209
0.2379450981
0.2387956094
0.2401687124
0.2418215272
0.2430897311
0.2447516618
0.2478202289
0.2516834079
0.2537206909
0.2020447618
0.2097753855
0.2012864026
0.2019722193
0.2005404676
0.1977748061
0.1977699625
0.1987702355
0.1980760324
0.1951227452
0.1960638671
0.2019992975
0.2050672434
0.2076790272
0.211522673
0.2153334459
0.2171056627
0.2193268968
0.2222093325
0.2257949823
0.2282107563
0.2306203827
0.2335192845
0.2359516026
0.2368507871
0.2376208047
0.2387324434
0.2401945059
0.2415433178
0.2424257019
0.2435040521
0.2440638339
0.2465897
0.2503474824
0.2264718967
0.2082117226
0.1986523142
0.1980440677
0.2004091758
0.1991158434
0.1986178544
0.1995247105
0.198780811
0.1957960162
0.1959445296
0.19880617
0.2011516279
0.2046978117
0.2059062605
0.2090602317
0.2102498908
0.2125790443
0.2155573495
0.2191981026
0.221763632
0.2241953918
0.2282199799
0.2323661815
0.2345447256
0.2358831522
0.2372814857
0.2392750982
0.2411231865
0.2424728578
0.2431861407
0.2429846134
0.2434663789
0.2454272644
0.2407580623
0.2072965508
0.1968321954
0.1959735655
0.2006516478
0.2008783037
0.1999650517
0.2002248551
0.1991134004
0.1967407897
0.194854895
0.1945800021
0.1967391079
0.2003811798
0.2029531837
0.205800017
0.2080469323
0.20984436
0.2122238442
0.2153763611
0.2182145394
0.220261746
0.222993502
0.2261963473
0.2294566798
0.2317928984
0.2337684667
)
;

boundaryField
{
    inlet
    {
        type            fixedValue;
        value           nonuniform 0();
    }
    outlet
    {
        type            zeroGradient;
    }
    bottom
    {
        type            slip;
    }
    top
    {
        type            slip;
    }
    obstacle
    {
        type            zeroGradient;
    }
    defaultFaces
    {
        type            empty;
    }
    procBoundary9to3
    {
        type            processor;
        value           nonuniform List<scalar> 
38
(
1.696674569
1.620820136
1.544871908
1.464451822
1.399587592
1.345545094
1.294145494
1.239356989
1.197136785
1.165322207
1.131532415
1.093347141
1.058051668
1.032294394
1.005261321
4.715122499
4.788109669
4.766890339
4.714781773
4.651679008
4.588362245
4.494534116
4.33808537
4.147609394
3.913042304
3.640126161
3.398582053
3.168716811
2.914256432
2.692096013
2.517483012
2.354707268
2.181926931
2.048930699
1.943246035
1.840558894
1.733020401
1.733020401
)
;
    }
    procBoundary9to4
    {
        type            processor;
        value           nonuniform List<scalar> 9(0.9538723812 0.9299484146 0.9049363706 0.8828423603 0.8584973785 0.8357483405 0.8133133052 0.790379538 0.7696481022);
    }
    procBoundary9to8
    {
        type            processor;
        value           nonuniform List<scalar> 
12
(
4.522952195
4.626957779
4.732521396