/*--------------------------------*- C++ -*----------------------------------*\
  =========                 |
  \\      /  F ield         | OpenFOAM: The Open Source CFD Toolbox
   \\    /   O peration     | Website:  https://openfoam.org
    \\  /    A nd           | Version:  7
     \\/     M anipulation  |
\*---------------------------------------------------------------------------*/
FoamFile
{
    version     2.0;
    format      ascii;
    class       volVectorField;
    location    "1.6";
    object      U;
}
// * * * * * * * * * * * * * * * * * * * * * * * * * * * * * * * * * * * * * //

dimensions      [0 1 -1 0 0 0 0];

internalField   nonuniform List<vector> 10((2.948499798 0.0009941827201 0) (2.971587764 0.004554453891 0) (2.967764367 0.0001375222654 0) (2.986170715 0.001046167804 0) (2.977050597 0.002756089773 0) (2.992774916 -0.003151420788 0) (3.001496362 -0.0164789359 0) (3.000602704 -0.03555282386 0) (2.99258501 -0.01473416865 0) (2.988086487 0.0003127454171 0));

boundaryField
{
    inlet
    {
        type            fixedValue;
        value           nonuniform 0();
    }
    outlet
    {
        type            inletOutlet;
        inletValue      uniform (3 0 0);
        value           nonuniform List<vector> 8((2.992774916 -0.003151420788 0) (3.001496362 -0.0164789359 0) (3.000602704 -0.03555282386 0) (2.99258501 -0.01473416865 0) (2.988086487 0.0003127454171 0) (2.948499798 0.0009941827201 0) (2.967764367 0.0001375222654 0) (2.977050597 0.002756089773 0));
    }
    bottom
    {
        type            slip;
    }
    top
    {
        type            slip;
    }
    obstacle
    {
        type            slip;
    }
    defaultFaces
    {
        type            empty;
    }
    procBoundary35to28
    {
        type            processor;
        value           nonuniform List<vector> 4((2.982256768 -0.01742413542 0) (3.003589651 -0.03367108529 0) (2.997754749 -0.02756322937 0) (2.997754749 -0.02756322937 0));
    }
    procBoundary35to29
    {
        type            processor;
        value           nonuniform List<vector> 3((2.930609775 -0.001092667466 0) (2.940400357 0.002478614746 0) (2.940400357 0.002478614746 0));
    }
    procBoundary35to34
    {
        type            processor;
        value           nonuniform List<vector> 4((3.002486863 -0.01543674155 0) (3.003450618 -0.01069142773 0) (2.992281024 0.007269213393 0) (2.98419257 0.008954764507 0));
    }
}


// ************************************************************************* //
