/*--------------------------------*- C++ -*----------------------------------*\
  =========                 |
  \\      /  F ield         | OpenFOAM: The Open Source CFD Toolbox
   \\    /   O peration     | Website:  https://openfoam.org
    \\  /    A nd           | Version:  7
     \\/     M anipulation  |
\*---------------------------------------------------------------------------*/
FoamFile
{
    version     2.0;
    format      ascii;
    class       volScalarField;
    location    "1.2";
    object      T;
}
// * * * * * * * * * * * * * * * * * * * * * * * * * * * * * * * * * * * * * //

dimensions      [0 0 0 1 0 0 0];

internalField   nonuniform List<scalar> 
2222
(
1
1
1.000000003
1.000000095
1.000002493
1.000034833
1.000386243
1.002683589
1.013544183
1.042872042
1.097894386
1.147767049
1.186968226
1.219071186
1.229975899
1.229069152
1.227487462
1.224447497
1.220763335
1.215447281
1.209462641
1.203851495
1.198248919
1.192379599
1.186363292
1.180237019
1.17376579
1.167090327
1.160456181
1.153780696
1.147826383
1.137599139
1
1.000000004
1.00000012
1.000002251
1.000040121
1.000360265
1.002749267
1.011323919
1.035831749
1.067948795
1.098789276
1.132658003
1.165894555
1.186346625
1.206707766
1.217338191
1.223861327
1.222730884
1.219120006
1.214317498
1.209309016
1.203897035
1.197967726
1.192022727
1.186070346
1.179865717
1.173369122
1.166854856
1.16035429
1.15367602
1.147694989
1.137515076
1.000000004
1.000000106
1.00000278
1.000034199
1.000414148
1.002400316
1.012627304
1.033037154
1.064704767
1.093673245
1.1040711
1.117481915
1.136197353
1.160138228
1.189952381
1.208901922
1.219133897
1.218993561
1.216536074
1.21317856
1.209097192
1.203640826
1.197452265
1.191689637
1.185836099
1.179520694
1.173090691
1.166836683
1.160497605
1.153817092
1.147864507
1.137758553
1.000000129
1.000002294
1.000042915
1.000355741
1.002834203
1.011009577
1.035726592
1.067307191
1.088181528
1.104147788
1.106730341
1.108726532
1.11536294
1.130882082
1.15340395
1.178553575
1.201721733
1.209283502
1.212607273
1.212283402
1.209645372
1.20440573
1.198654659
1.193342582
1.187502537
1.181130013
1.174950768
1.16898108
1.162821905
1.156217094
1.150383345
1.140407634
1.000002918
1.000034393
1.000438712
1.002456121
1.012529815
1.034193572
1.064516779
1.09373182
1.104832176
1.109798054
1.110105486
1.109738006
1.109948205
1.113254886
1.123434803
1.145415021
1.172989049
1.193889642
1.209174239
1.207672683
1.203666443
1.199227397
1.19531582
1.190174989
1.18347586
1.177288856
1.171704833
1.165714205
1.159349187
1.152985246
1.147511683
1.137839156
1.000044448
1.000358185
1.002907612
1.011335703
1.035059608
1.069908585
1.089262881
1.101956407
1.107674455
1.111055765
1.110911904
1.110503857
1.109989242
1.108744787
1.109828144
1.116727828
1.133626747
1.159209687
1.187212556
1.192556654
1.197774235
1.197454914
1.194678305
1.18885737
1.182354021
1.176948956
1.171353813
1.164938009
1.158559628
1.152404366
1.146952827
1.13733288
1.000454066
1.002507874
1.012537297
1.034856305
1.064496845
1.095180015
1.104826502
1.109582728
1.11005446
1.110454791
1.110640519
1.110408823
1.109004588
1.106861882
1.103478111
1.103731605
1.10785421
1.123217552
1.148811646
1.173861425
1.193669956
1.193549785
1.189914345
1.184348747
1.180689583
1.176389506
1.170054606
1.163143164
1.157413895
1.15171883
1.146095566
1.136353996
1.003019365
1.011566544
1.035333781
1.068239657
1.093162266
1.101359192
1.107112325
1.110924909
1.111317512
1.111001776
1.110673724
1.109474302
1.107205541
1.104216632
1.100706161
1.096772408
1.096119663
1.099179
1.111417014
1.137021592
1.164353108
1.175660541
1.182238225
1.181934644
1.180033586
1.174933159
1.168002703
1.161565612
1.156299467
1.150591787
1.144957764
1.135449271
1.013022521
1.034978045
1.065263344
1.093804
1.10774569
1.108730067
1.109939654
1.111229515
1.111400306
1.111157702
1.109880072
1.107590244
1.104608718
1.101173894
1.097525005
1.093611888
1.089743546
1.088239392
1.09055057
1.101711855
1.124182009
1.152460846
1.173072009
1.179108345
1.176119586
1.169879398
1.165360995
1.161112185
1.155681908
1.148967968
1.143430216
1.13446329
1.035697882
1.069551414
1.092559329
1.100948146
1.10735234
1.111066756
1.111537706
1.111463075
1.111232621
1.11013387
1.107888688
1.104866722
1.101382819
1.097803854
1.094088456
1.090398071
1.08646117
1.082567325
1.080538968
1.082195119
1.09164117
1.11399462
1.139273015
1.161639413
1.165985193
1.165751803
1.164618723
1.161356552
1.154858524
1.14737952
1.142168167
1.13351502
1.065152285
1.094740423
1.108137106
1.108780927
1.110142194
1.111566769
1.111590292
1.111319274
1.11014052
1.108030014
1.105132392
1.101691235
1.098065293
1.094337592
1.090746
1.086967622
1.083215111
1.07910001
1.075096695
1.072765513
1.074241731
1.081774669
1.102362519
1.13142183
1.152030064
1.16326201
1.161764282
1.155723335
1.150106129
1.146048103
1.141646815
1.1325296
1.09120386
1.100341379
1.10874767
1.111756186
1.111817045
1.111647275
1.111341406
1.110252625
1.108098561
1.105258079
1.101926539
1.09835812
1.094702373
1.090996806
1.087275694
1.083519973
1.079553488
1.075703764
1.071520614
1.067592194
1.064952155
1.065949456
1.073159377
1.092024033
1.118479551
1.146103813
1.149691315
1.149898436
1.149013358
1.146412691
1.141335789
1.131288537
1.108228949
1.108877593
1.110740445
1.111905089
1.111841534
1.111444967
1.110277673
1.108232491
1.105449283
1.10211783
1.098716275
1.094996653
1.091338237
1.087516646
1.083675394
1.079770291
1.075841588
1.07188374
1.068029706
1.063944894
1.060081961
1.057273916
1.058163815
1.063815468
1.082700893
1.111884366
1.132751909
1.147069305
1.1466236
1.141840463
1.136466433
1.129208542
1.110491189
1.112030469
1.111867001
1.11174482
1.111488762
1.110396834
1.108379781
1.105611097
1.102417049
1.098969905
1.09535095
1.091662181
1.087786316
1.083941256
1.079888003
1.075941269
1.071954118
1.068037194
1.064253057
1.0604783
1.056488167
1.052661076
1.049617708
1.050236245
1.056126742
1.072597212
1.100519345
1.128491859
1.134902345
1.135722689
1.134379058
1.129297454
1.111018331
1.112083034
1.111952401
1.111525887
1.110482823
1.108538771
1.105860937
1.10270873
1.099254902
1.095672144
1.0919242
1.088063777
1.084147715
1.080062371
1.076121721
1.072011229
1.068109103
1.064197568
1.060490532
1.056801716
1.052902241
1.049052689
1.045182549
1.042170148
1.0426966
1.047472916
1.065013829
1.092511589
1.116374132
1.131084011
1.131042265
1.126176684
1.111968422
1.111854769
1.111603792
1.110658924
1.108773018
1.106131314
1.1030395
1.099615505
1.096023849
1.092242822
1.088336578
1.084256563
1.080250065
1.076264168
1.072177901
1.068177052
1.064151551
1.060529873
1.056693151
1.052973138
1.049134251
1.045422866
1.041674466
1.037627765
1.034699888
1.035191028
1.040127764
1.055613693
1.085356443
1.108548034
1.121926421
1.120959935
1.112074752
1.111775026
1.110828292
1.108991111
1.106427442
1.103377275
1.099981893
1.096316502
1.092564812
1.088567653
1.084443679
1.080342596
1.076324357
1.072366228
1.06822831
1.064242406
1.060531754
1.056642165
1.052822479
1.048972612
1.045349458
1.041557703
1.037872426
1.034215967
1.030189761
1.027544001
1.027892939
1.032959557
1.048258206
1.074614609
1.104068735
1.115187191
1.111792866
1.110976573
1.1092332
1.106740601
1.10377218
1.100367932
1.096690817
1.092826527
1.088813237
1.084685065
1.080454959
1.076388404
1.072365627
1.068280917
1.064327651
1.060524059
1.05663127
1.052595585
1.048729798
1.045158401
1.041275168
1.037664375
1.033965051
1.030560159
1.026916174
1.022968201
1.02056632
1.021051542
1.025148969
1.041668258
1.067550463
1.09796156
1.111107366
1.109437362
1.10706085
1.104114156
1.100724847
1.097036714
1.093145047
1.08906611
1.084886263
1.080651242
1.076507219
1.072413739
1.068272447
1.064295468
1.06051184
1.056587347
1.0523743
1.048546529
1.044786352
1.041004888
1.037357124
1.033624065
1.030199809
1.026691768
1.02345569
1.019914388
1.016100359
1.013556745
1.013939931
1.018680663
1.032016539
1.071368615
1.109704815
1.107343916
1.104476814
1.101103266
1.097377035
1.093519732
1.089400777
1.085116251
1.080863428
1.076675417
1.072543208
1.068264228
1.064190401
1.060450569
1.056430015
1.052269518
1.048318657
1.044543491
1.040696527
1.036875419
1.033348379
1.029841868
1.026259334
1.023123643
1.019718194
1.016444812
1.012798238
1.009030639
1.00678335
1.007237422
1.010697545
1.039309911
1.10763578
1.104757863
1.101434024
1.097708102
1.09382432
1.089743762
1.085432321
1.081084121
1.076906016
1.072727072
1.068284175
1.064160576
1.060315123
1.056300129
1.052038958
1.048067908
1.044359912
1.040415406
1.036508746
1.032981374
1.029410228
1.025969811
1.022567133
1.019240836
1.01599042
1.012388748
1.009348767
1.006003846
1.002301003
1.000061372
1.000202211
1.013529227
1.105089156
1.101767019
1.098062849
1.094118752
1.090048992
1.085717064
1.08135059
1.077095596
1.072856865
1.068450551
1.064077616
1.060246832
1.056192024
1.051771134
1.047806673
1.044085127
1.040198828
1.036314612
1.032521675
1.029075976
1.025484119
1.022003965
1.018826793
1.015274168
1.011876602
1.008852999
1.005547047
1.002716469
0.9990935491
0.9951471084
0.9938157049
0.9980141515
1.10207173
1.098368496
1.094444516
1.090312716
1.085983753
1.081593201
1.077266035
1.072993397
1.068519582
1.064172822
1.060153143
1.056026158
1.051617537
1.047514901
1.043802071
1.040007706
1.035995619
1.032233772
1.028608336
1.025001616
1.021615222
1.018206447
1.014694576
1.011281257
1.008039925
1.005232841
1.001892699
0.9985500011
0.9960650617
0.992069485
0.9893438592
0.988731082
1.098705427
1.094752184
1.090628303
1.086247136
1.08176216
1.077478981
1.073072634
1.068565957
1.064195827
1.060134707
1.055925632
1.051375107
1.047305762
1.043663006
1.039643479
1.035701404
1.031876805
1.028166523
1.02467104
1.021077576
1.017731845
1.014096935
1.010336469
1.007612443
1.004566342
1.001211148
0.9981561885
0.9947814792
0.9924492318
0.9891189787
0.9858615502
0.9825048975
1.095055141
1.090918777
1.086516059
1.082000174
1.077594317
1.073256627
1.06860598
1.064103814
1.060120107
1.055888014
1.051171582
1.0470232
1.043419614
1.039550494
1.035218116
1.031447431
1.027977149
1.024193077
1.020597601
1.017170024
1.013383679
1.009815407
1.00679161
1.004091745
1.000827821
0.9969517818
0.9943632516
0.9913175178
0.9885105489
0.9856114535
0.9822793
0.9780985008
1.091171041
1.086801149
1.082255382
1.077739168
1.073319082
1.068726878
1.06409967
1.059964451
1.055852961
1.051141799
1.046604101
1.043111829
1.039387233
1.034981681
1.030952112
1.02750344
1.023985801
1.020064155
1.016397443
1.01301482
1.009159067
1.00623273
1.003443226
0.9998881252
0.9966178959
0.9931224543
0.9906697491
0.9878938409
0.9845000902
0.98151854
0.9786424301
0.9743610382
1.087020361
1.082524137
1.077983439
1.073331767
1.068797668
1.064242504
1.059856855
1.055667614
1.051025856
1.046482931
1.042623428
1.039083092
1.034902031
1.03043297
1.026961339
1.023569258
1.019682541
1.015914936
1.012191499
1.008789404
1.005672832
1.002553962
0.9993262433
0.9955813512
0.9927462458
0.9897683831
0.9868713529
0.9839473557
0.9802694574
0.9773062348
0.9750123014
0.9709315145
1.082662
1.078189182
1.073540399
1.068715105
1.064297168
1.0599729
1.0554082
1.050849057
1.04638224
1.042412232
1.038594976
1.034459672
1.030224994
1.026400992
1.023027322
1.019374094
1.015314104
1.011597803
1.008019136
1.00501399
1.002169596
0.9982144825
0.9950212834
0.9919803874
0.9890376057
0.9859576001
0.9825745733
0.9796045897
0.9764116328
0.9737510191
0.9715210241
0.9673124645
1.078262037
1.073736341
1.068831964
1.064139195
1.059962137
1.055509835
1.05052495
1.046147401
1.042329861
1.038179681
1.033894758
1.029743233
1.026163586
1.022609866
1.018627767
1.014830155
1.010985203
1.00731145
1.004328643
1.001392983
0.9979221383
0.9938054127
0.9911108592
0.9883928952
0.9849502938
0.9816850233
0.9783519281
0.9756530453
0.973113808
0.9702984285
0.9676753378
0.9634858712
1.073685948
1.069041978
1.064130824
1.05976411
1.055500863
1.050582394
1.045722958
1.041950533
1.038123315
1.033362797
1.029086029
1.025734776
1.022240895
1.018120804
1.013870578
1.010482027
1.007007037
1.0034092
1.000629309
0.9970837085
0.9931993055
0.9899676571
0.9873841934
0.984503705
0.9806489876
0.9773352757
0.9744435053
0.9721538515
0.9695909735
0.9662248478
0.9636593817
0.9598171762
1.068921217
1.064445624
1.059623425
1.055175759
1.050615443
1.045604071
1.041450738
1.037769437
1.033324251
1.028491145
1.024836528
1.021841246
1.017693748
1.01316173
1.009627018
1.006509756
1.003115667
0.9993556201
0.9962577741
0.99256498
0.98921841
0.9864403137
0.9834027044
0.9801213386
0.976214154
0.9731598182
0.9709113255
0.9687442238
0.9655758524
0.9621567497
0.9601324206
0.9563843031
1.064351129
1.059916459
1.054818183
1.050196964
1.045776054
1.041195503
1.037215514
1.032992554
1.028234578
1.024201578
1.020890411
1.017407976
1.012745703
1.008619362
1.005685239
1.00243943
0.9988553073
0.9949547527
0.9917872257
0.9887553851
0.9855511417
0.9823094101
0.9788676336
0.9756262458
0.9722159822
0.969547939
0.9675444927
0.9648876283
0.961063259
0.9583865026
0.9566541405
0.9526717922
1.059890862
1.054970065
1.049708453
1.04541097
1.041285002
1.036776593
1.03228765
1.027960109
1.023867534
1.020322326
1.016492913
1.012293131
1.008158162
1.004513329
1.001578952
0.9982137735
0.9943330152
0.9906056035
0.9877387382
0.9850552144
0.9812428788
0.9775192368
0.9745977047
0.9718270633
0.9685963993
0.9660548382
0.9637696543
0.9603776851
0.9570300085
0.9551306037
0.9531970759
0.9488635297
1.055106241
1.049647785
1.04485562
1.040880619
1.036597749
1.031840807
1.027215492
1.023574539
1.019929953
1.015766566
1.011329222
1.007512066
1.00421828
1.000388326
0.9972265142
0.9938521405
0.9897161907
0.9864174837
0.9838581057
0.9809346627
0.976332143
0.9730816973
0.970991033
0.9680731214
0.9647095825
0.962118058
0.959417817
0.9562306038
0.9537961232
0.9516342522
0.9491625585
0.944887552
1.049740565
1.044570464
1.040325801
1.036177535
1.03159122
1.026834287
1.022636469
1.019354979
1.015442166
1.010426048
1.006530908
1.003639712
1.000121325
0.9957464921
0.9926726873
0.9894661111
0.9853905604
0.9824492628
0.979914382
0.9762577003
0.9716527115
0.9693205579
0.9672793149
0.9639444876
0.960636078
0.9579733952
0.9554694621
0.9530292705
0.950409387
0.9475390649
0.945045714
0.9411953409
1.044485326
1.040150816
1.035634766
1.031027502
1.026530001
1.022088996
1.018245925
1.014868564
1.010488512
1.005353589
1.002403577
0.9996040057
0.9951144888
0.9909183633
0.988412148
0.9853899019
0.9813120655
0.9783060295
0.9754691497
0.9713384581
0.9676294483
0.965602323
0.9632279494
0.959768395
0.9564048801
0.9539109909
0.9519766546
0.9494554497
0.94611363
0.9432695656
0.9413606223
0.9377572501
1.039884954
1.03556646
1.030171648
1.025755739
1.021978623
1.017668023
1.013726693
1.010046669
1.005350799
1.00076134
0.998250488
0.9950605348
0.9899899788
0.9866577534
0.984414949
0.9811086856
0.976775134
0.9737531287
0.9709425407
0.9671722457
0.9639965908
0.9617381877
0.9591442954
0.9555851618
0.9522353233
0.9502786673
0.9485416466
0.9452854963
0.9415411764
0.9394989118
0.9379499771
0.9341350487
1.035221991
1.030170912
1.024641144
1.021192572
1.017716134
1.012777318
1.008705285
1.005122153
1.000574283
0.9965294349
0.9939347512
0.9902355712
0.9852005146
0.9824916408
0.9801837266
0.9764038233
0.9720474199
0.9693572762
0.9668719947
0.9632454021
0.9598720624
0.9574769107
0.9549043821
0.9512692364
0.9482412373
0.9466548756
0.9446360584
0.9405304316
0.9375218908
0.9363170057
0.9347120727
0.9305080026
1.03017052
1.024537809
1.019780025
1.016837489
1.012847865
1.00732855
1.003798962
1.000631367
0.9960373151
0.9920600917
0.9892566965
0.9853026191
0.9807671461
0.9783414989
0.9758807056
0.9716615469
0.9675715967
0.9652818372
0.9628389105
0.958776227
0.955400096
0.9534095225
0.9510256119
0.9473076118
0.9445589778
0.9429679399
0.9403800207
0.9360553896
0.9341128895
0.9328846215
0.9306416864
0.9262082981
1.024796341
1.019148315
1.015176305
1.012241149
1.007526696
1.00218029
0.9992736719
0.9960747875
0.9909462438
0.9871949732
0.984596152
0.9808003884
0.9766200494
0.9740848625
0.9713277602
0.9667697215
0.9631484587
0.961163984
0.9585191813
0.9540678475
0.9511738767
0.9495110519
0.9469632485
0.9429934177
0.9405793587
0.9390146485
0.9360408033
0.9323361052
0.9308363944
0.9291632145
0.9265175874
0.9224093321
1.019541374
1.014343329
1.010655669
1.007366978
1.002003168
0.9972714545
0.9946895861
0.9911716795
0.9857841609
0.9826185663
0.9802289613
0.9762633334
0.972071957
0.969513568
0.966631945
0.9621171095
0.9590412486
0.9571835645
0.9541956237
0.949666982
0.9472751507
0.9456658988
0.9427029195
0.9386693758
0.9366129373
0.9349757143
0.9317936475
0.928665417
0.9270484615
0.9251115461
0.9226341507
0.9187251887
1.014771499
1.009546779
1.005706801
1.002095921
0.9966569144
0.9926394348
0.9901010035
0.9861253618
0.9808304217
0.9781244405
0.9757028291
0.9713555853
0.9673414146
0.9650136684
0.9621478787
0.9577564937
0.9548891856
0.9529063152
0.9494918169
0.9452003466
0.9432191677
0.9415825332
0.9382608993
0.9344752872
0.9327613353
0.9311285426
0.9280558499
0.9251227879
0.9233404121
0.9213224227
0.9186778384
0.9147167204
1.009734603
1.004189019
1.000508113
0.9969776346
0.9918185096
0.9880556367
0.985299732
0.9808840439
0.9760674353
0.9736870159
0.9711236352
0.9664665996
0.9627895098
0.960625545
0.9575824816
0.9531277732
0.9505194224
0.9485471529
0.9450072423
0.9412192681
0.9393828602
0.9375386553
0.933755006
0.9303158767
0.9288575052
0.9272286749
0.9239605573
0.9210149483
0.9194013343
0.9173190285
0.9146634006
0.9110175061
1.004356261
0.9988259937
0.9955208986
0.9920223914
0.9867945481
0.983089812
0.9802467784
0.9758072903
0.9715857963
0.9692540932
0.9663932911
0.9615366802
0.9582477345
0.9561742376
0.9528731324
0.9485161451
0.9462036398
0.9442683647
0.940651491
0.9371170892
0.9353003673
0.9333042937
0.9294047729
0.9264956363
0.9251505863
0.923281784
0.9195153545
0.9168557663
0.9155337525
0.9136512585
0.9110476742
0.9073843067
0.9988155698
0.9935341495
0.9904959616
0.9868202704
0.9814981659
0.97809956
0.9753926984
0.9710621266
0.9671131186
0.9646550768
0.9614762001
0.956654925
0.9537598411
0.9517317523
0.9482133806
0.9440955735
0.941997588
0.9399559121
0.9360691566
0.9327887965
0.9310960428
0.9289622433
0.9249414274
0.9224130778
0.9211763199
0.919151947
0.9154161627
0.9132869661
0.9120989236
0.9099571636
0.9068840692
0.9034029055
0.9929514073
0.9882395101
0.9854847239
0.9816484182
0.9764344576
0.9733121145
0.9705933314
0.9661306349
0.9622999563
0.9598334691
0.9564984314
0.9519121551
0.9492977662
0.9472291741
0.9434624549
0.9396108109
0.9377273561
0.9356678052
0.9317753563
0.9287863735
0.9271147677
0.9247405101
0.9206932102
0.9185574476
0.9173682205
0.9151540425
0.9114251111
0.9094758487
0.9081924491
0.9054854351
0.9027229706
0.8999559437
0.9876147646
0.9834492748
0.980659396
0.9764259833
0.971298985
0.9684061806
0.9656077784
0.9609669405
0.9573688385
0.9550421478
0.9516803203
0.9473475346
0.9448801308
0.9427209798
0.9387413495
0.9352258956
0.9334377754
0.9311702755
0.9270236106
0.9243449972
0.9227958342
0.9203659636
0.9166180197
0.91472488
0.9134389608
0.9107146186
0.9069282864
0.9055232463
0.9043831935
0.9016521639
0.8992475034
0.8962418123
0.9823657311
0.9782958669
0.9753632727
0.9708783478
0.9661996373
0.9636365268
0.9608292236
0.9561923311
0.9527762847
0.950417759
0.9467976753
0.942507724
0.9401839146
0.937973969
0.9339459847
0.9308210424
0.9291596669
0.9267606998
0.9227936296
0.9204957733
0.9189850014
0.9162755641
0.9124398666
0.9105942622
0.909205544
0.90636058
0.9033143065
0.9021527763
0.9008698542
0.8979247195
0.8954324328
0.8920260145
0.9768017908
0.9730594842
0.9703194834
0.9660260597
0.9616997424
0.9589749081
0.9557545243
0.9508092089
0.9476341759
0.9453641801
0.9415861123
0.9376149572
0.9356415923
0.933489624
0.9295110295
0.9266146621
0.9249006256
0.9222891565
0.9183846421
0.9162155488
0.9146113973
0.9115226495
0.9079195784
0.906625466
0.9054151696
0.9025994789
0.8997267484
0.8983466626
0.8965479757
0.8933413418
0.8905829399
0.8869979835
0.9716615804
0.9680841907
0.9652398204
0.9606696656
0.9564311638
0.9537556708
0.9503399765
0.9456171389
0.9429703621
0.9409159473
0.9372227673
0.9335208303
0.931473611
0.9290787351
0.9249880658
0.9222382233
0.9203950436
0.9173775779
0.9135013641
0.9117603546
0.9103503248
0.9074906812
0.904505415
0.9030341864
0.9015621077
0.8981333802
0.8956484128
0.8942022807
0.8920076535
0.8887639506
0.8860194672
0.8837991319
0.9661427158
0.9627217699
0.9598455866
0.9552454871
0.9513552509
0.9488618903
0.9454871755
0.9410517769
0.9384249933
0.9361693801
0.9321277934
0.9285554017
0.9265744573
0.9239651915
0.9198808077
0.9175160447
0.9158465305
0.9129319492
0.9096518474
0.9081030351
0.9066143358
0.903467239
0.9003959724
0.8989504627
0.8971538434
0.893820788
0.8912932132
0.8894682307
0.8868215882
0.8834003249
0.8808999755
0.8816159202
0.9605245802
0.9574886358
0.9546884252
0.9500813496
0.9463626781
0.9438150616
0.9401349328
0.9357330125
0.9333679129
0.9311259402
0.9270955464
0.9240650993
0.9223356537
0.9197150263
0.915910351
0.913600866
0.9118619036
0.9087450927
0.9055143761
0.903742107
0.9019459173
0.8983214223
0.8959255677
0.894847276
0.8930515756
0.8896625026
0.8869584622
0.8849847336
0.8819619905
0.880211386
0.879735201
0.8846590946
0.9555187212
0.9524488622
0.9492921007
0.9443358012
0.9408796463
0.9385482012
0.9349312722
0.9309875892
0.92888349
0.9267250679
0.9228783914
0.9199312963
0.9179765988
0.9150542924
0.9111679118
0.9088868512
0.906935144
0.9034045333
0.9004427096
0.8992638762
0.8978771722
0.894849543
0.8927362936
0.8908983698
0.888283026
0.8840448144
0.8815583425
0.8792955499
0.8786454478
0.8789749659
0.8812370227
0.9070615416
0.9497530392
0.9468389045
0.9436060503
0.9388488449
0.9358915163
0.933751566
0.930221155
0.926464573
0.9242399484
0.921714947
0.9175790011
0.9147865006
0.9128115327
0.9095468468
0.9058492721
0.904131181
0.9024855599
0.8995477362
0.8972250799
0.8960167923
0.8941892151
0.8910015892
0.8879398164
0.8856904345
0.8819257915
0.8787791665
0.8786579798
0.8779935631
0.8784870738
0.8844436388
0.901441525
0.9490234394
0.9445126839
0.9418415838
0.93858086
0.9339851554
0.9310231735
0.9287131527
0.9248761152
0.9212846118
0.9191786737
0.9165482691
0.912566927
0.9101785847
0.9084348686
0.9054046033
0.9023356567
0.9005470571
0.8988665899
0.8957226376
0.8932950999
0.8914521753
0.8887845803
0.8848044432
0.8819607284
0.8803579779
0.8771363857
0.8766442456
0.877306105
0.8807175253
0.8929594993
0.9171690628
0.9516425726
0.9887426913
0.9392676079
0.9365184516
0.9330220924
0.9284332743
0.9256962416
0.9234036568
0.9195778829
0.9163904948
0.9145158725
0.9119672517
0.9081749681
0.9057911196
0.9038919412
0.9007846861
0.8976999932
0.8959253172
0.8937868791
0.8902136741
0.8881286731
0.8861772276
0.8836322102
0.8793866207
0.8781544567
0.8769270723
0.8758460061
0.8767511089
0.8832315706
0.9048892841
0.9372297936
0.96454083
0.9822681078
0.9960013257
0.9334276051
0.9309838957
0.9276554275
0.9235859571
0.9210905257
0.9187845778
0.9149398775
0.9116861974
0.9095960935
0.9066076877
0.9027647869
0.9005574855
0.8986078632
0.8952611803
0.8927941179
0.8915542862
0.8894989417
0.8866232545
0.8838204567
0.8814938649
0.8776412146
0.8746745988
0.8749980613
0.8754651571
0.8780480919
0.8923835535
0.9178091064
0.953157146
0.9819784777
0.9979235709
1.002096427
1.001526929
0.928572208
0.9261570006
0.9227855591
0.9187690612
0.9160434853
0.9133502078
0.9090663105
0.9062126315
0.9043778549
0.9015483068
0.8983321004
0.8964772656
0.8948325925
0.8917620255
0.8895668744
0.8876093348
0.8850953637
0.8810008183
0.8777666485
0.8757261159
0.8732912564
0.8733792739
0.8747721112
0.8830478579
0.9024072648
0.9395416995
0.9738872355
0.9922324493
0.995828044
1.002470085
1.004813226
1.004666922
0.9228890968
0.9203685533
0.9167129935
0.9127943139
0.9104928873
0.9080114808
0.904098254
0.9014657176
0.8996742207
0.8969207016
0.893810294
0.8920694809
0.8900712248
0.886935485
0.8841489915
0.881567627
0.8784850776
0.874537735
0.8737217996
0.8731581786
0.8732452193
0.8762650044
0.890068202
0.9208834534
0.9565344354
0.9754208091
0.9910589264
0.9982592107
0.9986546945
1.000721546
1.00328878
1.005021971
0.9176211387
0.9152709793
0.9118102917
0.9082574122
0.9060406306
0.9034746673
0.8997201677
0.8970027259
0.8949730588
0.891909314
0.8891756033
0.8874205229
0.8850302976
0.8818913979
0.8788712828
0.876417946
0.8726554372
0.8709045857
0.8715064432
0.8728553842
0.8817436245
0.902529707
0.9366701457
0.9721443971
0.9962220324
0.9989387974
1.001627364
1.003469583
1.00358404
1.003294532
1.004008135
1.004815157
0.9122281338
0.9098527083
0.9062096038
0.9026935452
0.9003570587
0.8975680512
0.8937171705
0.8915336822
0.8899069403
0.886972279
0.8846527472
0.8825657145
0.8800708176
0.8759237732
0.8730858508
0.8708183253
0.869844825
0.8702777773
0.8746662849
0.8892411003
0.924565543
0.9562629038
0.9829684287
0.9906923388
1.00090333
1.003316908
1.004140501
1.004913903
1.005587266
1.005464765
1.005034086
1.004903721
0.9066327394
0.9042405988
0.9004062701
0.8972702858
0.8953059668
0.8927828223
0.8894455594
0.8875217321
0.8854598921
0.8824621771
0.8794839128
0.8772503087
0.8737583221
0.8707166336
0.869989207
0.8695485609
0.8706804832
0.8790211925
0.9053692735
0.9396892019
0.9670936027
0.9901082011
1.003344112
1.001210903
1.002469606
1.003496234
1.004033909
1.004725508
1.005288172
1.005468249
1.005353804
1.005180114
0.901554053
0.8991887971
0.8957281648
0.8927021306
0.8908203841
0.8881948914
0.8850543047
0.8828238646
0.8802123508
0.8767975833
0.8731319897
0.8706399821
0.8675893578
0.8678637911
0.8686981074
0.8736570907
0.8896029853
0.9203792488
0.9617206773
0.9908270732
0.9964920099
1.001809387
1.005446108
1.005768504
1.005292173
1.004891734
1.004701436
1.004278667
1.004352479
1.004774788
1.005108809
1.005362626
0.8957162865
0.8934165316
0.8897789369
0.8870293314
0.8850966826
0.8820389561
0.8791483337
0.8767293546
0.8744483152
0.8702610955
0.8685991653
0.8676275411
0.8667735652
0.868363186
0.8779763315
0.9066831768
0.9392653532
0.973750079
0.9861361226
0.9987097858
1.000547293
1.002548584
1.004481481
1.005984062
1.006060103
1.005867789
1.005400913
1.004780547
1.004574134
1.004782569
1.005139024
1.005513195
0.8903973662
0.8882762744
0.8848188922
0.8826174304
0.8804436348
0.8775018067
0.8740927772
0.8713382024
0.8682479866
0.8650074902
0.8655899718
0.8666325375
0.8715505037
0.8923187299
0.9252191232
0.9613325495
0.987663964
1.00254334
1.001712215
1.00308607
1.002627227
1.002315677
1.002994393
1.004766677
1.005770651
1.0059993
1.00592804
1.005724778
1.005469941
1.005465729
1.005584698
1.005691923
0.8858214469
0.8834590088
0.8802042787
0.8773511071
0.8747178839
0.870908844
0.8671655036
0.8658087225
0.8642258926
0.8641911285
0.8662573968
0.8774998086
0.90635381
0.947474558
0.9819091784
0.9888695468
0.9963368463
1.005033905
1.005603092
1.005610081
1.005312902
1.004453251
1.004391255
1.004903286
1.00553564
1.005948545
1.006086564
1.006067978
1.00604308
1.006022922
1.005976928
1.005866062
0.8796730068
0.8768710713
0.8731381316
0.8706801758
0.8683247796
0.8646172373
0.863714028
0.8635271544
0.8642462736
0.8697876119
0.8919804323
0.9256034637
0.9605999339
0.9805087677
0.9996051467
1.002764229
1.003069494
1.004625648
1.005581165
1.005938547
1.005961863
1.00583358
1.00585651
1.005868269
1.005956358
1.006091797
1.006144719
1.006136268
1.006142047
1.006147886
1.006108258
1.005978667
0.8742572006
0.8717419326
0.868057616
0.8658165419
0.8631744035
0.8615250559
0.8620299894
0.8651634573
0.8798853449
0.907894061
0.9487359819
0.9835320238
0.9995412439
1.000770894
1.0035485
1.006000623
1.006496383
1.006371634
1.006156483
1.005905839
1.006047545
1.006177549
1.006209238
1.006289821
1.006276172
1.006290414
1.00625832
1.006125532
1.006014661
1.006015203
1.006005172
1.005993384
0.8691396245
0.865241992
0.8618537111
0.8605421796
0.8603663129
0.8615124688
0.8691843179
0.8946197009
0.9321570885
0.9684065714
0.9827452922
0.9943528936
1.004867137
1.004077612
1.004446874
1.005450566
1.006683181
1.006719089
1.006585615
1.006345027
1.006123764
1.005898032
1.005907378
1.006087263
1.006307108
1.006450857
1.006422594
1.006313497
1.006208067
1.006130547
1.006109114
1.006151498
0.8619376392
0.859199532
0.8593931515
0.8602121218
0.8633995003
0.8807400909
0.9112928348
0.9523192216
0.9819078254
1.001591611
1.003591367
1.002468496
1.004007035
1.004046008
)
;

boundaryField
{
    inlet
    {
        type            fixedValue;
        value           nonuniform 0();
    }
    outlet
    {
        type            inletOutlet;
        inletValue      uniform 1;
        value           nonuniform List<scalar> 
69
(
1.137598772
1.137514806
1.137758117
1.140406643
1.137839055
1.137333242
1.136355141
1.135452171
1.134462684
1.1335124
1.132529133
1.131290345
1.129209289
1.129298684
1.126177162
1.120960071
1.1151868
1.097961108
1.071367789
1.039308917
1.013531345
0.9980176043
0.9887299858
0.9825030146
0.9780983326
0.9743630401
0.9709342115
0.9673103441
0.9634842662
0.9598212339
0.9563868841
0.9526682158
0.9488549924
0.9448822128
0.9411980913
0.9377607603
0.9341330535
0.9304977008
0.9261967463
0.9224072594
0.918722857
0.9147137247
0.9110200622
0.9073818714
0.9034028427
0.899965984
0.8962492317
0.8920310055
0.8870069306
0.8838040303
0.8816161214
0.8846618024
0.9070663806
0.9490185618
0.9887401679
0.9960040448
1.001530378
1.004668188
1.005023512
1.004813877
1.004901636
1.005179367
1.005364566
1.005516313
1.00569295
1.005865011
1.005974906
1.005991788
1.006153214
)
;
    }
    bottom
    {
        type            slip;
    }
    top
    {
        type            slip;
    }
    obstacle
    {
        type            zeroGradient;
    }
    defaultFaces
    {
        type            empty;
    }
    procBoundary5to4
    {
        type            processor;
        value           nonuniform List<scalar> 
69
(
1
1
1
1.000000004
1.000000114
1.000002404
1.000035537
1.000365246
1.002527668
1.011712524
1.035368236
1.070708324
1.095603529
1.100478784
1.109113065
1.112200744
1.112215374
1.111952765
1.111974055
1.111298332
1.109917999
1.107968313
1.105388182
1.10241845
1.099049239
1.095408494
1.091520274
1.08735804
1.082950582
1.078418725
1.073655554
1.068755089
1.064063336
1.059589189
1.054777496
1.04931604