/*--------------------------------*- C++ -*----------------------------------*\
  =========                 |
  \\      /  F ield         | OpenFOAM: The Open Source CFD Toolbox
   \\    /   O peration     | Website:  https://openfoam.org
    \\  /    A nd           | Version:  7
     \\/     M anipulation  |
\*---------------------------------------------------------------------------*/
FoamFile
{
    version     2.0;
    format      ascii;
    class       volScalarField;
    location    "4.1";
    object      p;
}
// * * * * * * * * * * * * * * * * * * * * * * * * * * * * * * * * * * * * * //

dimensions      [1 -1 -2 0 0 0 0];

internalField   nonuniform List<scalar> 
2223
(
0.7022041443
0.6971979001
0.6889698851
1
1
1
1
0.9999999999
0.9999999963
0.9999999183
0.9999988671
0.9999895133
0.9999321629
0.9996784997
0.998852798
0.9967637926
0.9924954744
0.9855571871
0.9754546664
0.9621459887
0.9481640732
0.9326412032
0.9140899393
0.8987145287
0.8852685723
0.8669356837
0.8497495312
0.8396404871
0.8269343812
0.808432709
0.7965404529
0.7888654434
0.7761625384
0.7600945425
0.7514173293
0.7447893865
0.7336567506
0.7197292269
0.7122981861
0.7071317855
1
1
1
1
1
1
0.9999999983
0.9999999625
0.9999994523
0.9999946004
0.9999625269
0.9998092644
0.9992697533
0.997796872
0.9945811879
0.9889956605
0.9803848481
0.9686849202
0.9558008278
0.9408081262
0.9232542323
0.908628699
0.8946055646
0.8760016407
0.8602937761
0.8500706728
0.8359280953
0.8177256513
0.8074955837
0.7993471375
0.7850916638
0.7700299784
0.7629561151
0.7557152338
0.7427695409
0.7297800694
0.723611712
1
1
1
1
1
1
1
0.9999999993
0.9999999834
0.9999997436
0.9999972958
0.9999798186
0.9998894863
0.9995453185
0.9985311433
0.9961606693
0.9917536629
0.9845610619
0.9744263724
0.9626715351
0.9484224737
0.9319975573
0.9179724054
0.9034458784
0.8849859925
0.8705860283
0.8599421903
0.8444397092
0.8271575933
0.8179924048
0.808706633
0.7929797719
0.7793087976
0.7726301137
0.7640409799
0.7499824881
0.7385947425
1
1
1
1
1
1
1
1
0.9999999997
0.9999999929
0.9999998837
0.9999986838
0.999989413
0.999937519
0.9997233152
0.9990416131
0.9973327102
0.9939274951
0.9880399268
0.9793937469
0.9688004746
0.9554783373
0.9402470224
0.9267325223
0.9118596171
0.8938984684
0.8805216817
0.8692668729
0.8527291049
0.8367397481
0.8282141245
0.8178526259
0.801241549
0.7894950125
0.7832704572
0.7734406585
0.7586507273
1
1
1
1
1
1
1
1
1
0.9999999999
0.9999999971
0.999999949
0.9999993778
0.9999945949
0.9999655614
0.9998355886
0.9993884953
0.9981843735
0.9956095209
0.9908877589
0.9836272438
0.9742159747
0.9619632302
0.9479439101
0.9349101653
0.9199033186
0.9026867693
0.8900478944
0.8780679785
0.8608690968
0.8463474717
0.837923119
0.8261191201
0.8092552968
0.7990927607
0.7922891497
0.7807626113
1
1
1
1
1
1
1
1
1
1
1
0.9999999989
0.9999999783
0.9999997146
0.9999973167
0.9999815102
0.999904682
0.9996187373
0.9987899721
0.9968859836
0.9931770229
0.9871804041
0.978949827
0.9678630736
0.9550501512
0.9425145012
0.9276107987
0.9112873911
0.8991241393
0.8864055753
0.8690051231
0.85586171
0.847234729
0.834126324
0.8176729281
0.80901801
0.8017923546
1
1
1
1
1
1
1
1
1
1
1
1
0.9999999996
0.9999999911
0.999999873
0.9999987058
0.9999903385
0.9999461304
0.999767901
0.9992110678
0.9978351395
0.9949829244
0.9901157427
0.9830384698
0.9731680827
0.9615440693
0.9495596895
0.9349915934
0.9196238089
0.9077414795
0.8943366075
0.8771528581
0.8651868831
0.8560148177
0.8416178347
0.8261674432
0.8183334529
1
1
1
1
1
1
1
1
1
1
1
1
1
0.9999999998
0.9999999965
0.9999999453
0.999999394
0.9999950907
0.9999703466
0.9998621528
0.9994971797
0.9985260619
0.996379852
0.9925013089
0.9865230835
0.9778770737
0.9674194953
0.9560599476
0.9420366773
0.9276299848
0.9158943923
0.9019396313
0.8853251267
0.8742290026
0.8643601384
0.8490019004
0.8349014404
1
1
1
1
1
1
1
1
1
1
1
1
1
1
0.9999999999
0.9999999986
0.9999999772
0.9999997248
0.9999975762
0.9999841144
0.9999201915
0.9996869875
0.9990179936
0.9974386679
0.9944070584
0.9894502941
0.9819994444
0.9726813775
0.9620287599
0.9487234506
0.9352493146
0.9235941057
0.9092727806
0.8934631
0.8829453401
0.872219566
0.856250583
1
1
1
1
1
1
1
1
1
1
1
1
1
1
1
1
0.9999999995
0.9999999908
0.9999998788
0.9999988382
0.9999917247
0.9999549932
0.9998098349
0.999360295
0.998224453
0.9959023524
0.9918710645
0.9855562029
0.9773442145
0.9674769691
0.9550230272
0.942440105
0.9308544706
0.9163926313
0.9015058587
0.8912902578
0.8796985024
1
1
1
1
1
1
1
1
1
1
1
1
1
1
1
1
1
0.9999999998
0.9999999964
0.9999999483
0.9999994598
0.9999958115
0.9999752978
0.9998873421
0.9995928815
0.9987950222
0.9970535977
0.9938399274
0.9885782865
0.9814304833
0.9724146793
0.9609053817
0.9491725208
0.9376956273
0.9233224231
0.9093764613
0.8992538733
1
1
1
1
1
1
1
1
1
1
1
1
1
1
1
1
1
1
0.9999999999
0.9999999986
0.9999999787
0.9999997565
0.9999979418
0.9999868152
0.9999349733
0.9997470827
0.9992000584
0.9979225651
0.9954131175
0.9911055813
0.984968912
0.9768515309
0.9663443531
0.955430039
0.9441365414
0.9300700812
0.9170087039
1
1
1
1
1
1
1
1
1
1
1
1
1
1
1
1
1
1
1
1
0.9999999995
0.9999999915
0.9999998937
0.9999990189
0.9999931618
0.999963461
0.9998467539
0.9994809474
0.9985649752
0.9966469207
0.9931842134
0.9879943283
0.9807984342
0.9713199279
0.9612050088
0.9501944298
0.9366177639
1
1
1
1
1
1
1
1
1
1
1
1
1
1
1
1
1
1
1
1
1
0.9999999998
0.9999999967
0.9999999551
0.9999995467
0.9999965566
0.9999800294
0.999909513
0.9996710912
0.9990297145
0.9975957017
0.9948645219
0.9905459389
0.9842698232
0.9758207086
0.966497762
0.955879774
1
1
1
1
1
1
1
1
1
1
1
1
1
1
1
1
1
1
1
1
1
1
0.9999999999
0.9999999988
0.9999999816
0.9999997971
0.9999983179
0.9999893921
0.9999479765
0.9997966328
0.9993584004
0.998310466
0.9961984397
0.9926667617
0.9872841949
0.9798447611
0.9713137298
1
1
1
1
1
1
1
1
1
1
1
1
1
1
1
1
1
1
1
1
1
1
1
1
0.9999999996
0.9999999928
0.9999999121
0.9999992035
0.9999945285
0.999970902
0.9998774099
0.999585462
0.9988374662
0.9972376094
0.9944020539
0.9898656405
0.9833985472
1
1
1
1
1
1
1
1
1
1
1
1
1
1
1
1
1
1
1
1
1
1
1
1
1
0.9999999998
0.9999999972
0.9999999632
0.9999996347
0.9999972617
0.9999841799
0.9999280181
0.9997385342
0.9992174302
0.9980312958
0.9957984616
0.9920433058
1
1
1
1
1
1
1
1
1
1
1
1
1
1
1
1
1
1
1
1
1
1
1
1
1
1
0.9999999999
0.999999999
0.9999999851
0.9999998379
0.9999986715
0.9999916464
0.999958865
0.9998391476
0.9994850755
0.9986251373
0.9969023035
1
1
1
1
1
1
1
1
1
1
1
1
1
1
1
1
1
1
1
1
1
1
1
1
1
1
1
1
0.9999999996
0.9999999942
0.9999999304
0.9999993756
0.9999957194
0.9999771417
0.9999035688
0.99966911
0.9990599771
1
1
1
1
1
1
1
1
1
1
1
1
1
1
1
1
1
1
1
1
1
1
1
1
1
1
1
1
1
0.9999999999
0.9999999978
0.9999999711
0.999999716
0.9999978731
0.9999876589
0.9999437144
0.9997925259
1
1
1
1
1
1
1
1
1
1
1
1
1
1
1
1
1
1
1
1
1
1
1
1
1
1
1
1
1
1
1
0.9999999992
0.9999999884
0.999999875
0.9999989761
0.999993532
0.9999680417
1
1
1
1
1
1
1
1
1
1
1
1
1
1
1
1
1
1
1
1
1
1
1
1
1
1
1
1
1
1
1
1
0.9999999997
0.9999999955
0.9999999469
0.9999995228
0.9999967121
1
1
1
1
1
1
1
1
1
1
1
1
1
1
1
1
1
1
1
1
1
1
1
1
1
1
1
1
1
1
1
1
1
0.9999999999
0.9999999983
0.9999999782
0.9999997849
1
1
1
1
1
1
1
1
1
1
1
1
1
1
1
1
1
1
1
1
1
1
1
1
1
1
1
1
1
1
1
1
1
1
1
0.9999999994
0.9999999913
1
1
1
1
1
1
1
1
1
1
1
1
1
1
1
1
1
1
1
1
1
1
1
1
1
1
1
1
1
1
1
1
1
1
1
1
0.9999999998
1
1
1
1
1
1
1
1
1
1
1
1
1
1
1
1
1
1
1
1
1
1
1
1
1
1
1
1
1
1
1
1
1
1
1
1
1
1
1
1
1
1
1
1
1
1
1
1
1
1
1
1
1
1
1
1
1
1
1
1
1
1
1
1
1
1
1
1
1
1
1
1
1
1
1
1
1
1
1
1
1
1
1
1
1
1
1
1
1
1
1
1
1
1
1
1
1
1
1
1
1
1
1
1
1
1
1
1
1
1
1
1
1
1
1
1
1
1
1
1
1
1
1
1
1
1
1
1
1
1
1
1
1
1
1
1
1
1
1
1
1
1
1
1
1
1
1
1
1
1
1
1
1
1
1
1
1
1
1
1
1
1
1
1
1
1
1
1
1
1
1
1
1
1
1
1
1
1
1
1
1
1
1
1
1
1
1
1
1
1
1
1
1
1
1
1
1
1
1
1
1
1
1
1
1
1
1
1
1
1
1
1
1
1
1
1
1
1
1
1
1
1
1
1
1
1
1
1
1
1
1
1
1
1
1
1
1
1
1
1
1
1
1
1
1
1
1
1
1
1
1
1
1
1
1
1
1
1
1
1
1
1
1
1
1
1
1
1
1
1
1
1
1
1
1
1
1
1
1
1
1
1
1
1
1
1
1
1
1
1
1
1
1
1
1
1
1
1
1
1
1
1
1
1
1
1
1
1
1
1
1
1
1
1
1
1
1
1
1
1
1
1
1
1
1
1
1
1
1
1
1
1
1
1
1
1
1
1
1
1
1
1
1
1
1
1
1
1
1
1
1
1
1
1
1
1
1
1
1
1
1
1
1
1
1
1
1
1
1
1
1
1
1
1
1
1
1
1
1
1
1
1
1
1
1
1
1
1
1
1
1
1
1
1
1
1
1
1
1
1
1
1
1
1
1
1
1
1
1
1
1
1
1
1
1
1
1
1
1
1
1
1
1
1
1
1
1
1
1
1
1
1
1
1
1
1
1
1
1
1
1
1
1
1
1
1
1
1
1
1
1
1
1
1
1
1
1
1
1
1
1
1
1
1
1
1
1
1
1
1
1
1
1
1
1
1
1
1
1
1
1
1
1
1
1
1
1
1
1
1
1
1
1
1
1
1
1
1
1
1
1
1
1
1
1
1
1
1
1
1
1
1
1
1
1
1
1
1
1
1
1
1
1
1
1
1
1
1
1
1
1
1
1
1
1
1
1
1
1
1
1
1
1
1
1
1
1
1
1
1
1
1
1
1
1
1
1
1
1
1
1
1
1
1
1
1
1
1
1
1
1
1
1
1
1
1
1
1
1
1
1
1
1
1
1
1
1
1
1
1
1
1
1
1
1
1
1
1
1
1
1
1
1
1
1
1
1
1
1
1
1
1
1
1
1
1
1
1
1
1
1
1
1
1
1
1
1
1
1
1
1
1
1
1
1
1
1
1
1
1
1
1
1
1
1
1
1
1
1
1
1
1
1
1
1
1
1
1
1
1
1
1
1
1
1
1
1
1
1
1
1
1
1
1
1
1
1
1
1
1
1
1
1
1
1
1
1
1
1
1
1
1
1
1
1
1
1
1
1
1
1
1
1
1
1
1
1
1
1
1
1
1
1
1
1
1
1
1
1
1
1
1
1
1
1
1
1
1
1
1
1
1
1
1
1
1
1
1
1
1
1
1
1
1
1
1
1
1
1
1
1
1
1
1
1
1
1
1
1
1
1
1
1
1
1
1
1
1
1
1
1
1
1
1
1
1
1
1
1
1
1
1
1
1
1
1
1
1
1
1
1
1
1
1
1
1
1
1
1
1
1
1
1
1
1
1
1
1
1
1
1
1
1
1
1
1
1
1
1
1
1
1
1
1
1
1
1
1
1
1
1
1
1
1
1
1
1
1
1
1
1
1
1
1
1
1
1
1
1
1
1
1
1
1
1
1
1
1
1
1
1
1
1
1
1
1
1
1
1
1
1
1
1
1
1
1
1
1
1
1
1
1
1
1
1
1
1
1
1
1
1
1
1
1
1
1
1
1
1
1
1
1
1
1
1
1
1
1
1
1
1
1
1
1
1
1
1
1
1
1
1
1
1
1
1
1
1
1
1
1
1
1
1
1
1
1
1
1
1
1
1
1
1
1
1
1
1
1
1
1
1
1
1
1
1
1
1
1
1
1
1
1
1
1
1
1
1
1
1
1
1
1
1
1
1
1
1
1
1
1
1
1
1
1
1
1
1
1
1
1
1
1
1
1
1
1
1
1
1
1
1
1
1
1
1
1
1
1
1
1
1
1
1
1
1
1
1
1
1
1
1
1
1
1
1
1
1
1
1
1
1
1
1
1
1
1
1
1
1
1
1
1
1
1
1
1
1
1
1
1
1
1
1
1
1
1
1
1
1
1
1
1
1
1
1
1
1
1
1
1
1
1
1
1
1
1
1
1
1
1
1
1
1
1
1
1
1
1
1
1
1
1
1
1
1
1
1
1
1
1
1
1
1
1
1
1
1
1
1
1
1
1
1
1
1
1
1
1
1
1
1
1
1
1
1
1
1
1
1
1
1
1
1
1
1
1
1
1
1
1
1
1
1
1
1
1
1
1
1
1
1
1
1
1
1
1
1
1
1
1
1
1
1
1
1
1
1
1
1
1
1
1
1
1
1
1
1
1
1
1
1
1
1
1
1
1
1
1
1
1
1
1
1
1
1
1
1
1
1
1
1
1
1
1
1
1
1
1
1
1
1
1
1
1
1
1
1
1
1
1
1
1
1
1
1
1
1
1
1
1
1
1
1
1
1
1
1
1
1
1
1
1
1
1
1
1
1
1
1
1
1
1
1
1
1
1
1
1
1
1
1
1
1
1
1
1
1
1
1
1
1
1
1
1
1
1
1
1
1
1
1
1
1
1
1
1
1
1
1
1
1
1
1
1
1
)
;

boundaryField
{
    inlet
    {
        type            fixedValue;
        value           nonuniform 0();
    }
    outlet
    {
        type            zeroGradient;
    }
    bottom
    {
        type            slip;
    }
    top
    {
        type            slip;
    }
    obstacle
    {
        type            zeroGradient;
    }
    defaultFaces
    {
        type            empty;
    }
    procBoundary33to26
    {
        type            processor;
        value           nonuniform List<scalar> 
27
(
1
1
1
1
1
1
1
1
1
1
1
1
1
1
1
1
1
1
1
1
1
1
1
1
1
1
1
)
;
    }
    procBoundary33to27
    {
        type            processor;
        value           nonuniform List<scalar> 
38
(
0.686095612
0.6800049893
0.6681987816
1
1
1
0.9999999998
0.9999999921
0.9999998296
0.9999977304
0.9999801763
0.9998801571
0.9994702597
0.9982356638
0.9953411893
0.9897951719
0.9813408863
0.9697261078
0.9548076995
0.9397410082
0.923913178
0.9045896659
0.8882614279
0.8753597286
0.8577444223
0.8390719245
0.8286639253
0.8174564291
0.7993612366
0.7855849516
0.778434769
0.7676721769
0.7515956278
0.7414206956
0.7353791821
0.7256879969
0.7114338848
0.7114338848
)
;
    }
    procBoundary33to32
    {
        type            processor;
        value           nonuniform List<scalar> 
33
(
1
1
1
1
1
1
1
1
1
1
1
1
1
1
1
1
1
1
1
1
1
1
1
1
1
1
1
1
1
1
1
1
1
)
;
    }
    procBoundary33to34
    {
        type            processor;
        value           nonuniform List<scalar> 
61
(
0.6758493975
0.6978472223
0.717347441
0.7330653217
0.7492424031
0.7661201707
0.78882648
0.8099407741
0.8276248015
0.8436320242
0.8635710611
0.8868192739
0.9068250383
0.9243504787
0.9429371925
0.9611977497
0.9756629645
0.98649731
0.9938513273
0.9977586714
0.9993713318
0.9998731774
0.9999823642
0.9999983802
0.9999999063
0.9999999967
0.9999999999
1
1
1
1
1
1
1
1
1
1
1
1
1
1
1
1
1
1
1
1
1
1
1
1
1
1
1
1
1
1
1
1
1
1
)
;
    }
}


// ************************************************************************* //
