/*--------------------------------*- C++ -*----------------------------------*\
  =========                 |
  \\      /  F ield         | OpenFOAM: The Open Source CFD Toolbox
   \\    /   O peration     | Website:  https://openfoam.org
    \\  /    A nd           | Version:  7
     \\/     M anipulation  |
\*---------------------------------------------------------------------------*/
FoamFile
{
    version     2.0;
    format      ascii;
    class       volScalarField;
    location    "4.1";
    object      rho;
}
// * * * * * * * * * * * * * * * * * * * * * * * * * * * * * * * * * * * * * //

dimensions      [1 -3 0 0 0 0 0];

internalField   nonuniform List<scalar> 
2222
(
1.167091906
1.160213185
1.16361834
1.160194517
1.1555736
1.16691174
1.173909117
1.17118019
1.169571609
1.172719532
1.180790718
1.186324335
1.187997608
1.189397106
1.188792089
1.188230391
1.18895309
1.190646491
0.7207062227
0.9621800802
1.164820659
1.234402429
1.208932027
1.177319453
1.172539724
1.171880956
1.164495427
1.161481184
1.171842143
1.173632322
1.170468897
1.169781375
1.177528524
1.186188312
1.189136988
1.189530279
1.190248648
1.189261043
1.189063043
1.191214417
1.194495953
0.6916688202
0.8646967739
1.110401586
1.222058819
1.224850286
1.197387304
1.177660157
1.169185493
1.167201678
1.173939704
1.175746107
1.173983651
1.177959569
1.183229379
1.187181352
1.189847132
1.190419253
1.191021081
1.192500869
1.194815743
1.197518308
1.198499971
1.198921529
0.6580804868
0.7540181201
1.000910845
1.200680301
1.223934915
1.207790152
1.184300569
1.168362314
1.173436072
1.184750336
1.181152604
1.182144334
1.191763413
1.195694905
1.19610548
1.196209741
1.196359213
1.198114174
1.201430565
1.204831719
1.206468996
1.206006719
1.205276548
0.6174731394
0.6676441421
0.8989606158
1.119112942
1.213892783
1.223904452
1.203767266
1.186404932
1.190174549
1.194504499
1.189712729
1.197262097
1.204160875
1.204385265
1.203695718
1.206124975
1.209148494
1.211993207
1.21368003
1.214722629
1.215430194
1.215443331
1.21614774
0.5503201512
0.5996405498
0.7756729551
1.055983505
1.177937353
1.24063618
1.231217854
1.219008964
1.214128928
1.208204831
1.203227898
1.214449703
1.217017427
1.21437105
1.213704637
1.218448069
1.224348659
1.227651446
1.22884317
1.227651219
1.2272956
1.227727166
1.229380327
1.230612383
0.5164167022
0.5389681146
0.6315414248
0.9670048725
1.146454764
1.221347138
1.242511545
1.244510639
1.233922982
1.2173698
1.221821146
1.230536487
1.229350304
1.226218946
1.227277002
1.234026535
1.239061197
1.241380827
1.242375343
1.242463606
1.24256511
1.243073721
1.244923391
1.246207966
0.496218958
0.5008639025
0.5267801735
0.7556981013
1.138710526
1.222285695
1.258619427
1.257111577
1.240459163
1.229487694
1.236830834
1.238680681
1.236870639
1.239707429
1.243980003
1.249471594
1.252687734
1.253262193
1.254172914
1.255791069
1.258371886
1.2598991
1.261184661
1.261945006
0.4950737536
0.4982312928
0.5044309535
0.5907779353
1.018509094
1.252071645
1.265195743
1.257352279
1.23679978
1.240571611
1.249215334
1.242355996
1.247995295
1.255518831
1.258724493
1.262967456
1.263091258
1.263404072
1.265997003
1.269198872
1.272862342
1.274206824
1.275221994
1.27544007
0.4986238883
0.4983359549
0.509035215
0.5250446187
0.7770078298
1.204433687
1.270359455
1.247039534
1.244125776
1.258384829
1.256104119
1.251392185
1.26112764
1.269252822
1.271308479
1.270715862
1.271114644
1.273988789
1.278557618
1.282002717
1.28482446
1.285711433
1.285633079
1.285341777
0.4993024673
0.4981101811
0.5119755521
0.5231167151
0.6129001757
0.998262599
1.245136817
1.248146203
1.262430888
1.27690745
1.263475662
1.264837628
1.276933964
1.281068229
1.276533379
1.27569707
1.278957004
1.284455685
1.289493109
1.292187128
1.293212852
1.292241501
1.292474859
1.292990694
0.4992209635
0.4981825583
0.5098132789
0.5287001423
0.548095745
0.8105016373
1.141885495
1.262903559
1.291935495
1.293512563
1.276539997
1.283439492
1.288540161
1.284693156
1.279522164
1.28192885
1.287355844
1.293193536
1.297105884
1.297364421
1.2973321
1.297004407
1.297734856
1.299023983
1.299763032
0.499099296
0.4984559788
0.5097796591
0.5311343003
0.5444009737
0.6588630104
1.055741887
1.284890612
1.308902341
1.292842654
1.289406259
1.294560486
1.292058585
1.284242074
1.283743498
1.288486882
1.294042417
1.297587238
1.298657216
1.298792586
1.299839209
1.300605053
1.301696853
1.303290998
1.303756432
0.4995562108
0.4988083553
0.5096077839
0.5318393405
0.5463030437
0.5696094423
0.9266436909
1.257094102
1.30869507
1.288193756
1.300467519
1.29865017
1.286516043
1.285265891
1.288578155
1.292886533
1.296121077
1.29777073
1.29772871
1.299054033
1.301265352
1.302661282
1.303793317
1.305198937
1.305302719
0.5002613495
0.4994190533
0.5118017903
0.530661543
0.5490416917
0.5583094363
0.6895961369
1.095855959
1.260374117
1.288988657
1.303006283
1.289753398
1.282668835
1.289471646
1.293420194
1.294549665
1.29459042
1.294434345
1.296538234
1.299585134
1.302569647
1.303765058
1.304452209
1.305458902
1.305321717
0.50141742
0.5005460201
0.5140303806
0.5304401993
0.5515167238
0.5583588974
0.5842928296
0.9271773228
1.203501065
1.288132496
1.301279814
1.280284655
1.285099037
1.294600055
1.294895586
1.291968923
1.288990461
1.291560993
1.29640871
1.300578529
1.303467491
1.303928919
1.304027721
1.304377627
1.304030683
0.5029701907
0.5019248634
0.5156502952
0.5312701859
0.553194256
0.5635902485
0.5676886717
0.7444342242
1.13011298
1.28263793
1.284639668
1.280760218
1.293533229
1.300116294
1.292554508
1.284868434
1.285798688
1.291248432
1.297301684
1.301012988
1.302157124
1.300955365
1.301398072
1.302321826
1.302699218
0.5046260095
0.5042248161
0.5167607382
0.5325552508
0.5542862624
0.5661409269
0.5673125029
0.6052307527
0.9709224651
1.237613399
1.266454157
1.289268611
1.3022677
1.299752991
1.285231312
1.281757527
1.285792307
1.292637717
1.296650693
1.297691899
1.296821385
1.297418447
1.299059187
1.301142581
1.302111806
0.5056297332
0.5071486962
0.5175082698
0.5346494599
0.5551576918
0.5678777712
0.5672593459
0.5720241815
0.7806668579
1.128451037
1.26606732
1.302573845
1.303510852
1.287233642
1.279526367
1.280137371
1.287150443
1.290183068
1.29054503
1.289594804
1.292357056
1.294783034
1.297133192
1.298773981
1.299824528
1.299811711
0.5056712864
0.508601709
0.5181892475
0.5362137643
0.555606
0.5675219274
0.5702692869
0.5688668511
0.6495664284
1.040126157
1.281393436
1.301743096
1.289291934
1.2747172
1.275810742
1.283074572
1.284123573
1.282614462
1.281399823
1.283740876
1.288853705
1.292521191
1.293480111
1.294889348
1.296090712
1.295950539
0.5051476971
0.5089492207
0.518622227
0.5374000019
0.5564670058
0.5670282307
0.5715746644
0.5693362294
0.578300998
0.8959595366
1.231553645
1.287713582
1.26202314
1.270113244
1.280955343
1.280686453
1.275580798
1.272679988
1.274838634
1.279873046
1.285876792
1.287643844
1.28769966
1.289343103
1.290390746
1.290105549
0.5051446131
0.5082364586
0.5190469732
0.5381228938
0.5573954176
0.56769218
0.5717746581
0.5720325596
0.5640969022
0.6716228333
1.045549884
1.228742474
1.251822222
1.276947422
1.283433246
1.275527305
1.265981332
1.266570547
1.270895716
1.278249442
1.280905419
1.281263401
1.281027357
1.282672952
1.284100121
1.284273433
0.504987272
0.5047283066
0.5193073883
0.5385909617
0.5582929169
0.5696076141
0.5733514592
0.5740142033
0.5647596447
0.580104602
0.8910501632
1.165759004
1.260056888
1.283489369
1.28121797
1.265981966
1.261099998
1.26436131
1.271373838
1.273789125
1.274372593
1.274967214
1.275673508
1.277056796
1.278797859
1.279628073
0.5039946871
0.5029049363
0.5196252071
0.5389858228
0.5589226804
0.5710163669
0.5743660496
0.5748619816
0.5657852726
0.5606719874
0.754730867
1.123387674
1.266079038
1.286042236
1.275304064
1.26243086
1.258956926
1.266163147
1.268013269
1.267682142
1.268356939
1.270209256
1.272119853
1.273719266
1.275686308
1.277495311
0.5027907975
0.5025335021
0.519789378
0.5391282475
0.5594926013
0.5718799409
0.5750246999
0.5746545159
0.5674106996
0.5565751062
0.6024304581
1.001939052
1.248499211
1.276541855
1.259420559
1.259933112
1.263520204
1.265283756
1.263528681
1.26204349
1.263836267
1.268188793
1.272157321
1.273484844
1.275083108
1.276664338
1.2770765
0.5020515768
0.5025664324
0.5198076795
0.5393976307
0.560119357
0.5724830601
0.5751807148
0.5744276835
0.56813774
0.5565959291
0.5575140345
0.7977033232
1.145819384
1.242019255
1.251015085
1.266745373
1.267234604
1.262274381
1.257259036
1.257695161
1.262768296
1.269031804
1.272299104
1.273104937
1.274606695
1.275820764
1.275923356
0.5018805928
0.5030653131
0.5197800991
0.5397968695
0.561039808
0.5727797133
0.5752010229
0.5746060129
0.569504216
0.5584678332
0.5529244329
0.6446287272
1.018370598
1.210942644
1.262701309
1.273415312
1.265843063
1.255239172
1.253820447
1.256409585
1.265200005
1.269568704
1.271441298
1.271792829
1.273459602
1.274402196
1.274352056
0.5019560362
0.5055556198
0.5195204577
0.5403838537
0.5616615713
0.5726687102
0.5752957344
0.5748082496
0.570952551
0.5600361634
0.5531771767
0.5656999605
0.90789502
1.199895383
1.273107905
1.273873886
1.260076928
1.251945212
1.253270382
1.261724695
1.267579967
1.267976526
1.26859193
1.269393175
1.271329414
1.272461594
1.272560644
0.5021612505
0.5069333429
0.518794591
0.5416795041
0.5620845589
0.5725827675
0.575502653
0.57550873
0.5734007856
0.5608582144
0.5551749625
0.5533611206
0.7023650028
1.117882082
1.265415595
1.270832225
1.251747367
1.251657288
1.262778569
1.267203647
1.265258131
1.264024729
1.265656084
1.267702978
1.269988126
1.271492766
1.271737076
0.5024676338
0.507177562
0.5184925138
0.5427095636
0.5620559569
0.5726761239
0.5757263534
0.5760888491
0.5749665229
0.5625507656
0.5560699274
0.5525853454
0.5778624391
0.9260672927
1.210497572
1.244505294
1.251255013
1.265183848
1.270857541
1.264772323
1.259960677
1.261380633
1.265541273
1.269197506
1.271338012
1.272949863
1.273018824
0.5030336152
0.5056916619
0.5184627927
0.542833177
0.5617691857
0.5727757739
0.5760397026
0.5761700199
0.5753094821
0.5640360998
0.556270232
0.552612634
0.5538323707
0.754750589
1.098681118
1.231503787
1.266530645
1.274599855
1.268375139
1.257297169
1.257469559
1.26121451
1.268682703
1.273004659
1.273664797
1.274901672
1.274698334
0.5047739836
0.5041651269
0.518523931
0.5424685841
0.5616274778
0.5731058072
0.5767817294
0.5760944135
0.5750824448
0.5650987889
0.5561534262
0.554024085
0.5530391639
0.6146971843
1.014535538
1.245132993
1.276091446
1.272098645
1.257553225
1.254580666
1.258204905
1.265863503
1.27244647
1.274236858
1.27387949
1.275189038
1.275014249
1.276218641
0.5058974059
0.5042485513
0.5195078821
0.5420562995
0.5618855219
0.5740594274
0.5772603205
0.5759456046
0.574647805
0.5657204094
0.5559819116
0.554243156
0.5532427039
0.5585526887
0.8640817748
1.213853456
1.27320177
1.265414369
1.252515195
1.254543653
1.265007935
1.271572634
1.27307858
1.273737796
1.27359111
1.274383508
1.274395171
1.275646904
0.5061301757
0.5045533822
0.5219095056
0.5420777631
0.5630296356
0.5746623868
0.5773897799
0.5757422574
0.5742991734
0.5658221703
0.5565389798
0.5542782397
0.553727682
0.5528546011
0.6459035309
1.067371972
1.252271297
1.244122043
1.253496391
1.263559286
1.272513267
1.273517078
1.272133048
1.271027124
1.27230213
1.273743547
1.273847388
1.275316854
0.5063854272
0.505465634
0.5227848005
0.5426705207
0.5635448634
0.5748642501
0.5774412839
0.5747809048
0.5732829615
0.5665573334
0.5574198843
0.5545086011
0.5541284683
0.5528707449
0.5656106033
0.8729141146
1.164237628
1.240615926
1.267756307
1.27414563
1.275112851
1.269509155
1.268246963
1.269575406
1.271513769
1.273530777
1.274277123
1.276141969
0.5048692226
0.5086070078
0.5226655245
0.5430134747
0.5637814135
0.5750884562
0.5769472082
0.5735889359
0.5726372061
0.5680721891
0.5593643353
0.555603044
0.5542368767
0.5537396123
0.5551483067
0.7225800363
1.094220555
1.254568365
1.279403453
1.277236014
1.267788515
1.263601051
1.267074988
1.269783163
1.273726714
1.276282815
1.277107046
1.278804172
0.5030217611
0.5113837518
0.5214520572
0.5432215218
0.5639051351
0.5744368549
0.57587187
0.5735298936
0.5720282238
0.5684287574
0.560589132
0.5564223882
0.5546081128
0.5542334196
0.5546458957
0.5898536337
1.008210135
1.251526865
1.27864039
1.271519778
1.258301328
1.262215182
1.268485252
1.275076422
1.27804848
1.279313857
1.279346607
1.280522638
0.5029210945
0.5117846006
0.5203369456
0.5433985271
0.5638047446
0.5742381955
0.5757238984
0.5736593396
0.5715644625
0.5681735723
0.5608548868
0.556760648
0.5550301331
0.5544658775
0.5545742252
0.5588848322
0.7977607877
1.187670463
1.269191794
1.250905252
1.256899197
1.265451086
1.276563056
1.280515836
1.279515795
1.280688026
1.280163475
1.280850772
1.281978561
0.5045775033
0.5117048523
0.5200568915
0.5435552796
0.5641247157
0.5746504957
0.5761314205
0.5741653595
0.5715352605
0.5678760376
0.5607557596
0.5564255452
0.5553670819
0.5546634135
0.5555960094
0.5565529837
0.6262857183
1.010804714
1.212705311
1.246489372
1.266921541
1.277972827
1.282013282
1.282223371
1.279444039
1.279238861
1.278808699
1.279174019
1.281489266
0.5073344245
0.5108057717
0.5200607679
0.5442164877
0.564698818
0.5756478216
0.577199995
0.575005522
0.57173426
0.5675872111
0.5610743652
0.5561753194
0.5555109651
0.5548428554
0.5557829519
0.5569657128
0.5674959753
0.8754976604
1.16360047
1.258746202
1.282111298
1.283841305
1.282187003
1.277033199
1.275404992
1.276733117
1.277504523
1.278282857
1.280967928
0.5079888102
0.5069397552
0.521744838
0.5451466564
0.5655838184
0.5766225385
0.5780678671
0.5757737641
0.5719333294
0.5672925335
0.5610018878
0.5562385974
0.5557683756
0.5552089948
0.5555745253
0.5578673442
0.5601543316
0.711084569
1.1276616
1.270522069
1.284503923
1.283745154
1.272732958
1.27187798
1.274216814
1.276251813
1.277107472
1.278104953
1.280950416
0.5079147843
0.5050241911
0.5243772731
0.5455564703
0.566159949
0.5771754242
0.5784938244
0.5761533863
0.5719647037
0.56657144
0.5608366297
0.5567199734
0.5563876043
0.5558325964
0.5558086146
0.5582857037
0.5595741538
0.5861357544
0.9807728036
1.252780202
1.281842885
1.267438839
1.267611902
1.271405742
1.275124976
1.278759673
1.279937204
1.280718028
1.282728923
0.5074785714
0.5043755828
0.5245239631
0.5455967782
0.5658248603
0.576073795
0.577511782
0.5749024362
0.5703051475
0.5647170648
0.5606328567
0.5573987956
0.5574149125
0.5564209553
0.5566642082
0.5583241413
0.5595448113
0.5625762931
0.7663582002
1.137035643
1.250320605
1.254540349
1.266658722
1.276840429
1.282244925
1.283587503
1.282393983
1.283121834
1.284677316
0.5039869848
0.5041281413
0.5241384037
0.5450713412
0.5651961213
0.5756045855
0.5772454872
0.5742678336
0.5682512663
0.5636731405
0.5607409563
0.5577425762
0.5577112784
0.556603545
0.556987308
0.5581191347
0.5602234993
0.5612853094
0.6291802299
1.007044
1.212529033
1.259284415
1.279915447
1.286416347
1.286262838
1.284884084
1.283195885
1.283947706
1.285649779
0.4995653389
0.5060872468
0.5233162802
0.5447970945
0.565156405
0.575828577
0.5775493814
0.5745655228
0.5675813987
0.5632204252
0.5604258593
0.5578420369
0.5577022959
0.5566633222
0.5569993387
0.5579647676
0.5603022814
0.5611231959
0.5704699882
0.9022541008
1.197144101
1.279147985
1.289698812
1.288962216
1.285334011
1.282143075
1.281315393
1.281892891
1.2837976
1.286779423
0.4983576672
0.5109953982
0.521506977
0.5445559445
0.5649895903
0.5760052627
0.5778908764
0.5750292062
0.5673675543
0.5627429455
0.5602417135
0.5578395411
0.5576720111
0.5567416385
0.5569804616
0.5579890929
0.5600856618
0.561222366
0.5629165765
0.7036455898
1.136394633
1.278547036
1.289255358
1.285600212
1.275792887
1.275823269
1.277633951
1.278716885
1.280844833
1.283691301
0.4984357789
0.5127514311
0.5207298056
0.5444416176
0.5647806336
0.575997678
0.5781901941
0.5751058817
0.5671477639
0.5622647074
0.5604344166
0.557596585
0.5572129726
0.556823138
0.5569926947
0.5583139045
0.5600821587
0.5618358126
0.5621944639
0.585788591
0.9589749498
1.247005439
1.280084556
1.268104655
1.27065038
1.275142872
1.27734549
1.278090452
1.279762185
1.281757315
0.5011563239
0.512745128
0.5206645643
0.5460546297
0.5648678531
0.5758521871
0.5785004092
0.5749389718
0.5666578976
0.5617911605
0.5599022739
0.5571596435
0.5568944449
0.5569426874
0.5571935878
0.5588302824
0.5602791284
0.5619095568
0.5621240172
0.5637598817
0.7754092451
1.122620156
1.240067123
1.25905775
1.27003377
1.278109643
1.28110839
1.281117507
1.280920087
1.281029126
0.5040149331
0.5126035449
0.5211795133
0.549095404
0.5656904718
0.5755845272
0.5784216968
0.5741945817
0.5657452461
0.560847477
0.5585337906
0.5566388941
0.5568101909
0.5571228352
0.5575674792
0.559038963
0.5604548419
0.5618617297
0.5623261209
0.5624414468
0.6359829726
1.026345397
1.214696463
1.267131518
1.283681136
1.288922292
1.287469819
1.284898514
1.28352089
1.28360328
0.5049353962
0.5119498623
0.52424511
0.5502136877
0.5659745894
0.5747803097
0.576784497
0.5733679117
0.5650273463
0.5599176297
0.5580113966
0.5562004622
0.5570594381
0.5572700399
0.5578381413
0.5591340459
0.5605291961
0.5616415013
0.5621551124
0.5620858966
0.5709244426
0.924048316
1.221903702
1.286588829
1.295116099
1.293055331
1.287853484
1.284174283
1.282912254
1.284041207
0.505458254
0.5091171943
0.5281513225
0.5503638289
0.5656233794
0.5742468059
0.5754078324
0.5729967789
0.5646059955
0.5593398939
0.5577284244
0.5560504962
0.5570999197
0.5574359808
0.5579802773
0.559229175
0.5605335694
0.5614077179
0.5618555854
0.5621068058
0.5627839583
0.7075061311
1.145490082
1.283542413
1.297142588
1.292534792
1.284628206
1.280764633
1.28080114
1.283800212
0.5058738242
0.5082508322
0.5301907838
0.5509477434
0.566432533
0.5745973397
0.5745536338
0.5723173569
0.5641104709
0.5586069651
0.5568094328
0.5562979724
0.5569874844
0.5575123097
0.5580278599
0.5589779394
0.5603312939
0.5611116766
0.5616628039
0.562066369
0.5620252749
0.5884478838
0.9624715822
1.249851842
1.289223429
1.276289315
1.272943754
1.272500842
1.274637173
1.279288831
1.285268115
0.5060125377
0.5086786836
0.5313454727
0.5526149929
0.5672192589
0.5744095517
0.574164799
0.571179668
0.5634197096
0.5579204129
0.5564311203
0.5561759544
0.5563700285
0.5571634435
0.5577165478
0.5584918656
0.5599622728
0.5608096855
0.5613394159
0.5617939734
0.5618337306
0.5635946756
0.7981914915
1.131560649
1.252801547
1.262043716
1.26725181
1.269196041
1.272330197
1.276443822
1.281464486
0.5028501585
0.5131138472
0.5317004567
0.5541790056
0.5680721827
0.5746841282
0.5742305498
0.5703681515
0.5628431652
0.5573971385
0.5561707718
0.5558333837
0.5550469581
0.5563597032
0.5570840228
0.5583535657
0.5597209764
0.5602601451
0.5606644239
0.5609591451
0.5615218535
0.5622284848
0.6478574505
1.044631051
1.228131062
1.26387751
1.271428063
1.273578907
1.274402526
1.275700618
1.279777445
0.4974684664
0.5173227146
0.5317831896
0.5553756727
0.5688682866
0.5750511642
0.5745357079
0.5698508712
0.5623614586
0.5568992658
0.555452037
0.5549350262
0.5544432446
0.5560817893
0.5569237474
0.5585218753
0.5596322088
0.5600005843
0.5603477724
0.5606632682
0.561347884
0.5618137112
0.5721808445
0.9482854939
1.236260338
1.284169874
1.286269026
1.285307825
1.282958641
1.281628529
1.282296006
0.4959566555
0.5183170154
0.5313332694
0.5563690511
0.5697908518
0.5759158565
0.5751826599
0.5694187292
0.5622254529
0.5564818901
0.5548363931
0.5540818911
0.554275056
0.5560765823
0.557197929
0.558683324
0.5597563881
0.5600435123
0.5603058777
0.5606818828
0.5613323159
0.5617645918
0.5626611713
0.731329106
1.171758896
1.28578651
1.292215286
1.289201941
1.28632166
1.286091714
1.286714111
0.4964136621
0.5184041712
0.5295332354
0.5573253494
0.570800471
0.5769008897
0.5756061077
0.5690622983
0.5618562509
0.5563106265
0.5543030005
0.5537450856
0.5540901913
0.5560605727
0.5573501124
0.5586883034
0.5598118473
0.5601469541
0.5604507046
0.5607882622
0.5612594076
0.5617359241
0.5615235559
0.5962882376
0.9959645839
1.266439292
1.290903886
1.287584526
1.285432967
1.285690838
1.287174709
0.4986020519
0.5179181643
0.5287432902
0.5583917379
0.5716970135
0.5776465958
0.575839478
0.5685926132
0.5612644245
0.5556477797
0.5537316622
0.5535027179
0.5537904375
0.555785168
0.5572681698
0.5584305878
0.5597477223
0.5601420602
0.5604102771
0.5607144434
0.5610440349
0.561381427
0.5612988365
0.5639873159
0.8225480446
1.153093511
1.263819275
1.268410414
1.273027956
1.278942078
1.284666775
0.498821749
0.5160818295
0.5287446772
0.5592921452
0.5723173714
0.5782043608
0.5755745337
0.5679113968
0.5606863253
0.5551160304
0.5532206644
0.5529300286
0.5532692523
0.555183367
0.5567162556
0.557455366
0.5590413855
0.5598981062
0.5601375261
0.5603340448
0.5604390177
0.5607580083
0.5612845447
0.5619536274
0.6659429748
1.053534637
1.221793327
1.258278246
1.266180571
1.270380607
1.275599976
0.4985691389
0.5094309079
0.5303357814
0.559707256
0.5722791022
0.5785695267
0.575334042
0.5673688612
0.5600574921
0.5547112856
0.5528044031
0.5523461512
0.5525368635
0.5540762148
0.5556191973
0.5568154028
0.5584765654
0.5592869441
0.5594983396
0.5596626284
0.559950264
0.5606760392
0.5613577144
0.5614721647
0.5740910688
0.9716983349
1.202029512
1.264162982
1.268262079
1.269131756
1.271935477
1.275595271
0.4969955498
0.5040022765
0.5332519545
0.559974296
0.5724886821
0.5786586701
0.5753895427
0.5670744747
0.5596725948
0.5544432823
0.5524592337
0.5516851023
0.5518997392
0.5534336261
0.5550399186
0.5565930765
0.5583480842
0.5590714993
0.5591658104
0.5592599604
0.5597132928
0.560683737
0.5612305511
0.5609736115
0.5621093308
0.7667470411
1.190102551
1.284073397
1.285457187
1.276724031
1.271909395
1.274303327
0.4943740772
0.5027580313
0.5335871578
0.5601894786
0.5719255866
0.5782980163
0.5754671961
0.567316891
0.5594867547
0.5542121197
0.5521599681
0.5513308062
0.5512917865
0.5529382439
0.5548500685
0.5567607092
0.5584507066
0.5590921846
0.5590574953
0.5590459373
0.5595514186
0.5603970303
0.5606860872
0.5604174444
0.560260413
0.6058792206
1.054265702
1.276407682
1.290333495
1.286265374
1.281677143
1.280646496
0.4906387899
0.502808312
0.5332890711
0.5601701122
0.5712066151
0.5775012327
0.5759506122
0.568005798
0.5593137699
0.5538683832
0.5519318376
0.5509639913
0.5509954783
0.5525383809
0.5547385322
0.556676696
0.5583647088
0.5590311898
0.5589120746
0.558699197
0.5588838757
0.5593890665
0.5596922294
0.5597489659
0.5599373836
0.5637017397
0.8426941195
1.204181372
1.288271016
1.285612805
1.284063692
1.285471661
0.4830721043
0.5051959871
0.5327512223
0.5606568752
0.5707985698
0.5769323649
0.5765566225
0.5683813773
0.5590176095
0.5536694851
0.5516755348
0.550702263
0.5504846495
0.5519213625
0.554486847
0.556425919
0.5580320792
0.5585222133
0.5583609701
0.5580842026
0.5581668847
0.5586776631
0.5592037813
0.5595365127
0.5597396843
0.560103477
0.6898920227
1.062913533
1.258462922
1.282265006
1.285215945
1.287343624
0.4759760618
0.5059998288
0.5314132658
0.5615315169
0.5718447794
0.5767251901
0.5765861616
0.5685150918
0.558735107
0.5533149371
0.5513750027
0.5503002367
0.5501476532
0.5514057313
0.5537619453
0.5558562731
0.5571275155
0.5577397394
0.5578789615
0.5578323216
0.5579470546
0.5584350331
0.5590502234
0.5595196183
0.5596404568
0.5596918013
0.5786473218
0.9685554433
1.197826687
1.256771026
1.272564774
1.281260867
0.4743733399
0.5059063507
0.5283286495
0.5633754163
0.5735416823
0.5769422992
0.576454418
0.5684913665
0.5584114356
0.5528749694
0.5506637225
0.5498318253
0.5495615939
0.5510614861
0.5529999396
0.5550169097
0.5563922172
0.557426448
0.5577926898
0.5578523269
0.5579637651
0.5584261411
0.5590145023
0.5593681009
0.5592659889
0.5587804495
0.5610011982
0.8244137287
1.159865733
1.240313577
1.259127789
1.267675655
0.4754801205
0.5054442262
0.5264658091
0.5647151696
0.5740956529
0.5766586683
0.5761845056
0.568432692
0.558219905
0.5523127708
0.5502352271
0.5495985292
0.5496704573
0.5507620985
0.5525301485
0.5545095892
0.5561644445
0.5573955115
0.557780752
0.5576982735
0.5578016581
0.5582902029
0.5588020899
0.5585516025
0.5582886895
0.5582535842
0.5583133187
0.6288179957
1.100879848
1.248929824
1.257859884
1.26263736
1.267607493
0.482339162
0.5042287149
0.5252314909
0.5652099649
0.5741951464
0.5759613053
0.5753717279
0.5682900347
0.55793653
0.5518269387
0.5499672351
0.5494863942
0.5496748361
0.5505277497
0.5521952273
0.5542783683
0.5560142881
0.5572421295
0.5574833882
0.5572119144
0.557259027
0.5577984151
0.5580803996
0.5576803091
0.5578457352
0.5579655002
0.5578941831
0.5670589608
0.9203891666
1.240613915
1.27779209
1.271677595
1.268093531
0.484759305
0.5004948245
0.5244013375
0.5660792332
0.5745401977
0.5743249319
0.5729976429
0.5679324339
0.5579192156
0.551542499
0.549713792
0.5493260643
0.5494787211
0.5501943422
0.5517683986
0.5541158358
0.5558886816
0.5567819023
0.5567514813
0.5565893777
0.5565510098
0.5569454999
0.557321667
0.557360052
0.557703966
0.557825641
0.5578102468
0.5577690623
0.7293399009
1.16526363
1.281133973
1.285706644
1.280283581
0.485529591
0.4928078018
0.5249082959
0.5685600876
0.5769100603
0.5738597886
0.5712483588
0.566845135
0.55793175
0.5513991955
0.549507223
0.5491687935
0.5491353248
0.5498045098
0.5513679816
0.5537697718
0.5553741953
0.5560231061
0.5563024352
0.5563133844
0.5562580597
0.5565404079
0.5569917779
0.5572899881
0.5576506978
0.5577171165
0.5574258491
0.5573281262
0.6060169928
0.9937865857
1.265597805
1.289636085
1.289685455
0.4861437139
0.4887237109
0.5281231952
0.5709369473
0.580179125
0.5749131223
0.570831137
0.5657858494
0.5579214023
0.5514399275
0.5493690901
0.548803841
0.5485969937
0.5494342566
0.5510972023
0.5534819881
0.5550510558
0.5557112619
0.5561981072
0.5562036998
0.5561433602
0.5564002399
0.5568900893
0.5572097963
0.5574538022
0.5574204557
0.5568191839
0.5566633691
0.5605374392
0.8743995463
1.169767601
1.28408268
1.291483806
0.4863694891
0.4879065324
0.5280589081
0.5714859184
0.582370642
0.5764782938
0.5712752046
0.5655560204
0.5576590441
0.551370588
0.5491214022
0.548303392
0.5482384375
0.5490966977
0.5508470258
0.5529494773
0.5545508658
0.5555402386
0.556066912
0.5561095087
0.5560677604
0.5563274896
0.556818098
0.5569810605
0.5569942754
0.5569947746
0.5564437549
0.5562652641
0.5574513981
0.7153234801
1.077098044
1.238765724
1.282712659
0.4813797326
0.4892473577
0.5267742873
0.571395223
0.5838142494
0.577759559
0.5717574248
0.565513269
0.5573450016
0.5513251885
0.548515653
0.5478935577
0.548066793
0.5488875871
0.5506300438
0.5525359673
0.5543040893
0.5555239111
0.5559825376
0.555859024
0.5558772307
0.5562147233
0.5566669263
0.5564984865
0.556208195
0.5565224024
0.5562799728
0.556147674
0.5561284502
0.5835400281
1.017258722
1.200851778
1.253521765
0.4734671249
0.4941571937
0.5246045178
0.5710431464
0.5852248626
0.5789808831
0.5716749695
0.5646192416
0.5566996247
0.5512486145
0.5479284915
0.5477558907
0.5484475335
0.549075599
0.5504159527
0.5522793704
0.5539939096
0.5553428651
0.5555817997
0.5554179806
0.5553997429
0.555715715
0.5561791555
0.5558505835
0.5556426191
0.5561772323
0.5562476622
0.5559742508
0.5558059319
0.5595468141
0.8626073367
1.191747064
1.243154723
0.4719949163
0.4950642539
0.5186864294
0.5700803961
0.5869599668
0.5801898706
0.5711299546
0.5627849996
0.5562905695
0.5507392452
0.5475642204
0.5479088661
0.5488885087
0.5494071929
0.5503115427
0.5521641788
0.5538688991
0.5551599023
0.5552255893
0.5551367719
0.5550584892
0.5552252557
0.5555638856
0.555465453
0.5553882812
0.5559275204
0.5560757454
0.5554912008
0.5555339736
0.5555624326
0.6632417702
1.135503632
1.259026931
1.258091278
0.4727836112
0.4948299747
0.5146068698
0.5664983945
0.5889830111
0.5829247493
0.5712666961
0.5617604178
0.5557029159
0.5503502922
0.5474667559
0.5481311989
0.5490036979
0.5494109062
0.5502198991
0.5518040306
0.5534036344
0.5545480813
0.5549585382
0.5550270558
0.5548926706
0.555008039
0.5552417234
0.5553082987
0.5552924261
0.555686152
0.5556633485
0.5552116433
0.5551934908
0.5553500739
0.5757805303
0.9738650287
1.254192687
1.27285118
0.4797616169
0.4937316494
0.5127552564
0.5644333943
0.5909920267
0.5868242396
0.5724212989
0.5614137305
0.554499627
0.5502968715
0.5477253071
0.5481448534
0.5490143573
0.549355603
0.5501893743
0.5514019905
0.5530201286
0.5541115738
0.5547980709
0.5549770658
0.5548043082
0.5549269236
0.5551703607
0.5552904912
0.5552353688
0.555438435
0.5553462383
0.555080581
0.5551445387
0.5552276818
0.556182724
0.7944415202
1.20087972
1.288162951
0.4845862615
0.4915343607
0.5117599277
0.564498371
0.5924647024
0.5885063168
0.5733288225
0.5611808186
0.5541072164
0.5501320613
0.5477896607
0.5479915623
0.5489101973
0.5492246337
0.5500024277
0.5511410599
0.5524458429
0.5538543025
0.5546437037
0.5549043859
0.5546187084
0.554803795
0.5551345498
0.5552460651
0.5550752754
0.5551773036
0.5552337122
0.5550323659
0.5550611112
)
;

boundaryField
{
    inlet
    {
        type            calculated;
        value           nonuniform 0();
    }
    outlet
    {
        type            calculated;
        value           nonuniform 0();
    }
    bottom
    {
        type            calculated;
        value           nonuniform 0();
    }
    top
    {
        type            calculated;
        value           nonuniform 0();
    }
    obstacle
    {
        type            calculated;
        value           nonuniform List<scalar> 
77
(
0.7207062227
0.6916688202
0.6580804868
0.6174731394
0.5503201512
0.5164167022
0.496218958
0.4950737536
0.4986238883
0.4993024673
0.4992209635
0.499099296
0.4995562108
0.5002613495
0.50141742
0.5029701907
0.5046260095
0.5056297332
0.5056712864
0.5051476971
0.5051446131
0.504987272
0.5039946871
0.5027907975
0.5020515768
0.5018805928
0.5019560362
0.5021612505
0.5024676338
0.5030336152
0.5047739836
0.5058974059
0.5061301757
0.5063854272
0.5048692226
0.5030217611
0.5029210945
0.5045775033
0.5073344245
0.5079888102
0.5079147843
0.5074785714
0.5039869848
0.4995653389
0.4983576672
0.4984357789
0.5011563239
0.5040149331
0.5049353962
0.505458254
0.5058738242
0.5060125377
0.5028501585
0.4974684664
0.4959566555
0.4964136621
0.4986020519
0.498821749
0.4985691389
0.4969955498
0.4943740772
0.4906387899
0.4830721043
0.4759760618
0.4743733399
0.4754801205
0.482339162
0.484759305
0.485529591
0.4861437139
0.4863694891
0.4813797326
0.4734671249
0.4719949163
0.4727836112
0.4797616169
0.4845862615
)
;
    }
    defaultFaces
    {