/*--------------------------------*- C++ -*----------------------------------*\
  =========                 |
  \\      /  F ield         | OpenFOAM: The Open Source CFD Toolbox
   \\    /   O peration     | Website:  https://openfoam.org
    \\  /    A nd           | Version:  7
     \\/     M anipulation  |
\*---------------------------------------------------------------------------*/
FoamFile
{
    version     2.0;
    format      ascii;
    class       volScalarField;
    location    "2.9";
    object      p;
}
// * * * * * * * * * * * * * * * * * * * * * * * * * * * * * * * * * * * * * //

dimensions      [1 -1 -2 0 0 0 0];

internalField   nonuniform List<scalar> 8(1.092916882 1.047002737 1.059470372 1.058395365 1.014968275 1.04186092 1.001515677 1.020790022);

boundaryField
{
    inlet
    {
        type            fixedValue;
        value           nonuniform 0();
    }
    outlet
    {
        type            zeroGradient;
    }
    bottom
    {
        type            slip;
    }
    top
    {
        type            slip;
    }
    obstacle
    {
        type            zeroGradient;
    }
    defaultFaces
    {
        type            empty;
    }
    procBoundary33to26
    {
        type            processor;
        value           uniform 1.095657315;
    }
    procBoundary33to27
    {
        type            processor;
        value           nonuniform List<scalar> 2(1.15852342 0.9327444931);
    }
    procBoundary33to32
    {
        type            processor;
        value           nonuniform List<scalar> 3(1.00574483 1.000031997 1.00000012);
    }
    procBoundary33to34
    {
        type            processor;
        value           nonuniform List<scalar> 4(0.9618603897 1.033368289 1.050678948 1.053990238);
    }
}


// ************************************************************************* //
