/*--------------------------------*- C++ -*----------------------------------*\
  =========                 |
  \\      /  F ield         | OpenFOAM: The Open Source CFD Toolbox
   \\    /   O peration     | Website:  https://openfoam.org
    \\  /    A nd           | Version:  7
     \\/     M anipulation  |
\*---------------------------------------------------------------------------*/
FoamFile
{
    version     2.0;
    format      ascii;
    class       volVectorField;
    location    "1.3";
    object      U;
}
// * * * * * * * * * * * * * * * * * * * * * * * * * * * * * * * * * * * * * //

dimensions      [0 1 -1 0 0 0 0];

internalField   nonuniform List<vector> 
2222
(
(3 1.13518233e-14 0)
(3 1.19182602e-14 0)
(3 1.225023541e-14 0)
(3 1.295232291e-14 0)
(3 1.487446045e-14 0)
(3 1.428658704e-14 0)
(3 1.318759246e-14 0)
(3 1.127715621e-14 0)
(3 8.903485582e-15 0)
(3 6.041813984e-15 0)
(3 5.052632365e-15 0)
(3 3.300382227e-15 0)
(3 2.329562853e-15 0)
(3 2.27947889e-15 0)
(3 -1.990630695e-16 0)
(3 -2.344179568e-15 0)
(3 -6.759756994e-15 0)
(3 -6.843803955e-15 0)
(3 -8.944651061e-15 0)
(3 -6.626292847e-15 0)
(3 -2.449310091e-15 0)
(3 2.464912399e-15 0)
(3 -7.797307142e-16 0)
(3 -1.139340182e-15 0)
(3 -1.891108556e-15 0)
(3 -1.788985151e-15 0)
(3 -1.21100197e-15 0)
(3 -1.242960662e-15 0)
(3 -1.539504058e-15 0)
(3 -8.248188367e-16 0)
(3 1.971973195e-16 0)
(3 3.327283271e-15 0)
(3 5.964954586e-15 0)
(3 6.651477313e-15 0)
(3 7.733436143e-15 0)
(3 8.059550481e-15 0)
(3 8.30189656e-15 0)
(3 8.397536163e-15 0)
(3 8.796906224e-15 0)
(3 1.010014009e-14 0)
(3 9.167523075e-15 0)
(3 7.574465121e-15 0)
(3 5.517277928e-15 0)
(3 5.065171267e-15 0)
(3 1.210236107e-15 0)
(3 2.472873598e-15 0)
(3 1.718615649e-15 0)
(3 -2.75184278e-15 0)
(3 -4.888192168e-15 0)
(3 -4.015289827e-15 0)
(3 -3.736185336e-15 0)
(3 -4.878236272e-15 0)
(3 -9.277523735e-15 0)
(3 -7.311205898e-15 0)
(3 -8.978867708e-15 0)
(3 -1.018892768e-14 0)
(3 -7.998885777e-15 0)
(3 -2.006543269e-15 0)
(3 6.877185094e-16 0)
(3 1.778163761e-15 0)
(3 2.458732845e-15 0)
(3 3.343672461e-15 0)
(3 4.494458895e-15 0)
(3 9.442550376e-15 0)
(3 1.203283538e-14 0)
(3 1.121612339e-14 0)
(3 1.182500364e-14 0)
(3 1.137569916e-14 0)
(3 1.108816705e-14 0)
(3 1.137250876e-14 0)
(3 1.271991417e-14 0)
(3 1.549628697e-14 0)
(3 1.679539879e-14 0)
(3 1.610691687e-14 0)
(3 1.402604281e-14 0)
(3 1.219773438e-14 0)
(3 6.878363797e-15 0)
(3 3.989328473e-15 0)
(3 1.555453879e-15 0)
(3 1.350540848e-15 0)
(3 3.942405403e-15 0)
(3 3.667383974e-15 0)
(3 2.13380437e-15 0)
(3 -3.622344095e-15 0)
(3 -6.041696288e-15 0)
(3 -7.017311658e-15 0)
(3 -5.818476036e-15 0)
(3 -1.461166002e-15 0)
(3 -2.12128848e-15 0)
(3 -4.038439841e-15 0)
(3 -4.232327501e-15 0)
(3 -3.767464632e-15 0)
(3 -3.683919004e-15 0)
(3 -4.591402626e-15 0)
(3 -2.634896555e-15 0)
(3 -1.832600046e-15 0)
(3 -3.440616115e-15 0)
(3 -3.330070196e-16 0)
(3 3.274428634e-15 0)
(3 6.047600168e-15 0)
(3 6.02642715e-15 0)
(3 3.700278575e-15 0)
(3 2.886725872e-15 0)
(3 5.725565233e-15 0)
(3 9.744283376e-15 0)
(3 1.590106485e-14 0)
(3 1.470780791e-14 0)
(3 8.494400664e-15 0)
(3 2.522554075e-15 0)
(3 -3.539823564e-15 0)
(3 -3.681690043e-15 0)
(3 -3.430013908e-15 0)
(3 -2.461602365e-15 0)
(3 -1.912101368e-15 0)
(3 -1.303279533e-15 0)
(3 -3.256586884e-15 0)
(3 -4.339632547e-15 0)
(3 -6.507060789e-15 0)
(3 -1.123909238e-14 0)
(3 -1.433485213e-14 0)
(3 -1.381179188e-14 0)
(3 -9.671564649e-15 0)
(3 -5.329809891e-15 0)
(3 -5.858702265e-15 0)
(3 -9.144844041e-15 0)
(3 -8.625228425e-15 0)
(3 -7.755323201e-15 0)
(3 -2.494707926e-15 0)
(3 1.548775242e-15 0)
(3 7.460570752e-15 0)
(3 1.158494926e-14 0)
(3 1.157838381e-14 0)
(3 1.354590145e-14 0)
(3 1.239866871e-14 0)
(3 1.010851333e-14 0)
(3 8.99803467e-15 0)
(3 9.687944791e-15 0)
(3 1.165498814e-14 0)
(3 1.484349763e-14 0)
(3 1.72971987e-14 0)
(3 1.911042122e-14 0)
(3 1.842295251e-14 0)
(3 1.482461109e-14 0)
(3 1.226528699e-14 0)
(3 8.395744908e-15 0)
(3 5.141579912e-15 0)
(3 4.229840942e-15 0)
(3 2.862620537e-15 0)
(3 4.397352551e-16 0)
(3 -3.208422107e-15 0)
(3 -6.235191297e-15 0)
(3 -9.672288261e-15 0)
(3 -9.659727864e-15 0)
(3 -8.735306624e-15 0)
(3 -6.562110205e-16 0)
(3 -6.179623852e-15 0)
(3 -6.826428025e-15 0)
(3 -5.321706841e-15 0)
(3 -3.374723524e-15 0)
(3 -3.716784863e-15 0)
(3 -2.915215465e-15 0)
(3 -3.081505874e-15 0)
(3 -3.57137037e-15 0)
(3 -4.742050558e-15 0)
(3 -3.514822974e-15 0)
(3 -2.605534141e-15 0)
(3 -1.748344145e-15 0)
(3 -1.355503699e-15 0)
(3 -5.534740242e-16 0)
(3 -2.450315214e-16 0)
(3 2.229409259e-15 0)
(3 6.504602884e-15 0)
(3 9.263111224e-15 0)
(3 7.166565649e-15 0)
(3 5.576267329e-15 0)
(3 2.579536196e-15 0)
(3 -3.207945769e-15 0)
(3 -5.468108053e-15 0)
(3 -1.647227957e-15 0)
(3 2.353639696e-15 0)
(3 3.561399609e-15 0)
(3 5.649542583e-16 0)
(3 1.971626288e-16 0)
(3 -2.12616175e-15 0)
(3 -3.427216994e-15 0)
(3 -6.085498669e-15 0)
(3 -9.599035212e-15 0)
(3 -1.202222278e-14 0)
(3 -1.369531323e-14 0)
(3 -1.394614602e-14 0)
(3 -1.356733574e-14 0)
(3 -9.68495549e-15 0)
(3 -4.193209295e-15 0)
(3 -2.179085255e-16 0)
(3 3.365521586e-15 0)
(3 8.333734522e-15 0)
(3 1.447841162e-14 0)
(3 1.618224898e-14 0)
(3 1.334651837e-14 0)
(3 1.245962731e-14 0)
(3 1.418443956e-14 0)
(3 1.504619782e-14 0)
(3 1.437968868e-14 0)
(3 1.348409368e-14 0)
(3 1.470951868e-14 0)
(3 1.672956041e-14 0)
(3 1.634375146e-14 0)
(3 1.493188801e-14 0)
(3 1.611832005e-14 0)
(3 1.511777363e-14 0)
(3 1.363901721e-14 0)
(3 9.993536395e-15 0)
(3 5.295410129e-15 0)
(3 -1.339045782e-15 0)
(3 -6.632115892e-15 0)
(3 -8.355681808e-15 0)
(3 -8.312364493e-15 0)
(3 -7.337680487e-15 0)
(3 -6.774647503e-15 0)
(3 -8.035822908e-15 0)
(3 -3.909856854e-16 0)
(3 -1.463921488e-15 0)
(3 -1.044795037e-15 0)
(3 -1.334013409e-15 0)
(3 -6.96760402e-16 0)
(3 -1.356650824e-15 0)
(3 -3.21250311e-15 0)
(3 -4.979112912e-15 0)
(3 -2.992651676e-15 0)
(3 -3.453513079e-15 0)
(3 -3.872032729e-15 0)
(3 -3.891470461e-15 0)
(3 -3.617427604e-15 0)
(3 -3.594517928e-15 0)
(3 -2.312524587e-15 0)
(3 -2.743024467e-15 0)
(3 -2.091878512e-15 0)
(3 -1.443214933e-15 0)
(3 -2.238557226e-16 0)
(3 -6.34493957e-16 0)
(3 6.061176513e-16 0)
(3 1.649623494e-15 0)
(3 1.343353818e-15 0)
(3 3.600371604e-15 0)
(3 4.803256761e-15 0)
(3 7.408734548e-15 0)
(3 8.596140184e-15 0)
(3 7.877293103e-15 0)
(3 8.44450486e-15 0)
(3 6.423232292e-15 0)
(3 5.178005657e-15 0)
(3 8.047486128e-15 0)
(3 5.661049385e-15 0)
(3 -1.885245896e-15 0)
(3 -4.888372373e-15 0)
(3 -5.167119576e-15 0)
(3 -8.570613588e-16 0)
(3 3.539159081e-15 0)
(3 6.200993046e-15 0)
(3 7.023487382e-15 0)
(3 8.259073668e-15 0)
(3 8.119591186e-15 0)
(3 7.878190028e-15 0)
(3 8.532499021e-15 0)
(3 6.836374999e-15 0)
(3 1.326934518e-14 0)
(3 1.443699021e-14 0)
(3 1.56404725e-14 0)
(3 1.598997256e-14 0)
(3 1.594863575e-14 0)
(3 1.225116533e-14 0)
(3 9.696907019e-15 0)
(3 5.055500668e-15 0)
(3 4.220720198e-15 0)
(3 5.982439679e-15 0)
(3 3.910711664e-15 0)
(3 3.077816736e-15 0)
(3 3.433389379e-15 0)
(3 7.952471139e-16 0)
(3 -2.708901724e-15 0)
(3 -6.799877815e-15 0)
(3 -6.329740736e-15 0)
(3 -3.824361365e-15 0)
(3 3.734752078e-16 0)
(3 -1.609561369e-15 0)
(3 -4.601497692e-15 0)
(3 7.073146714e-17 0)
(3 1.748746907e-15 0)
(3 2.136279658e-15 0)
(3 2.20835526e-15 0)
(3 1.870125152e-15 0)
(3 1.216008998e-15 0)
(3 8.104751086e-16 0)
(3 6.967980581e-16 0)
(3 2.419211336e-15 0)
(3 4.217789953e-15 0)
(3 3.384576802e-15 0)
(3 3.240273898e-15 0)
(3 2.178341465e-15 0)
(3 1.289193996e-15 0)
(3 3.333733261e-16 0)
(3 -9.444951831e-17 0)
(3 -1.368475768e-15 0)
(3 -3.088975526e-15 0)
(3 -4.044610492e-15 0)
(3 -2.492023446e-15 0)
(3 3.006771061e-16 0)
(3 4.863803442e-15 0)
(3 1.106096761e-14 0)
(3 1.312858496e-14 0)
(3 1.208470414e-14 0)
(3 8.87554731e-15 0)
(3 6.561642253e-15 0)
(3 6.734047466e-15 0)
(3 7.145605405e-15 0)
(3 7.876486099e-15 0)
(3 1.013439512e-14 0)
(3 8.797510427e-15 0)
(3 7.645627827e-15 0)
(3 5.695140551e-15 0)
(3 6.31924868e-15 0)
(3 7.569361075e-15 0)
(3 1.69860012e-14 0)
(3 2.054129924e-14 0)
(3 1.802922588e-14 0)
(3 1.592965001e-14 0)
(3 1.482655628e-14 0)
(3 9.044614715e-15 0)
(3 1.35268449e-15 0)
(3 -1.898190727e-15 0)
(3 -1.274085145e-15 0)
(3 -1.861368334e-15 0)
(3 -2.116217139e-15 0)
(3 -1.054977154e-16 0)
(3 2.964022507e-15 0)
(3 3.320446992e-15 0)
(3 6.961260095e-16 0)
(3 -4.061156675e-15 0)
(3 -3.268641389e-15 0)
(3 -1.876115421e-15 0)
(3 -2.801849335e-15 0)
(3 -9.012576753e-16 0)
(3 -4.322498294e-15 0)
(3 -3.523032129e-15 0)
(3 -3.657769104e-15 0)
(3 -1.64062137e-15 0)
(3 -1.310935891e-15 0)
(3 1.602155951e-15 0)
(3 4.779701642e-15 0)
(3 1.060683677e-14 0)
(3 9.020679666e-15 0)
(3 4.157220401e-15 0)
(3 2.162381422e-15 0)
(3 3.556130212e-15 0)
(3 2.329537684e-15 0)
(3 4.105610273e-15 0)
(3 4.880709784e-15 0)
(3 2.372194928e-15 0)
(3 3.901549574e-15 0)
(3 5.4485767e-15 0)
(3 5.975476066e-15 0)
(3 5.869616001e-15 0)
(3 5.858071428e-15 0)
(3 5.106465693e-15 0)
(3 5.252503772e-15 0)
(3 5.721438133e-15 0)
(3 4.529100213e-15 0)
(3 2.334991327e-15 0)
(3 1.505367822e-15 0)
(3 2.607079545e-16 0)
(3 5.843540721e-16 0)
(3 3.812686927e-15 0)
(3 6.134958572e-15 0)
(3 9.509227371e-15 0)
(3 1.079731117e-14 0)
(3 8.438161475e-15 0)
(3 6.57542264e-15 0)
(3 4.09060752e-15 0)
(3 2.605625232e-15 0)
(3 4.285337018e-15 0)
(3 7.370176401e-15 0)
(3 7.392581197e-15 0)
(3 9.115276268e-15 0)
(3 1.026140678e-14 0)
(3 1.190740777e-14 0)
(3 9.82475402e-15 0)
(3 9.844988831e-15 0)
(3 1.13698914e-14 0)
(3 1.614540323e-14 0)
(3 1.899600338e-14 0)
(3 1.568462359e-14 0)
(3 8.545060966e-15 0)
(3 3.540914753e-15 0)
(3 -2.680916426e-15 0)
(3 -3.178084393e-15 0)
(3 -4.471082456e-15 0)
(3 -6.981021909e-15 0)
(3 -1.507444344e-14 0)
(3 -1.351997714e-14 0)
(3 -1.119981452e-14 0)
(3 -8.201055049e-15 0)
(3 -9.061388994e-15 0)
(3 -1.137387663e-14 0)
(3 -1.160770859e-14 0)
(3 -9.474605222e-15 0)
(3 -9.097868424e-15 0)
(3 -9.949717412e-15 0)
(3 -9.076358501e-15 0)
(3 -8.025286866e-15 0)
(3 -7.17485176e-15 0)
(3 -4.278943131e-15 0)
(3 2.191569838e-15 0)
(3 7.862872724e-15 0)
(3 1.203562316e-14 0)
(3 1.529003082e-14 0)
(3 1.567128841e-14 0)
(3 1.230554649e-14 0)
(3 7.781094836e-15 0)
(3 3.283297765e-15 0)
(3 5.269287504e-15 0)
(3 5.487350898e-15 0)
(3 4.411367708e-15 0)
(3 2.33023204e-15 0)
(3 2.401964681e-15 0)
(3 1.317502491e-15 0)
(3 1.024143782e-15 0)
(3 6.827453483e-16 0)
(3 -8.860359115e-16 0)
(3 -5.342215607e-16 0)
(3 8.563734519e-16 0)
(3 3.261784877e-15 0)
(3 3.972018461e-15 0)
(3 3.504400373e-15 0)
(3 2.708423792e-15 0)
(3 -4.300993956e-16 0)
(3 -3.852062453e-16 0)
(3 1.542808696e-15 0)
(3 4.916413718e-15 0)
(3 4.674870769e-15 0)
(3 3.56456633e-15 0)
(3 2.941629311e-15 0)
(3 -1.467828572e-16 0)
(3 -3.622204749e-15 0)
(3 -1.761277856e-15 0)
(3 -2.747209329e-16 0)
(3 1.973797838e-16 0)
(3 3.373448717e-15 0)
(3 4.722530093e-15 0)
(3 7.112301809e-15 0)
(3 1.132818324e-14 0)
(3 1.397840369e-14 0)
(3 1.698057521e-14 0)
(3 1.661630532e-14 0)
(3 1.603168787e-14 0)
(3 1.518944862e-14 0)
(3 1.597880467e-14 0)
(3 1.660180159e-14 0)
(3 1.527647337e-14 0)
(3 8.944688248e-15 0)
(3 4.692046214e-15 0)
(3 -8.596372565e-16 0)
(3 -2.734650533e-15 0)
(3 -6.303832109e-15 0)
(3 -8.314194844e-15 0)
(3 -1.099199554e-14 0)
(3 -1.440931823e-14 0)
(3 -1.731436554e-14 0)
(3 -1.741724053e-14 0)
(3 -1.778325864e-14 0)
(3 -1.570949202e-14 0)
(3 -1.556473312e-14 0)
(3 -1.593782101e-14 0)
(3 -1.676151706e-14 0)
(3 -1.671981075e-14 0)
(3 -1.553109927e-14 0)
(3 -1.384553089e-14 0)
(3 -7.298916494e-15 0)
(3 -1.951672937e-15 0)
(3 5.575160667e-15 0)
(3 1.07140514e-14 0)
(3 1.329960811e-14 0)
(3 1.256562685e-14 0)
(3 1.154286667e-14 0)
(3 9.04323444e-15 0)
(3 -1.308232281e-15 0)
(3 7.477307612e-18 0)
(3 3.330644988e-15 0)
(3 3.332980843e-15 0)
(3 3.546361421e-15 0)
(3 3.708691116e-15 0)
(3 4.06072788e-18 0)
(3 -1.327242807e-15 0)
(3 -1.796573893e-15 0)
(3 -8.599288728e-16 0)
(3 6.924551808e-17 0)
(3 6.243934914e-16 0)
(3 3.250269028e-15 0)
(3 3.455991017e-15 0)
(3 4.695701527e-15 0)
(3 4.18575131e-15 0)
(3 1.063341127e-15 0)
(3 5.414816016e-16 0)
(3 4.820633124e-16 0)
(3 -8.085655383e-16 0)
(3 -8.338120432e-16 0)
(3 -1.914616752e-15 0)
(3 -2.417030505e-15 0)
(3 -1.310757987e-15 0)
(3 9.250271495e-16 0)
(3 2.358226065e-15 0)
(3 2.711098843e-15 0)
(3 1.910572395e-15 0)
(3 1.631786165e-15 0)
(3 2.497459271e-15 0)
(3 4.368247642e-15 0)
(3 5.612050021e-15 0)
(3 5.254269172e-15 0)
(3 9.115275517e-15 0)
(3 1.133387327e-14 0)
(3 9.539780061e-15 0)
(3 6.908652032e-15 0)
(3 6.917748339e-15 0)
(3 1.135131898e-14 0)
(3 1.043139871e-14 0)
(3 1.038292713e-14 0)
(3 6.237715537e-15 0)
(3 1.831607606e-15 0)
(3 6.045482049e-16 0)
(3 -7.209244032e-16 0)
(3 -1.956822835e-15 0)
(3 -5.701355382e-15 0)
(3 -8.402425125e-15 0)
(3 -1.248229703e-14 0)
(3 -1.231180201e-14 0)
(3 -8.471810158e-15 0)
(3 -8.376759685e-15 0)
(3 -1.018743078e-14 0)
(3 -1.063165856e-14 0)
(3 -9.264161958e-15 0)
(3 -1.284466771e-14 0)
(3 -1.386548181e-14 0)
(3 -1.212624872e-14 0)
(3 -9.59093363e-15 0)
(3 -8.220799518e-15 0)
(3 -6.450482858e-15 0)
(3 -7.400134555e-16 0)
(3 3.480815743e-15 0)
(3 2.67095915e-15 0)
(3 4.38222469e-15 0)
(3 4.265049024e-15 0)
(3 -1.779044868e-15 0)
(3 -3.027382187e-15 0)
(3 -3.408327349e-15 0)
(3 -2.035728668e-15 0)
(3 7.535243582e-16 0)
(3 1.961347031e-15 0)
(3 1.364852402e-15 0)
(3 5.896528967e-16 0)
(3 1.600190449e-15 0)
(3 2.003060207e-15 0)
(3 1.690138649e-15 0)
(3 -8.133756095e-16 0)
(3 -2.295777314e-15 0)
(3 1.178298682e-16 0)
(3 4.552913735e-15 0)
(3 5.873593364e-15 0)
(3 9.869712817e-15 0)
(3 9.286885784e-15 0)
(3 8.006491924e-15 0)
(3 3.185062699e-15 0)
(3 1.041423076e-15 0)
(3 2.747678414e-15 0)
(3 2.622402921e-15 0)
(3 4.539495144e-15 0)
(3 5.503941159e-15 0)
(3 5.836447394e-15 0)
(3 4.933190152e-15 0)
(3 3.77381511e-15 0)
(3 -3.663257156e-16 0)
(3 5.420920009e-17 0)
(3 8.521062737e-16 0)
(3 2.49940928e-15 0)
(3 6.809756136e-15 0)
(3 7.252236844e-15 0)
(3 1.000543137e-14 0)
(3 1.310561958e-14 0)
(3 1.191729109e-14 0)
(3 9.631155543e-15 0)
(3 1.038704774e-14 0)
(3 8.700788613e-15 0)
(3 7.280963778e-15 0)
(3 5.073797983e-15 0)
(3 4.380788961e-16 0)
(3 -1.228430632e-15 0)
(3 -5.413597175e-15 0)
(3 -6.034756176e-15 0)
(3 -4.302266415e-15 0)
(3 -2.046126719e-15 0)
(3 -2.33142509e-15 0)
(3 8.239133484e-16 0)
(3 3.178391248e-15 0)
(3 2.62369784e-15 0)
(3 -1.820273082e-16 0)
(3 -3.851731317e-15 0)
(3 -1.897930997e-15 0)
(3 -4.392349213e-15 0)
(3 -5.457741381e-15 0)
(3 -7.005519602e-15 0)
(3 -8.38494879e-15 0)
(3 -9.954203127e-15 0)
(3 -1.008877414e-14 0)
(3 -7.564321959e-15 0)
(3 -6.569444423e-15 0)
(3 -4.201318665e-15 0)
(3 -4.867163568e-15 0)
(3 -2.374821995e-15 0)
(3 2.97703091e-16 0)
(3 8.628034296e-17 0)
(3 -1.97073927e-15 0)
(3 -2.709515718e-15 0)
(3 -4.684945784e-15 0)
(3 -5.181566086e-15 0)
(3 -3.803039431e-15 0)
(3 -3.426411683e-15 0)
(3 -2.919764539e-15 0)
(3 -2.088462834e-15 0)
(3 -3.278413615e-15 0)
(3 -4.620222607e-15 0)
(3 -4.566003747e-15 0)
(3 -3.390857925e-15 0)
(3 -2.942634963e-16 0)
(3 3.335346421e-15 0)
(3 9.030528135e-15 0)
(3 1.194156987e-14 0)
(3 1.298649213e-14 0)
(3 1.53886005e-14 0)
(3 1.169671119e-14 0)
(3 1.39225225e-14 0)
(3 1.250081589e-14 0)
(3 1.220766545e-14 0)
(3 1.046662535e-14 0)
(3 9.064621184e-15 0)
(3 7.679340132e-15 0)
(3 7.166927625e-15 0)
(3 7.429674253e-15 0)
(3 9.231224649e-15 0)
(3 1.107613814e-14 0)
(3 1.220010478e-14 0)
(3 1.317044085e-14 0)
(3 1.067855276e-14 0)
(3 1.067543904e-14 0)
(3 1.000315033e-14 0)
(3 7.721818825e-15 0)
(3 6.196874904e-15 0)
(3 1.076898884e-15 0)
(3 2.388802543e-15 0)
(3 -6.112618508e-18 0)
(3 -2.007633808e-15 0)
(3 -5.09568104e-15 0)
(3 -8.938503801e-15 0)
(3 -8.086752374e-15 0)
(3 -6.050201559e-15 0)
(3 -1.301458279e-15 0)
(3 -6.340794069e-16 0)
(3 -3.405022988e-15 0)
(3 -3.284431869e-15 0)
(3 2.283229539e-15 0)
(3 4.838031235e-15 0)
(3 2.722318764e-15 0)
(3 1.219242867e-15 0)
(3 1.080503988e-15 0)
(3 1.865572059e-15 0)
(3 2.903386497e-15 0)
(3 6.627745644e-16 0)
(3 -2.384086489e-15 0)
(3 -5.855682706e-15 0)
(3 -7.458390224e-15 0)
(3 -1.009720608e-14 0)
(3 -1.10684479e-14 0)
(3 -7.76213188e-15 0)
(3 -5.771168316e-15 0)
(3 -2.212108805e-15 0)
(3 1.451851973e-15 0)
(3 3.720802294e-15 0)
(3 4.043985645e-15 0)
(3 2.383949103e-15 0)
(3 -4.142875059e-17 0)
(3 -4.068492691e-15 0)
(3 -2.682510505e-15 0)
(3 -2.538095357e-15 0)
(3 -3.010458524e-15 0)
(3 -4.389678303e-15 0)
(3 -3.157827229e-15 0)
(3 -2.010334421e-15 0)
(3 -1.335329353e-15 0)
(3 -1.984350694e-15 0)
(3 -9.107104733e-16 0)
(3 4.33020752e-15 0)
(3 5.434086407e-15 0)
(3 7.568755186e-15 0)
(3 1.034572023e-14 0)
(3 1.459998904e-14 0)
(3 2.158131688e-14 0)
(3 2.141463185e-14 0)
(3 1.941788124e-14 0)
(3 1.760017618e-14 0)
(3 2.093263261e-14 0)
(3 1.944584301e-14 0)
(3 1.730359702e-14 0)
(3 1.9099059e-14 0)
(3 2.26481654e-14 0)
(3 2.370596832e-14 0)
(3 2.470791457e-14 0)
(3 2.317004221e-14 0)
(3 2.02469067e-14 0)
(3 1.473327656e-14 0)
(3 4.974679174e-15 0)
(3 5.286549271e-16 0)
(3 -1.174359974e-15 0)
(3 -4.503994258e-15 0)
(3 -9.329511478e-15 0)
(3 -8.761069247e-15 0)
(3 -9.467926316e-15 0)
(3 -1.002076484e-14 0)
(3 -1.109765439e-14 0)
(3 -8.653188341e-15 0)
(3 -6.363705429e-15 0)
(3 -4.945236104e-15 0)
(3 -2.307363109e-15 0)
(3 -1.174618217e-15 0)
(3 5.854626777e-16 0)
(3 1.409843389e-15 0)
(3 3.143634662e-15 0)
(3 2.049534623e-15 0)
(3 -1.453421943e-15 0)
(3 -5.266939684e-15 0)
(3 -7.182005663e-15 0)
(3 -5.897923031e-15 0)
(3 -3.179797198e-15 0)
(3 1.533315751e-16 0)
(3 1.872690769e-15 0)
(3 -1.661129084e-15 0)
(3 -4.981956567e-15 0)
(3 -7.91557101e-15 0)
(3 -1.370247761e-14 0)
(3 -1.516882166e-14 0)
(3 -1.20475807e-14 0)
(3 -7.302815131e-15 0)
(3 1.078745439e-15 0)
(3 2.685403604e-15 0)
(3 4.776766492e-15 0)
(3 3.257871335e-15 0)
(3 3.149841823e-15 0)
(3 1.352749225e-15 0)
(3 -6.008220975e-16 0)
(3 -1.460380937e-15 0)
(3 -2.555313568e-15 0)
(3 -4.305463773e-15 0)
(3 -4.845564067e-15 0)
(3 -3.759504588e-15 0)
(3 -2.598833167e-15 0)
(3 -1.596094748e-15 0)
(3 -7.138667561e-16 0)
(3 6.267020535e-17 0)
(3 1.180246711e-15 0)
(3 3.861191545e-15 0)
(3 6.845801624e-15 0)
(3 7.873993718e-15 0)
(3 6.673033901e-15 0)
(3 8.918754273e-15 0)
(3 1.460446025e-14 0)
(3 1.859801568e-14 0)
(3 1.966638244e-14 0)
(3 2.10381187e-14 0)
(3 2.180836117e-14 0)
(3 2.718830374e-14 0)
(3 2.665917562e-14 0)
(3 2.683644954e-14 0)
(3 2.417670426e-14 0)
(3 2.047332477e-14 0)
(3 1.829876871e-14 0)
(3 1.330381333e-14 0)
(3 4.640561813e-15 0)
(3 -3.192341106e-15 0)
(3 -1.204192953e-14 0)
(3 -1.137466493e-14 0)
(3 -5.500452696e-15 0)
(3 -3.302481472e-15 0)
(3 -1.479983485e-15 0)
(3 -1.345215012e-16 0)
(3 1.69104778e-15 0)
(3 2.462200135e-15 0)
(3 1.425680244e-15 0)
(3 -2.215774844e-16 0)
(3 -3.225669273e-15 0)
(3 -4.100157796e-15 0)
(3 -2.377455223e-15 0)
(3 6.257270785e-18 0)
(3 -1.132105502e-15 0)
(3 -2.969892939e-15 0)
(3 -6.660967271e-15 0)
(3 -1.184579287e-14 0)
(3 -1.473081232e-14 0)
(3 -1.417536373e-14 0)
(3 -1.115304231e-14 0)
(3 -7.862904523e-15 0)
(3 -4.762309015e-15 0)
(3 -5.768143022e-15 0)
(3 -6.438244523e-15 0)
(3 -7.141235302e-15 0)
(3 -8.20965293e-15 0)
(3 -7.521044328e-15 0)
(3 -2.838983008e-15 0)
(3 5.149534599e-17 0)
(3 -2.746848193e-16 0)
(3 8.078208487e-17 0)
(3 7.629704486e-16 0)
(3 2.272418306e-15 0)
(3 1.642748583e-15 0)
(3 2.401518668e-15 0)
(3 9.998119635e-16 0)
(3 -4.642041801e-16 0)
(3 -1.989472412e-15 0)
(3 -1.152051126e-15 0)
(3 -2.608383596e-15 0)
(3 -1.340460202e-15 0)
(3 -2.116476323e-15 0)
(3 -2.373896767e-15 0)
(3 -4.264075904e-15 0)
(3 -6.720308835e-15 0)
(3 -5.810656282e-15 0)
(3 -4.43234679e-15 0)
(3 -3.765678837e-15 0)
(3 -4.688899274e-15 0)
(3 -8.480863594e-15 0)
(3 -6.682835987e-15 0)
(3 -1.986794472e-15 0)
(3 1.719729532e-15 0)
(3 5.639385641e-15 0)
(3 9.966413898e-15 0)
(3 1.544751814e-14 0)
(3 2.060832485e-14 0)
(3 2.082271918e-14 0)
(3 1.893621843e-14 0)
(3 1.902087327e-14 0)
(3 2.011366554e-14 0)
(3 2.148472221e-14 0)
(3 2.131013841e-14 0)
(3 1.962617874e-14 0)
(3 1.288170251e-14 0)
(3 7.547478182e-15 0)
(3 7.88582417e-15 0)
(3 1.011392567e-14 0)
(3 1.170948921e-14 0)
(3 1.243620514e-14 0)
(3 1.077868289e-14 0)
(3 1.073162423e-14 0)
(3 9.701393987e-15 0)
(3 5.527405277e-15 0)
(3 -1.226821511e-15 0)
(3 -9.667498244e-15 0)
(3 -9.376525339e-15 0)
(3 -6.701083757e-15 0)
(3 -4.562522975e-15 0)
(3 -6.066817245e-15 0)
(3 -6.600293416e-15 0)
(3 -5.269349984e-15 0)
(3 -7.542969602e-15 0)
(3 -9.726895127e-15 0)
(3 -1.188304919e-14 0)
(3 -1.0725292e-14 0)
(3 -1.043077518e-14 0)
(3 -1.283452883e-14 0)
(3 -1.283847349e-14 0)
(3 -9.019272553e-15 0)
(3 -6.546440366e-15 0)
(3 -1.77001657e-15 0)
(3 3.748889136e-15 0)
(3 9.09592032e-15 0)
(3 9.19034943e-15 0)
(3 -1.989837553e-16 0)
(3 -2.065143614e-15 0)
(3 -2.315940401e-15 0)
(3 -1.003128365e-15 0)
(3 2.583446402e-16 0)
(3 -7.822945022e-16 0)
(3 2.271093894e-16 0)
(3 1.977760903e-15 0)
(3 1.876063857e-15 0)
(3 1.274768461e-15 0)
(3 1.018666421e-15 0)
(3 3.616465711e-16 0)
(3 -8.231541163e-16 0)
(3 -4.57241405e-15 0)
(3 -5.38674072e-15 0)
(3 -7.271217831e-15 0)
(3 -7.512614547e-15 0)
(3 -9.958081992e-15 0)
(3 -1.362709883e-14 0)
(3 -1.424186405e-14 0)
(3 -1.462729474e-14 0)
(3 -1.623868115e-14 0)
(3 -1.46075583e-14 0)
(3 -8.861048564e-15 0)
(3 -5.545779097e-15 0)
(3 -4.892150014e-17 0)
(3 3.070434105e-15 0)
(3 4.989493941e-15 0)
(3 7.080831462e-15 0)
(3 5.043665345e-15 0)
(3 4.075806293e-15 0)
(3 4.789961511e-15 0)
(3 5.041778982e-15 0)
(3 7.074548374e-15 0)
(3 1.148121098e-14 0)
(3 1.242421549e-14 0)
(3 1.338625891e-14 0)
(3 1.106237133e-14 0)
(3 9.358057718e-15 0)
(3 7.290445127e-15 0)
(3 6.513829284e-15 0)
(3 6.701413551e-15 0)
(3 8.005786324e-15 0)
(3 7.288418205e-15 0)
(3 6.47908663e-15 0)
(3 4.537160375e-15 0)
(3 -4.191573028e-15 0)
(3 -7.754004099e-15 0)
(3 -2.194918227e-15 0)
(3 -5.984454664e-15 0)
(3 -3.527059929e-15 0)
(3 -3.771976434e-15 0)
(3 -2.897727462e-15 0)
(3 -1.972015099e-15 0)
(3 1.116777918e-15 0)
(3 -6.289245619e-16 0)
(3 -3.049752231e-15 0)
(3 -6.898660851e-15 0)
(3 -1.105245918e-14 0)
(3 -1.218234867e-14 0)
(3 -1.021748723e-14 0)
(3 -4.952710024e-15 0)
(3 -3.523472418e-16 0)
(3 2.457670935e-15 0)
(3 4.77144222e-15 0)
(3 5.221384187e-15 0)
(3 -1.148390943e-15 0)
(3 -1.623743218e-15 0)
(3 -8.156959874e-16 0)
(3 1.757225669e-16 0)
(3 -1.094367963e-16 0)
(3 -7.856482415e-18 0)
(3 1.700714086e-15 0)
(3 2.641316399e-15 0)
(3 1.752005645e-15 0)
(3 -6.983083123e-16 0)
(3 -1.253175908e-15 0)
(3 -1.04360726e-15 0)
(3 -6.039253798e-16 0)
(3 -2.673067717e-15 0)
(3 -2.484339785e-15 0)
(3 -2.272492928e-15 0)
(3 -2.595235151e-15 0)
(3 -6.529769418e-15 0)
(3 -9.158334791e-15 0)
(3 -1.172009373e-14 0)
(3 -1.309304803e-14 0)
(3 -1.50303388e-14 0)
(3 -1.43978627e-14 0)
(3 -1.120838788e-14 0)
(3 -6.87230605e-15 0)
(3 -3.154576236e-15 0)
(3 -2.794419281e-15 0)
(3 -2.212671128e-15 0)
(3 -5.583709488e-16 0)
(3 1.076074697e-15 0)
(3 -5.514676989e-16 0)
(3 -3.352504834e-15 0)
(3 -6.006584681e-15 0)
(3 -8.966280244e-15 0)
(3 -7.723687358e-15 0)
(3 1.583576785e-15 0)
(3 5.986831503e-15 0)
(3 4.27032058e-15 0)
(3 3.061526531e-15 0)
(3 1.303655479e-16 0)
(3 -4.168626554e-16 0)
(3 1.650390849e-15 0)
(3 5.186231418e-15 0)
(3 6.822477431e-15 0)
(3 9.17133971e-15 0)
(3 9.904616181e-15 0)
(3 9.414728227e-15 0)
(3 7.597301194e-15 0)
(3 2.623316869e-15 0)
(3 -1.610046113e-15 0)
(3 -1.851121071e-15 0)
(3 5.475664989e-16 0)
(3 1.417556632e-15 0)
(3 4.154853573e-15 0)
(3 3.909210033e-15 0)
(3 1.158192449e-15 0)
(3 -4.804103618e-15 0)
(3 -7.954338381e-15 0)
(3 -6.733738625e-15 0)
(3 -7.121605316e-15 0)
(3 -5.621940521e-15 0)
(3 -3.637470636e-15 0)
(3 -4.512631815e-15 0)
(3 -4.467842514e-15 0)
(3 -7.875206973e-15 0)
(3 -1.070324294e-14 0)
(3 -7.924093395e-16 0)
(3 -5.026504594e-16 0)
(3 3.654022619e-17 0)
(3 2.073749465e-15 0)
(3 1.922950561e-15 0)
(3 3.688954206e-15 0)
(3 6.23267652e-15 0)
(3 4.571323085e-15 0)
(3 4.278901911e-15 0)
(3 3.162751406e-15 0)
(3 3.838223292e-15 0)
(3 4.128098373e-15 0)
(3 5.462206301e-15 0)
(3 5.338064305e-15 0)
(3 2.448013976e-15 0)
(3 -2.626588618e-16 0)
(3 -3.367040144e-15 0)
(3 -7.615940821e-15 0)
(3 -5.985214903e-15 0)
(3 -8.316384805e-15 0)
(3 -7.786962407e-15 0)
(3 -4.927579344e-15 0)
(3 -1.394243794e-15 0)
(3 -2.285028573e-16 0)
(3 3.905546247e-15 0)
(3 4.790909146e-15 0)
(3 3.271576861e-15 0)
(3 1.037527323e-15 0)
(3 -1.351374989e-15 0)
(3 -1.158124892e-15 0)
(3 -4.214143865e-15 0)
(3 -6.001056736e-15 0)
(3 -1.014550146e-14 0)
(3 -1.267191532e-14 0)
(3 -1.402573216e-14 0)
(3 -1.137702771e-14 0)
(3 -5.396808448e-15 0)
(3 -3.838947561e-15 0)
(3 -3.077869988e-15 0)
(3 -1.757967476e-15 0)
(3 1.436619955e-16 0)
(3 3.450994619e-15 0)
(3 3.021175125e-15 0)
(3 3.105996683e-15 0)
(3 7.429596187e-15 0)
(3 1.043159972e-14 0)
(3 1.431849331e-14 0)
(3 1.495037636e-14 0)
(3 9.792059293e-15 0)
(3 8.526880782e-15 0)
(3 9.75209761e-15 0)
(3 1.301750937e-14 0)
(3 1.298650143e-14 0)
(3 1.123276363e-14 0)
(3 4.995160245e-15 0)
(3 3.803443915e-15 0)
(3 2.1556059e-15 0)
(3 -1.861625044e-15 0)
(3 -1.855428712e-16 0)
(3 2.66848628e-15 0)
(3 2.453370563e-15 0)
(3 6.376383432e-16 0)
(3 -3.936714687e-15 0)
(3 -1.181038023e-14 0)
(3 -1.697559386e-14 0)
(3 -1.850926159e-14 0)
(3 6.233606492e-16 0)
(3 6.49077745e-16 0)
(3 -6.820546596e-16 0)
(3 -1.874677954e-15 0)
(3 -6.65707373e-16 0)
(3 -4.641364024e-16 0)
(3 3.207994063e-15 0)
(3 4.187520334e-15 0)
(3 4.935170303e-15 0)
(3 7.874422618e-15 0)
(3 8.282250201e-15 0)
(3 5.753432613e-15 0)
(3 5.013271503e-15 0)
(3 5.53113871e-15 0)
(3 3.348243697e-15 0)
(3 8.884333407e-16 0)
(3 -6.571948691e-16 0)
(3 -5.515659053e-16 0)
(3 3.197666274e-16 0)
(3 5.989510773e-16 0)
(3 3.506006318e-16 0)
(3 2.698451808e-15 0)
(3 2.215282132e-15 0)
(3 1.51448192e-15 0)
(3 4.105800823e-15 0)
(3 4.677072973e-15 0)
(3 2.830348714e-15 0)
(3 -1.516328562e-15 0)
(3 -3.774238348e-15 0)
(3 -7.192142796e-15 0)
(3 -1.077964017e-14 0)
(3 -1.153526926e-14 0)
(3 -1.234260183e-14 0)
(3 -1.242976375e-14 0)
(3 -1.360799717e-14 0)
(3 -1.767851951e-14 0)
(3 -1.722443738e-14 0)
(3 -1.26117681e-14 0)
(3 -1.055503436e-14 0)
(3 -6.559568413e-15 0)
(3 -4.088743847e-15 0)
(3 -4.15863733e-15 0)
(3 -3.502423094e-15 0)
(3 -5.83170341e-15 0)
(3 -1.12123608e-15 0)
(3 9.245246086e-15 0)
(3 1.697445638e-14 0)
(3 1.696191641e-14 0)
(3 1.478249936e-14 0)
(3 1.591631753e-14 0)
(3 1.557693802e-14 0)
(3 1.694920116e-14 0)
(3 1.593300705e-14 0)
(3 1.605794543e-14 0)
(3 1.630945764e-14 0)
(3 1.466018515e-14 0)
(3 1.750077189e-14 0)
(3 1.949426724e-14 0)
(3 1.556256358e-14 0)
(3 1.401700735e-14 0)
(3 1.149345978e-14 0)
(3 8.489519431e-15 0)
(3 3.425272199e-16 0)
(3 -3.983341782e-15 0)
(3 -9.62379984e-15 0)
(3 -1.164714594e-14 0)
(3 -2.825346032e-16 0)
(3 -6.918195149e-16 0)
(3 -1.341647118e-15 0)
(3 -2.866804484e-15 0)
(3 -1.327343754e-15 0)
(3 -1.39015549e-15 0)
(3 -1.384331716e-15 0)
(3 5.088404355e-16 0)
(3 1.393530238e-15 0)
(3 1.759293059e-15 0)
(3 8.675123748e-16 0)
(3 -1.97059121e-15 0)
(3 -1.547351877e-15 0)
(3 -1.510927177e-15 0)
(3 -6.27447286e-16 0)
(3 -1.081531955e-15 0)
(3 1.606968864e-16 0)
(3 2.038473333e-15 0)
(3 2.831868801e-15 0)
(3 3.513649659e-15 0)
(3 3.398779235e-15 0)
(3 2.328329834e-15 0)
(3 1.249223954e-15 0)
(3 -2.717208691e-15 0)
(3 -4.909145121e-15 0)
(3 -7.417643875e-15 0)
(3 -9.491137444e-15 0)
(3 -1.358348112e-14 0)
(3 -1.60801964e-14 0)
(3 -1.800559619e-14 0)
(3 -1.777969998e-14 0)
(3 -1.687537893e-14 0)
(3 -1.469971576e-14 0)
(3 -1.284715055e-14 0)
(3 -6.409183218e-15 0)
(3 -1.644031572e-15 0)
(3 -2.78835848e-15 0)
(3 -4.402467346e-15 0)
(3 -6.713003946e-15 0)
(3 -7.504485401e-15 0)
(3 -7.06885063e-15 0)
(3 -6.697452643e-15 0)
(3 -6.68494553e-15 0)
(3 -1.070325855e-14 0)
(3 -7.565463675e-15 0)
(3 -2.347963898e-15 0)
(3 9.065423064e-15 0)
(3 1.793465312e-14 0)
(3 1.912427707e-14 0)
(3 1.888670644e-14 0)
(3 1.621986662e-14 0)
(3 1.568637095e-14 0)
(3 1.715996698e-14 0)
(3 2.081869221e-14 0)
(3 2.387919216e-14 0)
(3 2.389329731e-14 0)
(3 2.3786656e-14 0)
(3 1.993545947e-14 0)
(3 1.970767212e-14 0)
(3 1.871143886e-14 0)
(3 1.183893422e-14 0)
(3 6.706114286e-15 0)
(3 3.548390885e-15 0)
(3 1.859686118e-15 0)
(3 -2.373568237e-15 0)
(3 -6.221409725e-15 0)
(3 -1.064814809e-15 0)
(3 -4.711821482e-15 0)
(3 -5.659775182e-15 0)
(3 -4.464771827e-15 0)
(3 -1.528367712e-15 0)
(3 -4.308196757e-16 0)
(3 -8.548180205e-16 0)
(3 1.734207446e-16 0)
(3 -2.115967186e-17 0)
(3 -1.737735599e-15 0)
(3 -1.938897955e-15 0)
(3 -1.525831405e-15 0)
(3 -2.645296434e-15 0)
(3 -1.394504636e-15 0)
(3 -1.518730819e-16 0)
(3 -8.036151442e-16 0)
(3 -1.996141833e-15 0)
(3 -2.221125075e-15 0)
(3 -4.60844827e-15 0)
(3 -5.399348213e-15 0)
(3 -5.912572414e-15 0)
(3 -7.57159677e-15 0)
(3 -7.225068569e-15 0)
(3 -8.35792178e-15 0)
(3 -1.199475332e-14 0)
(3 -1.606151523e-14 0)
(3 -1.722947481e-14 0)
(3 -1.614523547e-14 0)
(3 -1.714825282e-14 0)
(3 -1.558817057e-14 0)
(3 -1.398031923e-14 0)
(3 -1.322610492e-14 0)
(3 -1.496084594e-14 0)
(3 -1.190925273e-14 0)
(3 -6.534897675e-15 0)
(3 -1.868085792e-15 0)
(3 -2.26982413e-15 0)
(3 -4.09963598e-15 0)
(3 -4.642124962e-15 0)
(3 -6.286242668e-15 0)
(3 -5.63538054e-15 0)
(3 -5.801142224e-15 0)
(3 -8.909595385e-15 0)
(3 -1.263729788e-14 0)
(3 -1.434787763e-14 0)
(3 -1.006873416e-14 0)
(3 -6.513928109e-15 0)
(3 -1.594424233e-16 0)
(3 5.957385749e-15 0)
(3 9.068186401e-15 0)
(3 1.077978399e-14 0)
(3 1.058896462e-14 0)
(3 1.191206136e-14 0)
(3 1.322573046e-14 0)
(3 1.646205631e-14 0)
(3 2.185538832e-14 0)
(3 2.265131875e-14 0)
(3 2.101267923e-14 0)
(3 1.513165187e-14 0)
(3 1.171314731e-14 0)
(3 8.293975093e-15 0)
(3 5.330272188e-15 0)
(3 5.874190757e-15 0)
(3 6.807701988e-15 0)
(3 5.300383507e-15 0)
(3 1.884035682e-15 0)
(3 5.122787087e-16 0)
(3 1.666636227e-16 0)
(3 1.855910888e-16 0)
(3 -1.133867022e-15 0)
(3 -1.971846504e-15 0)
(3 8.50532803e-16 0)
(3 1.703982742e-15 0)
(3 1.39771511e-15 0)
(3 2.257190398e-15 0)
(3 1.768899066e-15 0)
(3 2.472571403e-15 0)
(3 2.981670726e-15 0)
(3 1.811435153e-15 0)
(3 2.126194461e-15 0)
(3 2.58836036e-15 0)
(3 2.347795797e-15 0)
(3 2.732935637e-16 0)
(3 -1.541835012e-15 0)
(3 -5.636427014e-15 0)
(3 -6.873001195e-15 0)
(3 -7.981832042e-15 0)
(3 -7.341744397e-15 0)
(3 -6.44510772e-15 0)
(3 -8.206085912e-15 0)
(3 -1.262351177e-14 0)
(3 -1.577150963e-14 0)
(3 -1.983569183e-14 0)
(3 -1.737569304e-14 0)
(3 -1.524903384e-14 0)
(3 -9.918210748e-15 0)
(3 -8.652082731e-15 0)
(3 -7.814972085e-15 0)
(3 -6.16852512e-15 0)