/*--------------------------------*- C++ -*----------------------------------*\
  =========                 |
  \\      /  F ield         | OpenFOAM: The Open Source CFD Toolbox
   \\    /   O peration     | Website:  https://openfoam.org
    \\  /    A nd           | Version:  7
     \\/     M anipulation  |
\*---------------------------------------------------------------------------*/
FoamFile
{
    version     2.0;
    format      ascii;
    class       volVectorField;
    location    "3";
    object      U;
}
// * * * * * * * * * * * * * * * * * * * * * * * * * * * * * * * * * * * * * //

dimensions      [0 1 -1 0 0 0 0];

internalField   nonuniform List<vector> 
2222
(
(2.759640767 -0.4637308015 0)
(2.770478533 -0.4503076725 0)
(2.784761567 -0.4285235734 0)
(2.797243873 -0.4043603012 0)
(2.8062255 -0.3917286597 0)
(2.823894481 -0.3661169094 0)
(2.84169099 -0.3286365245 0)
(2.848520198 -0.3129735554 0)
(2.861447581 -0.2907680151 0)
(2.881255854 -0.2494207931 0)
(2.888784666 -0.2317969323 0)
(2.892811824 -0.2212411998 0)
(2.911657036 -0.1831417785 0)
(2.922602097 -0.1499652765 0)
(2.926185354 -0.1493440424 0)
(3 -8.43186535e-16 0)
(3 1.324450466e-16 0)
(3 -4.124293469e-15 0)
(3 -2.186542107e-13 0)
(3 -4.066804665e-11 0)
(2.999999992 -2.191799431e-08 0)
(2.999999587 -1.102439348e-06 0)
(2.999971775 -7.21174942e-05 0)
(2.999291503 -0.001927536438 0)
(2.991363442 -0.02170266096 0)
(2.942799152 -0.1359595789 0)
(2.863257622 -0.3040924284 0)
(2.776070755 -0.4717058392 0)
(2.749766833 -0.4916431046 0)
(2.73917669 -0.4741506266 0)
(2.75414312 -0.470433471 0)
(2.760286584 -0.4765627929 0)
(2.758538521 -0.481200816 0)
(2.751500994 -0.4860717424 0)
(2.746897123 -0.4858244021 0)
(2.748447359 -0.4794139498 0)
(2.753836993 -0.4691737786 0)
(2.763583817 -0.4550863985 0)
(2.775590684 -0.440105708 0)
(2.792860927 -0.4146563121 0)
(2.807240871 -0.3871408972 0)
(2.816660071 -0.3740177073 0)
(2.834976522 -0.3466492745 0)
(2.852233466 -0.307818628 0)
(2.858247919 -0.2929821333 0)
(2.870417528 -0.2710321519 0)
(2.89027463 -0.2283221628 0)
(2.897913808 -0.2100714805 0)
(2.900964104 -0.2021601228 0)
(2.919271233 -0.1656275564 0)
(2.93107606 -0.1296387834 0)
(2.935362404 -0.1268958135 0)
(3 1.13817084e-15 0)
(3 3.70977858e-15 0)
(3 -6.600380225e-14 0)
(3 -2.797206102e-11 0)
(2.999999999 -2.675145533e-09 0)
(2.999999714 -7.528804403e-07 0)
(2.999989483 -2.816447194e-05 0)
(2.999600102 -0.001017184874 0)
(2.994408582 -0.01518972372 0)
(2.957801524 -0.1016194241 0)
(2.877641458 -0.2829448678 0)
(2.811340814 -0.3995049089 0)
(2.759967133 -0.4906298783 0)
(2.740599892 -0.5015231105 0)
(2.734337992 -0.4881598795 0)
(2.744886395 -0.4765870421 0)
(2.755996927 -0.4757048301 0)
(2.756964242 -0.4774942612 0)
(2.755043948 -0.4813669626 0)
(2.751826612 -0.4814250982 0)
(2.752994406 -0.474115766 0)
(2.759514579 -0.4608075981 0)
(2.769885958 -0.4444663368 0)
(2.782294108 -0.4282895401 0)
(2.801743039 -0.3987954636 0)
(2.81673636 -0.3694310657 0)
(2.826113404 -0.3565614777 0)
(2.845955124 -0.3260685266 0)
(2.863274756 -0.2850092044 0)
(2.86827548 -0.2724009051 0)
(2.879090491 -0.2522808605 0)
(2.899140935 -0.2082607019 0)
(2.906888841 -0.1888482746 0)
(2.910150068 -0.1806601617 0)
(2.92829475 -0.1442043347 0)
(2.939381312 -0.1088743783 0)
(2.943197326 -0.1072461178 0)
(3 4.980378906e-15 0)
(3 4.701534944e-15 0)
(3 -2.244266274e-12 0)
(2.999999999 -2.314829168e-09 0)
(2.99999995 -1.370439425e-07 0)
(2.999993216 -1.73758065e-05 0)
(2.999828681 -0.0004554163795 0)
(2.996390582 -0.009506912421 0)
(2.971002694 -0.06877143611 0)
(2.884887974 -0.2697996103 0)
(2.823494364 -0.3823543669 0)
(2.779043422 -0.458016547 0)
(2.756170016 -0.4838140761 0)
(2.73881143 -0.4942647066 0)
(2.738269831 -0.4906001907 0)
(2.744741962 -0.4812715186 0)
(2.751947448 -0.4777101269 0)
(2.754017923 -0.4778546252 0)
(2.754936328 -0.478361546 0)
(2.755562685 -0.4746250429 0)
(2.758422076 -0.4662073188 0)
(2.766764354 -0.4506570247 0)
(2.777893328 -0.4319068248 0)
(2.790081649 -0.4148441315 0)
(2.811263721 -0.3811783741 0)
(2.827254124 -0.3487090386 0)
(2.836668247 -0.3361037944 0)
(2.85653399 -0.3050460647 0)
(2.873575424 -0.2632750641 0)
(2.878493821 -0.2510798159 0)
(2.889071112 -0.2309567427 0)
(2.909084805 -0.1858666753 0)
(2.916717471 -0.1656124094 0)
(2.918828052 -0.1603004694 0)
(2.935817204 -0.1261376426 0)
(2.947696896 -0.08848369714 0)
(2.952135116 -0.08458380295 0)
(3 5.727505342e-15 0)
(3 -2.286270824e-13 0)
(3 -1.144803073e-10 0)
(2.999999958 -1.134380534e-07 0)
(2.999998372 -4.412705474e-06 0)
(2.999895626 -0.0002628055737 0)
(2.998063497 -0.00515172275 0)
(2.98276668 -0.04551722436 0)
(2.894208347 -0.2267346325 0)
(2.829923493 -0.3711301632 0)
(2.778711292 -0.4531351199 0)
(2.762054658 -0.4817190346 0)
(2.753982638 -0.4950357998 0)
(2.741067569 -0.4914477314 0)
(2.740027101 -0.4843418619 0)
(2.744381142 -0.480205636 0)
(2.748006132 -0.4800544549 0)
(2.751533116 -0.479454687 0)
(2.754439109 -0.4759522152 0)
(2.758030199 -0.4685197309 0)
(2.764069418 -0.4573097148 0)
(2.7752782 -0.4379848935 0)
(2.786712699 -0.4176256912 0)
(2.799312202 -0.3987567642 0)
(2.822432755 -0.3603371821 0)
(2.837826246 -0.3275207614 0)
(2.84649062 -0.3163113489 0)
(2.867315801 -0.2830673222 0)
(2.884696957 -0.2392497537 0)
(2.889288665 -0.2285120611 0)
(2.898729309 -0.2103359633 0)
(2.918460988 -0.1649488056 0)
(2.926044262 -0.1438363966 0)
(2.928464455 -0.1378047375 0)
(2.94533693 -0.1033758559 0)
(2.956463437 -0.06638544351 0)
(2.96044342 -0.06357309284 0)
(3 6.203678803e-15 0)
(3 -4.011236919e-11 0)
(2.999999997 -7.194292284e-09 0)
(2.999998867 -2.887085571e-06 0)
(2.999962949 -0.0001006577129 0)
(2.998951119 -0.00251540175 0)
(2.986635706 -0.03501205489 0)
(2.938868003 -0.1445694613 0)
(2.821497166 -0.3895612899 0)
(2.784249717 -0.4236935376 0)
(2.761028517 -0.4705224217 0)
(2.761517295 -0.4836093398 0)
(2.756589388 -0.4934942016 0)
(2.748241635 -0.4915857073 0)
(2.742060322 -0.4842050962 0)
(2.743080249 -0.4804290473 0)
(2.745927543 -0.4801004888 0)
(2.749454104 -0.4786673993 0)
(2.754547535 -0.4725419062 0)
(2.761471097 -0.4615978992 0)
(2.770774982 -0.4472714779 0)
(2.785402382 -0.4225850592 0)
(2.797937689 -0.3993232499 0)
(2.810248995 -0.3804766237 0)
(2.834243503 -0.3390795758 0)
(2.849707954 -0.3045761362 0)
(2.857560503 -0.2946536016 0)
(2.877778747 -0.2616541569 0)
(2.895109807 -0.2169160166 0)
(2.900116676 -0.2056203422 0)
(2.909742892 -0.1869880734 0)
(2.929280716 -0.1407855 0)
(2.936670836 -0.1190945767 0)
(2.937954193 -0.1164517921 0)
(2.953093949 -0.08533152196 0)
(2.964636798 -0.04707289853 0)
(2.968825232 -0.04236666864 0)
(3 3.503029728e-15 0)
(2.999999999 -3.766851741e-09 0)
(2.999999889 -2.968319429e-07 0)
(2.99997684 -5.717741083e-05 0)
(2.999533052 -0.001251446228 0)
(2.991599502 -0.02006946001 0)
(2.94919455 -0.1163049579 0)
(2.851073858 -0.3210245905 0)
(2.787341761 -0.4781287108 0)
(2.757275088 -0.4613005267 0)
(2.753096102 -0.4682464491 0)
(2.756425704 -0.4765706255 0)
(2.756591996 -0.486607082 0)
(2.74943482 -0.4894628519 0)
(2.744699156 -0.4857718444 0)
(2.745178275 -0.4824168954 0)
(2.746173058 -0.4799668945 0)
(2.749659359 -0.4755980526 0)
(2.756970349 -0.4661447385 0)
(2.766733209 -0.4521632514 0)
(2.779121728 -0.4344577577 0)
(2.796752749 -0.4044218863 0)
(2.809578423 -0.380144338 0)
(2.822596132 -0.3602762913 0)
(2.847560529 -0.3158703311 0)
(2.861690116 -0.282740414 0)
(2.868375774 -0.273859153 0)
(2.889526896 -0.2381600173 0)
(2.907085714 -0.1911170256 0)
(2.912038495 -0.1807803495 0)
(2.920244117 -0.1648372788 0)
(2.938886929 -0.1198062241 0)
(2.946041419 -0.09821541243 0)
(2.947621217 -0.09450637221 0)
(2.963044676 -0.0623810344 0)
(2.974070725 -0.02387959836 0)
(2.97797337 -0.01923757774 0)
(3 -1.499479817e-14 0)
(2.999999931 -1.874536848e-07 0)
(2.999996528 -9.074337067e-06 0)
(2.999703068 -0.0007250785896 0)
(2.995694312 -0.01101521175 0)
(2.963039427 -0.08920713654 0)
(2.869911845 -0.2659689081 0)
(2.809232404 -0.4064614681 0)
(2.76480957 -0.5050271614 0)
(2.74098661 -0.4907425126 0)
(2.74182676 -0.4766203609 0)
(2.749522778 -0.4784280386 0)
(2.751074453 -0.4815574917 0)
(2.750446189 -0.4857797045 0)
(2.746323465 -0.4863557565 0)
(2.74652176 -0.4834969584 0)
(2.748293468 -0.4782842566 0)
(2.752692935 -0.4706169433 0)
(2.762291207 -0.4569693642 0)
(2.774147096 -0.4399012301 0)
(2.788694649 -0.4195018194 0)
(2.809190998 -0.3839215566 0)
(2.822585233 -0.3584835324 0)
(2.834847781 -0.3403963115 0)
(2.860439967 -0.2940089064 0)
(2.87490386 -0.2583553425 0)
(2.881060083 -0.2496350266 0)
(2.901082784 -0.214528935 0)
(2.918035246 -0.1674196646 0)
(2.923190704 -0.1571059021 0)
(2.931184373 -0.1413463511 0)
(2.950055475 -0.09528342744 0)
(2.957289185 -0.07225217776 0)
(2.958218717 -0.07107011651 0)
(2.971567121 -0.04243081489 0)
(2.982358064 -0.003689487115 0)
(2.986161697 0.001775645755 0)
(3 -4.497565767e-12 0)
(2.999997832 -5.727457908e-06 0)
(2.999931264 -0.0001780395927 0)
(2.997235243 -0.006707461878 0)
(2.974844586 -0.0589154183 0)
(2.903629319 -0.2293392543 0)
(2.807774247 -0.4033894711 0)
(2.775596074 -0.4631410478 0)
(2.749484559 -0.4735589258 0)
(2.744714397 -0.4845974956 0)
(2.746332085 -0.4816234587 0)
(2.748182036 -0.4804988938 0)
(2.749031743 -0.481714884 0)
(2.748561688 -0.4833103843 0)
(2.747115092 -0.4839428211 0)
(2.747751968 -0.4809554279 0)
(2.751061087 -0.4743609257 0)
(2.758122666 -0.4635018552 0)
(2.770650971 -0.4449177686 0)
(2.783920547 -0.4248354743 0)
(2.80045699 -0.401093598 0)
(2.822592345 -0.3611049331 0)
(2.835535306 -0.3363989782 0)
(2.848279772 -0.3174146814 0)
(2.874597138 -0.2682815124 0)
(2.887662356 -0.233854762 0)
(2.893004476 -0.2256826356 0)
(2.913600979 -0.1885714152 0)
(2.930435144 -0.1400866649 0)
(2.93539252 -0.1307445624 0)
(2.942083909 -0.1174004441 0)
(2.959832606 -0.07323792334 0)
(2.966608025 -0.05108231987 0)
(2.96768977 -0.04911097749 0)
(2.981169366 -0.01956765731 0)
(2.991512808 0.01952598933 0)
(2.995214504 0.02540816141 0)
(3 -1.086216695e-09 0)
(2.999957132 -0.0001085461017 0)
(2.9991108 -0.002405968194 0)
(2.9837362 -0.03727410721 0)
(2.912226962 -0.1953576002 0)
(2.84174027 -0.3508790911 0)
(2.765742553 -0.4871702457 0)
(2.753279321 -0.4904529306 0)
(2.742084009 -0.4784759792 0)
(2.742189067 -0.4777566276 0)
(2.744837345 -0.4794654695 0)
(2.747098791 -0.480816134 0)
(2.747276704 -0.4824510032 0)
(2.747054603 -0.4827311639 0)
(2.747421271 -0.4816340589 0)
(2.750000572 -0.4770040268 0)
(2.755343042 -0.4682583689 0)
(2.765179262 -0.4543816595 0)
(2.780858151 -0.4304549043 0)
(2.795213188 -0.40764557 0)
(2.812876405 -0.3813942693 0)
(2.836593122 -0.3365112185 0)
(2.849151791 -0.3118709943 0)
(2.860618113 -0.2945673775 0)
(2.887550683 -0.2430337183 0)
(2.901310917 -0.2055130472 0)
(2.90641885 -0.1983178777 0)
(2.92512965 -0.1636432639 0)
(2.941149297 -0.116302852 0)
(2.945819958 -0.1075349445 0)
(2.952046525 -0.09433382727 0)
(2.970604235 -0.04848105866 0)
(2.977877106 -0.02347760378 0)
(2.978898858 -0.02267855353 0)
(2.990439645 0.004082452788 0)
(3.000310393 0.0431848309 0)
(3.003780653 0.0495686061 0)
(2.999999919 -1.842211317e-07 0)
(2.999416504 -0.00138000917 0)
(2.99334911 -0.01938830867 0)
(2.936102567 -0.1382789011 0)
(2.8428371 -0.3455205584 0)
(2.779988493 -0.4363733537 0)
(2.758146908 -0.4891098763 0)
(2.750604026 -0.4952149332 0)
(2.74120901 -0.4887105179 0)
(2.737285094 -0.482329362 0)
(2.741993141 -0.4808133128 0)
(2.744357199 -0.4808916209 0)
(2.746012324 -0.481891488 0)
(2.746729735 -0.4820579458 0)
(2.7486287 -0.4792462674 0)
(2.753067939 -0.4719746246 0)
(2.761091669 -0.4601616995 0)
(2.774211342 -0.4423466866 0)
(2.792620684 -0.4130004118 0)
(2.807283357 -0.3887557796 0)
(2.826137834 -0.3597865138 0)
(2.850635062 -0.3109765429 0)
(2.862504338 -0.2867738903 0)
(2.874576704 -0.2675906357 0)
(2.901146213 -0.2144456896 0)
(2.913333539 -0.1796772543 0)
(2.91757035 -0.1744020538 0)
(2.936522224 -0.1386607041 0)
(2.952871678 -0.0894211761 0)
(2.957622337 -0.07981669595 0)
(2.963555055 -0.06705700777 0)
(2.980559984 -0.02340633238 0)
(2.986995209 -0.0003268127342 0)
(2.987667307 -0.0006403306093 0)
(2.99834845 0.02502731572 0)
(3.007427269 0.06293509027 0)
(3.010507187 0.0690207952 0)
(2.999993062 -1.647992625e-05 0)
(2.99445995 -0.01229869502 0)
(2.969265022 -0.08472895414 0)
(2.848267228 -0.3282010174 0)
(2.800208125 -0.4234085455 0)
(2.758614598 -0.4519698117 0)
(2.751806729 -0.4721679481 0)
(2.744318049 -0.4864187707 0)
(2.741774697 -0.4904863908 0)
(2.740210362 -0.488198908 0)
(2.740569139 -0.4840520096 0)
(2.744211308 -0.4820128358 0)
(2.745827613 -0.4815878457 0)
(2.74751745 -0.4806504947 0)
(2.750962853 -0.4762633203 0)
(2.758253385 -0.4654390537 0)
(2.769105448 -0.4497259264 0)
(2.78524388 -0.4271669736 0)
(2.805822819 -0.3920508822 0)
(2.82020531 -0.3672742711 0)
(2.839620656 -0.3365069052 0)
(2.865032479 -0.2834971416 0)
(2.876268181 -0.2599216634 0)
(2.886724816 -0.2430194007 0)
(2.913496093 -0.188259917 0)
(2.926377846 -0.1504680714 0)
(2.930462124 -0.1461742286 0)
(2.947675991 -0.1129760657 0)
(2.963146558 -0.06468158806 0)
(2.967512183 -0.05576008321 0)
(2.972529431 -0.04427527762 0)
(2.990118173 0.0007996394257 0)
(2.99706596 0.02705954505 0)
(2.99776924 0.02730029783 0)
(3.007701688 0.05263282064 0)
(3.017121924 0.09210873942 0)
(3.020405843 0.1003113313 0)
(2.999720955 -0.000771252899 0)
(2.968668575 -0.06600169512 0)
(2.895305701 -0.2235165376 0)
(2.786997031 -0.4511250235 0)
(2.746048998 -0.4979903629 0)
(2.740319498 -0.4781704648 0)
(2.742430299 -0.4786083213 0)
(2.742248657 -0.4807878299 0)
(2.742507034 -0.4857553203 0)
(2.742335361 -0.4875230759 0)
(2.742864557 -0.4865658537 0)
(2.745467851 -0.483566164 0)
(2.746815025 -0.4817942658 0)
(2.749905043 -0.4781448862 0)
(2.755565656 -0.4702984149 0)
(2.765690072 -0.4549843874 0)
(2.77870163 -0.4360013345 0)
(2.7976826 -0.4085860296 0)
(2.819759344 -0.3682774811 0)
(2.833386826 -0.3439132609 0)
(2.853374057 -0.3112044727 0)
(2.879047395 -0.2552238071 0)
(2.889994437 -0.2319798323 0)
(2.90104685 -0.2134008075 0)
(2.926738611 -0.1583271723 0)
(2.937897854 -0.1241614371 0)
(2.940910874 -0.1218273899 0)
(2.95815471 -0.08782512552 0)
(2.973918319 -0.03767389376 0)
(2.978700231 -0.02698406027 0)
(2.984069913 -0.0151461985 0)
(2.999618962 0.02720594462 0)
(3.005433527 0.05052621572 0)
(3.005467259 0.04808443856 0)
(3.013640384 0.07015696977 0)
(3.022097608 0.1076180704 0)
(3.024800802 0.1151046174 0)
(2.995704817 -0.01468122558 0)
(2.90346168 -0.205422435 0)
(2.804306149 -0.379787779 0)
(2.763946144 -0.4561287782 0)
(2.747307969 -0.4811208269 0)
(2.747552506 -0.4865753729 0)
(2.745256984 -0.4838025793 0)
(2.74282811 -0.4829541961 0)
(2.74293761 -0.4838379023 0)
(2.743615619 -0.4843922607 0)
(2.744812593 -0.4852485033 0)
(2.74675551 -0.4842633633 0)
(2.749428519 -0.480904066 0)
(2.753726854 -0.4742556394 0)
(2.761642852 -0.4619436342 0)
(2.77494125 -0.4407985155 0)
(2.789831059 -0.4187811854 0)
(2.81124393 -0.386985992 0)
(2.834499365 -0.341923873 0)
(2.847391913 -0.3178602697 0)
(2.867989982 -0.2827866789 0)
(2.8937357 -0.2237549378 0)
(2.903910064 -0.2024445039 0)
(2.912675018 -0.187858142 0)
(2.93841654 -0.1318682667 0)
(2.950278217 -0.09391888697 0)
(2.953577609 -0.09089805035 0)
(2.969628049 -0.05822786347 0)
(2.984228036 -0.008951705461 0)
(2.988763361 0.0003863848137 0)
(2.992831335 0.009760157621 0)
(3.008663123 0.05325969087 0)
(3.014866419 0.07989341441 0)
(3.015179948 0.07977952764 0)
(3.023740231 0.1033576301 0)
(3.032757117 0.1422873579 0)
(3.035867237 0.1513205934 0)
(2.969409097 -0.104182549 0)
(2.81780973 -0.3965065782 0)
(2.77619306 -0.4646909427 0)
(2.753262839 -0.4666705177 0)
(2.748181493 -0.4730868507 0)
(2.746918401 -0.4776047333 0)
(2.746932071 -0.4849818833 0)
(2.745897623 -0.4855648096 0)
(2.744297035 -0.4855350705 0)
(2.745165997 -0.4851812443 0)
(2.745741875 -0.485274184 0)
(2.747688936 -0.4842832266 0)
(2.751570787 -0.4793975 0)
(2.758063605 -0.4690170637 0)
(2.769336132 -0.4510323636 0)
(2.785762131 -0.4236075348 0)
(2.802125765 -0.3987381962 0)
(2.82625902 -0.3615234197 0)
(2.850123835 -0.3125258862 0)
(2.861823243 -0.2901798166 0)
(2.882257138 -0.2541693968 0)
(2.907578282 -0.1934824262 0)
(2.917650562 -0.1721157251 0)
(2.927135952 -0.1551889951 0)
(2.951572384 -0.09909758914 0)
(2.961592 -0.06464467286 0)
(2.963982302 -0.06349111182 0)
(2.979349792 -0.03156831646 0)
(2.993308406 0.01709319504 0)
(2.997900632 0.02660245405 0)
(3.001766519 0.03500790965 0)
(3.015566529 0.07528369138 0)
(3.020735001 0.09930825087 0)
(3.020391961 0.09713115296 0)
(3.027688219 0.1179467078 0)
(3.036391808 0.1557622165 0)
(3.039403811 0.1646901386 0)
(2.888938643 -0.2732111547 0)
(2.756609597 -0.4970153959 0)
(2.753085964 -0.5084777048 0)
(2.746643224 -0.4928518491 0)
(2.743481083 -0.4804381186 0)
(2.745821376 -0.4799073063 0)
(2.747363089 -0.4818445507 0)
(2.747778663 -0.4853209558 0)
(2.747445423 -0.4864472832 0)
(2.747075546 -0.4861422777 0)
(2.747476153 -0.4851954596 0)
(2.749719839 -0.4823005883 0)
(2.754957816 -0.4742714951 0)
(2.763721784 -0.4602435153 0)
(2.778879908 -0.4363944908 0)
(2.798685921 -0.4021325164 0)
(2.8157698 -0.3756599051 0)
(2.841518854 -0.3344382021 0)
(2.865830627 -0.2817866674 0)
(2.876935351 -0.2601575149 0)
(2.897912769 -0.2219640841 0)
(2.922794132 -0.1589387225 0)
(2.931893669 -0.1398124544 0)
(2.938508105 -0.1279406429 0)
(2.96246247 -0.07187214618 0)
(2.97299237 -0.03392237985 0)
(2.975735011 -0.03172047758 0)
(2.990665586 0.0004257135856 0)
(3.00424108 0.04991981429 0)
(3.008558131 0.06004574858 0)
(3.011606761 0.06862775592 0)
(3.025654207 0.1103773589 0)
(3.031361781 0.1371782496 0)
(3.031777123 0.1365872528 0)
(3.039052184 0.1576857246 0)
(3.047006066 0.1947914776 0)
(3.049883646 0.2030051741 0)
(2.80383426 -0.4042044721 0)
(2.759607465 -0.4641869928 0)
(2.752959481 -0.4857951332 0)
(2.751621032 -0.491714623 0)
(2.747545872 -0.4875173416 0)
(2.747324337 -0.4823719804 0)
(2.748608354 -0.4830664231 0)
(2.74902126 -0.4841118791 0)
(2.749006842 -0.4851939745 0)
(2.748393828 -0.4858583858 0)
(2.749019479 -0.4843065205 0)
(2.752168088 -0.4788070944 0)
(2.759741413 -0.4662249712 0)
(2.771817826 -0.4471470154 0)
(2.791244157 -0.4167629727 0)
(2.813017921 -0.3777412138 0)
(2.830646755 -0.349654347 0)
(2.858839771 -0.3023417621 0)
(2.882662965 -0.2472281307 0)
(2.892379465 -0.2286965901 0)
(2.912262527 -0.1915875903 0)
(2.93621604 -0.1284612078 0)
(2.945126029 -0.1086677684 0)
(2.952822688 -0.09316497919 0)
(2.975554734 -0.03674862402 0)
(2.984425028 -0.002025308426 0)
(2.986703711 -0.002030335248 0)
(2.999792036 0.02690490449 0)
(3.011392564 0.07252061737 0)
(3.01500181 0.08032019572 0)
(3.016559416 0.08572671283 0)
(3.029459419 0.1251421485 0)
(3.03457317 0.1512561572 0)
(3.034780266 0.1500916682 0)
(3.041652627 0.169886344 0)
(3.049886079 0.206913623 0)
(3.052894349 0.2157052083 0)
(2.753410648 -0.4884065944 0)
(2.750155892 -0.4807837377 0)
(2.750282164 -0.4843689317 0)
(2.750072103 -0.4866852618 0)
(2.7496919 -0.4862067445 0)
(2.749750266 -0.4847537365 0)
(2.750636761 -0.4838147489 0)
(2.749599222 -0.4841010676 0)
(2.74935206 -0.4843593089 0)
(2.749435015 -0.4840326948 0)
(2.750720286 -0.4813345985 0)
(2.755977157 -0.4724263242 0)
(2.767012843 -0.4542417569 0)
(2.782038849 -0.4309895192 0)
(2.805884504 -0.393058402 0)
(2.8299901 -0.3474889148 0)
(2.846871613 -0.3200333074 0)
(2.875336913 -0.2700172725 0)
(2.898715207 -0.2128237122 0)
(2.907929532 -0.1953957542 0)
(2.928189195 -0.1564534648 0)
(2.951630471 -0.09102557947 0)
(2.959637949 -0.07302724315 0)
(2.964581652 -0.06281619053 0)
(2.986346718 -0.007323518463 0)
(2.995473413 0.02965268533 0)
(2.997686131 0.03110086215 0)
(3.010900414 0.0623288157 0)
(3.023154719 0.11112916 0)
(3.027219793 0.1218330617 0)
(3.029274815 0.1288040019 0)
(3.041908527 0.1685048253 0)
(3.046754644 0.1949931782 0)
(3.047145672 0.1938305609 0)
(3.053189563 0.2126635127 0)
(3.059850224 0.2476783799 0)
(3.062412566 0.2547707848 0)
(2.753016096 -0.4783357229 0)
(2.750522988 -0.4821027899 0)
(2.749391242 -0.4827524018 0)
(2.749082558 -0.4836556236 0)
(2.749398739 -0.4846560842 0)
(2.7503969 -0.4849122082 0)
(2.750872649 -0.4851723021 0)
(2.749924395 -0.4841731937 0)
(2.749951013 -0.4834063636 0)
(2.750758243 -0.4813567783 0)
(2.754088793 -0.4755002096 0)
(2.762523048 -0.4618165497 0)
(2.777151008 -0.437634563 0)
(2.795665392 -0.4089113868 0)
(2.822930765 -0.3639935205 0)
(2.846620269 -0.3164241431 0)
(2.863327451 -0.2880182522 0)
(2.893761644 -0.2319408681 0)
(2.916011039 -0.1735282001 0)
(2.924068952 -0.1590572145 0)
(2.942569861 -0.1224820168 0)
(2.964216315 -0.05922518905 0)
(2.971677603 -0.04166771535 0)
(2.977548435 -0.02855070728 0)
(2.997771511 0.0260513854 0)
(3.005372884 0.05936779631 0)
(3.00694095 0.0577445707 0)
(3.017425407 0.08407727017 0)
(3.027933688 0.129314049 0)
(3.031375794 0.1380440369 0)
(3.032538456 0.1427123862 0)
(3.044976081 0.1810307927 0)
(3.049704476 0.2076512071 0)
(3.050145408 0.2063224288 0)
(3.055921189 0.22442385 0)
(3.062797563 0.2596748262 0)
(3.065319891 0.2676592014 0)
(2.749191155 -0.4830278937 0)
(2.748307554 -0.4816151705 0)
(2.748351406 -0.4815318487 0)
(2.748470228 -0.4819692597 0)
(2.74880181 -0.4832396424 0)
(2.750054299 -0.4845084306 0)
(2.750414231 -0.4862078929 0)
(2.750117099 -0.4857707972 0)
(2.750540542 -0.4839133472 0)
(2.752929526 -0.4784144619 0)
(2.758992785 -0.4675120506 0)
(2.771984389 -0.4461148111 0)
(2.790370545 -0.4147456915 0)
(2.810189325 -0.3840113891 0)
(2.841246241 -0.3307467344 0)
(2.865999755 -0.2779194981 0)
(2.880967577 -0.252280624 0)
(2.910423952 -0.1953962576 0)
(2.93153197 -0.1364503751 0)
(2.938791173 -0.1238417384 0)
(2.957205579 -0.08603402789 0)
(2.978865135 -0.01949692832 0)
(2.985935379 -0.002265252922 0)
(2.989925083 0.008493178106 0)
(3.00981164 0.06374279718 0)
(3.017622053 0.100389462 0)
(3.019501206 0.1018006316 0)
(3.030387298 0.1305063232 0)
(3.040835009 0.1768091506 0)
(3.044684957 0.1858719156 0)
(3.045967925 0.1900002877 0)
(3.057157531 0.2267314769 0)
(3.060964272 0.2514859325 0)
(3.061223259 0.2490963725 0)
(3.066028145 0.2658249624 0)
(3.071549496 0.2990844452 0)
(3.073664077 0.3058373738 0)
(2.747626333 -0.4862232427 0)
(2.747935945 -0.4836133406 0)
(2.748115151 -0.4818513414 0)
(2.747824688 -0.4821937307 0)
(2.748128875 -0.4825202417 0)
(2.748935314 -0.4835868142 0)
(2.749830531 -0.4857532619 0)
(2.749996867 -0.4862847959 0)
(2.751690906 -0.482813551 0)
(2.756469577 -0.4733351624 0)
(2.766206264 -0.4559602378 0)
(2.783833653 -0.4258843133 0)
(2.805748174 -0.3868770102 0)
(2.828767642 -0.3503967664 0)
(2.861206678 -0.2917143311 0)
(2.883509403 -0.241661813 0)
(2.897970144 -0.2161117681 0)
(2.92882623 -0.1538237913 0)
(2.948670761 -0.09402606006 0)
(2.955222809 -0.08308899068 0)
(2.971953144 -0.047631186 0)
(2.99040774 0.01384863014 0)
(2.99642316 0.02770341336 0)
(2.999349602 0.0359130938 0)
(3.016609828 0.08741787123 0)
(3.023058355 0.1208566038 0)
(3.023815978 0.1197886538 0)
(3.033314607 0.1458759479 0)
(3.043567783 0.1914175276 0)
(3.047557014 0.2004400367 0)
(3.048805684 0.2039980883 0)
(3.060315715 0.2401134884 0)
(3.064187844 0.2652901166 0)
(3.064624846 0.2631388858 0)
(3.069044864 0.2790933863 0)
(3.074579137 0.3122553839 0)
(3.076595877 0.3197883284 0)
(2.749449631 -0.4856132328 0)
(2.749254595 -0.4854966236 0)
(2.748566996 -0.484788371 0)
(2.747762042 -0.4835434351 0)
(2.74794196 -0.4833549787 0)
(2.748339096 -0.4835174462 0)
(2.749317245 -0.4845288627 0)
(2.750423998 -0.4843996214 0)
(2.753904842 -0.47900073 0)
(2.762108051 -0.464632421 0)
(2.776100769 -0.440418553 0)
(2.799818737 -0.3987939677 0)
(2.823826812 -0.3534903936 0)
(2.846219674 -0.3171136984 0)
(2.88160068 -0.2497187036 0)
(2.904464602 -0.196047564 0)
(2.917001584 -0.1748493929 0)
(2.945976851 -0.113483502 0)
(2.963979348 -0.05474749007 0)
(2.969192241 -0.04713139733 0)
(2.985332028 -0.01035153716 0)
(3.004808632 0.0566356954 0)
(3.01090621 0.0745697605 0)
(3.014258914 0.08624232885 0)
(3.031753882 0.1395277024 0)
(3.038478516 0.1750507308 0)
(3.039729873 0.1751521403 0)
(3.048488202 0.2011134937 0)
(3.056700516 0.2445719345 0)
(3.060201959 0.2513948423 0)
(3.060936575 0.2527850867 0)
(3.070680432 0.2861576602 0)
(3.073641264 0.3084854145 0)
(3.073879201 0.3051724659 0)
(3.077644946 0.3199698812 0)
(3.082132185 0.3512340763 0)
(3.083921339 0.3576791974 0)
(2.748715596 -0.4835261102 0)
(2.748780756 -0.4846541871 0)
(2.748360931 -0.4850675041 0)
(2.748074261 -0.4849035129 0)
(2.747777107 -0.4840845898 0)
(2.747974043 -0.4838015736 0)
(2.748707019 -0.4836316959 0)
(2.751335189 -0.4810127333 0)
(2.758116935 -0.4712462937 0)
(2.77109037 -0.4498370396 0)
(2.789918965 -0.4183373793 0)
(2.817881866 -0.3679803366 0)
(2.843857555 -0.3164486921 0)
(2.868498311 -0.2739937315 0)
(2.902769591 -0.203388374 0)
(2.922389991 -0.1554876949 0)
(2.934112239 -0.1354904645 0)
(2.963676923 -0.07036365448 0)
(2.980282855 -0.01174059515 0)
(2.985276119 -0.004699868978 0)
(2.999109642 0.02853593629 0)
(3.013765106 0.08729137429 0)
(3.018363778 0.09940286817 0)
(3.019606613 0.1056003042 0)
(3.035817439 0.1558260525 0)
(3.041946001 0.190216531 0)
(3.042800271 0.1890009498 0)
(3.051187111 0.2139290487 0)
(3.059671227 0.2579144446 0)
(3.06315904 0.2657217095 0)
(3.063846058 0.2676202747 0)
(3.073753771 0.3005880994 0)
(3.076816133 0.3232705975 0)
(3.07715183 0.3202822783 0)
(3.080553627 0.3343846601 0)
(3.084992332 0.3651653673 0)
(3.086677147 0.3721703135 0)
(2.748117786 -0.4834053162 0)
(2.74813402 -0.4837609863 0)
(2.748103718 -0.484464438 0)
(2.747900139 -0.4845935712 0)
(2.747677807 -0.4846270729 0)
(2.747819434 -0.4841264604 0)
(2.749127206 -0.4820713468 0)
(2.753714835 -0.4756511354 0)
(2.76502293 -0.4587203537 0)
(2.783035493 -0.4292286029 0)
(2.806877706 -0.390120617 0)
(2.840913256 -0.3270775997 0)
(2.865875756 -0.2749644986 0)
(2.887776925 -0.2355807937 0)
(2.923965112 -0.156155735 0)
(2.943763865 -0.1046040916 0)
(2.953918472 -0.08830762757 0)
(2.981559698 -0.0233621666 0)
(2.996436028 0.03442242574 0)
(2.999675209 0.04121488749 0)
(3.013762191 0.0791265011 0)
(3.029773133 0.1437453557 0)
(3.035650666 0.1596901285 0)
(3.038157102 0.1672897584 0)
(3.053025663 0.2164391483 0)
(3.057916215 0.2486741816 0)
(3.058489614 0.2460108855 0)
(3.065401567 0.2690970793 0)
(3.071407686 0.309712051 0)
(3.074109405 0.3152449744 0)
(3.074164883 0.3154187075 0)
(3.082625267 0.3458316165 0)
(3.085047678 0.3661332104 0)
(3.085407707 0.3624567307 0)
(3.088374416 0.3754968788 0)
(3.091900335 0.4043868211 0)
(3.09332939 0.4104335737 0)
(2.748009838 -0.4842482896 0)
(2.747590936 -0.4840254461 0)
(2.747373163 -0.4840792872 0)
(2.747225745 -0.4842270691 0)
(2.747234522 -0.4841899785 0)
(2.747875118 -0.4831441943 0)
(2.75077116 -0.4786961873 0)
(2.758869159 -0.4666710353 0)
(2.776037521 -0.4399885609 0)
(2.800121567 -0.3997506567 0)
(2.82804249 -0.3539679579 0)
(2.864039379 -0.284331113 0)
(2.889639376 -0.2284682443 0)
(2.913000855 -0.1835711026 0)
(2.94615979 -0.1034020193 0)
(2.961995781 -0.05969120446 0)
(2.970853904 -0.04564699525 0)
(2.995836702 0.0175593094 0)
(3.007845558 0.07000791156 0)
(3.009595598 0.07161407284 0)
(3.0202828 0.1035458984 0)
(3.034361759 0.1645115579 0)
(3.039530828 0.1782322637 0)
(3.041383274 0.1838154957 0)
(3.056595311 0.2318021043 0)
(3.061679891 0.2641707369 0)
(3.062511607 0.2614981281 0)
(3.069262809 0.2840634731 0)
(3.075237007 0.3244837756 0)
(3.077777232 0.3307338646 0)
(3.077484129 0.331141934 0)
(3.085833672 0.3611838467 0)
(3.088128316 0.3818111064 0)
(3.088512046 0.3785748382 0)
(3.091202786 0.3909054724 0)
(3.094656395 0.419099515 0)
(3.095938461 0.4253363334 0)
(2.747715171 -0.4847154703 0)
(2.747308152 -0.4845591058 0)
(2.746851395 -0.4843700927 0)
(2.746759454 -0.484210537 0)
(2.747004869 -0.4836553466 0)
(2.748685673 -0.4810997745 0)
(2.754556307 -0.4723281794 0)
(2.76812344 -0.4520336259 0)
(2.792584262 -0.4127483134 0)
(2.820677897 -0.364156419 0)
(2.852578525 -0.3103729702 0)
(2.892335551 -0.2282943711 0)
(2.914139338 -0.178185531 0)
(2.933153061 -0.14016876 0)
(2.967300846 -0.0525999808 0)
(2.982958771 -0.005367641017 0)
(2.990465966 0.01112385199 0)
(3.015465107 0.07981756643 0)
(3.027191695 0.1367162239 0)
(3.029864703 0.1418819845 0)
(3.040999869 0.1759917362 0)
(3.053231205 0.2360397875 0)
(3.05792014 0.2475097034 0)
(3.059303238 0.2507131624 0)
(3.071491404 0.2947954014 0)
(3.074915321 0.3219234027 0)
(3.075290145 0.3166216717 0)
(3.08075442 0.337001854 0)
(3.085012219 0.3743673469 0)
(3.087108323 0.3791193179 0)
(3.086517665 0.3784364321 0)
(3.093672761 0.4062142354 0)
(3.095367603 0.424585346 0)
(3.095797751 0.4206198438 0)
(3.098178607 0.4319393908 0)
(3.100807404 0.4582239902 0)
(3.101808149 0.4635868232 0)
(2.747344306 -0.4841354975 0)
(2.746885935 -0.4844981181 0)
(2.746600112 -0.4844678315 0)
(2.746695892 -0.4841199658 0)
(2.747537224 -0.4827991265 0)
(2.751369415 -0.4771116696 0)
(2.762058982 -0.4610392076 0)
(2.782411105 -0.4301026691 0)
(2.81455357 -0.3761993806 0)
(2.846678001 -0.317862595 0)
(2.879131501 -0.2611231943 0)
(2.917881263 -0.1745640112 0)
(2.939225596 -0.1230533662 0)
(2.960194945 -0.0787452821 0)
(2.989186179 0.005860915805 0)
(3.000080826 0.04149540036 0)
(3.003577896 0.04820628745 0)
(3.022717528 0.1084339342 0)
(3.032073296 0.1593250797 0)
(3.033726114 0.1594886402 0)
(3.044015802 0.1907303587 0)
(3.056876267 0.2510027261 0)
(3.061556617 0.2628452545 0)
(3.062710508 0.2670532858 0)
(3.075561039 0.3112615088 0)
(3.07906117 0.3392538011 0)
(3.079717006 0.3347139101 0)
(3.084733725 0.354191076 0)
(3.088791614 0.3906651817 0)
(3.090687846 0.395679627 0)
(3.089710693 0.3952304918 0)
(3.096737399 0.42263347 0)
(3.098277575 0.441100366 0)
(3.098767007 0.4377193092 0)
(3.101014771 0.4484568253 0)
(3.103481297 0.4736576543 0)
(3.104322038 0.4790058881 0)
(2.74659934 -0.4839807258 0)
(2.74643137 -0.4841875554 0)
(2.746573421 -0.4843745965 0)
(2.747165118 -0.4838317597 0)
(2.749454087 -0.4807870683 0)
(2.757328942 -0.469279484 0)
(2.77488084 -0.4422843376 0)
(2.802999939 -0.3982195494 0)
(2.841572427 -0.3292914356 0)
(2.874169129 -0.266676065 0)
(2.9091114 -0.2017183238 0)