/*--------------------------------*- C++ -*----------------------------------*\
  =========                 |
  \\      /  F ield         | OpenFOAM: The Open Source CFD Toolbox
   \\    /   O peration     | Website:  https://openfoam.org
    \\  /    A nd           | Version:  7
     \\/     M anipulation  |
\*---------------------------------------------------------------------------*/
FoamFile
{
    version     2.0;
    format      ascii;
    class       volVectorField;
    location    "4.3";
    object      U;
}
// * * * * * * * * * * * * * * * * * * * * * * * * * * * * * * * * * * * * * //

dimensions      [0 1 -1 0 0 0 0];

internalField   nonuniform List<vector> 
139
(
(3.023118907 0.04366518029 0)
(3.009965166 0.01583553305 0)
(3.004135793 0.009231102089 0)
(3.00231192 0.006834340933 0)
(3.002223982 0.004084620264 0)
(3.033763818 0.09762291132 0)
(3.028934958 0.06280174672 0)
(3.014115187 -0.000737558566 0)
(2.999908894 0.002381358794 0)
(2.99851278 0.003194973889 0)
(2.999961218 0.005050289634 0)
(3.002547591 0.006190060454 0)
(3.003813018 0.004762038902 0)
(3.019014181 0.01722826342 0)
(3.015183728 0.01524714434 0)
(3.013424086 0.007153894421 0)
(3.009481345 0.001433940246 0)
(3.004436963 0.002206667789 0)
(3.00332183 0.003995395709 0)
(3.004699757 0.005698118296 0)
(3.006222905 0.004398932948 0)
(3.013908645 0.005699414917 0)
(3.011982098 0.005460594966 0)
(3.011063488 0.004918473284 0)
(3.010758292 0.003516550387 0)
(3.008207395 0.004088084757 0)
(3.00593559 0.003853440086 0)
(3.005481681 0.002333148042 0)
(3.005520001 0.0007165175978 0)
(2.99914486 0.002065109549 0)
(3.00063366 0.003861096607 0)
(3.001252019 0.00544919053 0)
(3.000501195 0.005762704816 0)
(2.999234992 0.005509243216 0)
(2.997566905 0.004809449757 0)
(2.995871089 0.002844065392 0)
(2.994502263 0.0004488306937 0)
(2.97263953 0.001749455296 0)
(2.972181462 0.0052412145 0)
(2.972094521 0.006064259696 0)
(2.971363281 0.006056757057 0)
(2.970434784 0.005188535619 0)
(2.969722799 0.003170687316 0)
(2.969320255 -0.0004872553979 0)
(2.968486946 -0.002237348439 0)
(2.921956095 0.007775102087 0)
(2.92118382 0.006655361219 0)
(2.921860052 0.00415929776 0)
(2.922820524 0.001634631119 0)
(2.923084404 0.0005433245299 0)
(2.922903233 -0.0008173886795 0)
(2.922834047 -0.001135884017 0)
(2.922431134 -0.0007780313709 0)
(2.857731848 0.005543674725 0)
(2.860377758 0.003859311797 0)
(2.862033828 0.001076256225 0)
(2.863523581 -8.999976777e-05 0)
(2.864570491 4.775031663e-05 0)
(2.865444869 0.001401615378 0)
(2.866727337 0.003298236818 0)
(2.868730722 0.003996280089 0)
(2.824673991 0.002283339218 0)
(2.83025102 0.003401351057 0)
(2.832403098 0.002286205133 0)
(2.83356291 0.0009915558535 0)
(2.834620106 0.0002586631173 0)
(2.83608311 -0.001486639664 0)
(2.839856389 -0.002069505121 0)
(2.843736575 -0.001059368947 0)
(2.821564396 -0.001530789557 0)
(2.826107304 -0.001734213337 0)
(2.828858777 -0.001652626055 0)
(2.830878636 -0.001911612661 0)
(2.832743707 -0.001598683924 0)
(2.834468379 -0.001132357208 0)
(2.837886297 -0.0009577977455 0)
(2.842110066 -4.674161389e-05 0)
(2.820333054 -0.001799253113 0)
(2.825219831 -0.002943116911 0)
(2.828207673 -0.003237584375 0)
(2.830777203 -0.003139071888 0)
(2.832974676 -0.001888877328 0)
(2.835116798 0.0007031407277 0)
(2.838784734 0.001876296282 0)
(2.843531307 0.00274015859 0)
(2.824149018 0.001567851386 0)
(2.829211868 -0.0008765994335 0)
(2.832065501 -0.002528470529 0)
(2.834544627 -0.002434211877 0)
(2.836900941 -0.0003764722062 0)
(2.839318982 0.002690041659 0)
(2.843856515 0.004125518743 0)
(2.848974517 0.004822624875 0)
(2.83338354 0.004762298182 0)
(2.837602696 0.002542881595 0)
(2.839787953 0.001027139854 0)
(2.841670599 0.0009001183885 0)
(2.843020614 0.002037912231 0)
(2.845400429 0.0027411497 0)
(2.850230972 0.003647378617 0)
(2.855582857 0.004105110593 0)
(2.845231046 0.005381540754 0)
(2.849035861 0.004921298495 0)
(2.851094062 0.003522632765 0)
(2.852703342 0.002494680189 0)
(2.853768016 0.001873483234 0)
(2.855262207 -0.0001852623437 0)
(2.859703775 -0.0003946319351 0)
(2.865370942 -1.544892172e-05 0)
(2.864021543 -0.0003917496475 0)
(2.866082949 0.001178765487 0)
(2.867905066 0.0004360960434 0)
(2.869804113 -0.000883162625 0)
(2.872591598 -0.001592986889 0)
(2.874530993 -0.003272100474 0)
(2.877771314 -0.003909171783 0)
(2.882432646 -0.002788952385 0)
(2.894609299 -0.002857495962 0)
(2.89385148 -0.002309338939 0)
(2.894930172 -0.003073752069 0)
(2.896111014 -0.003933167408 0)
(2.897625583 -0.003393354935 0)
(2.899556027 -0.002876815868 0)
(2.901429219 -0.002726994271 0)
(2.903841475 -0.001456077806 0)
(2.93069259 -0.003729047898 0)
(2.92830619 -0.00365509979 0)
(2.928085766 -0.004133711536 0)
(2.928358037 -0.003669268933 0)
(2.928224549 -0.001450915868 0)
(2.929047783 0.0003289953964 0)
(2.929515275 0.0009177916208 0)
(2.929142007 0.002452830514 0)
(2.974699255 0.002908342548 0)
(2.971325536 4.894126069e-05 0)
(2.968779559 -0.0002032532119 0)
(2.967014131 -0.0002965339946 0)
(2.966028971 -9.935405596e-06 0)
(2.965488504 0.001383194639 0)
)
;

boundaryField
{
    inlet
    {
        type            fixedValue;
        value           nonuniform 0();
    }
    outlet
    {
        type            inletOutlet;
        inletValue      uniform (3 0 0);
        value           nonuniform List<vector> 
17
(
(2.843736575 -0.001059368947 0)
(2.842110066 -4.674161389e-05 0)
(2.843531307 0.00274015859 0)
(2.848974517 0.004822624875 0)
(2.855582857 0.004105110593 0)
(2.865370942 -1.544892172e-05 0)
(2.882432646 -0.002788952385 0)
(2.903841475 -0.001456077806 0)
(2.929142007 0.002452830514 0)
(3.002223982 0.004084620264 0)
(3.003813018 0.004762038902 0)
(3.006222905 0.004398932948 0)
(3.005520001 0.0007165175978 0)
(2.994502263 0.0004488306937 0)
(2.968486946 -0.002237348439 0)
(2.922431134 -0.0007780313709 0)
(2.868730722 0.003996280089 0)
)
;
    }
    bottom
    {
        type            slip;
    }
    top
    {
        type            slip;
    }
    obstacle
    {
        type            slip;
    }
    defaultFaces
    {
        type            empty;
    }
    procBoundary11to5
    {
        type            processor;
        value           nonuniform List<vector> 9((3.040592881 0.09845440829 0) (3.018866437 0.005478114492 0) (3.004029828 0.001356409272 0) (3.003391099 0.0007479559899 0) (3.00142986 -0.001381448053 0) (3.055979703 0.2018789795 0) (3.034129622 0.1215506892 0) (3.018228195 0.06660751183 0) (3.018228195 0.06660751183 0));
    }
    procBoundary11to10
    {
        type            processor;
        value           nonuniform List<vector> 
17
(
(3.0521756 0.1685380641 0)
(3.027878876 0.02812411879 0)
(3.022624374 0.01753717643 0)
(3.003135198 0.001463598459 0)
(2.973659383 1.075222726e-05 0)
(2.922591619 0.006195787596 0)
(2.854464118 0.007338329027 0)
(2.818955945 0.002319875581 0)
(2.815691601 0.00118219705 0)
(2.814050592 0.002215797386 0)
(2.817326539 0.004947407763 0)
(2.82586619 0.006977164096 0)
(2.839227124 0.005933882539 0)
(2.862878631 -0.001217542453 0)
(2.895987032 -0.002383263014 0)
(2.933218902 -0.001720573445 0)
(2.933218902 -0.001720573445 0)
)
;
    }
    procBoundary11to16
    {
        type            processor;
        value           uniform (2.979784863 0.005058282167 0);
    }
    procBoundary11to17
    {
        type            processor;
        value           nonuniform List<vector> 10((2.965355462 0.002741346224 0) (2.96447385 0.003135246034 0) (2.961427025 0.003684942651 0) (3.020736902 0.004456254628 0) (3.017311971 0.0005755865652 0) (3.014666434 -0.00024980283 0) (3.011644877 -0.0001704881217 0) (3.008859145 0.0004072093745 0) (2.965355462 0.002741346224 0) (3.007335252 0.001239183778 0));
    }
}


// ************************************************************************* //
