/*--------------------------------*- C++ -*----------------------------------*\
  =========                 |
  \\      /  F ield         | OpenFOAM: The Open Source CFD Toolbox
   \\    /   O peration     | Website:  https://openfoam.org
    \\  /    A nd           | Version:  7
     \\/     M anipulation  |
\*---------------------------------------------------------------------------*/
FoamFile
{
    version     2.0;
    format      ascii;
    class       volScalarField;
    location    "1.2";
    object      p;
}
// * * * * * * * * * * * * * * * * * * * * * * * * * * * * * * * * * * * * * //

dimensions      [1 -1 -2 0 0 0 0];

internalField   nonuniform List<scalar> 5(1 1 1 1.055745655 1.122366934);

boundaryField
{
    inlet
    {
        type            fixedValue;
        value           nonuniform 0();
    }
    outlet
    {
        type            zeroGradient;
    }
    bottom
    {
        type            slip;
    }
    top
    {
        type            slip;
    }
    obstacle
    {
        type            zeroGradient;
    }
    defaultFaces
    {
        type            empty;
    }
    procBoundary13to7
    {
        type            processor;
        value           nonuniform List<scalar> 4(1 1 1.003680516 1.003680516);
    }
    procBoundary13to12
    {
        type            processor;
        value           nonuniform List<scalar> 2(1 1);
    }
    procBoundary13to14
    {
        type            processor;
        value           uniform 1.011685054;
    }
    procBoundary13to19
    {
        type            processor;
        value           nonuniform List<scalar> 4(1 1 1 1);
    }
    procBoundary13to20
    {
        type            processor;
        value           uniform 1.195637439;
    }
}


// ************************************************************************* //
