/*--------------------------------*- C++ -*----------------------------------*\
  =========                 |
  \\      /  F ield         | OpenFOAM: The Open Source CFD Toolbox
   \\    /   O peration     | Website:  https://openfoam.org
    \\  /    A nd           | Version:  7
     \\/     M anipulation  |
\*---------------------------------------------------------------------------*/
FoamFile
{
    version     2.0;
    format      ascii;
    class       volScalarField;
    location    "4";
    object      rho;
}
// * * * * * * * * * * * * * * * * * * * * * * * * * * * * * * * * * * * * * //

dimensions      [1 -3 0 0 0 0 0];

internalField   nonuniform List<scalar> 
2222
(
1.937154338
1.854392405
1.79045679
1.731558826
1.673122091
1.613173981
1.567048249
1.525392586
1.483964056
1.439021543
1.405483837
1.376355036
1.345797417
1.312439789
1.283163515
1.260687815
1.239714415
3.85723068
3.867187304
3.895861011
3.90274163
3.887825599
3.839082653
3.744628145
3.611155801
3.460364279
3.282156357
3.097164572
2.941374039
2.790651111
2.628419398
2.493853853
2.378253285
2.265661909
2.148389598
2.057647996
1.976901415
1.897664764
1.816578133
1.752729734
1.695067353
1.638404846
1.579974706
1.535079019
1.494751459
1.455067085
1.411712747
1.3782331
1.350125562
1.320554505
1.287659834
1.259709909
1.236840849
1.21650616
3.836373286
3.840809942
3.861031811
3.879393795
3.875066123
3.849755651
3.767031836
3.616739841
3.444742331
3.250629278
3.051871788
2.88571448
2.731482827
2.56965202
2.43560414
2.324984469
2.218404197
2.104965829
2.01400509
1.934577829
1.856781667
1.77763054
1.714426628
1.658580327
1.604095379
1.547539679
1.50308241
1.464067562
1.425675206
1.383945282
1.350835905
1.323908622
1.295714227
1.264269669
1.237340483
1.215296173
1.194579108
3.83326973
3.844223251
3.84533588
3.850090039
3.851893754
3.822704638
3.742040539
3.602957472
3.427539316
3.228777675
3.018580855
2.841320131
2.680494902
2.515467701
2.37777415
2.269311021
2.166788167
2.05848413
1.969244302
1.892621856
1.817132924
1.739788902
1.676490172
1.622085771
1.569427617
1.514495944
1.470924145
1.433542913
1.39665896
1.357105115
1.324295636
1.297862168
1.270321983
1.239569457
1.212530455
1.191668268
1.170706929
3.847004835
3.845464725
3.842161677
3.839360285
3.827646685
3.790246485
3.702923648
3.560204455
3.390595328
3.194312664
2.985767552
2.804831009
2.639033876
2.470273414
2.325368514
2.214208641
2.112014973
2.008690634
1.922125627
1.849501794
1.777101548
1.701555554
1.638424798
1.58543781
1.534646047
1.482376354
1.439281462
1.403155129
1.367305278
1.329352408
1.297218179
1.271840127
1.245521936
1.216470633
1.189769609
1.169902499
1.148864141
3.850490909
3.843131129
3.841933308
3.837020863
3.816100392
3.76214206
3.656793282
3.502181864
3.331604288
3.147200225
2.944380945
2.761584221
2.598452462
2.432245271
2.28210718
2.166094165
2.059563604
1.95665591
1.870508088
1.802486299
1.735377213
1.663764108
1.601199082
1.549281049
1.499893598
1.449428935
1.407015613
1.372435682
1.338178799
1.302094964
1.270737444
1.245534829
1.219833408
1.191842764
1.165158552
1.146165954
1.126368176
3.843014749
3.842862401
3.842545299
3.835140586
3.807013279
3.73967653
3.617618866
3.444359354
3.265960739
3.082376022
2.884000474
2.710976681
2.554705224
2.393715347
2.242118357
2.122544485
2.012163673
1.907245052
1.818892456
1.753737599
1.691738733
1.624581433
1.563719053
1.513548429
1.465386561
1.417142694
1.375373131
1.342056851
1.309106625
1.274532825
1.24432409
1.219917958
1.195216326
1.168358743
1.142248579
1.123803959
1.105108596
3.840299035
3.84437517
3.842332292
3.832495185
3.797739062
3.717850753
3.580139792
3.391874802
3.201828108
3.012476781
2.816183566
2.648131625
2.498898526
2.348017908
2.200749249
2.081445107
1.970696711
1.862961016
1.769855168
1.704009318
1.645003902
1.583139393
1.525629327
1.478227324
1.431510712
1.384510058
1.343341074
1.310919462
1.279161329
1.245993867
1.216368412
1.192755739
1.169142217
1.143900113
1.11853692
1.10065843
1.083432082
3.844641748
3.844674264
3.841254547
3.829064122
3.78639897
3.693429668
3.541714881
3.340475466
3.14143709
2.947254863
2.745318598
2.576602471
2.434719855
2.295474389
2.154985356
2.038276534
1.929817659
1.822794357
1.727090397
1.657975787
1.597799904
1.539317911
1.485192283
1.441545718
1.397572541
1.352985926
1.312236317
1.280867997
1.250668218
1.219128764
1.190295948
1.16766329
1.14452425
1.120633508
1.096057341
1.078867477
1.06344417
3.846948189
3.843588369
3.84004934
3.824821237
3.77259027
3.665402326
3.500230907
3.287727375
3.08123082
2.883800438
2.678539175
2.506428836
2.364628386
2.232556204
2.100040985
1.990021237
1.887292898
1.784179615
1.688280607
1.616035256
1.552177688
1.49519285
1.443564463
1.403854897
1.363829847
1.32120337
1.28047608
1.249177458
1.219441477
1.189337746
1.161387626
1.14017086
1.118474232
1.096497795
1.072980882
1.057068451
1.043800758
3.844577823
3.842689639
3.839044845
3.819399514
3.75594985
3.633626918
3.454884993
3.231855259
3.019408381
2.820298756
2.613467457
2.43794279
2.295484801
2.16602714
2.037755937
1.933830898
1.839672632
1.744283862
1.651386555
1.577936872
1.511218245
1.452420339
1.40065833
1.363921443
1.327898768
1.289024877
1.250589057
1.220295918
1.191290108
1.162419738
1.135016855
1.114719978
1.094474013
1.073966187
1.052054777
1.037519859
1.026268375
3.842376702
3.842661777
3.837754607
3.81257316
3.736310753
3.597662418
3.405707922
3.172662806
2.95419464
2.754412906
2.548406234
2.370828532
2.228232624
2.098991281
1.971741916
1.872510737
1.78659166
1.700794445
1.612990745
1.541071993
1.473711433
1.412843914
1.359779246
1.324180222
1.291351697
1.255606047
1.21852083
1.188699846
1.160534764
1.133076115
1.106806175
1.088050777
1.070005903
1.05155935
1.030977123
1.019241509
1.010397595
3.84311847
3.842968618
3.835889747
3.804117123
3.713226868
3.557514703
3.352165871
3.109454913
2.885887859
2.685223321
2.481035716
2.30328308
2.161915916
2.03367309
1.906729383
1.808301514
1.728597843
1.652021356
1.571915472
1.503499231
1.438845385
1.376966031
1.321151893
1.284940868
1.254339022
1.222048106
1.187440519
1.159500041
1.132682663
1.106378456
1.080798912
1.063082899
1.04776802
1.031712848
1.012425726
1.004079441
0.9963860673
3.844660439
3.842703573
3.833647037
3.793797225
3.686270421
3.5123111
3.294040909
3.042449284
2.813475016
2.612566258
2.411152578
2.233889603
2.094951242
1.969411105
1.843659644
1.745588246
1.669105074
1.59935084
1.526032206
1.462662202
1.402636251
1.342390959
1.286495306
1.247862549
1.216113781
1.185194037
1.153160826
1.127759504
1.103598378
1.07919045
1.05404687
1.038346451
1.026802437
1.013381146
0.9961387205
0.990874719
0.984534388
3.84468682
3.842298114
3.831154663
3.781124872
3.654662367
3.461751226
3.230653856
2.970764799
2.737615345
2.536475277
2.338026907
2.162443595
2.026704435
1.904991551
1.782716066
1.68486453
1.609522217
1.543628739
1.476530509
1.419140997
1.365038384
1.309481612
1.255555136
1.216214465
1.181860956
1.151035756
1.120535816
1.097669767
1.076543478
1.054503787
1.029914607
1.017303845
1.008448812
0.9964423561
0.9810995038
0.9777397025
0.9730631273
3.843793294
3.842536006
3.828119507
3.765282396
3.6177084
3.405069956
3.161575565
2.894494996
2.657684944
2.457139294
2.262691134
2.088873472
1.9567394
1.839646284
1.72187901
1.62652067
1.552768662
1.488167335
1.424701606
1.372170114
1.32364759
1.27295744
1.222342807
1.182802678
1.14646655
1.115084022
1.085598171
1.06587899
1.049145743
1.030509501
1.007128679
0.998818147
0.9925048118
0.9819083305
0.9684485923
0.9665997993
0.9634210597
3.844233093
3.843686899
3.823823814
3.745286986
3.574534506
3.341563283
3.0864745
2.813451154
2.574079133
2.374717666
2.184590686
2.013747257
1.885686449
1.773471718
1.661636273
1.568362108
1.497385811
1.433561039
1.372572661
1.3232524
1.281510752
1.238194209
1.19266267
1.153964842
1.117241549
1.084461707
1.055679405
1.037939391
1.024813608
1.009181596
0.9886994449
0.9824523211
0.9771599999
0.9670067526
0.9546169554
0.9540236793
0.9523958494
3.846348863
3.844787773
3.81732738
3.719903304
3.523986114
3.271173579
3.005059319
2.727210004
2.486811885
2.289857499
2.104901135
1.937509095
1.813467309
1.706603549
1.600307759
1.510531393
1.443854061
1.383033303
1.322323151
1.272841686
1.234586386
1.196889722
1.156453082
1.120729621
1.086494506
1.055504306
1.026352285
1.01081184
1.00253194
0.9907208082
0.9748911871
0.97002397
0.9650962339
0.9549740872
0.9432339316
0.9429318081
0.9423945818
3.849172122
3.845695486
3.807519483
3.687595358
3.465369922
3.192446735
2.917246344
2.636621027
2.396211162
2.202484789
2.023259523
1.86052011
1.741488152
1.639870143
1.539602086
1.453042399
1.390389957
1.332443657
1.273931083
1.226297996
1.191416123
1.158395195
1.122815439
1.09033501
1.059874805
1.032292807
1.003580893
0.9903759425
0.9839477457
0.9742309367
0.960634501
0.9562218146
0.951732446
0.9425406836
0.932219741
0.9316984319
0.9317806785
3.851855042
3.846090399
3.793051979
3.646987988
3.397288823
3.106494075
2.822972273
2.540619835
2.302795609
2.113538815
1.94102268
1.783661756
1.669465737
1.57252743
1.478188218
1.396441437
1.337974686
1.282860034
1.226566099
1.178146565
1.144578955
1.115701356
1.085071461
1.056576967
1.033178877
1.010689814
0.9856350418
0.9750335936
0.9691526167
0.9605440007
0.9478138428
0.9441412034
0.9406063593
0.9330411385
0.9237771439
0.9227276747
0.9228150521
3.854331959
3.84350897
3.772075405
3.597235598
3.32011004
3.011639041
2.722410408
2.441741489
2.206797536
2.023201129
1.858053576
1.706608417
1.598219909
1.506945249
1.418695551
1.340350751
1.286723509
1.235887634
1.183584015
1.137069277
1.104023458
1.078510901
1.050104875
1.028243502
1.012089596
0.9930521223
0.9710938776
0.961432565
0.9552437626
0.9479259651
0.93623188
0.9335473526
0.9308131344
0.9244593776
0.9156714764
0.9140475708
0.9139278869
3.856325898
3.838592538
3.74376757
3.536945462
3.232577161
2.910233089
2.616624856
2.338492039
2.109220622
1.932665515
1.775426936
1.630535931
1.527374828
1.442511696
1.359002228
1.283834453
1.231822814
1.184484138
1.136488072
1.092685521
1.063072817
1.041564493
1.014797312
1.002424879
0.9934175007
0.9785344344
0.9595031811
0.951465215
0.9444129021
0.9365914289
0.9248295177
0.9226618735
0.9210553753
0.9162621953
0.9090478417
0.9075934037
0.9076229271
3.857241424
3.829009875
3.705888958
3.465715861
3.136064036
2.800897835
2.506622696
2.234171274
2.011393466
1.841431422
1.692278728
1.554843601
1.458323067
1.379187547
1.302733973
1.232639188
1.184362071
1.140902574
1.095823629
1.055571545
1.031919136
1.01371351
0.9890706321
0.9805001283
0.9754769201
0.9643231613
0.948613945
0.941821129
0.9349290037
0.9255363701
0.9142234413
0.9122613343
0.9121779378
0.9092905221
0.9036002427
0.9023678458
0.9020514036
3.856697975
3.813118649
3.657372666
3.382634496
3.029903381
2.687283444
2.393722846
2.127038768
1.912894069
1.750282486
1.610605165
1.482276805
1.391815298
1.31609585
1.242277319
1.173729027
1.129303845
1.092318001
1.052583809
1.017295418
1.003626515
0.9900372911
0.9702658708
0.9640205016
0.961746366
0.9537093924
0.939661963
0.9330194623
0.9269509897
0.9167968978
0.906110971
0.9031325458
0.9041936226
0.9026374691
0.8983369673
0.8977277856
0.8975905131
3.852556859
3.788500084
3.597050266
3.288768452
2.916576393
2.568437126
2.278033338
2.020236831
1.81317576
1.660743112
1.529442161
1.406992767
1.324369416
1.257595908
1.190290344
1.126611953
1.08579633
1.055862906
1.016837159
0.9886460892
0.9836387375
0.9730389096
0.9566853277
0.9464450314
0.9451497589
0.9401432704
0.929891052
0.9248865744
0.9199486434
0.9105805758
0.8999015444
0.8954065679
0.8967662976
0.8956416085
0.8939892068
0.8942912101
0.894319823
3.843805152
3.754616802
3.525273211
3.183568384
2.79685687
2.446000257
2.160021437
1.910400886
1.713244911
1.571719628
1.450497469
1.334996228
1.256263248
1.194012434
1.132322662
1.071398234
1.0400952
1.019865981
0.986227613
0.9665815196
0.9669653311
0.960355893
0.9449304148
0.9333672683
0.9333660309
0.9306955214
0.9234219109
0.9190360239
0.9146495693
0.9061906944
0.8952600322
0.8910869333
0.8904161032
0.8892253467
0.8898064392
0.8908869072
0.8919973843
3.828637819
3.71187927
3.442114434
3.069811565
2.669674223
2.317625121
2.037932205
1.80108575
1.615531272
1.48055341
1.369568932
1.266862266
1.196320031
1.141029576
1.085560835
1.027721656
1.010216998
0.994495903
0.9672311453
0.9489992422
0.9496041999
0.9456307287
0.9330121577
0.9230152841
0.9235244178
0.9219308992
0.9162044552
0.9131184958
0.9096054381
0.9022273335
0.8929023926
0.889672598
0.8867989943
0.8849534883
0.8857708772
0.887803851
0.889811566
3.808951039
3.662071569
3.34914032
2.946095036
2.533212309
2.185602449
1.912064853
1.68900339
1.515013253
1.391321483
1.286250068
1.190653845
1.126047681
1.083136959
1.036042416
0.9892540219
0.985062878
0.9749950233
0.9521836933
0.9358501886
0.9361292654
0.9337491997
0.9226043028
0.9131187289
0.9132902458
0.9121503816
0.9084183606
0.907911135
0.9059259012
0.9007826132
0.8930191732
0.8898717384
0.8861906209
0.883364604
0.8836037197
0.8855865152
0.9019759349
3.785986264
3.605134551
3.245692139
2.811041596
2.387433467
2.044989759
1.7845075
1.57228013
1.411222827
1.310300603
1.216925792
1.126580997
1.0746557
1.04379301
1.002692399
0.9667301214
0.9660442991
0.9589229547
0.9400540641
0.9260782841
0.9246606854
0.9225636641
0.9125761331
0.9053911031
0.9057272662
0.904928347
0.9023358901
0.9030482211
0.9026190047
0.8995070667
0.8942920673
0.8909533461
0.8872830116
0.883333178
0.8847685926
0.9006598789
0.9688691771
3.764784194
3.541803895
3.127386278
2.658726343
2.235380441
1.895735365
1.65558893
1.455780566
1.30817688
1.214310059
1.133780688
1.048218411
1.023412294
1.008464757
0.9774685894
0.9521814526
0.9532148829
0.9489000324
0.9341287217
0.9199007924
0.9161146024
0.9130743767
0.9046066182
0.8989294948
0.8992254067
0.898617274
0.8972790766
0.8984800754
0.899448273
0.897891393
0.8947490568
0.8919304744
0.8889515436
0.8878958069
0.9057900915
0.9695940532
1.096561363
3.745163637
3.463913944
2.987086749
2.491467441
2.071157967
1.739046507
1.516113575
1.348438315
1.223295542
1.142438086
1.076091798
0.9975423144
0.9917508771
0.9844703019
0.9602505747
0.9392794483
0.9399423903
0.9368930905
0.9251864136
0.9125093653
0.9097300919
0.9066037758
0.8994554613
0.8948455359
0.8951302283
0.8944185228
0.8934501843
0.8943664752
0.8959670863
0.8956950543
0.8946208858
0.8929021404
0.8944104902
0.9112460889
0.9883171401
1.09940698
1.179918276
3.721662197
3.364815922
2.824144913
2.306284571
1.887756175
1.589123354
1.379717151
1.224972962
1.109864012
1.062143856
1.015688844
0.9646720929
0.9659922056
0.9652379354
0.9480577415
0.92969054
0.9307628574
0.9288957558
0.9201366542
0.9098757055
0.9062522754
0.902789182
0.896519491
0.8926774342
0.8927944715
0.8919865791
0.8909571694
0.8915214655
0.8932452842
0.8942983505
0.8942732633
0.896817819
0.9216042856
0.998073554
1.123599312
1.220205097
1.243993419
3.691828115
3.235204869
2.634632282
2.098484292
1.684800945
1.43049268
1.271262397
1.124875302
1.046154916
1.020885321
0.983432299
0.9505988049
0.9483913601
0.9477713949
0.9339950938
0.9202128639
0.9218359768
0.9213086992
0.9151886013
0.9059145798
0.9031267084
0.8999883457
0.894756898
0.8915159653
0.8915663929
0.8912203126
0.8903266591
0.8903919358
0.8913004861
0.8925460853
0.8983431373
0.9273633592
1.019086176
1.14830538
1.199884309
1.24676803
1.261279227
3.649375607
3.067994033
2.399506514
1.859975574
1.483977875
1.251947148
1.136464815
1.01780221
0.9895869494
0.9878517179
0.9645280164
0.9416982359
0.9386866328
0.9368697346
0.9248337201
0.913231326
0.9140564049
0.9139241525
0.9095338047
0.9020014109
0.9011493933
0.8991884117
0.8948027378
0.8917152905
0.8917156632
0.8914608583
0.8905198838
0.8905052343
0.8915471991
0.8981285132
0.9347204115
1.027995
1.157307337
1.249139753
1.256023911
1.271832705
1.2713151
3.577004748
2.850414971
2.106417188
1.594953718
1.303056452
1.139278568
1.055165345
0.9736083497
0.9599083292
0.9623226143
0.9487812205
0.9306732653
0.9295616308
0.9281025951
0.9183625992
0.9087808844
0.9092374465
0.9091214735
0.9055866871
0.8996684521
0.8997105928
0.8988847735
0.8955691289
0.8929682181
0.8928638458
0.8926779994
0.8917413559
0.8921219222
0.898875726
0.9349046349
1.042130353
1.171369913
1.224104983
1.262943479
1.274560612
1.279384266
1.278371049
3.446877214
2.553779948
1.755972833
1.313932351
1.054231809
1.013522121
0.9818953369
0.9402412251
0.9411623125
0.9448944473
0.9366627393
0.9220524533
0.9214723675
0.9204522474
0.9131924007
0.9050701287
0.9052417602
0.9052106733
0.9022657722
0.8985024397
0.8989083969
0.8987736558
0.8968912599
0.8950008273
0.8949893145
0.8949443303
0.8952719929
0.9012162658
0.9433581419
1.0450516
1.170940032
1.261625365
1.270316525
1.282790274
1.283573337
1.283252975
1.282473636
3.23015236
2.070686874
1.413242737
1.12636671
0.9487741104
0.9410859583
0.9298042917
0.9154313607
0.918951526
0.9246566392
0.9194332872
0.9101749312
0.9111909131
0.9107053582
0.9057536058
0.9003802439
0.9002117857
0.9006491897
0.899112307
0.897888123
0.8983861891
0.8986720572
0.8978419268
0.8965988141
0.8966916344
0.8977916503
0.9054054585
0.9469438781
1.055445686
1.189733135
1.231968275
1.271796041
1.283823473
1.290524434
1.292532643
1.290513249
1.287650478
2.827405184
1.468776427
1.008971941
0.9180653701
0.8880545868
0.9009110265
0.9029940504
0.8975849423
0.8995626666
0.9051601738
0.9030292487
0.9007375502
0.9021569355
0.9025498524
0.8995725997
0.8975828713
0.8972317492
0.8976645415
0.8975618416
0.8976500177
0.8981276803
0.898094827
0.8977608279
0.8974734193
0.8993938252
0.9100130751
0.9587447343
1.071962048
1.193271103
1.264586393
1.265895716
1.274299055
1.285490008
1.292623623
1.29558242
1.294781778
1.292277033
1.810206824
1.06067349
0.8838317701
0.852884303
0.8538679481
0.864172498
0.8721690757
0.8722555911
0.874914326
0.8798774289
0.8807031299
0.8821566292
0.8839409412
0.886944889
0.8883033732
0.8896961749
0.8909640515
0.892636682
0.8941330701
0.8954508979
0.8961945138
0.8963839029
0.8972068327
0.9009661598
0.9180351693
0.9697965973
1.093553128
1.202496514
1.244917925
1.28238286
1.279232166
1.279122158
1.283098716
1.289802335
1.294950281
1.294741653
1.292824601
0.7281838041
0.8157174847
0.8957482493
0.8551316438
0.8427490556
0.8493793322
0.8565090315
0.8604405196
0.8652753764
0.8691919284
0.869714398
0.8713077916
0.8781984744
0.8837967084
0.8864139236
0.8883719865
0.8904006354
0.8929602483
0.8949841248
0.896217598
0.8962639617
0.8964867049
0.8987563577
0.9090286097
0.9464238516
1.040248762
1.195137222
1.253327249
1.260078126
1.282369019
1.281358028
1.281486084
1.283776808
1.290217802
1.29416403
1.293835156
0.7329925235
0.823950684
0.8906165669
0.8527663571
0.841332871
0.8478277347
0.854380178
0.8578916228
0.862454646
0.866221237
0.8680479232
0.8704519509
0.8782183974
0.8833503581
0.8859169868
0.8877999328
0.8901107731
0.8930099924
0.8951484759
0.8959803828
0.8958139613
0.8965633487
0.9005096635
0.9159049123
0.9670758425
1.080952835
1.224805651
1.262779216
1.264701702
1.283079198
1.281843091
1.281834885
1.284123923
1.290572555
1.294137779
1.293457133
0.7453860044
0.8306982435
0.8801871126
0.8490007286
0.8405082104
0.8467246506
0.8533544793
0.8569455788
0.8612575273
0.8649470982
0.8671629976
0.8695177994
0.878116967
0.8829126159
0.8855420036
0.8875224923
0.8901718591
0.8930289753
0.895192572
0.8956833182
0.8955865671
0.8968470367
0.9019204016
0.9219992834
0.9869581058
1.109665574
1.241611564
1.26553358
1.266388638
1.284622692
1.281424732
1.281561294
1.28492909
1.291471231
1.294216745
1.293613003
0.7571245248
0.8347211633
0.8693856704
0.8449676114
0.8394904278
0.8454821844
0.852189824
0.8556840267
0.8597978721
0.8633407563
0.8657242929
0.8689585039
0.8780521378
0.8824618738
0.8851038128
0.8872596121
0.8902454707
0.8932691397
0.895151545
0.8953301463
0.8953606522
0.8972782517
0.9042158476
0.9309602379
1.012524652
1.140720138
1.261410781
1.271872195
1.268917896
1.284678363
1.281756197
1.281949244
1.285241126
1.291658458
1.29411853
1.293527614
0.7694064967
0.837639239
0.8572836811
0.840603285
0.8386126211
0.8446827728
0.8506346347
0.8540530529
0.8582030286
0.8620493841
0.865025472
0.8689113857
0.8779330443
0.8820628158
0.8847252948
0.8871070986
0.8903468687
0.8934590956
0.8950271384
0.8949440732
0.8952503125
0.8978890318
0.9082030037
0.9433764788
1.035449836
1.173774653
1.273996006
1.27445798
1.270806749
1.284942747
1.281740799
1.28181364
1.28543921
1.291457301
1.293959897
1.293593746
0.7804062496
0.8387653526
0.8461916251
0.8369766045
0.8382234576
0.8442788684
0.8488387314
0.8519297983
0.8565761265
0.8613379742
0.8648917856
0.8692397813
0.8777505886
0.8817043511
0.8843406303
0.8869336297
0.8904630521
0.8936234772
0.8948426307
0.8945674904
0.8952441049
0.8987698848
0.9123151071
0.9573676656
1.061268973
1.19715543
1.278016529
1.275158925
1.272636251
1.28528775
1.282058088
1.282121869
1.286140214
1.291544034
1.293432343
1.292951862
0.7907529131
0.8386345927
0.8355254011
0.8323125609
0.8371542076
0.8440080982
0.8476347761
0.8507655331
0.8556043407
0.8605958776
0.864758091
0.8701489392
0.8773793238
0.8814006793
0.8840702166
0.8869102141
0.8905728649
0.8937125741
0.8945730988
0.8943071738
0.8953739084
0.9002217019
0.9175225786
0.9726415666
1.095042807
1.212544431
1.276991622
1.27623553
1.27466894
1.28572305
1.282659549
1.282769322
1.287143449
1.291743297
1.292918914
1.291722373
0.7988284738
0.8367293409
0.8273279135
0.8273691123
0.8362238124
0.8434626299
0.846835254
0.8503067141
0.8548694367
0.8599448381
0.8646838089
0.8708213673
0.8769702331
0.8811222251
0.8838239033
0.8868674074
0.8907227327
0.8937352972
0.8942470438
0.8940033
0.8956166546
0.9018873015
0.9256659375
0.9960751584
1.1228041
1.227264159
1.28176026
1.277438886
1.276310944
1.286422513
1.283536846
1.283788936
1.288260596
1.292111614
1.292811223
1.291210062
0.8051574696
0.8326825399
0.8215036514
0.8232760824
0.8356289076
0.841851908
0.8451677028
0.8494008377
0.8537495616
0.8593931972
0.8644607107
0.8709690021
0.8766804311
0.8808740521
0.8835775407
0.8868236627
0.8909047389
0.8937214632
0.8939412811
0.8937706517
0.8961533545
0.9047774856
0.9359722493
1.021881344
1.146889225
1.243459372
1.285388966
1.278760015
1.277467757
1.286848491
1.284277924
1.284422176
1.289275882
1.29270802
1.293023788
1.291446321
0.8094848118
0.8283891581
0.8161024482
0.8204942693
0.8342806599
0.8405161125
0.8434391164
0.8473545138
0.852517608
0.858756974
0.8641105757
0.8709653907
0.8765192524
0.8806118892
0.883362909
0.8868399819
0.8909752976
0.8935348388
0.8936309586
0.8937643064
0.8970385616
0.9088702823
0.9484908447
1.046116631
1.177862189
1.262909434
1.288023488
1.27986862
1.278235763
1.287223544
1.284809047
1.28515421
1.289968271
1.293218669
1.293314729
0.8122145325
0.8235905242
0.8113542773
0.8179813922
0.8338849513
0.8402897861
0.8428837834
0.8454579095
0.851490083
0.8580381819
0.8637211749
0.8708953999
0.8763536824
0.8803243555
0.883137077
0.8868766541
0.8911064625
0.8934925741
0.8932996339
0.8938611988
0.8980067127
0.9131003267
0.9645002516
1.076290937
1.215119808
1.275827804
1.289233998
1.280043292
1.278663422
1.287302757
1.285328217
1.28595817
1.290472794
1.293225007
1.293159993
0.8137665877
0.8187984047
0.8069456523
0.8160158045
0.8332584627
0.8401653051
0.8428020656
0.8447957656
0.8507026966
0.8572375268
0.8633456701
0.8707980961
0.8760909484
0.8800090396
0.8829273084
0.886967303
0.8913470272
0.8933729496
0.893031992
0.89404554
0.8994512934
0.9200291048
0.9841761499
1.114047755
1.230373842
1.278414007
1.28885869
1.279850693
1.279589665
1.287478295
1.285672378
1.286157375
1.290239351
1.292507626
1.292477331
0.8142686952
0.8138845382
0.8033679932
0.8145725368
0.8318662242
0.8392056908
0.8419520712
0.8443651828
0.8501418937
0.8564310232
0.862979115
0.8707319743
0.8758303186
0.8796555022
0.8827655376
0.887063793
0.8913146455
0.8931932174
0.8928556754
0.8943991238
0.90168521
0.9301162531
1.009889345
1.138353831
1.231287969
1.277961738
1.288204354
1.280072342
1.280646017
1.287827488
1.286046064
1.286317277
1.290395374
1.291782993
1.291198252
0.8145595527
0.8088956162
0.8004209091
0.8131255055
0.830317258
0.8374402287
0.840075624
0.8432203528
0.8494991476
0.8556845548
0.8626842607
0.870672765
0.875587557
0.8793033128
0.8826616763
0.8871879827
0.8912192959
0.8929506549
0.8926347525
0.8950129684
0.9054291373
0.9410908889
1.033326265
1.152914343
1.241056695
1.277019345
1.285522344
1.279759803
1.281499135
1.288240071
1.286503091
1.286643697
1.290758677
1.291675733
1.291081177
0.8146939228
0.8042604592
0.797600159
0.8116437553
0.8292215822
0.8365862138
0.8390375565
0.8411943354
0.8486852931
0.8550560031
0.8624826082
0.870650302
0.875382133
0.8790283551
0.8826390553
0.887339087
0.8911244001
0.8926230046
0.8925213647
0.8960010691
0.9096334443
0.9553908269
1.054854997
1.182517171
1.256013623
1.279210267
1.283598056
1.279519326
1.28200558
1.288601553
1.286911307
1.287055805
1.291336759
1.29204684
1.291228463
0.8133341905
0.8001523555
0.7948945823
0.8103978617
0.8281496632
0.8361072875
0.8384851258
0.8395625449
0.84779562
0.8545239564
0.8621708168
0.8704816913
0.8751043295
0.8788189908
0.8826848774
0.8875383085
0.8909815576
0.8922006685
0.8926206756
0.8973549202
0.9150952265
0.9724239597
1.092464583
1.221957507
1.272036253
1.282767338
1.283263446
1.279619156
1.282066585
1.288785262
1.287222222
1.287248908
1.291636627
1.292458223
1.291492181
0.8116658098
0.7965255638
0.7924651793
0.8088939651
0.8267230489
0.8353797961
0.8376674286
0.8387429407
0.8470094067
0.8540178503
0.8622173144
0.8702507156
0.8746917287
0.8786013069
0.8828228996
0.8878031561
0.8907091967
0.8918166106
0.8929149674
0.89924608
0.9238341787
0.9966308422
1.135781606
1.24258536
1.276794276
1.284601988
1.283222547
1.279998115
1.282003391
1.288684644
1.287345705
1.287092991
1.291123426
1.292230522
1.291671624
0.8094316826
0.7932900005
0.7902390414
0.8071020167
0.8249802013
0.834379292
0.8368049663
0.8381082139
0.8462937806
0.8534243875
0.8621357229
0.8699109562
0.8742700905
0.8783742421
0.8829864756
0.8878549523
0.8903319178
0.8914893349
0.8933748974
0.9018341969
0.9352216616
1.027802424
1.158178626
1.244973016
1.277969612
1.285078452
1.283632461
1.280407628
1.282259188
1.288528713
1.28722387
1.286691175
1.290018776
1.290924845
0.8068177113
0.7904365764
0.7882374657
0.8057901354
0.823379466
0.8332695123
0.8361970039
0.8376974287
0.8455676024
0.8526871163
0.8620161502
0.8695655845
0.8739113621
0.8782100319
0.8831165314
0.8877428813
0.8899602426
0.891194637
0.8940676007
0.9058188161
0.9480978224
1.05188245
1.169978749
1.25106329
1.276119257
1.284998821
1.284036405
1.280869524
1.283124165
1.288491502
1.287113104
1.286642438
1.289512884
1.289582804
0.8038894497
0.7879033309
0.7864108275
0.8044846614
0.8218724765
0.8322377819
0.835438891
0.8375448015
0.8449474187
0.8517792657
0.8618857142
0.8691619915
0.8735838029
0.8781281043
0.8832682738
0.8876056276
0.8895968583
0.8909737341
0.8948691867
0.9113061591
0.9659417093
1.069898871
1.191715118
1.260965157
1.27624904
1.283777686
1.283686989
1.281040177
1.283948291
1.28868661
1.287174896
1.286882983
1.289494608
1.289121575
0.8008203221
0.7856350701
0.7847868333
0.8027958658
0.8197357357
0.8306013132
0.8343010728
0.8370173023
0.8445230297
0.8510563305
0.8617723221
0.8686960303
0.8732733016
0.8781144662
0.883461637
0.8875680335
0.8892583185
0.8907655943
0.8963659248
0.9186702162
0.9841275108
1.102418232
1.216922383
1.267889654
1.278210308
1.282893224
1.282243656
1.281157538
1.284445539
1.288760815
1.28723736
1.287601858
1.289724439
1.289223202
0.7974943569
0.7832295234
0.783017872
0.8016669577
0.8179807818
0.8283828076
0.8321159234
0.8357559269
0.8442404294
0.8508616773
0.8616919016
0.8681752221
0.8729006458
0.8781440797
0.8836478193
0.8875297117
0.8890049827
0.8911388531
0.8987409211
0.9285909456
1.006831416
1.141019652
1.23393745
1.271501602
1.280240109
1.283006195
1.281245639
1.281357309
1.284816744
1.288866826
1.287356524
1.287890637
1.289897446
1.289415503
0.7938897229
0.7803565488
0.7808175621
0.800823857
0.817256105
0.8276275818
0.8306159297
0.8343639111
0.8437518804
0.8507273486
0.8616317553
0.867668558
0.8726378281
0.8783125987
0.8838923691
0.887409077
0.8889076502
0.8918157465
0.9021026136
0.9395791116
1.039941161
1.168855879
1.246022158
1.273303179
1.280471452
)
;

boundaryField
{
    inlet
    {
        type            calculated;
        value           nonuniform 0();
    }
    outlet
    {
        type            calculated;
        value           nonuniform 0();
    }
    bottom
    {
        type            calculated;
        value           nonuniform 0();
    }
    top
    {
        type            calculated;
        value           nonuniform 0();
    }
    obstacle
    {
        type            calculated;
        value           nonuniform List<scalar> 
23
(
0.7281838041
0.7329925235
0.7453860044
0.7571245248
0.7694064967
0.7804062496
0.7907529131
0.7988284738
0.8051574696
0.8094848118
0.8122145325
0.8137665877
0.8142686952
0.8145595527
0.8146939228
0.8133341905
0.8116658098
0.8094316826
0.8068177113
0.8038894497
0.8008203221
0.7974943569
0.7938897229
)
;
    }
    defaultFaces
    {
        type            empty;
    }
    procBoundary9to3
    {
        type            processor;
        value           nonuniform List<scalar> 
38
(
1.976983263
1.892582141
1.82823021
1.767800553
1.707328893
1.645950406
1.599192669
1.556593188
1.513714255
1.467240418
1.433161592
1.40238517
1.370727949
1.33612041
1.305599631
1.283962777
1.261271661
3.877593631
3.926630005
3.919380803
3.901463626
3.854127987
3.792741651
3.71934786
3.618391435
3.489804897
3.32893079
3.156305617
3.003127528
2.849646847
2.682798743
2.545369238
2.427003415
2.311165402
2.192450046
2.101973383
2.019172307
2.019172307
)
;
    }
    procBoundary9to4
    {
        type            processor;
        value           nonuniform List<scalar> 9(1.21373097 1.191862162 1.17180761 1.150093869 1.129058669 1.10681295 1.085740664 1.065043695 1.046184176);
    }
    procBoundary9to8
    {
        type            processor;
        value           nonuniform List<scalar> 
12
(
3.872623897
3.873742394
3.826353095
3.824647623
3.853588094
3.856948763
3.839580645
3.834917573
3.845082952
3.850288514
3.844977907