/*--------------------------------*- C++ -*----------------------------------*\
  =========                 |
  \\      /  F ield         | OpenFOAM: The Open Source CFD Toolbox
   \\    /   O peration     | Website:  https://openfoam.org
    \\  /    A nd           | Version:  7
     \\/     M anipulation  |
\*---------------------------------------------------------------------------*/
FoamFile
{
    version     2.0;
    format      ascii;
    class       volScalarField;
    location    "4.4";
    object      p;
}
// * * * * * * * * * * * * * * * * * * * * * * * * * * * * * * * * * * * * * //

dimensions      [1 -1 -2 0 0 0 0];

internalField   nonuniform List<scalar> 
2222
(
0.899648842
0.9095180428
0.8743342244
0.8737618349
0.8631409446
0.8562876672
0.8530280706
0.8554368085
0.8629177723
0.8825791585
0.8994073042
0.9160636559
0.9193561744
0.9216190816
0.9235532926
0.9174447724
0.9153320701
0.9164222931
0.401119141
0.5692790527
0.8461354711
0.9796566221
0.953961899
0.9302415429
0.9295407756
0.8949519145
0.8973920452
0.8616105642
0.8404791072
0.8414906809
0.8572132459
0.8629183512
0.8878555444
0.906592451
0.9212865061
0.9183766676
0.9187097952
0.9195276565
0.9133760597
0.9107630548
0.9122747038
0.3014774365
0.4810372931
0.7657810295
0.9375357321
0.9752043526
0.961127085
0.9465534139
0.9210455158
0.8984755528
0.8557309108
0.831482852
0.8355137421
0.861300632
0.87622976
0.8918507322
0.9108132102
0.9288665212
0.9244574835
0.9228587531
0.9216432249
0.9141241627
0.9095336893
0.9120395916
0.1497789548
0.2051421877
0.519156499
0.8020447617
0.960628879
0.9694460196
0.9494974763
0.934866122
0.8918479499
0.8508515911
0.8282283239
0.8338796466
0.8649969138
0.88598536
0.8945002765
0.9146419625
0.9337558652
0.9317472682
0.9292462128
0.9294643814
0.9240758059
0.9189115112
0.9207671498
0.1509094842
0.1507830884
0.2070582941
0.5940384574
0.8789739366
0.9621237754
0.9170736685
0.933106969
0.8761244485
0.860247661
0.842841415
0.8502572476
0.8643339837
0.887804925
0.8938530737
0.9132048908
0.9327347931
0.9325933255
0.9279958312
0.9309045576
0.9297138643
0.9267222106
0.927637719
0.1534567444
0.1505755787
0.1486140471
0.313856565
0.7487955823
0.920405342
0.8929903903
0.910151205
0.8684145884
0.8821888307
0.866803958
0.8675515227
0.8601807481
0.8833786194
0.8794114732
0.8992776775
0.9267965693
0.9314390354
0.9259318918
0.9298644262
0.9335500829
0.9319103053
0.9308171651
0.9275299906
0.154388005
0.1501903029
0.1486651224
0.150381227
0.5533349535
0.8402652006
0.8701343606
0.8751904385
0.86565412
0.8949953343
0.8816042859
0.8788122994
0.8562979021
0.8696858131
0.8715909586
0.8841693856
0.9062099014
0.9183983588
0.9155762235
0.9211311699
0.9305799245
0.9292242994
0.9273882048
0.925710279
0.1544362478
0.1501635906
0.1488264064
0.1458092886
0.2139459818
0.6918474991
0.8711136465
0.8608306053
0.8900266221
0.8932096625
0.893148425
0.8847221913
0.8601700138
0.8611706029
0.8698785367
0.8775646114
0.8891253117
0.8990131717
0.9051250947
0.9130715977
0.9202781329
0.9195103035
0.9171675114
0.9177661652
0.1537106904
0.1505084929
0.1488467428
0.1468001361
0.1461718246
0.4087544983
0.8199251281
0.8745736689
0.9120507161
0.8682467206
0.8720679724
0.8672146451
0.8706581826
0.8595648213
0.876997529
0.8817238389
0.8831140487
0.8896892096
0.9014900371
0.9108116681
0.9130425386
0.9123577921
0.9096548113
0.9123455193
0.1531485224
0.1520868948
0.1496362065
0.1478639215
0.1453243964
0.1537446769
0.59812062
0.8795085729
0.9250388509
0.8643739763
0.8576633236
0.8569702456
0.8814622415
0.868739541
0.8837628892
0.8892061031
0.8884603092
0.8904458268
0.9047927378
0.9146275986
0.9132403216
0.9115969935
0.9084599269
0.9120425159
0.1532614337
0.1546334914
0.1512483706
0.1486773297
0.147102818
0.1452363456
0.3089590157
0.7976778809
0.9017293937
0.8719589494
0.8662020015
0.8606683321
0.8908433438
0.8818231174
0.8868586614
0.8962376858
0.9008284706
0.902949294
0.9127452278
0.9224079497
0.9199660304
0.9157887118
0.9125900835
0.9151534445
0.1536840496
0.1554599805
0.152545483
0.1489641334
0.1473958843
0.1452886843
0.1494578593
0.5191919516
0.8271571499
0.9073741989
0.890967111
0.8641991086
0.8869619331
0.8908784879
0.8790689247
0.8953972886
0.9098885266
0.9141750239
0.9189843751
0.9272965372
0.9248940682
0.9211550262
0.9193444066
0.9195245904
0.9248171434
0.1540808188
0.155776794
0.1529703028
0.1490516793
0.1474446742
0.1459053962
0.1437680802
0.230709005
0.7179579381
0.9118173933
0.8993299171
0.8858233769
0.8709967001
0.8969631732
0.8668859406
0.8808024098
0.9101849084
0.9188177927
0.9187969537
0.9265672151
0.929873925
0.9248076616
0.9230028595
0.9232123889
0.925951626
0.1544527661
0.1555626094
0.152994977
0.1487891365
0.1464837468
0.1450659423
0.1432921417
0.1449943643
0.4471401095
0.8207046196
0.8957180215
0.891583739
0.8594547598
0.8879345669
0.8633947065
0.8667987134
0.895162084
0.9133842774
0.9074886019
0.9149439909
0.9280237536
0.9218941493
0.9229931706
0.9239821064
0.9241645852
0.1546238072
0.1542083333
0.1527013593
0.1483507118
0.1457253597
0.1441621668
0.14336901
0.1417777681
0.1655540413
0.5884826458
0.8746836969
0.892121799
0.862417039
0.874806128
0.8694559616
0.8663884821
0.8772400266
0.8924981388
0.8930295066
0.8998002176
0.912476505
0.9132468813
0.9165988554
0.9200172263
0.9194846998
0.1536491753
0.1534997516
0.1524012781
0.1481391294
0.1454706092
0.1439835607
0.1432333302
0.1419270227
0.1442866012
0.3652467706
0.7541127694
0.8681384153
0.8724608395
0.8725810093
0.8882285847
0.8696986031
0.8722678886
0.8790131833
0.8849346453
0.891148449
0.9018084526
0.9092499362
0.9130384332
0.9175771424
0.9168583589
0.151632996
0.1532790798
0.1521342126
0.1479940306
0.1452718095
0.1438988329
0.1434741887
0.1423856408
0.1422145074
0.1617863869
0.5819006623
0.8225817027
0.9029748927
0.8738393186
0.911397642
0.8918634706
0.8701656731
0.8713645472
0.8843144067
0.8872245683
0.8964764169
0.9065793867
0.9097336916
0.9167614116
0.9185294938
0.1502045747
0.1532262372
0.1519732999
0.1478470037
0.1449987222
0.1441389455
0.1438249777
0.1425396607
0.1424896623
0.1439409249
0.3319018925
0.7580733346
0.9121647853
0.8911178987
0.9169641342
0.9131409554
0.8862483374
0.8734595902
0.8967841866
0.901738555
0.8998629148
0.9140405513
0.9154522452
0.9218391052
0.9243157137
0.1496212033
0.1537553654
0.1518134016
0.1481391163
0.1452452445
0.1451144405
0.1442314313
0.1427578716
0.1428186639
0.1432674144
0.1479419403
0.5867299509
0.8824618271
0.9042138854
0.9062413223
0.9149365687
0.9149308402
0.8970022742
0.9063728685
0.921940493
0.9195927824
0.9259204341
0.9259075279
0.9240020854
0.9271786996
0.9293009725
0.1494453547
0.1541027159
0.1519628448
0.1497680054
0.1465836956
0.1456902492
0.1442629125
0.1428014353
0.1428797867
0.1430599331
0.1420923574
0.2548672316
0.7141765697
0.9014649153
0.8733311067
0.9051090028
0.9197976846
0.9127830801
0.9037136559
0.9249536002
0.9343255574
0.9295887099
0.9289334056
0.9214003844
0.9239771535
0.9270635036
0.1499980717
0.1540641401
0.1526606943
0.1510175896
0.1475227948
0.1456067225
0.1442342885
0.1428439468
0.1426909222
0.1429010387
0.1421482641
0.1447087325
0.4791371541
0.8622268172
0.8374325873
0.8785440245
0.9145635075
0.9134653281
0.8966176629
0.9167803277
0.929902588
0.9197404621
0.9205981003
0.9133008917
0.9175598943
0.9220356181
0.1504903272
0.153799405
0.1526995444
0.1510205687
0.1474659549
0.1452725485
0.1441614479
0.1426272897
0.1418322162
0.1425817983
0.1423464434
0.1421816341
0.2063180225
0.6735112912
0.8317675992
0.8617864746
0.9098755257
0.9101831924
0.8811300774
0.8928599089
0.9201358268
0.9050315225
0.907992601
0.9046082045
0.9106359184
0.9161631235
0.150635152
0.1533573501
0.1524281219
0.1505399463
0.1468985688
0.1448623041
0.1438825707
0.1420069845
0.140999436
0.1419990135
0.142187159
0.1421472664
0.1433168744
0.4080320744
0.8288398223
0.8511477619
0.8687193584
0.8779089052
0.8742500835
0.8804534897
0.8903170271
0.8915982825
0.8947861018
0.9006161001
0.9066073953
0.9127479244
0.1506197051
0.1528826026
0.1522159426
0.1502802454
0.1463843356
0.1443992883
0.1430044101
0.1415210813
0.1405064635
0.1414630598
0.1418642503
0.1416878567
0.1422417228
0.1643038091
0.6938616318
0.8715232786
0.8532324057
0.8638225198
0.8802329753
0.8730589504
0.8736558008
0.8837962183
0.8880311031
0.9049395384
0.9108305086
0.9153365275
0.1505434242
0.152512114
0.1520578901
0.1502112291
0.1461805496
0.1439716463
0.1423829896
0.1413263366
0.1402170358
0.1411993704
0.1414463538
0.141719814
0.1425665723
0.1430975554
0.3235400837
0.816622512
0.862799199
0.8672419551
0.9054929972
0.8787069079
0.8677821905
0.8895392742
0.8920572569
0.9160016274
0.9229451263
0.926185584
0.9171848242
0.1502617063
0.1522741884
0.151799277
0.1502111594
0.146090349
0.1435965654
0.1420494717
0.1412310625
0.1399869696
0.1409699411
0.1414393639
0.1423108551
0.1425577334
0.1435533821
0.1475544003
0.5635310002
0.8676666815
0.9000299319
0.9201258714
0.9036184701
0.8821103637
0.9076605561
0.9109112653
0.9196057375
0.9282925663
0.9317688102
0.9275927597
0.1480697386
0.1523961206
0.1514855298
0.1502571006
0.1460086425
0.1434040578
0.1416809065
0.1410814249
0.139807768
0.1408240541
0.141418005
0.1425092262
0.1431575682
0.1440405197
0.1441777753
0.2236962902
0.756059817
0.9012653985
0.9185119454
0.9167655032
0.9097283485
0.9131539946
0.9205533343
0.9162365294
0.9251744303
0.9284194583
0.9313305095
0.1458320594
0.1527754714
0.1509912332
0.15031625
0.1460566809
0.1437704888
0.1415225016
0.1408999806
0.1397069495
0.1407625059
0.1413416659
0.1426148698
0.1434374843
0.1443496291
0.1451369487
0.1461019008
0.4320204317
0.8539570837
0.8929961731
0.9259202919
0.9228591045
0.9108053267
0.9187306301
0.9067864824
0.9203201999
0.9219546578
0.9280782959
0.1455181418
0.1528675214
0.1502185231
0.1503174323
0.1461907047
0.1442604249
0.1421835356
0.1408225738
0.1396139954
0.1407633554
0.1413532665
0.1428317111
0.1435128668
0.1446324512
0.145524084
0.1451295761
0.1676040012
0.6223074223
0.8261613844
0.9253771991
0.9243883984
0.8871453789
0.9122626478
0.8908384233
0.9070444337
0.9018507585
0.9188067144
0.1457548457
0.1524873637
0.1498808658
0.1501755118
0.1462775959
0.1444861155
0.1429757156
0.141091183
0.1395302249
0.1407806614
0.1416838222
0.1432786035
0.1435636736
0.1447493177
0.1456241021
0.1458318243
0.1459244369
0.338623433
0.7476870645
0.8880126802
0.9127149776
0.8684050628
0.8883870264
0.8845793602
0.8912903312
0.8889241054
0.9016906347
0.1465261392
0.1498499942
0.1501699225
0.1498642755
0.1462382037
0.1445165362
0.1430662254
0.1417771923
0.139527973
0.1409248405
0.1427433156
0.143805107
0.1436716601
0.1447419612
0.1455954167
0.1459855997
0.1454538985
0.1500798182
0.615903697
0.8126369169
0.8681064342
0.8617320902
0.8694672398
0.8831604637
0.8846099685
0.8869171718
0.8952966327
0.1494638309
0.1470295647
0.150700216
0.1503141037
0.146468713
0.1445198585
0.1429049216
0.1421887849
0.1398061703
0.1417065481
0.1434668023
0.1440793938
0.1440283493
0.144740983
0.1456154772
0.1458201924
0.1455402495
0.1452921576
0.261866805
0.7087693523
0.8288716402
0.8852403902
0.8674910169
0.9031141256
0.8853806437
0.8980295806
0.8945185662
0.9226858809
0.1515204147
0.1462391992
0.150821969
0.1506435006
0.1469202546
0.1445430647
0.1425638982
0.1423729482
0.1408138069
0.142436901
0.1435055795
0.1440840274
0.1445587811
0.1448068334
0.1456749022
0.1458011547
0.145207493
0.1452880163
0.1476965021
0.481321105
0.7946839527
0.9137106045
0.8861706417
0.9184223713
0.9037905924
0.9214795646
0.9106111769
0.9259465255
0.1517810799
0.146332593
0.1504039987
0.1498189183
0.1470121736
0.1442742667
0.1422528947
0.1424193931
0.1414881197
0.1424508215
0.1430609965
0.1439152361
0.144886283
0.1453427775
0.1459184352
0.1458295022
0.1451200173
0.1449045623
0.1457141707
0.1789727119
0.7202845288
0.9079272035
0.9025709683
0.9177784997
0.9200562612
0.9278528823
0.9278395476
0.9233340333
0.149550562
0.147152897
0.1494463375
0.1492774329
0.1461692939
0.143710417
0.1420864692
0.1422720374
0.1415790183
0.1418828823
0.1424348558
0.1435412105
0.1450547106
0.1461198997
0.1468607713
0.1460173402
0.1451159663
0.1447175111
0.1454116611
0.1468444362
0.4140533059
0.8050889813
0.9082039502
0.9122475786
0.923141697
0.9248740928
0.9293525203
0.9169937
0.1433312344
0.1493666101
0.1485921645
0.1491780473
0.1457253235
0.1435436199
0.1419996381
0.1421632335
0.1414286235
0.1414754736
0.1422420803
0.1433960907
0.1451377981
0.1463266416
0.1474876016
0.1468346278
0.1452429267
0.1447016958
0.1453646478
0.1458999194
0.1512985911
0.5694145566
0.8953120336
0.8701162704
0.9207768423
0.8963481535
0.9252858166
0.9046160686
0.1403868855
0.1502829178
0.148091682
0.1491371737
0.1456651481
0.1436419636
0.1422779921
0.1423985297
0.1414035255
0.1414749762
0.1422687401
0.1433507437
0.1451911994
0.1463479421
0.1476121062
0.1474011759
0.145937925
0.1449244579
0.1453485896
0.1458438636
0.1466022568
0.2959255567
0.7365080894
0.8307709825
0.9098555548
0.8698890385
0.9042697816
0.8985211678
0.1398480844
0.1504828635
0.1478006301
0.1496179264
0.1458077299
0.1440858274
0.1429508359
0.1434480918
0.1425422184
0.1419514002
0.1425273945
0.1434011716
0.1452258464
0.1463164654
0.1476121458
0.1474962853
0.1464236953
0.1456636976
0.145423345
0.1458536775
0.1463820956
0.1494538914
0.5134642562
0.8061296926
0.8792602484
0.8647605034
0.88034555
0.8954512692
0.9141809847
0.1401000867
0.1504280015
0.1476708908
0.1498636944
0.1463200318
0.1445777667
0.1434299817
0.1440540679
0.1439625024
0.1430716186
0.1430951415
0.143559711
0.1451504093
0.1462319681
0.1473477724
0.1474917224
0.1465722476
0.1460616885
0.1459597272
0.1459811267
0.1466255338
0.1474095207
0.2285204895
0.7628691246
0.8421595579
0.8867783499
0.8738972688
0.910233623
0.9108371622
0.1450969889
0.148223754
0.1477156216
0.1497696762
0.1466663443
0.1450122523
0.143878203
0.1443517092
0.1445489696
0.1438518568
0.1437547944
0.1438846519
0.1448869186
0.1461063419
0.146845564
0.147227353
0.1466234034
0.1462225142
0.1463767365
0.1467888581
0.1478052616
0.1485516706
0.1510947039
0.4947075688
0.8006904589
0.9187084934
0.8765557891
0.9237931587
0.902222305
0.1503982903
0.1440244752
0.1475591173
0.1496141487
0.1468470515
0.1453457596
0.1441912143
0.1446430163
0.1448802828
0.144189552
0.144079008
0.1442417465
0.1445827529
0.1459957418
0.146561253
0.1468355928
0.1464457844
0.1461815876
0.1464639265
0.147577603
0.1489564752
0.1503704005
0.1513571579
0.1837211749
0.7144613406
0.9115079321
0.8926448525
0.9235686924
0.8972149564
0.1513472647
0.1428171321
0.1467223496
0.148872704
0.1464652505
0.1449459209
0.1437746153
0.1447515101
0.1452269008
0.1443922445
0.14416865
0.1442412212
0.144326618
0.1458958829
0.1464193852
0.1467156913
0.1463259044
0.1459501986
0.1461875006
0.1478836093
0.1495309666
0.1509892239
0.1533045675
0.1549015763
0.4090202579
0.8217900883
0.9059964266
0.9209337381
0.9083872485
0.151394332
0.1427594418
0.1461337446
0.1483704044
0.1460077091
0.1446817416
0.1434070841
0.1443514742
0.1455803129
0.1446049884
0.1441380915
0.1440370722
0.144172531
0.1457323448
0.1464920157
0.1466863548
0.1463537603
0.1459639103
0.1461931985
0.1477372691
0.1497049757
0.1513009688
0.1538789706
0.156076134
0.1606743485
0.5804530768
0.8996962799
0.8911521536
0.9246360927
0.1496444573
0.1431381762
0.1460650048
0.1482070715
0.1460092245
0.1449679843
0.1437432422
0.1444614975
0.1458351529
0.1448344067
0.1441365739
0.1440224449
0.1440738538
0.1455232397
0.1466026276
0.1467796588
0.1465028167
0.1460753076
0.1463649677
0.1477879304
0.1496398896
0.1511780732
0.1538763624
0.156892682
0.158738908
0.3330388442
0.7817628056
0.8490546032
0.9308271189
0.1415428767
0.1456889108
0.1462468966
0.1481028251
0.146110858
0.1453510335
0.1442695754
0.1449277032
0.1458389046
0.1450398248
0.1444302685
0.1445370326
0.1442833817
0.1450897138
0.1464852297
0.1470619496
0.1474077298
0.1471358845
0.1478536514
0.1484572004
0.1498565196
0.1514568612
0.1540603095
0.1567645103
0.159358173
0.1635375461
0.5505816271
0.8237032298
0.9303964228
0.9350015437
0.1351769323
0.1476994524
0.1466639069
0.1480742044
0.146245285
0.1458802075
0.1451639293
0.1454680508
0.145831487
0.1451972133
0.1450110376
0.1455761165
0.1450431805
0.1444905442
0.1459630622
0.1471848452
0.1480740984
0.1488061441
0.1499410058
0.1507663421
0.1513531789
0.1527073855
0.1546994467
0.1571437862
0.1597985223
0.1617622277
0.2787800951
0.7977328444
0.9063199998
0.9308845516
0.1336334962
0.1481926589
0.1468100619
0.148931711
0.1469409756
0.1469941784
0.1461373834
0.1458966416
0.1461775948
0.145599336
0.1453633468
0.1457722985
0.1452635266
0.1442951215
0.1451804525
0.1469216805
0.148330045
0.149625437
0.1509217048
0.1523107414
0.1536674425
0.1552996061
0.1568286608
0.1590264899
0.1611476221
0.1627336656
0.1664690141
0.5669368574
0.8147019893
0.9169834984
0.1334895566
0.1481974829
0.1459698509
0.1498609698
0.1479031603
0.1481254445
0.1468479272
0.1461603322
0.1464987283
0.1460173133
0.1454841619
0.1456708312
0.1451478084
0.1446295517
0.1449092324
0.1464351972
0.1480887079
0.1499258225
0.1512696726
0.152975196
0.1549212305
0.1573413288
0.1591095222
0.1617675768
0.1645761485
0.1655101713
0.1658465493
0.2346411439
0.7066556133
0.8817136958
0.1372461166
0.1454950211
0.1442117438
0.1500398544
0.148219203
0.1486530392
0.1471655167
0.1458712428
0.1464259406
0.1462634998
0.1454881266
0.1450502273
0.144896483
0.1448816724
0.1448756159
0.1464170429
0.1479437983
0.1496423578
0.1510345654
0.1530539051
0.155438411
0.1583140513
0.1609331273
0.1634775621
0.1664105418
0.1685141763
0.1696161873
0.1710902511
0.504627341
0.8014917089
0.1470220206
0.1405597376
0.143355926
0.1497022511
0.1479547223
0.1484082407
0.1464700905
0.1453574065
0.1459980721
0.1465416312
0.1453587897
0.1442255347
0.1441189727
0.1447941163
0.1449490091
0.1464732064
0.1480618012
0.1497088339
0.1511533788
0.1531102865
0.1555815607
0.158742189
0.1617028184
0.1646614099
0.167226166
0.1698812968
0.171860397
0.1723010476
0.2158209668
0.6656339223
0.1510411799
0.1390511998
0.1430858001
0.1486369197
0.1472378921
0.1477998207
0.1463712485
0.1453889539
0.1459335499
0.1469380525
0.1452934518
0.1438326332
0.1436390073
0.1444283424
0.1457275993
0.1468617537
0.1484952112
0.150063777
0.1515543037
0.1534516142
0.1562224371
0.1589983934
0.1616743643
0.1650417671
0.1675671812
0.1702738575
0.1725072668
0.1749931775
0.1760616295
0.4335639338
0.1517307706
0.1389975244
0.143043462
0.148083527
0.1469849413
0.1477770703
0.1465282238
0.1455551558
0.1461950977
0.1472997179
0.1453272176
0.1436872263
0.1435570791
0.1437982733
0.1464544682
0.1483962726
0.150383833
0.1521175251
0.1536753812
0.1548187205
0.157496552
0.1600013294
0.1620519048
0.1649837312
0.1684228154
0.1704958439
0.1727026628
0.1757494018
0.1769550482
0.1911397872
0.7302196835
0.1499498372
0.1393667463
0.1434539452
0.1478778948
0.1468485263
0.14777203
0.1467884738
0.1462824391
0.1472587262
0.1474900468
0.1453056584
0.1440737376
0.1435968498
0.1436640434
0.1465803807
0.1494358733
0.1520325074
0.1544552908
0.1563481459
0.1581149617
0.1602756519
0.1617005091
0.1641736017
0.1659364729
0.1685602009
0.1717537266
0.1730437598
0.1757270496
0.1772548047
0.1797363115
0.4120146043
0.1422599244
0.1418284192
0.1450758594
0.1478469222
0.1468390781
0.1479887802
0.148038905
0.1476425319
0.1480931128
0.1475730057
0.1450159169
0.1452626627
0.1443734203
0.1436954995
0.146356406
0.1497535717
0.152677807
0.155461787
0.1575107179
0.1599942976
0.162497321
0.1646864186
0.1670567469
0.1694773386
0.1702415403
0.17295789
0.1751831749
0.1761505284
0.1775111395
0.1802076219
0.1872294131
0.1380160098
0.1446903264
0.1457218585
0.1488115549
0.1481157959
0.149765813
0.1501487473
0.1481268873
0.1482838199
0.1473118472
0.1447298118
0.1458384144
0.145610429
0.1442117768
0.1463190015
0.1495889072
0.152652883
0.155747036
0.1578321824
0.1605886751
0.1632604814
0.1665964803
0.1696198499
0.1720124904
0.1739922861
0.1755233213
0.1783296626
0.1784505311
0.1791306081
0.1809250561
0.1835829603
0.1375195855
0.1451690367
0.1455994867
0.1513014062
0.1503166763
0.1517726128
0.1509366009
0.1482568588
0.1482901713
0.1466779747
0.1446916773
0.1459434659
0.1463582689
0.1468901069
0.1466232841
0.1496700314
0.1527130696
0.1557641213
0.1581001376
0.1609540936
0.1632565485
0.167110177
0.1709616104
0.1733771931
0.1759513354
0.1784435755
0.1804148117
0.181844751
0.1834614317
0.1832689537
0.1850869649
0.1380028151
0.145009672
0.1444117337
0.1523887846
0.1513068888
0.1524964021
0.151072081
0.14820871
0.1479472532
0.1463845679
0.1452043455
0.1455060615
0.1468979163
0.1488621482
0.1486259488
0.1506716754
0.1537845598
0.1561634251
0.1585851419
0.1616355097
0.1643548767
0.1672110803
0.1711840877
0.1744188
0.1768719873
0.1794587901
0.1821335649
0.1838960443
0.1857824712
0.1868642126
0.1883022646
0.1429095673
0.1429260206
0.1436670535
0.1521771296
0.1514287259
0.1526542931
0.1509412934
0.1471426378
0.1467667489
0.1464192768
0.1470527301
0.1453460537
0.1471502172
0.1496318515
0.1508341334
0.1536425927
0.1572914749
0.1585160016
0.1600727311
0.1619777782
0.165344911
0.1685298863
0.1714043633
0.1744940982
0.1776697309
0.179587128
0.1828760836
0.1853287108
0.1867708816
0.1886114728
0.1900084945
0.147902246
0.1403653205
0.1432401303
0.1513981589
0.1510663272
0.1525058826
0.1503599064
0.1457943209
0.14579447
0.1465386136
0.1479146475
0.1455093279
0.1472625033
0.1498313857
0.1518366641
0.1554355249
0.1593764683
0.1618307988
0.1637517443
0.1645029024
0.1664233487
0.1698068644
0.1728210691
0.1749836181
0.1779007135
0.1802335432
0.1828976676
0.1859639904
0.1872611465
0.1892669351
0.1905994309
0.1487658207
0.1400013895
0.1433585088
0.1507361113
0.1505161904
0.151913303
0.150000578
0.1452984688
0.1453569833
0.1464401453
0.1479667837
0.146197848
0.1477210955
0.1492621252
0.1520371625
0.1562293142
0.1603248422
0.1637387587
0.1658002619
0.1678254735
0.1704431386
0.1719519406
0.1754297669
0.1778549224
0.178635035
0.1815243893
0.1834675533
0.1860319352
0.1883897667
0.1897824356
0.1908344069
0.194092762
0.1485369885
0.1400164493
0.1450902023
0.151114736
0.1509297175
0.1514681215
0.1496817676
0.1451013204
0.1451514326
0.1461802024
0.1473758861
0.1487477382
0.1492655181
0.1493802149
0.152035457
0.1563149929
0.1605791204
0.164888344
0.1669635305
0.169599112
0.1725092975
0.1754762728
0.177637431
0.1808245578
0.1822769799
0.1835212012
0.1854348465
0.1870725066
0.1887682591
0.190644319
0.1918746982
0.1945264448
0.1481817363
0.1402025834
0.146721322
0.1524501742
0.1528245231
0.152099853
0.1497698534
0.1455006786
0.1454037832
0.1460891182
0.1465510187
0.1500206595
0.1509880995
0.1497720928
0.152544331
0.1562852963
0.1604859123
0.1649673906
0.1679114622
0.170990009
0.1733781983
0.1767608095
0.1796018877
0.1823195388
0.1850877988
0.187458464
0.1890493171
0.1910102739
0.1916296049
0.1922794645
0.1938342143
0.195968498
0.1482140017
0.1406040605
0.1471082735
0.1529731243
0.1534775339
0.1536235824
0.1516822858
0.1475883873
0.1466794797
0.146355653
0.1462549759
0.1500481144
0.1517425011
0.1516913483
0.1543155882
0.1566638244
0.1609631807
0.165156251
0.1681311178
0.1715668309
0.1739421088
0.1769217657
0.1802378666
0.1835092528
0.1863272896
0.1889863636
0.1917054916
0.1940556429
0.1959039642
0.1969626092
0.1978363045
0.1984975311
0.1485507578
0.1409727057
0.1464435777
0.1528929677
0.1532686145
0.153863786
0.1534853934
0.149424904
0.1476476301
0.1470338325
0.1462330202
0.1498088535
0.1520351139
0.155757844
0.1581371748
0.1577479699
0.1623374801
0.1668411685
0.1694141516
0.1718398626
0.1752383694
0.1775659612
0.1800812433
0.1838562338
0.186958477
0.1894239352
0.1928643656
0.1953622533
0.1978896501
0.1996462145
0.2002500362
0.2014432948
0.1505953084
0.1418218864
0.1442268311
0.1524616338
0.1526951186
0.153041744
0.1534526629
0.1498484883
0.1480163227
0.1473660739
0.1470271402
0.1499086678
0.1525646702
0.1577818812
0.1605404483
0.1618782186
0.1648289828
0.1698333564
0.1743685965
0.1748848583
0.1758830802
0.1792171752
0.1809006859
0.1839118564
0.1879305583
0.1896462136
0.1929613368
0.1955818885
0.19860164
0.2006930549
0.2014491533
0.2031262628
0.153823121
0.1430058738
0.143394637
0.151674046
0.1509426746
0.1508513271
0.1519157967
0.1492577315
0.1476748132
0.1474339389
0.1507774751
0.1506609742
0.1556650993
0.1585199316
0.1616161465
0.1651111652
0.1683692441
0.1728213038
0.177146585
0.1799374421
0.1807508628
0.1805563612
0.183404879
0.184933623
0.1881226749
0.1905015645
0.1934372592
0.1957090974
0.1985561775
0.2006505151
0.2020691329
0.2038025936
0.1553810705
0.1436409534
0.1432017813
0.1510113037
0.1489816741
0.1495622954
0.1508621622
0.1484333874
0.1469643694
0.1475167953
0.1534651912
0.1536821996
0.1583688889
0.159069898
0.1619244667
0.1664072557
0.1705249091
0.1748195088
0.1786597285
0.1820616502
0.1845835965
0.1854638163
0.1865466812
0.1883461096
0.1903991226
0.1932938064
0.1952811783
0.196784522
0.1990932086
0.2009742967
0.2024354993
0.2042094569
0.2063743283
0.1560096546
0.1440737221
0.1434198544
0.1506803622
0.1480378813
0.1491546107
0.1504889218
0.1483613935
0.1470127663
0.1478413054
0.154269364
0.1562216263
0.1591916844
0.1602824637
0.1632539716
0.1669267251
0.17095173
0.1754626581
0.1796431497
0.1829950795
0.1859333515
0.1882225407
0.189701068
0.1915544722
0.1946386165
0.1973840113
0.1995004052
0.2008637508
0.2006752086
0.2026054018
0.2049026992
0.2051238537
0.2077645179
0.1553163852
0.144966836
0.1463671519
0.1515132474
0.1479463063
0.1496381518
0.1505726613
0.1495372992
0.1484004839
0.1495450557
0.1536670139
0.1572209004
0.159318422
0.1627387639
0.1647367099
0.1680255622
0.1712560519
0.1750781208
0.1800360488
0.1839127508
0.1863124614
0.1892992545
0.1913923063
0.1934186245
0.1967275817
0.2001543167
0.2022574807
0.2040489566
0.2050435922
0.206982018
0.209666344
0.2092619387
0.2087570729
0.1465025472
0.1469910672
0.1496388157
0.1520137214
0.1488137688
0.1504736385
0.1517891956
0.1519532177
0.1518469692
0.1523133352
0.1528543298
0.1571754791
0.1597979548
0.1668841198
0.1674333441
0.1686831402
0.1726133001
0.1756297728
0.1802084676
0.1844913298
0.1874127044
0.189509303
0.1915973992
0.1946677552
0.1975633848
0.2013346237
0.2036522123
0.2055133633
0.2076765262
0.2097388421
0.2120969072
0.2128967605
0.2130487066
0.1383891676
0.1484088256
0.1501953747
0.15203511
0.1488343554
0.1506143939
0.1526915478
0.1530572169
0.1538161834
0.1543146464
0.1529627374
0.1568655236
0.1601732135
0.1683588096
0.1728460299
0.1739338766
0.1739380738
0.1771873033
0.1813314375
0.185583617
0.1896990666
0.1910200834
0.1919845342
0.1947600396
0.1978752292
0.2015753118
0.2040840467
0.2061781415
0.2091109862
0.2106747149
0.2129301665
0.2144302818
0.2158824577
0.1373232567
0.1487289093
0.1490102209
0.1519616669
0.1487677664
0.150572488
0.1528086352
0.1533745204
0.1545399945
0.1554306128
0.1537577861
0.1572409156
0.1625536182
0.1685599552
0.174959738
0.1786563391
0.180233392
0.1813326485
0.186021074
0.1905121861
0.1930042853
0.1944994872
0.194238956
0.195369291
0.1988825304
0.2020787208
0.2045142325
0.206574412
0.2096422989
0.2108772824
0.2128633397
0.2149458585
0.2171047525
0.1389089317
0.1485223188
0.1440270183
0.1511237212
0.1481803434
0.1497046646
0.1524366277
0.1531319936
0.1542977376
0.1560829521
0.1588243106
0.1597248589
0.166110472
0.1698096456
0.1756854746
0.1805386436
0.1841146544
0.1868394569
0.1901633955
0.1943228185
0.197647507
0.1987317935
0.1999153134
0.1995868659
0.2010557525
0.2039059461
0.2062757019
0.2075153171
0.2099996972
0.2113073291
0.2134133406
0.2152138499
0.2173185016
0.1536983021
0.1467801586
0.1409248831
0.1494975014
0.1470745381
0.1490770572
0.1527293901
0.1535152836
0.1546958306
0.1566559452
0.1635585473
0.1655157668
0.168772015
0.1702602585
0.1767478306
0.181112529
0.1855890525
0.1893163782
0.1922699962
0.1958191205
0.1994425215
0.2021916376
0.203802206
0.2051010073
0.2065376788
0.2089246287
0.2115497859
0.2118660329
0.2119442421
0.2135636304
0.2152326967
0.2163476885
0.2177850034
0.1688071543
0.1460693895
0.1397056196
0.1488162369
0.1469814541
0.1493799138
0.1535486403
0.1548367625
0.156362051
0.1576307302
0.1651156063
0.1690391867
0.1716309199
0.1724563984
0.1775745029
0.1824687178
0.1859912119
0.190252136
0.1933866438
0.1960762061
0.1996992479
0.2032536887
0.205813597
0.2076977185
0.2095032176
0.2125011595
0.2149792278
0.2165351464
0.2168777869
0.2183868043
0.219616646
0.2202486328
0.2197875835
0.2223191017
0.1724531061
0.1461122424
0.1391436909
0.1485340265
0.1473965235
0.1521038293
0.1571631402
0.1599738571
0.1614201876
0.1604417284
0.165034709
0.1705281117
0.1731678169
0.1783544869
0.1787646624
0.1838310384
0.1873274192
0.190643704
0.1931623031
0.1961406811
0.1995374152
0.2032750887
0.2066574233
0.2089593547
0.210784497
0.2140528998
0.2163101651
0.2185145786
0.2199821471
0.2211609541
0.222444094
0.2241752733
0.2246784413
0.2261137173
0.1730011725
0.1465841811
0.140051183
0.1491000525
0.1487509964
0.1549474888
0.1600700604
0.1640229936
0.1646132588
0.1630283154
0.1646231327
0.1708778396
0.173782971
0.1815136756
0.1846484903
0.1869522053
0.1897256816
0.1923097768
0.1942486653
0.1970821776
0.2004147993
0.2039459633
0.2071265466
0.2098185321
0.2114924593
0.2146802988
0.2167304777
0.2192030366
0.2211139352
0.2222261845
0.2237324566
0.2258152493
0.2278033628
0.2281763873
0.1651594061
0.1465099285
0.1430387451
0.1514322051
0.1530080587
0.1567271219
0.1612218996
0.1652721363
0.1660030055
0.1673677375
0.1652953889
0.1714234013
0.1768532823
0.1830462545
0.1891306506
0.1932975654
0.1954970207
0.1978301476
0.1994587168
0.2017413243
0.2043644351
0.2065315544
0.2086682302
0.2110672404
0.2125260124
0.2152753399
0.2175425252
0.2197333209
0.2214582821
)
;

boundaryField
{
    inlet
    {
        type            fixedValue;
        value           nonuniform 0();
    }
    outlet
    {
        type            zeroGradient;
    }
    bottom
    {
        type            slip;
    }
    top
    {
        type            slip;
    }
    obstacle
    {
        type            zeroGradient;
    }
    defaultFaces
    {
        type            empty;
    }
    procBoundary21to15
    {
        type            processor;
        value           nonuniform List<scalar> 
24
(
0.8975071718
0.8860109854
0.8611825061
0.8381832149
0.8586179623
0.8599174342
0.8638883989
0.8684455217
0.8812964177
0.8954941916