/*--------------------------------*- C++ -*----------------------------------*\
  =========                 |
  \\      /  F ield         | OpenFOAM: The Open Source CFD Toolbox
   \\    /   O peration     | Website:  https://openfoam.org
    \\  /    A nd           | Version:  7
     \\/     M anipulation  |
\*---------------------------------------------------------------------------*/
FoamFile
{
    version     2.0;
    format      ascii;
    class       volVectorField;
    location    "1.6";
    object      U;
}
// * * * * * * * * * * * * * * * * * * * * * * * * * * * * * * * * * * * * * //

dimensions      [0 1 -1 0 0 0 0];

internalField   nonuniform List<vector> 
80000
(
(3 8.211293856e-16 0)
(3 -3.331152262e-16 0)
(3 5.432744024e-16 0)
(3 1.367617046e-15 0)
(3 -2.787195061e-16 0)
(3 7.028956056e-16 0)
(3 2.928572627e-15 0)
(3 8.458436833e-16 0)
(3 -2.772890649e-15 0)
(3 -2.22464321e-15 0)
(3 -2.539539088e-15 0)
(3 -7.52614435e-16 0)
(3 3.210391491e-16 0)
(3 -9.622732841e-16 0)
(3 -8.233996924e-16 0)
(3 -1.289411778e-15 0)
(3 -1.734920697e-15 0)
(3 -2.759964703e-16 0)
(3 1.013857676e-15 0)
(3 1.481959932e-15 0)
(3 2.90540407e-15 0)
(3 4.003548274e-15 0)
(3 5.396875654e-15 0)
(3 2.674576036e-15 0)
(3 2.280559061e-15 0)
(3 2.243959709e-15 0)
(3 2.647329832e-15 0)
(3 -1.182787184e-15 0)
(3 2.082758903e-16 0)
(3 2.810799129e-16 0)
(3 -1.457868276e-15 0)
(3 3.691888811e-16 0)
(3 1.007276392e-15 0)
(3 1.109545126e-17 0)
(3 -1.650762991e-15 0)
(3 -6.158812635e-16 0)
(3 -1.849372254e-15 0)
(3 -5.919384767e-15 0)
(3 -2.2390992e-15 0)
(3 -3.510655712e-15 0)
(3 -7.375448832e-15 0)
(3 -4.131886705e-15 0)
(3 -1.012563134e-15 0)
(3 3.630334479e-15 0)
(3 7.521878912e-15 0)
(3 1.018172145e-14 0)
(3 3.450267339e-15 0)
(3 5.192017766e-15 0)
(3 4.883817908e-15 0)
(3 5.341257963e-15 0)
(3 2.733925029e-15 0)
(3 -1.369807105e-15 0)
(3 -4.934899693e-16 0)
(3 4.382274553e-15 0)
(3 4.092633124e-15 0)
(3 1.679748251e-15 0)
(3 -1.949278034e-16 0)
(3 8.323241045e-16 0)
(3 8.628633119e-17 0)
(3 -2.521682393e-15 0)
(3 -1.931271896e-15 0)
(3 -1.387799056e-15 0)
(3 2.66673791e-16 0)
(3 -1.720304441e-15 0)
(3 -7.770293158e-15 0)
(3 -4.069963664e-15 0)
(3 -2.310258236e-15 0)
(3 3.573023724e-17 0)
(3 -1.262702957e-15 0)
(3 -1.733577692e-16 0)
(3 2.773066559e-15 0)
(3 5.26277484e-15 0)
(3 8.542348988e-15 0)
(3 2.726306042e-15 0)
(3 9.06356793e-16 0)
(3 -2.578831743e-15 0)
(3 -3.88852329e-15 0)
(3 -8.523232597e-15 0)
(3 -8.02888564e-15 0)
(3 -9.723862033e-15 0)
(3 -8.869276952e-15 0)
(3 -6.652256954e-15 0)
(3 -5.153099705e-15 0)
(3 -4.419213637e-15 0)
(3 -5.20567825e-15 0)
(3 -5.398565408e-15 0)
(3 -4.899513286e-15 0)
(3 -1.258812753e-15 0)
(3 2.027185052e-16 0)
(3 5.251445977e-15 0)
(3 5.842244159e-15 0)
(3 4.659747342e-15 0)
(3 3.275353286e-15 0)
(3 -7.886635054e-16 0)
(3 -3.966497146e-15 0)
(3 -6.627229123e-15 0)
(3 -8.21489778e-15 0)
(3 -7.803434526e-15 0)
(3 -6.126913411e-15 0)
(3 -6.173066579e-15 0)
(3 1.224950296e-15 0)
(3 2.030237782e-15 0)
(3 -1.700501192e-16 0)
(3 -1.189401669e-15 0)
(3 -5.886548969e-16 0)
(3 1.003202039e-15 0)
(3 3.368502159e-15 0)
(3 2.969984024e-15 0)
(3 -2.133230167e-16 0)
(3 -3.07845744e-15 0)
(3 -1.78750048e-15 0)
(3 2.655165284e-15 0)
(3 2.005419083e-15 0)
(3 8.657675897e-16 0)
(3 2.322287039e-15 0)
(3 2.210306884e-15 0)
(3 2.481855958e-15 0)
(3 1.031806117e-15 0)
(3 -1.197605436e-17 0)
(3 -6.771861636e-16 0)
(3 1.12815239e-16 0)
(3 -2.292742069e-16 0)
(3 3.089129484e-15 0)
(3 2.227080117e-15 0)
(3 9.455638415e-16 0)
(3 2.075942317e-15 0)
(3 6.068669921e-15 0)
(3 -5.948067438e-16 0)
(3 -4.344881705e-15 0)
(3 -3.919676226e-15 0)
(3 -8.774897538e-15 0)
(3 -5.702313617e-15 0)
(3 -3.668263277e-15 0)
(3 -3.432524463e-15 0)
(3 -4.435969305e-15 0)
(3 -4.961637364e-15 0)
(3 -1.048827781e-14 0)
(3 -1.105065346e-14 0)
(3 -7.776771616e-15 0)
(3 -1.412352051e-14 0)
(3 -1.670647369e-14 0)
(3 -8.286195631e-15 0)
(3 4.655724194e-15 0)
(3 1.331333475e-14 0)
(3 1.713830288e-14 0)
(3 1.634946333e-14 0)
(3 1.06167716e-14 0)
(3 1.047474957e-14 0)
(3 5.026095488e-15 0)
(3 4.247636146e-15 0)
(3 3.60162052e-15 0)
(3 3.372886219e-15 0)
(3 2.639158303e-15 0)
(3 3.868551226e-15 0)
(3 2.729004664e-15 0)
(3 6.057021028e-16 0)
(3 -1.108990364e-15 0)
(3 -6.326262439e-16 0)
(3 1.111455226e-15 0)
(3 -1.65208179e-15 0)
(3 -3.125352134e-15 0)
(3 -5.477720136e-15 0)
(3 -4.692161711e-15 0)
(3 -1.045617717e-14 0)
(3 -2.08647708e-14 0)
(3 -1.439467713e-14 0)
(3 -9.690999225e-15 0)
(3 -4.219071537e-15 0)
(3 -3.138281591e-15 0)
(3 3.334391523e-15 0)
(3 5.587964156e-15 0)
(3 1.345989538e-14 0)
(3 1.448728617e-14 0)
(3 4.20011355e-15 0)
(3 -1.77547774e-15 0)
(3 -1.081031668e-14 0)
(3 -1.544924726e-14 0)
(3 -1.762591858e-14 0)
(3 -1.52246945e-14 0)
(3 -1.503321277e-14 0)
(3 -1.382799909e-14 0)
(3 -1.10822169e-14 0)
(3 -1.029020951e-14 0)
(3 -1.196309634e-14 0)
(3 -1.230504419e-14 0)
(3 -1.103772918e-14 0)
(3 -8.856659164e-15 0)
(3 2.867073062e-15 0)
(3 1.226858233e-14 0)
(3 1.376618941e-14 0)
(3 1.213575477e-14 0)
(3 6.246643675e-15 0)
(3 -7.13993649e-16 0)
(3 -9.694168394e-15 0)
(3 -1.403799202e-14 0)
(3 -2.21774168e-14 0)
(3 -2.255821046e-14 0)
(3 -2.185023805e-14 0)
(3 -1.405566564e-14 0)
(3 -7.58756942e-15 0)
(3 -1.559782729e-15 0)
(3 2.297278138e-15 0)
(3 8.842789706e-16 0)
(3 6.865794611e-16 0)
(3 1.008271584e-16 0)
(3 3.152827819e-15 0)
(3 2.311397484e-15 0)
(3 1.71441905e-15 0)
(3 1.224967879e-15 0)
(3 -1.774487521e-15 0)
(3 -1.425927275e-15 0)
(3 -1.767024279e-15 0)
(3 2.250526202e-16 0)
(3 6.611488975e-15 0)
(3 7.21014665e-15 0)
(3 7.619562454e-15 0)
(3 6.230577068e-15 0)
(3 8.972983036e-16 0)
(3 -1.715211299e-15 0)
(3 3.096729314e-16 0)
(3 7.410461453e-16 0)
(3 7.670833095e-16 0)
(3 2.999951142e-15 0)
(3 1.639957372e-15 0)
(3 1.344546783e-15 0)
(3 4.294555938e-15 0)
(3 1.121087612e-14 0)
(3 9.134369365e-15 0)
(3 7.65270624e-16 0)
(3 -3.137646934e-15 0)
(3 -3.681589111e-15 0)
(3 -7.565859444e-15 0)
(3 -7.176390255e-15 0)
(3 -7.182303257e-15 0)
(3 -3.669891586e-15 0)
(3 -8.167169171e-15 0)
(3 -1.220765338e-14 0)
(3 -1.485250691e-14 0)
(3 -1.771540156e-14 0)
(3 -1.79962464e-14 0)
(3 -1.555445725e-14 0)
(3 -1.10789634e-14 0)
(3 -3.269248301e-15 0)
(3 -2.870469612e-15 0)
(3 3.030751177e-15 0)
(3 7.091673332e-15 0)
(3 1.068042116e-14 0)
(3 1.233501772e-14 0)
(3 1.128276361e-14 0)
(3 7.141532445e-15 0)
(3 7.762604913e-15 0)
(3 9.470949477e-15 0)
(3 1.181057161e-14 0)
(3 1.068080138e-14 0)
(3 9.727628158e-15 0)
(3 7.65193911e-15 0)
(3 6.137754904e-15 0)
(3 1.485540809e-15 0)
(3 3.051726361e-16 0)
(3 -5.713269493e-16 0)
(3 -6.368701197e-15 0)
(3 -5.712361145e-15 0)
(3 -5.136204095e-15 0)
(3 -1.845372582e-14 0)
(3 -2.299981615e-14 0)
(3 -2.201275049e-14 0)
(3 -1.8406749e-14 0)
(3 -1.155004136e-14 0)
(3 -3.741985693e-15 0)
(3 7.596140208e-15 0)
(3 1.354400676e-14 0)
(3 1.17136634e-14 0)
(3 1.223072344e-14 0)
(3 7.314796934e-15 0)
(3 -1.614071656e-16 0)
(3 -6.966950517e-15 0)
(3 -1.493439407e-14 0)
(3 -1.007722302e-14 0)
(3 -5.41776114e-15 0)
(3 -6.84564831e-16 0)
(3 -2.82416913e-15 0)
(3 -6.284624543e-15 0)
(3 -5.502895309e-15 0)
(3 -4.470362601e-15 0)
(3 -4.73830616e-15 0)
(3 -5.560969095e-15 0)
(3 1.831046755e-15 0)
(3 6.953613339e-15 0)
(3 7.354086181e-15 0)
(3 1.577723397e-15 0)
(3 -2.010436395e-15 0)
(3 -3.825721754e-15 0)
(3 -2.954974646e-15 0)
(3 -5.801461621e-15 0)
(3 -1.10047351e-14 0)
(3 -1.8588138e-14 0)
(3 -2.351258099e-14 0)
(3 -2.298294033e-14 0)
(3 -1.695333546e-14 0)
(3 -1.020792884e-14 0)
(3 -1.650092827e-15 0)
(3 -3.494124486e-15 0)
(3 -3.561797035e-15 0)
(3 -1.028954307e-15 0)
(3 -3.301349343e-15 0)
(3 -1.151834462e-15 0)
(3 -1.410282259e-15 0)
(3 -1.830144782e-15 0)
(3 -7.589426556e-16 0)
(3 -4.092309343e-16 0)
(3 -1.100252577e-15 0)
(3 -1.552177645e-15 0)
(3 1.362970502e-15 0)
(3 2.946345237e-15 0)
(3 3.588852038e-15 0)
(3 4.42001181e-15 0)
(3 3.899759027e-15 0)
(3 4.151923941e-15 0)
(3 5.499075045e-15 0)
(3 4.445623995e-15 0)
(3 3.662744716e-15 0)
(3 6.400122318e-15 0)
(3 6.296580968e-15 0)
(3 7.394652441e-15 0)
(3 8.962743965e-15 0)
(3 7.73535058e-15 0)
(3 4.88439934e-15 0)
(3 2.503368505e-15 0)
(3 -5.232629466e-16 0)
(3 -6.183695903e-15 0)
(3 -5.160718543e-15 0)
(3 -4.023514321e-15 0)
(3 -3.935435287e-15 0)
(3 -3.521214337e-15 0)
(3 -7.847319047e-15 0)
(3 -1.135506101e-14 0)
(3 -1.096608556e-14 0)
(3 -1.16723287e-14 0)
(3 -1.454194967e-14 0)
(3 -1.350104542e-14 0)
(3 -1.087913554e-14 0)
(3 -5.516980942e-15 0)
(3 -5.979203026e-15 0)
(3 -3.916288254e-15 0)
(3 -2.763033323e-16 0)
(3 5.666031291e-15 0)
(3 9.896601286e-15 0)
(3 1.357440239e-14 0)
(3 1.500070771e-14 0)
(3 1.380474736e-14 0)
(3 1.395807125e-14 0)
(3 1.938744322e-14 0)
(3 1.977535314e-14 0)
(3 1.79256368e-14 0)
(3 2.072025778e-14 0)
(3 1.715901673e-14 0)
(3 1.315681169e-14 0)
(3 4.897215789e-15 0)
(3 -6.725607846e-16 0)
(3 -8.087463916e-15 0)
(3 -9.241117703e-15 0)
(3 -8.430376034e-15 0)
(3 -7.957590039e-15 0)
(3 -1.471759989e-14 0)
(3 -1.668150832e-14 0)
(3 -1.784236501e-14 0)
(3 -1.158656512e-14 0)
(3 -6.437939378e-15 0)
(3 -1.282714537e-15 0)
(3 4.667361219e-15 0)
(3 1.343306865e-14 0)
(3 9.201414807e-15 0)
(3 2.422448498e-15 0)
(3 -1.688547204e-16 0)
(3 -3.839764606e-15 0)
(3 -2.558027795e-15 0)
(3 -3.829608051e-15 0)
(3 -8.519188855e-15 0)
(3 -8.062144014e-15 0)
(3 -2.94949819e-15 0)
(3 -1.471940974e-15 0)
(3 -4.647163598e-15 0)
(3 -5.75924034e-15 0)
(3 -6.069254845e-15 0)
(3 -6.304296043e-15 0)
(3 -3.458360988e-15 0)
(3 -2.083191971e-15 0)
(3 -2.493821471e-16 0)
(3 3.899041449e-15 0)
(3 7.474306085e-15 0)
(3 6.058105704e-15 0)
(3 3.399504364e-16 0)
(3 -3.602261727e-15 0)
(3 -1.112746542e-14 0)
(3 -1.909698668e-14 0)
(3 -1.753072222e-14 0)
(3 -1.415895382e-14 0)
(3 -1.512956766e-14 0)
(3 -1.307099424e-14 0)
(3 -1.198588198e-14 0)
(3 2.21393523e-15 0)
(3 1.017239198e-15 0)
(3 -1.844014043e-15 0)
(3 -6.018712987e-15 0)
(3 -4.867231262e-15 0)
(3 -4.317919581e-15 0)
(3 -3.121298398e-15 0)
(3 -1.023966382e-15 0)
(3 -4.163290747e-15 0)
(3 -2.513583698e-15 0)
(3 -4.887068659e-15 0)
(3 -1.413450282e-15 0)
(3 1.338106454e-16 0)
(3 -1.023841232e-15 0)
(3 1.091645938e-15 0)
(3 3.263131158e-15 0)
(3 7.241059839e-15 0)
(3 1.109757245e-14 0)
(3 7.593296153e-15 0)
(3 4.552896834e-15 0)
(3 6.106458394e-16 0)
(3 3.543210449e-15 0)
(3 2.421957962e-15 0)
(3 5.02315449e-15 0)
(3 5.040521032e-15 0)
(3 4.845188741e-15 0)
(3 2.047540668e-17 0)
(3 -2.677623349e-15 0)
(3 -6.07639713e-16 0)
(3 -4.030455157e-15 0)
(3 -5.796351435e-15 0)
(3 -6.557373176e-15 0)
(3 -6.844718701e-15 0)
(3 -7.111267072e-15 0)
(3 -9.555453483e-15 0)
(3 -9.727215531e-15 0)
(3 -1.06821575e-14 0)
(3 -9.508795845e-15 0)
(3 -1.213429672e-14 0)
(3 -1.190029592e-14 0)
(3 -1.242861937e-14 0)
(3 -1.194336773e-14 0)
(3 -1.3270033e-14 0)
(3 -4.810830486e-15 0)
(3 -4.476741578e-16 0)
(3 4.627159892e-15 0)
(3 3.91825284e-15 0)
(3 8.154694121e-15 0)
(3 1.163700485e-14 0)
(3 1.348212338e-14 0)
(3 1.484202606e-14 0)
(3 1.428239946e-14 0)
(3 1.567146891e-14 0)
(3 1.495741703e-14 0)
(3 1.433923303e-14 0)
(3 1.215261493e-14 0)
(3 7.168690276e-15 0)
(3 1.287149833e-15 0)
(3 -3.173719336e-15 0)
(3 -8.712765945e-15 0)
(3 -1.170174628e-14 0)
(3 -1.491299721e-14 0)
(3 -1.608641387e-14 0)
(3 -8.462733216e-15 0)
(3 -4.233953595e-15 0)
(3 5.707802867e-16 0)
(3 -1.545656681e-16 0)
(3 -3.146581758e-15 0)
(3 -3.868517169e-15 0)
(3 -5.706810807e-16 0)
(3 5.973812578e-15 0)
(3 7.429825055e-15 0)
(3 6.316643829e-15 0)
(3 8.355264422e-16 0)
(3 -3.976851899e-16 0)
(3 3.289768741e-16 0)
(3 4.067772338e-15 0)
(3 3.08410689e-15 0)
(3 -2.878470359e-16 0)
(3 -4.384031718e-15 0)
(3 -7.52887681e-15 0)
(3 -8.421118435e-15 0)
(3 -9.899818293e-15 0)
(3 -1.14019936e-14 0)
(3 -9.299836594e-15 0)
(3 -6.364607524e-15 0)
(3 -7.104123453e-15 0)
(3 -8.232248724e-15 0)
(3 -7.808622057e-15 0)
(3 -4.301454483e-15 0)
(3 -5.114825843e-15 0)
(3 -3.486428023e-15 0)
(3 -4.441690207e-15 0)
(3 -8.182036788e-15 0)
(3 -9.689282439e-15 0)
(3 -1.222369547e-14 0)
(3 -1.490637817e-14 0)
(3 -1.616482893e-14 0)
(3 -1.583688656e-14 0)
(3 -1.378222891e-14 0)
(3 2.069296728e-15 0)
(3 2.722498709e-15 0)
(3 2.96995907e-15 0)
(3 2.424221427e-15 0)
(3 8.850101668e-16 0)
(3 -1.851596444e-15 0)
(3 -2.334971943e-15 0)
(3 -5.844564101e-15 0)
(3 -8.031272299e-15 0)
(3 -8.935990301e-15 0)
(3 -4.852572103e-15 0)
(3 -1.242248988e-15 0)
(3 -3.735114061e-16 0)
(3 4.339561208e-16 0)
(3 5.118002676e-16 0)
(3 6.763881647e-15 0)
(3 8.170087139e-15 0)
(3 9.22441679e-15 0)
(3 9.311790292e-15 0)
(3 8.960781991e-15 0)
(3 5.343171758e-15 0)
(3 3.290660961e-15 0)
(3 2.824203248e-15 0)
(3 1.649859752e-15 0)
(3 3.372368108e-15 0)
(3 5.737291583e-15 0)
(3 4.96888383e-15 0)
(3 5.903597773e-15 0)
(3 5.29095271e-15 0)
(3 7.182353051e-16 0)
(3 -6.311016902e-15 0)
(3 -5.809193855e-15 0)
(3 -5.227695478e-15 0)
(3 -5.462483025e-15 0)
(3 -7.410483819e-15 0)
(3 -6.547498977e-15 0)
(3 -6.505188367e-15 0)
(3 -6.718167545e-15 0)
(3 -7.864616288e-15 0)
(3 -8.319878959e-15 0)
(3 -7.895808531e-15 0)
(3 -7.92069812e-15 0)
(3 -5.761269551e-15 0)
(3 -3.09622169e-15 0)
(3 -1.776660109e-15 0)
(3 3.698468695e-15 0)
(3 2.526959098e-15 0)
(3 4.305280406e-15 0)
(3 6.500447469e-15 0)
(3 8.721907532e-15 0)
(3 1.474634002e-14 0)
(3 1.430009765e-14 0)
(3 1.355526414e-14 0)
(3 1.185247956e-14 0)
(3 1.143579707e-14 0)
(3 6.763931496e-15 0)
(3 7.576854604e-16 0)
(3 -2.404690563e-15 0)
(3 -4.190081847e-15 0)
(3 -6.077791978e-15 0)
(3 -9.986457436e-15 0)
(3 -1.632837897e-14 0)
(3 -1.630794409e-14 0)
(3 -1.16163461e-14 0)
(3 -3.593810114e-15 0)
(3 1.363059602e-14 0)
(3 1.578439741e-14 0)
(3 1.172151805e-14 0)
(3 7.630723004e-15 0)
(3 5.019400005e-15 0)
(3 6.0585831e-15 0)
(3 3.173035984e-15 0)
(3 3.50016848e-15 0)
(3 4.058438058e-15 0)
(3 1.90298003e-15 0)
(3 1.150499069e-15 0)
(3 -1.572575432e-17 0)
(3 3.190478353e-15 0)
(3 3.009085243e-15 0)
(3 4.835806704e-16 0)
(3 -2.319792639e-15 0)
(3 2.521687337e-17 0)
(3 -1.746943604e-15 0)
(3 9.470359185e-16 0)
(3 -1.237350863e-16 0)
(3 -5.356009528e-15 0)
(3 -6.236139853e-15 0)
(3 -1.260409594e-14 0)
(3 -1.533693856e-14 0)
(3 -1.74230094e-14 0)
(3 -1.824500613e-14 0)
(3 -1.637815889e-14 0)
(3 -1.544269586e-14 0)
(3 -1.582436589e-14 0)
(3 -1.515580918e-14 0)
(3 -1.483669217e-14 0)
(3 -1.456935612e-14 0)
(3 -1.308382519e-14 0)
(3 -1.025407403e-14 0)
(3 -8.307021149e-15 0)
(3 3.861385188e-16 0)
(3 -8.132436146e-16 0)
(3 2.3165033e-15 0)
(3 4.320608749e-15 0)
(3 2.841889482e-15 0)
(3 1.020770598e-15 0)
(3 -5.413916109e-16 0)
(3 -2.667694309e-15 0)
(3 1.154042811e-15 0)
(3 5.313335497e-15 0)
(3 7.590622802e-15 0)
(3 7.908122762e-15 0)
(3 3.648175927e-15 0)
(3 2.039610323e-15 0)
(3 3.179159409e-16 0)
(3 4.580753271e-16 0)
(3 2.532924322e-15 0)
(3 4.801535574e-15 0)
(3 7.834555327e-15 0)
(3 8.462655829e-15 0)
(3 1.089683776e-14 0)
(3 8.372058276e-15 0)
(3 7.490234631e-15 0)
(3 5.675976867e-15 0)
(3 1.97739974e-15 0)
(3 1.949758832e-15 0)
(3 2.988718559e-15 0)
(3 5.111835971e-15 0)
(3 4.366371929e-15 0)
(3 1.078947332e-15 0)
(3 -5.610171253e-15 0)
(3 -6.38738952e-15 0)
(3 -5.186031708e-15 0)
(3 -6.876623943e-15 0)
(3 -4.095756592e-15 0)
(3 -9.99033658e-16 0)
(3 -5.893078749e-16 0)
(3 -3.726244503e-15 0)
(3 -2.646780772e-15 0)
(3 -8.10020971e-16 0)
(3 -2.713340499e-15 0)
(3 -2.914822284e-15 0)
(3 -1.366392338e-15 0)
(3 -3.900821116e-16 0)
(3 -7.070047807e-16 0)
(3 1.024594401e-16 0)
(3 8.156190863e-16 0)
(3 1.089934449e-15 0)
(3 1.600622496e-15 0)
(3 7.892435153e-15 0)
(3 8.241238486e-15 0)
(3 7.811950821e-15 0)
(3 5.605642684e-15 0)
(3 6.829523773e-15 0)
(3 8.210744488e-15 0)
(3 6.16218639e-15 0)
(3 2.368732636e-15 0)
(3 1.608719557e-16 0)
(3 1.008000473e-15 0)
(3 2.490130057e-15 0)
(3 -1.018776276e-15 0)
(3 -4.294435951e-15 0)
(3 -5.123931338e-15 0)
(3 -5.397777073e-15 0)
(3 -1.095651324e-15 0)
(3 5.627748453e-15 0)
(3 1.416161576e-14 0)
(3 1.21462234e-14 0)
(3 1.068202832e-14 0)
(3 1.01622266e-14 0)
(3 4.771167554e-15 0)
(3 3.297180432e-15 0)
(3 5.169614845e-16 0)
(3 7.895913584e-16 0)
(3 4.445893433e-16 0)
(3 1.269112623e-15 0)
(3 -2.281742562e-15 0)
(3 -3.274746068e-15 0)
(3 -3.967130644e-15 0)
(3 -1.517628313e-15 0)
(3 1.427617878e-15 0)
(3 2.956385285e-15 0)
(3 9.148290152e-16 0)
(3 1.263920763e-15 0)
(3 2.560396028e-15 0)
(3 1.030227241e-15 0)
(3 -2.598641499e-15 0)
(3 -6.401041593e-15 0)
(3 -8.109904995e-15 0)
(3 -1.425450784e-14 0)
(3 -1.72056803e-14 0)
(3 -2.298370504e-14 0)
(3 -2.346135599e-14 0)
(3 -2.137738966e-14 0)
(3 -1.954394448e-14 0)
(3 -1.457178711e-14 0)
(3 -6.874368313e-15 0)
(3 -2.480230188e-15 0)
(3 -2.393582741e-15 0)
(3 -4.69607431e-15 0)
(3 -3.965358607e-17 0)
(3 -1.945976325e-15 0)
(3 -1.492817896e-15 0)
(3 -2.913529584e-15 0)
(3 -1.927756996e-15 0)
(3 2.066228419e-16 0)
(3 3.31768197e-15 0)
(3 3.391141382e-15 0)
(3 3.120272677e-15 0)
(3 3.678779493e-15 0)
(3 4.060680992e-15 0)
(3 2.805838838e-15 0)
(3 1.528159523e-15 0)
(3 1.57971246e-15 0)
(3 2.058712759e-15 0)
(3 -1.049661219e-15 0)
(3 -4.511105724e-16 0)
(3 3.092536396e-15 0)
(3 7.593139641e-16 0)
(3 3.072383854e-15 0)
(3 5.942834486e-15 0)
(3 5.729024866e-15 0)
(3 5.02159886e-15 0)
(3 6.133198763e-15 0)
(3 2.606118603e-15 0)
(3 1.63940463e-15 0)
(3 1.608583579e-15 0)
(3 1.890636512e-15 0)
(3 2.580101965e-15 0)
(3 2.302952393e-15 0)
(3 3.881638351e-15 0)
(3 -3.229732697e-16 0)
(3 -2.006528035e-15 0)
(3 -2.938276895e-15 0)
(3 -8.913948291e-16 0)
(3 3.797801373e-16 0)
(3 1.252381875e-15 0)
(3 -1.650677174e-15 0)
(3 -1.422822202e-15 0)
(3 -2.667312393e-15 0)
(3 -5.963927733e-15 0)
(3 -5.479913685e-15 0)
(3 -3.330076485e-15 0)
(3 -1.795395252e-15 0)
(3 -6.694972056e-16 0)
(3 -3.209064446e-15 0)
(3 3.322120711e-16 0)
(3 2.102263313e-15 0)
(3 5.474411445e-15 0)
(3 9.419233518e-15 0)
(3 7.929681173e-15 0)
(3 7.476203252e-15 0)
(3 4.985651417e-15 0)
(3 8.090282134e-15 0)
(3 3.347331302e-15 0)
(3 2.983802902e-15 0)
(3 2.774681065e-15 0)
(3 -1.308375033e-15 0)
(3 -9.31748724e-17 0)
(3 2.088371793e-15 0)
(3 2.921733991e-15 0)
(3 2.374078136e-15 0)
(3 -2.422346326e-16 0)
(3 -2.585023795e-15 0)
(3 -4.062095041e-15 0)
(3 -2.883798092e-15 0)
(3 -2.80733873e-15 0)
(3 3.650580335e-15 0)
(3 6.624549613e-15 0)
(3 1.04893239e-14 0)
(3 9.136554818e-15 0)
(3 6.877486713e-15 0)
(3 3.864504084e-15 0)
(3 -1.044949678e-15 0)
(3 3.32438561e-16 0)
(3 -2.553811591e-16 0)
(3 1.064121775e-15 0)
(3 1.805733043e-15 0)
(3 1.245764154e-15 0)
(3 1.659793505e-16 0)
(3 1.706463275e-15 0)
(3 2.940949749e-15 0)
(3 2.971941819e-15 0)
(3 1.665233739e-15 0)
(3 3.828994534e-15 0)
(3 6.072498956e-15 0)
(3 8.354024754e-15 0)
(3 6.168554387e-15 0)
(3 2.838964154e-15 0)
(3 8.353115226e-16 0)
(3 -8.197424286e-15 0)
(3 -1.046279987e-14 0)
(3 -1.788584911e-14 0)
(3 -1.860618894e-14 0)
(3 -1.735100782e-14 0)
(3 -1.527886477e-14 0)
(3 -1.3287397e-14 0)
(3 -7.53910723e-15 0)
(3 -7.882369353e-15 0)
(3 -1.135939753e-14 0)
(3 -5.897833072e-16 0)
(3 -1.789723693e-15 0)
(3 -4.79229257e-15 0)
(3 -1.082378247e-15 0)
(3 -4.906314833e-16 0)
(3 5.081599483e-16 0)
(3 1.089616179e-15 0)
(3 1.241537054e-15 0)
(3 -3.008424695e-15 0)
(3 -1.147898074e-14 0)
(3 -8.808241337e-15 0)
(3 -7.12469852e-15 0)
(3 -5.249001068e-15 0)
(3 -1.750145935e-15 0)
(3 -9.625819753e-16 0)
(3 -1.870494596e-15 0)
(3 -8.407472902e-16 0)
(3 -2.61881511e-16 0)
(3 -1.54137611e-15 0)
(3 -2.770404741e-15 0)
(3 -3.208566484e-15 0)
(3 -3.518638569e-15 0)
(3 -4.62351702e-16 0)
(3 5.195724069e-15 0)
(3 6.640315427e-15 0)
(3 5.688466702e-15 0)
(3 6.675933695e-15 0)
(3 3.118181179e-15 0)
(3 -2.73961466e-16 0)
(3 -4.662562895e-16 0)
(3 1.591169504e-15 0)
(3 7.177695856e-16 0)
(3 -2.702926965e-15 0)
(3 -1.450925319e-15 0)
(3 -5.566161459e-15 0)
(3 -8.137373837e-15 0)
(3 -6.66458292e-15 0)
(3 -1.725807835e-15 0)
(3 9.076268218e-16 0)
(3 -4.785627823e-15 0)
(3 -5.069971618e-15 0)
(3 -2.776822523e-15 0)
(3 -3.772238611e-15 0)
(3 -2.669925805e-15 0)
(3 -1.562460201e-15 0)
(3 -4.00273238e-16 0)
(3 2.453168571e-15 0)
(3 8.388636872e-15 0)
(3 1.180434783e-14 0)
(3 1.104763235e-14 0)
(3 1.108262084e-14 0)
(3 9.971362871e-15 0)
(3 6.104786006e-15 0)
(3 -4.880677439e-16 0)
(3 -5.018192265e-15 0)
(3 -6.054797051e-15 0)
(3 -2.414127887e-15 0)
(3 -3.341813382e-16 0)
(3 -3.601739998e-16 0)
(3 -9.14314582e-16 0)
(3 1.550943492e-15 0)
(3 4.558417774e-15 0)
(3 2.430438e-15 0)
(3 -1.102714714e-15 0)
(3 -2.089614411e-15 0)
(3 -1.372080363e-15 0)
(3 -9.263626838e-15 0)
(3 -5.689391242e-15 0)
(3 -1.6907166e-15 0)
(3 -7.016199042e-17 0)
(3 1.620264502e-15 0)
(3 -3.178630822e-17 0)
(3 -8.60431654e-16 0)
(3 -1.79726191e-15 0)
(3 1.840077831e-16 0)
(3 1.723985469e-15 0)
(3 3.265264319e-15 0)
(3 2.145223943e-15 0)
(3 1.997088897e-15 0)
(3 4.769244648e-16 0)
(3 2.576663338e-15 0)
(3 6.962263347e-15 0)
(3 8.711181581e-15 0)
(3 8.834070842e-15 0)
(3 7.742947249e-15 0)
(3 7.029590764e-15 0)
(3 6.662526014e-15 0)
(3 6.398069774e-15 0)
(3 2.931989804e-15 0)
(3 3.994233897e-15 0)
(3 -4.453693579e-15 0)
(3 -2.101677283e-15 0)
(3 -1.040173132e-14 0)
(3 -1.309276542e-14 0)
(3 -1.984328477e-14 0)
(3 -2.163410899e-14 0)
(3 -2.090954811e-14 0)
(3 -1.513753106e-14 0)
(3 -1.116581885e-14 0)
(3 -1.049570708e-14 0)
(3 -3.120935412e-16 0)
(3 -3.985650294e-16 0)
(3 -5.287282996e-16 0)
(3 1.627418455e-15 0)
(3 1.872165247e-15 0)
(3 2.944825579e-15 0)
(3 -1.827670333e-15 0)
(3 -5.823998961e-15 0)
(3 -4.269139866e-15 0)
(3 -1.51939302e-15 0)
(3 -2.574943858e-15 0)
(3 -2.357475145e-15 0)
(3 -8.814239816e-16 0)
(3 -5.924390842e-15 0)
(3 -6.40108594e-15 0)
(3 -4.101156781e-15 0)
(3 -4.35042757e-15 0)
(3 -4.473972404e-15 0)
(3 -1.544143188e-15 0)
(3 -3.821987095e-15 0)
(3 -4.670620819e-15 0)
(3 -3.438969534e-15 0)
(3 -3.110888614e-15 0)
(3 1.354659775e-15 0)
(3 3.957595348e-15 0)
(3 4.004953213e-15 0)
(3 2.738922447e-15 0)
(3 2.419606704e-16 0)
(3 -1.902815388e-15 0)
(3 -1.180222406e-15 0)
(3 -9.941029685e-16 0)
(3 2.329366474e-16 0)
(3 -9.058933725e-16 0)
(3 -1.261884509e-15 0)
(3 -6.186506786e-16 0)
(3 -6.009441388e-15 0)
(3 -8.603611599e-15 0)
(3 -6.097613274e-15 0)
(3 -3.242344692e-15 0)
(3 -1.117777855e-15 0)
(3 1.031804301e-15 0)
(3 2.864936181e-15 0)
(3 -2.839063665e-15 0)
(3 -2.648954311e-15 0)
(3 -1.069890687e-15 0)
(3 1.466085127e-15 0)
(3 5.508858265e-15 0)
(3 5.836784175e-15 0)
(3 8.882670943e-15 0)
(3 8.352007212e-15 0)
(3 6.827782588e-15 0)
(3 6.048113087e-15 0)
(3 4.479830211e-15 0)
(3 -1.438599134e-17 0)
(3 3.137377477e-16 0)
(3 2.515799419e-15 0)
(3 5.627498996e-15 0)
(3 9.150822982e-15 0)
(3 7.417255144e-15 0)
(3 4.515413594e-15 0)
(3 2.706783898e-15 0)
(3 3.483048783e-15 0)
(3 2.932555741e-15 0)
(3 2.006359963e-15 0)
(3 1.497338683e-15 0)
(3 -2.668219779e-15 0)
(3 -6.375256806e-15 0)
(3 -4.786597697e-15 0)
(3 -4.491850011e-15 0)
(3 -5.873300477e-15 0)
(3 -5.277923017e-15 0)
(3 -3.834944923e-15 0)
(3 -1.337096362e-15 0)
(3 1.184414972e-15 0)
(3 1.164397052e-15 0)
(3 6.768985248e-16 0)
(3 -2.974878493e-16 0)
(3 -5.995714408e-16 0)
(3 -1.048691602e-15 0)
(3 4.615407827e-16 0)
(3 3.661327963e-16 0)
(3 4.024797356e-15 0)
(3 7.781413824e-15 0)
(3 8.439559423e-15 0)
(3 1.464263073e-14 0)
(3 1.339310655e-14 0)
(3 1.077433846e-14 0)
(3 6.764411639e-15 0)
(3 4.649131488e-15 0)
(3 3.147249576e-15 0)
(3 1.761368984e-15 0)
(3 -4.910993335e-16 0)
(3 -2.478928679e-15 0)
(3 -7.169764144e-15 0)
(3 -7.778943948e-15 0)
(3 -8.17692529e-15 0)
(3 -9.740383398e-15 0)
(3 -1.38592769e-14 0)
(3 -9.709744513e-15 0)
(3 -1.157062618e-14 0)
(3 -1.716860059e-16 0)
(3 8.796552434e-16 0)
(3 2.534790159e-15 0)
(3 2.18077372e-15 0)
(3 4.829479097e-15 0)
(3 3.248665502e-15 0)
(3 2.649077363e-15 0)
(3 -1.796577588e-15 0)
(3 -1.618295606e-15 0)
(3 1.890017619e-15 0)
(3 1.142135097e-17 0)
(3 -5.301245998e-16 0)
(3 -1.236233684e-15 0)
(3 -1.625247511e-15 0)
(3 -1.140231331e-15 0)
(3 -1.307772312e-15 0)
(3 -3.446665426e-15 0)
(3 -3.583999957e-15 0)
(3 -8.831111442e-16 0)
(3 6.944148091e-17 0)
(3 -6.483079475e-16 0)
(3 -3.746649474e-15 0)
(3 -5.849850833e-15 0)
(3 -3.773165967e-15 0)
(3 -2.203470155e-15 0)
(3 8.002676036e-18 0)
(3 -7.682956623e-16 0)
(3 1.515768993e-16 0)
(3 2.437032619e-15 0)
(3 1.184511946e-15 0)
(3 2.695894186e-15 0)
(3 4.752714727e-15 0)
(3 4.675984915e-15 0)
(3 2.440221745e-15 0)
(3 8.526926129e-16 0)
(3 7.180485404e-16 0)
(3 -2.951862625e-15 0)
(3 -4.930217841e-15 0)
(3 -7.123012014e-15 0)
(3 -6.898834521e-15 0)
(3 -5.551309826e-15 0)
(3 -4.629208621e-16 0)
(3 -3.385736715e-16 0)
(3 -3.26492828e-15 0)
(3 -2.524115882e-15 0)
(3 8.371835636e-16 0)
(3 2.749398364e-15 0)
(3 -7.529074468e-16 0)
(3 1.636087216e-15 0)
(3 3.669482909e-15 0)
(3 4.417327396e-15 0)
(3 5.79303145e-15 0)
(3 8.000753842e-15 0)
(3 8.650664847e-15 0)
(3 9.671102999e-15 0)
(3 1.029979241e-14 0)
(3 1.092952935e-14 0)
(3 1.120098263e-14 0)
(3 1.280831096e-14 0)
(3 1.450088119e-14 0)
(3 7.998924756e-15 0)
(3 4.141833428e-17 0)
(3 5.090896565e-15 0)
(3 2.536519851e-15 0)
(3 -1.183961761e-15 0)
(3 -7.067997639e-15 0)
(3 -4.721717869e-15 0)
(3 -2.811048356e-15 0)
(3 1.302954958e-16 0)
(3 -1.466589277e-15 0)
(3 -1.035089865e-15 0)
(3 3.965374238e-15 0)
(3 7.378274676e-15 0)
(3 5.294960851e-15 0)
(3 4.57120091e-15 0)
(3 3.314634746e-15 0)
(3 3.629638138e-15 0)
(3 2.109904848e-15 0)
(3 1.32894822e-15 0)
(3 7.591771578e-16 0)
(3 2.820138228e-15 0)
(3 3.792134075e-15 0)
(3 5.86806694e-15 0)
(3 8.087809771e-15 0)
(3 1.341213737e-14 0)
(3 1.579966683e-14 0)
(3 1.825413299e-14 0)
(3 1.284425786e-14 0)
(3 1.233853954e-14 0)
(3 1.134583378e-14 0)
(3 9.595124556e-15 0)
(3 8.388959111e-15 0)
(3 5.537485816e-15 0)
(3 6.668043227e-16 0)
(3 -2.983752913e-15 0)
(3 -2.101174181e-15 0)
(3 -3.396076812e-15 0)
(3 -7.394090914e-15 0)
(3 -1.255200059e-14 0)
(3 -1.631878476e-14 0)
(3 -1.273604074e-15 0)
(3 -1.445466692e-16 0)
(3 1.267010668e-15 0)
(3 3.122168244e-15 0)
(3 7.777706311e-15 0)
(3 6.253498169e-15 0)
(3 5.609382059e-15 0)
(3 8.576766903e-15 0)
(3 9.084474356e-15 0)
(3 6.743033701e-15 0)
(3 5.088393156e-15 0)
(3 1.568575173e-15 0)
(3 2.213527812e-15 0)
(3 8.203072325e-15 0)
(3 6.963901831e-15 0)
(3 4.103473664e-15 0)
(3 7.212444367e-16 0)
(3 -1.811172939e-15 0)
(3 -3.322146164e-15 0)
(3 -2.215853251e-15 0)
(3 -1.697156082e-15 0)
(3 -2.125427759e-15 0)
(3 -3.274522306e-15 0)
(3 -8.943779224e-15 0)
(3 -9.570032746e-15 0)
(3 -7.389401608e-15 0)
(3 -3.489709794e-15 0)
(3 1.175326617e-16 0)
(3 3.116430261e-15 0)
(3 2.71608889e-15 0)
(3 2.119768962e-15 0)
(3 -4.546102782e-16 0)
(3 -1.022245749e-15 0)
(3 -1.642614928e-15 0)
(3 -2.855937478e-15 0)
(3 2.154163088e-15 0)
(3 2.109205422e-15 0)
(3 2.044309874e-16 0)
(3 -1.227604819e-15 0)
(3 -4.966748784e-15 0)
(3 -4.696824087e-15 0)
(3 -3.709183159e-15 0)
(3 1.014033566e-15 0)
(3 -1.490658543e-15 0)
(3 1.014638642e-15 0)
(3 6.622159469e-16 0)
(3 6.263498738e-16 0)
(3 4.843334822e-17 0)
(3 1.488915894e-15 0)
(3 1.135784123e-15 0)
(3 1.01209305e-15 0)
(3 5.852232624e-15 0)
(3 1.066219706e-14 0)
(3 1.089417551e-14 0)
(3 9.911354122e-15 0)
(3 1.094942035e-14 0)
(3 1.216890343e-14 0)
(3 1.398453525e-14 0)
(3 1.464891545e-14 0)
(3 1.421286787e-14 0)
(3 1.284373158e-14 0)
(3 1.109109109e-14 0)
(3 1.437702371e-14 0)
(3 1.471746408e-14 0)
(3 1.008931942e-14 0)
(3 3.762377009e-15 0)
(3 1.109479276e-15 0)
(3 -6.27658913e-16 0)
(3 3.442123896e-16 0)
(3 3.129637513e-15 0)
(3 3.15499554e-15 0)
(3 6.975375715e-15 0)
(3 7.870542695e-15 0)
(3 5.312570055e-15 0)
(3 3.308551768e-15 0)
(3 1.399468007e-15 0)
(3 2.368810829e-15 0)
(3 3.067324146e-15 0)
(3 4.626758846e-15 0)
(3 6.754578335e-15 0)
(3 9.257708468e-15 0)
(3 1.160173106e-14 0)
(3 1.327118182e-14 0)
(3 1.388407889e-14 0)
(3 1.164564494e-14 0)
(3 1.339858427e-14 0)
(3 1.364775077e-14 0)
(3 1.541643961e-14 0)
(3 1.873757454e-14 0)
(3 1.808813843e-14 0)
(3 1.780050089e-14 0)
(3 1.630910498e-14 0)
(3 1.388436538e-14 0)
(3 8.297020766e-15 0)
(3 -6.378753827e-16 0)
(3 -3.259532219e-15 0)
(3 -7.465097559e-15 0)
(3 -1.15378838e-14 0)
(3 -1.495664702e-14 0)
(3 -1.628137692e-14 0)
(3 -4.093775236e-17 0)
(3 -1.107497663e-15 0)
(3 4.468169697e-15 0)
(3 5.852741931e-15 0)
(3 3.404600112e-15 0)
(3 2.602129014e-15 0)
(3 9.561412036e-16 0)
(3 1.555288817e-15 0)
(3 2.439680716e-15 0)
(3 1.018735163e-15 0)
(3 -3.176028352e-16 0)
(3 3.738715823e-15 0)
(3 3.667295396e-15 0)
(3 3.416173114e-15 0)
(3 6.086017941e-15 0)
(3 8.113138318e-15 0)
(3 5.882546021e-15 0)
(3 -2.007529947e-15 0)
(3 -8.229563252e-15 0)
(3 -8.123348567e-15 0)
(3 -7.205335719e-15 0)
(3 -4.026171393e-15 0)
(3 -6.258784435e-15 0)
(3 -9.534786738e-15 0)
(3 -7.769107207e-15 0)
(3 -5.636500688e-15 0)
(3 -4.525644299e-15 0)
(3 -2.669465276e-16 0)
(3 -1.593120689e-16 0)
(3 3.983228258e-15 0)
(3 1.107332376e-15 0)
(3 -1.688026129e-15 0)
(3 2.280020957e-16 0)
(3 4.154813666e-15 0)
(3 5.980653226e-15 0)
(3 4.302673956e-15 0)
(3 3.501708042e-15 0)
(3 2.863837969e-15 0)
(3 1.467117728e-15 0)
(3 3.068413788e-15 0)
(3 2.795492219e-15 0)
(3 -3.257982636e-15 0)
(3 -1.593378179e-15 0)
(3 -1.9687477e-15 0)
(3 -2.083020171e-15 0)
(3 -3.694824454e-15 0)
(3 -4.113222759e-15 0)
(3 -3.864462956e-15 0)
(3 -2.767031381e-15 0)
(3 -3.385580909e-15 0)
(3 -3.359860414e-15 0)
(3 -3.596521462e-15 0)
(3 8.897027329e-16 0)
(3 2.551212475e-15 0)
(3 3.56874095e-15 0)
(3 5.558106693e-15 0)
(3 8.558152786e-15 0)
(3 8.794900699e-15 0)
(3 7.560966472e-15 0)
(3 6.360960121e-15 0)
(3 1.061885147e-14 0)
(3 1.367555617e-14 0)
(3 1.306456212e-14 0)
(3 1.595176428e-14 0)
(3 1.20247746e-14 0)
(3 8.87989081e-15 0)
(3 3.847197068e-15 0)
(3 -8.393327157e-16 0)
(3 -3.991061221e-15 0)
(3 -2.939539011e-15 0)
(3 -1.582660616e-15 0)
(3 8.437564198e-16 0)
(3 2.045129567e-15 0)
(3 3.065166636e-15 0)
(3 9.003844304e-16 0)
(3 -2.138536588e-15 0)
(3 -1.449183716e-16 0)
(3 7.843853562e-15 0)
(3 1.072252897e-14 0)
(3 1.394526499e-14 0)
(3 1.579138323e-14 0)
(3 1.720403175e-14 0)
(3 1.597389072e-14 0)
(3 1.563754316e-14 0)
(3 1.162363253e-14 0)
(3 1.073806829e-14 0)
(3 1.008416166e-14 0)
(3 1.257108018e-14 0)
(3 1.39155655e-14 0)
(3 1.421063086e-14 0)
(3 1.402406684e-14 0)
(3 1.322799033e-14 0)
(3 1.149092653e-14 0)
(3 9.98323376e-15 0)
(3 7.353202667e-15 0)
(3 -6.212046153e-15 0)
(3 -7.398103989e-15 0)
(3 -6.153690859e-15 0)
(3 -4.969359265e-15 0)
(3 -2.300350687e-15 0)
(3 1.550895806e-15 0)
(3 2.349639605e-15 0)
(3 1.916621854e-15 0)
(3 2.602923079e-15 0)
(3 -1.009361065e-15 0)
(3 -1.718306855e-15 0)
(3 8.692518281e-16 0)
(3 1.718542093e-15 0)
(3 -7.150668991e-17 0)