/*--------------------------------*- C++ -*----------------------------------*\
  =========                 |
  \\      /  F ield         | OpenFOAM: The Open Source CFD Toolbox
   \\    /   O peration     | Website:  https://openfoam.org
    \\  /    A nd           | Version:  7
     \\/     M anipulation  |
\*---------------------------------------------------------------------------*/
FoamFile
{
    version     2.0;
    format      ascii;
    class       volVectorField;
    location    "2.3";
    object      U;
}
// * * * * * * * * * * * * * * * * * * * * * * * * * * * * * * * * * * * * * //

dimensions      [0 1 -1 0 0 0 0];

internalField   nonuniform List<vector> 
2222
(
(2.884493425 -0.2533493521 0)
(2.884379539 -0.2494721292 0)
(2.883545493 -0.2476553239 0)
(2.88358438 -0.2467344306 0)
(2.883924771 -0.2457234188 0)
(2.883900984 -0.2456608574 0)
(2.883824529 -0.2452509223 0)
(2.872340793 -0.2565185473 0)
(2.873032532 -0.2547027678 0)
(2.873636887 -0.2537604769 0)
(2.875153145 -0.2532643939 0)
(2.875509376 -0.2531463385 0)
(2.875659183 -0.2529521824 0)
(2.87534367 -0.2518735421 0)
(2.87529582 -0.2502003413 0)
(2.875674315 -0.2491648159 0)
(2.875816493 -0.2490314674 0)
(2.875695402 -0.2491168253 0)
(2.875245295 -0.2489450082 0)
(2.87488672 -0.2484108563 0)
(2.875009414 -0.2481069294 0)
(2.875390116 -0.2484124237 0)
(2.875943556 -0.2489957729 0)
(2.876467054 -0.2498746978 0)
(2.87667792 -0.2501093197 0)
(2.87702691 -0.2504050777 0)
(2.877453505 -0.2508284595 0)
(2.878212635 -0.2513284119 0)
(2.878728225 -0.2515282994 0)
(2.87924533 -0.2516159961 0)
(2.879592928 -0.2516258131 0)
(2.879955439 -0.25169422 0)
(2.880145506 -0.2518042448 0)
(2.872340853 0.2565188219 0)
(2.87303276 0.2547030033 0)
(2.873636703 0.2537606428 0)
(2.875153097 0.2532641259 0)
(2.87550939 0.253146037 0)
(2.875659363 0.2529520517 0)
(2.875343862 0.2518738648 0)
(2.875295658 0.2502006107 0)
(2.875674065 0.2491648289 0)
(2.875816379 0.2490311472 0)
(2.8756955 0.2491167292 0)
(2.875245508 0.2489451768 0)
(2.874886822 0.2484109157 0)
(2.875009393 0.2481070991 0)
(2.875389992 0.2484124574 0)
(2.875943443 0.2489954487 0)
(2.876467105 0.2498746296 0)
(2.876678032 0.2501093336 0)
(2.877027114 0.2504050948 0)
(2.877453569 0.2508284563 0)
(2.878212671 0.2513285254 0)
(2.878728145 0.2515283374 0)
(2.879245247 0.2516160479 0)
(2.879592818 0.2516258401 0)
(2.879955336 0.2516942116 0)
(2.880145515 0.2518041902 0)
(2.880156175 0.2518754008 0)
(2.880202526 0.2518693721 0)
(2.880217266 0.2518386864 0)
(2.880315602 0.2517941876 0)
(2.880517142 0.2517454967 0)
(2.880816723 0.2516978184 0)
(2.881086815 0.251669466 0)
(2.881155818 0.2516647862 0)
(2.881214882 0.2516789873 0)
(2.881244417 0.2517365219 0)
(2.881246619 0.2518257412 0)
(2.881330962 0.2518717758 0)
(2.881412144 0.2518915764 0)
(2.881627828 0.2519271615 0)
(2.881954851 0.251950235 0)
(2.882122652 0.2519493819 0)
(2.882179627 0.2519554203 0)
(2.882234018 0.2519857252 0)
(2.882235538 0.2520415542 0)
(2.882293984 0.2520851616 0)
(2.882368927 0.2520979718 0)
(2.882446083 0.2521091242 0)
(2.882626474 0.2521166393 0)
(2.882812766 0.2520977174 0)
(2.882872492 0.2520869952 0)
(2.882916934 0.2520956344 0)
(2.882942986 0.2521256954 0)
(2.882953773 0.2521613857 0)
(2.882999568 0.2521741065 0)
(2.883042517 0.2521765814 0)
(2.883133762 0.2521798204 0)
(2.883299967 0.2521797773 0)
(2.883405064 0.25217229 0)
(2.883447829 0.2521756996 0)
(2.883494267 0.2521921585 0)
(2.883508397 0.252209372 0)
(2.883532128 0.2522166941 0)
(2.883553673 0.2522180216 0)
(2.883589147 0.2522200434 0)
(2.883662458 0.2522037658 0)
(2.883803061 0.2521983643 0)
(2.884493449 0.2533499349 0)
(2.884379879 0.2494728256 0)
(2.883545686 0.2476552762 0)
(2.88358412 0.2467343972 0)
(2.883924706 0.2457231276 0)
(2.883900906 0.2456605082 0)
(2.883824492 0.2452510992 0)
(2.883577404 0.243724584 0)
(2.883502639 0.2432989725 0)
(2.883381007 0.243716961 0)
(2.883121465 0.2445631912 0)
(2.883247855 0.2456213009 0)
(2.883450999 0.2465751884 0)
(2.883387046 0.2476525606 0)
(2.883648862 0.2483642853 0)
(2.883943514 0.2495516984 0)
(2.883771021 0.2511014901 0)
(2.883393154 0.2516846148 0)
(2.883036948 0.2525120433 0)
(2.882969968 0.2527608964 0)
(2.882812239 0.2527983846 0)
(2.88283485 0.2527269193 0)
(2.883227548 0.2524152218 0)
(2.883784478 0.2521868983 0)
(2.884234288 0.2520343977 0)
(2.884279464 0.2518469488 0)
(2.884241506 0.2518259845 0)
(2.884157839 0.2518669752 0)
(2.883982018 0.2519234377 0)
(2.883884183 0.2518768976 0)
(2.883928653 0.2518538511 0)
(2.884116179 0.2518606548 0)
(2.884394362 0.2518960576 0)
(2.884490788 0.2518990325 0)
(2.884496981 0.251908097 0)
(2.884457752 0.2519980626 0)
(2.88430517 0.2521777294 0)
(2.884182383 0.2523424943 0)
(2.884198032 0.252392256 0)
(2.884248285 0.2524160312 0)
(2.884380591 0.2524223273 0)
(2.884542518 0.2523856774 0)
(2.884607194 0.2523447225 0)
(2.884613355 0.2523260687 0)
(2.884604512 0.2523152216 0)
(2.884568652 0.2523536427 0)
(2.884569755 0.2524132498 0)
(2.884611811 0.2524336701 0)
(2.884665817 0.2524373171 0)
(2.884776335 0.2523918657 0)
(2.884867788 0.2523040533 0)
(2.884894023 0.2522735149 0)
(2.884915815 0.2522755799 0)
(2.88492633 0.2523209285 0)
(2.884910942 0.2523867168 0)
(2.884928974 0.2524109715 0)
(2.884954828 0.252412041 0)
(2.885017395 0.2523977312 0)
(2.885105654 0.25235412 0)
(2.885179197 0.2523052532 0)
(2.885205038 0.2522834684 0)
(2.885213101 0.2522816608 0)
(2.885218125 0.2522882754 0)
(2.885220472 0.2522945373 0)
(2.88523584 0.2523036022 0)
(2.885253931 0.2522765781 0)
(2.885368833 0.2522401764 0)
(2.894119167 0.2666420536 0)
(2.893063166 0.2634122146 0)
(2.893095835 0.2587031467 0)
(2.892674189 0.255685782 0)
(2.892254419 0.2553069739 0)
(2.892941683 0.2544063795 0)
(2.894532319 0.2527207153 0)
(2.894776631 0.250832601 0)
(2.894725977 0.2504447901 0)
(2.894945266 0.2512345936 0)
(2.894741017 0.2509464062 0)
(2.894595569 0.2508185276 0)
(2.894595676 0.25103579 0)
(2.894569407 0.2511913369 0)
(2.894591519 0.2511593511 0)
(2.89461536 0.2509393847 0)
(2.89449955 0.2507788676 0)
(2.894047339 0.2509319715 0)
(2.893394233 0.250982901 0)
(2.892560277 0.2512853574 0)
(2.891697523 0.2515520769 0)
(2.89093968 0.2515045467 0)
(2.890594806 0.2514511055 0)
(2.890606275 0.2515742048 0)
(2.890652061 0.2517817454 0)
(2.890584915 0.2518434724 0)
(2.890531803 0.2518769558 0)
(2.890440608 0.2519236255 0)
(2.890345323 0.2520789107 0)
(2.89026545 0.2522928689 0)
(2.890310645 0.2523759949 0)
(2.890355397 0.2524242284 0)
(2.890464557 0.2525453878 0)
(2.89054126 0.252619072 0)
(2.890456866 0.2526042344 0)
(2.890378232 0.2525800356 0)
(2.890213958 0.2525401227 0)
(2.889950101 0.2525039747 0)
(2.889846468 0.2525019279 0)
(2.889748997 0.2525266116 0)
(2.88972195 0.2525685759 0)
(2.889787116 0.2525659148 0)
(2.889793215 0.2525364929 0)
(2.889742949 0.2525236139 0)
(2.889687248 0.2525069966 0)
(2.889589793 0.2525051886 0)
(2.88948559 0.2525564339 0)
(2.889405904 0.2526242862 0)
(2.889379487 0.2526544147 0)
(2.889382267 0.2526657181 0)
(2.889390041 0.2526693863 0)
(2.889373287 0.2526501347 0)
(2.88935283 0.2526368026 0)
(2.889334271 0.2526317461 0)
(2.889291109 0.252636943 0)
(2.889238217 0.2526400781 0)
(2.889209529 0.252632058 0)
(2.889200542 0.2526251296 0)
(2.889203605 0.2526062606 0)
(2.889220799 0.2525726354 0)
(2.889224748 0.2525263875 0)
(2.889193483 0.2525049764 0)
(2.889169489 0.252502661 0)
(2.889140392 0.2525032919 0)
(2.889108674 0.2525073627 0)
(2.889088936 0.2524861334 0)
(2.889208121 0.2525385463 0)
(2.895485541 0.2693875486 0)
(2.896020614 0.2667254324 0)
(2.895872165 0.2653393654 0)
(2.895981412 0.2633584488 0)
(2.896415104 0.2618987582 0)
(2.897383147 0.2607641242 0)
(2.898627307 0.2595358847 0)
(2.8995384 0.2584027571 0)
(2.900088964 0.2587545377 0)
(2.901071181 0.2584987728 0)
(2.902402187 0.255469759 0)
(2.902248425 0.2531374542 0)
(2.901493393 0.2532502953 0)
(2.901131983 0.2525472406 0)
(2.901066377 0.2508859657 0)
(2.901292014 0.2498332805 0)
(2.900967756 0.2489255325 0)
(2.900371896 0.2484676162 0)
(2.899875621 0.2483633935 0)
(2.89906661 0.2485644207 0)
(2.898330858 0.2490122587 0)
(2.897686617 0.2496762218 0)
(2.896969751 0.2505547035 0)
(2.896552541 0.2514350205 0)
(2.896306115 0.252158242 0)
(2.895929272 0.2524674932 0)
(2.895654105 0.2526299953 0)
(2.895352061 0.2530367889 0)
(2.895209897 0.2533422057 0)
(2.895084481 0.2533494382 0)
(2.894875465 0.2535014033 0)
(2.894757812 0.2534991306 0)
(2.89467398 0.2534459964 0)
(2.894618195 0.2533883372 0)
(2.894563032 0.2532754746 0)
(2.89454662 0.2532525479 0)
(2.894502237 0.2532377808 0)
(2.894398711 0.2531974284 0)
(2.89426186 0.2531276483 0)
(2.894145121 0.2531040265 0)
(2.894087957 0.2531308388 0)
(2.894059907 0.2531686421 0)
(2.894045705 0.253190653 0)
(2.894062206 0.2531782377 0)
(2.894057545 0.2531544921 0)
(2.894007418 0.2531578409 0)
(2.893924193 0.2531934633 0)
(2.893808914 0.2532305489 0)
(2.893736795 0.2532442095 0)
(2.893700262 0.2532415135 0)
(2.893645309 0.2532359345 0)
(2.893611977 0.2532100451 0)
(2.893583716 0.2531616005 0)
(2.89352216 0.2531301147 0)
(2.893452792 0.253100597 0)
(2.893369869 0.2530707391 0)
(2.893285143 0.2530263583 0)
(2.893253333 0.2529846892 0)
(2.893197262 0.2529458465 0)
(2.893157201 0.2529370833 0)
(2.893134732 0.2529451839 0)
(2.893103186 0.2529394909 0)
(2.89305536 0.2529222112 0)
(2.892983101 0.2529006056 0)
(2.892913845 0.2529162678 0)
(2.892821032 0.2529564736 0)
(2.892867473 0.2529827855 0)
(2.900106972 0.2537404934 0)
(2.899363818 0.2578038329 0)
(2.897899972 0.2599378543 0)
(2.8963564 0.2614434012 0)
(2.895001898 0.2633880138 0)
(2.894391048 0.2659083509 0)
(2.894325101 0.266766996 0)
(2.894203013 0.2663016807 0)
(2.894862032 0.2655070227 0)
(2.894879423 0.2644029968 0)
(2.8949784 0.2628989146 0)
(2.894447019 0.2612883082 0)
(2.895359914 0.2586861203 0)
(2.895877538 0.2567730278 0)
(2.896017197 0.2559180885 0)
(2.896697635 0.2542469554 0)
(2.896946227 0.2531469858 0)
(2.89756636 0.2515871993 0)
(2.898047905 0.2507422358 0)
(2.898575978 0.2504101444 0)
(2.898728223 0.2507852688 0)
(2.89860457 0.2508846704 0)
(2.898891729 0.2512731605 0)
(2.898946969 0.2515050151 0)
(2.898845408 0.2515716857 0)
(2.898615041 0.2514151744 0)
(2.898326066 0.2515429946 0)
(2.898007044 0.2519824605 0)
(2.897654053 0.252139625 0)
(2.897326063 0.2521169431 0)
(2.896918165 0.2524707042 0)
(2.896667406 0.2528388931 0)
(2.89646895 0.2528509431 0)
(2.896267788 0.2527554587 0)
(2.896125156 0.2527619863 0)
(2.895975471 0.2528351154 0)
(2.895908398 0.2529527745 0)
(2.895898127 0.2530985935 0)
(2.895770925 0.2532264377 0)
(2.895677417 0.2533017603 0)
(2.895571312 0.2533697269 0)
(2.895521833 0.2534377986 0)
(2.895523031 0.2534445069 0)
(2.89553099 0.2534433024 0)
(2.895530795 0.2534536107 0)
(2.895501597 0.2534586663 0)
(2.895470216 0.253454867 0)
(2.89541242 0.2534236915 0)
(2.895332967 0.2533680785 0)
(2.895278192 0.2533440466 0)
(2.89518921 0.2532912088 0)
(2.895132162 0.2532447567 0)
(2.895108719 0.2532106551 0)
(2.895050189 0.2531952056 0)
(2.895021569 0.2531853144 0)
(2.894948402 0.2531604475 0)
(2.89485196 0.2531777611 0)
(2.894782761 0.2531964068 0)
(2.894747158 0.253203168 0)
(2.894721827 0.2532020758 0)
(2.894696281 0.2531878991 0)
(2.894667615 0.2531828831 0)
(2.894634003 0.2532311703 0)
(2.894595134 0.253236022 0)
(2.894559065 0.253213584 0)
(2.894500496 0.2532084433 0)
(2.894479671 0.2532610008 0)
(2.901072908 0.2531117871 0)
(2.892908972 0.2702422545 0)
(2.891103584 0.2760336333 0)
(2.889693783 0.275996927 0)
(2.889232292 0.2790396741 0)
(2.888652416 0.2789986542 0)
(2.887910497 0.2758847541 0)
(2.88737206 0.2718025541 0)
(2.888031131 0.2666131205 0)
(2.889737177 0.2650838455 0)
(2.890913734 0.263544381 0)
(2.891400909 0.2613097086 0)
(2.891622253 0.2607078067 0)
(2.891852767 0.2601550476 0)
(2.892194613 0.2592254123 0)
(2.892661315 0.2581174817 0)
(2.893157594 0.2583336803 0)
(2.893891028 0.2573104336 0)
(2.894458654 0.2571968587 0)
(2.895507766 0.2566721789 0)
(2.897065321 0.2546363121 0)
(2.897522902 0.2531958558 0)
(2.89749213 0.2536376766 0)
(2.897072192 0.2534310543 0)
(2.896686607 0.2523440792 0)
(2.896736658 0.2517053783 0)
(2.896898011 0.2512375964 0)
(2.896914471 0.2512540896 0)
(2.896864067 0.2512228073 0)
(2.896705942 0.2510692196 0)
(2.896468096 0.2512297905 0)
(2.896390601 0.2515625078 0)
(2.89621945 0.2519166786 0)
(2.89609644 0.2520894202 0)
(2.895885269 0.2521934124 0)
(2.895779265 0.2523555559 0)
(2.895881553 0.2526335235 0)
(2.895923282 0.2529790075 0)
(2.895813785 0.2532226928 0)
(2.895665681 0.2534825834 0)
(2.895587143 0.2535201934 0)
(2.895455603 0.2534868847 0)
(2.895344747 0.2534686752 0)
(2.895273866 0.2534713998 0)
(2.895240656 0.2533992271 0)
(2.895152568 0.2532953988 0)
(2.895083581 0.2532700214 0)
(2.895036319 0.2532419248 0)
(2.89496765 0.2532350665 0)
(2.894943307 0.2532519844 0)
(2.894901339 0.2532488029 0)
(2.894852351 0.253196113 0)
(2.894830472 0.2531526596 0)
(2.89483051 0.2531548226 0)
(2.894831547 0.2531897789 0)
(2.894820613 0.2532572141 0)
(2.894796583 0.2533122048 0)
(2.894754006 0.2533693686 0)
(2.894690531 0.2533906755 0)
(2.894673506 0.25338298 0)
(2.894637503 0.2533694535 0)
(2.894621904 0.2533822812 0)
(2.894615827 0.2533965336 0)
(2.894602123 0.2533997768 0)
(2.89456439 0.2534037823 0)
(2.894525665 0.253379106 0)
(2.894529478 0.2533312483 0)
(2.928961688 0.1645739765 0)
(2.916424409 0.2047442587 0)
(2.914759994 0.2049401772 0)
(2.917352289 0.2026708588 0)
(2.906881327 0.2282059411 0)
(2.905106177 0.233292023 0)
(2.90505837 0.2371432808 0)
(2.898621099 0.2447667501 0)
(2.896466788 0.2481942837 0)
(2.895326777 0.2487100891 0)
(2.89422813 0.2522166222 0)
(2.894054921 0.2557899942 0)
(2.892829584 0.2576855225 0)
(2.891387789 0.2593059858 0)
(2.890051344 0.2603690541 0)
(2.889871672 0.262810196 0)
(2.889205121 0.2640196393 0)
(2.889811772 0.262728071 0)
(2.889833498 0.261684173 0)
(2.889895555 0.2610556859 0)
(2.890546171 0.2594047983 0)
(2.890844977 0.2577050771 0)
(2.891311992 0.2560125386 0)
(2.891460676 0.2546019303 0)
(2.891990697 0.2525943407 0)
(2.892808437 0.2506062161 0)
(2.893045995 0.2501987571 0)
(2.893142239 0.2505133418 0)
(2.893915861 0.2504542955 0)
(2.89437628 0.2500866133 0)
(2.894774442 0.2503715115 0)
(2.894851267 0.250853509 0)
(2.894686187 0.2513688258 0)
(2.894459071 0.2517189172 0)
(2.894443299 0.2517596806 0)
(2.894562145 0.2517725242 0)
(2.894759357 0.2519700356 0)
(2.894820113 0.2522772699 0)
(2.894667539 0.2523598289 0)
(2.89446217 0.2523687566 0)
(2.894242422 0.252473334 0)
(2.894032599 0.2525761975 0)
(2.893892596 0.2525589731 0)
(2.89390295 0.2525248685 0)
(2.894061616 0.2525674124 0)
(2.89420308 0.2526866651 0)
(2.894171655 0.2527475367 0)
(2.894134686 0.2527737743 0)
(2.894040495 0.2528291134 0)
(2.893946344 0.2529114527 0)
(2.893927367 0.253033012 0)
(2.893935661 0.2530922029 0)
(2.8939483 0.253096213 0)
(2.893981639 0.2530966231 0)
(2.893999466 0.2531175197 0)
(2.894022978 0.2531851838 0)
(2.894013066 0.2532548324 0)
(2.893951163 0.2532663588 0)
(2.893893659 0.2532439885 0)
(2.893885283 0.2532364848 0)
(2.893884752 0.2532427597 0)
(2.893916602 0.253244341 0)
(2.893951281 0.2532324594 0)
(2.893919994 0.2532257161 0)
(2.893896989 0.2532256174 0)
(2.893866661 0.2532300997 0)
(2.893815375 0.2532375875 0)
(2.973042711 0.05750781207 0)
(2.961453477 0.08363863169 0)
(2.952404612 0.1097345199 0)
(2.944686964 0.1302225457 0)
(2.926061679 0.1727176331 0)
(2.920868016 0.187182243 0)
(2.921521897 0.1965875821 0)
(2.90441734 0.2338970637 0)
(2.90022941 0.245787313 0)
(2.901027565 0.2471522813 0)
(2.892197604 0.2623579521 0)
(2.89000355 0.2706133808 0)
(2.88864609 0.2704176921 0)
(2.88796945 0.2744041707 0)
(2.886855455 0.2733968184 0)
(2.88602532 0.2702913709 0)
(2.885859747 0.2680009551 0)
(2.885493589 0.2635601707 0)
(2.886915015 0.2621723593 0)
(2.887894191 0.2616348426 0)
(2.887955713 0.2588082216 0)
(2.888060153 0.2579694746 0)
(2.888274132 0.2576060396 0)
(2.888520379 0.2571829919 0)
(2.889000547 0.2559983982 0)
(2.889499717 0.2557175528 0)
(2.889951273 0.255974909 0)
(2.890464265 0.2566919763 0)
(2.891735066 0.2556975413 0)
(2.892462156 0.2540438067 0)
(2.892605576 0.2536046404 0)
(2.892566668 0.2538224733 0)
(2.892455309 0.2535518187 0)
(2.892361202 0.2529209059 0)
(2.892489705 0.2524593784 0)
(2.892761347 0.2518920263 0)
(2.892978234 0.2515859032 0)
(2.893160416 0.2514906309 0)
(2.893028583 0.2512010682 0)
(2.892847706 0.2511950029 0)
(2.89282569 0.2512583444 0)
(2.892708087 0.2513969047 0)
(2.892573761 0.2515132963 0)
(2.892440229 0.251762983 0)
(2.892550669 0.2521817906 0)
(2.892830071 0.2526385386 0)
(2.892880242 0.252909446 0)
(2.892796954 0.2530287487 0)
(2.892595293 0.2532505217 0)
(2.892451879 0.2534016474 0)
(2.892388369 0.2534244519 0)
(2.892358748 0.2534842741 0)
(2.892420777 0.2535184408 0)
(2.892570144 0.2534583063 0)
(2.892648896 0.2533607168 0)
(2.892639 0.2533454593 0)
(2.892623729 0.2533476106 0)
(2.892578952 0.2533419702 0)
(2.892547573 0.2532865103 0)
(2.892553239 0.2532260133 0)
(2.892591447 0.2531718897 0)
(2.892676148 0.2531203851 0)
(2.892764048 0.2531086175 0)
(2.892788287 0.2531261725 0)
(2.89278647 0.2531432048 0)
(2.892765473 0.2531844029 0)
(2.892673467 0.2532059837 0)
(2.996930031 0.006094005307 0)
(2.994282653 0.01128665551 0)
(2.990303343 0.0204085982 0)
(2.985130677 0.03141919843 0)
(2.977301541 0.04741298249 0)
(2.96828124 0.06978241002 0)
(2.959355017 0.09137930434 0)
(2.946306979 0.1235158182 0)
(2.941170044 0.1379022046 0)
(2.935433508 0.1532504546 0)
(2.9186734 0.1952482633 0)
(2.914872593 0.2051521823 0)
(2.916702208 0.2020209739 0)
(2.908005705 0.2238169701 0)
(2.905776172 0.2289531895 0)
(2.906444324 0.2318472396 0)
(2.899212571 0.2409334351 0)
(2.896982238 0.2463118959 0)
(2.896242796 0.2463821652 0)
(2.894267271 0.2497440285 0)
(2.893555563 0.2531945541 0)
(2.892327064 0.2552633621 0)
(2.890936723 0.2570416654 0)
(2.88957661 0.2592928545 0)
(2.888880695 0.2600679424 0)
(2.888550717 0.2616596469 0)
(2.888759891 0.2613801185 0)
(2.888718149 0.2608681481 0)
(2.888619275 0.2599974015 0)
(2.888986471 0.2582962407 0)
(2.889652629 0.2560404189 0)
(2.889484852 0.2546919555 0)
(2.88951653 0.2536227374 0)
(2.88992071 0.2522749332 0)
(2.890619314 0.2510256261 0)
(2.890679976 0.2502144735 0)
(2.890969093 0.2504033003 0)
(2.891270992 0.2506470858 0)
(2.891601878 0.2504142247 0)
(2.891890389 0.2503573691 0)
(2.892028928 0.2508759606 0)
(2.891919475 0.2513674202 0)
(2.891837946 0.2518391712 0)
(2.891835427 0.2519071832 0)
(2.891908117 0.2518969322 0)
(2.892085677 0.2519256496 0)
(2.89204661 0.252108558 0)
(2.891948628 0.252247562 0)
(2.891852975 0.2522735894 0)
(2.891734628 0.2521967653 0)
(2.891571678 0.2522053508 0)
(2.891423853 0.252384962 0)
(2.891445993 0.2524419196 0)
(2.891605651 0.2524477997 0)
(2.891765171 0.2525636151 0)
(2.891779126 0.2526341543 0)
(2.891757923 0.252653847 0)
(2.89169861 0.252692877 0)
(2.891627161 0.2527405225 0)
(2.891595792 0.2527731187 0)
(2.891604628 0.252797102 0)
(2.891653728 0.2528294927 0)
(2.891749104 0.2528723102 0)
(2.891788696 0.2529096722 0)
(2.891793423 0.2529320247 0)
(2.891788128 0.2529874526 0)
(2.891701343 0.2530313393 0)
(2.999932638 0.000120391054 0)
(2.999814803 0.0003360094411 0)
(2.999544256 0.0008473566071 0)
(2.998968831 0.001976776334 0)
(2.997850852 0.004115931831 0)
(2.995767988 0.008527297136 0)
(2.992770568 0.01476938318 0)
(2.988298868 0.02398141879 0)
(2.981003344 0.04201096235 0)
(2.974199379 0.05681602605 0)
(2.963124229 0.08049178725 0)
(2.953065486 0.1079783252 0)
(2.947687518 0.1247877143 0)
(2.929749717 0.1653090638 0)
(2.922591851 0.1852654104 0)
(2.923626353 0.1921853383 0)
(2.90726421 0.2275024803 0)
(2.903287143 0.2414415289 0)
(2.904643915 0.2419461563 0)
(2.895610211 0.2561865676 0)
(2.893046408 0.2669424193 0)
(2.891973826 0.2659484945 0)
(2.889715437 0.2698376108 0)
(2.889302426 0.270966721 0)
(2.887977165 0.267735275 0)
(2.887649362 0.2655349304 0)
(2.887082835 0.2612926148 0)
(2.888043702 0.2601732383 0)
(2.888846539 0.2599999831 0)
(2.888143442 0.2571041331 0)
(2.888069523 0.2558560816 0)
(2.888179985 0.2556108105 0)
(2.888516464 0.2554093483 0)
(2.888983714 0.2548138804 0)
(2.889453451 0.2546621902 0)
(2.889876244 0.2548778542 0)
(2.89008772 0.2555507959 0)
(2.890655166 0.2555806811 0)
(2.891221487 0.2541688869 0)
(2.891155924 0.2538339079 0)
(2.891076149 0.25371538 0)
(2.891254337 0.2534234243 0)
(2.891314883 0.2532753196 0)
(2.891286136 0.2528769575 0)
(2.891382355 0.252408928 0)
(2.891489157 0.2519989782 0)
(2.891549754 0.2516682085 0)
(2.891491248 0.2514586502 0)
(2.891485406 0.2513931612 0)
(2.891474895 0.2514287006 0)
(2.891468583 0.2515467385 0)
(2.891410126 0.2517396231 0)
(2.891395894 0.2518785147 0)
(2.891404279 0.2520721336 0)
(2.891470446 0.2523284476 0)
(2.891441558 0.252569266 0)
(2.891339164 0.2526904184 0)
(2.891208677 0.2528450298 0)
(2.891168345 0.252969464 0)
(2.891129113 0.2530151645 0)
(2.891081774 0.2531017779 0)
(2.891093687 0.2532075559 0)
(2.891153232 0.2532045613 0)
(2.89120669 0.2530776767 0)
(2.89121252 0.2529807948 0)
(2.891203524 0.2529649778 0)
(2.891180937 0.2529837767 0)
(2.99999978 3.578365104e-07 0)
(2.999999045 1.588169664e-06 0)
(2.999996306 6.201451902e-06 0)
(2.999987395 2.170167352e-05 0)
(2.999959781 7.116586672e-05 0)
(2.999887588 0.0002000363835 0)
(2.999708748 0.0005437429568 0)
(2.999305857 0.001312969685 0)
(2.998533825 0.002823005633 0)
(2.997054813 0.005905372834 0)
(2.994502486 0.01088326413 0)
(2.990542676 0.01983843946 0)
(2.985494685 0.03133191077 0)
(2.978298778 0.04612111992 0)
(2.969384634 0.06789327312 0)
(2.960942656 0.08853109465 0)
(2.948029796 0.1197041932 0)
(2.941418362 0.1388264613 0)
(2.937751227 0.150328094 0)
(2.921439345 0.1884522224 0)
(2.916787535 0.2037943231 0)
(2.919144526 0.1985527586 0)
(2.910265417 0.2179926257 0)
(2.906872008 0.2298569605 0)
(2.908566936 0.2289319864 0)
(2.902709796 0.236237404 0)
(2.898762205 0.2437401446 0)
(2.897792877 0.2445417958 0)
(2.896016004 0.2477512401 0)
(2.894512327 0.2502966992 0)
(2.893746769 0.2531418659 0)
(2.892386707 0.2553557718 0)
(2.89081374 0.2576974124 0)
(2.889801574 0.2588348599 0)
(2.889501333 0.2597110048 0)
(2.889241624 0.2601405217 0)
(2.88923878 0.2594881188 0)
(2.889340417 0.2589509986 0)
(2.889336334 0.2576752633 0)
(2.889705861 0.2560480397 0)
(2.889841211 0.2543908133 0)
(2.889913136 0.2532330882 0)
(2.890086875 0.2524628124 0)
(2.890399237 0.2517959373 0)
(2.89086633 0.2508370213 0)
(2.891008413 0.2504845767 0)
(2.891079063 0.2505896663 0)
(2.891222102 0.2507739259 0)
(2.891376407 0.2508441272 0)
(2.891542725 0.251214969 0)
(2.891657486 0.2517619 0)
(2.891548112 0.2520702362 0)
(2.891556404 0.2521401046 0)
(2.891555209 0.2521185738 0)
(2.891559558 0.2520941335 0)
(2.891510401 0.2521892436 0)
(2.891442529 0.2522077714 0)
(2.891365959 0.2521846793 0)
(2.891301563 0.2522153704 0)
(2.891262147 0.2522166581 0)
(2.891133567 0.2523442035 0)
(2.891080133 0.2525620238 0)
(2.891103498 0.2525397286 0)
(2.891158346 0.2525006189 0)
(2.891168021 0.2526178228 0)
(2.891155647 0.2527321457 0)
(2.891091471 0.2528255041 0)
(3 9.83350038e-11 0)
(2.999999999 7.606995316e-10 0)
(2.999999996 5.668543866e-09 0)
(2.999999979 3.28035742e-08 0)
(2.999999895 1.684353268e-07 0)
(2.999999513 8.083727378e-07 0)
(2.999998101 3.187101955e-06 0)
(2.999993047 1.191870338e-05 0)
(2.99997703 4.015580709e-05 0)
(2.999932994 0.0001198006016 0)
(2.999816112 0.0003353233513 0)
(2.999548341 0.0008413065006 0)
(2.998983075 0.001966290581 0)
(2.997906554 0.004057323409 0)
(2.995875544 0.008326658306 0)
(2.992821534 0.01485681987 0)
(2.988655641 0.02335329673 0)
(2.981409194 0.0409799887 0)
(2.974570967 0.0568534876 0)
(2.965289981 0.07617002892 0)
(2.953011749 0.1081290431 0)
(2.948262785 0.1235444868 0)
(2.933263078 0.1562023224 0)
(2.922459995 0.1871087824 0)
(2.925259645 0.1894188181 0)
(2.911896012 0.2164784575 0)
(2.904307809 0.2421432511 0)
(2.9044984 0.2408979902 0)
(2.899709744 0.2496965052 0)
(2.895428937 0.2637164733 0)
(2.89368677 0.2641632873 0)
(2.891615393 0.2656709692 0)
(2.891378794 0.2684792365 0)
(2.890205763 0.2667638931 0)
(2.889731977 0.2642916289 0)
(2.888648284 0.2602410938 0)
(2.888980225 0.257595881 0)
(2.889760323 0.2577988673 0)
(2.889360545 0.2561743469 0)
(2.889415758 0.255077887 0)
(2.889283026 0.2545115873 0)
(2.889419088 0.2541509337 0)
(2.889729811 0.2539476717 0)
(2.890141484 0.2541201151 0)
(2.890560002 0.2543574179 0)
(2.890767866 0.2546481878 0)
(2.891041112 0.255082018 0)
(2.891476071 0.2544747966 0)
(2.891540151 0.2538529852 0)
(2.891419504 0.2536681653 0)
(2.891543191 0.2534973171 0)
(2.891544675 0.2532911028 0)
(2.891429597 0.25300092 0)
(2.891373366 0.2525431454 0)
(2.891442356 0.2522461705 0)
(2.891469715 0.2520780718 0)
(2.891393454 0.2517434663 0)
(2.891432758 0.2516464069 0)
(2.891454792 0.2516721472 0)
(2.89150489 0.2517852053 0)
(2.891531718 0.2519458463 0)
(2.891459894 0.2521600197 0)
(2.891378453 0.2523704067 0)
(2.891370369 0.2524729669 0)
(2.891365733 0.2525608521 0)
(2.891383094 0.2526696071 0)
(2.891317272 0.2528816884 0)
(3 8.176428201e-16 0)
(3 -3.380337889e-14 0)
(3 -6.373412978e-14 0)
(3 2.804916316e-12 0)
(3 3.053124758e-11 0)
(3 3.006929827e-10 0)
(2.999999999 2.27312236e-09 0)
(2.999999991 1.402165299e-08 0)
(2.999999951 7.907736266e-08 0)
(2.999999769 3.755726048e-07 0)
(2.999999018 1.636659554e-06 0)
(2.999996203 6.426290198e-06 0)
(2.999987178 2.213420638e-05 0)
(2.999959396 7.250614116e-05 0)
(2.999886562 0.0002025915175 0)
(2.999708268 0.0005432737586 0)
(2.999302631 0.001334629027 0)
(2.9985384 0.002814954736 0)
(2.997072511 0.005913411994 0)
(2.994578469 0.01084191388 0)
(2.990656948 0.01936288466 0)
(2.985498316 0.03168562528 0)
(2.978909498 0.04507721833 0)
(2.96950744 0.06741894905 0)
(2.961557684 0.08842655349 0)
(2.950376607 0.1137329999 0)
(2.940398858 0.1412270683 0)
(2.938510145 0.1491432164 0)
(2.925212384 0.1773789279 0)
(2.917139116 0.2072414855 0)
(2.917174995 0.2022200566 0)
(2.914849963 0.2082023262 0)
(2.908086145 0.2279384182 0)
(2.907959986 0.2289131867 0)
(2.906481888 0.2339491539 0)
(2.900659059 0.24027389 0)
(2.898755499 0.2437931513 0)
(2.897922468 0.2451584051 0)
(2.895303929 0.2482830161 0)
(2.894740892 0.2514581582 0)
(2.893554641 0.2537712968 0)
(2.892024862 0.2560165448 0)
(2.890965315 0.2572814405 0)
(2.890439977 0.2588791904 0)
(2.890140611 0.258625565 0)
(2.889965254 0.2582092731 0)
(2.889945332 0.2579407178 0)
(2.890036423 0.2571461668 0)
(2.890240001 0.255954155 0)
(2.890494291 0.2543314162 0)
(2.890437551 0.2530754296 0)
(2.890742984 0.2520357883 0)
(2.890824348 0.2517141213 0)
(2.891051973 0.2513205646 0)
(2.891229876 0.2508146123 0)
(2.891375586 0.2510439421 0)
(2.891538098 0.2513421605 0)
(2.891658882 0.2514272816 0)
(2.891814753 0.2516739994 0)
(2.891918591 0.2520136045 0)
(2.891944997 0.2522917487 0)
(2.891801853 0.2524167555 0)
(2.891679061 0.2524027504 0)
(2.891656159 0.2523862367 0)
(2.891619668 0.2523567324 0)
(2.891585183 0.2523899789 0)
(2.891619415 0.2523604931 0)
(3 -1.406786809e-14 0)
(3 -1.491213615e-14 0)
(3 -1.286304026e-14 0)
(3 -9.892077118e-15 0)
(3 -7.995106217e-15 0)
(3 -5.363838679e-14 0)
(3 3.907993684e-13 0)
(3 2.785627926e-13 0)
(3 9.015451184e-12 0)
(3 1.121153665e-10 0)
(2.999999999 8.483786736e-10 0)
(2.999999996 6.109648615e-09 0)
(2.999999978 3.565096076e-08 0)
(2.999999889 1.775616004e-07 0)
(2.999999488 8.531741598e-07 0)
(2.999998003 3.363481784e-06 0)
(2.999992798 1.237052692e-05 0)
(2.99997613 4.202401734e-05 0)
(2.999931193 0.0001231542965 0)
(2.999811643 0.0003460027958 0)
(2.999538043 0.0008593534837 0)
(2.998966394 0.002007478994 0)
(2.997886009 0.004167061902 0)
(2.995922229 0.008173810963 0)
(2.992729822 0.01530117888 0)
(2.988779361 0.02330866318 0)
(2.981750389 0.03928858374 0)
(2.973965393 0.05934002914 0)
(2.966743331 0.07398152828 0)
(2.953422887 0.1055690491 0)
(2.946879474 0.1265112217 0)
(2.938039333 0.1480797156 0)
(2.922239678 0.1876539363 0)
(2.9212092 0.1937330416 0)
(2.918447235 0.2066818091 0)
(2.905512951 0.2384931221 0)
(2.903059661 0.2438306807 0)
(2.902587651 0.2461193703 0)
(2.896436176 0.258410808 0)
(2.895108764 0.2650649466 0)
(2.893068176 0.2633477975 0)
(2.892493389 0.2654431547 0)
(2.891854321 0.265035745 0)
(2.891153041 0.26310631 0)
(2.890213672 0.25952657 0)
(2.889744138 0.2559858254 0)
(2.890064563 0.2557137135 0)
(2.89001893 0.2553275409 0)
(2.890135637 0.2541196034 0)
(2.890224471 0.2536936601 0)
(2.890300897 0.2533637294 0)
(2.890453193 0.2531589694 0)
(2.890684235 0.2534634754 0)
(2.891003309 0.2539814606 0)
(2.891196172 0.2541049274 0)
(2.891513669 0.2545286659 0)
(2.891664219 0.2545536549 0)
(2.891849163 0.2538266448 0)
(2.891872463 0.2535145319 0)
(2.891893653 0.2534045683 0)
(2.891834305 0.2532726369 0)
(2.891664536 0.2530313003 0)
(2.891590618 0.2526776528 0)
(2.89160736 0.2524439043 0)
(2.891535607 0.2521848383 0)
(2.891564907 0.2519454237 0)
(2.891679285 0.2518843364 0)
(3 -1.541066687e-14 0)
(3 -1.474903205e-14 0)
(3 -1.427575279e-14 0)
(3 -1.458370073e-14 0)
(3 -1.49238756e-14 0)
(3 -1.290167426e-14 0)
(3 -1.567685805e-14 0)
(3 -1.642135094e-14 0)
(3 -1.85675506e-14 0)
(3 4.6895386e-16 0)
(3 5.56043697e-14 0)
(3 -1.941332049e-13 0)
(3 3.274273785e-12 0)
(3 3.636070376e-11 0)
(3 3.372790683e-10 0)
(2.999999998 2.572432182e-09 0)
(2.99999999 1.550328481e-08 0)
(2.999999946 8.655114137e-08 0)
(2.999999747 4.145794843e-07 0)
(2.999998948 1.752803987e-06 0)
(2.999995913 6.994070906e-06 0)
(2.999986385 2.35940217e-05 0)
(2.999957722 7.605142562e-05 0)
(2.999880576 0.0002159561633 0)
(2.999700502 0.0005551888224 0)
(2.99928547 0.0013872312 0)
(2.998486314 0.002911960339 0)
(2.997034858 0.005969015493 0)
(2.994534694 0.01124167003 0)
(2.990697667 0.0190794042 0)
(2.985200699 0.03249577319 0)
(2.979090461 0.04562098312 0)
(2.970045947 0.06557519494 0)
(2.960827909 0.09002921325 0)
(2.951985101 0.1110350156 0)
(2.940048768 0.1415660244 0)
(2.935668834 0.1546385193 0)
(2.930976873 0.166875185 0)
(2.917481355 0.202434014 0)
(2.914738082 0.2115377568 0)
(2.917124055 0.205394049 0)
(2.909773803 0.2208558214 0)
(2.907125185 0.2299014842 0)
(2.90795943 0.2322614212 0)