/*--------------------------------*- C++ -*----------------------------------*\
  =========                 |
  \\      /  F ield         | OpenFOAM: The Open Source CFD Toolbox
   \\    /   O peration     | Website:  https://openfoam.org
    \\  /    A nd           | Version:  7
     \\/     M anipulation  |
\*---------------------------------------------------------------------------*/
FoamFile
{
    version     2.0;
    format      ascii;
    class       volScalarField;
    location    "2.8";
    object      rho;
}
// * * * * * * * * * * * * * * * * * * * * * * * * * * * * * * * * * * * * * //

dimensions      [1 -3 0 0 0 0 0];

internalField   nonuniform List<scalar> 5(1.458259978 1.457090139 1.488429367 1.440912875 1.540834883);

boundaryField
{
    inlet
    {
        type            calculated;
        value           nonuniform 0();
    }
    outlet
    {
        type            calculated;
        value           nonuniform 0();
    }
    bottom
    {
        type            calculated;
        value           nonuniform 0();
    }
    top
    {
        type            calculated;
        value           nonuniform 0();
    }
    obstacle
    {
        type            calculated;
        value           nonuniform 0();
    }
    defaultFaces
    {
        type            empty;
    }
    procBoundary9to3
    {
        type            processor;
        value           nonuniform List<scalar> 2(1.414949583 1.441473642);
    }
    procBoundary9to4
    {
        type            processor;
        value           nonuniform List<scalar> 2(1.431863785 1.353048553);
    }
    procBoundary9to8
    {
        type            processor;
        value           uniform 1.405677137;
    }
    procBoundary9to14
    {
        type            processor;
        value           uniform 1.493308051;
    }
    procBoundary9to15
    {
        type            processor;
        value           nonuniform List<scalar> 3(1.314655926 1.314655926 1.183128838);
    }
    procBoundary9to20
    {
        type            processor;
        value           uniform 1.743551088;
    }
}


// ************************************************************************* //
