/*--------------------------------*- C++ -*----------------------------------*\
  =========                 |
  \\      /  F ield         | OpenFOAM: The Open Source CFD Toolbox
   \\    /   O peration     | Website:  https://openfoam.org
    \\  /    A nd           | Version:  7
     \\/     M anipulation  |
\*---------------------------------------------------------------------------*/
FoamFile
{
    version     2.0;
    format      ascii;
    class       volVectorField;
    location    "1.8";
    object      U;
}
// * * * * * * * * * * * * * * * * * * * * * * * * * * * * * * * * * * * * * //

dimensions      [0 1 -1 0 0 0 0];

internalField   nonuniform List<vector> 
143
(
(3 -1.004254655e-15 0)
(3 -1.503027578e-15 0)
(3 -4.317615942e-15 0)
(3 -4.753355398e-15 0)
(3 -7.260673161e-15 0)
(3 -6.374756403e-15 0)
(3 -5.443209326e-15 0)
(3 7.783677552e-16 0)
(3 1.559272645e-15 0)
(3 -1.1099513e-15 0)
(3 -3.919133923e-17 0)
(3 -1.108689614e-15 0)
(3 -2.567877017e-15 0)
(3 -4.168470251e-15 0)
(3 -2.057234453e-15 0)
(3 -2.053407165e-15 0)
(3 -2.017154937e-15 0)
(3 -1.620276448e-15 0)
(3 -8.851640382e-16 0)
(3 -2.115055751e-15 0)
(3 -2.050585193e-15 0)
(3 -1.420152035e-15 0)
(3 -3.944878423e-16 0)
(3 -1.144975629e-16 0)
(3 -2.381275179e-16 0)
(3 7.08168592e-16 0)
(3 1.270265935e-15 0)
(3 1.203186429e-15 0)
(3 -9.743488479e-16 0)
(3 -3.347065184e-15 0)
(3 -4.381423383e-15 0)
(3 -4.419064549e-15 0)
(3 -4.326756375e-15 0)
(3 -3.657132134e-15 0)
(3 -2.96391699e-15 0)
(3 -2.325999721e-15 0)
(3 -1.723172773e-15 0)
(3 2.083166698e-15 0)
(3 3.77182725e-15 0)
(3 3.434081667e-15 0)
(3 2.902760248e-15 0)
(3 -3.515483354e-16 0)
(3 -1.428811862e-15 0)
(3 1.282367959e-16 0)
(3 -6.895960342e-16 0)
(3 7.866966268e-16 0)
(3 2.149586462e-16 0)
(3 2.892918074e-16 0)
(3 -2.340109622e-15 0)
(3 -2.626791383e-15 0)
(3 -2.831393131e-15 0)
(3 -2.442406719e-15 0)
(3 -3.797821571e-15 0)
(3 -1.049008926e-15 0)
(3 1.867974752e-15 0)
(3 3.624496684e-15 0)
(3 9.130290015e-16 0)
(3 3.852321927e-16 0)
(3 -1.053921803e-15 0)
(3 -8.063296919e-16 0)
(3 -9.48462182e-17 0)
(3 -7.448172038e-17 0)
(3 1.427067781e-15 0)
(3 1.36937456e-16 0)
(3 3.586192917e-16 0)
(3 -2.918967585e-16 0)
(3 -1.500159994e-15 0)
(3 -3.09852365e-15 0)
(3 -3.894241177e-15 0)
(3 -5.444269574e-15 0)
(3 -3.764524826e-15 0)
(3 -4.785954231e-15 0)
(3 -4.883459575e-15 0)
(3 -2.461757973e-15 0)
(3 -2.655678053e-15 0)
(3 -6.355017969e-16 0)
(3 -1.692956139e-16 0)
(3 9.398593068e-16 0)
(3 9.092700744e-16 0)
(3 1.288895518e-15 0)
(3 1.244297927e-15 0)
(3 8.029629953e-16 0)
(3 4.504084273e-16 0)
(3 -9.55144841e-16 0)
(3 -1.140054389e-15 0)
(3 -2.147179107e-15 0)
(3 -3.530412498e-15 0)
(3 -4.024468862e-15 0)
(3 -5.565848396e-15 0)
(3 -1.037223118e-14 0)
(3 -1.006139521e-14 0)
(3 -9.067693432e-15 0)
(3 8.71399767e-16 0)
(3 7.21081631e-16 0)
(3 -5.794443898e-16 0)
(3 -2.85062678e-15 0)
(3 -2.781241319e-15 0)
(3 -2.035228093e-15 0)
(3 -5.656891446e-16 0)
(3 4.10059561e-19 0)
(3 1.337839126e-15 0)
(3 4.020001024e-15 0)
(3 3.177608722e-15 0)
(3 2.930145149e-15 0)
(3 -5.045885312e-16 0)
(3 -7.394427948e-16 0)
(3 -2.131093336e-15 0)
(3 -6.354558186e-15 0)
(3 -6.946126575e-15 0)
(3 -2.882186247e-16 0)
(3 4.765098418e-16 0)
(3 -1.479265436e-15 0)
(3 -2.27829022e-15 0)
(3 -4.26512566e-15 0)
(3 -3.386054973e-15 0)
(3 6.92595844e-16 0)
(3 1.729725262e-15 0)
(3 2.192227264e-15 0)
(3 3.991913285e-15 0)
(3 6.519141551e-15 0)
(3 5.628049962e-15 0)
(3 4.713534881e-15 0)
(3 3.86401803e-15 0)
(3 5.153109862e-15 0)
(3 5.737569374e-15 0)
(3 4.357424838e-15 0)
(3 -7.212440307e-16 0)
(3 -1.05866857e-15 0)
(3 -1.371754663e-15 0)
(3 9.032352828e-16 0)
(3 -6.409463417e-17 0)
(3 -2.556333953e-16 0)
(3 2.228020599e-15 0)
(3 2.030315939e-15 0)
(3 1.035641307e-15 0)
(3 1.149164744e-15 0)
(3 3.486045105e-15 0)
(3 3.727607508e-15 0)
(3 4.578809698e-15 0)
(3 3.788527032e-15 0)
(3 4.062968527e-15 0)
(3 5.542776819e-15 0)
(3 5.999385599e-15 0)
)
;

boundaryField
{
    inlet
    {
        type            fixedValue;
        value           uniform (3 0 0);
    }
    outlet
    {
        type            inletOutlet;
        inletValue      nonuniform 0();
        value           nonuniform 0();
    }
    bottom
    {
        type            slip;
    }
    top
    {
        type            slip;
    }
    obstacle
    {
        type            slip;
    }
    defaultFaces
    {
        type            empty;
    }
    procBoundary30to24
    {
        type            processor;
        value           nonuniform List<vector> 
18
(
(3 -4.21592088e-15 0)
(3 -4.702343054e-15 0)
(3 -4.451156843e-15 0)
(3 -6.418396801e-15 0)
(3 -7.883750894e-15 0)
(3 -5.600841654e-15 0)
(3 -3.077965307e-15 0)
(3 1.408581611e-15 0)
(3 9.10420718e-16 0)
(3 -4.42691846e-16 0)
(3 -1.485024729e-15 0)
(3 -1.093991314e-15 0)
(3 -8.497453405e-16 0)
(3 5.172019042e-17 0)
(3 -3.524630439e-16 0)
(3 -2.861566413e-16 0)
(3 -6.176679028e-16 0)
(3 -6.176679028e-16 0)
)
;
    }
    procBoundary30to25
    {
        type            processor;
        value           uniform (3 -3.86481302e-15 0);
    }
    procBoundary30to31
    {
        type            processor;
        value           nonuniform List<vector> 8((3 -6.278092411e-16 0) (3 1.229507309e-15 0) (3 1.063844445e-15 0) (3 -1.873993151e-15 0) (3 -6.815028706e-15 0) (3 -6.748141719e-15 0) (3 1.930990646e-15 0) (3 5.258231826e-15 0));
    }
}


// ************************************************************************* //
