/*--------------------------------*- C++ -*----------------------------------*\
  =========                 |
  \\      /  F ield         | OpenFOAM: The Open Source CFD Toolbox
   \\    /   O peration     | Website:  https://openfoam.org
    \\  /    A nd           | Version:  7
     \\/     M anipulation  |
\*---------------------------------------------------------------------------*/
FoamFile
{
    version     2.0;
    format      ascii;
    class       volVectorField;
    location    "3.9";
    object      U;
}
// * * * * * * * * * * * * * * * * * * * * * * * * * * * * * * * * * * * * * //

dimensions      [0 1 -1 0 0 0 0];

internalField   nonuniform List<vector> 
138
(
(3.154241006 -0.002822341898 0)
(3.187434888 -0.01433208577 0)
(3.200206111 -0.01156208531 0)
(3.047694088 -0.03482162985 0)
(3.04491352 -0.07060230526 0)
(3.122046757 -0.009779288515 0)
(3.146052319 0.004414368706 0)
(3.178517664 0.006150151017 0)
(3.194069771 -0.01077230771 0)
(3.072047855 -0.08600200329 0)
(3.108428976 -0.06593844312 0)
(3.15136702 -0.01105980486 0)
(3.165954 -0.01428788897 0)
(3.189409648 -0.0005228931271 0)
(3.207886545 -0.001490622206 0)
(3.17816877 -0.131286292 0)
(3.241554295 -0.115543911 0)
(3.205168977 -0.02348166421 0)
(3.212497783 0.005745643371 0)
(3.222221762 0.02133246188 0)
(3.233074017 0.01241215125 0)
(3.278421218 -0.1838820756 0)
(3.322680365 -0.1615564995 0)
(3.269299228 -0.05812039917 0)
(3.255882086 -0.00362880469 0)
(3.260667177 0.02077232994 0)
(3.261757322 0.02095535632 0)
(3.317158899 -0.2401969717 0)
(3.354517403 -0.1997361252 0)
(3.32482162 -0.09992955191 0)
(3.285645828 -0.006605423732 0)
(3.290552984 0.01978841007 0)
(3.289825721 0.0194430258 0)
(3.278461797 0.004368244531 0)
(3.330392568 -0.2796960153 0)
(3.370983833 -0.2457269339 0)
(3.34742718 -0.1307639235 0)
(3.303149503 -0.01831802412 0)
(3.304901716 0.009092921156 0)
(3.305738096 0.0119532581 0)
(3.300829542 -0.006168361294 0)
(3.344180785 -0.3113678299 0)
(3.380400098 -0.260932269 0)
(3.353313516 -0.1970037943 0)
(3.309748513 -0.04618460553 0)
(3.30108154 0.003818845361 0)
(3.30450534 0.01474161955 0)
(3.309955807 -0.01122403631 0)
(3.365183626 -0.3459939119 0)
(3.392377459 -0.2806594485 0)
(3.351692307 -0.2392243107 0)
(3.306502945 -0.0866508369 0)
(3.282401731 0.002951641057 0)
(3.291498446 0.02041036195 0)
(3.300834632 0.0005886881242 0)
(3.368322687 -0.3644716145 0)
(3.400465588 -0.2944223193 0)
(3.36027825 -0.2886368471 0)
(3.303856874 -0.1203774362 0)
(3.266654815 -0.002604754614 0)
(3.269977439 0.02932442544 0)
(3.279724743 0.01789898647 0)
(3.384055314 -0.3905783413 0)
(3.405160121 -0.3137822687 0)
(3.368474577 -0.3109028898 0)
(3.295842189 -0.1400567747 0)
(3.25701905 -0.01443061021 0)
(3.252836605 0.03302765046 0)
(3.252737548 0.02694863539 0)
(3.382882411 -0.4024565112 0)
(3.408203716 -0.3326387042 0)
(3.379823516 -0.3439391928 0)
(3.294447159 -0.2110158342 0)
(3.242150358 -0.02047395396 0)
(3.225514429 0.02992165462 0)
(3.227253384 0.0231143764 0)
(3.384314084 -0.4178388445 0)
(3.411390451 -0.3474860997 0)
(3.392183897 -0.3584629728 0)
(3.289648438 -0.2627523831 0)
(3.210691158 -0.03682267102 0)
(3.190433452 0.02754360785 0)
(3.195938511 0.01492290671 0)
(3.19377112 -0.002928356841 0)
(3.38777109 -0.4300740978 0)
(3.413657308 -0.3555746208 0)
(3.405107873 -0.3758024841 0)
(3.28657892 -0.3196387966 0)
(3.172321118 -0.1049563412 0)
(3.151102511 0.01266439593 0)
(3.149837263 0.008247079149 0)
(3.146402318 -0.009081329579 0)
(3.383586462 -0.4339937503 0)
(3.416765588 -0.3674707387 0)
(3.417297192 -0.3824960668 0)
(3.285914694 -0.3564507282 0)
(3.137842188 -0.1748101249 0)
(3.096733743 -0.005075426669 0)
(3.097505714 0.009633540084 0)
(3.096224767 1.762094076e-05 0)
(3.382573115 -0.4398189543 0)
(3.422616997 -0.3797045642 0)
(3.429269619 -0.3903349173 0)
(3.287648726 -0.375714119 0)
(3.097126002 -0.1940826656 0)
(3.041681769 -0.02297855925 0)
(3.047195629 0.01940036084 0)
(3.047025085 0.01445306891 0)
(3.379250971 -0.4434643635 0)
(3.429459796 -0.3893563745 0)
(3.440236103 -0.3944424398 0)
(3.288520873 -0.3966060655 0)
(3.068409185 -0.2191259315 0)
(2.972304565 -0.02066307712 0)
(2.988585289 0.02490634419 0)
(2.984691072 0.02050702185 0)
(3.367873135 -0.4464665095 0)
(3.435797527 -0.3949654044 0)
(3.452204467 -0.3987218086 0)
(3.287341284 -0.4183496827 0)
(3.057803026 -0.2867038164 0)
(2.900303745 -0.03615677641 0)
(2.909445244 0.02621775365 0)
(2.914877984 0.01779514156 0)
(3.3515806 -0.4498913785 0)
(3.444455776 -0.4013856456 0)
(3.46617409 -0.4001439113 0)
(3.282413232 -0.4218454828 0)
(3.044144579 -0.3238651398 0)
(2.859183997 -0.09224513235 0)
(2.832828075 0.01218978527 0)
(2.85158534 0.00591846604 0)
(3.32895636 -0.4520828476 0)
(3.451966427 -0.4045101502 0)
(3.479035316 -0.4005119459 0)
(3.27619188 -0.4298324616 0)
(3.037276315 -0.3626647207 0)
(2.843855783 -0.1473502656 0)
)
;

boundaryField
{
    inlet
    {
        type            fixedValue;
        value           nonuniform 0();
    }
    outlet
    {
        type            inletOutlet;
        inletValue      nonuniform 0();
        value           nonuniform 0();
    }
    bottom
    {
        type            slip;
    }
    top
    {
        type            slip;
    }
    obstacle
    {
        type            slip;
    }
    defaultFaces
    {
        type            empty;
    }
    procBoundary21to15
    {
        type            processor;
        value           nonuniform List<vector> 7((3.168033272 0.001979324404 0) (3.193959531 -0.0120564594 0) (3.210296104 -0.006750171239 0) (3.05397917 0.02411550582 0) (3.060034699 0.03924613185 0) (3.124151216 0.001676833346 0) (3.124151216 0.001676833346 0));
    }
    procBoundary21to16
    {
        type            processor;
        value           uniform (3.203424935 -0.01264155735 0);
    }
    procBoundary21to22
    {
        type            processor;
        value           nonuniform List<vector> 
18
(
(3.20198735 -0.0147575053 0)
(3.213385105 -0.001686056658 0)
(3.230036403 0.01233341715 0)
(3.253045066 0.01342198678 0)
(3.253045066 0.01342198678 0)
(3.275732704 -0.002676819546 0)
(3.296969157 -0.01017533394 0)
(3.304368965 -0.0133383042 0)
(3.295610843 -0.004940647329 0)
(3.276989539 0.00572266742 0)
(3.253702261 0.01032562713 0)
(3.228203739 0.005844694394 0)
(3.228203739 0.005844694394 0)
(3.184550936 -0.008072083972 0)
(3.137546062 -0.01002385132 0)
(3.093114542 3.214939563e-05 0)
(3.042828164 0.01033726969 0)
(2.979373671 0.01121331162 0)
)
;
    }
    procBoundary21to27
    {
        type            processor;
        value           nonuniform List<vector> 9((2.781951308 -0.008743640345 0) (2.806142577 -0.004651891546 0) (3.304068127 -0.4543249853 0) (3.464333809 -0.4078502825 0) (3.498034085 -0.4004379044 0) (3.270199795 -0.429718774 0) (3.030106366 -0.3819135489 0) (2.781951308 -0.008743640345 0) (2.845573053 -0.190903185 0));
    }
    procBoundary21to28
    {
        type            processor;
        value           nonuniform List<vector> 2((2.917796395 0.006874097781 0) (2.870513745 -0.005941003535 0));
    }
}


// ************************************************************************* //
