/*--------------------------------*- C++ -*----------------------------------*\
  =========                 |
  \\      /  F ield         | OpenFOAM: The Open Source CFD Toolbox
   \\    /   O peration     | Website:  https://openfoam.org
    \\  /    A nd           | Version:  7
     \\/     M anipulation  |
\*---------------------------------------------------------------------------*/
FoamFile
{
    version     2.0;
    format      ascii;
    class       volScalarField;
    location    "3.7";
    object      p;
}
// * * * * * * * * * * * * * * * * * * * * * * * * * * * * * * * * * * * * * //

dimensions      [1 -1 -2 0 0 0 0];

internalField   nonuniform List<scalar> 
2222
(
1.800869936
2.511523458
2.759630046
2.802387491
2.774550616
1.040031015
1.039694673
1.03801538
1.036090956
1.033572833
1.029857091
1.025026042
1.021691279
1.021564507
1.022697302
1.024572758
1.027366925
1.030807071
1.031560258
1.031329176
1.030724125
1.030089858
1.029309182
1.028426075
1.027501538
1.026954709
1.026915208
1.025868906
1.025253387
1.029396065
1.172212459
1.837789153
2.530264614
2.762578553
2.801408496
2.771220973
1.042935987
1.042832071
1.042083902
1.04122694
1.040104058
1.039133295
1.036875852
1.033572834
1.030872484
1.028809502
1.025639718
1.022418368
1.022286221
1.02325343
1.024947833
1.027032436
1.029540156
1.0315341
1.031827091
1.031245765
1.030460037
1.029541586
1.028404538
1.02698933
1.0257265
1.025170088
1.025064957
1.025227271
1.030540456
1.191429784
1.875297901
2.5474577
2.76442363
2.800900402
2.767508282
1.041938832
1.043613212
1.043105151
1.042370294
1.04053459
1.039638631
1.036954774
1.03297519
1.028630529
1.026356403
1.025456695
1.023472398
1.023200703
1.024219578
1.025715464
1.027679856
1.029287493
1.031444091
1.032343379
1.032020195
1.031206942
1.030229887
1.028947761
1.027519785
1.026016691
1.024571553
1.02365768
1.02395807
1.030749336
1.211591227
1.912911382
2.563324881
2.763769146
2.798430737
2.763328306
1.039114969
1.042212121
1.043493304
1.043245043
1.041708324
1.040858076
1.037449159
1.033329786
1.028187995
1.024548379
1.023792014
1.023783856
1.023754984
1.024913861
1.02680815
1.028538562
1.029807399
1.031303028
1.032376211
1.03237141
1.031786602
1.030831063
1.029661447
1.028277943
1.026677045
1.024908954
1.023436217
1.02331566
1.031219051
1.232784552
1.949998114
2.577890331
2.762087779
2.795211583
2.758431808
1.038275593
1.040410131
1.041926262
1.042777611
1.042571249
1.041556501
1.038248712
1.033931337
1.028597969
1.024090233
1.021978931
1.022378798
1.023291761
1.025114731
1.027541536
1.029497033
1.030709892
1.031329472
1.031969987
1.032064759
1.031721568
1.031102958
1.030180389
1.028766533
1.027225308
1.02551357
1.023828948
1.023666524
1.032410292
1.255388226
1.986554531
2.591921459
2.76108816
2.792007146
2.75224108
1.038771359
1.040116591
1.041277759
1.042146187
1.042465134
1.041304308
1.038691754
1.034476667
1.029548695
1.024488079
1.021439158
1.021396496
1.02221836
1.024056144
1.027271395
1.030338012
1.031618451
1.03181618
1.03177021
1.031362058
1.030760827
1.030172305
1.029352662
1.028298654
1.02731075
1.026005984
1.024428303
1.024305965
1.034107994
1.279760455
2.022506866
2.606645839
2.762281666
2.789009744
2.746283352
1.039783885
1.040504467
1.041211853
1.042012094
1.042357265
1.04085979
1.037877023
1.034708217
1.030182154
1.025204033
1.021748914
1.021293193
1.022251163
1.023712841
1.026435547
1.030259235
1.032278988
1.032519061
1.032251212
1.03165249
1.030722341
1.029769129
1.0284737
1.026944815
1.026014616
1.025562781
1.024810703
1.024754284
1.036525414
1.305972604
2.05754823
2.620679922
2.764084785
2.786175563
2.741499773
1.040961005
1.041301112
1.041593398
1.041899406
1.042205672
1.041380855
1.037600672
1.034135708
1.030392168
1.025967315
1.022582099
1.021772411
1.022362167
1.024210157
1.026288552
1.029247372
1.032387025
1.033149704
1.032977038
1.032379993
1.031377499
1.030169634
1.028680796
1.026786666
1.025232847
1.024404066
1.024239688
1.024832171
1.039914371
1.334327468
2.091001092
2.630955219
2.763056549
2.783991182
2.736897667
1.040876779
1.041912417
1.042468826
1.042527305
1.043401016
1.042652341
1.03829162
1.033522916
1.029209714
1.026168816
1.02321086
1.022642245
1.023136991
1.024773308
1.026948066
1.02923734
1.031723195
1.033610045
1.033792569
1.033174124
1.032379579
1.031029837
1.029453627
1.0273254
1.025376237
1.024018776
1.023623082
1.024477268
1.043550693
1.364993287
2.123311921
2.636474951
2.760615416
2.782669659
1.035856786
1.039006299
1.040781582
1.041856411
1.042705161
1.044234351
1.043292242
1.039217364
1.033168054
1.026970423
1.023742369
1.02289006
1.023039441
1.024014197
1.0258935
1.028283972
1.029973758
1.031396737
1.033481739
1.034147793
1.033601359
1.032866759
1.031683545
1.030184132
1.028152177
1.025872544
1.024581334
1.023821951
1.024696206
1.047157342
1.397520587
2.155590608
2.64052179
2.758670795
2.779288936
1.035778113
1.038759753
1.040309601
1.041079102
1.041438244
1.042624373
1.041801704
1.038830506
1.032437205
1.025849245
1.021880023
1.021289818
1.021995356
1.024162224
1.026810692
1.029324704
1.030638237
1.031569492
1.03267653
1.033257222
1.032975365
1.032194282
1.031037105
1.029514102
1.028173874
1.026551155
1.025622375
1.024690869
1.025281722
1.051209391
1.431060791
2.188849705
2.643929222
2.757463544
2.775227528
1.036866759
1.039391535
1.040812559
1.041585644
1.04140124
1.040903627
1.038759988
1.03601311
1.03143685
1.026013763
1.022128954
1.020824684
1.021584263
1.023893389
1.026576133
1.029808361
1.031837812
1.032182064
1.03242795
1.03236231
1.031775707
1.030673928
1.029155851
1.02725094
1.026371048
1.026401596
1.026095213
1.025480779
1.026047534
1.056332608
1.465484053
2.22301382
2.6489963
2.75684925
2.771510583
1.038543215
1.04011681
1.04125158
1.042738332
1.042171525
1.040867756
1.037794642
1.034261427
1.030875434
1.026751147
1.023102468
1.021698597
1.022525588
1.024335392
1.026565548
1.030086177
1.032847193
1.033121799
1.033034822
1.032392976
1.031537831
1.030425
1.028541749
1.026502393
1.025029216
1.024616405
1.024551658
1.025258336
1.026394147
1.062645068
1.50089759
2.256609242
2.657072214
2.756277235
2.768292982
1.039164773
1.040894342
1.041980343
1.043165279
1.042043357
1.040962194
1.038272934
1.033567402
1.030326141
1.02730389
1.024068892
1.023169981
1.02404051
1.025332686
1.027341604
1.030316049
1.033413132
1.034266204
1.034089913
1.033193171
1.032133019
1.030612057
1.029053544
1.026938963
1.025363903
1.024054255
1.022989825
1.023235388
1.025110324
1.069394653
1.537393445
2.286920942
2.660333788
2.754453859
2.765597456
1.036692941
1.0397531
1.042376081
1.043711487
1.043699902
1.042864688
1.039400998
1.033313574
1.028236568
1.025589605
1.024194583
1.023793219
1.024990918
1.026483217
1.028972892
1.031074794
1.033684074
1.035064472
1.035027117
1.034349442
1.033355169
1.031539218
1.029920868
1.02802165
1.026334063
1.024501315
1.023158259
1.02231374
1.024272462
1.076205273
1.574547479
2.314074447
2.660457913
2.751701382
2.762998389
1.035408385
1.03835843
1.040924125
1.043783047
1.044853063
1.044176051
1.040184775
1.033246903
1.026029455
1.022097231
1.021375571
1.021523824
1.023604276
1.027025766
1.029948959
1.031914444
1.033598259
1.034797347
1.035251475
1.034878287
1.033881445
1.03227645
1.030700836
1.029063939
1.027098703
1.02556087
1.02393588
1.022793956
1.024556227
1.084080659
1.612025055
2.339397482
2.657403281
2.748684201
2.759834876
1.033340264
1.036201735
1.03907624
1.040952786
1.042523207
1.045130273
1.045121959
1.040383505
1.033531521
1.026133512
1.021220532
1.019940676
1.019581711
1.021251147
1.025015134
1.029000334
1.031595852
1.032816842
1.033627645
1.034017936
1.033576233
1.032598705
1.031212268
1.030337997
1.029856415
1.02784288
1.026318389
1.024374237
1.023719309
1.025509283
1.09416877
1.65032452
2.364769012
2.655597877
2.746013637
2.756539078
1.035190879
1.037518051
1.040594265
1.042249989
1.043033453
1.044024968
1.044084491
1.039692117
1.034105138
1.026967106
1.021756412
1.020054407
1.020215758
1.021361955
1.023504266
1.026964736
1.029964892
1.03215334
1.033363134
1.033653902
1.03300753
1.031972957
1.030363149
1.028688943
1.02842003
1.027955984
1.026702919
1.024871198
1.024137627
1.026637778
1.106598594
1.689551253
2.390757598
2.655712887
2.744789952
2.753922736
1.036677023
1.039095994
1.041428914
1.043405506
1.044636833
1.044014706
1.042950011
1.0392189
1.034804476
1.028861825
1.023880209
1.020965666
1.021754641
1.02267321
1.024722421
1.026627662
1.029462094
1.032338348
1.034138098
1.0344551
1.033867703
1.032563486
1.030653199
1.028828637
1.027171329
1.026271771
1.025455125
1.024944371
1.024312707
1.02746171
1.120667546
1.729412287
2.415411575
2.657334888
2.744215237
2.751123845
1.036619609
1.039863137
1.042058574
1.044056899
1.045928102
1.044623231
1.042792767
1.038379121
1.034310664
1.029920109
1.025218314
1.022854344
1.023131896
1.024850333
1.026792282
1.027973879
1.030291415
1.032942951
1.035310037
1.035922073
1.035474185
1.034109785
1.031770891
1.029654023
1.027326092
1.025573208
1.024491061
1.024231488
1.024032468
1.027843183
1.135782039
1.769334002
2.435487425
2.655731307
2.741142819
2.747742805
1.033665964
1.037510576
1.040838614
1.044162212
1.04635576
1.045108735
1.042919642
1.036480019
1.030292335
1.027342178
1.025325595
1.024243593
1.024201658
1.026208873
1.028095289
1.02994056
1.031447885
1.033023676
1.035209669
1.036235185
1.036119103
1.034933711
1.032952725
1.030453809
1.028215709
1.026404749
1.025388363
1.024663367
1.024595653
1.028860938
1.15223234
1.809024297
2.45118122
2.651291428
2.737138466
2.743485949
1.033331409
1.036821825
1.039497661
1.042273531
1.045665639
1.044944712
1.04224201
1.034862005
1.026965227
1.022989662
1.022010759
1.022225782
1.02399263
1.026841762
1.028611128
1.031153695
1.031887376
1.032293937
1.033298908
1.034082018
1.033916213
1.03339207
1.032528718
1.03078208
1.029275681
1.027909776
1.027006306
1.025896233
1.025698296
1.030396043
1.170664746
1.849000081
2.464700323
2.647187786
2.731670759
2.736389506
1.034536237
1.038044305
1.0405847
1.042470002
1.044114584
1.043782688
1.040917255
1.034672009
1.02723231
1.021954301
1.02019534
1.019698366
1.021743148
1.025035061
1.02825248
1.030448632
1.031711583
1.032551705
1.032920756
1.032756063
1.031996017
1.030740889
1.029380396
1.028722037
1.028472511
1.027932655
1.027744389
1.026962685
1.026722509
1.031938385
1.191010676
1.889601517
2.477751443
2.64456426
2.727440515
1.035007721
1.035806541
1.039362773
1.042997314
1.044449915
1.04529001
1.0440862
1.040602924
1.035576194
1.029151684
1.023582785
1.021230318
1.0202937
1.020945932
1.023639964
1.027033396
1.029592078
1.032209582
1.033804083
1.034262875
1.033790378
1.0326334
1.030323715
1.028112944
1.026992012
1.025839216
1.025277803
1.025810351
1.026435914
1.026945342
1.033200805
1.212744108
1.93001681
2.49264263
2.64384531
2.725829996
1.036330628
1.037758044
1.041207783
1.044564422
1.046931093
1.047388568
1.045003799
1.041039756
1.036389143
1.030905242
1.025982246
1.023301976
1.022363406
1.02214006
1.023781491
1.026989005
1.030024295
1.033508746
1.035801571
1.036498697
1.035920635
1.034498675
1.031803397
1.028979217
1.026848747
1.025032415
1.023859397
1.023654793
1.024011715
1.025211819
1.033175855
1.235371146
1.96907262
2.509538374
2.648929888
2.729911248
1.034284605
1.038357678
1.042719096
1.045635337
1.04816457
1.048187374
1.045084472
1.040432797
1.034232116
1.029830674
1.025866673
1.024253667
1.024178918
1.02444884
1.025260362
1.027446675
1.030728432
1.034300885
1.036839148
1.037550918
1.036995642
1.035838322
1.033869169
1.031265947
1.02830283
1.026055303
1.024717405
1.02402001
1.023703914
1.024360194
1.03411942
1.259198987
2.006026054
2.524070229
2.65590719
2.732456566
1.031145356
1.035233338
1.040057506
1.045241017
1.048388281
1.047466478
1.044034386
1.038992044
1.03066761
1.025339523
1.023011414
1.022378086
1.023155642
1.025291371
1.026754081
1.028016354
1.030469251
1.032742412
1.035198896
1.036335717
1.036254051
1.035476796
1.034809786
1.03282078
1.030144804
1.028486488
1.027115048
1.025586842
1.024447308
1.024579509
1.036386962
1.284899708
2.041074247
2.531035484
2.653760904
2.730292567
1.031974929
1.034906994
1.038738574
1.042810869
1.047043011
1.046406223
1.043585416
1.03903468
1.030459409
1.023712792
1.020670385
1.019465696
1.020537628
1.023322626
1.026128487
1.027968528
1.029814024
1.03116965
1.032763483
1.033476138
1.033322014
1.032271686
1.031599224
1.031276902
1.031258989
1.030258115
1.028770495
1.027488663
1.025080831
1.025995561
1.039484737
1.312701366
2.074837356
2.535450156
2.651063336
2.724654881
1.03368077
1.036967309
1.040467913
1.043479157
1.046456604
1.046952087
1.044375819
1.039743751
1.031882554
1.025188261
1.022220648
1.020489621
1.020412624
1.022489783
1.025981665
1.028555285
1.030688546
1.032130402
1.032536939
1.033184093
1.032545536
1.030870976
1.028738779
1.027784084
1.028456898
1.029004389
1.028909979
1.028347136
1.026360245
1.02770134
1.043944433
1.342793336
2.107504207
2.539404656
2.649466354
2.721486018
1.034698163
1.034870655
1.038991902
1.042910822
1.04588696
1.047809265
1.04833151
1.045184311
1.040402443
1.033632636
1.027731956
1.02483342
1.023259554
1.023006752
1.023912836
1.026935891
1.030143606
1.032757732
1.034541772
1.034417211
1.034319537
1.033620179
1.032005139
1.029718011
1.027090426
1.026116924
1.026129425
1.026149899
1.026204365
1.02646243
1.028728615
1.04892734
1.37524311
2.139659252
2.544357454
2.649065278
2.723499959
1.035109517
1.036315691
1.039443805
1.044536925
1.047750083
1.048170264
1.047340151
1.043307064
1.039096419
1.033949177
1.029346189
1.026477871
1.025756837
1.026073402
1.026986641
1.028737827
1.031935554
1.034716501
1.036419271
1.036754873
1.036014671
1.035175646
1.033783135
1.031705025
1.029077375
1.027211863
1.025931066
1.025035575
1.024413815
1.024269573
1.026468211
1.052459922
1.408925353
2.171442305
2.550422302
2.650858772
2.728075233
1.032033593
1.035295543
1.039208033
1.044970208
1.047784874
1.046503839
1.044070399
1.039265432
1.033327624
1.028764613
1.026416589
1.02538675
1.025693987
1.026869408
1.028913929
1.03018197
1.032280175
1.03435575
1.035842829
1.036953565
1.036583534
1.03565429
1.034126791
1.032563698
1.031736852
1.029604936
1.027780264
1.026416538
1.025116117
1.023768533
1.025072476
1.056058002
1.442372511
2.203522971
2.558416309
2.655051344
2.729051238
1.030599818
1.034074639
1.037774644
1.043368651
1.046839474
1.045454668
1.042088417
1.037775445
1.030945927
1.025462987
1.022335053
1.021091316
1.021584052
1.023721233
1.026892088
1.028908001
1.029689043
1.031190963
1.032140169
1.033458423
1.033619694
1.03268577
1.031877538
1.031727639
1.031748249
1.03105622
1.029982814
1.028872723
1.027169925
1.02516395
1.026659415
1.061169708
1.475518103
2.234828026
2.568123142
2.66057208
2.729224759
1.031680871
1.035133189
1.039419278
1.043517014
1.046701631
1.046589726
1.044031143
1.039739195
1.032414791
1.02596582
1.022283833
1.020601151
1.020376424
1.021721812
1.024797181
1.028055198
1.029471366
1.031159139
1.032328029
1.032564193
1.032147683
1.030614834
1.028964738
1.027896512
1.027826886
1.028765573
1.029397663
1.029376138
1.028806473
1.02750319
1.029161148
1.067519411
1.509203333
2.264377053
2.577586875
2.664409796
2.729743205
1.034937401
1.037552919
1.042420922
1.04642924
1.049742423
1.049771774
1.047230847
1.042526437
1.035012156
1.028138223
1.023904655
1.022052645
1.022284208
1.023798209
1.025668714
1.028625751
1.030669054
1.032363719
1.033759281
1.033307718
1.03216245
1.030394209
1.028690413
1.026576221
1.024833685
1.024230794
1.025240367
1.026512243
1.028214728
1.027981551
1.030035547
1.076628755
1.544827366
2.290569668
2.5852404
2.665120301
2.73001416
1.037890635
1.040449633
1.04492995
1.049516341
1.052392547
1.051643329
1.048330918
1.043042258
1.035858592
1.029872482
1.026077819
1.02415123
1.024642223
1.026797264
1.028450026
1.030657244
1.032766363
1.034300644
1.035330212
1.035299401
1.03405133
1.032539738
1.030440126
1.027478264
1.025402818
1.023949025
1.023425469
1.023080484
1.024312612
1.024507947
1.027710547
1.086867759
1.582036873
2.313475621
2.588946727
2.66470662
2.72963952
1.034674322
1.037338936
1.041225625
1.045481033
1.050032953
1.05047245
1.048430014
1.044835417
1.039425034
1.033647611
1.02972825
1.027400482
1.026248229
1.025928969
1.027973155
1.030932673
1.032634239
1.034150631
1.035734262
1.036751515
1.037410008
1.036801432
1.035575705
1.033082504
1.030019791
1.027772348
1.025968607
1.024354724
1.023328934
1.022761365
1.022379072
1.02568017
1.096346815
1.619529482
2.334367462
2.590981017
2.664106724
1.030047851
1.033968867
1.038509622
1.043267369
1.047336919
1.046951854
1.044749476
1.040708082
1.034490803
1.028951608
1.026045578
1.025323016
1.025930318
1.026431488
1.028216644
1.030704466
1.031327742
1.031874129
1.032844236
1.034019908
1.034621499
1.035203139
1.035042794
1.034085365
1.032583106
1.030564228
1.028712803
1.026424793
1.025288916
1.024395828
1.023879985
1.027239499
1.106128926
1.656273348
2.353839832
2.592486621
2.663080495
1.029265599
1.032652895
1.037723376
1.042345364
1.045797279
1.045207769
1.043010649
1.039114776
1.033464378
1.027698676
1.024225453
1.02339423
1.024241517
1.0257683
1.027288757
1.028423909
1.029562008
1.030223746
1.03083997
1.031666591
1.03148493
1.031332819
1.030969258
1.030921592
1.031419318
1.031054485
1.030123125
1.028437585
1.027205399
1.026714056
1.025897393
1.029360715
1.118987764
1.692940614
2.373401761
2.594734624
2.662753983
1.032255361
1.035155583
1.039577661
1.044827511
1.048656216
1.04764159
1.044688797
1.040082123
1.034611038
1.029206266
1.025634955
1.023985365
1.024367512
1.026548225
1.02782389
1.028560167
1.030038191
1.031686018
1.03252647
1.03275694
1.03219255
1.03112263
1.029592111
1.028307446
1.027588404
1.02749631
1.027715292
1.027920914
1.027215109
1.02696904
1.026747045
1.030818706
1.13521959
1.730418536
2.3923673
2.598105302
2.664279926
1.036358693
1.039226332
1.042572026
1.048190523
1.052007084
1.051099123
1.047738643
1.042173308
1.03614629
1.03136901
1.028180722
1.02613181
1.02565426
1.027314705
1.029153055
1.030167537
1.031508738
1.03397679
1.035316988
1.034877425
1.034001706
1.032604893
1.030549134
1.02820239
1.026334012
1.025114841
1.02489214
1.025377514
1.025116935
1.025028425
1.02601045
1.031450474
1.152904587
1.768281288
2.411611756
2.603472822
2.668591225
1.038362398
1.041350222
1.044245225
1.049378283
1.052027306
1.05123794
1.04791219
1.042343658
1.035910338
1.031673281
1.029241886
1.027602905
1.026770747
1.027178852
1.029228714
1.031058918
1.032577442
1.034820012
1.036452505
1.036217522
1.035399661
1.034305496
1.032592959
1.030188616
1.028218832
1.026768195
1.025905222
1.025560679
1.024931507
1.024407959
1.024246023
1.030766416
1.170636456
1.805564065
2.430588433
2.611885746
2.676751811
1.032347938
1.03604306
1.039388142
1.042609914
1.047174064
1.048826501
1.047157471
1.043514706
1.037846019
1.032240721
1.02824589
1.026405119
1.025639757
1.0256864
1.026082848
1.027365111
1.029617271
1.031550373
1.033103217
1.034747733
1.035549621
1.035279689
1.034607433
1.033500313
1.031879635
1.030667377
1.029585124
1.02836495
1.026907988
1.02607396
1.025379563
1.024108678
1.031691156
1.189526882
1.841561904
2.44906682
2.624416816
2.685159539
1.031493401
1.034474146
1.037969056
1.041617922
1.0459568
1.046424423
1.044748994
1.041063397
1.035352526
1.029344069
1.024739892
1.023042221
1.023057218
1.024652074
1.025986419
1.026521355
1.028163337
1.029868258
1.030735246
1.031489968
1.032143231
1.031849186
1.031117791
1.030307501
1.02976515
1.029948031
1.03019608
1.029780375
1.028634594
1.027904413
1.027249439
1.025878755
1.034230995
1.21106468
1.877197445
2.465568218
2.636075113
2.689359375
1.033433256
1.036544107
1.039810081
1.043526838
1.047606775
1.046791126
1.044242291
1.040252767
1.035038361
1.029611188
1.025107064
1.023116074
1.023264941
1.02556498
1.027869099
1.028353511
1.029278324
1.030487149
1.03131948
1.031178752
1.030990484
1.030175971
1.028847157
1.02742987
1.026549601
1.026434526
1.027038573
1.027873998
1.028588671
1.028715823
1.028634521
1.027920222
1.037128165
1.235222992
1.913137744
2.478920042
2.639222788
2.691830588
1.036499598
1.039720261
1.043025276
1.046968969
1.051027585
1.049511306
1.046002416
1.041102698
1.035705202
1.031256352
1.027539586
1.025481439
1.025363821
1.027255884
1.03045786
1.031353118
1.031748738
1.032304973
1.033243035
1.033145806
1.032476059
1.031442297
1.029981592
1.028193665
1.026248191
1.024343201
1.023477675
1.023912518
1.024884611
1.025647595
1.025983944
1.026556106
1.037896499
1.260363714
1.9489544
2.492107407
2.641111573
2.693204585
1.038284013
1.040701439
1.044145344
1.048735994
1.052773211
1.051730089
1.048379878
1.042690305
1.036552806
1.032689332
1.029988029
1.028348348
1.028431343
1.029924507
1.032387994
1.033595617
1.033942515
1.034238121
1.035165823
1.035516203
1.034691455
1.033508372
1.031965783
1.030146251
1.028070202
1.025599405
1.02302215
1.022179143
1.022247289
1.02295129
1.023133752
1.023846788
1.038731105
1.28567799
1.98311054
2.506985636
2.643964026
2.691159829
1.036605027
1.038144023
1.041344447
1.04591831
1.049385372
1.049133964
1.046193483
1.040937974
1.035580641
1.031680646
1.029616663
1.02874914
1.029454967
1.030745405
1.031540243
1.032231065
1.032933458
1.033738669
1.034637195
1.0353878
1.03529047
1.034568349
1.033220459
1.03145715
1.029761312
1.0279295
1.025581217
1.024017211
1.022924663
1.023269934
1.023177727
1.023251313
1.041290681
1.311968089
2.014491035
2.524276064
2.650808813
2.693490223
1.035821147
1.037198498
1.039681578
1.044149745
1.047225026
1.046057324
1.042873099
1.037684719
1.032328866
1.028393662
1.026629074
1.026155343
1.026851443
1.027974106
1.028311957
1.028638168
1.029463263
1.03046216
1.031082404
1.031701311
1.032362584
1.032911801
1.032843976
1.03153377
1.03018115
1.029698396
1.028461254
1.02640337
1.024880597
1.024586837
1.02412165
1.024437139
1.045304148
1.340511351
2.043128984
2.539655188
2.660529617
1.033356382
1.037422505
1.039699262
1.041989382
1.045489087
1.046976764
1.044399645
1.04115005
1.036975247
1.032309593
1.027920761
1.025823576
1.02549866
1.026351302
1.027558692
1.027875027
1.027964367
1.028959171
1.029873339
1.030110559
1.02969428
1.029234324
1.02922791
1.029601515
1.029425297
1.02942633
1.029685184
1.0292502
1.027713445
1.026517049
1.025564743
1.025108415
1.025897478
1.050131531
1.371348368
2.071574798
2.548945079
2.667199318
1.035366967
1.039299841
1.042858924
1.045867863
1.048370473
1.048083731
1.044654834
1.041135141
1.038034819
1.034343632
1.029936723
1.027743776
1.027683112
1.028768165
1.029930436
1.030315369
1.030273517
1.03093873
1.031245971
1.031202121
1.030336335
1.029253949
1.02855655
1.02820034
1.027702341
1.027326605
1.027454184
1.027642721
1.027246772
1.026482135
1.025335151
1.02521974
1.026596773
1.055396006
1.403917352
2.102095602
2.556870916
2.673280189
1.036969664
1.039510942
1.043553594
1.047751137
1.050013333
1.049462232
1.045857398
1.04181077
1.038676091
1.035621146
1.032106
1.030287197
1.030760595
1.032473313
1.033754914
1.034197277
1.034051458
1.034247909
1.03387725
1.03356962
1.032676705
1.031218437
1.030032649
1.029123753
1.028447867
1.027677112
1.02665476
1.026036338
1.025559315
1.024740509
1.023797555
1.023417156
1.02533568
1.060847431
1.437046524
2.138081376
2.56840491
2.682555344
1.037463169
1.038500188
1.04155842
1.046804897
1.049907956
1.049402335
1.045790785
1.041135736
1.036632755
1.033564775
1.031506455
1.030600236
1.031350155
1.033382375
1.034814479
1.035250764
1.035137304
1.035068573
1.035115683
1.035289475
1.034832011
1.033607956
1.032229676
1.030772122
1.029713015
1.028925954
1.027821451
1.026804517
1.025823447
1.024440749
1.023540457
1.022970003
1.024909524
1.06682974
1.469655919
2.175990542
2.592901783
2.691831939
1.037700634
1.038002672
1.039838708
1.045169023
1.049345077
1.048532833
1.044815333
1.039644798
1.033798096
1.029992985
1.028901533
1.029098763
1.029918355
1.031063616
1.031534393
1.031326627
1.030975663
1.03105263
1.031857205
1.033220444
1.03380344
1.033345719
1.032499301
1.031161166
1.029936756
1.029801255
1.029535531
1.028420906
1.027032558
1.025489989
1.024761889
1.023768886
1.025100535
1.074050205
1.501848495
2.204472323
2.614595845
2.696730254
1.038788612
1.039808069
1.040456381
1.044152316
1.048211398
1.047364756
1.044068171
1.039095129
1.032620014
1.028113703
1.027175599
1.028473218
1.030091616
1.031201211
1.031148131
1.030213664
1.02953985
1.029187237
1.029847125
1.030622033
1.030585241
1.030333105
1.029990453
1.029062359
1.028156987
1.028493517
1.029354455
1.029084162
1.028021975
1.027137584
1.026744332
1.02537584
1.026193256
1.083308782
1.534617612
2.222727577
2.621696058
2.699583059
1.035784305
1.039478432
1.041851659
1.043283185
1.045301679
1.047289737
1.045952602
1.042906064
1.039227115
1.034624676
1.030160652
1.028609556
1.029872236
1.031742746
1.032767553
1.032487383
1.031306261
1.030498934
1.029988576
1.030301867
1.030409916
1.029779693
1.02898208
1.028211324
1.026980201
1.025697174
1.025431351
1.026041
1.026360293
1.026470972
1.026951641
1.02718831
1.02635012
1.027252809
1.094606202
1.569048387
2.238109758
2.625843195
2.700363586
1.037405816
1.040305401
1.042975622
1.045619043
1.046725958
1.046244422
1.044338972
1.041346822
1.038853315
1.036692007
1.03356502
1.031523778
1.032075451
1.033438346
1.033966174
1.03338406
1.03230473
1.031816815
1.031686164
1.031522468
1.03089487
1.030165754
1.029245288
1.028135819
1.026651083
1.025130441
1.024023989
1.023523335
1.023465962
1.023536575
1.024241698
1.024614835
1.024741166
1.026928841
1.106705315
1.607670678
2.257773962
2.630256099
2.700013017
1.036768944
1.040538486
1.043707365
1.04683097
1.048373546
1.046526794
1.043532079
1.040362625
1.038056845
1.036674943
1.035111731
1.033387351
1.033341485
1.033934436
1.033835324
1.033036217
1.03220007
1.032266345
1.032834225
1.032501445
1.031476797
1.030936367
1.030216242
1.029087141
1.027675458
1.026152793
1.024650059
1.023352015
1.022791589
1.022792889
1.022992238
1.023187678
1.022676673
1.02617115
1.119018724
1.647475857
2.283303353
2.634166987
2.700628549
1.035359585
1.038490585
1.042941826
1.047547923
1.050310904
1.048471548
1.044593066
1.039812953
1.036277052
1.03438367
1.033986427
1.033407851
1.032829623
1.033003891
1.032591384
1.031767136
1.031122441
1.031352218
1.032318811
1.032377391
1.031768235
1.031537717
1.031063344
1.030170093
1.028970564
1.027496172
1.025981652
1.024413638
1.02354123
1.023619798
1.023659608
1.023519103
1.022499458
1.027162119
1.138665642
1.701459928
2.316558368
2.638433446
2.703709802
1.036110472
1.036985372
1.040404808
1.046783226
1.05077727
1.049684295
1.046058653
1.040397759
1.034447563
1.030900542
1.031245956
1.032902983
1.033005393
1.032703729
1.031829309
1.030767272
1.029967555
1.029810553
1.030506235
1.030819217
1.03078731
1.030806066
1.030646712
1.030226331
1.029345656
1.028093621
1.02695537
1.025595969
1.024650483
1.024626668
1.024695333
1.024220956
1.023156845
1.028264144
1.153342183
1.735860535
2.351230707
2.64423925
2.708065225
1.038042472
1.037372731
1.037795213
1.040188834
1.043905334
1.048330366
1.047913222
1.044841878
1.040843454
1.036347104
1.031186199
1.028625213
1.029870615
1.032702239
1.033894302
1.033238475
1.031833006
1.030482044
1.029763161
1.029485913
1.029110365
1.029175132
1.029254201
1.029227951
1.029105501
1.028489725
)
;

boundaryField
{
    inlet
    {
        type            fixedValue;
        value           nonuniform 0();
    }
    outlet
    {
        type            zeroGradient;
    }
    bottom
    {
        type            slip;
    }
    top
    {
        type            slip;
    }
    obstacle
    {
        type            zeroGradient;
    }
    defaultFaces
    {
        type            empty;
    }
    procBoundary16to10
    {
        type            processor;
        value           nonuniform List<scalar> 
36
(
1.764624883
2.490938542
2.757307672
2.80377996
2.777671201
1.040580513
1.040638327
1.039550737
1.037453074
1.034034959
1.029553366
1.024467224
1.021645424
1.021573009
1.022936134
1.025452305
1.028886364
1.031086066
1.031678824
1.031547351
1.031203208
1.030725455
1.030301698
1.029708622
1.029343682
1.028634264
1.027088776
1.025226533
1.024776017
1.028037511
1.154364862
1.154364862
1.041822281
1.040853843
1.040844929
1.040844929
)
;
    }
    procBoundary16to11
    {
        type            processor;
        value           uniform 2.706943934;
    }
    procBoundary16to15
    {
        type            processor;
        value           nonuniform List<scalar> 
70
(
1.042054146
1.040340759
1.03738964
1.035080206
1.035031158
1.035720249
1.037140166
1.038387037
1.038058886
1.038058886
1.033957144
1.033861842
1.035084136
1.036736894
1.03694561
1.033618849
1.032228512
1.032228512
1.033346993
1.035373114
1.037195407
1.036268092
1.031904278
1.030811511
1.032371864
1.032371864
1.035479634
1.036467158
1.032827469
1.029975359
1.031058632
1.032975057
1.032975057
1.035757707
1.034078247
1.029549753
1.028036693
1.030763248
1.034941553
1.037523363
1.037523363
1.032369651
1.027986486
1.028415285
1.031172524
1.034310146
1.035244265
1.035244265
1.030024147
1.029930103
1.031828851
1.034586085
1.035947145
1.033966277
1.032517043
1.032517043
1.0292184
1.032930738
1.036170304
1.037085079
1.036429892
1.035302863
1.035302863
1.031541983
1.033030207
1.033591161
1.034936403
1.035790738
1.035790738
1.037392262
)
;
    }
    procBoundary16to17
    {
        type            processor;
        value           nonuniform List<scalar> 
65
(
2.701782467
2.697349104
2.69313897
2.689023281
2.68455033
2.679614682
2.67448077
2.669670751
2.731942188
2.731942188
2.726560367
2.720930817
2.715436833
2.710515574
2.706086977
2.701574588
2.698939896
2.695365037
2.691618895
2.688449832
2.686065128
2.683617856
2.679713013
2.73289532
2.73289532
2.730726636
2.727571018
2.723529039
2.719733447
2.717642098
2.715539605
2.71285774
2.709542184
2.705269699
2.702319391
2.701774039
2.701664851
2.701618007
2.728779131
2.728779131
2.726588063
2.723921034
2.725204815
2.729398912
2.734952855
2.738862243
2.741092501
2.742119218
2.740275423
2.738643307
2.741707066
2.700582012
2.700582012
2.708615546
2.714830947
2.7196702
2.723709731
2.72702107
2.728065684
2.725534048
2.727723766
2.732787642