/*--------------------------------*- C++ -*----------------------------------*\
  =========                 |
  \\      /  F ield         | OpenFOAM: The Open Source CFD Toolbox
   \\    /   O peration     | Website:  https://openfoam.org
    \\  /    A nd           | Version:  7
     \\/     M anipulation  |
\*---------------------------------------------------------------------------*/
FoamFile
{
    version     2.0;
    format      ascii;
    class       volVectorField;
    location    "1";
    object      U;
}
// * * * * * * * * * * * * * * * * * * * * * * * * * * * * * * * * * * * * * //

dimensions      [0 1 -1 0 0 0 0];

internalField   nonuniform List<vector> 
2222
(
(2.522941641 1.043162822 0)
(2.53562679 1.03254399 0)
(2.546779632 1.024393329 0)
(2.557114799 1.017432342 0)
(2.567807417 1.009604182 0)
(2.577970029 1.001134434 0)
(2.968138439 0.2512168988 0)
(2.970959058 0.2646542276 0)
(2.979822389 0.2971109477 0)
(2.981807385 0.3159946037 0)
(2.984161725 0.3177791424 0)
(2.982625925 0.3197204832 0)
(2.993377074 0.3438560969 0)
(2.995556491 0.3668011707 0)
(2.998912077 0.3698134828 0)
(2.997384612 0.3689876642 0)
(3.001393455 0.3865718349 0)
(3.004593484 0.3955796663 0)
(3.000844519 0.4072903827 0)
(2.997892876 0.4285821713 0)
(2.980241549 0.4898627753 0)
(2.694171758 0.864083769 0)
(2.457568759 1.095058804 0)
(2.424870566 1.126303121 0)
(2.429734178 1.123154034 0)
(2.443682674 1.114518384 0)
(2.459076309 1.103766006 0)
(2.471863686 1.092544567 0)
(2.480640523 1.082631869 0)
(2.491225787 1.074442984 0)
(2.505409426 1.067333638 0)
(2.520657257 1.060228525 0)
(2.53443344 1.052769794 0)
(2.546106165 1.045406062 0)
(2.557086522 1.037427267 0)
(2.567415008 1.028463109 0)
(2.577175002 1.01946336 0)
(2.974477166 0.2727417582 0)
(2.975839989 0.2839947263 0)
(2.984581336 0.316299113 0)
(2.986733316 0.3340849734 0)
(2.988289727 0.3358006854 0)
(2.987833707 0.3376053309 0)
(2.997054063 0.3596910397 0)
(2.999239598 0.3823758575 0)
(3.00233029 0.3872121041 0)
(2.999987621 0.3818343046 0)
(3.004237395 0.3996703211 0)
(3.007579635 0.4158462474 0)
(3.002595654 0.4188257956 0)
(3.003507916 0.4373499628 0)
(2.996301692 0.4636115331 0)
(2.84848036 0.70282819 0)
(2.517589784 1.059014353 0)
(2.428255367 1.137740333 0)
(2.429920736 1.136839712 0)
(2.44020497 1.129622848 0)
(2.45541854 1.120698974 0)
(2.469421512 1.112638576 0)
(2.480540312 1.104947131 0)
(2.492337801 1.096245954 0)
(2.505030034 1.086348178 0)
(2.518056415 1.076173875 0)
(2.530160376 1.06628352 0)
(2.541252315 1.058099924 0)
(2.552154079 1.050497476 0)
(2.5623853 1.041863331 0)
(2.572240445 1.032524892 0)
(2.979704628 0.2943511371 0)
(2.979690767 0.3033993422 0)
(2.988930314 0.335535386 0)
(2.991305534 0.3547388097 0)
(2.99221626 0.3552696073 0)
(2.993587111 0.3591305683 0)
(3.00051571 0.3773721418 0)
(3.003420376 0.3994621491 0)
(3.005963521 0.4059355502 0)
(3.004879125 0.4000901729 0)
(3.00716177 0.4133486781 0)
(3.009175922 0.4338932426 0)
(3.007830759 0.436466714 0)
(3.008049372 0.4484663486 0)
(3.003734946 0.4655133313 0)
(2.963153527 0.5701803912 0)
(2.597345215 0.9920254925 0)
(2.444908842 1.140961756 0)
(2.431457085 1.155379129 0)
(2.438479997 1.150238141 0)
(2.451496604 1.138293209 0)
(2.463008026 1.126916744 0)
(2.47430738 1.117853259 0)
(2.487693638 1.108803575 0)
(2.501969236 1.102512965 0)
(2.515492683 1.096284393 0)
(2.527913695 1.088699935 0)
(2.539759695 1.079170655 0)
(2.55052998 1.068776527 0)
(2.561634327 1.057089602 0)
(2.57328205 1.045820162 0)
(2.984283926 0.312679972 0)
(2.983021245 0.3198690406 0)
(2.992742657 0.351558682 0)
(2.99470826 0.3721837389 0)
(2.995261037 0.3717564963 0)
(2.997049584 0.3774255827 0)
(3.003787832 0.3949058464 0)
(3.007100446 0.4158980567 0)
(3.008540339 0.4240274541 0)
(3.008611625 0.4182350107 0)
(3.009092589 0.4275744696 0)
(3.011091947 0.4502858255 0)
(3.012042987 0.4569823057 0)
(3.010062456 0.4594162403 0)
(3.010174169 0.4753399034 0)
(2.99595568 0.5229120703 0)
(2.774661703 0.8321975244 0)
(2.441341438 1.139835464 0)
(2.427771571 1.172765277 0)
(2.434647356 1.167940851 0)
(2.448264005 1.157929439 0)
(2.461715417 1.14727711 0)
(2.473963071 1.135417769 0)
(2.487880964 1.123702632 0)
(2.500682295 1.115276281 0)
(2.51099471 1.111340658 0)
(2.521583787 1.102935937 0)
(2.5341417 1.092198833 0)
(2.545072863 1.082744432 0)
(2.557185276 1.073417598 0)
(2.570130815 1.064781837 0)
(2.989849183 0.3331858084 0)
(2.987754854 0.3382040838 0)
(2.997121092 0.3683912069 0)
(2.998708956 0.389950926 0)
(2.999731633 0.3890017172 0)
(3.0003955 0.392929106 0)
(3.007549938 0.4113325602 0)
(3.010587228 0.4298234687 0)
(3.011028966 0.4391719745 0)
(3.0121297 0.4357230039 0)
(3.010682024 0.441903603 0)
(3.013744282 0.4650033426 0)
(3.013892511 0.4760580027 0)
(3.012069351 0.4726535719 0)
(3.014924061 0.486113622 0)
(3.008886163 0.5059519986 0)
(2.896663895 0.7118238318 0)
(2.553768643 1.047613959 0)
(2.433871131 1.175930014 0)
(2.435378941 1.188047509 0)
(2.444296 1.181670245 0)
(2.457808085 1.169205619 0)
(2.470590684 1.154728353 0)
(2.484408136 1.13838863 0)
(2.497814295 1.127780968 0)
(2.508825922 1.122518294 0)
(2.521465473 1.116101499 0)
(2.532450346 1.108439031 0)
(2.542442614 1.101969611 0)
(2.554221087 1.093403463 0)
(2.564864614 1.080791115 0)
(2.994742435 0.3567166736 0)
(2.992464095 0.3606926985 0)
(3.001445788 0.3891276262 0)
(3.002991704 0.410466076 0)
(3.004794655 0.4098785475 0)
(3.004346948 0.411780637 0)
(3.01180983 0.4307682457 0)
(3.014526356 0.4474783646 0)
(3.014543833 0.4546818408 0)
(3.0157407 0.4542170794 0)
(3.013244869 0.4578537457 0)
(3.016504933 0.4783793707 0)
(3.015288676 0.4917705444 0)
(3.015815513 0.4883588787 0)
(3.019539586 0.4958896155 0)
(3.014208166 0.5139387541 0)
(2.975729643 0.6034709597 0)
(2.698405972 0.9578957497 0)
(2.408569816 1.197054241 0)
(2.427781103 1.201903443 0)
(2.437823667 1.195327285 0)
(2.452810443 1.185896865 0)
(2.469730617 1.172649243 0)
(2.484711255 1.158890699 0)
(2.495753326 1.148798013 0)
(2.506727363 1.13926433 0)
(2.517248685 1.135346342 0)
(2.526859072 1.132840956 0)
(2.537842572 1.122737861 0)
(2.550378588 1.109725127 0)
(2.563820792 1.099984902 0)
(2.998354078 0.3762641271 0)
(2.995273108 0.3786715345 0)
(3.004635386 0.4059944537 0)
(3.00614655 0.428214542 0)
(3.008325928 0.4288461206 0)
(3.007164378 0.4295307695 0)
(3.01492977 0.4478509492 0)
(3.017460871 0.4659245395 0)
(3.01773622 0.4710490972 0)
(3.018396598 0.4732733373 0)
(3.015941247 0.4747807663 0)
(3.019299648 0.4938624576 0)
(3.017691738 0.5073017088 0)
(3.019688173 0.5070683022 0)
(3.02078814 0.5067388364 0)
(3.020935574 0.5229019173 0)
(3.010160756 0.5566675115 0)
(2.79505062 0.8844578035 0)
(2.503829242 1.118305127 0)
(2.425555186 1.197500072 0)
(2.428709337 1.206686547 0)
(2.443151945 1.207796219 0)
(2.460293401 1.204002566 0)
(2.479847591 1.186263561 0)
(2.490785827 1.16759709 0)
(2.503874436 1.154236109 0)
(2.514389121 1.145935538 0)
(2.524431647 1.138526869 0)
(2.538272813 1.130245696 0)
(2.548088038 1.121061517 0)
(2.559711212 1.109772309 0)
(3.002673675 0.3971969314 0)
(2.999558547 0.3982462377 0)
(3.008315126 0.4236155057 0)
(3.009672387 0.4457912226 0)
(3.012064506 0.4470770281 0)
(3.010353955 0.4465016676 0)
(3.017950481 0.4638716359 0)
(3.019777472 0.4827471121 0)
(3.020433681 0.4864838661 0)
(3.020120234 0.4894872595 0)
(3.019262054 0.4937264244 0)
(3.020884324 0.5104815456 0)
(3.020059818 0.5231591587 0)
(3.021957768 0.5253622843 0)
(3.0231613 0.5210753315 0)
(3.025118782 0.5344548629 0)
(3.019477006 0.5561018038 0)
(2.956342756 0.6959165939 0)
(2.568176786 1.125489026 0)
(2.431591759 1.209659821 0)
(2.425288773 1.218121982 0)
(2.43676007 1.214940471 0)
(2.455295794 1.207084479 0)
(2.473375783 1.201562011 0)
(2.48950559 1.188005707 0)
(2.501005787 1.174905313 0)
(2.510684213 1.165421551 0)
(2.522147662 1.156559645 0)
(2.535033747 1.144632093 0)
(2.54643225 1.134299084 0)
(2.559972799 1.124981981 0)
(3.006735511 0.4202957011 0)
(3.004238882 0.4204434629 0)
(3.012286885 0.4437792893 0)
(3.013685932 0.4648723269 0)
(3.01619997 0.4663689571 0)
(3.014349213 0.4642275896 0)
(3.020902394 0.4801634603 0)
(3.022462528 0.4993238321 0)
(3.023475647 0.5039571806 0)
(3.022124729 0.5039014182 0)
(3.022456932 0.5129133811 0)
(3.021809412 0.5243775915 0)
(3.02246325 0.5360364035 0)
(3.023481271 0.5394127828 0)
(3.025524947 0.5352373133 0)
(3.029727898 0.5440111948 0)
(3.024205095 0.5631325095 0)
(3.014096219 0.6229364251 0)
(2.679664017 1.023105097 0)
(2.460852069 1.220908581 0)
(2.429672098 1.231459451 0)
(2.435428045 1.227677964 0)
(2.452009779 1.217048432 0)
(2.468693856 1.209797843 0)
(2.483843627 1.21080881 0)
(2.499185314 1.200676369 0)
(2.508923588 1.189182247 0)
(2.51755509 1.174191043 0)
(2.52899963 1.158481151 0)
(2.540834763 1.145949253 0)
(2.556584009 1.135636565 0)
(3.00983333 0.4407996966 0)
(3.007529282 0.4411926026 0)
(3.015667775 0.4631172107 0)
(3.017310187 0.4841823473 0)
(3.019593939 0.4869147324 0)
(3.018032441 0.4836641002 0)
(3.023398217 0.4978666091 0)
(3.024889087 0.5160166656 0)
(3.026128485 0.5204448018 0)
(3.02407805 0.5173660623 0)
(3.024954237 0.5303611457 0)
(3.024841721 0.5426450896 0)
(3.025148337 0.5520425535 0)
(3.025549676 0.5555888422 0)
(3.029104143 0.5541666194 0)
(3.032393395 0.5575650142 0)
(3.028184638 0.5737459718 0)
(3.022488984 0.6039779328 0)
(2.852267634 0.8530571214 0)
(2.484960688 1.208021651 0)
(2.43287816 1.255402298 0)
(2.437136365 1.240539558 0)
(2.448932934 1.233924655 0)
(2.466910558 1.223448301 0)
(2.48311322 1.215672194 0)
(2.494910667 1.21160955 0)
(2.505216391 1.20370394 0)
(2.515819015 1.195229995 0)
(2.528225376 1.182832632 0)
(2.541881302 1.168054999 0)
(2.553627554 1.153562408 0)
(3.013895397 0.4618652881 0)
(3.011278826 0.4606603005 0)
(3.019398393 0.4811174622 0)
(3.020901145 0.5023647372 0)
(3.022487511 0.5059166747 0)
(3.020834797 0.5033018001 0)
(3.025565253 0.516531205 0)
(3.027318766 0.5341666425 0)
(3.028377607 0.5396598521 0)
(3.027224597 0.5356953942 0)
(3.027093525 0.5453203774 0)
(3.027435737 0.5599224158 0)
(3.026736771 0.5650809082 0)
(3.027404448 0.5694849474 0)
(3.031234893 0.5702062052 0)
(3.034353151 0.5713562716 0)
(3.031795509 0.583093516 0)
(3.027216075 0.6017553548 0)
(2.959000396 0.7453089418 0)
(2.618038619 1.098126952 0)
(2.440354589 1.282845958 0)
(2.433550392 1.266461467 0)
(2.447163691 1.250450841 0)
(2.459954809 1.240693418 0)
(2.478605151 1.229084697 0)
(2.491942704 1.222367159 0)
(2.502754949 1.216133004 0)
(2.51236245 1.207479605 0)
(2.520827052 1.196360134 0)
(2.537440461 1.185191378 0)
(2.550629312 1.173827479 0)
(3.017814853 0.4809761537 0)
(3.015534322 0.4789723194 0)
(3.023237443 0.4981527163 0)
(3.024528854 0.51928618 0)
(3.025554128 0.5239238612 0)
(3.02360967 0.5207368151 0)
(3.027630482 0.532778392 0)
(3.02955722 0.5501093823 0)
(3.030166241 0.5558897145 0)
(3.029620836 0.5523626351 0)
(3.029252475 0.5611969564 0)
(3.02976281 0.5782619284 0)
(3.02906022 0.5824233827 0)
(3.029535798 0.5854872343 0)
(3.032462949 0.587575819 0)
(3.036112686 0.5874295963 0)
(3.036204173 0.5953093857 0)
(3.030473052 0.6112094471 0)
(3.008496398 0.6746015774 0)
(2.758012834 0.9983395725 0)
(2.452377759 1.261676616 0)
(2.440994168 1.300250047 0)
(2.443634329 1.274140512 0)
(2.453826421 1.258180483 0)
(2.468858008 1.244995767 0)
(2.485643057 1.233158168 0)
(2.498510507 1.226184839 0)
(2.508426605 1.220599691 0)
(2.521279271 1.213364445 0)
(2.534353426 1.202124098 0)
(2.546007514 1.188580195 0)
(3.021669301 0.5027523578 0)
(3.019877073 0.4999968381 0)
(3.026920317 0.5177203877 0)
(3.027951604 0.5383927463 0)
(3.028787398 0.5428889764 0)
(3.026805032 0.5392686575 0)
(3.03016447 0.5507887752 0)
(3.031870655 0.5668205694 0)
(3.032334853 0.5723246221 0)
(3.032169619 0.5688165147 0)
(3.030811043 0.5733627124 0)
(3.032188616 0.5906639406 0)
(3.031154121 0.5983283663 0)
(3.030976468 0.5991180195 0)
(3.033391077 0.6033547234 0)
(3.038291245 0.6056533959 0)
(3.038587133 0.6110870786 0)
(3.033776709 0.6234079701 0)
(3.026867462 0.648398785 0)
(2.880517215 0.889538413 0)
(2.54142325 1.195369676 0)
(2.422031212 1.301596602 0)
(2.432037955 1.287288669 0)
(2.444207556 1.277977402 0)
(2.458952322 1.265808962 0)
(2.47847008 1.251709041 0)
(2.493674213 1.244623382 0)
(2.506193048 1.236861434 0)
(2.518262117 1.227579158 0)
(2.531965705 1.216421471 0)
(2.545140446 1.205236156 0)
(3.025337721 0.5240005408 0)
(3.023721594 0.5213311631 0)
(3.030132801 0.5379027346 0)
(3.030808119 0.5576720476 0)
(3.03130737 0.5619897234 0)
(3.029368804 0.5574221701 0)
(3.031999063 0.5675255094 0)
(3.033929172 0.5826381049 0)
(3.03434744 0.5885668429 0)
(3.03447423 0.5862106304 0)
(3.033439447 0.5907304638 0)
(3.034909562 0.60785205 0)
(3.033445538 0.6162004973 0)
(3.032893823 0.6153735622 0)
(3.034746717 0.6185416197 0)
(3.039098635 0.6228208234 0)
(3.039869988 0.6252162908 0)
(3.037412605 0.6318408081 0)
(3.032778691 0.6497136257 0)
(2.994895425 0.7501886448 0)
(2.622140272 1.169008621 0)
(2.437216007 1.287091997 0)
(2.430401682 1.291788 0)
(2.438198972 1.290328889 0)
(2.45247088 1.287018018 0)
(2.474705401 1.276715448 0)
(2.48733866 1.263639818 0)
(2.501389161 1.249787611 0)
(2.514065838 1.236224839 0)
(2.525174845 1.226339644 0)
(2.539642281 1.215796447 0)
(3.029315437 0.5418281989 0)
(3.027266211 0.5388571621 0)
(3.033199453 0.5550615842 0)
(3.033370549 0.5757985851 0)
(3.033259418 0.5805597045 0)
(3.031474218 0.5766491709 0)
(3.034025591 0.5865647407 0)
(3.035779798 0.6006490363 0)
(3.036118226 0.6061017513 0)
(3.036652745 0.6031232328 0)
(3.035077153 0.6048327945 0)
(3.037132046 0.6209873682 0)
(3.035443609 0.6313899931 0)
(3.035087362 0.6320217574 0)
(3.035849721 0.6346385537 0)
(3.04016445 0.6405623906 0)
(3.042223655 0.6432859551 0)
(3.040078138 0.64705414 0)
(3.036637744 0.6597626542 0)
(3.028578669 0.7007296744 0)
(2.762785767 1.043179651 0)
(2.468353816 1.285578939 0)
(2.429233067 1.310780766 0)
(2.435439267 1.306364103 0)
(2.446939111 1.300656022 0)
(2.463416791 1.292945659 0)
(2.484134398 1.284192846 0)
(2.497282876 1.27441227 0)
(2.512944822 1.257896127 0)
(2.524047894 1.243974193 0)
(2.536483417 1.232157262 0)
(3.034138354 0.5641223822 0)
(3.032787495 0.5607672107 0)
(3.036650352 0.5756833206 0)
(3.035807042 0.5959676491 0)
(3.035406589 0.6000351584 0)
(3.033771097 0.5961287037 0)
(3.03592702 0.6053023525 0)
(3.037601245 0.6186866443 0)
(3.037866754 0.624016166 0)
(3.038704542 0.6216864103 0)
(3.037230703 0.622458186 0)
(3.039419631 0.6378807405 0)
(3.037358351 0.6477638643 0)
(3.037096223 0.647943419 0)
(3.038555735 0.6507216789 0)
(3.041274981 0.6539963727 0)
(3.04238316 0.6577443797 0)
(3.040553786 0.6596804139 0)
(3.039638512 0.6701121113 0)
(3.035415237 0.6894570567 0)
(2.90878882 0.8879461719 0)
(2.530915179 1.258927942 0)
(2.442448552 1.311582975 0)
(2.440765207 1.318669903 0)
(2.44985873 1.315519121 0)
(2.466520826 1.308963315 0)
(2.480841503 1.299983787 0)
(2.490424326 1.288418659 0)
(2.507905747 1.275592891 0)
(2.519738858 1.259551916 0)
(2.531789609 1.247360725 0)
(3.038111884 0.5856857631 0)
(3.037114703 0.5831411569 0)
(3.039585552 0.5984376568 0)
(3.037534404 0.6173217428 0)
(3.03735458 0.6196571045 0)
(3.036277622 0.6138786694 0)
(3.037487102 0.620230025 0)
(3.039288495 0.6326105471 0)
(3.03941317 0.637503562 0)
(3.040200314 0.6353115316 0)
(3.03901376 0.6368832145 0)
(3.041457181 0.6511607365 0)
(3.039384565 0.6616266793 0)
(3.038821739 0.6631501202 0)
(3.041251234 0.6686553299 0)
(3.042810866 0.6714738756 0)
(3.042658396 0.6769362624 0)
(3.042009002 0.6777540017 0)
(3.042444929 0.6832906716 0)
(3.038486578 0.6973337463 0)
(3.006762178 0.7776597554 0)
(2.623666167 1.192147625 0)
(2.459741958 1.317754729 0)
(2.447662234 1.329413301 0)
(2.453211442 1.326609323 0)
(2.465430625 1.32073097 0)
(2.477405114 1.316128713 0)
(2.484887163 1.306232116 0)
(2.5004919 1.28955284 0)
(2.516805415 1.277591481 0)
(2.526999856 1.265211292 0)
(3.041067025 0.6065918701 0)
(3.04035386 0.6030246658 0)
(3.041234859 0.6162921768 0)
(3.038828934 0.6359029915 0)
(3.0385472 0.6387668166 0)
(3.037826563 0.6344972482 0)
(3.039531397 0.6406610801 0)
(3.041612817 0.6517576726 0)
(3.041884638 0.6560833772 0)
(3.042743965 0.6541096252 0)
(3.041538815 0.6552444861 0)
(3.043712968 0.6688577769 0)
(3.041500119 0.6793111751 0)
(3.041129668 0.6806614918 0)
(3.042880028 0.6833364001 0)
(3.043917271 0.6850683232 0)
(3.043218748 0.6896328933 0)
(3.043481315 0.6904717821 0)
(3.043220954 0.6920815366 0)
(3.041662745 0.7036455098 0)
(3.034774017 0.7378306106 0)
(2.768285322 1.058459438 0)
(2.492684942 1.311819123 0)
(2.449038576 1.345528564 0)
(2.454070789 1.343727045 0)
(2.463049376 1.339961221 0)
(2.473757197 1.336719877 0)
(2.481318503 1.328592244 0)
(2.497497361 1.314901197 0)
(2.510747625 1.299621153 0)
(2.524794359 1.283860401 0)
(3.043520143 0.6271804696 0)
(3.043298894 0.6258011616 0)
(3.044338437 0.640752022 0)
(3.040694534 0.6586253135 0)
(3.040213616 0.6602960452 0)
(3.038900146 0.6556248677 0)
(3.040843863 0.6605258229 0)
(3.043240218 0.6692267726 0)
(3.043665478 0.6731298818 0)
(3.0444555 0.6715157802 0)
(3.043896251 0.6740791452 0)
(3.045264597 0.6870376068 0)
(3.043510666 0.6941637939 0)
(3.043076579 0.6956563356 0)
(3.04444481 0.7014182287 0)
(3.04506074 0.7035280047 0)
(3.044435175 0.7089839575 0)
(3.044658996 0.7111616345 0)
(3.044586769 0.7101457391 0)
(3.044736218 0.7186830244 0)
(3.039283683 0.7338279011 0)
(2.918892036 0.9074928203 0)
(2.558601448 1.273709214 0)
(2.453386065 1.352216522 0)
(2.453080735 1.352098395 0)
(2.459281363 1.349499534 0)
(2.468495743 1.346807931 0)
(2.473115144 1.341401844 0)
(2.491022316 1.327298867 0)
(2.505155363 1.313933521 0)
(2.518547591 1.297549718 0)
(3.045666046 0.6494887598 0)
(3.046099623 0.6468531341 0)
(3.046412774 0.658419747 0)
(3.042753932 0.6774797563 0)
(3.041689101 0.6808169703 0)
(3.040500216 0.6792600009 0)
(3.042682211 0.6837278567 0)
(3.044420655 0.6894200917 0)
(3.044755889 0.6929147845 0)
(3.04577094 0.6910428263 0)
(3.045125429 0.6920069866 0)
(3.046654037 0.7041631384 0)
(3.04520166 0.7112427446 0)
(3.045125885 0.7120507715 0)
(3.045748209 0.7142881325 0)
(3.045898643 0.7164829482 0)
(3.045402058 0.7200965626 0)
(3.044852668 0.7230929408 0)
(3.045372494 0.7216399215 0)
(3.045686679 0.7274680614 0)
(3.04154715 0.7394254881 0)
(3.01222989 0.8079676402 0)
(2.649694459 1.205713374 0)
(2.475074206 1.346685928 0)
(2.4490816 1.370124042 0)
(2.453982204 1.367982612 0)
(2.46354469 1.363251579 0)
(2.472086658 1.359433261 0)
(2.483257775 1.350752121 0)
(2.498467268 1.33756174 0)
(2.511877431 1.322213033 0)
(3.048045907 0.6698889655 0)
(3.048704554 0.6683349203 0)
(3.048940187 0.6797493565 0)
(3.044853687 0.6954730248 0)
(3.043596138 0.6972133695 0)
(3.042562974 0.6959933732 0)
(3.044616558 0.6997946344 0)
(3.045671599 0.7038092172 0)
(3.045101215 0.7080636829 0)
(3.045886826 0.7071661714 0)
(3.04600647 0.709440714 0)
(3.047770627 0.7204651023 0)
(3.046871468 0.725177241 0)
(3.04680289 0.7261957895 0)
(3.047352261 0.7318951188 0)
(3.047042274 0.7358090196 0)
(3.046738734 0.7399699183 0)
(3.045828033 0.7429772919 0)
(3.047070456 0.7420965592 0)
(3.046223996 0.7428625131 0)
(3.043551809 0.7521511967 0)
(3.03589556 0.7800432864 0)
(2.796983388 1.068531919 0)
(2.498373352 1.353832557 0)
(2.450357037 1.378908785 0)
(2.44977294 1.379344575 0)
(2.457348135 1.376257845 0)
(2.469636124 1.371120906 0)
(2.473614776 1.362937334 0)
(2.489867322 1.350980366 0)
(2.507558492 1.33828639 0)
(3.050240407 0.6931148557 0)
(3.050837066 0.6909879402 0)
(3.050900898 0.6994518337 0)
(3.047583597 0.7139157152 0)
(3.045908488 0.7171125643 0)
(3.045013409 0.7172584724 0)
(3.046526706 0.7206724294 0)
(3.047080672 0.723812317 0)
(3.046102131 0.727132465 0)
(3.046224098 0.7260179026 0)
(3.046723766 0.7285910129 0)
(3.048970233 0.7378163507 0)
(3.048422252 0.7422575188 0)
(3.048685322 0.7426730739 0)
(3.048744885 0.7448087371 0)
(3.047831222 0.7479831204 0)
(3.047297368 0.7501818943 0)
(3.046350523 0.7545516696 0)
(3.047235307 0.755142189 0)
(3.047344661 0.7535060176 0)
(3.045155827 0.7607280716 0)
(3.040089538 0.7723016024 0)
(2.931094339 0.9278610023 0)
(2.576758019 1.292570322 0)
(2.435675908 1.409873828 0)
(2.444819132 1.39695636 0)
(2.452446781 1.395149019 0)
(2.463452494 1.387722149 0)
(2.471355709 1.38303557 0)
(2.484995376 1.368876304 0)
(2.497630315 1.334798534 0)
(3.051578803 0.7166581896 0)
(3.052382948 0.7147631486 0)
(3.05297365 0.7219866129 0)
(3.050223917 0.7321600521 0)
(3.04826017 0.7334046589 0)
(3.04690851 0.7346018867 0)
(3.047527465 0.7380399792 0)
(3.047688483 0.7407245105 0)
(3.046774286 0.745779107 0)
(3.046715591 0.7455185859 0)
(3.048313278 0.7495069883 0)
(3.049834971 0.7556554728 0)
(3.049395023 0.7594631719 0)
(3.049924694 0.7606864685 0)
(3.050073032 0.7647385245 0)
(3.048693048 0.7694118351 0)
(3.047968303 0.7731507283 0)
(3.047165598 0.77449385 0)
(3.047911193 0.7737294006 0)
(3.047894891 0.7705229668 0)
(3.045204063 0.775488647 0)
(3.041339807 0.7849650225 0)
(3.014498764 0.844325832 0)
(2.716221857 1.172014616 0)
(2.489855056 1.367455274 0)
(2.444337048 1.43852321 0)
(2.437053652 1.393090103 0)
(2.443288225 1.319192405 0)
(2.443663199 1.19792421 0)
(2.448330885 1.041198332 0)
(2.459232866 0.917656131 0)
(3.052047407 0.7365140251 0)
(3.05258654 0.7358712756 0)
(3.054935102 0.7409511093 0)
(3.053336852 0.7502886774 0)
(3.051012808 0.753411146 0)
(3.049229399 0.7559676056 0)
(3.048473012 0.7601997951 0)
(3.048205064 0.7623865101 0)
(3.047353147 0.7660869417 0)
(3.047471171 0.7656337133 0)
(3.049722817 0.7683769898 0)
(3.050719998 0.7719484872 0)
(3.050412702 0.775115512 0)
(3.051132189 0.7754584825 0)
(3.051144373 0.7776766034 0)
(3.049156539 0.7810985247 0)
(3.04816618 0.7825142402 0)
(3.04712049 0.7866503686 0)
(3.047627342 0.7875145135 0)
(3.04836348 0.7865167742 0)
(3.04631653 0.7903474161 0)
(3.044247122 0.7929570389 0)
(3.032945464 0.7706579253 0)
(2.777516237 0.8399589091 0)
(2.499714059 1.135405879 0)
(2.424736793 1.054700763 0)
(2.408115208 0.9371711777 0)
(2.401342208 0.8538467162 0)
(2.40515385 0.7991421248 0)
(2.411509835 0.740270733 0)
(2.449920832 0.7068341819 0)
(3.052362096 0.7581446012 0)
(3.05409706 0.7568757951 0)
(3.057493996 0.7601283144 0)
(3.056253173 0.7661905042 0)
(3.054169117 0.767640079 0)
(3.05152149 0.7712371998 0)
(3.049281129 0.7773369146 0)
(3.048653615 0.7800234855 0)
(3.047900755 0.7835026057 0)
(3.048464381 0.7835321793 0)
(3.050990105 0.7854291218 0)
(3.051523521 0.7882133872 0)
(3.051677032 0.7895774528 0)
(3.052124493 0.7902847705 0)
(3.051863666 0.7932591542 0)
(3.049743064 0.798213369 0)
(3.048194781 0.8022526145 0)
(3.047528554 0.8038286262 0)
(3.047727923 0.8048104483 0)
(3.048626701 0.8025044934 0)
(3.046506091 0.7978137797 0)
(3.034862955 0.736098283 0)
(2.99548777 0.4710544623 0)
(2.91421123 0.3827600034 0)
(2.560046374 0.7132015673 0)
(2.434116801 0.8495359641 0)
(2.407838646 0.7725727281 0)
(2.416547894 0.7497346251 0)
(2.41250767 0.7344823278 0)
(2.4088333 0.7152297546 0)
(2.417190278 0.7004018152 0)
(3.052360813 0.7839182091 0)
(3.056078794 0.782105256 0)
(3.059112135 0.7841397207 0)
(3.058854492 0.7870176883 0)
(3.057090453 0.7873576106 0)
(3.054125979 0.7885718751 0)
(3.050544927 0.7936536163 0)
(3.04886861 0.7964379962 0)
(3.048660917 0.7997540991 0)
(3.04952271 0.8002689574 0)
(3.051847819 0.8009484408 0)
(3.052440502 0.8021721906 0)
(3.052620228 0.8057911197 0)
(3.052834774 0.8064536552 0)
(3.052486311 0.8082279179 0)
(3.050236877 0.8112874994 0)
(3.048468832 0.8140558439 0)
(3.047697629 0.8176048487 0)
(3.047574244 0.8165264606 0)
(3.044755366 0.7988927038 0)
(3.002473352 0.6280001422 0)
(3.009283217 0.4107628424 0)
(2.924241923 0.04361299841 0)
(2.898231285 0.08035077704 0)
(2.613635266 0.4485610434 0)
(2.517489216 0.6473727917 0)
(2.417385918 0.7363266225 0)
(2.414014972 0.7416247222 0)
(2.413026929 0.7362580463 0)
(2.41102874 0.7175078978 0)
(2.416134368 0.7029481313 0)
(3.052101599 0.8078377414 0)
(3.057038292 0.8044586085 0)
(3.059683865 0.8034688243 0)
(3.059548967 0.804710349 0)
(3.058377838 0.8051592907 0)
(3.055781309 0.8062704465 0)
(3.05185094 0.8118778082 0)
(3.049680232 0.8156614908 0)
(3.049641012 0.8180915905 0)
(3.051229986 0.8198272645 0)
(3.05271277 0.8205585332 0)
(3.05373366 0.8226921752 0)
(3.053880609 0.8244486883 0)
(3.054034764 0.8249390374 0)
(3.053307919 0.8265666922 0)
(3.050316029 0.8309904204 0)
(3.049429445 0.8340499624 0)
(3.04754653 0.8309130397 0)
(3.035589173 0.7757068682 0)
(2.993710364 0.5223186357 0)
(2.933794452 0.2542575358 0)
(2.934317619 0.1387705214 0)
(2.896796534 0.07825218785 0)
(2.887925262 0.05888294302 0)
(2.706082264 0.2801253357 0)
(2.524293521 0.5956645994 0)
(2.417898972 0.7683307593 0)
(2.399718942 0.7500515508 0)
(2.402036651 0.7370795717 0)
(2.411028732 0.7151684139 0)
(2.417851866 0.7031547499 0)
(3.050683249 0.8289607742 0)
(3.05686236 0.8272264763 0)
(3.059654918 0.8268318459 0)
(3.060182899 0.8269659025 0)
(3.059675114 0.827300968 0)
(3.057120314 0.8287096042 0)
(3.052706371 0.833345887 0)
(3.050438723 0.837637678 0)
(3.050824532 0.8389614491 0)
(3.052143813 0.8384922846 0)
(3.054288105 0.8368972299 0)
(3.054846117 0.8375811413 0)
(3.054936552 0.8406279826 0)
(3.054714061 0.8417439686 0)
(3.053415757 0.8424666577 0)
(3.050310154 0.8436733057 0)
(3.046721598 0.8352067708 0)
(3.026985831 0.6930495837 0)
(2.954267368 0.3217606025 0)
(2.93964341 0.1937851688 0)
(2.89973172 0.03261930966 0)
(2.872574529 0.05635266098 0)
(2.864654653 0.0561243667 0)
(2.867694417 0.04871795088 0)
(2.818200924 0.134268036 0)
(2.614851333 0.4652407801 0)
(2.440985827 0.7342100061 0)
(2.396116822 0.7287536993 0)
(2.39803272 0.7211140708 0)
(2.410449533 0.7106310716 0)
(2.421882451 0.7091383965 0)
(3.050153713 0.8493532446 0)
(3.057825817 0.8458943594 0)
(3.059622188 0.8459976526 0)
(3.061156661 0.8474294668 0)
(3.059730472 0.84917255 0)
(3.057673261 0.8496083306 0)
(3.053275693 0.8527931572 0)
(3.051089876 0.8559144369 0)
(3.051382592 0.8564977747 0)
(3.052771471 0.8580441611 0)
(3.055002576 0.8588108442 0)
(3.055949734 0.8591897854 0)
(3.056312294 0.857869848 0)
(3.055250466 0.8570513162 0)
(3.053677079 0.857971667 0)
(3.047226674 0.833489717 0)
(3.00729651 0.6124741252 0)
(2.962042438 0.3467505121 0)
(2.904121907 0.1515016898 0)
(2.880442958 0.08046502498 0)
(2.877951131 0.05693892667 0)
(2.870734033 0.05173732483 0)
(2.863827217 0.05646033045 0)
(2.861751811 0.05415923379 0)
(2.850100536 0.0763435685 0)
(2.768896286 0.2621579914 0)
(2.461535328 0.6766161628 0)
(2.388676569 0.7136540777 0)
(2.394055671 0.7184398186 0)
(2.410234176 0.7192393992 0)
(2.421871604 0.715767018 0)
(3.050447703 0.876588935 0)
(3.05678261 0.8737288277 0)
(3.061120548 0.8690815877 0)
(3.061691425 0.8680204826 0)
(3.060434301 0.8673443646 0)
(3.056943837 0.8696589425 0)
(3.053582814 0.8727747228 0)
(3.051792128 0.8754319163 0)
(3.052461284 0.8758737796 0)
(3.049142094 0.8703464841 0)
(3.047125794 0.8691662527 0)
(3.047909916 0.8692680737 0)
(3.053771477 0.8725596392 0)
(3.055097812 0.8750601808 0)
(3.032693163 0.7856880332 0)
(3.020764519 0.4869492864 0)
(2.895731661 0.03043415122 0)
(2.853425296 0.02924153723 0)
(2.8346851 0.05434055066 0)
(2.847875263 0.06115252669 0)
(2.855658677 0.0560285913 0)
(2.858013181 0.05077044267 0)
(2.857699547 0.05216859888 0)
(2.856698385 0.05098442147 0)
(2.854949476 0.05412109835 0)
(2.834172324 0.1370647791 0)
(2.549488262 0.5132988557 0)
(2.387880395 0.6521965033 0)
(2.388522679 0.7284859439 0)
(2.400703635 0.7262071757 0)
(2.417063775 0.7167689642 0)
(3.049525385 0.8928404202 0)
(3.051148764 0.8920124346 0)
(3.05781275 0.8870532143 0)
(3.062114983 0.8822426502 0)
(3.061693696 0.8818154887 0)
(3.059972748 0.8820961834 0)
(3.055725875 0.8840029864 0)
(3.053355319 0.8862275171 0)
(3.052259527 0.8878606931 0)
(3.05314567 0.8873605662 0)
(3.061338209 0.8905079397 0)
(3.066593456 0.885462928 0)
(3.066855311 0.8848481758 0)
(3.056571584 0.8875791784 0)
(3.054190096 0.8843425508 0)
(2.957378916 0.4055462117 0)
(2.944190295 0.1458602498 0)
(2.878550892 0.07429027909 0)
(2.860845571 0.03739415268 0)
(2.842598901 0.05308392517 0)
(2.837970826 0.06733701211 0)
(2.844807904 0.05935210899 0)
(2.850586063 0.05188413126 0)
(2.851659307 0.05298376499 0)
(2.852728484 0.05416504975 0)
(2.853824544 0.05204014864 0)
(2.853729414 0.08330821383 0)
(2.594681674 0.4377115709 0)
(2.385100538 0.6765625956 0)
(2.38644751 0.7335691945 0)
(2.399312933 0.7233003788 0)
(2.413266378 0.7068198589 0)
(3.049231123 0.8967335649 0)
(3.051275364 0.896211831 0)
(3.058639346 0.8906550377 0)
(3.06187911 0.8872938005 0)
(3.06160104 0.8876020784 0)
(3.059293279 0.8883354409 0)
(3.055202978 0.8899172638 0)
(3.053133949 0.8918271199 0)
(3.052403038 0.8930988143 0)
(3.053179085 0.8922954139 0)
(3.063338272 0.8934950002 0)
(3.069783158 0.8883534699 0)
(3.067426258 0.889404708 0)
(3.057286887 0.8898330524 0)
(3.052203523 0.769572807 0)
(2.901936744 0.1626850291 0)
(2.887852855 0.1012996181 0)
(2.881192877 0.07851041224 0)
(2.866544758 0.0335725405 0)
(2.850865963 0.04783273265 0)
(2.844490439 0.06617985571 0)
(2.846403696 0.05757949872 0)
(2.850237326 0.05198833203 0)
(2.850648782 0.0516989232 0)
(2.851464567 0.05323837019 0)
(2.852816261 0.05035491776 0)
(2.849239082 0.07373989489 0)
(2.623924063 0.4121843744 0)
(2.380487874 0.6732179135 0)
(2.385113813 0.7352133167 0)
(2.398853657 0.7196535994 0)
(2.410523562 0.7000912832 0)
(3.049390464 0.9013704268 0)
(3.051281608 0.8998216234 0)
(3.059495118 0.8962555835 0)
(3.062077099 0.8940455356 0)
(3.060983432 0.8937657788 0)
(3.05852103 0.8941137313 0)
(3.054582828 0.8943315345 0)
(3.053129038 0.8956554836 0)
(3.052602764 0.8964304151 0)
(3.05312255 0.8966667099 0)
(3.062402977 0.8977009852 0)
(3.067955627 0.8945695518 0)
(3.064597851 0.8939332116 0)
(3.057299361 0.8937280953 0)
(3.043594759 0.4836984983 0)
(2.898265601 0.1516262175 0)
(2.863469635 0.0952789199 0)
(2.869200979 0.07453246675 0)
(2.871861268 0.03478799957 0)
(2.862908805 0.04674568296 0)
(2.855077292 0.0663961842 0)
(2.850908418 0.05795461659 0)
(2.851991414 0.05167739939 0)
(2.851679774 0.05064937916 0)
(2.851583228 0.05178034397 0)
(2.852536893 0.04841882268 0)