/*--------------------------------*- C++ -*----------------------------------*\
  =========                 |
  \\      /  F ield         | OpenFOAM: The Open Source CFD Toolbox
   \\    /   O peration     | Website:  https://openfoam.org
    \\  /    A nd           | Version:  7
     \\/     M anipulation  |
\*---------------------------------------------------------------------------*/
FoamFile
{
    version     2.0;
    format      ascii;
    class       volScalarField;
    location    "1.4";
    object      rho;
}
// * * * * * * * * * * * * * * * * * * * * * * * * * * * * * * * * * * * * * //

dimensions      [1 -3 0 0 0 0 0];

internalField   nonuniform List<scalar> 
23
(
1.26742946
1.277642801
1.402190588
1.303063856
1.275904193
1.514533924
1.428559886
1.342417165
1.539306345
1.514552183
1.446698503
1.537162469
1.533591214
1.512484542
1.490980066
1.515130135
1.523705886
1.434461476
1.483271274
1.52034537
1.408571917
1.442637687
1.504638143
)
;

boundaryField
{
    inlet
    {
        type            calculated;
        value           nonuniform 0();
    }
    outlet
    {
        type            calculated;
        value           nonuniform 0();
    }
    bottom
    {
        type            calculated;
        value           nonuniform 0();
    }
    top
    {
        type            calculated;
        value           nonuniform List<scalar> 3(1.408571917 1.442637687 1.504638143);
    }
    obstacle
    {
        type            calculated;
        value           nonuniform 0();
    }
    defaultFaces
    {
        type            empty;
    }
    procBoundary34to27
    {
        type            processor;
        value           uniform 1.522638154;
    }
    procBoundary34to28
    {
        type            processor;
        value           nonuniform List<scalar> 4(1.257039493 1.329829158 1.28361631 1.28361631);
    }
    procBoundary34to33
    {
        type            processor;
        value           nonuniform List<scalar> 6(1.562011428 1.539662801 1.488166552 1.433970919 1.40755273 1.400959498);
    }
    procBoundary34to35
    {
        type            processor;
        value           nonuniform List<scalar> 8(1.314258372 1.286458188 1.316278319 1.371569682 1.458965343 1.513003546 1.554135735 1.573105247);
    }
}


// ************************************************************************* //
