/*--------------------------------*- C++ -*----------------------------------*\
  =========                 |
  \\      /  F ield         | OpenFOAM: The Open Source CFD Toolbox
   \\    /   O peration     | Website:  https://openfoam.org
    \\  /    A nd           | Version:  7
     \\/     M anipulation  |
\*---------------------------------------------------------------------------*/
FoamFile
{
    version     2.0;
    format      ascii;
    class       volScalarField;
    location    "1";
    object      p;
}
// * * * * * * * * * * * * * * * * * * * * * * * * * * * * * * * * * * * * * //

dimensions      [1 -1 -2 0 0 0 0];

internalField   nonuniform List<scalar> 5(1.059648298 1.058335327 1.092941685 1.046837193 1.158557992);

boundaryField
{
    inlet
    {
        type            fixedValue;
        value           nonuniform 0();
    }
    outlet
    {
        type            zeroGradient;
    }
    bottom
    {
        type            slip;
    }
    top
    {
        type            slip;
    }
    obstacle
    {
        type            zeroGradient;
    }
    defaultFaces
    {
        type            empty;
    }
    procBoundary9to3
    {
        type            processor;
        value           nonuniform List<scalar> 2(1.015074496 1.041322894);
    }
    procBoundary9to4
    {
        type            processor;
        value           nonuniform List<scalar> 2(1.033473056 0.9621175418);
    }
    procBoundary9to8
    {
        type            processor;
        value           uniform 1.005743508;
    }
    procBoundary9to14
    {
        type            processor;
        value           uniform 1.09564833;
    }
    procBoundary9to15
    {
        type            processor;
        value           nonuniform List<scalar> 3(0.9324739099 0.9324739099 0.8092141194);
    }
    procBoundary9to20
    {
        type            processor;
        value           uniform 1.362462449;
    }
}


// ************************************************************************* //
