/*--------------------------------*- C++ -*----------------------------------*\
  =========                 |
  \\      /  F ield         | OpenFOAM: The Open Source CFD Toolbox
   \\    /   O peration     | Website:  https://openfoam.org
    \\  /    A nd           | Version:  7
     \\/     M anipulation  |
\*---------------------------------------------------------------------------*/
FoamFile
{
    version     2.0;
    format      ascii;
    class       volScalarField;
    location    "4";
    object      rho;
}
// * * * * * * * * * * * * * * * * * * * * * * * * * * * * * * * * * * * * * //

dimensions      [1 -3 0 0 0 0 0];

internalField   nonuniform List<scalar> 
2222
(
3.006220687
2.929131191
2.891068726
2.860780483
2.806870085
2.794612865
2.759938235
2.715226389
2.690873137
2.653949377
2.619993787
2.591733447
2.560029039
2.525472148
2.489952867
2.455164684
2.422015822
4.266223384
4.262460992
4.236427839
4.155907882
4.006257631
3.824642307
3.572101125
3.315855445
3.374499977
3.849672104
4.081817497
3.927343363
3.708216134
3.548799607
3.433941851
3.273751684
3.177554253
3.123261531
3.025044618
2.976355601
2.930147978
2.858262002
2.83975155
2.795026017
2.755449459
2.74666129
2.700230647
2.666785072
2.64547228
2.612666085
2.584129021
2.553828248
2.520430412
2.487636011
2.456528695
2.426487877
2.395665474
4.266710294
4.261532671
4.231033328
4.141738377
3.979318453
3.777781949
3.570696947
3.283206433
3.117888605
3.329655113
3.819690719
3.820238847
3.652444231
3.492379371
3.363916947
3.199714688
3.110886125
3.045119815
2.96053488
2.911876945
2.845075806
2.80191333
2.786443158
2.728405175
2.707140222
2.694025171
2.641147761
2.620235476
2.603387975
2.57431559
2.542409925
2.510577021
2.48114577
2.453999132
2.426473813
2.397243181
2.365706115
4.266630247
4.260419023
4.225228217
4.124417635
3.95652495
3.73020509
3.524236369
3.277231462
3.013835822
2.962337642
3.319894419
3.65061506
3.595695906
3.444881632
3.29981753
3.131046173
3.043417009
2.974763904
2.898957541
2.832861985
2.769766927
2.752125974
2.724112648
2.664548561
2.6580333
2.635689068
2.584691408
2.575329082
2.560042097
2.526589079
2.4959403
2.471952253
2.447553731
2.421340206
2.393554064
2.36435536
2.333906648
4.266487385
4.259273901
4.218267428
4.106503048
3.926846637
3.694640072
3.460614806
3.259961818
2.984894072
2.782630252
2.870766072
3.274225294
3.485036653
3.369933998
3.22712902
3.062197916
2.976073464
2.911154071
2.828343637
2.747401156
2.707522153
2.699905888
2.652337186
2.604707759
2.60679674
2.575444284
2.535854423
2.533666301
2.510336875
2.47422061
2.457363147
2.437928538
2.411704261
2.384978134
2.358635207
2.331252673
2.302831905
4.26667582
4.257801355
4.209818681
4.088000034
3.891930657
3.662858698
3.404560644
3.193903746
2.979498481
2.722975748
2.61599126
2.832009114
3.255475081
3.262973059
3.157682997
2.997591461
2.913933768
2.848825714
2.750914037
2.673846041
2.652526619
2.640288149
2.577306555
2.547534246
2.551681487
2.516597218
2.49017037
2.484853633
2.451285469
2.430602517
2.420488626
2.398645087
2.373207029
2.349149058
2.324316036
2.29867382
2.272388004
4.266871242
4.25563809
4.200040116
4.066029259
3.858679435
3.617840327
3.366488392
3.123183082
2.939188751
2.6966128
2.489402322
2.503591805
2.856018748
3.142869475
3.07330558
2.931850471
2.855932757
2.77960065
2.673802356
2.611566474
2.596910232
2.571507289
2.507201375
2.492693486
2.495900276
2.461361947
2.444041667
2.427974656
2.403036535
2.393898082
2.377449908
2.356377381
2.335993445
2.312344877
2.289300475
2.2659516
2.241500424
4.266785155
4.25282298
4.188670473
4.040978752
3.824989732
3.568121105
3.325024807
3.066959676
2.866489079
2.685321827
2.439035968
2.328272814
2.473747561
2.886966901
2.967441181
2.861601583
2.794869414
2.699462853
2.605116411
2.55718974
2.536652855
2.497901428
2.441249881
2.437528576
2.439159059
2.405746669
2.38893631
2.371103406
2.363692006
2.350298546
2.33092016
2.318991801
2.297827479
2.274196941
2.253969507
2.23337426
2.211726411
4.266542702
4.249490704
4.175382003
4.01438439
3.785386123
3.523669049
3.26767855
3.028243442
2.789537491
2.629165894
2.413129092
2.230022078
2.212800332
2.481049482
2.799028263
2.787039218
2.729853844
2.621364658
2.545424407
2.497024553
2.469566881
2.425998406
2.381130549
2.385398979
2.384749703
2.350286582
2.33121482
2.32631976
2.322297968
2.30058234
2.291247349
2.280722443
2.255022919
2.236746615
2.221226274
2.202279859
2.181480624
4.26633461
4.245661035
4.16050707
3.98587993
3.741399451
3.480153485
3.206194518
2.979772398
2.731305142
2.55238692
2.391188209
2.176333127
2.068765671
2.154455938
2.477937164
2.703003142
2.648918191
2.550013049
2.483882311
2.427136048
2.399875307
2.356215256
2.32074885
2.329461107
2.326063948
2.29151061
2.276230424
2.2820674
2.272964393
2.253542331
2.252882358
2.237723272
2.214314327
2.203369086
2.188618689
2.169648701
2.149742299
4.266074588
4.24138697
4.144199447
3.955137505
3.696515487
3.429312962
3.151266384
2.915405171
2.687267959
2.471596367
2.333833115
2.146597408
1.98448456
1.948129469
2.139866917
2.533459174
2.547257009
2.483388956
2.417376377
2.352547507
2.330902645
2.288711949
2.262492259
2.274244954
2.267437824
2.234256372
2.226685096
2.236856986
2.221582586
2.21034968
2.21135084
2.191916631
2.177843357
2.168561419
2.153228667
2.135380348
2.117296169
4.265535593
4.236610949
4.126893815
3.921440531
3.651313051
3.371971766
3.099726176
2.843325005
2.636741802
2.408859036
2.256673493
2.115206997
1.929251307
1.836379857
1.888356432
2.212853953
2.439495376
2.410640846
2.351928594
2.289473151
2.269638138
2.225338598
2.202748941
2.213439431
2.20379149
2.176314176
2.178263327
2.188566378
2.170588194
2.167096833
2.166879068
2.15120465
2.141397136
2.130884178
2.117354662
2.101774538
2.085670767
4.264749564
4.231252374
4.108276526
3.884419799
3.606255812
3.309095386
3.04334306
2.775958061
2.568645355
2.35766637
2.176218671
2.059715555
1.893658874
1.761095577
1.733094931
1.916250069
2.271024657
2.327628599
2.284821357
2.230159261
2.210829173
2.163763421
2.147947287
2.157124464
2.143854929
2.122249814
2.130764555
2.138177312
2.121736122
2.122756881
2.121718264
2.110738597
2.101409624
2.09457919
2.083434101
2.068208919
2.05375348
4.263886856
4.2248768
4.087592322
3.844604889
3.556401061
3.24632186
2.976918397
2.713331399
2.490484091
2.304952589
2.107996188
1.985763926
1.860576308
1.704758538
1.63581391
1.689277122
1.973271
2.215506734
2.197024621
2.166477264
2.146747152
2.098779474
2.087266306
2.095842681
2.080822776
2.067899304
2.083346273
2.086821016
2.073512613
2.07733282
2.078795235
2.069516504
2.062833649
2.060299623
2.047624085
2.033931013
2.022283239
4.263166774
4.217154305
4.063105872
3.802601284
3.499284703
3.18405186
2.901467252
2.651529732
2.411462577
2.238248021
2.051749826
1.906703103
1.807477317
1.66451006
1.563464622
1.548996322
1.71124964
2.043999404
2.126687095
2.099838749
2.070832905
2.029255364
2.025046098
2.034443416
2.019336823
2.013623786
2.03317615
2.033353062
2.025623905
2.032667845
2.034348034
2.024997237
2.0258641
2.02417087
2.010029328
2.000806734
1.989740196
4.262799748
4.207933742
4.034277266
3.757390054
3.433807877
3.121016832
2.821268839
2.581800199
2.338117478
2.159815031
1.998160168
1.834105324
1.740711668
1.631526541
1.507700861
1.455351844
1.506329532
1.770108362
2.030199552
2.033420913
2.009542913
1.971845447
1.96769172
1.972683261
1.957826347
1.960371593
1.982558545
1.980499257
1.977230297
1.989378684
1.988652269
1.982612109
1.988065679
1.983274256
1.974193931
1.967922709
1.957655534
4.263270634
4.197029495
4.000371593
3.70715867
3.363572492
3.049753047
2.741783594
2.501148439
2.269774548
2.07756456
1.937365289
1.77428562
1.666928722
1.584914019
1.464399754
1.385199519
1.386305209
1.527372261
1.844953473
1.975511824
1.9558825
1.918498
1.912467415
1.911890247
1.900641416
1.907637035
1.929257454
1.928822755
1.931076821
1.944318462
1.940500632
1.942035258
1.948652734
1.942226427
1.939314734
1.934358647
1.925775932
4.264961663
4.18380107
3.961667269
3.649833631
3.289514025
2.96960327
2.664908761
2.412586963
2.200985666
1.998763224
1.86521294
1.720988167
1.596046696
1.527728845
1.43071172
1.332958978
1.304918336
1.352597468
1.613460765
1.872843242
1.878969833
1.853712831
1.851778165
1.850452093
1.844195384
1.855714997
1.874628229
1.877859204
1.887084578
1.896518392
1.897018542
1.903666537
1.90757347
1.906202657
1.904669624
1.901196554
1.896024924
4.266846908
4.167031597
3.91886766
3.583108253
3.213602226
2.881024999
2.586894689
2.321817274
2.124794754
1.926107205
1.787894244
1.666042691
1.534017888
1.462556551
1.390059436
1.289655267
1.240001548
1.247892773
1.411535922
1.714521548
1.812308392
1.786482415
1.792717092
1.789269253
1.783775556
1.795853475
1.816178497
1.82686947
1.839866988
1.84740369
1.855465519
1.862600492
1.868540932
1.871663224
1.87029816
1.869078412
1.865468071
4.26800894
4.146409626
3.871219893
3.506939566
3.134807828
2.786279248
2.502355205
2.233997933
2.04163938
1.859141447
1.709236875
1.604201036
1.478860894
1.397766674
1.342878783
1.255579662
1.188193157
1.176061797
1.243969674
1.514626083
1.723608174
1.738699813
1.739364106
1.732540424
1.731033714
1.741811505
1.759680965
1.77662009
1.789185823
1.80037096
1.81594606
1.822176666
1.828795931
1.835112856
1.837479834
1.838452172
1.833547162
4.268123516
4.119944294
3.8171106
3.42313414
3.049346508
2.688174128
2.413691262
2.149208121
1.955136274
1.790173013
1.635305162
1.536829235
1.430400882
1.335765808
1.287187203
1.221645539
1.146048388
1.115771218
1.135805725
1.319229691
1.572900124
1.686204541
1.690999291
1.679363484
1.675708985
1.685921248
1.705658372
1.730639784
1.742238779
1.754556346
1.772176056
1.779288662
1.788514067
1.798979071
1.803829317
1.804196729
1.800139149
4.264459532
4.086366897
3.754270135
3.333250543
2.955294415
2.591977282
2.316350209
2.067146691
1.866620824
1.719414678
1.566242069
1.465790052
1.379961183
1.282890469
1.228110977
1.179817222
1.108237874
1.067642302
1.069265046
1.153297205
1.396451621
1.609642397
1.629496484
1.624065738
1.625891798
1.634921691
1.653913942
1.682867859
1.695636328
1.71141364
1.730804827
1.738076249
1.748108927
1.762290478
1.771702084
1.770222951
1.768480178
4.257469164
4.044402935
3.682220894
3.238260927
2.853801019
2.495692535
2.215250634
1.985114193
1.777842934
1.642852603
1.503568534
1.394786799
1.322342757
1.235341713
1.176079708
1.137068581
1.07864801
1.02494578
1.009578937
1.035447107
1.227401674
1.497240072
1.577185334
1.565572503
1.564402944
1.577643622
1.603587315
1.634815302
1.647415096
1.664699141
1.686286062
1.696285697
1.708823938
1.727470639
1.737391886
1.735653484
1.736826067
4.244091019
3.994029223
3.59853381
3.140412425
2.746652077
2.397503737
2.112643049
1.899187291
1.695964925
1.564480715
1.440711834
1.329214673
1.261656617
1.188158113
1.119933221
1.086816675
1.046182409
0.9914571517
0.9647961507
0.9709671565
1.082525438
1.336496241
1.519611016
1.523302711
1.52553824
1.530897652
1.551297376
1.581727682
1.597390565
1.61786494
1.643482813
1.656441063
1.669445641
1.690938721
1.703967429
1.70491287
1.705785568
4.223988942
3.935244851
3.505941064
3.041964931
2.630277484
2.298453928
2.011687293
1.807026003
1.617178069
1.48075773
1.371643098
1.266083252
1.205281772
1.146628376
1.073815206
1.036000408
1.005789371
0.9586993728
0.9262808752
0.9227494872
0.971374656
1.181781692
1.416585325
1.482625844
1.481343037
1.48153719
1.500355492
1.533333642
1.551908798
1.572291125
1.599272658
1.61539103
1.631121837
1.655179559
1.670234047
1.672187205
1.675676773
4.19692632
3.869707575
3.40598317
2.936058887
2.51438123
2.194937149
1.908049998
1.707759461
1.537310628
1.402926939
1.310944554
1.206642544
1.139976417
1.09419733
1.033238233
0.9913566517
0.9660637872
0.9267506068
0.8868837725
0.8753201493
0.8922224312
1.033723754
1.283013179
1.437673233
1.44200616
1.436944468
1.44823487
1.481138814
1.508218693
1.533715032
1.562480437
1.578202704
1.594278203
1.617393263
1.637079188
1.644739611
1.646577422
4.163363584
3.798605726
3.298761261
2.825305338
2.394907658
2.08030215
1.80429144
1.615251184
1.454559252
1.322210651
1.241063196
1.153950165
1.082592515
1.039343021
0.9884394229
0.9423006303
0.9255945647
0.9001301599
0.8634973048
0.8439459367
0.8480769161
0.9225619978
1.135846506
1.365696371
1.400644974
1.397664551
1.408991004
1.438543973
1.465289073
1.491703986
1.523305208
1.543242366
1.560795698
1.579946511
1.597717146
1.612896324
1.621599264
4.12610743
3.72134858
3.185777639
2.702377731
2.270392068
1.963638449
1.6993519
1.511534715
1.375364017
1.246988522
1.161945947
1.092725029
1.029643873
0.9933844054
0.951252377
0.9027757622
0.8827934915
0.8633113987
0.8316325849
0.8114987394
0.8107667229
0.8426771754
0.999856118
1.278784181
1.355270646
1.354533721
1.360738462
1.389110298
1.419752892
1.450731782
1.483979656
1.504266232
1.52375496
1.545568836
1.56633788
1.58099745
1.588100831
4.089153447
3.636004373
3.063476834
2.571142447
2.136053413
1.837854949
1.594998748
1.403144772
1.288061758
1.178692405
1.099178419
1.037977
0.9735507076
0.9385646148
0.90916365
0.869173711
0.8443197724
0.8315681984
0.8068469114
0.7826242071
0.7751771244
0.7858434325
0.8835497569
1.152324372
1.310218442
1.314129975
1.317317178
1.342800701
1.371909173
1.404271666
1.446278952
1.471460666
1.487384605
1.503870996
1.52395403
1.548056023
1.56431981
4.050721751
3.543111315
2.929393765
2.424552535
1.996277671
1.703348068
1.486222511
1.307298006
1.198233284
1.097557798
1.02825251
0.9829763682
0.9288755691
0.8887544858
0.8650360676
0.8333182111
0.8044585856
0.7970771475
0.7831472897
0.7609599536
0.7504424753
0.7531882162
0.8033955645
1.015646057
1.252654454
1.265011708
1.27976854
1.310651186
1.338234443
1.36867871
1.402091681
1.427920394
1.454501182
1.478199028
1.497946024
1.516944074
1.532952676
4.008171867
3.436888266
2.780111002
2.255864172
1.858652988
1.559671654
1.359236525
1.212611164
1.12135164
1.032409395
0.9594266674
0.919592084
0.880816306
0.8458565223
0.8233339478
0.7994379297
0.7752681374
0.76785071
0.7572081412
0.7391583249
0.727766425
0.7280616374
0.7507753874
0.8842757289
1.170298497
1.240677893
1.241347188
1.256868116
1.289983174
1.336023181
1.376805918
1.399239291
1.417772903
1.439565841
1.46304191
1.48560365
1.50388113
3.959768959
3.308583725
2.613722006
2.072983025
1.70103058
1.418556652
1.246135303
1.105721189
1.021887321
0.9632329939
0.9039077195
0.8641436959
0.8320979389
0.7964266214
0.7848651875
0.7732290757
0.7553327856
0.7446599692
0.7350352315
0.7181280616
0.7010719071
0.6959013468
0.7050037931
0.7832842094
1.05010762
1.191384795
1.205613159
1.229668957
1.262522126
1.302283436
1.340224924
1.365024297
1.384632718
1.407050195
1.432397933
1.457705223
1.478362342
3.904012476
3.144660787
2.421089888
1.888306686
1.511728781
1.260913347
1.142132463
1.022335983
0.9362204883
0.8877272347
0.8329522815
0.8128382205
0.7972977147
0.7712769774
0.7552421573
0.7444116273
0.7278440142
0.7110273978
0.7033300488
0.6924382578
0.6805597975
0.6763654042
0.681350824
0.7204203947
0.9147225763
1.145169803
1.173342807
1.195521101
1.232104355
1.272995079
1.305322501
1.328377889
1.350257561
1.375410751
1.401321762
1.426436512
1.448899862
3.823790999
2.950716572
2.174674893
1.680480429
1.340103852
1.114473362
1.006108077
0.9207339707
0.8633901202
0.83228174
0.7913223954
0.7709405132
0.7581375206
0.7388942539
0.7198199391
0.7141979882
0.7042590576
0.6920972768
0.6874707415
0.6802420987
0.6707269117
0.6628783204
0.6648788053
0.6836470103
0.8004390285
1.072050666
1.141204383
1.168559947
1.205670913
1.245537928
1.276474477
1.298596142
1.320696633
1.346632248
1.373186891
1.39884346
1.422433058
3.705123217
2.706908346
1.908177351
1.402802764
1.154481596
0.9953030223
0.8986615669
0.8311843669
0.7845648248
0.7732832914
0.7532160813
0.7313527631
0.7230486587
0.7078966747
0.6923760323
0.6902335009
0.6852616049
0.6753750296
0.6676934238
0.6637571204
0.6545049919
0.6465532969
0.6465067646
0.6558455067
0.7210102214
0.968488513
1.107039614
1.143674627
1.183818725
1.221647235
1.249116667
1.270708569
1.294399632
1.32092885
1.346014853
1.370480116
1.39512089
3.543590284
2.346259547
1.624067674
1.153362154
0.9459980637
0.8517780134
0.7957695612
0.7750085693
0.7432331616
0.7255668065
0.7117623524
0.6968280257
0.6940135061
0.6845432575
0.6686252805
0.6641193932
0.6620336562
0.654385566
0.6469295039
0.6479334873
0.6450313112
0.6420065172
0.641511687
0.6458217379
0.677772699
0.8567094431
1.074809545
1.121138394
1.163322236
1.204886751
1.232412038
1.25340858
1.275608065
1.300510496
1.324463878
1.348378206
1.37283692
3.296725909
1.904325162
1.222691641
0.9159568839
0.8273375357
0.7654966295
0.7091257515
0.7122243637
0.7019011044
0.687459615
0.6839031458
0.6750346391
0.6658915658
0.661906209
0.6537162797
0.6490359568
0.6498177866
0.6467180839
0.6437296405
0.6447896173
0.6437201108
0.6411420348
0.6393960961
0.6411832518
0.6557856552
0.7631640869
1.013346413
1.099355816
1.145930432
1.190609522
1.217326415
1.237151406
1.259072318
1.283220263
1.306674327
1.33011015
1.354345544
2.73927251
1.459751521
0.9478050101
0.6991852389
0.7088755629
0.7001595243
0.6697178334
0.6648702129
0.6594968848
0.6517404983
0.6542697239
0.6512956867
0.6477709693
0.6502015277
0.6494150312
0.6472387904
0.6473928068
0.6463184294
0.6432612133
0.6417660503
0.6408104998
0.6383464557
0.6352116585
0.6356746576
0.6420545902
0.6983998754
0.9269811873
1.071659957
1.132872132
1.181024817
1.20026633
1.219225086
1.242543178
1.26818059
1.292012484
1.315006913
1.338371762
1.756676774
0.8198475228
0.7663916488
0.6829866106
0.6254191624
0.6349586406
0.6296422813
0.6277694173
0.626830769
0.6283702555
0.6353664613
0.642927019
0.6441578839
0.6461027103
0.6458376976
0.6443406987
0.6433187042
0.6420221042
0.6382717059
0.6351631773
0.6337144411
0.6326143625
0.6310826248
0.6290570369
0.6314172748
0.6512394338
0.7939279663
0.9887678545
1.096223061
1.164314181
1.195150637
1.20429475
1.220228579
1.245526303
1.273107554
1.297359796
1.32018623
0.5385023677
0.5666193658
0.6549452169
0.6536574823
0.6283186575
0.6214403927
0.6216200887
0.6237139143
0.6266934021
0.6304471611
0.6383656385
0.6437287446
0.6445463144
0.6442867169
0.6432113153
0.640965428
0.6395534926
0.6376955141
0.6340451835
0.6320147614
0.63178901
0.6299541959
0.6285258651
0.626942421
0.6288234723
0.6536166688
0.8045070755
0.9954138259
1.101763124
1.167325533
1.192954624
1.20028595
1.21750137
1.245788056
1.274001735
1.298374432
0.5106633368
0.5478733125
0.6401609167
0.6507946848
0.6266071463
0.6199347582
0.6197754807
0.6220362683
0.6255107953
0.6301238499
0.638300191
0.6428307934
0.6431851823
0.6422959757
0.6413999098
0.6390922728
0.6375297196
0.6354400803
0.6328608938
0.6310727898
0.6307990922
0.6288832542
0.6275711757
0.6263277747
0.6284259657
0.657769538
0.8161143622
1.002035623
1.107606063
1.169122984
1.190999352
1.199782253
1.21786337
1.246121541
1.274567509
1.29926314
0.5173385104
0.5477197552
0.6268121504
0.64551237
0.6238594379
0.6187535134
0.618554173
0.6209618086
0.6249983441
0.6301905799
0.6389268823
0.642284668
0.6422438202
0.6407197442
0.6399413806
0.6371522688
0.6352561359
0.6336722408
0.6319598978
0.6302970397
0.6299760532
0.627765276
0.62604689
0.6258340639
0.6282516623
0.6638305788
0.830412146
1.010448635
1.114186242
1.169795673
1.188050591
1.198832492
1.218222056
1.247015317
1.27548033
1.300291247
0.5246712564
0.5475674119
0.6177482545
0.639496995
0.6215282391
0.6176654766
0.6169133283
0.6197519738
0.624852465
0.630282112
0.6381109924
0.6407434709
0.6407353978
0.6391620812
0.6383366262
0.6350791258
0.6336594297
0.6325900142
0.6312557612
0.6296763114
0.6294563552
0.6271863472
0.6252121028
0.624750969
0.6282096657
0.671165886
0.8455666659
1.019045592
1.119357376
1.170062357
1.187347348
1.198844232
1.219308594
1.248404505
1.276888063
1.301363898
0.5362484725
0.5422576998
0.6117938559
0.6333094072
0.6195610681
0.6168631708
0.6161298769
0.6190490729
0.624759551
0.6308493963
0.6376359622
0.6392385438
0.6393969331
0.6375186207
0.6363986069
0.6332875802
0.6325217817
0.6316227182
0.6303173512
0.6287147948
0.6287679181
0.6267219018
0.6249479079
0.6242809869
0.6284023984
0.67963805
0.8604173536
1.027384608
1.123397052
1.170622107
1.187424784
1.199405702
1.221098782
1.25004462
1.277635186
1.302336835
0.546386851
0.5407572009
0.6078928053
0.6279029753
0.6178278189
0.6157875489
0.6156141305
0.6185856331
0.6249442869
0.6305417621
0.6364695558
0.6373474228
0.6375604674
0.635146658
0.6339454416
0.6316845004
0.6313760313
0.6307760613
0.6287340103
0.6273184816
0.6274321997
0.6258967939
0.6245841601
0.6241197469
0.6288693821
0.689178053
0.875141632
1.035530341
1.127863607
1.171667235
1.187890235
1.200533422
1.223269171
1.251602287
1.278584642
1.303121494
0.5478996109
0.5415342995
0.6042760703
0.6227835496
0.6152577639
0.615300202
0.614910874
0.6184205696
0.6244492303
0.6301844656
0.6349429851
0.6352275393
0.6354847003
0.6330726448
0.632383932
0.6308432664
0.6305066128
0.6298568638
0.6276947576
0.6264370945
0.625592332
0.6244013066
0.623537053
0.6235613015
0.6296854341
0.6997415568
0.8894279604
1.043573263
1.132302029
1.172807875
1.188374251
1.201860076
1.225438381
1.253793915
1.279973459
1.303625036
0.5486215009
0.5430943131
0.5996286123
0.6180769876
0.6131030989
0.6143384355
0.6145719302
0.6178869588
0.6240795031
0.6292150442
0.6329514224
0.6331303207
0.6336699309
0.6321440034
0.6317192006
0.6303779448
0.6299639457
0.6290894951
0.6273735483
0.626121413
0.6247562975
0.6232137735
0.6222180727
0.6226628628
0.6309333498
0.7113697307
0.9032543416
1.051055239
1.136677506
1.174149763
1.188618667
1.203057266
1.227265163
1.254359523
1.28000851
1.303959277
0.5489672354
0.5443303327
0.593554687
0.613846912
0.6118660291
0.6138090708
0.6145555595
0.6169801818
0.6231859527
0.6280084718
0.6311461163
0.6314576793
0.6316351858
0.6310526658
0.6308253552
0.629556005
0.6292756677
0.6285070764
0.6272787277
0.6259541862
0.6245183993
0.6228417922
0.6217425328
0.6224123391
0.6326773614
0.7238237749
0.9167152598
1.058323821
1.140244055
1.175651741
1.189445351
1.20482383
1.229149548
1.255537957
1.280453462
1.30453466
0.5422828022
0.5423948425
0.5871782589
0.6099267235
0.6112914394
0.6139166279
0.6139105412
0.6161330097
0.6219445583
0.6265748692
0.6296534635
0.6301052962
0.6294681476
0.6292726579
0.6290610127
0.6277368018
0.6278172186
0.627499461
0.6268213844
0.6254500343
0.6242477651
0.6227715289
0.6215012633
0.6217771623
0.634989506
0.7372027174
0.9295615968
1.064854875
1.143073595
1.177160415
1.191037591
1.20681171
1.231022611
1.255964386
1.281112807
0.5214920883
0.540453317
0.5818495022
0.6061715665
0.6109836694
0.6135616958
0.61341799
0.6156356012
0.6206515365
0.6245076514
0.6277749924
0.6282860037
0.6282199617
0.628237921
0.6277447438
0.6262408513
0.6260756375
0.6258460782
0.625551706
0.6242146494
0.6233760056
0.622299106
0.6209696292
0.6214645882
0.63789829
0.7511826017
0.9421865727
1.070825288
1.145393755
1.17839996
1.193159973
1.209705649
1.23173315
1.255516388
1.28030443
0.5081449805
0.5394729135
0.5767839161
0.6024423842
0.6103890251
0.6131224707
0.6129201047
0.6154332843
0.6195276653
0.6217384678
0.6253264589
0.6255460662
0.6275749661
0.6279050336
0.627314745
0.62583554
0.625442203
0.6247240862
0.6235786907
0.6225468597
0.6217327945
0.6210807274
0.6197918679
0.6210258473
0.6415493406
0.765952817
0.9539803134
1.076633075
1.147800727
1.179787385
1.195119591
1.210621178
1.2312349
1.256302083
1.280624424
0.5073652074
0.5380895349
0.5719672015
0.5986903191
0.6096111285
0.6122921123
0.6123009638
0.6151248762
0.6184892738
0.6193132089
0.6232920473
0.6235840445
0.6269597815
0.627554665
0.6270319
0.6256042421
0.6252748854
0.6244039161
0.6228002148
0.621823184
0.6207219638
0.619807483
0.6186441369
0.620696895
0.6460609866
0.7810128032
0.9655546299
1.082594647
1.150414817
1.181040348
1.196717604
1.21206999
1.232509111
1.255079948
1.279800088
0.5068038544
0.5365056324
0.5673585527
0.5950763385
0.6086241162
0.6112503038
0.6113451031
0.6142978434
0.6173138962
0.6175283386
0.6215206265
0.6220592257
0.6258316354
0.6267396992
0.6262600469
0.6250002869
0.6249227354
0.6242853935
0.622734063
0.6216203858
0.6203358798
0.6192013443
0.6180989715
0.6205231281
0.6514415239
0.7965568638
0.9764209079
1.08909354
1.153640055
1.182595053
1.198467387
1.212046052
1.231121901
1.254323324
1.278870925
0.5068377655
0.534878607
0.5634839276
0.592000245
0.6076574683
0.6102688487
0.6100043106
0.6130989913
0.6158834803
0.6158343964
0.619080103
0.6205051797
0.6237009521
0.6249999434
0.6246561549
0.6236765647
0.6239796357
0.6237738453
0.622595723
0.6216530412
0.6202616672
0.6189004047
0.6178526697
0.6205104103
0.6577852062
0.8120627476
0.9870688823
1.095810225
1.157449446
1.18425031
1.198582398
1.211846598
1.231499144
1.254026388
1.27845779
0.5073340792
0.5335677703
0.5600790472
0.5891813928
0.6065840987
0.6093906865
0.6086991755
0.6112054694
0.6141130079
0.6144800519
0.6168400693
0.6195369869
0.6220944717
0.6231210454
0.6228748123
0.6222255724
0.6224139039
0.6226240059
0.6218257222
0.621146768
0.6197597328
0.6184974679
0.6174999601
0.6207268002
0.6650752578
0.8279423051
0.9973385292
1.102839515
1.160954791
1.185777377
1.199315884
1.21297582
1.230366517
1.252571708
1.278090124
0.5073045281
0.5321607438
0.556259236
0.5863127041
0.6051506143
0.6082922177
0.6075420728
0.6088764291
0.6122172569
0.6135384083
0.6160160143
0.6188948867
0.6214718835
0.6223090108
0.6220629009
0.6216620008
0.6216478831
0.6212849789
0.6204702267
0.6200294813
0.6187020299
0.6176416378
0.6167189298
0.621300676
0.6734361682
0.8438044102
1.007122733
1.108922085
1.163136861
1.185577347
1.199287554
1.212294615
1.23006148
1.252737148
1.278903697
0.5071153205
0.5302449365
0.5522971128
0.5838492967
0.6037309507
0.60696055
0.6060907716
0.6064787232
0.6099439482
0.6122647124
0.6153113473
0.6182957772
0.6210736124
0.6218805203
0.6216490017
0.6214158406
0.6215234648
0.6207786788
0.6196990511
0.6188744725
0.6174778664
0.6164559771
0.6155877554
0.622239435
0.6827910386
0.8599437271
1.016717112
1.114366693
1.164463806
1.185660142
1.199206342
1.211848016
1.22948534
1.252043268
0.5075155745
0.5276975862
0.54925464
0.5818244925
0.6024300432
0.6059476604
0.6045963857
0.6041567848
0.6067844935
0.6099341189
0.6141770618
0.6173599918
0.6203333052
0.6213514058
0.621274436
0.6211442636
0.6213535798
0.6205506596
0.6192678549
0.6182766859
0.616771191
0.6156713141
0.6149701623
0.6234963418
0.6932018384
0.8758415773
1.02622467
1.119647354
1.165583429
1.186348452
1.20070379
1.212785507
1.229112361
1.252665531
0.5076728266
0.5242071033
0.5470170012
0.5797593711
0.6008291398
0.6051586018
0.60377123
0.6027045472
0.6043540906
0.6076328788
0.6126421799
0.6156576149
0.6189133728
0.6202181426
0.6203613476
0.6204652326
0.6208048795
0.6204363212
0.6189401652
0.6178665905
0.6163955377
0.6153708026
0.6148575429
0.6250953697
0.704608146
0.8917307415
1.035790515
1.125076841
1.166809743
1.186739077
1.199641296
1.211128205
1.228964703
1.252051979
0.5087104783
0.5204820287
0.5454895766
0.5776145436
0.5991558171
0.6042047624
0.6031676531
0.6018566848
0.603219924
0.6064154066
0.6110948971
0.6140693788
0.6175574385
0.6185821519
0.6188899114
0.6194830985
0.6199916821
0.6199226878
0.6188652919
0.6177690776
0.6163539335
0.6152811145
0.614874116
0.6271534281
0.7170274551
0.9071017818
1.044570363
1.129893995
1.168594549
1.187837734
1.200443859
1.211063224
1.227446406
1.253151922
0.515974676
0.518149901
0.5444638377
0.5758352598
0.5980920326
0.603174187
0.602283168
0.6007915324
0.6017144953
0.6054211944
0.6098101344
0.6135321188
0.61692393
0.6175857242
0.6178550669
0.6186826295
0.6192836517
0.6192336314
0.6183693331
0.6172479713
0.6158874714
0.6148037442
0.614388876
0.6298218338
0.7305188471
0.9221704559
1.053150526
1.133551173
1.170319249
1.18784699
1.200136061
1.209871687
1.226289604
1.273536829
0.5234205947
0.5163080548
0.5432354724
0.5739536632
0.5972768256
0.6023794307
0.601051618
0.5991449488
0.5989215994
0.604312772
0.608961242
0.6130916267
0.6165507736
0.6171826958
0.6173692389
0.618196334
0.6187889648
0.6184786628
0.6175921643
0.6162069494
0.6146353221
0.6134589684
0.6133315062
0.6332969394
0.7449386012
)
;

boundaryField
{
    inlet
    {
        type            calculated;
        value           nonuniform 0();
    }
    outlet
    {
        type            calculated;
        value           nonuniform 0();
    }
    bottom
    {
        type            calculated;
        value           nonuniform 0();
    }
    top
    {
        type            calculated;
        value           nonuniform 0();
    }
    obstacle
    {
        type            calculated;
        value           nonuniform List<scalar> 
23
(
0.5385023677
0.5106633368
0.5173385104
0.5246712564
0.5362484725
0.546386851
0.5478996109
0.5486215009
0.5489672354
0.5422828022
0.5214920883
0.5081449805
0.5073652074
0.5068038544
0.5068377655
0.5073340792
0.5073045281
0.5071153205
0.5075155745
0.5076728266
0.5087104783
0.515974676
0.5234205947
)
;
    }
    defaultFaces
    {
        type            empty;
    }
    procBoundary9to3
    {
        type            processor;
        value           nonuniform List<scalar> 
38
(
3.068171834
3.005969867
2.94429376
2.923264751
2.865438104
2.839821897
2.814717848
2.764769523
2.733411475
2.698145908
2.658147354
2.625505555
2.594271021
2.560831561
2.524797165
2.487076359
2.45036872
4.265687473
4.262772324
4.241148376
4.167605434
4.036789403
3.846459462
3.584276086
3.499329851
3.883988272
4.292789958
4.197946895
3.997778227
3.769534489
3.610057939
3.504818689
3.350003085
3.237911646
3.197858073
3.098555224
3.029925095
3.029925095
)
;
    }
    procBoundary9to4
    {
        type            processor;
        value           nonuniform List<scalar> 9(2.389313401 2.362912905 2.332508391 2.303429014 2.274744216 2.246693113 2.217668487 2.189917707 2.159900816);
    }
    procBoundary9to8
    {
        type            processor;
        value           nonuniform List<scalar> 
14
(
4.266071568
4.267012354
4.267499086
4.266930916
4.266732738
4.267234807
4.267526282
4.267490428
4.267375281
4.267332807
4.267069147
4.26618898
4.265220842
4.264820207
)
;
    }
    procBoundary9to10
    {
        type            processor;