/*--------------------------------*- C++ -*----------------------------------*\
  =========                 |
  \\      /  F ield         | OpenFOAM: The Open Source CFD Toolbox
   \\    /   O peration     | Website:  https://openfoam.org
    \\  /    A nd           | Version:  7
     \\/     M anipulation  |
\*---------------------------------------------------------------------------*/
FoamFile
{
    version     2.0;
    format      ascii;
    class       volScalarField;
    location    "3.9";
    object      T;
}
// * * * * * * * * * * * * * * * * * * * * * * * * * * * * * * * * * * * * * //

dimensions      [0 0 0 1 0 0 0];

internalField   nonuniform List<scalar> 5(1.024876878 0.9900553014 1.033123926 1.003804336 1.041132205);

boundaryField
{
    inlet
    {
        type            fixedValue;
        value           nonuniform 0();
    }
    outlet
    {
        type            inletOutlet;
        inletValue      nonuniform 0();
        value           nonuniform 0();
    }
    bottom
    {
        type            slip;
    }
    top
    {
        type            slip;
    }
    obstacle
    {
        type            zeroGradient;
    }
    defaultFaces
    {
        type            empty;
    }
    procBoundary10to4
    {
        type            processor;
        value           uniform 0.999186535;
    }
    procBoundary10to15
    {
        type            processor;
        value           nonuniform List<scalar> 4(0.9783694909 0.9783694909 0.958970415 0.9674203902);
    }
    procBoundary10to16
    {
        type            processor;
        value           nonuniform List<scalar> 2(1.014956248 1.046074031);
    }
    procBoundary10to17
    {
        type            processor;
        value           nonuniform List<scalar> 3(1.028153512 1.032269939 1.035334802);
    }
}


// ************************************************************************* //
