/*--------------------------------*- C++ -*----------------------------------*\
  =========                 |
  \\      /  F ield         | OpenFOAM: The Open Source CFD Toolbox
   \\    /   O peration     | Website:  https://openfoam.org
    \\  /    A nd           | Version:  7
     \\/     M anipulation  |
\*---------------------------------------------------------------------------*/
FoamFile
{
    version     2.0;
    format      ascii;
    class       volScalarField;
    location    "3.6";
    object      rho;
}
// * * * * * * * * * * * * * * * * * * * * * * * * * * * * * * * * * * * * * //

dimensions      [1 -3 0 0 0 0 0];

internalField   nonuniform List<scalar> 
22
(
1.562012156
1.490222621
1.577076651
1.572387353
1.522644867
1.629063682
1.618553811
1.517998449
1.360751474
1.664551474
1.520193869
1.294623071
1.196682952
1.559799178
1.206402741
1.142756375
1.187651463
1.02561065
1.027868363
1.15217123
0.9962278192
1.045020064
)
;

boundaryField
{
    inlet
    {
        type            calculated;
        value           nonuniform 0();
    }
    outlet
    {
        type            calculated;
        value           nonuniform 0();
    }
    bottom
    {
        type            calculated;
        value           nonuniform 0();
    }
    top
    {
        type            calculated;
        value           nonuniform 0();
    }
    obstacle
    {
        type            calculated;
        value           nonuniform List<scalar> 2(1.02561065 0.9962278192);
    }
    defaultFaces
    {
        type            empty;
    }
    procBoundary9to3
    {
        type            processor;
        value           nonuniform List<scalar> 5(1.539664286 1.413867511 1.493562998 1.567004962 1.567004962);
    }
    procBoundary9to4
    {
        type            processor;
        value           nonuniform List<scalar> 2(1.51453285 1.402203182);
    }
    procBoundary9to8
    {
        type            processor;
        value           uniform 1.406520077;
    }
    procBoundary9to10
    {
        type            processor;
        value           nonuniform List<scalar> 5(1.283632514 1.212737951 1.273996895 1.307818527 1.307818527);
    }
    procBoundary9to14
    {
        type            processor;
        value           nonuniform List<scalar> 3(1.479852409 1.665293534 1.930205895);
    }
    procBoundary9to15
    {
        type            processor;
        value           nonuniform List<scalar> 4(1.212038808 1.011157204 1.212038808 1.070918418);
    }
}


// ************************************************************************* //
