/*--------------------------------*- C++ -*----------------------------------*\
  =========                 |
  \\      /  F ield         | OpenFOAM: The Open Source CFD Toolbox
   \\    /   O peration     | Website:  https://openfoam.org
    \\  /    A nd           | Version:  7
     \\/     M anipulation  |
\*---------------------------------------------------------------------------*/
FoamFile
{
    version     2.0;
    format      ascii;
    class       volScalarField;
    location    "3.6";
    object      T;
}
// * * * * * * * * * * * * * * * * * * * * * * * * * * * * * * * * * * * * * //

dimensions      [0 0 0 1 0 0 0];

internalField   nonuniform List<scalar> 
22
(
1.047420107
1.02731762
1.052230768
1.051197466
1.038797921
1.066520256
1.064182166
1.040256992
0.9993347823
1.074142837
1.044092335
0.9900254176
0.960355392
1.070403186
0.9710957688
0.9517092127
0.9690182616
0.9316722289
0.9280939382
0.9586309245
0.922214903
0.9346229057
)
;

boundaryField
{
    inlet
    {
        type            fixedValue;
        value           nonuniform 0();
    }
    outlet
    {
        type            inletOutlet;
        inletValue      nonuniform 0();
        value           nonuniform 0();
    }
    bottom
    {
        type            slip;
    }
    top
    {
        type            slip;
    }
    obstacle
    {
        type            zeroGradient;
    }
    defaultFaces
    {
        type            empty;
    }
    procBoundary9to3
    {
        type            processor;
        value           nonuniform List<scalar> 5(1.040392356 1.004122489 1.027603266 1.048710923 1.048710923);
    }
    procBoundary9to4
    {
        type            processor;
        value           nonuniform List<scalar> 2(1.034932609 1.006774582);
    }
    procBoundary9to8
    {
        type            processor;
        value           uniform 1.001913243;
    }
    procBoundary9to10
    {
        type            processor;
        value           nonuniform List<scalar> 5(0.9774889717 0.9654354678 0.9980255161 1.016237906 1.016237906);
    }
    procBoundary9to14
    {
        type            processor;
        value           nonuniform List<scalar> 3(1.023100083 1.07218999 1.14191098);
    }
    procBoundary9to15
    {
        type            processor;
        value           nonuniform List<scalar> 4(0.981465176 0.9275538062 0.981465176 0.9444340386);
    }
}


// ************************************************************************* //
