/*--------------------------------*- C++ -*----------------------------------*\
  =========                 |
  \\      /  F ield         | OpenFOAM: The Open Source CFD Toolbox
   \\    /   O peration     | Website:  https://openfoam.org
    \\  /    A nd           | Version:  7
     \\/     M anipulation  |
\*---------------------------------------------------------------------------*/
FoamFile
{
    version     2.0;
    format      ascii;
    class       volVectorField;
    location    "2.7";
    object      U;
}
// * * * * * * * * * * * * * * * * * * * * * * * * * * * * * * * * * * * * * //

dimensions      [0 1 -1 0 0 0 0];

internalField   nonuniform List<vector> 
23
(
(2.97452867 0.06437571522 0)
(2.961227082 0.09552594662 0)
(2.961876581 0.09652940679 0)
(2.999767582 0.0005322779152 0)
(2.992184462 0.01835880302 0)
(2.977556228 0.05599592498 0)
(2.962249601 0.1028070869 0)
(2.999992948 1.622709846e-05 0)
(2.998869116 0.002606329188 0)
(2.992273755 0.01977256641 0)
(2.976182351 0.06291389127 0)
(2.999999917 1.864457484e-07 0)
(2.999898639 0.0002461867293 0)
(2.998687487 0.003340098188 0)
(2.990277611 0.02420326202 0)
(3 1.011100456e-09 0)
(2.999995184 1.212552068e-05 0)
(2.999845789 0.0003992350957 0)
(2.998193399 0.004452295237 0)
(3 -6.010939262e-12 0)
(2.999999772 2.653349468e-07 0)
(2.999986929 1.387463235e-05 0)
(2.999661287 0.0003946063775 0)
)
;

boundaryField
{
    inlet
    {
        type            fixedValue;
        value           nonuniform 0();
    }
    outlet
    {
        type            inletOutlet;
        inletValue      nonuniform 0();
        value           nonuniform 0();
    }
    bottom
    {
        type            slip;
    }
    top
    {
        type            slip;
    }
    obstacle
    {
        type            slip;
    }
    defaultFaces
    {
        type            empty;
    }
    procBoundary33to26
    {
        type            processor;
        value           uniform (2.999999984 1.303098901e-07 0);
    }
    procBoundary33to27
    {
        type            processor;
        value           nonuniform List<vector> 5((2.950019383 0.1322451249 0) (2.952384896 0.1238448768 0) (2.965924838 0.08442800342 0) (2.996303012 0.00887604075 0) (2.996303012 0.00887604075 0));
    }
    procBoundary33to32
    {
        type            processor;
        value           nonuniform List<vector> 4((3 -9.121625832e-10 0) (3 -6.852428439e-10 0) (3 -1.737274433e-10 0) (3 -1.1735994e-11 0));
    }
    procBoundary33to34
    {
        type            processor;
        value           nonuniform List<vector> 6((2.972097364 0.07857898872 0) (2.963755187 0.09804631456 0) (2.96837144 0.07925676265 0) (2.979676786 0.04890044181 0) (2.990753085 0.0241969161 0) (2.997027956 0.003066033459 0));
    }
}


// ************************************************************************* //
