/*--------------------------------*- C++ -*----------------------------------*\
  =========                 |
  \\      /  F ield         | OpenFOAM: The Open Source CFD Toolbox
   \\    /   O peration     | Website:  https://openfoam.org
    \\  /    A nd           | Version:  7
     \\/     M anipulation  |
\*---------------------------------------------------------------------------*/
FoamFile
{
    version     2.0;
    format      ascii;
    class       volScalarField;
    location    "3";
    object      T;
}
// * * * * * * * * * * * * * * * * * * * * * * * * * * * * * * * * * * * * * //

dimensions      [0 0 0 1 0 0 0];

internalField   nonuniform List<scalar> 
555
(
1.130375901
1.129394389
1.126614685
1.120812104
1.115304735
1.112728414
1.113348142
1.115731151
1.117406967
0.9979856907
1.112520612
1.118972005
1.123927399
1.127696802
1.124428451
1.118898737
1.113483107
1.111002852
1.111932482
1.114450764
1.115906568
0.9804552645
1.079347302
1.098929878
1.114163307
1.118819728
1.11645682
1.113709183
1.110442437
1.108340775
1.109810026
1.110907317
1.112297228
0.9629475944
1.051439442
1.082329619
1.101131342
1.106304101
1.105344758
1.105428163
1.106055407
1.104627015
1.104556288
1.104478905
1.106453382
0.9549923913
1.023678971
1.066717843
1.087333995
1.094369684
1.094912292
1.098157371
1.099196173
1.097534864
1.09693598
1.096792992
1.099000871
0.948691694
1.003108751
1.046893869
1.073146548
1.083773565
1.08793287
1.090835332
1.090081132
1.088419423
1.088002864
1.08831524
1.091529459
0.946138353
0.9910651369
1.033624769
1.060901638
1.076235779
1.081776169
1.083871383
1.081351938
1.079662468
1.07952055
1.080680878
1.083487079
1.085248378
0.9439794233
0.9769048484
1.024767464
1.054777745
1.070702384
1.075315696
1.076184811
1.074307706
1.072656471
1.072356502
1.074041559
1.075574673
1.077041499
0.9381181795
0.9601073023
1.004785709
1.044960075
1.064847975
1.068973875
1.067569954
1.067473802
1.067097374
1.066766243
1.067568009
1.067468403
1.069179001
0.9340242375
0.949469833
0.9786863028
1.025060002
1.054991833
1.060821596
1.060577559
1.061957601
1.061946521
1.06128957
1.060902642
1.060105819
1.062022931
0.9323173438
0.9431610316
0.9636828039
1.003241348
1.039173403
1.051779011
1.055009729
1.057477036
1.056153197
1.054697761
1.053193328
1.053360204
1.055195598
0.926871535
0.936843427
0.9542292517
0.9894797726
1.02631104
1.043405771
1.04942227
1.051287969
1.049280091
1.047294698
1.046067451
1.047173828
1.04849235
0.9227866557
0.9304044596
0.9397485034
0.974493735
1.014546881
1.035569437
1.041836398
1.044017204
1.041531154
1.039723949
1.039083202
1.040762923
1.041551155
1.042015043
0.921682446
0.9260653578
0.9267607907
0.9494236758
0.9921845576
1.023007756
1.033245998
1.035235455
1.032863485
1.032422559
1.032443305
1.033921109
1.033747835
1.034479432
0.919890751
0.92301041
0.9203110133
0.9302147255
0.9640341693
1.002695114
1.021377425
1.025531481
1.02468265
1.025197334
1.02541958
1.025812432
1.02583647
1.02683569
0.9169581184
0.9195382273
0.9161309552
0.9214789292
0.9468921945
0.98338392
1.008362513
1.017572196
1.017431235
1.018208677
1.018167579
1.017461665
1.018574165
1.019557006
0.9137213514
0.916470406
0.9103138399
0.9124932016
0.936040753
0.9730326521
0.9998605088
1.011440499
1.01158169
1.011535565
1.010395537
1.009984591
1.011873944
1.012628474
0.9121782784
0.9149998999
0.9053648516
0.8999698386
0.9194459306
0.9619697164
0.9945228595
1.005422023
1.005699698
1.004976677
1.003414077
1.003553275
1.00568861
1.005961272
0.9113097233
0.9140407247
0.9028763505
0.892574608
0.9013138483
0.937369597
0.9798614077
0.9988054557
0.9999737915
0.9982797231
0.9977414162
0.9982660652
1.000026325
0.9998081488
0.9102218218
0.9129914234
0.9008576023
0.8885494117
0.8908208051
0.9141143858
0.9558311526
0.9863568447
0.9932763218
0.9925390694
0.9932193409
0.9937650928
0.994621576
0.9946327334
0.9944793152
0.9090800266
0.9118594392
0.8985609147
0.8836851615
0.8832126057
0.9024937234
0.9391716204
0.9734802223
0.9869548017
0.9884579971
0.9895576551
0.989385415
0.9898195751
0.9905086304
0.9904583413
0.9083690863
0.910894085
0.8973329119
0.8785647517
0.8728322787
0.8919950397
0.9316624436
0.9677505652
0.982594255
0.9854509447
0.9861862129
0.9850787919
0.9858503136
0.9871673801
0.9873148627
0.9077462472
0.9099666378
0.8969493665
0.8758025906
0.8655604032
0.8772299671
0.9193109022
0.9644243461
0.9811086347
0.9829205811
0.9824562998
0.9813683398
0.9829043063
0.9845754521
0.9847294234
0.9067196862
0.9089701011
0.8967155534
0.8740747029
0.8617163219
0.8665170727
0.8975076682
0.9526773673
0.9771543453
0.9804575713
0.9792063783
0.9790928561
0.9812879453
0.9828544845
0.9828573104
0.9055188677
0.9081627234
0.8965024064
0.8722103061
0.8571386572
0.8593911434
0.8815588293
0.9304859417
0.9670379966
0.9769409598
0.9781372337
0.9783242252
0.9806359796
0.9821235856
0.9822961367
0.904700261
0.9074308178
0.8963105114
0.8703573335
0.8517409985
0.8512698861
0.8717571013
0.9149151308
0.9559765272
0.9732623862
0.9784206392
0.978506594
0.9805368909
0.9818442682
0.9822967565
0.9045491571
0.9067922898
0.896506827
0.869484019
0.8483529874
0.8439528395
0.8612932736
0.9060857208
0.9492400349
0.9717173324
0.9790790837
0.9790909301
0.9801977795
0.9818137107
0.9824015142
0.9815233166
0.904756617
0.9061085611
0.8966178677
0.8689965035
0.8465977084
0.840305728
0.8507060631
0.8921614852
0.9455028634
0.9736745723
0.980810237
0.9794054931
0.9798128182
0.9820557852
0.9827140621
0.9816846357
0.9052359814
0.9053247998
0.8963383646
0.8686032057
0.8452265395
0.8377640691
0.8442368583
0.8750604522
0.9343531303
0.9722190986
0.9816283474
0.9792802255
0.9802624528
0.9826310731
0.9834227657
0.9821094915
0.9058013045
0.9045490288
0.8964572986
0.8681103812
0.8431933345
0.8342031221
0.8393599566
0.8646633349
0.9169406354
0.9650176193
0.9804102184
0.9797414347
0.9819242051
0.9840813554
0.9847608436
0.9831182764
0.9062339854
0.9037481521
0.8956805189
0.8689597161
0.8411021474
0.8314774669
0.8343781205
0.8568395905
0.9044174531
0.9552358748
0.9787625447
0.9820778129
0.9842100913
0.9855454999
0.9865143407
0.9848973506
0.9066992408
0.9030610571
0.8948705314
0.8696938933
0.8402864569
0.8298543657
0.830995217
0.847639745
0.8930007481
0.9465275959
0.9773197363
0.985787283
0.9866386673
0.9870397574
0.9886289008
0.987185583
0.9072253719
0.9025496344
0.8944037993
0.8704497309
0.8399223564
0.8282407114
0.8284553678
0.8399815041
0.8779637336
0.9392980029
0.9787483728
0.988520361
0.9886870026
0.9893149048
0.9909622487
0.9894540366
0.9080002409
0.9021976635
0.8938067974
0.8707229762
0.8393391751
0.8261820187
0.8257795582
0.8355445976
0.8673365786
0.9260096426
0.9766316254
0.9899861475
0.9900845563
0.991848871
0.9933242224
0.9917391764
0.9090092544
0.9019921972
0.8932419292
0.8707621075
0.8387416706
0.8244827959
0.8237355795
0.8322553174
0.8608469379
0.9120776252
0.967941259
0.9886859574
0.9919099734
0.9946115036
0.995992973
0.9944181318
0.9936349667
0.9102693054
0.9019400546
0.8925649898
0.8704985606
0.8383759975
0.8235846698
0.8226016368
0.8291552287
0.8520557794
0.9031624686
0.9595933489
0.9868565037
0.9943472473
0.9971069319
0.9986942229
0.996969401
0.9963221676
0.9116455898
0.9019274967
0.8916434231
0.8699681602
0.8377490699
0.8226026785
0.821265788
0.8261115454
0.8440936939
0.8893877686
0.9517862935
0.9864068435
0.9973528139
0.9991205296
1.001725629
0.99936834
0.998260189
0.9140471174
0.9015773159
0.8904538741
0.8692152688
0.8375736531
0.8212009905
0.8198753376
0.8246276904
0.840458084
0.8748083964
0.9371679034
0.9855061867
0.9990181822
1.000936588
1.004645282
1.001350326
0.9996435
0.9160296999
0.9013532508
0.8890754306
0.8689540244
0.8372952278
0.8204257772
0.8193363912
0.8240231014
0.8386330507
)
;

boundaryField
{
    inlet
    {
        type            fixedValue;
        value           nonuniform 0();
    }
    outlet
    {
        type            inletOutlet;
        inletValue      nonuniform 0();
        value           nonuniform 0();
    }
    bottom
    {
        type            slip;
    }
    top
    {
        type            slip;
    }
    obstacle
    {
        type            zeroGradient;
    }
    defaultFaces
    {
        type            empty;
    }
    procBoundary21to15
    {
        type            processor;
        value           nonuniform List<scalar> 
13
(
1.131117735
1.127567059
1.123769096
1.120474566
1.116714828
1.114658169
1.113995964
1.114369318
1.116818518
1.02457892
1.15268262
1.129152981
1.129152981
)
;
    }
    procBoundary21to22
    {
        type            processor;
        value           nonuniform List<scalar> 
35
(
1.116940271
1.115860994
1.113060983
1.108323195
1.101903219
1.093808811
1.093808811
1.085696157
1.077940288
1.070463016
1.063178089
1.056081026
1.049072393
1.049072393
1.041490238
1.034338866
1.027079072
1.019906108
1.012707135
1.005667374
0.9995329227
0.9995329227
0.9942699044
0.9901447166
0.9869215987
0.9842691788
0.9823041114
0.9816103996
0.9815029068
0.9815029068
0.9819083198
0.9820559598
0.9823826034
0.983285185
0.9848378513
)
;
    }
    procBoundary21to27
    {
        type            processor;
        value           nonuniform List<scalar> 
18
(
0.8667936228
0.9188866524
0.9777323982
0.9993794342
1.002729521
1.006555233
1.002743378
1.000097205
0.9179017592
0.9011150139
0.8873682386
0.8679985598
0.8379296502
0.8199216073
0.818987523
0.8233924982
0.8667936228
0.8352994876
)
;
    }
    procBoundary21to28
    {
        type            processor;
        value           nonuniform List<scalar> 8(0.9866478754 0.9884934984 0.9908756607 0.9908756607 0.996720576 0.9996709702 1.00208105 1.003666031);
    }
}


// ************************************************************************* //
