/*--------------------------------*- C++ -*----------------------------------*\
  =========                 |
  \\      /  F ield         | OpenFOAM: The Open Source CFD Toolbox
   \\    /   O peration     | Website:  https://openfoam.org
    \\  /    A nd           | Version:  7
     \\/     M anipulation  |
\*---------------------------------------------------------------------------*/
FoamFile
{
    version     2.0;
    format      ascii;
    class       volScalarField;
    location    "0.9";
    object      T;
}
// * * * * * * * * * * * * * * * * * * * * * * * * * * * * * * * * * * * * * //

dimensions      [0 0 0 1 0 0 0];

internalField   nonuniform List<scalar> 
22
(
0.9343162707
0.9806644954
0.931673033
0.9280084861
0.9587472123
1.070398775
0.9710724835
0.9516717186
0.9690328518
1.074134365
1.044092238
0.9899861925
0.9603870042
1.066502243
1.06417904
1.040246307
0.9994557479
1.027300874
1.052271735
1.051219338
1.038787755
1.004133287
)
;

boundaryField
{
    inlet
    {
        type            fixedValue;
        value           nonuniform 0();
    }
    outlet
    {
        type            inletOutlet;
        inletValue      nonuniform 0();
        value           nonuniform 0();
    }
    bottom
    {
        type            slip;
    }
    top
    {
        type            slip;
    }
    obstacle
    {
        type            zeroGradient;
    }
    defaultFaces
    {
        type            empty;
    }
    procBoundary27to20
    {
        type            processor;
        value           nonuniform List<scalar> 2(1.141913442 1.072192529);
    }
    procBoundary27to21
    {
        type            processor;
        value           nonuniform List<scalar> 4(0.9444706458 0.9977744947 0.9222437906 0.9222437906);
    }
    procBoundary27to26
    {
        type            processor;
        value           nonuniform List<scalar> 3(1.02310081 1.001913196 1.000024369);
    }
    procBoundary27to28
    {
        type            processor;
        value           nonuniform List<scalar> 6(1.027123775 1.016102571 1.016102571 0.998269394 0.9653817834 0.9771800844);
    }
    procBoundary27to33
    {
        type            processor;
        value           nonuniform List<scalar> 5(1.027647026 1.048691503 1.04740848 1.027647026 1.000255861);
    }
    procBoundary27to34
    {
        type            processor;
        value           uniform 1.006689398;
    }
}


// ************************************************************************* //
