/*--------------------------------*- C++ -*----------------------------------*\
  =========                 |
  \\      /  F ield         | OpenFOAM: The Open Source CFD Toolbox
   \\    /   O peration     | Website:  https://openfoam.org
    \\  /    A nd           | Version:  7
     \\/     M anipulation  |
\*---------------------------------------------------------------------------*/
FoamFile
{
    version     2.0;
    format      ascii;
    class       volVectorField;
    location    "2.5";
    object      U;
}
// * * * * * * * * * * * * * * * * * * * * * * * * * * * * * * * * * * * * * //

dimensions      [0 1 -1 0 0 0 0];

internalField   nonuniform List<vector> 
22
(
(2.666942122 -0.03022572418 0)
(2.764231134 -0.02790299107 0)
(2.740852567 -0.08257357739 0)
(2.799934488 -0.06678484737 0)
(2.837213561 -0.1216615557 0)
(2.873538948 -0.09945393916 0)
(2.896867448 -0.1694998485 0)
(2.9405086 -0.1363013975 0)
(2.932586647 -0.01625106665 0)
(2.932709352 -0.2121036412 0)
(2.985278427 -0.162222064 0)
(2.968128721 -0.0389746879 0)
(2.951567363 -0.2464603731 0)
(3.009766206 -0.1970783019 0)
(3.009874248 -0.06747022274 0)
(2.961946722 -0.2732974267 0)
(3.028567997 -0.2256209061 0)
(3.044352262 -0.09749317448 0)
(2.977466421 -0.3002181441 0)
(3.048318842 -0.2526557422 0)
(3.063394273 -0.1288731021 0)
(2.975174039 -0.3190471384 0)
)
;

boundaryField
{
    inlet
    {
        type            fixedValue;
        value           nonuniform 0();
    }
    outlet
    {
        type            inletOutlet;
        inletValue      nonuniform 0();
        value           nonuniform 0();
    }
    bottom
    {
        type            slip;
    }
    top
    {
        type            slip;
    }
    obstacle
    {
        type            slip;
    }
    defaultFaces
    {
        type            empty;
    }
    procBoundary21to15
    {
        type            processor;
        value           nonuniform List<vector> 2((2.663723732 0.03196313592 0) (2.755531949 0.04456489797 0));
    }
    procBoundary21to22
    {
        type            processor;
        value           nonuniform List<vector> 7((2.828274613 -2.227988862e-05 0) (2.844827805 -0.006227428688 0) (2.889177983 -0.007875677151 0) (2.889177983 -0.007875677151 0) (2.928037214 0.004053645092 0) (2.967502322 -0.0009831628457 0) (2.999851554 0.002142270758 0));
    }
    procBoundary21to27
    {
        type            processor;
        value           nonuniform List<vector> 4((3.064373801 -0.273695678 0) (3.072416866 -0.1627252935 0) (3.064373801 -0.273695678 0) (2.966420815 -0.3229242177 0));
    }
    procBoundary21to28
    {
        type            processor;
        value           nonuniform List<vector> 2((3.018854322 -0.003378564179 0) (3.028763253 -0.01283633781 0));
    }
}


// ************************************************************************* //
