/*--------------------------------*- C++ -*----------------------------------*\
  =========                 |
  \\      /  F ield         | OpenFOAM: The Open Source CFD Toolbox
   \\    /   O peration     | Website:  https://openfoam.org
    \\  /    A nd           | Version:  7
     \\/     M anipulation  |
\*---------------------------------------------------------------------------*/
FoamFile
{
    version     2.0;
    format      ascii;
    class       volScalarField;
    location    "4.3";
    object      p;
}
// * * * * * * * * * * * * * * * * * * * * * * * * * * * * * * * * * * * * * //

dimensions      [1 -1 -2 0 0 0 0];

internalField   nonuniform List<scalar> 
2222
(
1
1
1
1
1
1
1
1
1
1
1
1
1
1
1
1
1
1
1
1
1
1
1
1
1
1
1
1
1
1
1
1
1
1
1
1
1
1
1
1
1
1
1
1
1
1
1
1
1
1
1
1
1
1
1
1
1
1
1
1
1
1
1
1
1
1
1
1
1
1
1
1
1
1
1
1
1
1
1
1
1
1
1
1
1
1
1
1
1
1
1
1
1
1
1
1
1
1
1
1
1
1
1
1
1
1
1
1
1
1
1
1
1
1
1
1
1
1
1
1
1
1
1
1
1
1
1
1
1
1
1
1
1
1
1
1
1
1
1
1
1
1
1
1
1
1
1
1
1
1
1
1
1
1
1
1
1
1
1
1
1
1
1
1
1
1
1
1
1
1
1
1
1
1
1
1
1
1
1
1
1
1
1
1
1
1
1
1
1
1
1
1
1
1
1
1
1
1
1
1
1
1
1
1
1
1
1
1
1
1
1
1
1
1
1
1
1
1
1
1
1
1
1
1
1
1
1
1
1
1
1
1
1
1
1
1
1
1
1
1
1
1
1
1
1
1
1
1
1
1
1
1
1.000000002
1
1
1
1
1
1
1
1
1
1
1
1
1
1
1
1
1
1
1
1
1
1
1
1
1
1
1
1
1
1
1
1
1
1
1
1.000000021
1
1
1
1
1
1
1
1
1
1
1
1
1
1
1
1
1
1
1
1
1
1
1
1
1
1
1
1
1
1
1
1
1
1
1.000000002
1.000000433
1
1
1
1
1
1
1
1
1
1
1
1
1
1
1
1
1
1
1
1
1
1
1
1
1
1
1
1
1
1
1
1
1
1
1.000000091
1.000016578
1
1
1
1
1
1
1
1
1
1
1
1
1
1
1
1
1
1
1
1
1
1
1
1
1
1
1
1
1
1
1
1
1
1.000000023
1.000004119
1.000391689
1
1
1
1
1
1
1
1
1
1
1
1
1
1
1
1
1
1
1
1
1
1
1
1
1
1
1
1
1
1
1
1
1.000000005
1.000000809
1.000083179
1.004567418
1
1
1
1
1
1
1
1
1
1
1
1
1
1
1
1
1
1
1
1
1
1
1
1
1
1
1
1
1
1
1
1.000000001
1.000000131
1.000013345
1.000935827
1.030360294
1
1
1
1
1
1
1
1
1
1
1
1
1
1
1
1
1
1
1
1
1
1
1
1
1
1
1
1
1
1
1
1.000000014
1.000001736
1.000146251
1.007042688
1.146895962
1
1
1
1
1
1
1
1
1
1
1
1
1
1
1
1
1
1
1
1
1
1
1
1
1
1
1
1
1
1
1.000000001
1.000000145
1.000018238
1.001394682
1.04109637
1.496707583
1
1
1
1
1
1
1
1
1
1
1
1
1
1
1
1
1
1
1
1
1
1
1
1
1
1
1
1
1
1
1.000000011
1.000001929
1.000232173
1.011811769
1.189526896
2.058592539
1
1
1
1
1
1
1
1
1
1
1
1
1
1
1
1
1
1
1
1
1
1
1
1
1
1
1
1
1
1.000000001
1.000000292
1.000047036
1.003542578
1.080655268
1.580936232
2.4955652
1
1
1
1
1
1
1
1
1
1
1
1
1
1
1
1
1
1
1
1
1
1
1
1
1
1
1
1
1
1.000000073
1.000012899
1.001108563
1.038762112
1.345690047
2.149917227
2.637142909
1
1
1
1
1
1
1
1
1
1
1
1
1
1
1
1
1
1
1
1
1
1
1
1
1
1
1
1
1.000000016
1.000003092
1.000294692
1.01378942
1.231228233
1.822539193
2.543322675
2.659848002
1
1
1
1
1
1
1
1
1
1
1
1
1
1
1
1
1
1
1
1
1
1
1
1
1
1
1
1.000000003
1.000000515
1.000057249
1.003321009
1.093464957
1.66905732
2.300801508
2.648985917
2.663869015
1
1
1
1
1
1
1
1
1
1
1
1
1
1
1
1
1
1
1
1
1
1
1
1
1
1
1.000000001
1.000000072
1.000007979
1.000628148
1.022193406
1.377357596
2.122127253
2.553808684
2.667436524
2.649707785
1
1
1
1
1
1
1
1
1
1
1
1
1
1
1
1
1
1
1
1
1
1
1
1
1
1
1.000000007
1.000000922
1.000085098
1.004944748
1.112695417
1.870920087
2.424583186
2.642023169
2.671478225
2.636571836
1
1
1
1
1
1
1
1
1
1
1
1
1
1
1
1
1
1
1
1
1
1
1
1
1
1.000000001
1.00000007
1.000009995
1.000862103
1.030867795
1.417512651
2.314174092
2.564511808
2.670043211
2.675559511
2.622311203
1
1
1
1
1
1
1
1
1
1
1
1
1
1
1
1
1
1
1
1
1
1
1
1
1
1.000000005
1.000001075
1.000144091
1.008529742
1.152941438
1.981282049
2.547044347
2.608641509
2.654612922
2.665934335
2.603581048
1
1
1
1
1
1
1
1
1
1
1
1
1
1
1
1
1
1
1
1
1
1
1
1
1.000000001
1.000000168
1.000031739
1.002553315
1.068174516
1.501973756
2.486481445
2.65467827
2.644025669
2.638798761
2.632921216
2.568312492
1
1
1
1
1
1
1
1
1
1
1
1
1
1
1
1
1
1
1
1
1
1
1
1
1.000000038
1.000007894
1.000772475
1.030200948
1.323450437
2.057088012
2.681742415
2.696175696
2.657193752
2.609792423
2.58545994
2.525271063
1
1
1
1
1
1
1
1
1
1
1
1
1
1
1
1
1
1
1
1
1
1
1
1.000000008
1.000001575
1.000177107
1.00939588
1.19360269
1.797647284
2.517307574
2.708905378
2.698133307
2.659257301
2.586231845
2.537364696
2.483226905
1
1
1
1
1
1
1
1
1
1
1
1
1
1
1
1
1
1
1
1
1
1
1.000000002
1.00000026
1.000029588
1.002013979
1.063240603
1.617061643
2.261343759
2.677044578
2.712291743
2.689125588
2.645152084
2.563840423
2.49783175
2.443336932
1
1
1
1
1
1
1
1
1
1
1
1
1
1
1
1
1
1
1
1
1
1
1.000000034
1.000004067
1.000343247
1.014042228
1.280227984
2.094119148
2.551548239
2.710163247
2.6959005
2.653047271
2.604390179
2.533876858
2.461714572
2.406518902
1
1
1
1
1
1
1
1
1
1
1
1
1
1
1
1
1
1
1
1
1
1.000000003
1.00000042
1.000044576
1.003008622
1.074952042
1.75630955
2.430197838
2.66197643
2.717539206
2.689446246
2.629273058
2.573278067
2.502320568
2.423134913
2.367660797
1
1
1
1
1
1
1
1
1
1
1
1
1
1
1
1
1
1
1
1
1
1.000000031
1.000004651
1.000481003
1.020739324
1.310324798
2.292595419
2.590814803
2.691501888
2.721809426
2.684952824
2.606835853
2.538735358
2.467092891
2.385419145
2.329188348
1
1
1
1
1
1
1
1
1
1
1
1
1
1
1
1
1
1
1
1
1.000000002
1.000000459
1.000072632
1.005421208
1.113312192
1.823641526
2.617989616
2.666739879
2.692070381
2.713976389
2.677494886
2.584949414
2.504301655
2.42696006
2.345321949
2.290869217
1
1
1
1
1
1
1
1
1
1
1
1
1
1
1
1
1
1
1
1
1.000000067
1.00001507
1.001468591
1.049838336
1.417829991
2.399474843
2.726905078
2.710255794
2.695076365
2.69019904
2.649615722
2.553655833
2.46845564
2.387805809
2.306668355
2.251691146
1
1
1
1
1
1
1
1
1
1
1
1
1
1
1
1
1
1
1
1.000000013
1.000003559
1.000411062
1.019833108
1.272495624
1.948981479
2.699528481
2.764107049
2.737653317
2.681303576
2.651538839
2.605975006
2.517378587
2.433792385
2.350171765
2.268052554
2.213365944
1
1
1
1
1
1
1
1
1
1
1
1
1
1
1
1
1
1
1.000000003
1.000000677
1.000092411
1.005549294
1.143180257
1.74210151
2.455834461
2.766908189
2.766433967
2.742940388
2.670040692
2.614395474
2.560815976
2.480461402
2.398837453
2.311283029
2.227432902
2.173355286
1
1
1
1
1
1
1
1
1
1
1
1
1
1
1
1
1
1.000000001
1.00000011
1.000014841
1.001170691
1.0401274
1.524717413
2.211518408
2.692066559
2.768298776
2.743462794
2.712241813
2.646448926
2.581322548
2.520105416
2.443370402
2.362959441
2.273011774
2.188252533
2.134876482
1
1
1
1
1
1
1
1
1
1
1
1
1
1
1
1
1
1.000000015
1.000001979
1.000179142
1.008719523
1.190532887
2.036705734
2.522656151
2.745183154
2.750714404
2.720845505
2.680018329
2.616441086
2.546357345
2.478993715
2.403952757
2.324546318
2.235153694
2.151186952
2.097807261
1
1
1
1
1
1
1
1
1
1
1
1
1
1
1
1
1.000000002
1.000000213
1.00002227
1.001642324
1.047259391
1.595395044
2.397458611
2.66360151
2.758380614
2.746598742
2.704615668
2.654551293
2.589577307
2.510950251
2.436187533
2.363488741
2.286576888
2.196851168
2.111968601
2.058100548
1
1
1
1
1
1
1
1
1
1
1
1
1
1
1
1
1.000000016
1.000002575
1.000241123
1.012888808
1.209686389
2.158759131
2.588590944
2.717260833
2.767949727
2.747541752
2.688033729
2.616942095
2.548974458
2.4739979
2.39574473
2.323218114
2.247055819
2.15589107
2.070845261
2.018335945
1
1
1
1
1
1
1
1
1
1
1
1
1
1
1
1.000000002
1.000000193
1.000037827
1.002924006
1.082032582
1.645716901
2.566280398
2.681172716
2.731637909
2.76389905
2.742396195
2.669886502
2.579717853
2.508057521
2.436266252
2.353796824
2.280539514
2.205034964
2.114246125
2.032059273
1.980729985
1
1
1
1
1
1
1
1
1
1
1
1
1
1
1
1.000000023
1.000004762
1.000671604
1.029715666
1.339439291
2.269548574
2.740370924
2.723427414
2.727367912
2.737464903
2.723509863
2.648224653
2.546899978
2.469231545
2.397113667
2.310302282
2.236376649
2.163428959
2.076152312
1.996991755
1.944161433
1
1
1
1
1
1
1
1
1
1
1
1
1
1
1.000000003
1.000000937
1.00014471
1.009353059
1.18968334
1.824539892
2.686069489
2.789345855
2.754256447
2.725214684
2.718980999
2.699398098
2.618145263
2.510431887
2.426285833
2.355283099
2.266558616
2.191912268
2.123065059
2.038148333
1.958247498
1.904088001
1
1
1
1
1
1
1
1
1
1
1
1
1
1.000000001
1.000000215
1.000031701
1.002597763
1.080067879
1.611208402
2.372170124
2.794018894
2.794672475
2.760390998
2.717321762
2.694505886
2.664096982
2.580186063
2.468900909
2.379857157
2.311515064
2.223993576
2.147945575
2.081148972
1.996737111
1.916078117
1.863230803
1
1
1
1
1
1
1
1
1
1
1
1
1
1.000000044
1.000006908
1.00054969
1.023969246
1.374182965
2.116594931
2.690554784
2.796048752
2.781677277
2.75599033
2.713662267
2.666851747
2.623242191
2.539615039
2.429303361
2.337881759
2.269814331
2.182772321
2.104263298
2.03789623
1.955801576
1.876773823
1.825338839
1
1
1
1
1
1
1
1
1
1
1
1
1.000000007
1.000000934
1.000101473
1.005128192
1.13302704
1.906616792
2.470979298
2.766968977
2.804253467
2.791251802
2.770631587
2.709109235
2.63348017
2.576741595
2.498078897
2.393400912
2.299986019
2.227685954
2.138078011
2.0582708
1.994985181
1.919053507
1.840893008
1.788994625
1
1
1
1
1
1
1
1
1
1
1
1.000000001
1.000000115
1.000010953
1.00096094
1.030692175
1.470418412
2.355074823
2.64370901
2.789410039
2.798435893
2.766185478
2.734878416
2.681979754
2.599724134
2.534969787
2.458259997
2.354900564
2.258359768
2.180717673
2.089202624
2.011911216
1.953666021
1.883697217
1.803843658
1.750955129
1
1
1
1
1
1
1
1
1
1
1
1.000000009
1.000001221
1.000110155
1.007219466
1.145670133
1.999427519
2.594391825
2.765857925
2.807210285
2.789097532
2.744197987
2.699968585
2.645240294
2.563155538
2.49543062
2.416000434
2.309702767
2.212469511
2.132386853
2.042984451
1.970380511
1.913846946
1.847225656
1.764412543
1.711012357
1
1
1
1
1
1
1
1
1
1
1.000000001
1.000000081
1.000014434
1.001257874
1.047629133
1.499236182
2.448884002
2.682148876
2.794000653
2.812532325
2.786758731
2.729912935
2.668084509
2.604895958
2.521808088
2.452229629
2.370308983
2.261260229
2.166647186
2.086924827
1.999783177
1.927793818
1.869042179
1.805619368
1.723571638
1.670895784
1
1
1
1
1
1
1
1
1
1
1.000000007
1.000001737
1.000268797
1.013965026
1.2332408
2.107038489
2.682224551
2.735224971
2.768931968
2.795474001
2.781043844
2.71926738
2.642680813
2.566442562
2.474549088
2.40424016
2.324452528
2.214899068
2.123423345
2.04406003
1.956070035
1.88359546
1.824399839
1.766144928
1.687629179
1.634032579
1
1
1
1
1
1
1
1
1
1.000000001
1.000000385
1.000063587
1.00480173
1.111433377
1.666657741
2.627201385
2.780122951
2.770863952
2.771262424
2.773619978
2.769125836
2.702826332
2.614312609
2.520738822
2.420569203
2.352899045
2.277720035
2.169028348
2.080595419
2.001840975
1.911170734
1.83852058
1.780611777
1.726463359
1.651725816
1.596700051
1
1
1
1
1
1
1
1
1
1.000000085
1.000015442
1.00136041
1.049556447
1.460605035
2.241492839
2.80048388
2.806012843
2.771922206
2.763680234
2.755973621
2.744826185
2.674374778
2.577307968
2.470168416
2.369754614
2.304660962
2.23083765
2.120743035
2.032777188
1.9556901
1.866654934
1.79658908
1.740132227
1.688283652
1.617447115
1.561424405
1
1
1
1
1
1
1
1
1.000000016
1.000002741
1.00028129
1.013800779
1.270806634
1.987115841
2.627286456
2.819572523
2.806162666
2.78070212
2.765265012
2.740153594
2.712241224
2.637358776
2.536227775
2.420465501
2.321099681
2.254075684
2.177866303
2.067281385
1.982435919
1.910781182
1.827485474
1.75852753
1.700607907
1.646946779
1.577491292
1.521754263
1
1
1
1
1
1
1
1.000000002
1.000000389
1.000042449
1.002754452
1.082474187
1.746269506
2.431075624
2.766381856
2.82350888
2.809270967
2.794479844
2.773933875
2.725932692
2.672235037
2.592700023
2.494574535
2.374574283
2.273923715
2.203136629
2.124528668
2.016639555
1.935370422
1.867890972
1.786841686
1.716192313
1.657784381
1.603844221
1.537973403
1.48474391
1
1
1
1
1
1
1
1.000000038
1.000005053
1.000444579
1.017754932
1.332975045
2.24130101
2.642370772
2.796742139
2.81897988
2.800501996
2.780223919
2.759393897
2.706294184
2.630984063
2.546308871
2.453113762
2.32994142
2.223425681
2.148149249
2.068841913
1.967381329
1.889508292
1.824340536
1.745055798
1.673873555
1.616888975
1.563991367
1.501072408
1.448923227
1
1
1
1
1
1
1.000000002
1.000000428
1.000052676
1.003750068
1.092512377
1.837811362
2.552784082
2.737329668
2.818432478
2.827075633
2.800270329
2.767400135
2.7277785
2.673021533
2.591262211
2.502361213
2.407924061
2.278635357
2.170150142
2.095283626
2.017516453
1.923081845
1.846474217
1.780987757
1.702740611
1.630608003
1.575547912
1.52423431
1.464073126
1.413386668
1
1
1
1
1
1
1.000000029
1.000005794
1.000642501
1.026613993
1.360043415
2.388900419
2.69918049
2.775657514
2.829337312
2.832809604
2.797518004
2.746819693
2.696272991
2.637226801
2.548882443
2.454455864
2.358613463
2.228464392
2.119848007
2.045229919
1.967057297
1.873659217
1.797005545
1.732688708
1.659197889
1.589301244
1.536916587
1.487413523
1.42930415
1.378712445
1
1
1
1
1
1.000000003
1.000000862
1.000127926
1.008251573
1.149665804
1.896894042
2.719030274
2.750872522
2.773175248
2.804230025
2.825728799
2.792511702
2.729107124
2.668664185
2.603359693
2.505519385
2.403533126
2.305102118
2.175731909
2.067096684
1.993014307
1.914763584
1.823003396
1.748494328
1.686609403
1.618728881
1.550022479
1.498259905
1.449855678
1.39291438
1.341911882
1
1
1
1
1
1.000000189
1.00003233
1.002591366
1.074946275
1.517702515
2.470233207
2.812790563
2.78330724
2.78584237
2.79479248
2.805645456
2.780591788
2.712715716
2.634317404
2.5543022
2.451114722
2.347097166
2.248248321
2.12336328
2.015328915
1.942263759
1.865408407
1.774131814
1.700239212
1.64021429
1.576322485
1.509567095
1.458718404
1.411383395
1.356640729
1.306569052
1
1
1
1
1.000000026
1.00000653
1.000651198
1.02866059
1.361240855
2.065115757
2.758007833
2.825467571
2.808845491
2.793499012
2.783935048
2.78719002
2.767144465
2.69113247
2.597598314
2.505306809
2.397278203
2.292078861
2.192347173
2.070773462
1.962377875
1.888630163
1.813022677
1.724177119
1.653071259
1.595087073
1.53450664
1.468768247
1.418413159
1.372458872
1.320926633
1.271846076
1.239927001
1
1
1
1.000000002
1.000000727
1.000111495
1.006652573
1.173485357
1.867729734
2.529274633
2.80893139
2.820824769
2.809445912
2.802486309
2.779896156
2.76656443
2.742057338
2.660564753
2.557582879
2.453925928
2.338974813
2.232637553
2.132604071
2.015996244
1.908744478
1.835619796
1.763615318
1.679039456
1.608272798
1.550534955
1.491262657
1.427240036
1.378768917
1.334731711
1.286121232
1.238208234
1.207137903
1
1
1
1.000000066
1.000012063
1.001184995
1.042083066
1.579233251
2.315345901
2.725357798
2.824013213
2.832377623
2.823577717
2.810127891
2.777731728
2.747388642
2.70810288
2.617937352
2.507286722
2.397609758
2.27997603
2.173635711
2.074284801
1.961836665
1.855407635
1.782406577
1.712991725
1.631360219
1.56158235
1.504357675
1.44711372
1.385252614
1.338688979
1.296673951
1.251722731
1.205060422
1.174470655
1
1
1.000000003
1.000001268
1.000159846
1.008987496
1.199569763
2.103703897
2.610743393
2.792016543
2.838017529
2.821457456
2.804271522
2.791837921
2.764040661
2.726373837
2.670465289
2.569641506
2.45510095
2.343066781
2.222193839
2.113913738
)
;

boundaryField
{
    inlet
    {
        type            fixedValue;
        value           nonuniform 0();
    }
    outlet
    {
        type            zeroGradient;
    }
    bottom
    {
        type            slip;
    }
    top
    {
        type            slip;
    }
    obstacle
    {
        type            zeroGradient;
    }
    defaultFaces
    {
        type            empty;
    }
    procBoundary3to2
    {
        type            processor;
        value           nonuniform List<scalar> 
36
(
1
1
1
1
1
1
1
1
1
1
1
1
1
1
1
1
1
1
1
1
1
1
1
1
1
1
1
1
1
1
1
1
1
1
1
1
)
;
    }
    procBoundary3to4
    {
        type            processor;
        value           nonuniform List<scalar> 
62
(
1
1
1
1
1.000000001
1.000000022
1.000000254
1.000003156
1.000060677
1.001289277
1.016242271
1.11170324
1.427121586
1.906880195
2.290876071
2.484596844
2.577098716
2.62889182
2.643080961
2.636519725
2.603162496
2.568882329
2.53564731
2.502606433
2.468050519
2.43507875
2.404572227
2.373058786
2.339882792
2.303619243
2.266636763
2.229015307
2.190249002
2.153136414
2.1155712
2.079259744
2.043550686
2.006434094
1.970294387
1.934786951
1.8975051
1.857484247
1.817613227
1.779619371
1.741863782
1.703454789
1.664599272
1.627174084
1.591738032
1.55539688
1.520394155
1.482645086
1.44756753
1.4129244
1.37804626
1.343790758
1.30744267
1.273549756
1.273549756
1.209558877
1.177607808
1.145993764
)
;
    }
    procBoundary3to8
    {
        type            processor;
        value           nonuniform List<scalar> 
27
(
1
1
1
1
1
1
1
1
1
1
1
1
1
1
1
1
1
1
1
1
1
1
1
1
1
1
1
)
;
    }
    procBoundary3to9
    {
        type            processor;
        value           nonuniform List<scalar> 
38
(
2.013950242
1.904944736
1.80079258
1.728869846
1.662595921
1.585003223
1.515918613
1.460045385
1.405161806
1.34598519
1.301090588
1.260474465
1.217375632
1.171296756
1.141426596
1
1
1.000000093
1.000020663
1.001911033
1.05360952
1.632725353
2.491181443
2.725238549
2.804715903
2.83116999
2.815744544
2.796375397
2.786637817
2.751319781
2.69804996
2.628692911
2.518393908
2.398002038
2.283733408
2.161038534
2.013950242
2.051730662
)
;
    }
}


// ************************************************************************* //
