/*--------------------------------*- C++ -*----------------------------------*\
  =========                 |
  \\      /  F ield         | OpenFOAM: The Open Source CFD Toolbox
   \\    /   O peration     | Website:  https://openfoam.org
    \\  /    A nd           | Version:  7
     \\/     M anipulation  |
\*---------------------------------------------------------------------------*/
FoamFile
{
    version     2.0;
    format      ascii;
    class       volVectorField;
    location    "3";
    object      U;
}
// * * * * * * * * * * * * * * * * * * * * * * * * * * * * * * * * * * * * * //

dimensions      [0 1 -1 0 0 0 0];

internalField   nonuniform List<vector> 
2222
(
(2.894589389 -0.2526087846 0)
(2.894821937 -0.2536461633 0)
(2.893684823 -0.2531922913 0)
(2.892163586 -0.2528674166 0)
(2.89169642 -0.2525390926 0)
(2.89137803 -0.2519835732 0)
(2.891343329 -0.2513059971 0)
(2.89214403 -0.2499403433 0)
(2.894034855 -0.247271816 0)
(2.897177626 -0.2424523668 0)
(2.901434499 -0.2350914357 0)
(2.906955175 -0.2238633932 0)
(2.912777077 -0.2109549216 0)
(2.919326634 -0.1962830691 0)
(2.92705282 -0.1765661151 0)
(3 1.962781851e-14 0)
(3 1.470296479e-14 0)
(3 1.156390164e-14 0)
(3 5.836369393e-15 0)
(3 -1.853745718e-15 0)
(3 -2.253083408e-14 0)
(3 -2.709428085e-12 0)
(3 -2.358335288e-10 0)
(2.999999995 -1.234309963e-08 0)
(2.99999979 -5.442550893e-07 0)
(2.999995539 -1.187882204e-05 0)
(2.999927312 -0.0001828853409 0)
(2.99932855 -0.001795425141 0)
(2.995953039 -0.01022342371 0)
(2.98227993 -0.04185827824 0)
(2.960852352 -0.1073110894 0)
(2.929373329 -0.1893917634 0)
(2.923475952 -0.2024069088 0)
(2.899469385 -0.2287606466 0)
(2.891897843 -0.2495908777 0)
(2.89289755 -0.2519913307 0)
(2.895447159 -0.2519477829 0)
(2.893591404 -0.2529064267 0)
(2.893023107 -0.2533406824 0)
(2.89225382 -0.2530150314 0)
(2.891530719 -0.2525677354 0)
(2.891344883 -0.2522162576 0)
(2.891447173 -0.2516072403 0)
(2.89222338 -0.2503896095 0)
(2.893959996 -0.2479082001 0)
(2.896892062 -0.2432495051 0)
(2.900998965 -0.2358693475 0)
(2.906183872 -0.2255957951 0)
(2.912473369 -0.2113375073 0)
(2.9186608 -0.1975006307 0)
(2.926773908 -0.1788349767 0)
(2.934453483 -0.1584338952 0)
(3 1.760455779e-14 0)
(3 1.914050538e-14 0)
(3 1.721154939e-14 0)
(3 1.105161769e-14 0)
(3 -2.469357819e-14 0)
(3 -1.732144326e-12 0)
(3 -1.531962708e-10 0)
(2.999999995 -1.353294844e-08 0)
(2.999999856 -3.734813306e-07 0)
(2.999994659 -1.405985728e-05 0)
(2.999941925 -0.0001543074036 0)
(2.999263874 -0.001851727248 0)
(2.995858119 -0.01080120336 0)
(2.98495055 -0.03855092635 0)
(2.951017334 -0.1160981786 0)
(2.946356786 -0.162761925 0)
(2.908470327 -0.2503724325 0)
(2.891491943 -0.245505464 0)
(2.891437103 -0.2415828182 0)
(2.894446976 -0.2484527632 0)
(2.894791948 -0.2538442192 0)
(2.894510132 -0.2538160873 0)
(2.892978103 -0.2528904952 0)
(2.891880377 -0.2526341953 0)
(2.891513412 -0.2525566139 0)
(2.891219921 -0.2523951672 0)
(2.891362054 -0.251949073 0)
(2.892174108 -0.2508925215 0)
(2.893856798 -0.2485428993 0)
(2.896589752 -0.2441111681 0)
(2.900585697 -0.2366139589 0)
(2.90546243 -0.2267714647 0)
(2.911790253 -0.2130142456 0)
(2.918811639 -0.1962697573 0)
(2.925631033 -0.1816929551 0)
(2.934771832 -0.1597507648 0)
(2.941639753 -0.1419774091 0)
(3 2.148197158e-14 0)
(3 2.36095252e-14 0)
(3 2.157770748e-14 0)
(3 1.237722182e-14 0)
(3 -1.254599726e-12 0)
(3 -1.382982919e-10 0)
(2.999999997 -8.340032287e-09 0)
(2.999999829 -4.43642967e-07 0)
(2.99999617 -1.020566569e-05 0)
(2.999932151 -0.0001724879536 0)
(2.999355612 -0.001747900119 0)
(2.995941781 -0.01002671311 0)
(2.982506368 -0.04258668542 0)
(2.959906906 -0.1072311871 0)
(2.929199551 -0.1858008096 0)
(2.922544171 -0.203081158 0)
(2.899911758 -0.2314418888 0)
(2.894278504 -0.250701311 0)
(2.894610198 -0.2516928953 0)
(2.895242143 -0.2517118846 0)
(2.892970058 -0.2524606523 0)
(2.89230835 -0.2530976171 0)
(2.891773886 -0.2528531411 0)
(2.891189488 -0.2525451847 0)
(2.891196739 -0.2524771839 0)
(2.891414737 -0.2522264629 0)
(2.892146734 -0.2513877276 0)
(2.893666722 -0.249243405 0)
(2.89618741 -0.2449832696 0)
(2.899925762 -0.2378434302 0)
(2.904980008 -0.2272276663 0)
(2.910890564 -0.2147263119 0)
(2.918648599 -0.1969511836 0)
(2.925639835 -0.1805125236 0)
(2.933238339 -0.1650779408 0)
(2.943254996 -0.1393444516 0)
(2.949668774 -0.1239256172 0)
(3 2.24969639e-14 0)
(3 2.68569669e-14 0)
(3 1.695176501e-14 0)
(3 -4.463202244e-13 0)
(3 -8.096577108e-11 0)
(2.999999997 -8.546075207e-09 0)
(2.99999989 -2.82507003e-07 0)
(2.999995415 -1.209771517e-05 0)
(2.99994863 -0.0001361420273 0)
(2.999250737 -0.001915326975 0)
(2.996301727 -0.009860328864 0)
(2.983725629 -0.04080236271 0)
(2.952598743 -0.1120708835 0)
(2.942432064 -0.1656782641 0)
(2.906572765 -0.2534742436 0)
(2.89174775 -0.2454309854 0)
(2.894377009 -0.2439754077 0)
(2.895410262 -0.2498948837 0)
(2.895123382 -0.2533958181 0)
(2.894155431 -0.2530309835 0)
(2.892075429 -0.2523541127 0)
(2.891280776 -0.2523486401 0)
(2.891034242 -0.2525250787 0)
(2.890961267 -0.2525672278 0)
(2.89128692 -0.2524154054 0)
(2.892084082 -0.2517426596 0)
(2.893506984 -0.2498504773 0)
(2.89582777 -0.245781595 0)
(2.899223238 -0.2390479952 0)
(2.904271818 -0.2283527374 0)
(2.910366505 -0.2150215706 0)
(2.917382165 -0.2002757793 0)
(2.926126898 -0.179467454 0)
(2.93336637 -0.1637284271 0)
(2.94286952 -0.1440060809 0)
(2.951906674 -0.1176108085 0)
(2.957174009 -0.10741834 0)
(3 1.420284347e-14 0)
(3 1.483934463e-14 0)
(3 -2.824644782e-13 0)
(3 -4.924579651e-11 0)
(2.999999998 -4.436950092e-09 0)
(2.999999876 -3.198983221e-07 0)
(2.999996979 -7.9684614e-06 0)
(2.999937731 -0.0001588555113 0)
(2.999395671 -0.001654238793 0)
(2.995987768 -0.009847882047 0)
(2.982967808 -0.04358906349 0)
(2.959773018 -0.1048326103 0)
(2.928084107 -0.1824676604 0)
(2.920456749 -0.2032090671 0)
(2.900810996 -0.234808567 0)
(2.897486591 -0.2524651156 0)
(2.897091689 -0.2519373786 0)
(2.894014491 -0.2516312456 0)
(2.892789155 -0.2521242277 0)
(2.891707432 -0.2526437682 0)
(2.891181596 -0.2523550895 0)
(2.890819736 -0.2523174135 0)
(2.890873633 -0.2524506051 0)
(2.891170861 -0.2525441929 0)
(2.891894617 -0.2520497252 0)
(2.893217925 -0.250395533 0)
(2.895406805 -0.2466119542 0)
(2.898727443 -0.239820899 0)
(2.903315772 -0.2300461163 0)
(2.909762382 -0.2157784214 0)
(2.916599298 -0.2012743529 0)
(2.925427634 -0.1826268557 0)
(2.934781202 -0.1594477074 0)
(2.941878138 -0.145844571 0)
(2.952003507 -0.1230734814 0)
(2.959565012 -0.09849901431 0)
(2.964974254 -0.08874787572 0)
(3 1.024227174e-14 0)
(3 -1.684017324e-14 0)
(3 -2.350756204e-11 0)
(2.999999999 -3.745911949e-09 0)
(2.999999932 -1.745935542e-07 0)
(2.999996491 -9.197511943e-06 0)
(2.999955862 -0.0001156358004 0)
(2.999265822 -0.001874573162 0)
(2.996666839 -0.009074996286 0)
(2.982222081 -0.04471892905 0)
(2.95640634 -0.1046800915 0)
(2.936836051 -0.1719229525 0)
(2.904112179 -0.2557809467 0)
(2.894137284 -0.2434752686 0)
(2.89647149 -0.2467758255 0)
(2.895720411 -0.2509543081 0)
(2.895362435 -0.2532770589 0)
(2.893361305 -0.252609107 0)
(2.891300611 -0.2522631151 0)
(2.89083918 -0.2522908828 0)
(2.890523059 -0.2525454429 0)
(2.890689697 -0.2526148102 0)
(2.891056175 -0.25257966 0)
(2.891656875 -0.2521947214 0)
(2.892779261 -0.2507713668 0)
(2.89475708 -0.2473758159 0)
(2.898032926 -0.2407778098 0)
(2.902508287 -0.2311865201 0)
(2.908634437 -0.2180390456 0)
(2.91657877 -0.2003005359 0)
(2.924356562 -0.184711647 0)
(2.934605124 -0.1621530825 0)
(2.942941442 -0.1411640406 0)
(2.950318304 -0.1279271366 0)
(2.962032053 -0.09803863888 0)
(2.968059317 -0.07640926698 0)
(2.973211083 -0.06796475919 0)
(3 5.698509453e-15 0)
(3 -4.648372193e-12 0)
(2.999999999 -1.422857751e-09 0)
(2.99999993 -1.829386467e-07 0)
(2.999997987 -5.252076046e-06 0)
(2.99994522 -0.0001396299551 0)
(2.999463023 -0.001449701818 0)
(2.995926658 -0.009819925753 0)
(2.983588197 -0.04393212049 0)
(2.959727098 -0.1041160478 0)
(2.9269799 -0.1805382184 0)
(2.917998966 -0.2083075571 0)
(2.902391036 -0.2406621861 0)
(2.899882704 -0.2536104545 0)
(2.896301955 -0.2515042765 0)
(2.892805834 -0.2511937432 0)
(2.891947698 -0.2517727039 0)
(2.891071159 -0.252269401 0)
(2.890362181 -0.2524419119 0)
(2.89028115 -0.2525112504 0)
(2.890382221 -0.2526813332 0)
(2.890795033 -0.2527366914 0)
(2.891382389 -0.252319092 0)
(2.892321111 -0.2510537216 0)
(2.894044522 -0.2479338726 0)
(2.896986455 -0.2419948958 0)
(2.9016227 -0.2320659285 0)
(2.907501123 -0.2196300477 0)
(2.915761885 -0.2018892781 0)
(2.92420088 -0.1834485236 0)
(2.932507776 -0.1677071717 0)
(2.944027738 -0.1400676722 0)
(2.951985696 -0.1205730698 0)
(2.960509419 -0.1044303331 0)
(2.970759159 -0.07246887986 0)
(2.975054445 -0.05838832133 0)
(2.980532818 -0.04897959558 0)
(3 -2.045925941e-15 0)
(3 -5.425865763e-10 0)
(2.999999973 -6.649682274e-08 0)
(2.999997782 -5.792512193e-06 0)
(2.99996516 -9.033607265e-05 0)
(2.999329137 -0.00168750841 0)
(2.996902715 -0.008440209131 0)
(2.981233455 -0.04692401264 0)
(2.960858643 -0.09741322431 0)
(2.929280006 -0.1839962355 0)
(2.903841086 -0.2548751127 0)
(2.903229907 -0.2411386042 0)
(2.897798828 -0.2475743472 0)
(2.896143356 -0.2519712649 0)
(2.894276344 -0.2525855232 0)
(2.891558689 -0.2518549133 0)
(2.889713138 -0.2516623116 0)
(2.889398729 -0.251818308 0)
(2.88942634 -0.2523575628 0)
(2.889992961 -0.2527535947 0)
(2.890500359 -0.252825325 0)
(2.891041988 -0.2525390586 0)
(2.891852839 -0.2514080757 0)
(2.893384678 -0.2484587754 0)
(2.896031949 -0.242904466 0)
(2.900489942 -0.2334018329 0)
(2.906666899 -0.2200863589 0)
(2.913932463 -0.2052758316 0)
(2.923691894 -0.1837803566 0)
(2.932526441 -0.1656040017 0)
(2.94280199 -0.1449987915 0)
(2.953598337 -0.1151817917 0)
(2.960088551 -0.1020157346 0)
(2.968780129 -0.08335646887 0)
(2.978186297 -0.04920087576 0)
(2.982838582 -0.03735449646 0)
(2.991214605 -0.02109519725 0)
(3 -1.454021152e-13 0)
(2.999999985 -3.951545271e-08 0)
(2.999999134 -2.182005011e-06 0)
(2.999958428 -0.0001052705501 0)
(2.999562323 -0.00115524159 0)
(2.995818482 -0.009884179553 0)
(2.984778078 -0.04237392285 0)
(2.959977064 -0.1039496687 0)
(2.925402568 -0.1798810598 0)
(2.91667916 -0.207833945 0)
(2.904737316 -0.2498282955 0)
(2.901177601 -0.2536529095 0)
(2.895948862 -0.2515012257 0)
(2.89270201 -0.2508539051 0)
(2.891823008 -0.251272998 0)
(2.889777032 -0.2515453025 0)
(2.888895341 -0.2514883771 0)
(2.888780009 -0.2517951375 0)
(2.889219818 -0.2525852435 0)
(2.890057535 -0.2528009092 0)
(2.890588799 -0.2526098371 0)
(2.891333734 -0.2517058584 0)
(2.892744666 -0.2490758508 0)
(2.895351794 -0.2435930478 0)
(2.899452536 -0.2348656342 0)
(2.905722053 -0.2213662009 0)
(2.912939744 -0.2063172726 0)
(2.922210206 -0.1871350908 0)
(2.933060837 -0.161972939 0)
(2.941571269 -0.1459257868 0)
(2.952405478 -0.1216007697 0)
(2.96143891 -0.09383579326 0)
(2.96819318 -0.08188790879 0)
(2.979709362 -0.05337958608 0)
(2.986112932 -0.0230991289 0)
(2.990388869 -0.01712327443 0)
(2.999430306 0.002833214218 0)
(3 -5.213456069e-11 0)
(2.99999936 -1.677165072e-06 0)
(2.999981253 -4.725302812e-05 0)
(2.999461895 -0.001316823696 0)
(2.997123483 -0.007697847437 0)
(2.980568255 -0.0475209481 0)
(2.965624791 -0.09218410029 0)
(2.924178737 -0.1975627722 0)
(2.903640776 -0.2471636037 0)
(2.904625376 -0.2379668908 0)
(2.899091999 -0.2480622038 0)
(2.896346972 -0.2533599588 0)
(2.894668236 -0.2528007164 0)
(2.891636148 -0.2514763251 0)
(2.890533743 -0.2509971267 0)
(2.889309345 -0.2510867304 0)
(2.888692343 -0.2518348713 0)
(2.888962517 -0.2524850689 0)
(2.889685867 -0.2529349443 0)
(2.8902817 -0.2526332002 0)
(2.890896554 -0.2519294873 0)
(2.892197216 -0.2496761577 0)
(2.894806118 -0.2444836831 0)
(2.898873438 -0.2359679196 0)
(2.904756149 -0.2235896154 0)
(2.912849708 -0.2060079994 0)
(2.921321773 -0.1886355343 0)
(2.932181378 -0.1645469818 0)
(2.941725226 -0.1420129894 0)
(2.950117406 -0.1267065324 0)
(2.962875225 -0.09344027465 0)
(2.970349348 -0.069102378 0)
(2.977252366 -0.05742156776 0)
(2.988202977 -0.02480290779 0)
(2.99235279 -0.003487583401 0)
(2.997234753 0.0004083743313 0)
(3.008326015 0.02951501414 0)
(2.999999995 -9.988412623e-09 0)
(2.99998284 -4.389871685e-05 0)
(2.999728502 -0.0006951109643 0)
(2.996036654 -0.009086777699 0)
(2.986160725 -0.03857858024 0)
(2.95717477 -0.1104175652 0)
(2.927004405 -0.176506118 0)
(2.917088751 -0.2105835615 0)
(2.903530689 -0.2543800366 0)
(2.897976315 -0.2535270574 0)
(2.89471536 -0.2518696811 0)
(2.893311767 -0.2517216977 0)
(2.892645549 -0.2520431708 0)
(2.891064095 -0.2513937433 0)
(2.889733791 -0.2509333082 0)
(2.889255185 -0.2512046104 0)
(2.889398585 -0.2518216717 0)
(2.889874644 -0.2526949397 0)
(2.890306251 -0.2527263241 0)
(2.890865099 -0.2521479515 0)
(2.891995649 -0.2502191962 0)
(2.894402344 -0.2456240796 0)
(2.89858929 -0.2371213703 0)
(2.904393425 -0.2251265717 0)
(2.912692031 -0.2073347557 0)
(2.92159716 -0.1878869802 0)
(2.930444368 -0.169654137 0)
(2.942214541 -0.1406177134 0)
(2.951531148 -0.1193637918 0)
(2.96180413 -0.09827858763 0)
(2.972236386 -0.06375370753 0)
(2.977697967 -0.05021422103 0)
(2.984428746 -0.03755263253 0)
(2.995889596 0.002066313476 0)
(3.000168951 0.0193677968 0)
(3.007374745 0.02803631744 0)
(3.018123779 0.0621694148 0)
(2.999999456 -1.193407242e-06 0)
(2.999711346 -0.0006963716119 0)
(2.997734315 -0.005971761796 0)
(2.981204671 -0.04379179026 0)
(2.966963056 -0.09274051507 0)
(2.919624168 -0.2106821975 0)
(2.906810398 -0.2353023034 0)
(2.903781565 -0.2363247066 0)
(2.898121941 -0.2464791172 0)
(2.89470767 -0.253713648 0)
(2.893519553 -0.2537703565 0)
(2.891682997 -0.2523951443 0)
(2.890622855 -0.2518856515 0)
(2.890006245 -0.2513866664 0)
(2.889942366 -0.2512822503 0)
(2.890336217 -0.2514491981 0)
(2.890858572 -0.2519765303 0)
(2.891195759 -0.2524105169 0)
(2.891498816 -0.2522206608 0)
(2.892420113 -0.2505985903 0)
(2.894497417 -0.2465171679 0)
(2.898493813 -0.2384729875 0)
(2.904541478 -0.2259134751 0)
(2.912186704 -0.2100045531 0)
(2.92183368 -0.1884100866 0)
(2.931122449 -0.1687540575 0)
(2.942458977 -0.1431379071 0)
(2.953336461 -0.112282833 0)
(2.960998554 -0.0978427368 0)
(2.970973292 -0.07343522746 0)
(2.979812205 -0.03962851335 0)
(2.986162024 -0.02771016272 0)
(2.997338098 -0.003308410521 0)
(3.004093661 0.03253181125 0)
(3.00775655 0.03911077084 0)
(3.014933476 0.04864800175 0)
(3.024168796 0.08585248846 0)
(2.999970531 -6.522834579e-05 0)
(2.997031513 -0.006590148385 0)
(2.988370144 -0.03253822038 0)
(2.953913621 -0.1161819897 0)
(2.931275378 -0.1663081044 0)
(2.911610745 -0.220729547 0)
(2.90110335 -0.2591334868 0)
(2.893831351 -0.253523236 0)
(2.892238882 -0.2519027443 0)
(2.892252244 -0.2523914995 0)
(2.891061138 -0.2527689885 0)
(2.890178486 -0.2523465425 0)
(2.889478408 -0.2518064465 0)
(2.889698018 -0.2516281686 0)
(2.890694225 -0.2514146374 0)
(2.891507102 -0.2516529821 0)
(2.891968282 -0.2518654756 0)
(2.89227187 -0.2520666565 0)
(2.893198162 -0.2508688752 0)
(2.895108564 -0.2471664207 0)
(2.898677204 -0.2397643746 0)
(2.904572296 -0.2272833895 0)
(2.911953464 -0.2118032249 0)
(2.921649988 -0.1907808439 0)
(2.932766947 -0.1649513625 0)
(2.942626118 -0.1443860873 0)
(2.95398325 -0.1148927199 0)
(2.96228559 -0.09025706152 0)
(2.970327071 -0.07574784393 0)
(2.983594372 -0.03826903064 0)
(2.989468879 -0.01078905983 0)
(2.995100832 -0.003384076808 0)
(3.006447234 0.02642401077 0)
(3.010647342 0.05544950146 0)
(3.015228331 0.05843142989 0)
(3.025435811 0.07753962898 0)
(3.031700263 0.1133514288 0)
(2.999260067 -0.001796814295 0)
(2.983001781 -0.03693448201 0)
(2.968020236 -0.09143295649 0)
(2.917235029 -0.2168928878 0)
(2.908301758 -0.2258158718 0)
(2.900224014 -0.2402217524 0)
(2.894121027 -0.2476717412 0)
(2.891372718 -0.2543476674 0)
(2.890899114 -0.2540031056 0)
(2.89013249 -0.2531201237 0)
(2.888968501 -0.2521570319 0)
(2.888867425 -0.251793694 0)
(2.889080483 -0.2518378836 0)
(2.890183833 -0.2518648358 0)
(2.891483513 -0.251736191 0)
(2.892127898 -0.251725662 0)
(2.892839554 -0.2516742255 0)
(2.893824163 -0.2507582504 0)
(2.895645499 -0.2476423899 0)
(2.898938081 -0.2408703279 0)
(2.904316495 -0.2293884536 0)
(2.912113526 -0.2124701171 0)
(2.92150582 -0.1924660862 0)
(2.933200329 -0.1651960937 0)
(2.943112105 -0.1425183825 0)
(2.95292013 -0.1214837888 0)
(2.965569228 -0.08441400076 0)
(2.973577152 -0.0623148457 0)
(2.983450575 -0.0429702181 0)
(2.99336232 -0.005149276497 0)
(2.997220341 0.009008343317 0)
(3.002652026 0.01526670061 0)
(3.015043252 0.05510428866 0)
(3.018488671 0.07877192595 0)
(3.023699987 0.08215994454 0)
(3.035769704 0.1104367878 0)
(3.038689934 0.1400691424 0)
(2.993064888 -0.01938607404 0)
(2.950691857 -0.1193641581 0)
(2.933907966 -0.163688815 0)
(2.906033635 -0.2311103299 0)
(2.896084342 -0.2588296142 0)
(2.892248921 -0.2527541029 0)
(2.889126094 -0.2521552696 0)
(2.888973181 -0.2533145324 0)
(2.888795171 -0.2539981321 0)
(2.888388734 -0.2532610165 0)
(2.888289653 -0.2524076652 0)
(2.888524251 -0.2518790669 0)
(2.889624226 -0.2518475398 0)
(2.891048908 -0.2521264192 0)
(2.891640912 -0.2521404029 0)
(2.89259233 -0.2520028621 0)
(2.893845644 -0.251082074 0)
(2.895665292 -0.2482777836 0)
(2.898853459 -0.2419629854 0)
(2.903977296 -0.2311424752 0)
(2.912035904 -0.2135345915 0)
(2.9214607 -0.1928517598 0)
(2.931968473 -0.1698043944 0)
(2.943844257 -0.1398396026 0)
(2.954318034 -0.1171804692 0)
(2.967558958 -0.08606734187 0)
(2.977049205 -0.05104296156 0)
(2.983218048 -0.04037110716 0)
(2.992902104 -0.01810118608 0)
(3.002120249 0.022700378 0)
(3.006803441 0.0345340841 0)
(3.016922284 0.05193716245 0)
(3.0258057 0.09264076637 0)
(3.02756273 0.1037268759 0)
(3.032415287 0.1051805458 0)
(3.042790652 0.1380091371 0)
(3.044136341 0.1594514484 0)
(2.971677058 -0.08422576512 0)
(2.920375031 -0.2174592976 0)
(2.912545245 -0.2185188645 0)
(2.897103086 -0.2416304149 0)
(2.892569971 -0.2485801471 0)
(2.891393964 -0.2547927799 0)
(2.889029621 -0.2540564029 0)
(2.888250389 -0.2539632985 0)
(2.887759357 -0.2538948108 0)
(2.888293961 -0.2533873939 0)
(2.888605498 -0.252927126 0)
(2.889374878 -0.2523013276 0)
(2.890678351 -0.2523708319 0)
(2.891541217 -0.2525162886 0)
(2.891997976 -0.2524625384 0)
(2.893106433 -0.2516547948 0)
(2.894932462 -0.249037807 0)
(2.898124532 -0.243008803 0)
(2.90343468 -0.2320751632 0)
(2.911185025 -0.2155841206 0)
(2.920991723 -0.1935179352 0)
(2.931244847 -0.171497052 0)
(2.944528525 -0.1402856963 0)
(2.956330325 -0.1082379577 0)
(2.96600829 -0.08938610309 0)
(2.978643508 -0.05530484023 0)
(2.986002072 -0.02662989195 0)
(2.9933309 -0.01539143056 0)
(3.007473686 0.02151239079 0)
(3.012414585 0.05492550258 0)
(3.016256496 0.05831311069 0)
(3.026149984 0.07953124114 0)
(3.032136543 0.1183017106 0)
(3.034703524 0.1244062296 0)
(3.041376035 0.1320749685 0)
(3.051134175 0.170313575 0)
(3.052034768 0.1843374962 0)
(2.937614677 -0.1713134015 0)
(2.904832077 -0.2599732858 0)
(2.896432316 -0.2600671839 0)
(2.892254791 -0.2526883457 0)
(2.890457121 -0.2524820434 0)
(2.890241809 -0.2526843415 0)
(2.889734776 -0.2531528458 0)
(2.88911209 -0.2534047426 0)
(2.888782455 -0.2533577905 0)
(2.889317028 -0.2533298924 0)
(2.889838836 -0.2530631784 0)
(2.890521032 -0.252944895 0)
(2.891443693 -0.2529270907 0)
(2.891814247 -0.2528334415 0)
(2.892556163 -0.2522354968 0)
(2.894041038 -0.2498770016 0)
(2.896933908 -0.2441727569 0)
(2.902201155 -0.2332424549 0)
(2.909703726 -0.2176333182 0)
(2.919910103 -0.1954280881 0)
(2.931744764 -0.168409086 0)
(2.943827905 -0.1424414518 0)
(2.957336601 -0.1070000022 0)
(2.966411399 -0.08343001729 0)
(2.976458745 -0.06363603773 0)
(2.991402587 -0.01815616169 0)
(2.997873328 0.006204779577 0)
(3.005701241 0.01860628094 0)
(3.018485968 0.05944887042 0)
(3.021114272 0.08129177225 0)
(3.025127264 0.08197148981 0)
(3.036393295 0.1118452525 0)
(3.039711396 0.1449572338 0)
(3.042636773 0.1462003453 0)
(3.050538075 0.1607003259 0)
(3.057474099 0.19997025 0)
(3.058246129 0.2083969925 0)
(2.914880603 -0.2156222907 0)
(2.89955822 -0.2431973346 0)
(2.893855897 -0.2556655256 0)
(2.893286299 -0.256125998 0)
(2.891870425 -0.2541075681 0)
(2.891232906 -0.2528668041 0)
(2.89089881 -0.2527690255 0)
(2.890667706 -0.2529900931 0)
(2.890268644 -0.2531392975 0)
(2.890239219 -0.2530291021 0)
(2.890793556 -0.2530389709 0)
(2.89130289 -0.2531405847 0)
(2.891732461 -0.2531394548 0)
(2.892294533 -0.2527043858 0)
(2.893506168 -0.2506697932 0)
(2.896036355 -0.2453218126 0)
(2.900781901 -0.235011794 0)
(2.908309727 -0.2188430481 0)
(2.91853609 -0.197288678 0)
(2.931647446 -0.1672200104 0)
(2.943070365 -0.1415370514 0)
(2.955316227 -0.1150574841 0)
(2.969220121 -0.07492628933 0)
(2.978776226 -0.05176494152 0)
(2.992287467 -0.02277984653 0)
(3.002664544 0.020145057 0)
(3.007185471 0.029896692 0)
(3.014057818 0.04104087219 0)
(3.026276444 0.08773755303 0)
(3.029333845 0.1058607458 0)
(3.03459497 0.112234555 0)
(3.047809577 0.1519325008 0)
(3.048798395 0.1765355448 0)
(3.05201547 0.1746390915 0)
(3.059978126 0.1916621267 0)
(3.061804159 0.2225004678 0)
(3.062948825 0.2233931796 0)
(2.894808368 -0.2573069398 0)
(2.892251218 -0.2516823691 0)
(2.892682217 -0.2520728115 0)
(2.893686774 -0.2537300986 0)
(2.892772665 -0.2532186475 0)
(2.892553684 -0.2526818739 0)
(2.891880997 -0.2526166016 0)
(2.891304109 -0.2526972246 0)
(2.891000746 -0.2529451459 0)
(2.890749852 -0.2531839188 0)
(2.891039152 -0.2532206694 0)
(2.891482892 -0.2531767736 0)
(2.892023028 -0.2527912167 0)
(2.89310033 -0.2511428436 0)
(2.895454288 -0.2464110926 0)
(2.899847753 -0.2368534997 0)
(2.907383426 -0.2202427538 0)
(2.917559027 -0.197973409 0)
(2.929783356 -0.1715624193 0)
(2.943154624 -0.1388277246 0)
(2.955055055 -0.1130527693 0)
(2.97121202 -0.07515960976 0)
(2.982964786 -0.03517867859 0)
(2.990272063 -0.02220033365 0)
(3.003285074 0.008821151457 0)
(3.012193838 0.05074015624 0)
(3.017321749 0.06045649989 0)
(3.029896513 0.08529845139 0)
(3.037552385 0.1287903955 0)
(3.039766209 0.1349755189 0)
(3.044075668 0.1395895506 0)
(3.054157878 0.1807346269 0)
(3.054775859 0.1982733763 0)
(3.057026395 0.1976525761 0)
(3.068062314 0.226768394 0)
(3.069551446 0.256029283 0)
(3.071134003 0.256856157 0)
(2.893508651 -0.2545663673 0)
(2.892308525 -0.2536069978 0)
(2.892392107 -0.2527482973 0)
(2.892883342 -0.2529176297 0)
(2.892965612 -0.2526667003 0)
(2.892889989 -0.2525566762 0)
(2.892555237 -0.2524611132 0)
(2.891413212 -0.2527215968 0)
(2.89116971 -0.2528622139 0)
(2.890989622 -0.2530643871 0)
(2.891117796 -0.253110348 0)
(2.891531322 -0.252811976 0)
(2.892550364 -0.2514110652 0)
(2.894837275 -0.2473089455 0)
(2.899299668 -0.2381753244 0)
(2.906647876 -0.2223395067 0)
(2.917009577 -0.1990556376 0)
(2.928402097 -0.1742875709 0)
(2.943347979 -0.1400358453 0)
(2.957740818 -0.1020995879 0)
(2.969434474 -0.07747381016 0)
(2.984684398 -0.03742430314 0)
(2.99315983 -0.006275316736 0)
(3.000456507 0.00550496548 0)
(3.016486409 0.04958175583 0)
(3.02295755 0.086104135 0)
(3.027028943 0.08966734943 0)
(3.039663789 0.1199900363 0)
(3.044925336 0.1604823891 0)
(3.047604323 0.1639643554 0)
(3.054799159 0.1748256311 0)
(3.061575707 0.2146364898 0)
(3.062554527 0.2226716696 0)
(3.064254488 0.2202938708 0)
(3.072948726 0.2503629071 0)
(3.072819625 0.2720731316 0)
(3.07382684 0.2675476509 0)
(2.891340537 -0.2524711092 0)
(2.891672691 -0.2525945585 0)
(2.89186281 -0.2519494146 0)
(2.892157855 -0.2521025759 0)
(2.892804139 -0.2528168585 0)
(2.892766554 -0.2531692779 0)
(2.892566587 -0.2531788564 0)
(2.891742195 -0.2531863841 0)
(2.891237848 -0.2530606906 0)
(2.891026933 -0.2528394586 0)
(2.891134766 -0.2526940346 0)
(2.892005726 -0.251541862 0)
(2.894128895 -0.2480100507 0)
(2.89855274 -0.2394648652 0)
(2.905772203 -0.2244122536 0)
(2.916102016 -0.2019037372 0)
(2.929134166 -0.1719099362 0)
(2.943143807 -0.1411147206 0)
(2.959472211 -0.1000017472 0)
(2.970700305 -0.06929643071 0)
(2.981426626 -0.04745881311 0)
(2.998693912 0.003562239222 0)
(3.006695589 0.03348252972 0)
(3.01550524 0.05040634817 0)
(3.030133932 0.09844753088 0)
(3.033433978 0.1207116165 0)
(3.03696494 0.1186476083 0)
(3.048066537 0.1518212426 0)
(3.05147228 0.1859638654 0)
(3.053295711 0.1863134443 0)
(3.062874806 0.208863727 0)
(3.06859626 0.250095096 0)
(3.070272135 0.2558343997 0)
(3.073762267 0.2564931141 0)
(3.082016192 0.2891739423 0)
(3.081340133 0.303994516 0)
(3.082633234 0.3023574478 0)
(2.89132392 -0.25282039 0)
(2.891388618 -0.2511526302 0)
(2.891488249 -0.2512646834 0)
(2.891710205 -0.2517793067 0)
(2.892188173 -0.2525151306 0)
(2.892472762 -0.2534449901 0)
(2.892287688 -0.2538788426 0)
(2.891860027 -0.2537350117 0)
(2.891173557 -0.2530289539 0)
(2.891188335 -0.252414328 0)
(2.891579585 -0.2513793974 0)
(2.893250845 -0.2483473236 0)
(2.897306408 -0.2408842606 0)
(2.904640922 -0.226236706 0)
(2.915143792 -0.2041983267 0)
(2.929525091 -0.1716474241 0)
(2.943607727 -0.13806273 0)
(2.957257698 -0.1085253031 0)
(2.973777359 -0.06239925665 0)
(2.984963908 -0.03203000854 0)
(2.999516485 -0.0002094341855 0)
(3.012819307 0.05129654128 0)
(3.017946191 0.06473749013 0)
(3.024644738 0.07627848326 0)
(3.038612759 0.1290345731 0)
(3.041549634 0.1506055414 0)
(3.046847744 0.1580147498 0)
(3.060550226 0.2005086052 0)
(3.061992068 0.2238095504 0)
(3.06401149 0.2173061106 0)
(3.069493642 0.2346457613 0)
(3.071836921 0.268736329 0)
(3.072951049 0.270506731 0)
(3.077111784 0.2791029381 0)
(3.085290077 0.3147742213 0)
(3.085404714 0.3262814785 0)
(3.086880873 0.3243290616 0)
(2.891877466 -0.2533388578 0)
(2.891781998 -0.2526970861 0)
(2.891548834 -0.2520126466 0)
(2.891582997 -0.2522824184 0)
(2.891733014 -0.2525629603 0)
(2.892059767 -0.2533576342 0)
(2.891916608 -0.254033238 0)
(2.891700267 -0.2540404404 0)
(2.891367771 -0.2532884053 0)
(2.891569575 -0.2519756304 0)
(2.892706462 -0.2491072028 0)
(2.896207902 -0.242202424 0)
(2.903370854 -0.2280363069 0)
(2.914509685 -0.2046935858 0)
(2.928087345 -0.1756967093 0)
(2.943916849 -0.1374215071 0)
(2.957951459 -0.1040020451 0)
(2.975312915 -0.06388424365 0)
(2.991480406 -0.01123096371 0)
(2.999636402 0.009019090911 0)
(3.013497408 0.0414742522 0)
(3.024424482 0.09198814262 0)
(3.029605132 0.1021158527 0)
(3.040368827 0.1227508416 0)
(3.049414292 0.171820367 0)
(3.051530829 0.1802746092 0)
(3.054656736 0.1861510135 0)
(3.067485287 0.2338592517 0)
(3.068032623 0.2545974645 0)
(3.070143304 0.2543275531 0)
(3.080487518 0.2844108808 0)
(3.081255801 0.3124946661 0)
(3.082534728 0.3110431141 0)
(3.086787182 0.3185307726 0)
(3.088915974 0.3441986948 0)
(3.090063502 0.342407545 0)
(3.088304474 0.3370075374 0)
(2.891884408 -0.2523848795 0)
(2.891782829 -0.2525665959 0)
(2.891597807 -0.2525464004 0)
(2.891390526 -0.2525369612 0)
(2.891469466 -0.2528372446 0)
(2.891551946 -0.2531651874 0)
(2.891616821 -0.2538460772 0)
(2.891378146 -0.2539148149 0)
(2.891743115 -0.2528859669 0)
(2.892633717 -0.2502610299 0)
(2.895590334 -0.2435809513 0)
(2.902258134 -0.2297374608 0)
(2.913370055 -0.2064242063 0)
(2.926941366 -0.1772566013 0)
(2.943233808 -0.1411751507 0)
(2.961954217 -0.09201828633 0)
(2.975745809 -0.0591891015 0)
(2.99274682 -0.01666871376 0)
(3.003664576 0.02703761966 0)
(3.010339236 0.03824555775 0)
(3.025852016 0.08098556274 0)
(3.03559627 0.131382754 0)
(3.039137598 0.1405206233 0)
(3.05247343 0.1729961557 0)
(3.059219654 0.2194180774 0)
(3.063093487 0.2211514457 0)
(3.067538929 0.2241558171 0)
(3.073297152 0.2642797566 0)
(3.073204492 0.2750561172 0)
(3.073863638 0.2738500545 0)
(3.083096635 0.3038821806 0)
(3.08363336 0.3244866451 0)
(3.084085462 0.318500615 0)
(3.087574445 0.3311180795 0)
(3.092075147 0.3584304292 0)
(3.094085542 0.3637133608 0)
(3.097442396 0.3672726362 0)
(2.891616818 -0.2521240791 0)
(2.89145525 -0.2526544633 0)
(2.891400555 -0.2528351146 0)
(2.891318464 -0.2528864107 0)
(2.891307936 -0.2529962775 0)
(2.891323167 -0.2530878285 0)
(2.89135438 -0.2533984725 0)
(2.891585418 -0.2532289975 0)
(2.892515512 -0.251300172 0)
(2.895287005 -0.2452405112 0)
(2.901561899 -0.2317739982 0)
(2.911832472 -0.2099624024 0)
(2.927078169 -0.175985641 0)
(2.943962851 -0.1383979932 0)
(2.963313819 -0.09185386769 0)
(2.978741911 -0.04694083269 0)
(2.99008468 -0.02358353642 0)
(3.009682966 0.03257612865 0)
(3.020105171 0.0795830046 0)
(3.029419438 0.09732080959 0)
(3.045062263 0.1457524228 0)
(3.047970196 0.1753144906 0)
(3.049427765 0.168539313 0)
(3.059378408 0.1992592441 0)
(3.06534843 0.2455243981 0)
(3.0671185 0.2497610713 0)
(3.075562286 0.270466815 0)
(3.081931493 0.3120898975 0)
(3.084094261 0.3168215359 0)
(3.084650353 0.3119140174 0)
(3.092845994 0.3435416599 0)
(3.092091752 0.3578976009 0)
(3.092676843 0.3557771296 0)
(3.097456015 0.3715882895 0)
(3.095463408 0.388128979 0)
(3.097368096 0.3858619414 0)
(3.099355593 0.3875229422 0)
(2.891426507 -0.2524833152 0)
(2.891230571 -0.2526654509 0)
(2.891160435 -0.2528139498 0)
(2.891191828 -0.2529386911 0)
(2.891191376 -0.2529860053 0)
(2.891231531 -0.2530209778 0)
(2.891394457 -0.2529217435 0)
(2.892100961 -0.2516341347 0)
(2.894583485 -0.2467058266 0)
(2.900527987 -0.2345033835 0)
(2.911047817 -0.2122138355 0)
(2.926979758 -0.1770125569 0)
(2.945321704 -0.1328011981 0)
(2.961272292 -0.09820886663 0)
(2.980229246 -0.04606239471 0)
(2.995847488 0.0008111414 0)
(3.010796355 0.03111036026 0)
(3.027079728 0.09226918495 0)
(3.032541254 0.1161080612 0)
(3.038365693 0.1281717359 0)
(3.055654882 0.1904292658 0)
(3.058017517 0.2208123047 0)
(3.063746913 0.2205030053 0)
(3.075693234 0.2570417182 0)
(3.075323564 0.2839654575 0)
(3.075287779 0.2753030219 0)
(3.077711042 0.2875882905 0)
(3.083823356 0.3261936053 0)
(3.085910413 0.3321476926 0)
(3.089503021 0.3411146549 0)
(3.094927179 0.3704688905 0)
(3.095189362 0.3776993316 0)
(3.097132352 0.3719355032 0)
(3.09900497 0.3852103617 0)
(3.097924132 0.390332372 0)
(3.098971509 0.3878309819 0)
(3.099607358 0.3903093985 0)
(2.891263855 -0.252933718 0)
(2.891116773 -0.2529055526 0)
(2.891065469 -0.2529187226 0)
(2.891094072 -0.252923911 0)
(2.891134267 -0.2529497328 0)
(2.891244893 -0.2528473157 0)
(2.891800339 -0.2519242359 0)
(2.893937925 -0.24785727 0)
(2.899420272 -0.2369624367 0)
(2.910807215 -0.2131127943 0)
(2.926291591 -0.179592112 0)
(2.944987727 -0.1353524481 0)