/*--------------------------------*- C++ -*----------------------------------*\
  =========                 |
  \\      /  F ield         | OpenFOAM: The Open Source CFD Toolbox
   \\    /   O peration     | Website:  https://openfoam.org
    \\  /    A nd           | Version:  7
     \\/     M anipulation  |
\*---------------------------------------------------------------------------*/
FoamFile
{
    version     2.0;
    format      ascii;
    class       volScalarField;
    location    "3.9";
    object      T;
}
// * * * * * * * * * * * * * * * * * * * * * * * * * * * * * * * * * * * * * //

dimensions      [0 0 0 1 0 0 0];

internalField   nonuniform List<scalar> 
2225
(
0.8474562273
0.8939787083
0.9583145341
1.001847165
1.011260797
1.019351351
1.023244285
1.022937596
1.021393369
1.020238159
1.018721049
1.018616478
1.019743345
0.8618689149
0.8592734736
0.8553855549
0.8534575398
0.8520309418
0.8504638688
0.84758933
0.8452301306
0.8438725988
0.8424504697
0.8400852838
0.8373513522
0.8362437542
0.835167305
0.8339683875
0.8321410182
0.830227116
0.8275087764
0.8268057433
0.8277598379
0.8355550347
0.8703784707
0.9213948151
0.9633521771
1.001925348
1.016187434
1.01376571
1.016871247
1.018249738
1.019318871
1.02025233
1.021450447
0.8670303058
0.8643378602
0.8603199565
0.8583535246
0.8569585289
0.855459374
0.8526796121
0.850387385
0.8488931199
0.8473755203
0.8449561405
0.8420348469
0.840410588
0.8393827373
0.8380535439
0.8368379445
0.8351726642
0.8328040542
0.82955762
0.8289348909
0.8294065853
0.8317686395
0.8453148451
0.8922869359
0.948192015
0.9900340244
1.001235266
1.017688909
1.018488233
1.020273399
1.021645367
1.022152137
0.8727433439
0.8700046765
0.8658467719
0.8637672962
0.8622341769
0.8605637388
0.8576175027
0.8551686349
0.8535208744
0.8519080881
0.8495980661
0.8468322806
0.845151159
0.8437278788
0.8424859006
0.8409787897
0.8395121578
0.8375564109
0.8350158505
0.8327994857
0.831698628
0.8306942393
0.830708018
0.8368300225
0.8607985237
0.9156431663
0.9742290871
1.007926231
1.012815816
1.017420535
1.02058017
1.0194892
0.8779618904
0.8751868753
0.8709966354
0.8687266418
0.8671031665
0.8653858134
0.8623821379
0.8598183644
0.8581131393
0.856413802
0.8541254202
0.8513397227
0.8494538945
0.847883687
0.8463951843
0.8449404014
0.8436180241
0.8419689904
0.8395226268
0.8377827023
0.8359794341
0.8341311236
0.8311693127
0.8310981704
0.8327812587
0.8466650244
0.887660585
0.9370608598
0.974119668
1.001863488
1.011490405
1.012908112
0.8833446624
0.8805757831
0.8763947008
0.8741100405
0.872388988
0.8705443708
0.8674341316
0.8647754962
0.8628010484
0.8609935863
0.8585994578
0.8559317928
0.8538772045
0.8523060683
0.8506056406
0.8490594237
0.8473957696
0.8456906212
0.8432972989
0.841567163
0.8404101098
0.8387924721
0.8360109763
0.8333101402
0.8335140204
0.8337448809
0.837946519
0.8579569644
0.9108791635
0.9622321295
0.9911424465
1.008170712
0.8884000908
0.8856087185
0.8814518296
0.8789773716
0.8771027922
0.8751490447
0.8719237559
0.8691618621
0.8671568796
0.8653155331
0.8629182371
0.8602837397
0.8583110025
0.8565324092
0.8548933871
0.8532313628
0.8517110609
0.8499354811
0.8475215728
0.8455653416
0.8444496771
0.8430257018
0.8409083278
0.8379406402
0.836161043
0.8344849414
0.834012193
0.8350085805
0.8455350537
0.8770584688
0.9317936498
0.9952190936
0.8935095983
0.8906596525
0.886502408
0.8840700145
0.8821718946
0.8801797576
0.8769837708
0.8741381732
0.8719615472
0.8699299519
0.8673693635
0.8646453604
0.8625472429
0.8607676436
0.8589426251
0.857277005
0.8557019196
0.8539485879
0.8515018175
0.8495265534
0.8482176414
0.8470455051
0.8451510386
0.842893943
0.841067432
0.8393862957
0.8365674253
0.8348929612
0.8353179159
0.8388978774
0.8560686341
0.9306765466
0.898538297
0.895617397
0.8914414411
0.8888340925
0.886767614
0.8846206067
0.881306519
0.8784350712
0.8761868097
0.8742229607
0.8716382039
0.8689506356
0.8668191392
0.8649808299
0.8630339163
0.861337939
0.8597260263
0.8579449138
0.8553945498
0.853352127
0.8520561931
0.8507197543
0.8489528687
0.8465562166
0.8450687427
0.8434454488
0.8410382848
0.8371881373
0.8362788007
0.8368833001
0.8376480034
0.864853702
0.9036405029
0.9006434869
0.8964222848
0.8937700177
0.891603578
0.8893692861
0.8860162686
0.8831520676
0.8808805677
0.8787882367
0.8761108911
0.8733733284
0.8711870858
0.8692501757
0.867227394
0.8653908566
0.8638149534
0.8620270911
0.8595607764
0.8574091127
0.856031181
0.854626953
0.8527870227
0.8503628313
0.8488909168
0.8475045235
0.8456267986
0.8429067422
0.8407418752
0.8396130728
0.8380932385
0.8400060348
0.9086581456
0.9056276696
0.9014369407
0.8986503087
0.8963364075
0.893940033
0.8904942819
0.8875727324
0.8851972832
0.8830572841
0.8803141725
0.8775255688
0.8752777923
0.8733110853
0.8710931807
0.8692744342
0.8676654583
0.8658983711
0.8633158039
0.8611802471
0.859821372
0.8584881236
0.8565849287
0.8542225722
0.8525165262
0.8511342962
0.8494918107
0.8470444172
0.8450410267
0.8436291414
0.8409296536
0.8397748957
0.9136881747
0.9106009038
0.9064035961
0.9035906423
0.9011965687
0.8987326781
0.8952243413
0.8923233784
0.8899034211
0.8876991793
0.8848882533
0.8821377456
0.8798626721
0.8778427058
0.87552223
0.8735071595
0.8718196194
0.869984442
0.8673929556
0.8651565281
0.8637864823
0.8623783681
0.8604473074
0.8578058905
0.8561851178
0.8547364804
0.8531487695
0.8505963354
0.8489771887
0.8479205011
0.8462493147
0.8429885833
0.9186076949
0.915459287
0.911229738
0.9083558453
0.9058993644
0.9033690996
0.8998850368
0.8969720926
0.8944489722
0.892099516
0.8891553844
0.8863249727
0.8839658578
0.881874163
0.8794554597
0.8774439421
0.8757979471
0.8740146956
0.8714177746
0.8691591344
0.8677865687
0.8663921075
0.8644361132
0.8617926855
0.8600417935
0.8585214365
0.8567826169
0.854234818
0.8522892481
0.851326326
0.8502379208
0.8470615195
0.9236594197
0.9203902202
0.9160575428
0.9131444114
0.9106550234
0.9080881916
0.9045986486
0.9017345363
0.8991774064
0.8967642934
0.8937537271
0.8909414225
0.8885764382
0.8864506521
0.8838611413
0.8816866936
0.8799445535
0.8781028549
0.8754829
0.8731880823
0.8718118646
0.8704247315
0.8684273389
0.8656870706
0.8639318832
0.8624284629
0.8607179569
0.8582203197
0.8560040428
0.8549202591
0.854029859
0.8513409615
0.9287473458
0.9253853074
0.920930744
0.9179043457
0.9153482408
0.9127019689
0.9092093058
0.9063672363
0.9037435304
0.9012200519
0.8980854384
0.8952552751
0.8928274609
0.8906353736
0.8879595201
0.8857106856
0.8839377037
0.8821208026
0.8794474641
0.87713767
0.8758004744
0.8744068713
0.8724002213
0.8696196975
0.8678241012
0.8662273815
0.8645380861
0.8620353224
0.8595340763
0.8584139742
0.857614023
0.8551210983
0.9339033825
0.9304382748
0.9258779243
0.9227465574
0.9201229826
0.9173877836
0.9138132636
0.9109777222
0.9083281642
0.9057346432
0.9025378001
0.89974734
0.8973492821
0.8951374524
0.8923396285
0.8899849711
0.8881888807
0.8863506937
0.8836960987
0.8812970596
0.8798792903
0.878426488
0.8763562028
0.8735266
0.8717259856
0.8701772809
0.8686319514
0.8659187796
0.8631916525
0.8621067569
0.8612290463
0.8587951093
0.939121777
0.9354967999
0.9308226277
0.9275788842
0.9248916296
0.922072234
0.9184627721
0.9156074926
0.9128914387
0.9101738867
0.906830069
0.9040635096
0.9016614812
0.8994150656
0.8965724715
0.8941479744
0.8922309811
0.8903270401
0.8875212446
0.8850816194
0.8837192993
0.8823051565
0.8802954877
0.8774746401
0.8756428941
0.8740891876
0.8726275101
0.8696793694
0.867011002
0.8658815833
0.8647824381
0.8622870842
0.9443829597
0.9406019897
0.9358299303
0.9325405781
0.9298456171
0.9269883925
0.9233031365
0.9204010203
0.917624177
0.9147948535
0.9112994266
0.9085363765
0.90614647
0.903866215
0.9009305406
0.8984916397
0.896637755
0.8947776168
0.8920123279
0.8894081859
0.887860342
0.8863024768
0.8841517964
0.8812124406
0.8793653084
0.8779970962
0.8764990384
0.8733798323
0.8708940962
0.8695682914
0.8683582202
0.8661326491
0.9495555397
0.9455313156
0.9406188375
0.9373098293
0.9346491802
0.9317936346
0.9281342622
0.9252141384
0.9224056081
0.9194839844
0.9158439726
0.9130507728
0.9106187401
0.9082593533
0.9052431395
0.9027739425
0.9008189839
0.8988694958
0.8960010138
0.8933635845
0.8918032674
0.8903067365
0.8882172703
0.8851970697
0.8833049535
0.8820328614
0.8803604485
0.8772273232
0.8748627321
0.8728795258
0.8718026017
0.8700947558
0.9548205618
0.9506240753
0.9455844404
0.9422670227
0.9396251005
0.9367025157
0.9329740697
0.9300401436
0.9272028506
0.9242159584
0.9204732411
0.9176430586
0.9151693445
0.9127272878
0.9095680516
0.9071064988
0.9052088087
0.9032943307
0.9004091353
0.8976096483
0.895948792
0.8943546617
0.8921763126
0.8890737077
0.8872939108
0.8859394532
0.8842712491
0.8814781655
0.8789338398
0.8763715621
0.8749325595
0.8749453172
0.9600383528
0.9557217342
0.9506466486
0.9473512637
0.9447458427
0.94176489
0.9379480235
0.9349093887
0.9320000634
0.9289020255
0.9250460236
0.9221938998
0.9196769889
0.9171535662
0.9138886172
0.9113903879
0.9094233944
0.9074297474
0.9044540295
0.9016048518
0.8998930127
0.898282986
0.8960862191
0.8928312334
0.8910503792
0.8895747293
0.8880579
0.8858289338
0.8825466507
0.8799701109
0.8784747338
0.8812335924
0.9649502874
0.960580402
0.9555433899
0.9523691826
0.9498365168
0.94679104
0.9428759697
0.9397584259
0.9368022881
0.9336440996
0.9296996355
0.9268147899
0.9242649912
0.921670999
0.9182875403
0.9157718644
0.9137851576
0.9117429665
0.9086291545
0.9056396907
0.9039770334
0.9023727722
0.9002332484
0.8971714765
0.8951816139
0.8935756537
0.8922179833
0.889967963
0.8857625762
0.8835649553
0.8825922287
0.8910746358
0.9702960587
0.9658163511
0.9608017803
0.9576389166
0.9550512697
0.9518323358
0.9477460809
0.9444841138
0.9414485316
0.9381729417
0.9341541774
0.9313016353
0.9287625343
0.9261376304
0.9226857066
0.9201272586
0.9180723102
0.9159553737
0.9127200857
0.9096826641
0.9079558538
0.9063259586
0.9041823192
0.9009476281
0.898694132
0.8973338274
0.8961991936
0.8935626955
0.889278432
0.8879788122
0.8877901921
0.9087193678
0.9753177665
0.9708354519
0.9658846942
0.9627806094
0.9601817894
0.9568354736
0.9526121835
0.9492776247
0.9462324019
0.942876917
0.9387261893
0.9358570345
0.933304227
0.9306110542
0.9270654294
0.9244998589
0.9224146161
0.9202359412
0.9168578808
0.9137228844
0.9120891517
0.910545748
0.9085682308
0.905198803
0.9027961944
0.9016639845
0.9001016988
0.8967851627
0.8935224578
0.8931798284
0.8944457893
0.9389614543
0.9806202202
0.976102841
0.9712172986
0.9680814828
0.9653465252
0.9617635394
0.9573736934
0.9539738626
0.9509229438
0.9474924724
0.9432955977
0.9404248934
0.9378643982
0.9351168221
0.9314368165
0.9288099613
0.926686822
0.9244719929
0.9209993559
0.9178021648
0.9161688252
0.9146849744
0.9126347702
0.909074545
0.9068089917
0.9056398012
0.9032981087
0.9001765914
0.89863186
0.8992911293
0.9070031638
0.9809528436
0.9857438737
0.9812271764
0.9763620329
0.9731686167
0.9703357311
0.9665754159
0.9620377601
0.9586348832
0.9556246109
0.9521205138
0.9478375061
0.944976663
0.9424093923
0.9395951174
0.9357854328
0.9331099604
0.9309675742
0.9287362754
0.92515109
0.9218502867
0.9203453568
0.9189346922
0.9168062429
0.913373759
0.9112456887
0.9092139648
0.9066370249
0.9048334752
0.9048915235
0.9098741914
0.9368157226
1.024333998
0.9907338845
0.9862258645
0.9814821185
0.9783575168
0.9754966213
0.9716199102
0.9670120184
0.9635904348
0.9605639962
0.9569421278
0.9525719634
0.9496532757
0.9470286069
0.9441324859
0.9401429025
0.9373784711
0.9352045786
0.9329320633
0.9291982265
0.9258568688
0.9243808546
0.9228835347
0.9207659692
0.9178081324
0.9149904445
0.9122104329
0.9106282382
0.9101417952
0.9122566649
0.9320212219
0.9886687268
1.058452428
0.9958884093
0.9911297284
0.986255145
0.9830792951
0.9801696941
0.9761998939
0.9715670591
0.968224796
0.9652713251
0.9615980912
0.9571580789
0.9542460333
0.9516370308
0.9487457704
0.9446891072
0.9418360708
0.9396222359
0.9372624997
0.933353263
0.929960758
0.9284325283
0.926793916
0.9249453299
0.9220261175
0.9179975362
0.9156111406
0.9151848728
0.9167420378
0.9280661592
0.9759634893
1.045656903
1.078788242
1.001022369
0.9962138161
0.991314487
0.9881490627
0.9852326588
0.9811935494
0.9765453713
0.9732029133
0.9701951476
0.9663535051
0.9617839632
0.9588006956
0.9561436712
0.9531918339
0.9490470627
0.9461637265
0.9439293867
0.9415080688
0.9375360707
0.9341040937
0.9323276259
0.9307569651
0.9291131949
0.9254214898
0.9211508237
0.9203631344
0.9209826385
0.9286868272
0.9651480587
1.030006648
1.082159949
1.087587542
1.006033919
1.001021735
0.9960720881
0.992915118
0.9900054992
0.985926473
0.9812897458
0.9779510134
0.9749398014
0.971006438
0.9663079021
0.9632782202
0.960619789
0.9576416561
0.9534165854
0.9505094714
0.9482244422
0.9457580122
0.941722033
0.9380830235
0.9361437617
0.9348745119
0.9327900897
0.928560525
0.9258796631
0.9258183244
0.9296238272
0.9569168998
1.020217511
1.077746714
1.094832571
1.091493817
1.011083541
1.006013675
1.00099196
0.9978039956
0.9948583189
0.9906718166
0.9860070757
0.9827042905
0.9796899891
0.9756764349
0.9709157193
0.9678583571
0.9651843525
0.9621350993
0.9578286546
0.9548903002
0.9525489046
0.9500785564
0.9460013083
0.9420178345
0.9401965357
0.938836297
0.9360174517
0.9326515024
0.931362848
0.9335562903
0.951177519
1.008931184
1.073425554
1.100050874
1.09966616
1.093966234
1.015925634
1.010739341
1.005798779
1.002674818
0.9997567282
0.9955209806
0.9907911125
0.9873577847
0.9842384079
0.9800676563
0.9751712951
0.972106972
0.9694752994
0.966377138
0.961975444
0.9590207546
0.9567280005
0.9542739025
0.9502107994
0.9461107191
0.9444442293
0.9423602902
0.9396903171
0.9378462407
0.9386001569
0.9495875259
0.9984337082
1.063328405
1.10404021
1.10672763
1.104249731
1.095970676
1.020961352
1.015614798
1.010568245
1.007398356
1.00440719
1.00004752
0.9953214585
0.9919330281
0.9888453927
0.9846646653
0.9797510297
0.9767139437
0.9740997457
0.9709024144
0.9663260497
0.9633106843
0.9609982984
0.9584426289
0.9544342482
0.9506199077
0.9480508109
0.9458342951
0.9442981963
0.9448636252
0.951800554
0.9880302925
1.056429045
1.104782607
1.113942651
1.111242783
1.106119989
1.096212982
1.025909434
1.020524429
1.015546145
1.012352719
1.009303692
1.004766062
0.9998979791
0.9963863534
0.9931974925
0.9888695461
0.9838944706
0.9809258013
0.9784117746
0.9751942339
0.970482686
0.967472377
0.9651136134
0.9626087515
0.9590099102
0.9548849352
0.9513921859
0.9500881138
0.9499306144
0.9542088434
0.9814343273
1.045387041
1.104240903
1.120041183
1.118000916
1.113136091
1.10733118
1.097326743
1.030848308
1.025267637
1.020209829
1.017021937
1.013943713
1.009334896
1.004509543
1.001030966
0.9978603241
0.9934821591
0.9884145813
0.9854856237
0.982990583
0.9796830045
0.9748488434
0.9717847889
0.9692554845
0.9669617752
0.9635560771
0.9583208541
0.9554322104
0.9554032209
0.9584728307
0.9773981911
1.036070088
1.100171445
1.125492431
1.124789901
1.121199591
1.114912707
1.108600069
1.098566223
1.035894327
1.030234203
1.025098761
1.021827117
1.018644853
1.013747553
1.008838516
1.005432397
1.002329192
0.9979927069
0.9930170498
0.9901491604
0.9876709668
0.9843522766
0.9794551325
0.9760376609
0.9734490821
0.9713276109
0.9671005749
0.9618077871
0.9604219443
0.9618443899
0.9751000293
1.026359563
1.091215154
1.130556069
1.132123946
1.129147308
1.123601406
1.116728698
1.110337576
1.100341686
1.040780698
1.034966042
1.029760402
1.026533908
1.023358575
1.01834411
1.013366985
1.009952249
1.006838733
1.002379898
0.9973634249
0.9946253923
0.9922156233
0.9890326034
0.9841968992
0.9805083023
0.9782843539
0.9754158033
0.9706564678
0.9675420898
0.9676357051
0.9760077084
1.016198047
1.085860076
1.132244866
1.14003341
1.13704454
1.131133103
1.124196993
1.117322382
1.111482209
1.101744573
1.045771263
1.039846253
1.034502602
1.031251051
1.028027714
1.022804124
1.017790549
1.014467894
1.011418842
1.006938167
1.001930203
0.9991373249
0.9967214533
0.9934905524
0.9885086957
0.984897673
0.9823029633
0.9787517835
0.9751819093
0.9740124966
0.9784846958
1.009225023
1.077165947
1.133464999
1.14617898
1.143544726
1.138252526
1.131799399
1.124999856
1.118221062
1.112692335
1.103352057
1.050598465
1.04455893
1.039201093
1.036036142
1.032847605
1.027515134
1.022332064
1.018907509
1.015785361
1.011156167
1.006097752
1.003363132
1.001012491
0.9977521652
0.9929695634
0.9893175749
0.9855056953
0.9827648086
0.9811813929
0.9840088162
1.005411155
1.068321398
1.133140592
1.152233575
1.150369546
1.145934149
1.139648581
1.133018682
1.126498093
1.119794682
1.113885607
1.104505414
1.055482978
1.049259654
1.043771143
1.040595867
1.037367974
1.031958629
1.026760841
1.023348086
1.020254805
1.015520614
1.010303115
1.007513152
1.005010975
1.001709045
0.9973162916
0.9922141378
0.9889286635
0.9876693361
0.9894323407
1.005243384
1.060494647
1.12552935
1.159644707
1.15937106
1.155390672
1.149300685
1.14304377
1.136217719
1.129215618
1.122308261
1.116234784
1.106226885
1.060384858
1.054147741
1.04871187
1.045473127
1.042124092
1.036474241
1.031029846
1.027557029
1.024490488
1.019736965
1.014601524
1.01172926
1.009097329
1.006187359
1.000974134
0.9950373168
0.9932718029
0.9944186394
1.005938371
1.053420595
1.121536455
1.162700058
1.167014324
1.163713925
1.157252025
1.149724277
1.142965149
1.136636362
1.130141405
1.123156828
1.117114943
1.107845326
1.06517071
1.058783423
1.053351137
1.050047332
1.046574085
1.040789324
1.0351964
1.0317033
1.028645753
1.023876758
1.01879352
1.015677469
1.013319122
1.010181311
1.004032041
0.9996748899
0.9996167754
1.007266377
1.0470673
1.115399817
1.165983578
1.175349226
1.171860227
1.165343907
1.158054011
1.150573123
1.143740436
1.137527233
1.131404172
1.124418719
1.11852898
1.109314624
1.070055926
1.063651188
1.058257529
1.054810294
1.051144551
1.04512539
1.039358968
1.03592344
1.032937836
1.028381936
1.023214249
1.020088668
1.017872904
1.013657127
1.008080069
1.006349118
1.010518033
1.042890431
1.110347999
1.165358666
1.18153238
1.179379095
1.174367733
1.167412621
1.15970171
1.152008933
1.145050692
1.138467581
1.131930947
1.125224509
1.119708445
1.110421307
1.068372404
1.062997652
1.059408407
1.055567862
1.049449563
1.043586588
1.040173889
1.037350128
1.032911811
1.027547823
1.024775603
1.021562235
1.017481023
1.014546262
1.017200517
1.038825784
1.104006489
1.168724047
1.188292129
1.186696277
1.181786361
1.175335831
1.168320781
1.160906484
1.153681614
1.146997818
1.140353591
1.133643861
1.127051366
1.121381784
1.111503287
1.073185818
1.067699767
1.063910924
1.059916827
1.053692904
1.047715277
1.044556818
1.041853914
1.037601407
1.032720794
1.028652438
1.025408014
1.023000676
1.024201508
1.041888539
1.098034804
1.162003278
1.194230197
1.197262238
1.194105105
1.187656729
1.179747574
1.171996478
1.164516963
1.157768096
1.150904439
1.143375463
1.136065709
1.129112897
1.122887363
1.112512031
1.078100625
1.07247428
1.06847125
1.06442968
1.058152643
1.052124819
1.049070922
1.046284224
1.042451039
1.037091069
1.032014419
1.030075596
1.031579813
1.042690947
1.094526312
1.165703389
1.197230354
1.200620629
1.199182885
1.193436038
1.185866762
1.178000898
1.170439721
1.163237784
1.156626259
1.150354085
1.144040386
1.137453812
1.13080048
1.124445318
1.114074878
1.082928902
1.07702006
1.072811948
1.068768476
1.062372353
1.056596414
1.053313718
1.050709023
1.046851656
1.040188099
1.036308764
1.036626771
1.047482768
1.087962714
1.156875571
1.208189589
1.213799753
1.209651143
1.201196737
1.193202562
1.185651521
1.17809691
1.170718365
1.163759444
1.157250496
1.151059654
1.145233293
1.13882503
1.132686788
1.127917545
1.118391371
1.087766782
1.08167318
1.077418389
1.073377601
1.067024577
1.061241939
1.057750972
1.055214928
1.050350201
1.044363284
1.043495469
1.048768282
1.087903414
1.160251352
1.201592742
1.216525546
1.21644686
1.21207021
1.2038935
1.194659799
1.186368992
1.179015585
1.172140806
1.165722905
1.15955277
1.153646417
1.148102137
1.141047515
1.133418157
1.127003851
1.116988606
1.092253181
1.086025648
1.08180104
1.07789432
1.071605445
1.065490328
1.062274829
1.058693968
1.053828787
1.050722469
1.055590155
1.082404127
1.150926508
1.218675131
1.228618111
1.225359957
1.218745051
1.212307954
1.205224994
1.19676848
1.1882877
1.180688759
1.17365753
1.167072483
1.160670815
1.154275223
1.148053014
1.141890703
1.134951134
1.128364906
1.117984977
1.096587034
1.09024802
1.086206537
1.082556787
1.076286483
1.07045253
1.06595276
1.06242201
1.059430397
1.061096787
1.086451845
1.151416594
1.205470704
1.23636085
1.236006621
1.232752702
1.225591734
1.217000536
1.209082393
1.201332854
1.193446453
1.185711145
1.178239847
1.171095564
1.164192193
1.156899059
1.149566775
1.144064606
1.137975324
1.13196018
1.121731724
1.100689106
1.094287749
1.090594287
1.086910451
1.081099214
1.074856105
1.069461425
1.06707297
1.069371096
1.086348645
1.146823532
1.221511911
1.240971415
1.240712098
1.238015778
1.23151596
1.223469944
1.214923805
1.206838429
1.199238021
1.191755508
1.184303389
1.176949677
1.169844946
1.162919183
1.155980594
1.149083242
1.142676657
1.13629748
1.130424761
1.120404036
1.104729641
1.098559226
1.094850724
1.091387888
1.085701452
1.078412694
1.073952796
1.074713669
1.091786888
1.145938398
1.209774678
1.253488555
1.256689427
1.249588372
1.239986953
1.231911411
1.224079839
1.215871004
1.207718009
1.2000292
1.192618154
1.18524463
1.177913443
1.170777562
1.163773979
1.156853897
1.149872007
1.143115871
1.136454628
1.130606278
1.120668296
1.109468157
1.103282753
1.099278734
1.095734859
1.089311264
1.082523584
1.08261145
1.09324069
1.144857341
1.225343985
1.247510691
1.258631125
1.258013057
1.254224636
1.245973424
1.236207641
1.227455711
1.2194591
1.211621862
1.203885354
1.196406751
1.189118685
1.181969908
1.174962171
1.167999229
1.161046549
1.153959828
1.146867046
1.139760578
1.133778538
1.123902858
1.114595937
1.108275914
1.104285367
1.099327831
1.093252227
1.090231039
1.100235407
1.1422262
1.213383599
1.269858518
1.272651018
1.266979424
1.259312534
1.252089638
1.243421941
1.234249525
1.225666645
1.217683993
1.21004622
1.202424689
1.195009824
1.187777416
1.180704458
1.17377065
1.166868658
1.159935315
1.152869287
1.145759539
1.138516049
1.132344668
1.122325891
1.119521668
1.11367358
1.108138791
1.103203359
1.100642027
1.105350412
1.146574841
1.223245211
1.259211183
1.277617665
1.277283857
1.272062427
1.261921253
1.251887822
1.2428845
1.234289138
1.2259921
1.217891122
1.210128423
1.202443928
1.195000043
1.18776487
1.180739779
1.173886133
1.167065753
1.160148846
1.153071016
1.145880136
1.138496156
1.132176341
1.122060269
1.124605405
1.117685596
1.111914345
1.109263226
1.114545019
1.145559184
1.216511347
1.285324708
1.291226115
1.286562699
1.279039939
1.27225099
1.263501506
1.253492203
1.243981245
1.235473427
1.227455284
1.219352536
1.211148277
1.203332761
1.195962394
1.188791014
1.181799228
1.174984344
1.16821592
1.161318761
1.154233621
1.146999367
1.139565651
1.133176366
1.122970748
1.12864165
1.120761627
1.117545302
1.120624558
1.152084778
1.226532975
1.270948472
1.300207545
1.299010198
1.292767827
1.282451603
1.272617322
1.264174784
1.25508193
1.247277034
1.23971808
1.231887642
1.223751963
1.215001483
1.206996097
1.199793416
1.192782278
1.185806085
1.17893036
1.172112202
1.16518677
1.158087452
1.150870924
1.143456384
1.137030078
1.126671494
1.131513436
1.12522472
1.127318151
1.152508862
1.220907491
1.299670663
1.303748637
1.303340666
1.299934886
1.293085784
1.283493782
1.273093369
1.263887538
1.255162264
1.246565567
1.23826992
1.230234381
1.221914255
1.213277397
1.205343063
1.198159749
1.191204744
1.18427891
1.177385531
1.170497232
1.163480166
1.156326381
1.149093111
1.141689734
1.135294338
1.124932332
1.135653111
1.135658815
1.157471463
1.228112575
1.286071317
1.323052446
1.321821772
1.311619403
1.300561059
1.292529609
1.284328224
1.274925724
1.265417664
1.256538339
1.247626985
1.238965096
1.230624476
1.222130615
1.213727454
1.205795028
1.198487914
1.191504749
1.184623623
1.177752267
1.170814412
1.163682545
1.156386231
1.149069178
1.141644066
1.135260615
1.124879081
1.145916596
1.163114508
1.225423583
1.309424745
1.319520233
1.323898145
1.322846777
1.31728726
1.306872267
1.295499967
1.286818938
1.278537029
1.26974364
1.260939674
1.252177955
1.243364215
1.23453284
1.225768862
1.217593172
1.209842198
1.202454233
1.195350766
1.188387818
1.18141488
1.17431192
1.166990869
1.159508572
1.152095516
1.144656976
1.138303964
1.127908934
1.171478236
1.232084087
1.30107929
1.343885405
1.342545773
1.331675605
1.322432571
1.314309539
1.304156139
1.293669685
1.284343279
1.27566631
1.267219586
1.258725936
1.250305925
1.241484438
1.232596059
1.223925591
1.215906774
1.208280356
1.200854851
1.193551165
1.18633048
1.179138668
1.171904403
1.164547362
1.157091195
1.149735333
1.142339695
1.136013743
1.125651727
1.236160871
1.317834097
1.338526216
1.347441383
1.345591416
1.338450839
1.325727008
1.313537075
1.303516783
1.293855564
1.284200596
1.275103234
1.266836502
1.258566023
1.250241134
1.241518276
1.232614608
1.223957145
1.215918563
1.208291778
1.200824337
1.193429887
1.186094942
1.178794166
1.171475374
1.164078066
1.156618533
1.149285643
1.141921895
1.135619808
1.125278757
1.316933769
1.364155036
1.363654523
1.354637894
1.34511026
1.336058143
1.324327981
1.313290542
1.303737234
1.294508046
1.285091683
1.275888736
1.267501813
1.259225985
1.250451925
1.243334456
1.235604171
1.227509783
1.219624671
1.21193777
1.204296015
1.196704635
1.18921305
1.181809914
1.17441529
1.166963545
1.159465608
1.152107353
1.144750955
1.138451776
1.128070663
1.3567309
1.369992342
1.368028773
1.360797986
1.348330861
1.335327071
1.323879875
1.313345352
1.303825517
1.294761192
1.285687633
1.27659442
1.267961428
1.25948502
1.250599517
1.241790659
1.233307564
1.225111865
1.217181716
1.209394515
1.201646781
1.193978999
1.186420265
1.178951088
1.171507168
1.164064865
1.156637072
1.149387742
1.142149317
1.135905057
1.125527026
1.384627704
1.376504177
1.36726515
1.357761693
1.345981124
1.334431356
1.324010164
1.314061229
1.304488758
1.295140008
1.286123812
1.277139463
1.268066321
1.259332479
1.250552364
1.241405419
1.232710955
1.224483904
1.216562307
1.208766835
1.201008024
1.193338805
1.18577558
1.178289207
1.170821013
1.16337374
1.155972263
1.148773469
1.141601368
1.135397698
1.125042893
1.390289069
1.381202702
1.367968877
1.355912356
1.344686412
1.334005098
1.324004044
1.314422257
1.304941928
1.295478241
1.286635348
1.278284271
1.26863596
1.259031155
1.251717654
1.243995421
1.235655243
1.22743043
1.219418353
1.211537368
1.203753473
1.196096395
1.188529451
1.1809976
1.173466808
1.165986276
1.158604907
1.151453071
1.144325898
1.138120713
1.127667714
1.388756487
1.379281502
1.367337039
1.355549009
1.344604648
1.334068747
1.323987788
1.314365984
1.304749929
1.29525426
1.286203473
1.277092744
1.267694156
1.258611885
1.249791022
1.240966064
1.232378413
1.224073143
1.216009348
1.208121293
1.200354071
1.192709507
1.18511734
1.177543533
1.169990926
1.162553791
1.155265235
1.148228845
1.141223108
1.135088089
1.124648355
1.392020939
1.380442019
1.369515339
1.358529379
1.347643358
1.337010886
1.326819958
1.31715381
1.307520262
1.297937167
1.287465637
1.276908509
1.26720108
1.258164391
1.248906962
1.239923227
1.231369849
1.223119437
1.215066903
1.207180328
1.19943642
1.191834411
1.184275856
1.176721436
1.169183795
1.161782372
1.154549203
1.147580989
1.140649346
1.134557758
1.124131904
1.385817382
1.374210024
1.36381009
1.35366944
1.343606382
1.333748959
1.32421203
1.314890407
1.305476209
1.296193924
1.287067639
1.277553525
1.268120176
1.258860641
1.249545742
1.240483725
1.231835719
1.223533397
1.21546474
1.207571548
1.199810742
1.192171404
1.18456066
1.176955326
1.169391522
1.162005979
1.154822021
1.147911138
1.141019111
1.134929917
1.124459468
1.383806644
1.372736603
1.36225493
1.35245002
1.343097155
1.334181845
1.325301203
1.31612249
1.306896948
1.297744017
1.288885562
1.280263867
1.271467488
1.262214658
1.252804227
1.243629902
1.234834606
1.226384324
1.218238862
1.210346879
1.202613568
1.194965109
1.187308246
1.179650138
1.172073414
1.164726044
1.157617929
1.150777052
1.143906021
1.137783605
1.127219816
1.382301129
1.371981503
1.361549452
1.351295637
1.341208012
1.331214805
1.321491055
1.312096513
1.302964975
1.293961065
1.285054031
1.276568893
1.26808815
1.258930783
1.24933442
1.239931264
1.231016559
1.222569638
1.214520217
1.206734142
1.199046129
1.191404655
1.183742342
1.176102568
1.168551438
1.161253642
1.15419085
1.147408284
1.140631822
1.134581687
1.124064189
)
;

boundaryField
{
    inlet
    {
        type            fixedValue;
        value           nonuniform 0();
    }
    outlet
    {
        type            inletOutlet;
        inletValue      uniform 1;
        value           nonuniform List<scalar> 
71
(
1.019725211
1.021436518
1.0221586
1.019544126
1.012934999
1.008121279
0.9952356719
0.9306668335
0.8648405371
0.8399974802
0.8397650498
0.8429780623
0.8470529366
0.8513303006
0.8551126316
0.858792058
0.8622847984
0.8661338377
0.8700983573
0.874946331
0.8812384905
0.891079573
0.9087232147
0.938967522
0.9809588853
1.024338557
1.058455089
1.078787647
1.087586106
1.09149106
1.093961571
1.095968042
1.096210071
1.097326504
1.098569631
1.100340027
1.101740795
1.103344268
1.10451484
1.106216792
1.107854322
1.10932829
1.110424918
1.111494177
1.112502087
1.114066145
1.118388741
1.116986994
1.117982318
1.121730874
1.120404479
1.120669574
1.123905209
1.122329058
1.122064055
1.122975244
1.126676239
1.124936877
1.124883591
1.12791307
1.125654918
1.125281731
1.128072986
1.125527269
1.12504276
1.127666035
1.124644913
1.12412801
1.124454813
1.127213499
1.124057536
)
;
    }
    bottom
    {
        type            slip;
    }
    top
    {
        type            slip;
    }
    obstacle
    {
        type            zeroGradient;
    }
    defaultFaces
    {
        type            empty;
    }
    procBoundary35to29
    {
        type            processor;
        value           nonuniform List<scalar> 
33
(
0.9299016061
0.982283174
0.9965362194
1.012811579
1.01739967
1.021872055
1.023638272
1.023807102
1.02324351
1.021728647
1.019759171
1.019078083
1.019663656
0.8561176517
0.853577033
0.8497758008
0.8479738533
0.8466611581
0.8452031034
0.8423907502
0.8403581279
0.8391436249
0.837826497
0.8355887116
0.8328689813
0.8318291859
0.8306846081