/*--------------------------------*- C++ -*----------------------------------*\
  =========                 |
  \\      /  F ield         | OpenFOAM: The Open Source CFD Toolbox
   \\    /   O peration     | Website:  https://openfoam.org
    \\  /    A nd           | Version:  7
     \\/     M anipulation  |
\*---------------------------------------------------------------------------*/
FoamFile
{
    version     2.0;
    format      ascii;
    class       volScalarField;
    location    "0.9";
    object      rho;
}
// * * * * * * * * * * * * * * * * * * * * * * * * * * * * * * * * * * * * * //

dimensions      [1 -3 0 0 0 0 0];

internalField   nonuniform List<scalar> 
2222
(
1.35739413
1.357995161
1.358305258
1.358219125
1.358066645
1.357934423
1.3575082
1.357008976
1.357057722
1.357908955
1.371471328
1.500475591
1.832977209
2.137485784
2.169424701
2.190072051
2.199140975
2.17800753
1.30795624
1.345800443
1.340759265
1.345823337
1.355286214
1.359608637
1.360609073
1.35970481
1.358696725
1.358303538
1.357712536
1.356690667
1.356410796
1.356603741
1.357279392
1.358034313
1.358337353
1.358208418
1.357867249
1.357481214
1.357042946
1.356653435
1.356755029
1.356977169
1.35869413
1.392635538
1.570511169
1.933545135
2.151407912
2.216259784
2.213315948
2.193021056
1.351759195
1.356805966
1.356125919
1.352882206
1.355042114
1.358489148
1.360187408
1.360270472
1.3597529
1.358899524
1.35791986
1.356827754
1.356683595
1.356773731
1.357299674
1.35795983
1.358123951
1.357930395
1.357458084
1.356940387
1.356535358
1.356156845
1.35625986
1.356561417
1.356925412
1.362802977
1.41659052
1.674919037
2.044408227
2.194348107
2.194152635
2.189067607
1.358276906
1.358936048
1.358551054
1.357495079
1.3565165
1.357227611
1.358641437
1.359465766
1.359189006
1.358743722
1.357724109
1.356793026
1.356664838
1.356869453
1.357393481
1.357976498
1.358083617
1.357924442
1.357473183
1.356891047
1.356428951
1.356055563
1.356075609
1.356386532
1.356654602
1.357625964
1.367712496
1.472682344
1.801024012
2.088296041
2.167839447
2.196420804
1.354953529
1.354818265
1.356168356
1.357339567
1.356965832
1.357200166
1.357955158
1.35858749
1.358644716
1.358463637
1.357658196
1.35674296
1.35660046
1.356725724
1.357288705
1.357977994
1.358148361
1.358081436
1.357726141
1.357124663
1.356596168
1.356152019
1.356078358
1.356358789
1.356579803
1.356860421
1.35830053
1.384753972
1.541440218
1.884858493
2.143262742
2.19677157
1.356536323
1.35477142
1.354821477
1.356294254
1.357102499
1.35744277
1.358044989
1.358386444
1.358506577
1.358423756
1.357626559
1.356687004
1.35653823
1.356610604
1.357080163
1.357896851
1.358068855
1.358039012
1.357818537
1.357311519
1.356741169
1.356242883
1.356132758
1.356407177
1.356637789
1.356718911
1.356896488
1.361125296
1.404078992
1.637799994
1.988351512
2.159973365
1.35847211
1.356484396
1.355627361
1.356348042
1.357338221
1.357996691
1.358243139
1.358609165
1.35875675
1.358551984
1.357625038
1.356764641
1.356604581
1.35661086
1.356929288
1.357626078
1.357828468
1.35783705
1.357684901
1.35721966
1.356668512
1.356232654
1.356131347
1.356343148
1.356621418
1.356594811
1.356527947
1.356858459
1.364192221
1.447482209
1.725380278
2.07675509
1.358551666
1.3582895
1.358114563
1.35806855
1.358121167
1.358221377
1.358415992
1.35893257
1.359071671
1.358871424
1.358116155
1.357147589
1.356778267
1.356742626
1.35690246
1.357260234
1.35737417
1.357372995
1.35727173
1.356937897
1.35647437
1.356066996
1.355947119
1.356068063
1.356293237
1.356344932
1.356283601
1.356097532
1.35677224
1.374408819
1.493671705
1.895887345
1.357778033
1.357777686
1.357898264
1.357835138
1.357779614
1.357918763
1.35819825
1.358915141
1.359345862
1.359277427
1.35876909
1.357911471
1.357210135
1.356943992
1.356982629
1.357110301
1.35713898
1.357111326
1.357006119
1.356715985
1.356240217
1.355793377
1.3556796
1.355752005
1.355899697
1.356039328
1.356165347
1.355953672
1.355802353
1.35828406
1.385287045
1.683888478
1.356749533
1.356381701
1.356476173
1.356664542
1.356809334
1.357053222
1.357544198
1.358458806
1.359404079
1.359457104
1.359263631
1.358598381
1.357745803
1.357232114
1.357151683
1.357172386
1.357163417
1.357106832
1.356919816
1.356512022
1.355917818
1.355482442
1.355429925
1.355493326
1.35564733
1.355891041
1.356158774
1.355959764
1.355544558
1.355748924
1.359527398
1.520118328
1.356411673
1.355636012
1.35538545
1.355557072
1.355932573
1.356293101
1.356873064
1.357814989
1.358950287
1.359338017
1.359236338
1.358870937
1.358172121
1.357482567
1.357215494
1.35717873
1.357158909
1.357054979
1.356757619
1.356203521
1.355557155
1.355265292
1.355244967
1.355302166
1.355499538
1.355835194
1.356144848
1.355952371
1.355412653
1.355220647
1.355601959
1.425216447
1.356522455
1.355496546
1.355295898
1.355476207
1.355881684
1.356272773
1.356813534
1.357478389
1.358223846
1.358610289
1.358566953
1.35830183
1.357812075
1.357233382
1.356878649
1.356820887
1.356812
1.356686544
1.356322926
1.355736812
1.355264123
1.355152537
1.355134131
1.355183463
1.355394153
1.355740466
1.355994184
1.355782801
1.35528078
1.35486758
1.354859557
1.380822419
1.355925588
1.355358346
1.355399576
1.355650589
1.356040073
1.356507087
1.35690151
1.357221032
1.357618634
1.357766836
1.357713229
1.357498225
1.357087056
1.356581314
1.356190859
1.356067067
1.356033656
1.355932817
1.355661857
1.355250123
1.355052984
1.355034437
1.355035289
1.355097768
1.355322612
1.355647998
1.355711173
1.355467031
1.354969817
1.354519663
1.354413056
1.363256921
1.355015832
1.3549996
1.355200773
1.35559927
1.356054704
1.356634425
1.357065519
1.357237717
1.357295155
1.357263362
1.357054652
1.356735415
1.356321309
1.355858875
1.355470358
1.355281422
1.355193431
1.355143182
1.355053748
1.354891151
1.35484547
1.354859566
1.354892142
1.354953517
1.355144022
1.355308778
1.355231469
1.354922348
1.354399758
1.354036392
1.353977311
1.356792271
1.354163958
1.354274121
1.354458418
1.354933075
1.355664149
1.35651179
1.357062037
1.357118395
1.357084072
1.356911848
1.356510468
1.35598273
1.355496608
1.3550557
1.354752419
1.354605577
1.354548158
1.354562548
1.354578575
1.35455473
1.354551324
1.354583319
1.354605621
1.354637523
1.354729807
1.354724594
1.354587528
1.354267347
1.353726335
1.353482115
1.353468323
1.354487366
1.353665849
1.353491393
1.353567271
1.353917975
1.354709857
1.355884984
1.356575174
1.35664192
1.356636831
1.356489195
1.356066291
1.355494842
1.354978992
1.354467868
1.354202093
1.354103221
1.354071094
1.354097837
1.354130536
1.354137546
1.354124512
1.354134662
1.35414695
1.354114457
1.354062383
1.353998131
1.353820524
1.3535575
1.353057676
1.35287345
1.352860577
1.353309902
1.353105999
1.352835899
1.352843664
1.353021701
1.353609062
1.354747993
1.355638823
1.355789629
1.355799091
1.355728289
1.355417136
1.354930543
1.354431797
1.353932995
1.353680228
1.353587039
1.353567964
1.353600675
1.353626559
1.353625436
1.353594462
1.353542624
1.353522752
1.353459897
1.353326765
1.353231504
1.35305484
1.352836866
1.352425416
1.352214073
1.35216752
1.352317748
1.352372556
1.352103754
1.352033549
1.352068974
1.352445605
1.353254396
1.354005321
1.354234136
1.354255128
1.354235537
1.354076822
1.353775194
1.353453707
1.353177077
1.353023276
1.352922535
1.352922739
1.353005566
1.353015403
1.352989434
1.352943962
1.352850587
1.352774746
1.352728081
1.352605846
1.352474648
1.352319924
1.352108969
1.351793784
1.351523831
1.351392706
1.351347101
1.351287806
1.350905737
1.350762067
1.35076516
1.351005327
1.351550226
1.352160567
1.352495862
1.35254538
1.352537704
1.352458592
1.352353727
1.352257981
1.352197373
1.352163806
1.352108134
1.3521066
1.352244976
1.352285145
1.352258861
1.352183023
1.352070936
1.351984606
1.351944039
1.351896835
1.351763028
1.351621101
1.351431636
1.351152226
1.350854341
1.350584938
1.350322761
1.35015561
1.349623408
1.349328932
1.349324749
1.349503594
1.349958267
1.350485209
1.350900974
1.351038754
1.350982723
1.350864202
1.350862018
1.350873678
1.350907697
1.350987149
1.351095486
1.351128308
1.351305538
1.351411699
1.351400979
1.351310344
1.351191968
1.351124341
1.351095415
1.351130218
1.351066008
1.350947125
1.35078972
1.350534722
1.350205701
1.349811607
1.349373101
1.349192198
1.348640113
1.348225764
1.348215496
1.348378584
1.348863732
1.349395359
1.349715135
1.349854562
1.349800877
1.349583976
1.349541504
1.349576035
1.349639788
1.349766125
1.349983479
1.350069143
1.350204127
1.3503691
1.350376033
1.35029019
1.350184067
1.3501436
1.350162788
1.350282876
1.350296654
1.350237299
1.350126391
1.349912947
1.349551087
1.349089073
1.348524723
1.348416656
1.34799826
1.347573362
1.347554865
1.347671882
1.348061651
1.348572316
1.348850269
1.348929931
1.34890318
1.348682776
1.348605497
1.348625097
1.348664243
1.348747472
1.348916019
1.348980417
1.348996594
1.349170887
1.349231667
1.349169572
1.34907309
1.349043842
1.349143007
1.349393812
1.349497472
1.349487237
1.349432175
1.349271856
1.348897203
1.348405425
1.347789153
1.347628636
1.347326644
1.346921067
1.346884267
1.346934825
1.347179341
1.347606374
1.347934504
1.348096929
1.348129486
1.348026357
1.347964025
1.347966518
1.347956598
1.347934283
1.347939405
1.347900789
1.347857253
1.34795711
1.348086276
1.348079913
1.348011418
1.347998589
1.348168017
1.348505058
1.348688124
1.348707493
1.3486887
1.348576847
1.348230359
1.347777783
1.347243077
1.346746743
1.34657216
1.346271703
1.346077123
1.346034588
1.346139114
1.346428113
1.346807856
1.3471603
1.347366377
1.347395343
1.347369732
1.347349112
1.347288746
1.3471888
1.347082925
1.346980248
1.346919888
1.347000012
1.34714945
1.347239921
1.347218388
1.347245926
1.347428214
1.34774873
1.347960037
1.34798408
1.347969464
1.347874542
1.347607434
1.34726192
1.346812596
1.345947026
1.345843385
1.34569449
1.345534345
1.345322454
1.345273921
1.345388615
1.345709095
1.346151602
1.346523978
1.346654044
1.346682351
1.346669566
1.346594196
1.346466513
1.346350709
1.346278495
1.346217733
1.346312965
1.346503452
1.346688612
1.346759539
1.34681695
1.346963852
1.347199965
1.347383502
1.347401134
1.3473663
1.34726648
1.347089814
1.346855419
1.346546234
1.345220237
1.345218937
1.345146193
1.345065535
1.344851719
1.344783345
1.344835865
1.345003498
1.345279304
1.345611503
1.345776291
1.345868207
1.345891234
1.345826447
1.345718896
1.34566781
1.345683912
1.345659889
1.345763865
1.346021238
1.346299384
1.346496512
1.346595996
1.346714091
1.346875952
1.347036607
1.347055641
1.346994542
1.346883563
1.346751907
1.346591221
1.346313556
1.34445256
1.344574961
1.344568313
1.344688694
1.344658257
1.344583483
1.344501864
1.344515731
1.344627506
1.344888247
1.345075981
1.345177331
1.345239735
1.345212812
1.345127845
1.345097097
1.345149815
1.345165229
1.345249907
1.345544538
1.34589639
1.346205371
1.346368459
1.34646696
1.346581919
1.346750011
1.346811111
1.346745051
1.34664007
1.346548353
1.346427031
1.346165064
1.343737675
1.343927462
1.344122264
1.344321208
1.344350877
1.344312976
1.344326685
1.34428951
1.344337536
1.34457952
1.344751184
1.344794646
1.344849817
1.344901882
1.344829706
1.34475155
1.344754033
1.344745465
1.344771448
1.345014573
1.345393191
1.345753235
1.345954262
1.34602592
1.346097334
1.346266884
1.346402534
1.34638295
1.346313993
1.346263732
1.346204396
1.346028526
1.343336944
1.343581056
1.343999469
1.344362588
1.344428356
1.34440377
1.344367045
1.34424833
1.344169317
1.344362023
1.344521526
1.344562411
1.344625203
1.344746632
1.344710584
1.344621787
1.344546075
1.344452992
1.344427269
1.344584982
1.344924739
1.345271006
1.345485057
1.345572017
1.345635746
1.345798232
1.345952206
1.345997518
1.345990064
1.34600629
1.345998469
1.345899113
1.343097418
1.343379316
1.343938959
1.344332488
1.344364702
1.344332552
1.344216184
1.343983659
1.343829648
1.343970425
1.344196933
1.344345494
1.344473289
1.344609956
1.344623454
1.34456749
1.344472943
1.344318531
1.34426282
1.344338281
1.344601607
1.344955201
1.34524419
1.345406257
1.345514727
1.345651698
1.345749062
1.345787676
1.345821615
1.345843508
1.345867527
1.345792573
1.342825818
1.343027215
1.343537184
1.343972174
1.344071924
1.344061946
1.343935617
1.343652862
1.343503308
1.343617751
1.343891717
1.34415694
1.344295869
1.344377375
1.344418821
1.34434691
1.344103066
1.343870471
1.343801685
1.343849262
1.344128167
1.344543664
1.34494749
1.345226073
1.34542211
1.345558552
1.345635322
1.345679881
1.345715444
1.345773983
1.345800102
1.345627838
1.343089552
1.343360973
1.343787985
1.344021434
1.344004093
1.343932022
1.343731134
1.343153452
1.342741296
1.342619255
1.342807304
1.34332808
1.343994243
1.344297158
1.344421912
1.344433449
1.344319705
1.344366908
1.344294917
1.344136877
1.344212792
1.344510272
1.3447408
1.344868268
1.345003483
1.345110651
1.345285058
1.345756104
1.346394921
1.346834019
1.346956901
1.346822735
1.343279452
1.343595558
1.34402814
1.344275663
1.344241448
1.344164912
1.343998051
1.343430451
1.342706906
1.342363367
1.342216935
1.342503181
1.343461338
1.344069332
1.344258577
1.344483659
1.344635915
1.344795327
1.344813071
1.34466621
1.344620866
1.34487314
1.345015338
1.345054187
1.3450287
1.344964461
1.344886911
1.34489558
1.345266427
1.346251207
1.346992504
1.347014747
1.34328228
1.34360969
1.34410672
1.344360119
1.344304028
1.344185078
1.34400385
1.343401839
1.342919775
1.342353929
1.341847302
1.342357424
1.343256872
1.343917945
1.344042839
1.344162298
1.344617385
1.344946565
1.344959496
1.344848931
1.3448111
1.345001379
1.345116689
1.345135969
1.345127539
1.345086417
1.34498618
1.344771452
1.344590903
1.344924656
1.345998819
1.346900008
1.343120273
1.343258605
1.343826781
1.344248292
1.344264886
1.344072226
1.343772113
1.343316634
1.342729713
1.342154758
1.342098198
1.342417621
1.34315095
1.343817874
1.3439569
1.343904515
1.344051353
1.344591477
1.344900011
1.344900669
1.344886598
1.345018454
1.345106656
1.345082349
1.345126579
1.345136978
1.34500393
1.344692734
1.34418481
1.344215718
1.344736544
1.345980767
1.342813566
1.342931754
1.343345155
1.343730128
1.343827723
1.343611887
1.343154133
1.342650581
1.342406689
1.342548097
1.342736891
1.342792366
1.343138464
1.343622146
1.343781019
1.343633069
1.343278964
1.343460399
1.344027804
1.344635514
1.34484784
1.344949318
1.344989456
1.344926242
1.345013023
1.345021488
1.344866045
1.344537589
1.344232513
1.344229675
1.344284543
1.344676273
1.342257717
1.342592703
1.342908669
1.342988613
1.342921139
1.342679323
1.342284581
1.341946961
1.342109528
1.342591627
1.343159167
1.343473483
1.343244471
1.34340849
1.343424993
1.343255206
1.342723835
1.34263067
1.34286535
1.34354829
1.344447331
1.344811476
1.344801061
1.344749744
1.34481987
1.344785324
1.344657227
1.344492029
1.344372482
1.344167504
1.344110231
1.344076515
1.341676783
1.34213006
1.342377969
1.342303463
1.342135178
1.341999363
1.341784627
1.341614798
1.341819567
1.342543903
1.343209662
1.343707427
1.343645518
1.343296591
1.343150426
1.342923149
1.342307068
1.342151551
1.342226058
1.342584068
1.343416137
1.344446074
1.344662988
1.344721461
1.344727786
1.344632188
1.344509541
1.34445353
1.344361576
1.344299051
1.344040063
1.343751219
1.341230482
1.341636437
1.341962383
1.34191923
1.341719882
1.341640999
1.341448911
1.341406203
1.341625725
1.342224571
1.343102936
1.34361646
1.343814465
1.343674183
1.343199081
1.342732936
1.341997229
1.341824577
1.341898785
1.34211657
1.342629855
1.343600548
1.344573875
1.344787029
1.344820397
1.344668212
1.344430053
1.344339524
1.344282668
1.344400862
1.344259619
1.343535618
1.340958391
1.341362405
1.341757607
1.341751004
1.341580544
1.341451239
1.341295323
1.341181714
1.341396389
1.341692091
1.342420462
1.343378468
1.343659984
1.343808238
1.343563206
1.342619766
1.341750942
1.341567999
1.341635776
1.341871883
1.342415736
1.343172997
1.344202649
1.344769234
1.344918568
1.344773764
1.344376872
1.344203571
1.344272673
1.344447926
1.344422696
1.343733294
1.341283065
1.341335539
1.341686555
1.341682739
1.341562378
1.341412661
1.341111084
1.340935591
1.341126387
1.341372532
1.34176488
1.34254734
1.343383588
1.343627383
1.343567337
1.343026641
1.342348383
1.341818768
1.341659569
1.341818512
1.342322752
1.343035208
1.343759261
1.344555538
1.344810604
1.344772164
1.344627769
1.344467985
1.344392346
1.344476297
1.344473912
1.344014727
1.341540092
1.341733153
1.341914193
1.341883189
1.341766025
1.341440117
1.34098745
1.340796198
1.340884206
1.340994652
1.341271827
1.341763248
1.342507107
1.343331194
1.343317777
1.342867463
1.3427975
1.342440363
1.34190843
1.341995217
1.342483378
1.34301873
1.343512734
1.344019178
1.344510642
1.344581618
1.344691812
1.344693694
1.344639901
1.344619262
1.344569223
1.344171694
1.341369642
1.341951339
1.342386266
1.342430744
1.342110235
1.341565699
1.34100848
1.340612116
1.340479444
1.340499505
1.340832799
1.341270993
1.341714125
1.34242301
1.342980585
1.342691079
1.342928721
1.342854436
1.342422384
1.342202872
1.342577604
1.343061444
1.343313642
1.343515604
1.343941143
1.344341738
1.344533084
1.344675121
1.344739334
1.34484559
1.344775288
1.344281941
1.341158523
1.341996549
1.342807356
1.342881015
1.342585895
1.342084123
1.341386422
1.340449107
1.340061082
1.339909412
1.340230785
1.340926266
1.341383003
1.341707379
1.342237934
1.342536229
1.342788268
1.342936655
1.342804255
1.342545159
1.342581075
1.342869911
1.343035312
1.343062276
1.343346118
1.343909356
1.344429291
1.34465123
1.34475434
1.344940339
1.344915601
1.344467857
1.340708693
1.341858791
1.3426836
1.342839615
1.342771569
1.342415972
1.341837507
1.340614038
1.339866904
1.339378069
1.339563819
1.340489296
1.341205343
1.341454308
1.341529749
1.342033359
1.342724289
1.342979132
1.342958586
1.342890443
1.342564844
1.342558555
1.342503163
1.342648193
1.342821091
1.343313698
1.343907
1.344395212
1.344628211
1.344809999
1.344827389
1.344557569
1.340424247
1.340985185
1.342180483
1.342663762
1.342628214
1.342318432
1.341770942
1.341045207
1.339871348
1.339065195
1.339254827
1.339930063
1.340835837
1.341154769
1.34104483
1.341196889
1.342260185
1.342873292
1.342975132
1.342919058
1.342500609
1.34218649
1.342036489
1.342174751
1.342366053
1.342649614
1.343014398
1.343452264
1.343955703
1.344458322
1.344635475
1.3444225
1.340269764
1.340569442
1.341067609
1.34199133
1.342360784
1.342091337
1.341491583
1.340878194
1.34041407
1.339670407
1.339221375
1.339700283
1.340215512
1.34071525
1.340750413
1.34061074
1.341064073
1.342176805
1.342820651
1.3427546
1.342386865
1.34191354
1.341876585
1.341935386
1.342000408
1.342136831
1.342234625
1.342379601
1.342665906
1.343307743
1.343992631
1.344104395
1.339971916
1.340282326
1.340370594
1.340406369
1.34061554
1.341456761
1.341479741
1.340951642
1.340642007
1.34036452
1.340254453
1.339946345
1.339772342
1.339958628
1.340291768
1.340382246
1.340096363
1.340050703
1.340560577
1.341722355
1.342252768
1.342178242
1.3421841
1.342084057
1.341901532
1.341805169
1.341743322
1.341651994
1.341643124
1.341693955
1.34199212
1.34254655
1.343212153
1.339714566
1.340149297
1.340255882
1.340078926
1.339806631
1.339880935
1.340231509
1.340216727
1.34034978
1.340227355
1.34039951
1.340630264
1.34049221
1.340161753
1.340137616
1.340069633
1.339705713
1.339416212
1.339365951
1.339811595
1.340809845
1.341806577
1.342107256
1.342345793
1.342324487
1.341951804
1.341511268
1.341368034
1.341304013
1.341267554
1.341347604
1.341463368
1.341815069
1.339195435
1.339914027
1.340127799
1.340062221
1.3395083
1.338936738
1.338728858
1.338730246
1.339158123
1.340054004
1.340375292
1.340778255
1.341042639
1.340953898
1.34053406
1.339924406
1.339432537
1.33903197
1.338745962
1.338714884
1.339069298
1.340474183
1.341912463
1.342378359
1.34252931
1.342411143
1.341876509
1.341214363
1.341069249
1.340976286
1.341013225
1.341017508
1.341062956
1.338893108
1.339407327
1.340018306
1.339967767
1.339545925
1.338818525
1.338144838
1.337752712
1.33792019
1.338548265
1.33978988
1.340699205
1.341230043
1.34131554
1.34107333
1.340387146
1.339314971
1.33884314
1.338514339
1.338413638
1.338456417
1.339026693
1.340791348
1.342219894
1.342414884
1.342449799
1.342305709
1.341790592
1.34107304
1.34082679
1.340939778
1.340932032
1.340867062
1.338815219
1.339152493
1.339715519
1.339811659
1.339627492
1.338901739
1.338193747
1.337589765
1.337459377
1.337408993
1.338083675
1.340064975
1.341211797
1.34131379
1.34109816
1.34070426
1.340151558
1.338876946
1.338329861
1.338212698
1.338239343
1.338495756
1.339389815
1.341131408
1.342191304
1.342346627
1.342241755
1.342098234
1.341730477
1.341229974
1.341133691
1.341041879
1.340865231
1.33879379
1.339223481
1.339559223
1.339605254
1.339633141
1.339217341
1.338386132
1.337697639
1.33744307
1.337033116
1.33702988
1.337968849
1.339954871
1.341082633
1.341015223
1.340714521
1.340400431
1.339920337
1.338938411
1.338376141
1.338439152
1.338613066
1.338896293
1.339581791
1.340992413
1.342024499
1.342141419
1.342120075
1.342042945
1.341826452
1.341558621
1.341244735
1.341064194
1.3383524
1.339341074
1.339704997
1.339709757
1.339663016
1.339428937
1.338818529
1.337999839
1.337561487
1.337082501
1.336734261
1.336719904
1.337615556
1.339270153
1.340306028
1.340609278
1.340471636
1.340287097
1.339778226
1.338821942
1.338617234
1.338829487
1.338772989
1.338885978
1.339494307
1.340793392
1.341824681
1.342113764
1.342078996
1.342104815
1.342017466
1.341531672
1.341201989
1.337514882
1.339034189
1.339895722
1.340079296
1.339923527
1.339698691
1.339211665
1.338412706
1.337662045
1.337290606
1.336843402
1.336556789
1.336579255
1.33737376
1.338473838
1.339843922
1.340438792
1.340421133
1.340309132
1.339753782
1.33890898
1.338713363
1.338706388
1.33883653
1.338966951
1.339499082
1.340532861
1.341510343
1.342055515
1.342163475
1.342199132
1.341870056
1.341308941
1.337393038
1.338164113
1.339726734
1.340279691
1.340340738
1.340010813
1.339453591
1.338755174
1.33810808
1.33726291
1.3372343
1.336569814
1.336587629
1.33705204
1.337382475
1.338203917
1.339551543
1.340504798
1.340526989
1.340234222
1.339450498
1.338944785
1.338984798
1.338817479
1.338841391
1.339150248
1.339505543
1.340093923
1.341077552
1.342036979
1.342164142
1.34204454
1.341481433
1.337723838
1.337953319
1.338913132
1.340066726
1.340465505
1.340210795
1.339608858
1.338915368
1.338183257
1.338172985
1.337746103
1.336875597
1.33675383
1.337023002
1.337098801
1.33731499
1.337981369
1.339652159
1.340600399
1.340361864
1.339769382
1.339194854
1.339132504
1.339117955
1.339064703
1.339013833
1.339032086
1.339229498
1.339668506
1.34054032
1.341606447
1.34205382
1.341634057
1.338353005
1.338253152
1.338600172
1.339145684
1.33987881
1.33992752
1.339427217
1.338720005
1.338273741
1.338560572
1.338832849
1.338411948
1.337868155
1.337653835
1.337470934
1.337479767
1.337357361
1.337846548
1.339367808
1.340246628
1.339891764
1.339572675
1.339409504
1.339399344
1.339344649
1.33920982
1.339211262
1.339275107
1.339279409
1.339253291
1.339777255
1.341014154
1.341556603
1.338748888
1.338981775
1.33870589
1.338607842
1.338801831
1.339031842
1.338865422
1.338502681
1.338473936
1.338941362
1.339381036
1.339403521
1.339104935
1.33848866
1.338078158
1.337642759
1.337140266
1.336950716
1.337204848
1.338711687
1.339775636
1.339760738
1.339976443
1.339909074
1.339676968
1.339458896
1.339452493
1.339369587
1.339155236
1.33891528
1.338734576
1.339068271
1.340640616
1.338801063
1.339182984
1.338932202
1.338512411
1.338184459
1.338192993
1.337947276
1.337716796
1.338063217
1.338964588
1.339742216
1.339992145
1.340018278
1.339586305
1.338685838
1.337717013
1.337229812
1.336755053
1.33629165
1.336608347
1.338402848
1.339886072
1.340336581
1.340502938
1.34015995
1.339746572
1.339367463
1.339115781
1.339143519
1.33891878
1.338319752
1.338135187
1.338934612
1.337792827
1.338664607
1.338874462
1.338497954
1.337868239
1.337573443
1.337196235
1.336838472
1.337005614
1.337998036
1.339471955
1.340324931
1.34056405
1.34042086
1.339221134
1.337946784
1.337316348
1.336639903
1.335996339
1.335720851
1.336530033
1.33886154
1.340503476
1.340824501
1.340718525
1.340235684
1.339469011
1.339139007
1.339231776
1.339008185
1.338551725
1.338248928
1.33811259
1.336754273
1.337415618
1.33800839
1.33808759
1.33764031
1.337022717
1.336629409
1.336374945
1.336274793
1.336647387
1.337859905
1.339612433
1.340809034
1.340766081
1.339864894
1.33831849
1.337248562
1.336483165
1.336063055
1.335867699
1.33609367
1.337159575
1.33935908
1.340732418
1.340902931
1.340628061
1.340181301
1.339530231
1.339205612
1.339125101
1.339003856
1.338606028
1.338164602
1.336445809
1.33680444
1.337151626
1.337306974
1.337238476
1.336730373
1.336282324
1.336119294
1.336036836
1.336132944
1.336423221
1.337542964
1.339473762
1.340498632
1.340170106
1.339177965
1.33763238
1.33654687
1.336244436
1.336195155
1.336057162
1.336374528
1.337540763
1.339136176
1.340438543
1.340862755
1.340639763
1.340274106
1.339304901
1.339174748
1.339317973
1.339006347
1.338679955
1.335911365
1.336519215
1.336944016
1.337023031
1.337008357
1.336940364
1.336600471
1.336082635
1.33587384
1.335995595
1.33608661
1.336045227
1.336450219
1.337186304
1.338150162
1.339374531
1.339272844
1.338483021
1.33709584
1.336399597
1.336285742
1.336421954
1.336800982
1.337193697
1.337530681
1.338412695
1.339817403
1.340746672
1.340496402
1.340030242
1.339363766
1.339184009
1.339442263
1.339228549
1.335900306
1.336660282
1.337288936
1.337336381
1.337211761
1.336981794
1.336665707
1.33611409
1.335795029
1.335955471
1.33608082
1.336151977
1.336439489
1.336276016
1.33627709
1.337138998
1.338416492
1.33888568
1.338097126
1.33684777
1.336414274
1.336816196
1.337354858
1.337303404
1.337110909
1.33734244
1.338070142
1.339125329
1.340236985
1.340476957
1.339878531
1.339359299
1.339443011
1.339661851
1.335852288
1.336735137
1.337564457
1.337846747
1.33779837
1.337337795
1.336875498
1.336398582
1.336033688
1.33597906
1.335909213
1.336113023
1.336345498
1.33616599
1.335907205
1.335995789
1.336828927
1.337981212
1.338468592
1.337739744
1.336922605
1.336761447
1.336899798
1.336921693
1.337054011
1.337337838
1.337500115
1.337831569
1.338693381
1.339852833
1.34015196
1.339755542
1.339505433
1.339521043
1.335784852
1.33671072
1.337708915
1.338379388
1.33857056
1.338023726
1.337310341
1.336895417
1.336579595
1.336217731
1.335867956
1.335989461
1.336126462
1.336278664
1.336123144
1.335967901
1.336041638
1.336648329
1.337815626
1.338308014
1.33783474
1.337017545
1.336526348
1.336480918
1.336976704
1.337534299
1.33780732
1.337855041
1.337855467
1.338265638
1.339237626
1.339780439
1.339606726
1.339348898
1.335612725
1.336683705
1.337814608
1.338609698
1.338943976
1.338687843
1.337932735
1.337352454
1.337000126
1.336514999
1.336105452
1.336036874
1.336047235
1.336118415
1.336056887
1.336022131
1.336030543
1.336090726
1.336749979
1.337929553
1.338276405
1.337463238
1.33653345
1.336250869
1.336688944
1.33733349
1.337918471
1.338113066
1.337971016
1.337646275
1.337935409
1.338869428
1.339408453
1.339175672
1.335455624
1.336578393
1.337830468
1.338539489
1.338891837
1.338964327
1.338342263
1.337485833
1.33698923
1.336665619
1.336569485
1.33644607
1.336255985
1.335947675
1.335837834
1.3359902
1.336174115
1.336154171
1.335971314
1.336622639
1.337515451
1.337680013
1.337204888
1.336819381
1.336756085
1.336930882
1.337302981
1.337905206
1.338144335
1.33790474
1.335223703
1.336109681
1.337337996
1.337863927
)
;

boundaryField
{
    inlet
    {
        type            calculated;
        value           nonuniform 0();
    }
    outlet
    {
        type            calculated;
        value           nonuniform List<scalar> 
68
(
1.346846678
1.347029157
1.346852291
1.345832254
1.344594402
1.344070535
1.343766359
1.343553397
1.343772707
1.344046358
1.344194207
1.34430433
1.344492091
1.344580355
1.344450251
1.34411137
1.343126323
1.341739735
1.341046877
1.340858394
1.340877706
1.341076186
1.341217811
1.341333893
1.341525706
1.3416931
1.341583762
1.34055505
1.338850072
1.338085332
1.338167029
1.338748904
1.339249801
1.339670247
1.339503514
1.339357634
1.339196367
2.177992607
2.193021874
2.189079168
2.196436592
2.196793048
2.160014695
2.076797125
1.895940834
1.683934501
1.520146269
1.425230001
1.38082835
1.363259233
1.356792635
1.354487051
1.353309662
1.35231826
1.351348934
1.350325669
1.349376021
1.348526709
1.347789489
1.347242313
1.346811861
1.346545972
1.346315254
1.346167
1.346030015
1.345899674
1.345792464
1.345637123
)
;
    }
    bottom
    {
        type            calculated;
        value           nonuniform 0();
    }
    top
    {
        type            calculated;
        value           nonuniform 0();
    }
    obstacle
    {
        type            calculated;
        value           nonuniform 0();
    }
    defaultFaces
    {
        type            empty;
    }
    procBoundary11to5
    {
        type            processor;
        value           nonuniform List<scalar> 
33
(
1.357262734
1.357216084
1.357409941
1.357805288
1.358124454
1.358121762
1.357681283
1.357121494
1.357333865
1.363390105
1.43820791
1.7126938
2.070728628
2.21287307
2.206593568
2.190621972
2.184906564
2.157401584
1.225916371
1.316227292
1.325239146
1.350240272
1.35885852
1.359455177
1.358512262
1.357944196
1.358246975
1.358430305
1.357899737
1.356946916
1.356686831
1.356901052
1.356901052
)
;
    }
    procBoundary11to10
    {
        type            processor;
        value           nonuniform List<scalar> 
70
(
1.24486761
1.340174635
1.355942612
1.353144133
1.357100832
1.359369778
1.359091076
1.357565873
1.357391968
1.357607292
1.357756383
1.356686359
1.355168377
1.35425679
1.354007503
1.353665287
1.352973332
1.351893672
1.350587733
1.349411746
1.348525251
1.347686957
1.346745326
1.345821293
1.344977007
1.344274586
1.343659464
1.343244147
1.343030127
1.342825387
1.343026791
1.343261618
1.343316629
1.343153611
1.342513652
1.341954495
1.341561528
1.341211972
1.341096295
1.341288666
1.341218249
1.341011882
1.340720929
1.340453109
1.340273419
1.34011016
1.34011016
1.33949226
1.339266434
1.339094367
1.338955154
1.338765478
1.338172362
1.337307208
1.336993409
1.337207134
1.337694132
1.338190783
1.338371381
1.33796808
1.337097063
1.336364862
1.335956375
1.335956375
1.335615067
1.335511269
1.33524608
1.334985416
1.334901496
1.334909398
)
;
    }
    procBoundary11to16
    {