/*--------------------------------*- C++ -*----------------------------------*\
  =========                 |
  \\      /  F ield         | OpenFOAM: The Open Source CFD Toolbox
   \\    /   O peration     | Website:  https://openfoam.org
    \\  /    A nd           | Version:  7
     \\/     M anipulation  |
\*---------------------------------------------------------------------------*/
FoamFile
{
    version     2.0;
    format      ascii;
    class       volScalarField;
    location    "4";
    object      T;
}
// * * * * * * * * * * * * * * * * * * * * * * * * * * * * * * * * * * * * * //

dimensions      [0 0 0 1 0 0 0];

internalField   nonuniform List<scalar> 5(0.9590244409 0.9576963479 0.9780704091 1.052651166 0.9932980834);

boundaryField
{
    inlet
    {
        type            fixedValue;
        value           nonuniform 0();
    }
    outlet
    {
        type            inletOutlet;
        inletValue      nonuniform 0();
        value           nonuniform 0();
    }
    bottom
    {
        type            slip;
    }
    top
    {
        type            slip;
    }
    obstacle
    {
        type            zeroGradient;
    }
    defaultFaces
    {
        type            empty;
    }
    procBoundary27to21
    {
        type            processor;
        value           uniform 0.9668497479;
    }
    procBoundary27to26
    {
        type            processor;
        value           uniform 1.094006635;
    }
    procBoundary27to28
    {
        type            processor;
        value           nonuniform List<scalar> 4(0.9914223978 0.9914223978 1.02471601 0.9991377734);
    }
    procBoundary27to33
    {
        type            processor;
        value           nonuniform List<scalar> 2(1.027991888 1.017298702);
    }
}


// ************************************************************************* //
