/*--------------------------------*- C++ -*----------------------------------*\
  =========                 |
  \\      /  F ield         | OpenFOAM: The Open Source CFD Toolbox
   \\    /   O peration     | Website:  https://openfoam.org
    \\  /    A nd           | Version:  7
     \\/     M anipulation  |
\*---------------------------------------------------------------------------*/
FoamFile
{
    version     2.0;
    format      ascii;
    class       volVectorField;
    location    "5";
    object      U;
}
// * * * * * * * * * * * * * * * * * * * * * * * * * * * * * * * * * * * * * //

dimensions      [0 1 -1 0 0 0 0];

internalField   nonuniform List<vector> 
2222
(
(3 -1.96608139e-16 0)
(3 6.140754551e-16 0)
(3 -1.014981771e-15 0)
(3 -2.357079721e-15 0)
(3 -2.281812494e-15 0)
(3 -2.605291252e-15 0)
(3 -5.842743144e-16 0)
(3 -7.517296181e-17 0)
(3 -1.530758173e-16 0)
(3 -2.714683442e-16 0)
(3 -1.370389633e-15 0)
(3 -3.347855125e-16 0)
(3 2.068304845e-15 0)
(3 2.324968777e-15 0)
(3 2.103223343e-15 0)
(3 -1.033907994e-16 0)
(3 -1.976193098e-15 0)
(3 -2.236369077e-15 0)
(3 -2.229542745e-15 0)
(3 -8.013175817e-16 0)
(3 -2.375516899e-15 0)
(3 -3.283398871e-15 0)
(3 -4.156345124e-15 0)
(3 -4.890142652e-15 0)
(3 -4.339108849e-15 0)
(3 -3.828983666e-15 0)
(3 -2.327190023e-15 0)
(3 -1.508286112e-15 0)
(3 -2.704363596e-15 0)
(3 -9.63382601e-16 0)
(3 2.460744198e-15 0)
(3 5.704057654e-15 0)
(3 9.460270061e-15 0)
(3 9.523041632e-15 0)
(3 6.169442519e-15 0)
(3 5.388426834e-15 0)
(3 2.269090713e-15 0)
(3 1.543340007e-15 0)
(3 1.63850317e-15 0)
(3 2.259740903e-15 0)
(3 1.796076018e-15 0)
(3 6.993342615e-16 0)
(3 5.819468617e-16 0)
(3 -9.399911327e-16 0)
(3 2.484751167e-15 0)
(3 5.26578588e-15 0)
(3 4.409976263e-15 0)
(3 2.141794587e-15 0)
(3 -1.655896641e-15 0)
(3 -1.72281638e-15 0)
(3 -3.568818894e-15 0)
(3 -2.501541363e-15 0)
(3 -6.215035214e-15 0)
(3 -6.452501927e-15 0)
(3 -3.913625381e-15 0)
(3 -4.98998728e-15 0)
(3 -5.850094543e-15 0)
(3 -6.726615702e-15 0)
(3 -6.142496217e-15 0)
(3 -5.987719324e-15 0)
(3 -4.860128876e-15 0)
(3 -3.174700295e-15 0)
(3 -2.7313605e-16 0)
(3 2.004580075e-15 0)
(3 3.833385299e-15 0)
(3 4.616661431e-15 0)
(3 1.505178249e-15 0)
(3 1.903226328e-15 0)
(3 -7.126551702e-16 0)
(3 -3.770445499e-15 0)
(3 -3.611349978e-15 0)
(3 -3.668904822e-15 0)
(3 -1.660503014e-15 0)
(3 -2.056720575e-15 0)
(3 -2.877179538e-15 0)
(3 -3.422720826e-15 0)
(3 -2.444426428e-15 0)
(3 -2.134560819e-16 0)
(3 4.665661349e-15 0)
(3 5.616536811e-15 0)
(3 2.372620713e-15 0)
(3 -1.278856637e-15 0)
(3 -5.955962689e-15 0)
(3 -8.114608909e-15 0)
(3 -7.894114067e-15 0)
(3 -6.783880024e-15 0)
(3 -7.26174427e-15 0)
(3 -6.351057612e-15 0)
(3 -6.486096772e-15 0)
(3 -7.490667931e-15 0)
(3 -7.413490858e-15 0)
(3 -6.838849772e-15 0)
(3 -6.058060342e-15 0)
(3 -4.958881471e-15 0)
(3 -3.282443958e-15 0)
(3 -8.979678371e-16 0)
(3 4.359595836e-15 0)
(3 9.137385687e-15 0)
(3 1.396139081e-14 0)
(3 1.571605867e-14 0)
(3 1.011609451e-14 0)
(3 6.268201268e-15 0)
(3 2.37116915e-16 0)
(3 -3.470679691e-15 0)
(3 -1.437073444e-15 0)
(3 -9.689418688e-16 0)
(3 2.194074327e-15 0)
(3 1.571150044e-15 0)
(3 3.826886427e-15 0)
(3 3.269551446e-15 0)
(3 4.881303458e-15 0)
(3 4.489646391e-15 0)
(3 2.741996673e-15 0)
(3 -5.952621165e-15 0)
(3 -1.23749286e-14 0)
(3 -1.133900434e-14 0)
(3 -1.169361392e-14 0)
(3 -7.360706495e-15 0)
(3 -9.111281359e-15 0)
(3 -5.330379917e-15 0)
(3 -5.863759994e-15 0)
(3 -5.969832832e-15 0)
(3 -7.52637737e-15 0)
(3 -7.371327246e-15 0)
(3 -5.211895275e-15 0)
(3 -4.365266114e-15 0)
(3 -5.225933676e-15 0)
(3 -6.608301111e-15 0)
(3 -3.278147111e-15 0)
(3 1.857335331e-15 0)
(3 3.624097962e-15 0)
(3 3.185317083e-15 0)
(3 1.924777445e-15 0)
(3 2.017662717e-15 0)
(3 2.319496038e-15 0)
(3 2.551646214e-15 0)
(3 8.32889319e-16 0)
(3 -1.608829887e-17 0)
(3 -1.890221732e-15 0)
(3 -5.815955778e-15 0)
(3 -7.335238291e-15 0)
(3 -6.021996297e-15 0)
(3 -2.17709357e-15 0)
(3 1.853554909e-15 0)
(3 1.493328887e-15 0)
(3 5.620349003e-16 0)
(3 -3.259177875e-15 0)
(3 -7.662198207e-15 0)
(3 -1.034492186e-14 0)
(3 -1.562901816e-14 0)
(3 -1.738597134e-14 0)
(3 -1.485711206e-14 0)
(3 -1.285011322e-14 0)
(3 -1.169841136e-14 0)
(3 -1.102898509e-14 0)
(3 -9.83541281e-15 0)
(3 -9.833850996e-15 0)
(3 -1.025287953e-14 0)
(3 -1.029854498e-14 0)
(3 -1.069691885e-14 0)
(3 -7.213851497e-15 0)
(3 -3.590790733e-15 0)
(3 1.865273949e-15 0)
(3 7.849649296e-15 0)
(3 1.352645056e-14 0)
(3 1.770065158e-14 0)
(3 1.616148526e-14 0)
(3 1.004848105e-14 0)
(3 -6.315944004e-16 0)
(3 -4.777084224e-15 0)
(3 -3.594109397e-15 0)
(3 1.617253217e-15 0)
(3 6.342003409e-15 0)
(3 7.643959771e-15 0)
(3 6.917568121e-15 0)
(3 7.110336926e-15 0)
(3 5.027032963e-15 0)
(3 3.773851148e-15 0)
(3 1.930433813e-15 0)
(3 1.516165176e-15 0)
(3 -1.25423194e-15 0)
(3 -2.835663931e-15 0)
(3 -4.859455039e-15 0)
(3 -6.804207993e-15 0)
(3 -8.352832209e-15 0)
(3 -9.906383307e-15 0)
(3 -1.352250266e-14 0)
(3 -1.369979363e-14 0)
(3 -1.367168197e-14 0)
(3 -1.357589155e-14 0)
(3 -1.192969675e-14 0)
(3 -1.014803099e-14 0)
(3 -6.614904985e-15 0)
(3 -3.860964641e-15 0)
(3 1.028672168e-15 0)
(3 5.629055076e-15 0)
(3 6.325269045e-15 0)
(3 8.794009012e-15 0)
(3 5.324163796e-16 0)
(3 8.089581432e-16 0)
(3 1.883712312e-15 0)
(3 2.797077247e-15 0)
(3 2.383300197e-15 0)
(3 2.364549815e-15 0)
(3 -7.84095508e-16 0)
(3 -3.181259965e-15 0)
(3 -3.897033276e-15 0)
(3 -4.43398988e-15 0)
(3 -4.199932701e-15 0)
(3 -2.867816112e-15 0)
(3 -2.388286807e-15 0)
(3 -4.54279844e-15 0)
(3 -8.256705036e-15 0)
(3 -6.610334463e-15 0)
(3 -7.47598588e-15 0)
(3 -1.002138908e-14 0)
(3 -9.981138063e-15 0)
(3 -8.131635151e-15 0)
(3 -8.09494881e-15 0)
(3 -8.716876436e-15 0)
(3 -8.386519303e-15 0)
(3 -6.608277056e-15 0)
(3 -7.107525591e-15 0)
(3 -7.709356941e-15 0)
(3 -7.413990481e-15 0)
(3 -6.77637328e-15 0)
(3 -4.802224629e-15 0)
(3 -1.576308572e-15 0)
(3 2.566551274e-15 0)
(3 7.526647214e-15 0)
(3 1.301657922e-14 0)
(3 1.314453592e-14 0)
(3 1.117901568e-14 0)
(3 6.635580387e-15 0)
(3 5.775863349e-15 0)
(3 7.718311131e-15 0)
(3 6.689851041e-15 0)
(3 5.169569457e-15 0)
(3 1.234669709e-15 0)
(3 1.211479959e-15 0)
(3 2.9399915e-15 0)
(3 8.131372221e-15 0)
(3 1.024595666e-14 0)
(3 7.939011794e-15 0)
(3 6.03326022e-15 0)
(3 6.092615042e-15 0)
(3 3.354303667e-15 0)
(3 1.09510517e-15 0)
(3 9.662077612e-16 0)
(3 1.91287078e-15 0)
(3 -5.995063402e-15 0)
(3 -1.169687728e-14 0)
(3 -1.395265715e-14 0)
(3 -1.562605249e-14 0)
(3 -1.265598134e-14 0)
(3 -1.09473948e-14 0)
(3 -1.072620148e-14 0)
(3 -1.048525628e-14 0)
(3 -8.70116484e-15 0)
(3 -2.823675499e-15 0)
(3 5.410129199e-15 0)
(3 1.356719424e-14 0)
(3 1.570478132e-14 0)
(3 1.400220058e-14 0)
(3 6.377068604e-19 0)
(3 1.150954713e-15 0)
(3 1.131658056e-15 0)
(3 1.137621193e-15 0)
(3 7.02964209e-16 0)
(3 -2.32962349e-16 0)
(3 -3.296009948e-15 0)
(3 -4.356327238e-15 0)
(3 -4.886355468e-15 0)
(3 -7.272199862e-15 0)
(3 -8.497987806e-15 0)
(3 -7.347002747e-15 0)
(3 -6.123835013e-15 0)
(3 -3.450958508e-15 0)
(3 -2.840330377e-15 0)
(3 -2.087110715e-15 0)
(3 -3.768591482e-15 0)
(3 -4.243248789e-15 0)
(3 -6.047446754e-16 0)
(3 1.133355297e-15 0)
(3 1.614997966e-15 0)
(3 1.271704351e-15 0)
(3 9.339348028e-17 0)
(3 -7.517098339e-17 0)
(3 -3.926321083e-16 0)
(3 -5.330870002e-16 0)
(3 1.089915147e-16 0)
(3 1.685220397e-15 0)
(3 4.39915105e-15 0)
(3 7.662509073e-15 0)
(3 9.879991132e-15 0)
(3 9.151562862e-15 0)
(3 6.390937306e-15 0)
(3 3.173587188e-15 0)
(3 3.750621933e-15 0)
(3 9.047868519e-15 0)
(3 1.021833851e-14 0)
(3 8.723159736e-15 0)
(3 7.749184165e-15 0)
(3 6.98378853e-15 0)
(3 8.612204872e-15 0)
(3 1.343163496e-14 0)
(3 2.293860435e-14 0)
(3 2.583208974e-14 0)
(3 2.312941653e-14 0)
(3 1.622971216e-14 0)
(3 1.477806919e-14 0)
(3 1.395531035e-14 0)
(3 1.47745475e-14 0)
(3 1.447308318e-14 0)
(3 1.301670226e-14 0)
(3 1.006360683e-14 0)
(3 2.818643293e-15 0)
(3 -3.942951956e-15 0)
(3 -4.199237481e-15 0)
(3 -5.790074047e-15 0)
(3 -4.962383168e-15 0)
(3 -3.666993062e-15 0)
(3 -6.521218826e-15 0)
(3 -7.978311e-15 0)
(3 -4.809366983e-15 0)
(3 -4.757916582e-16 0)
(3 5.550591857e-15 0)
(3 1.391275183e-14 0)
(3 1.971598633e-14 0)
(3 2.192841804e-14 0)
(3 -1.452906471e-15 0)
(3 -1.148475742e-15 0)
(3 -8.817678932e-16 0)
(3 -1.744192018e-15 0)
(3 -2.804998953e-15 0)
(3 -3.004651849e-15 0)
(3 -3.671663931e-15 0)
(3 -5.190060301e-15 0)
(3 -4.511692074e-15 0)
(3 -4.766710939e-15 0)
(3 -4.815167626e-15 0)
(3 -6.142830403e-15 0)
(3 -6.635305027e-15 0)
(3 -5.470728562e-15 0)
(3 -1.748032605e-15 0)
(3 -1.721655595e-15 0)
(3 -1.149005878e-16 0)
(3 1.730509956e-15 0)
(3 2.523075706e-15 0)
(3 3.322777679e-15 0)
(3 3.775058979e-15 0)
(3 3.843438167e-15 0)
(3 3.144335582e-15 0)
(3 3.021164903e-15 0)
(3 4.939158783e-15 0)
(3 2.7842875e-15 0)
(3 1.635899732e-15 0)
(3 4.928135198e-15 0)
(3 6.487033552e-15 0)
(3 6.145411779e-15 0)
(3 3.456018762e-15 0)
(3 9.439986223e-16 0)
(3 -3.088007421e-15 0)
(3 -3.198287969e-15 0)
(3 -1.303369612e-15 0)
(3 4.951022407e-15 0)
(3 9.203679999e-15 0)
(3 7.945350944e-15 0)
(3 7.085110241e-15 0)
(3 8.216781519e-15 0)
(3 1.413863288e-14 0)
(3 2.089042514e-14 0)
(3 2.273528199e-14 0)
(3 2.05990786e-14 0)
(3 1.732870114e-14 0)
(3 1.58417228e-14 0)
(3 1.647137582e-14 0)
(3 1.757026123e-14 0)
(3 1.859026602e-14 0)
(3 2.064734659e-14 0)
(3 2.197046807e-14 0)
(3 1.609113861e-14 0)
(3 1.321665909e-14 0)
(3 1.044715349e-14 0)
(3 6.27021613e-15 0)
(3 2.852597133e-15 0)
(3 -2.012449305e-15 0)
(3 -3.78111201e-15 0)
(3 -7.15837974e-15 0)
(3 -4.108775805e-15 0)
(3 -2.579582396e-16 0)
(3 4.172736952e-15 0)
(3 7.551718255e-15 0)
(3 1.057879915e-14 0)
(3 1.503192365e-14 0)
(3 2.062357249e-14 0)
(3 -1.058863443e-15 0)
(3 -2.611680125e-15 0)
(3 -2.085833517e-15 0)
(3 -2.930806532e-15 0)
(3 -2.680568178e-15 0)
(3 -1.444568651e-15 0)
(3 2.069365386e-16 0)
(3 -1.59684383e-16 0)
(3 8.841997804e-16 0)
(3 1.026870404e-15 0)
(3 -2.206492748e-15 0)
(3 -4.521557983e-15 0)
(3 -7.880506563e-15 0)
(3 -7.873550663e-15 0)
(3 -5.799482545e-15 0)
(3 -1.356542343e-15 0)
(3 2.910108495e-15 0)
(3 8.136720689e-15 0)
(3 8.722762071e-15 0)
(3 6.858152627e-15 0)
(3 5.181384325e-15 0)
(3 5.242628443e-15 0)
(3 5.822807332e-15 0)
(3 4.259333212e-15 0)
(3 2.626399118e-15 0)
(3 -6.568431005e-16 0)
(3 -3.804325248e-15 0)
(3 -4.712844946e-15 0)
(3 -4.465237159e-15 0)
(3 -3.063080803e-15 0)
(3 -3.130947175e-15 0)
(3 -3.987124044e-15 0)
(3 -4.001023835e-15 0)
(3 -2.959800145e-15 0)
(3 -4.006099148e-16 0)
(3 1.191512498e-15 0)
(3 3.297467241e-15 0)
(3 5.586348716e-15 0)
(3 5.523165559e-15 0)
(3 6.78085915e-15 0)
(3 8.551830209e-15 0)
(3 8.851938751e-15 0)
(3 8.050085799e-15 0)
(3 5.149207452e-15 0)
(3 4.903042316e-15 0)
(3 6.839192423e-15 0)
(3 9.967402258e-15 0)
(3 1.552809555e-14 0)
(3 1.872242692e-14 0)
(3 2.05680998e-14 0)
(3 2.369154849e-14 0)
(3 2.283476589e-14 0)
(3 1.884863315e-14 0)
(3 1.114418809e-14 0)
(3 6.848614439e-15 0)
(3 4.46617399e-15 0)
(3 -4.253836061e-17 0)
(3 -4.186347953e-16 0)
(3 2.14649454e-15 0)
(3 3.526556241e-15 0)
(3 4.918977554e-15 0)
(3 9.670693256e-15 0)
(3 1.14165178e-14 0)
(3 1.12852995e-14 0)
(3 1.188339443e-14 0)
(3 1.586547082e-14 0)
(3 2.599717017e-16 0)
(3 1.289182457e-15 0)
(3 2.782593186e-15 0)
(3 2.647845867e-15 0)
(3 1.693870734e-15 0)
(3 1.339150254e-15 0)
(3 2.753066793e-15 0)
(3 4.549310546e-15 0)
(3 4.008080007e-15 0)
(3 3.982545596e-15 0)
(3 1.583205687e-15 0)
(3 7.777212846e-16 0)
(3 -1.920654703e-15 0)
(3 -2.011889006e-15 0)
(3 -5.977846494e-16 0)
(3 1.980444943e-15 0)
(3 7.137455372e-15 0)
(3 1.047411589e-14 0)
(3 1.213401752e-14 0)
(3 1.159335391e-14 0)
(3 1.012855852e-14 0)
(3 6.166631113e-15 0)
(3 3.753192035e-15 0)
(3 6.352085167e-17 0)
(3 -5.121959745e-15 0)
(3 -5.09179087e-15 0)
(3 -4.587633446e-15 0)
(3 -6.739392138e-15 0)
(3 -6.960000991e-15 0)
(3 -5.795479266e-15 0)
(3 -4.278108098e-15 0)
(3 -2.430728184e-15 0)
(3 -1.387298426e-15 0)
(3 -8.986238127e-16 0)
(3 -1.379408799e-16 0)
(3 -1.527871176e-15 0)
(3 -1.719735373e-15 0)
(3 1.504286405e-16 0)
(3 8.492296112e-16 0)
(3 7.920929042e-16 0)
(3 -1.749091282e-15 0)
(3 -4.738494829e-15 0)
(3 -4.424994374e-15 0)
(3 -1.267699217e-15 0)
(3 -4.317133557e-16 0)
(3 4.333282688e-15 0)
(3 6.301802715e-15 0)
(3 7.632461348e-15 0)
(3 1.112750472e-14 0)
(3 1.153057139e-14 0)
(3 1.177675633e-14 0)
(3 1.292911202e-14 0)
(3 1.2725592e-14 0)
(3 1.011643245e-14 0)
(3 7.549172948e-15 0)
(3 8.604094428e-15 0)
(3 1.050010841e-14 0)
(3 8.268293564e-15 0)
(3 7.065897562e-15 0)
(3 7.135965538e-15 0)
(3 6.884982551e-15 0)
(3 5.682383007e-15 0)
(3 6.831531611e-15 0)
(3 6.777039726e-15 0)
(3 9.94019166e-15 0)
(3 1.628255568e-14 0)
(3 4.634794898e-16 0)
(3 -1.317699291e-16 0)
(3 -1.968450402e-16 0)
(3 3.351802088e-16 0)
(3 3.0711516e-16 0)
(3 -7.768126148e-16 0)
(3 -3.451755578e-16 0)
(3 7.807870627e-16 0)
(3 4.47752443e-16 0)
(3 4.913584272e-16 0)
(3 1.735475845e-15 0)
(3 2.787312253e-15 0)
(3 2.896153711e-15 0)
(3 2.823964969e-15 0)
(3 3.856730151e-15 0)
(3 5.91697336e-15 0)
(3 7.887631035e-15 0)
(3 9.471876015e-15 0)
(3 1.164532983e-14 0)
(3 1.188549482e-14 0)
(3 1.215539571e-14 0)
(3 1.200136127e-14 0)
(3 1.067081209e-14 0)
(3 7.624102456e-15 0)
(3 3.561550251e-15 0)
(3 4.346880778e-15 0)
(3 4.274459108e-15 0)
(3 2.645674092e-15 0)
(3 8.394192959e-16 0)
(3 -1.076444255e-15 0)
(3 -1.052591785e-15 0)
(3 1.171916368e-15 0)
(3 3.221987108e-15 0)
(3 1.870545056e-15 0)
(3 1.394739719e-15 0)
(3 1.429605957e-15 0)
(3 9.933692306e-16 0)
(3 3.755369295e-16 0)
(3 -4.785679407e-16 0)
(3 -3.477286571e-15 0)
(3 -8.872066204e-15 0)
(3 -1.387886201e-14 0)
(3 -1.192191397e-14 0)
(3 -9.792941532e-15 0)
(3 -3.86273482e-15 0)
(3 4.243898972e-16 0)
(3 5.141705343e-15 0)
(3 5.340610397e-15 0)
(3 8.362345018e-15 0)
(3 9.225816799e-15 0)
(3 3.8431462e-15 0)
(3 4.157733306e-15 0)
(3 5.838323448e-15 0)
(3 5.462708253e-15 0)
(3 5.117412222e-15 0)
(3 6.394279572e-15 0)
(3 1.093377228e-14 0)
(3 1.32068931e-14 0)
(3 1.729883284e-14 0)
(3 1.43985437e-14 0)
(3 1.194798814e-14 0)
(3 6.117560536e-15 0)
(3 3.708650809e-15 0)
(3 4.057918694e-15 0)
(3 5.528150925e-15 0)
(3 6.649452674e-15 0)
(3 2.026819452e-16 0)
(3 7.316311313e-17 0)
(3 2.389277497e-16 0)
(3 6.890618163e-16 0)
(3 1.302069037e-16 0)
(3 -5.829209907e-16 0)
(3 -2.869436782e-15 0)
(3 -3.470339616e-15 0)
(3 -4.000326031e-15 0)
(3 -5.463101945e-15 0)
(3 -4.994559954e-15 0)
(3 -4.258377199e-15 0)
(3 -2.868898334e-15 0)
(3 -1.428789978e-15 0)
(3 4.943858266e-16 0)
(3 3.485810523e-15 0)
(3 5.961042175e-15 0)
(3 5.586516135e-15 0)
(3 7.187645479e-15 0)
(3 8.432017858e-15 0)
(3 1.132886201e-14 0)
(3 1.127499126e-14 0)
(3 1.09750276e-14 0)
(3 8.964853913e-15 0)
(3 8.512101522e-15 0)
(3 1.037938239e-14 0)
(3 9.17272508e-15 0)
(3 6.938268938e-15 0)
(3 3.467614799e-15 0)
(3 1.391220155e-15 0)
(3 -8.945613429e-17 0)
(3 -1.956093578e-15 0)
(3 -1.33180358e-16 0)
(3 1.390419985e-15 0)
(3 1.848429388e-15 0)
(3 2.800094186e-15 0)
(3 3.151138238e-15 0)
(3 1.694571096e-15 0)
(3 3.982780373e-16 0)
(3 -3.911614176e-16 0)
(3 -1.967644938e-15 0)
(3 -3.388660305e-15 0)
(3 -4.713480701e-15 0)
(3 -3.851637239e-15 0)
(3 -4.38959757e-16 0)
(3 8.076888713e-16 0)
(3 3.766656949e-15 0)
(3 6.413146918e-15 0)
(3 6.838498352e-15 0)
(3 4.18330056e-15 0)
(3 -3.845790731e-16 0)
(3 -1.794223306e-15 0)
(3 2.160509109e-15 0)
(3 3.598694337e-15 0)
(3 7.376116826e-15 0)
(3 1.000756902e-14 0)
(3 1.382090916e-14 0)
(3 1.764027068e-14 0)
(3 1.965681286e-14 0)
(3 1.887884365e-14 0)
(3 1.53294231e-14 0)
(3 1.232872128e-14 0)
(3 7.63348175e-15 0)
(3 3.583946695e-15 0)
(3 3.024727265e-15 0)
(3 2.784788401e-15 0)
(3 -4.584003588e-16 0)
(3 -3.621576715e-16 0)
(3 -2.640175938e-16 0)
(3 -1.202039543e-15 0)
(3 -1.213850807e-15 0)
(3 -8.756813619e-16 0)
(3 -6.780184642e-16 0)
(3 -2.715319265e-15 0)
(3 -3.090132935e-15 0)
(3 -3.877510523e-15 0)
(3 -4.795713127e-15 0)
(3 -4.215423054e-15 0)
(3 -2.495814499e-15 0)
(3 -1.05999538e-15 0)
(3 -1.381086034e-15 0)
(3 -2.275085411e-15 0)
(3 -2.332122973e-15 0)
(3 -3.44243148e-15 0)
(3 -3.181053515e-15 0)
(3 -1.128597266e-15 0)
(3 1.936419858e-15 0)
(3 5.659016576e-15 0)
(3 6.65547345e-15 0)
(3 1.065551903e-14 0)
(3 1.313969495e-14 0)
(3 1.360505586e-14 0)
(3 1.501285248e-14 0)
(3 1.237054536e-14 0)
(3 5.88259863e-15 0)
(3 -7.0981076e-16 0)
(3 -4.610752719e-15 0)
(3 -7.848962494e-15 0)
(3 -8.250386637e-15 0)
(3 -7.140305453e-15 0)
(3 -5.511559278e-15 0)
(3 -2.794589001e-15 0)
(3 -1.099992721e-15 0)
(3 1.378552523e-15 0)
(3 4.299254076e-15 0)
(3 6.989229278e-15 0)
(3 8.997016292e-15 0)
(3 1.179761591e-14 0)
(3 8.324763804e-15 0)
(3 7.051593798e-15 0)
(3 3.930483003e-15 0)
(3 2.662365868e-15 0)
(3 4.753477743e-17 0)
(3 -1.491039921e-15 0)
(3 -6.159963847e-15 0)
(3 -1.021027281e-14 0)
(3 -1.214279508e-14 0)
(3 -1.04575488e-14 0)
(3 -6.541164111e-15 0)
(3 -2.524009913e-15 0)
(3 3.471755013e-15 0)
(3 6.472016879e-15 0)
(3 8.061059117e-15 0)
(3 9.604254081e-15 0)
(3 1.053054656e-14 0)
(3 1.202071633e-14 0)
(3 1.198945553e-14 0)
(3 1.124107731e-14 0)
(3 6.969413415e-15 0)
(3 3.9065081e-15 0)
(3 8.494535734e-17 0)
(3 -8.494230274e-16 0)
(3 -7.723573517e-16 0)
(3 -3.385264584e-15 0)
(3 -3.262957732e-15 0)
(3 -3.714034755e-15 0)
(3 -2.166138124e-15 0)
(3 -1.390815013e-15 0)
(3 1.035587413e-15 0)
(3 9.493778967e-16 0)
(3 -4.885533917e-16 0)
(3 -1.337272263e-15 0)
(3 -2.364789176e-15 0)
(3 -2.288840784e-15 0)
(3 -3.294887807e-15 0)
(3 -6.442641657e-15 0)
(3 -9.503741408e-15 0)
(3 -1.528844077e-14 0)
(3 -1.675017855e-14 0)
(3 -1.440488585e-14 0)
(3 -1.122279941e-14 0)
(3 -6.269271071e-15 0)
(3 -1.298263968e-15 0)
(3 4.935367784e-15 0)
(3 1.048182542e-14 0)
(3 1.237762011e-14 0)
(3 1.490250368e-14 0)
(3 1.395836727e-14 0)
(3 1.170050312e-14 0)
(3 1.118231463e-14 0)
(3 1.107189151e-14 0)
(3 7.098727295e-15 0)
(3 2.281352061e-15 0)
(3 -3.169224514e-15 0)
(3 -6.903419402e-15 0)
(3 -7.200269261e-15 0)
(3 -7.490062535e-15 0)
(3 -7.911227071e-15 0)
(3 -4.564130742e-15 0)
(3 -4.530200256e-15 0)
(3 2.444286179e-15 0)
(3 5.770122223e-15 0)
(3 1.135423931e-14 0)
(3 1.089877902e-14 0)
(3 8.738635487e-15 0)
(3 5.345650973e-15 0)
(3 2.749205278e-15 0)
(3 -6.802691676e-16 0)
(3 -9.233038113e-16 0)
(3 -3.000798084e-15 0)
(3 -5.322934124e-15 0)
(3 -6.26294743e-15 0)
(3 -6.195301587e-15 0)
(3 -5.784082963e-15 0)
(3 -4.125401539e-15 0)
(3 -1.758192229e-15 0)
(3 7.669377955e-16 0)
(3 2.720193422e-16 0)
(3 2.04962913e-15 0)
(3 4.677667978e-15 0)
(3 6.915979619e-15 0)
(3 6.101207237e-15 0)
(3 9.355670002e-15 0)
(3 8.995825179e-15 0)
(3 6.70972069e-15 0)
(3 3.740748884e-15 0)
(3 -2.268854576e-15 0)
(3 -4.674785176e-15 0)
(3 2.719947756e-17 0)
(3 -1.564980291e-16 0)
(3 -8.423019261e-16 0)
(3 -7.339763865e-16 0)
(3 -1.477856606e-16 0)
(3 1.247368671e-16 0)
(3 -4.852666395e-16 0)
(3 -6.427553727e-16 0)
(3 -5.942595753e-16 0)
(3 -2.542687182e-15 0)
(3 -2.284004702e-15 0)
(3 -5.797091836e-15 0)
(3 -6.339715878e-15 0)
(3 -8.033945644e-15 0)
(3 -1.171685326e-14 0)
(3 -1.658855634e-14 0)
(3 -1.559917929e-14 0)
(3 -1.437263321e-14 0)
(3 -1.247148357e-14 0)
(3 -1.021835918e-14 0)
(3 -5.284683141e-15 0)
(3 -3.921254084e-15 0)
(3 1.910300056e-15 0)
(3 9.250102234e-15 0)
(3 1.241642399e-14 0)
(3 1.211582359e-14 0)
(3 1.0793998e-14 0)
(3 1.146940833e-14 0)
(3 1.242172628e-14 0)
(3 1.053108595e-14 0)
(3 5.778538025e-15 0)
(3 2.104669258e-15 0)
(3 -4.560285583e-15 0)
(3 -1.022168247e-14 0)
(3 -9.907137122e-15 0)
(3 -1.070583845e-14 0)
(3 -1.222454455e-14 0)
(3 -1.467936042e-14 0)
(3 -1.076636082e-14 0)
(3 -9.756086951e-15 0)
(3 -4.194458394e-15 0)
(3 1.127975167e-15 0)
(3 2.669764938e-15 0)
(3 3.177468346e-15 0)
(3 5.595602682e-15 0)
(3 6.709366608e-15 0)
(3 6.789944956e-15 0)
(3 1.138737826e-14 0)
(3 1.021963031e-14 0)
(3 8.286628481e-15 0)
(3 8.767923961e-15 0)
(3 8.879317535e-15 0)
(3 1.037782841e-14 0)
(3 1.028916425e-14 0)
(3 1.102473852e-14 0)
(3 1.096351596e-14 0)
(3 8.489625087e-15 0)
(3 5.554622646e-15 0)
(3 4.244212703e-15 0)
(3 8.034310443e-15 0)
(3 7.55098713e-15 0)
(3 6.684613595e-15 0)
(3 4.093616966e-15 0)
(3 1.319697775e-15 0)
(3 -4.105417316e-15 0)
(3 -1.121207345e-14 0)
(3 -1.181911303e-16 0)
(3 5.065276041e-16 0)
(3 3.825080389e-16 0)
(3 2.039346495e-16 0)
(3 -5.85890582e-16 0)
(3 -1.291571168e-15 0)
(3 -1.897895836e-15 0)
(3 -8.019413162e-16 0)
(3 9.993923197e-16 0)
(3 1.588167852e-16 0)
(3 1.249993518e-15 0)
(3 -1.12802027e-15 0)
(3 -3.555295886e-15 0)
(3 -4.450860044e-15 0)
(3 -4.690841034e-15 0)
(3 -3.077343884e-15 0)
(3 -3.227469013e-15 0)
(3 -3.851947642e-15 0)
(3 -3.49581476e-15 0)
(3 -4.07333896e-15 0)
(3 -4.937017874e-15 0)
(3 -3.889177324e-15 0)
(3 -1.613948735e-15 0)
(3 1.30282621e-15 0)
(3 5.011354129e-15 0)
(3 5.558208858e-15 0)
(3 6.252492662e-15 0)
(3 8.915939898e-15 0)
(3 9.241570643e-15 0)
(3 6.403049591e-15 0)
(3 6.192386959e-15 0)
(3 4.353170818e-15 0)
(3 4.377506881e-15 0)
(3 -9.013564929e-16 0)
(3 -4.936411158e-15 0)
(3 -5.678467227e-15 0)
(3 -6.832077381e-15 0)
(3 -9.480662457e-15 0)
(3 -1.377842345e-14 0)
(3 -1.367059448e-14 0)
(3 -1.272254108e-14 0)
(3 -7.928857456e-15 0)
(3 -6.448423656e-16 0)
(3 5.640498567e-15 0)
(3 1.297222287e-14 0)
(3 1.8940847e-14 0)
(3 1.950328903e-14 0)
(3 1.879578622e-14 0)
(3 1.62735933e-14 0)
(3 1.459992074e-14 0)
(3 1.480045508e-14 0)
(3 1.617287324e-14 0)
(3 1.508840242e-14 0)
(3 1.732321668e-14 0)
(3 1.915854139e-14 0)
(3 1.907275777e-14 0)
(3 1.41692867e-14 0)
(3 1.010981525e-14 0)
(3 7.828618663e-15 0)
(3 9.238207315e-15 0)
(3 7.800991424e-15 0)
(3 3.329741455e-15 0)
(3 -1.791413174e-15 0)
(3 -6.712652886e-15 0)
(3 -8.75839037e-15 0)
(3 -1.097893123e-14 0)
(3 1.265822949e-15 0)
(3 2.362531476e-15 0)
(3 3.697498034e-15 0)
(3 3.149686113e-15 0)
(3 2.601700911e-15 0)
(3 5.414277772e-16 0)
(3 -4.475412735e-16 0)
(3 -7.807156507e-16 0)
(3 -3.700706835e-16 0)
(3 8.932791623e-16 0)
(3 1.861875984e-15 0)
(3 -8.525523545e-16 0)
(3 -2.713889691e-15 0)
(3 -4.161515088e-15 0)
(3 -4.41689744e-15 0)
(3 -2.752526586e-15 0)
(3 -2.310260069e-15 0)
(3 -2.808212182e-15 0)
(3 -1.671590345e-15 0)
(3 -7.233438593e-16 0)
(3 -2.725380954e-16 0)
(3 -5.219408447e-16 0)
(3 -8.273836514e-16 0)
(3 3.421837611e-16 0)
(3 -7.986189923e-16 0)
(3 1.128301924e-15 0)
(3 4.779463482e-15 0)
(3 6.442253973e-15 0)
(3 9.325098583e-15 0)
(3 9.343899743e-15 0)
(3 9.670942861e-15 0)
(3 8.239837218e-15 0)
(3 8.289162375e-15 0)
(3 5.382372568e-15 0)
(3 3.738092596e-15 0)
(3 -6.618752206e-16 0)
(3 -3.933237264e-15 0)
(3 -4.864555935e-15 0)
(3 -9.119268078e-15 0)
(3 -1.297965326e-14 0)
(3 -6.792244416e-15 0)
(3 -1.408618323e-15 0)
(3 5.73059277e-15 0)
(3 8.506590465e-15 0)
(3 1.036654164e-14 0)
(3 1.291882018e-14 0)
(3 1.653371599e-14 0)
(3 1.508023413e-14 0)
(3 1.345594952e-14 0)
(3 1.301276867e-14 0)
(3 1.520734531e-14 0)
(3 1.778869914e-14 0)
(3 1.415017715e-14 0)
(3 1.196442132e-14 0)
(3 1.053945467e-14 0)
(3 7.222951779e-15 0)
(3 5.178486396e-15 0)
(3 5.41469194e-15 0)
(3 6.484716949e-15 0)
(3 6.27169358e-15 0)
(3 6.160404433e-15 0)
(3 6.348055418e-15 0)
(3 6.437582999e-15 0)
(3 3.042461912e-15 0)
(3 3.978104446e-15 0)
(3 5.842992867e-15 0)
(3 9.525917356e-17 0)
(3 2.214008815e-16 0)
(3 -2.219512806e-17 0)
(3 -3.016579643e-16 0)
(3 -1.321568671e-15 0)
(3 -2.030025082e-15 0)
(3 -4.7573678e-16 0)
(3 -9.642796133e-18 0)
(3 -4.262253866e-16 0)
(3 -8.077671896e-17 0)
(3 1.330432644e-15 0)
(3 1.273511673e-15 0)
(3 2.354938255e-16 0)
(3 1.994111102e-15 0)
(3 3.035901978e-15 0)
(3 3.57064548e-15 0)
(3 2.028934451e-15 0)
(3 1.663214296e-15 0)
(3 2.667468897e-15 0)
(3 4.852869812e-15 0)
(3 5.990566551e-15 0)
(3 3.266672684e-15 0)
(3 3.314774264e-16 0)
(3 -1.88715398e-16 0)
(3 -1.949466529e-15 0)
(3 -7.426115888e-16 0)
(3 1.592965541e-15 0)
(3 7.578303044e-16 0)
(3 2.034218727e-15 0)
(3 7.246544886e-15 0)
(3 8.507312678e-15 0)
(3 9.523047552e-15 0)
(3 8.530615577e-15 0)
(3 6.576148397e-15 0)
(3 4.687250887e-15 0)
(3 -1.72500812e-15 0)
(3 -3.782097813e-15 0)
(3 -1.974574483e-15 0)
(3 -3.123362031e-15 0)
(3 -6.132646126e-15 0)
(3 -3.374682584e-15 0)
(3 5.896333586e-15 0)
(3 1.061909008e-14 0)
(3 1.314561818e-14 0)
(3 1.435228906e-14 0)
(3 1.043752366e-14 0)
(3 6.706775117e-15 0)
(3 8.587464779e-15 0)
(3 9.772669304e-15 0)
(3 1.022318599e-14 0)
(3 9.791133564e-15 0)
(3 4.795670968e-15 0)
(3 3.619660159e-16 0)
(3 -3.38791426e-16 0)
(3 -2.996185015e-15 0)
(3 -6.094220467e-15 0)
(3 -5.488878354e-15 0)
(3 -4.46864918e-15 0)
(3 2.192095319e-16 0)
(3 5.246156197e-15 0)
(3 8.79928335e-15 0)
(3 9.41940252e-15 0)
(3 1.238325688e-14 0)
(3 1.389109015e-14 0)
(3 1.23665516e-14 0)
(3 7.548932359e-15 0)
(3 -2.026476023e-15 0)
(3 -2.243902326e-15 0)
(3 -3.283790535e-15 0)
(3 -3.595257223e-15 0)
(3 -4.362976811e-15 0)
(3 -4.746836294e-15 0)
(3 8.854376906e-16 0)
(3 3.491127353e-15 0)
(3 3.977599875e-15 0)
(3 3.327245793e-15 0)
(3 4.528776953e-15 0)
(3 5.254345263e-15 0)
(3 6.279231702e-15 0)
(3 1.226689001e-14 0)
(3 1.544635135e-14 0)
(3 1.378933562e-14 0)
(3 1.338265336e-14 0)
(3 1.205508234e-14 0)
(3 1.200575105e-14 0)
(3 1.304733336e-14 0)
(3 1.248035625e-14 0)
(3 8.1764494e-15 0)
(3 3.530197081e-15 0)
(3 1.148655842e-15 0)
(3 -4.901107063e-16 0)
(3 -3.357039958e-15 0)
(3 -5.806113421e-15 0)
(3 -4.452303923e-15 0)
(3 -2.653227513e-15 0)
(3 2.489927947e-16 0)
(3 3.920859074e-15 0)
(3 5.081385825e-15 0)
(3 5.386235805e-15 0)
(3 3.310020175e-15 0)
(3 3.04393145e-15 0)
(3 5.514233604e-15 0)
(3 5.528433369e-15 0)
(3 6.286925943e-15 0)
(3 6.549939256e-15 0)
(3 7.364391717e-15 0)
(3 8.490306697e-15 0)
(3 1.246775872e-14 0)
(3 1.504589987e-14 0)
(3 1.669335283e-14 0)
(3 1.478983236e-14 0)
(3 1.105857682e-14 0)
(3 5.535061794e-15 0)
(3 -9.51382503e-16 0)
(3 -7.092512046e-15 0)
(3 -6.628832492e-15 0)
(3 -1.158552719e-14 0)
(3 -1.724285016e-14 0)
(3 -1.533636448e-14 0)
(3 -1.436796145e-14 0)
(3 -1.766457343e-14 0)
(3 -1.836615301e-14 0)
(3 -1.519069103e-14 0)
(3 -9.387423721e-15 0)
(3 -5.694048287e-15 0)
(3 -4.029551189e-15 0)
(3 3.832259451e-16 0)
(3 2.884868903e-15 0)
(3 8.301698969e-15 0)
(3 1.220473915e-14 0)
(3 1.171804644e-14 0)
(3 6.550819458e-15 0)
(3 -5.404198326e-16 0)
(3 -7.67109833e-16 0)
(3 -1.623077565e-15 0)
(3 -1.575638353e-15 0)
(3 -9.185994768e-16 0)
(3 8.963829503e-16 0)
(3 2.352566563e-15 0)
(3 3.87901176e-15 0)
(3 6.633271531e-15 0)
(3 9.033230122e-15 0)
(3 1.094529134e-14 0)
(3 1.021432361e-14 0)
(3 1.263817304e-14 0)
(3 1.523553638e-14 0)
(3 1.461000102e-14 0)
(3 1.317382863e-14 0)
(3 1.323434495e-14 0)
(3 1.310155519e-14 0)
(3 1.286180549e-14 0)
(3 1.143491702e-14 0)
(3 9.582275051e-15 0)
(3 8.04996765e-15 0)
(3 4.7091113e-15 0)
(3 1.03917066e-15 0)
(3 6.197343801e-17 0)
(3 -2.208378427e-15 0)
(3 -3.057952257e-15 0)
(3 -2.300645902e-15 0)
(3 -2.8374546e-16 0)
(3 1.172969359e-15 0)
(3 2.484881975e-15 0)
(3 2.288402685e-15 0)
(3 3.497100903e-15 0)
(3 6.278294583e-15 0)
(3 6.708802143e-15 0)
(3 1.280566724e-14 0)
(3 1.356645648e-14 0)
(3 1.46536744e-14 0)
(3 1.847263409e-14 0)
(3 2.16273345e-14 0)
(3 1.68147111e-14 0)
(3 1.17235563e-14 0)
(3 8.724980833e-15 0)
(3 4.574250607e-15 0)
(3 3.231092107e-15 0)
(3 -1.109632389e-15 0)
(3 2.034689797e-15 0)
(3 -3.533944421e-15 0)
(3 -8.028094441e-15 0)
(3 -1.465415787e-14 0)
(3 -2.038939451e-14 0)
(3 -2.386228216e-14 0)
(3 -2.539729374e-14 0)
(3 -2.545044499e-14 0)
(3 -2.436761527e-14 0)
(3 -2.138559576e-14 0)
(3 -1.646406132e-14 0)
(3 -1.39636419e-14 0)
(3 -1.253783431e-14 0)
(3 -1.313573362e-14 0)
(3 -1.056741151e-14 0)
(3 -6.734338078e-15 0)
(3 -8.017655128e-16 0)
(3 4.467192684e-15 0)
(3 8.690128128e-15 0)
(3 1.243123938e-14 0)
(3 1.995597447e-15 0)
(3 2.807122548e-15 0)
(3 3.450809176e-15 0)
(3 4.150713803e-15 0)
(3 3.248911491e-15 0)
(3 3.534812102e-15 0)
(3 3.689044453e-15 0)
(3 5.284121621e-15 0)
(3 6.123950944e-15 0)
(3 7.889798507e-15 0)
(3 7.45945597e-15 0)
(3 8.673124467e-15 0)
(3 9.100360647e-15 0)
(3 7.564463872e-15 0)
(3 9.269871164e-15 0)
(3 1.140506594e-14 0)
(3 1.086235974e-14 0)
(3 1.077779189e-14 0)
(3 1.038227986e-14 0)
(3 7.873299386e-15 0)
(3 5.016351929e-15 0)
(3 3.068047428e-15 0)
(3 -2.945802221e-16 0)
(3 -4.292355065e-15 0)
(3 -4.340020074e-15 0)
(3 -3.784192259e-15 0)
(3 -1.7175563e-15 0)
(3 -1.526435548e-15 0)
(3 -2.430687151e-15 0)
(3 -8.706712414e-16 0)
(3 3.346693082e-15 0)
(3 6.24420212e-15 0)
(3 1.132461013e-14 0)
(3 1.555846783e-14 0)
(3 1.688764207e-14 0)
(3 1.885428485e-14 0)
(3 2.069422704e-14 0)
(3 2.543729947e-14 0)
(3 2.879467086e-14 0)
(3 2.92608255e-14 0)
(3 2.916161598e-14 0)
(3 2.360634253e-14 0)
(3 1.916538251e-14 0)
(3 1.373834827e-14 0)
(3 1.254106938e-14 0)
(3 3.715152365e-15 0)
(3 -4.831383254e-15 0)
(3 -1.331794281e-14 0)
(3 -1.519375169e-14 0)
(3 -1.760199509e-14 0)
(3 -1.788469945e-14 0)
(3 -1.929172896e-14 0)
(3 -2.41896234e-14 0)
(3 -2.672499663e-14 0)
(3 -2.422223375e-14 0)
(3 -2.129607792e-14 0)
(3 -2.072408413e-14 0)
(3 -1.919463562e-14 0)
(3 -1.504023767e-14 0)
(3 -1.219692164e-14 0)
(3 -8.717415651e-15 0)
(3 -3.747917651e-15 0)
(3 1.993846884e-15 0)
(3 5.481359298e-15 0)
(3 9.531606142e-15 0)
(3 1.678273737e-14 0)
(3 9.111447428e-16 0)
(3 3.170627662e-15 0)
(3 3.25161482e-15 0)
(3 2.722713846e-15 0)
(3 2.98386821e-15 0)
(3 2.749107367e-15 0)
(3 6.043094804e-16 0)
(3 -1.486745713e-17 0)
(3 1.24299428e-15 0)
(3 2.380318216e-15 0)
(3 2.950851228e-15 0)
(3 5.793105505e-15 0)
(3 8.112815488e-15 0)
(3 7.360134947e-15 0)
(3 8.578186212e-15 0)
(3 9.025482378e-15 0)
(3 8.204844995e-15 0)
(3 7.014002254e-15 0)
(3 6.231088314e-15 0)
(3 5.162060533e-15 0)
(3 2.41153932e-15 0)
(3 -1.779316327e-15 0)
(3 -2.473500802e-15 0)
(3 -4.34978159e-15 0)
(3 -4.632654306e-15 0)
(3 -3.156654575e-15 0)
(3 -2.184906574e-15 0)
(3 -2.084968025e-15 0)
(3 -8.745780275e-16 0)
(3 1.12930053e-15 0)
(3 2.073957895e-15 0)
(3 4.542608564e-15 0)
(3 1.090387953e-14 0)
(3 1.567562472e-14 0)
(3 1.886561949e-14 0)
(3 2.24271854e-14 0)
(3 2.307256748e-14 0)
(3 2.510406487e-14 0)
(3 2.468540419e-14 0)
(3 2.277679132e-14 0)
(3 2.170444874e-14 0)
(3 1.822388329e-14 0)
(3 1.030914957e-14 0)
(3 3.887452609e-15 0)
(3 -2.209053517e-15 0)
(3 -9.829350447e-15 0)
(3 -1.865887843e-14 0)
(3 -2.68245738e-14 0)
(3 -2.765196435e-14 0)
(3 -2.648688241e-14 0)
(3 -2.298407719e-14 0)
(3 -2.604290969e-14 0)
(3 -2.71442429e-14 0)
(3 -2.762092389e-14 0)
(3 -2.782729624e-14 0)
(3 -2.739537646e-14 0)
(3 -2.368579207e-14 0)
(3 -1.849941624e-14 0)
(3 -1.562713212e-14 0)