/*--------------------------------*- C++ -*----------------------------------*\
  =========                 |
  \\      /  F ield         | OpenFOAM: The Open Source CFD Toolbox
   \\    /   O peration     | Website:  https://openfoam.org
    \\  /    A nd           | Version:  7
     \\/     M anipulation  |
\*---------------------------------------------------------------------------*/
FoamFile
{
    version     2.0;
    format      ascii;
    class       volScalarField;
    location    "0.5";
    object      p;
}
// * * * * * * * * * * * * * * * * * * * * * * * * * * * * * * * * * * * * * //

dimensions      [1 -1 -2 0 0 0 0];

internalField   nonuniform List<scalar> 
22
(
0.9999999908
1.000000079
1.000001446
0.9999999963
0.9999999962
0.999999997
0.9999999947
0.9999999998
0.9999999992
0.9999999988
0.9999999979
1
1
1
1
1
1
1
1
1
1
1
)
;

boundaryField
{
    inlet
    {
        type            fixedValue;
        value           nonuniform 0();
    }
    outlet
    {
        type            zeroGradient;
    }
    bottom
    {
        type            slip;
    }
    top
    {
        type            slip;
    }
    obstacle
    {
        type            zeroGradient;
    }
    defaultFaces
    {
        type            empty;
    }
    procBoundary25to19
    {
        type            processor;
        value           nonuniform List<scalar> 7(1.000020373 1.000154718 1.000663956 1 1 1 1);
    }
    procBoundary25to24
    {
        type            processor;
        value           nonuniform List<scalar> 2(1 1);
    }
    procBoundary25to26
    {
        type            processor;
        value           nonuniform List<scalar> 4(1.000011542 1.000011542 1.000000018 0.999999998);
    }
    procBoundary25to30
    {
        type            processor;
        value           uniform 1;
    }
    procBoundary25to31
    {
        type            processor;
        value           nonuniform List<scalar> 8(0.9999999999 0.9999999998 1 0.9999999999 1 1 1 1);
    }
}


// ************************************************************************* //
