/*--------------------------------*- C++ -*----------------------------------*\
  =========                 |
  \\      /  F ield         | OpenFOAM: The Open Source CFD Toolbox
   \\    /   O peration     | Website:  https://openfoam.org
    \\  /    A nd           | Version:  7
     \\/     M anipulation  |
\*---------------------------------------------------------------------------*/
FoamFile
{
    version     2.0;
    format      ascii;
    class       volVectorField;
    location    "1";
    object      U;
}
// * * * * * * * * * * * * * * * * * * * * * * * * * * * * * * * * * * * * * //

dimensions      [0 1 -1 0 0 0 0];

internalField   nonuniform List<vector> 
2223
(
(3 -4.470380196e-15 0)
(3 -1.138124883e-17 0)
(3 6.042810386e-16 0)
(3 1.37617933e-15 0)
(3 2.502609735e-15 0)
(3 3.752937833e-15 0)
(3 5.042200894e-15 0)
(3 5.110261996e-15 0)
(3 4.569475352e-15 0)
(3 4.236345191e-15 0)
(3 1.01581739e-15 0)
(3 2.718563774e-16 0)
(3 -5.776779284e-16 0)
(3 -1.682289916e-15 0)
(3 -3.62689537e-15 0)
(3 -3.915740463e-15 0)
(3 -5.40128686e-15 0)
(3 -7.397047443e-15 0)
(3 -8.530269875e-15 0)
(3 -8.759217607e-15 0)
(3 -9.061717235e-15 0)
(3 -1.015824755e-14 0)
(3 -9.9542215e-15 0)
(3 -9.622222475e-15 0)
(3 -1.039090633e-14 0)
(3 -1.152005258e-14 0)
(3 -1.075619742e-14 0)
(3 -9.28410192e-15 0)
(3 -8.440312315e-15 0)
(3 -6.329461657e-15 0)
(3 -4.418535943e-15 0)
(3 -4.232411708e-15 0)
(3 -4.179563234e-15 0)
(3 -3.893271107e-15 0)
(3 -3.336033546e-15 0)
(3 1.417371296e-15 0)
(3 1.737174584e-15 0)
(3 2.287331174e-15 0)
(3 2.210543369e-15 0)
(3 2.585246529e-15 0)
(3 3.356008472e-15 0)
(3 3.022419449e-15 0)
(3 -1.23311935e-17 0)
(3 -3.355564516e-15 0)
(3 -2.209551918e-15 0)
(3 -2.824733043e-15 0)
(3 -3.659012465e-15 0)
(3 -4.932139707e-15 0)
(3 -6.441366312e-15 0)
(3 -6.821497109e-15 0)
(3 -6.824621909e-15 0)
(3 -8.137643127e-15 0)
(3 -9.236529631e-15 0)
(3 -9.765391652e-15 0)
(3 -9.184977014e-15 0)
(3 -1.037808169e-14 0)
(3 -1.117316008e-14 0)
(3 -1.050292539e-14 0)
(3 -9.795425718e-15 0)
(3 -9.116328372e-15 0)
(3 -8.422414736e-15 0)
(3 -8.323612075e-15 0)
(3 -7.555720244e-15 0)
(3 -7.010204439e-15 0)
(3 -6.487589224e-15 0)
(3 -5.137686389e-15 0)
(3 -4.192828764e-15 0)
(3 -4.015700132e-15 0)
(3 -4.069181586e-15 0)
(3 2.59132621e-15 0)
(3 1.572063739e-15 0)
(3 1.388838591e-15 0)
(3 7.407106157e-16 0)
(3 3.206251994e-16 0)
(3 2.282842349e-16 0)
(3 1.226172103e-15 0)
(3 1.746687637e-15 0)
(3 -2.329445801e-16 0)
(3 -1.380358555e-15 0)
(3 -2.81383865e-15 0)
(3 -3.86718189e-15 0)
(3 -5.20029023e-15 0)
(3 -7.429270617e-15 0)
(3 -9.394677235e-15 0)
(3 -9.573430128e-15 0)
(3 -1.000659733e-14 0)
(3 -9.609104376e-15 0)
(3 -8.562611567e-15 0)
(3 -8.284409005e-15 0)
(3 -7.747778089e-15 0)
(3 -7.561631341e-15 0)
(3 -6.536421624e-15 0)
(3 -5.493277979e-15 0)
(3 -4.713575738e-15 0)
(3 -4.97481336e-15 0)
(3 -5.836334991e-15 0)
(3 -5.85620815e-15 0)
(3 -6.184888011e-15 0)
(3 -6.434271002e-15 0)
(3 -6.458414565e-15 0)
(3 -5.236841699e-15 0)
(3 -5.497647267e-15 0)
(3 -5.215897287e-15 0)
(3 1.507780963e-15 0)
(3 1.254796041e-15 0)
(3 1.028391891e-15 0)
(3 9.505585514e-16 0)
(3 1.10963798e-15 0)
(3 1.25729173e-15 0)
(3 2.486875556e-15 0)
(3 4.750808182e-15 0)
(3 2.873433432e-15 0)
(3 8.135574902e-16 0)
(3 -6.618168312e-16 0)
(3 -1.647990773e-15 0)
(3 -3.599366517e-15 0)
(3 -6.364373601e-15 0)
(3 -7.159316629e-15 0)
(3 -9.288654636e-15 0)
(3 -9.331779736e-15 0)
(3 -8.523480159e-15 0)
(3 -6.745952614e-15 0)
(3 -5.812829173e-15 0)
(3 -4.961437027e-15 0)
(3 -4.466425384e-15 0)
(3 -4.813109697e-15 0)
(3 -4.92757617e-15 0)
(3 -4.83604125e-15 0)
(3 -4.821573951e-15 0)
(3 -4.580068516e-15 0)
(3 -4.919433882e-15 0)
(3 -5.183460085e-15 0)
(3 -5.458107058e-15 0)
(3 -5.549178303e-15 0)
(3 -4.7707022e-15 0)
(3 -4.278053928e-15 0)
(3 -3.921709688e-15 0)
(3 3.026806843e-15 0)
(3 3.279614301e-15 0)
(3 2.524638315e-15 0)
(3 2.207945464e-15 0)
(3 2.753867462e-15 0)
(3 3.191895003e-15 0)
(3 3.42227182e-15 0)
(3 4.868314637e-15 0)
(3 5.817072826e-15 0)
(3 2.051414506e-15 0)
(3 -3.804941053e-16 0)
(3 -2.425883019e-15 0)
(3 -3.358921267e-15 0)
(3 -3.456253093e-15 0)
(3 -4.321282448e-15 0)
(3 -5.245757192e-15 0)
(3 -5.00690021e-15 0)
(3 -4.812069679e-15 0)
(3 -5.763285132e-15 0)
(3 -5.864869144e-15 0)
(3 -5.8393094e-15 0)
(3 -5.483905785e-15 0)
(3 -3.95596572e-15 0)
(3 -2.938704724e-15 0)
(3 -2.44967495e-15 0)
(3 -2.543449537e-15 0)
(3 -2.036091889e-15 0)
(3 -2.886420583e-15 0)
(3 -4.379258999e-15 0)
(3 -4.811749847e-15 0)
(3 -5.001680381e-15 0)
(3 -3.726544846e-15 0)
(3 -2.297446461e-15 0)
(3 -1.064255999e-15 0)
(3 1.646417273e-15 0)
(3 2.079115009e-15 0)
(3 2.21472022e-15 0)
(3 2.281369731e-15 0)
(3 1.765494621e-15 0)
(3 4.191969794e-16 0)
(3 -3.825260773e-16 0)
(3 1.742856995e-15 0)
(3 4.079351787e-16 0)
(3 -2.375229915e-15 0)
(3 -3.006111142e-15 0)
(3 -3.141678686e-15 0)
(3 -3.15562838e-15 0)
(3 -2.891012896e-15 0)
(3 -4.259673697e-15 0)
(3 -3.51674347e-15 0)
(3 -1.620312021e-15 0)
(3 -2.618138508e-15 0)
(3 -4.387544856e-15 0)
(3 -5.021664919e-15 0)
(3 -4.956572178e-15 0)
(3 -4.800679587e-15 0)
(3 -4.586303593e-15 0)
(3 -4.183959367e-15 0)
(3 -3.409350097e-15 0)
(3 -2.847583576e-15 0)
(3 -3.24694121e-15 0)
(3 -4.25765919e-15 0)
(3 -5.009213893e-15 0)
(3 -6.320095953e-15 0)
(3 -6.064933946e-15 0)
(3 -4.811166883e-15 0)
(3 -3.662641922e-15 0)
(3 -2.359985601e-15 0)
(3 6.679848936e-16 0)
(3 3.236413944e-16 0)
(3 7.921814455e-16 0)
(3 -2.626763529e-16 0)
(3 -1.900643861e-15 0)
(3 -2.695954449e-15 0)
(3 -4.89077185e-15 0)
(3 -4.221404222e-15 0)
(3 -5.60916437e-15 0)
(3 -5.997147377e-15 0)
(3 -5.847872181e-15 0)
(3 -5.515777379e-15 0)
(3 -5.038200097e-15 0)
(3 -5.428009212e-15 0)
(3 -4.279094816e-15 0)
(3 -2.754839425e-15 0)
(3 -2.725538452e-15 0)
(3 -4.395349916e-15 0)
(3 -5.023705256e-15 0)
(3 -4.933654625e-15 0)
(3 -5.119564513e-15 0)
(3 -5.496463558e-15 0)
(3 -5.601728946e-15 0)
(3 -6.044606305e-15 0)
(3 -6.515207927e-15 0)
(3 -5.290360303e-15 0)
(3 -4.319414771e-15 0)
(3 -4.596225985e-15 0)
(3 -4.110174466e-15 0)
(3 -5.087029497e-15 0)
(3 -6.916232651e-15 0)
(3 -4.335885242e-15 0)
(3 -2.111440163e-15 0)
(3 -3.422155419e-16 0)
(3 -5.148810827e-16 0)
(3 -1.284439487e-15 0)
(3 -2.264583827e-15 0)
(3 -4.170699259e-15 0)
(3 -4.52447378e-15 0)
(3 -4.257721965e-15 0)
(3 -5.19566525e-15 0)
(3 -5.871353833e-15 0)
(3 -5.266910251e-15 0)
(3 -5.10698022e-15 0)
(3 -4.082356181e-15 0)
(3 -4.359080238e-15 0)
(3 -5.07695562e-15 0)
(3 -5.095840004e-15 0)
(3 -3.786790043e-15 0)
(3 -2.49805643e-15 0)
(3 -2.372742979e-15 0)
(3 -2.624885714e-15 0)
(3 -3.888366704e-15 0)
(3 -4.898834986e-15 0)
(3 -6.045640002e-15 0)
(3 -5.931304654e-15 0)
(3 -5.947023063e-15 0)
(3 -6.045944963e-15 0)
(3 -6.132490236e-15 0)
(3 -5.070032204e-15 0)
(3 -3.832512373e-15 0)
(3 -3.655118241e-15 0)
(3 -2.549644813e-15 0)
(3 -2.098689946e-15 0)
(3 -2.283873528e-15 0)
(3 -1.686430488e-15 0)
(3 -1.008812704e-15 0)
(3 -6.069554964e-16 0)
(3 -1.480345935e-15 0)
(3 -1.085117187e-15 0)
(3 -8.154586414e-16 0)
(3 -3.832644912e-16 0)
(3 -8.871467713e-16 0)
(3 -1.904532315e-15 0)
(3 -3.025132559e-15 0)
(3 -5.08382196e-15 0)
(3 -5.136762332e-15 0)
(3 -5.353792937e-15 0)
(3 -4.729046657e-15 0)
(3 -3.475615754e-15 0)
(3 -3.545053127e-15 0)
(3 -2.833008848e-15 0)
(3 -1.83535778e-15 0)
(3 -1.344900856e-15 0)
(3 -1.233980887e-15 0)
(3 -1.271108469e-15 0)
(3 -1.526338377e-15 0)
(3 -1.35612899e-15 0)
(3 -3.847828754e-15 0)
(3 -4.658018906e-15 0)
(3 -4.826816437e-15 0)
(3 -4.601139124e-15 0)
(3 -4.209673864e-15 0)
(3 -3.884878403e-15 0)
(3 -3.665228752e-15 0)
(3 -2.378922215e-15 0)
(3 -1.088774747e-15 0)
(3 1.309420316e-15 0)
(3 4.033624838e-15 0)
(3 2.24769706e-15 0)
(3 -2.247743568e-16 0)
(3 -1.151672466e-15 0)
(3 -1.337529549e-15 0)
(3 -1.606003113e-15 0)
(3 -1.537334696e-15 0)
(3 -1.221395661e-15 0)
(3 -1.202279189e-15 0)
(3 -2.158062949e-15 0)
(3 -3.338134887e-15 0)
(3 -3.84104995e-15 0)
(3 -3.704242386e-15 0)
(3 -3.775469236e-15 0)
(3 -4.00576351e-15 0)
(3 -2.841136875e-15 0)
(3 -4.876394769e-16 0)
(3 -8.762919815e-17 0)
(3 2.619550402e-16 0)
(3 -2.310484011e-16 0)
(3 -2.320061956e-16 0)
(3 1.175185512e-16 0)
(3 4.801162528e-16 0)
(3 -2.377695047e-16 0)
(3 -1.259302464e-15 0)
(3 -2.415288632e-15 0)
(3 -3.225207889e-15 0)
(3 -3.319016707e-15 0)
(3 -3.303160795e-15 0)
(3 -2.263651802e-15 0)
(3 -1.413246516e-15 0)
(3 -9.766426117e-16 0)
(3 -1.226109979e-15 0)
(3 -1.822472436e-16 0)
(3 9.039111828e-16 0)
(3 1.206212242e-15 0)
(3 7.234964954e-16 0)
(3 3.312008485e-16 0)
(3 1.668936052e-16 0)
(3 -8.500074417e-16 0)
(3 -2.068746915e-15 0)
(3 -2.59349872e-15 0)
(3 -4.155749618e-15 0)
(3 -4.021769598e-15 0)
(3 -3.417900142e-15 0)
(3 -2.154096594e-15 0)
(3 -4.529721508e-16 0)
(3 2.478049695e-16 0)
(3 -3.268930551e-16 0)
(3 -4.462914449e-16 0)
(3 2.876772573e-16 0)
(3 1.99321123e-16 0)
(3 2.078224562e-16 0)
(3 -1.872591768e-16 0)
(3 5.192803957e-17 0)
(3 3.430052314e-16 0)
(3 -5.175825473e-16 0)
(3 -1.664510653e-15 0)
(3 -1.440881606e-15 0)
(3 -1.266602245e-15 0)
(3 -6.805536156e-16 0)
(3 -1.92029603e-15 0)
(3 -2.479707174e-15 0)
(3 -2.344718048e-15 0)
(3 -1.951211206e-15 0)
(3 -5.5741887e-16 0)
(3 -6.829112875e-16 0)
(3 -5.975030395e-16 0)
(3 -1.253871881e-15 0)
(3 3.614291044e-16 0)
(3 1.138125226e-15 0)
(3 1.371940618e-15 0)
(3 1.136567315e-15 0)
(3 7.098493377e-16 0)
(3 3.303142906e-16 0)
(3 -6.308158258e-16 0)
(3 -1.358896604e-15 0)
(3 -1.510124425e-15 0)
(3 -6.290332123e-16 0)
(3 6.230854551e-16 0)
(3 6.051345561e-16 0)
(3 2.744037265e-16 0)
(3 -2.295824128e-17 0)
(3 -5.201639601e-16 0)
(3 -1.088188138e-15 0)
(3 -1.762971889e-15 0)
(3 -2.144957853e-15 0)
(3 -9.502027437e-16 0)
(3 -1.219630571e-15 0)
(3 -1.983282685e-15 0)
(3 -2.699599441e-15 0)
(3 -2.888835024e-15 0)
(3 -2.128011641e-15 0)
(3 -1.910841659e-15 0)
(3 -1.972741537e-15 0)
(3 -1.942426276e-15 0)
(3 -2.688191423e-15 0)
(3 -2.98123704e-15 0)
(3 -2.941363231e-15 0)
(3 -1.839601582e-15 0)
(3 -7.886422579e-16 0)
(3 2.26087499e-16 0)
(3 3.331143787e-16 0)
(3 3.734574265e-16 0)
(3 -1.679959878e-16 0)
(3 -2.820410699e-16 0)
(3 8.818352612e-16 0)
(3 5.970414982e-16 0)
(3 3.030438818e-17 0)
(3 -3.748688751e-16 0)
(3 -3.904985204e-16 0)
(3 -2.161269975e-16 0)
(3 1.153326166e-16 0)
(3 3.219304605e-17 0)
(3 1.962600655e-16 0)
(3 5.367294881e-16 0)
(3 1.392770507e-15 0)
(3 1.515776279e-15 0)
(3 2.640172929e-16 0)
(3 -4.801341969e-16 0)
(3 -1.54138607e-15 0)
(3 -2.894749011e-15 0)
(3 -3.556010532e-15 0)
(3 -4.108111212e-15 0)
(3 -2.978181444e-15 0)
(3 -1.371291774e-15 0)
(3 3.703335708e-17 0)
(3 -2.672414584e-16 0)
(3 -9.902146139e-16 0)
(3 -2.024521121e-15 0)
(3 -2.507371333e-15 0)
(3 -3.214884286e-15 0)
(3 -3.203731671e-15 0)
(3 -1.952280396e-15 0)
(3 -9.126391541e-16 0)
(3 -7.095739893e-17 0)
(3 -7.25107276e-16 0)
(3 -1.707044451e-15 0)
(3 -7.94074082e-16 0)
(3 -1.107719496e-16 0)
(3 -1.012311671e-15 0)
(3 -1.278344712e-15 0)
(3 -1.627827755e-15 0)
(3 -2.297497894e-15 0)
(3 -2.730037468e-15 0)
(3 -2.522078159e-15 0)
(3 -2.348923856e-15 0)
(3 -4.925241297e-15 0)
(3 -5.045648528e-15 0)
(3 -1.327355099e-15 0)
(3 9.434776046e-16 0)
(3 8.440517164e-16 0)
(3 6.88420777e-16 0)
(3 -7.612059264e-16 0)
(3 -2.345787531e-15 0)
(3 -3.346275832e-15 0)
(3 -4.778637496e-15 0)
(3 -6.129554337e-15 0)
(3 -3.811088531e-15 0)
(3 -2.3901537e-15 0)
(3 -1.718715693e-15 0)
(3 -1.12855899e-15 0)
(3 -9.775156373e-16 0)
(3 -1.458430819e-15 0)
(3 -1.671733633e-15 0)
(3 -2.15600908e-15 0)
(3 -2.414538114e-15 0)
(3 -2.069444605e-15 0)
(3 -1.590013208e-15 0)
(3 -1.556020768e-15 0)
(3 -3.552124914e-15 0)
(3 -4.316207151e-15 0)
(3 -2.13403453e-15 0)
(3 -8.967318135e-16 0)
(3 -3.798777394e-15 0)
(3 -3.716246275e-15 0)
(3 -3.152462225e-15 0)
(3 -2.917920321e-15 0)
(3 -3.330699951e-15 0)
(3 -4.235584573e-15 0)
(3 -6.411095402e-15 0)
(3 -8.022476064e-15 0)
(3 -7.63714038e-15 0)
(3 -5.598984827e-15 0)
(3 -3.055848224e-15 0)
(3 -2.46669123e-15 0)
(3 -2.487182275e-15 0)
(3 -3.167500786e-15 0)
(3 -5.344330621e-15 0)
(3 -6.78325119e-15 0)
(3 -6.614695024e-15 0)
(3 -6.06265786e-15 0)
(3 -5.004431167e-15 0)
(3 -3.692951607e-15 0)
(3 -3.559340522e-15 0)
(3 -3.255340396e-15 0)
(3 -3.659769412e-15 0)
(3 -3.255699633e-15 0)
(3 -3.254271674e-15 0)
(3 -2.339041046e-15 0)
(3 -1.658261609e-15 0)
(3 -4.156892396e-15 0)
(3 -4.889297583e-15 0)
(3 -4.751232038e-15 0)
(3 -4.076695041e-15 0)
(3 -2.76335599e-15 0)
(3 -1.339486507e-15 0)
(3 -1.58060837e-15 0)
(3 -2.187397313e-15 0)
(3 -2.85676642e-15 0)
(3 -2.910724152e-15 0)
(3 -2.842873408e-15 0)
(3 -3.75577805e-15 0)
(3 -4.125988205e-15 0)
(3 -4.116863626e-15 0)
(3 -4.173548651e-15 0)
(3 -4.354153527e-15 0)
(3 -4.346333139e-15 0)
(3 -6.11571719e-15 0)
(3 -4.956875739e-15 0)
(3 -3.945663009e-15 0)
(3 -3.481435489e-15 0)
(3 -3.263719255e-15 0)
(3 -3.47993698e-15 0)
(3 -3.470784482e-15 0)
(3 -3.407313794e-15 0)
(3 -3.840888313e-15 0)
(3 -4.844388871e-15 0)
(3 -6.147521595e-15 0)
(3 -6.056295281e-15 0)
(3 -5.995422218e-15 0)
(3 -5.064659661e-15 0)
(3 -4.038028964e-15 0)
(3 -3.324931799e-15 0)
(3 -3.482645926e-15 0)
(3 -5.526325816e-15 0)
(3 -5.822318077e-15 0)
(3 -2.79833897e-15 0)
(3 -2.297097151e-15 0)
(3 -1.621165622e-15 0)
(3 -4.968130371e-16 0)
(3 1.38463617e-16 0)
(3 -4.66709282e-17 0)
(3 -3.186990323e-15 0)
(3 -5.195080057e-15 0)
(3 -5.127695511e-15 0)
(3 -5.690951619e-15 0)
(3 -4.232925474e-15 0)
(3 -3.529617014e-15 0)
(3 -4.243843981e-15 0)
(3 -4.957864055e-15 0)
(3 -5.022293703e-15 0)
(3 -6.625301609e-15 0)
(3 -7.97375263e-15 0)
(3 -8.815150482e-15 0)
(3 -7.988050492e-15 0)
(3 -6.508896538e-15 0)
(3 -4.829163987e-15 0)
(3 -4.273973374e-15 0)
(3 -4.713734456e-15 0)
(3 -5.12902748e-15 0)
(3 -6.441766508e-15 0)
(3 -7.065312759e-15 0)
(3 -7.016188331e-15 0)
(3 -6.713485121e-15 0)
(3 -6.575027308e-15 0)
(3 -5.756827735e-15 0)
(3 -4.564924064e-15 0)
(3 -3.667472482e-15 0)
(3 -3.26577869e-15 0)
(3 -3.830929685e-15 0)
(3 -3.933983879e-15 0)
(3 -3.60637199e-15 0)
(3 -2.98892913e-15 0)
(3 -2.147950004e-15 0)
(3 -1.437447613e-15 0)
(3 4.31529265e-16 0)
(3 -1.660266419e-15 0)
(3 -5.075513294e-15 0)
(3 -5.568137435e-15 0)
(3 -4.770057958e-15 0)
(3 -4.64245396e-15 0)
(3 -5.241109143e-15 0)
(3 -7.126095287e-15 0)
(3 -7.840589096e-15 0)
(3 -7.895523485e-15 0)
(3 -7.185166924e-15 0)
(3 -7.285618334e-15 0)
(3 -6.884046244e-15 0)
(3 -6.532179525e-15 0)
(3 -6.073631407e-15 0)
(3 -4.641159562e-15 0)
(3 -4.399870237e-15 0)
(3 -4.727084781e-15 0)
(3 -5.034546389e-15 0)
(3 -5.229162194e-15 0)
(3 -4.557718126e-15 0)
(3 -4.146030483e-15 0)
(3 -4.375400189e-15 0)
(3 -4.673960792e-15 0)
(3 -4.544822675e-15 0)
(3 -4.352615711e-15 0)
(3 -4.279832203e-15 0)
(3 -4.554062851e-15 0)
(3 -5.052594218e-15 0)
(3 -5.144880178e-15 0)
(3 -4.086015029e-15 0)
(3 -3.349472508e-15 0)
(3 -3.440472176e-15 0)
(3 -3.58452068e-15 0)
(3 -5.073367889e-15 0)
(3 -5.267466596e-15 0)
(3 -5.094323201e-15 0)
(3 -5.162214626e-15 0)
(3 -5.043768678e-15 0)
(3 -6.201656011e-15 0)
(3 -8.659949203e-15 0)
(3 -8.946979013e-15 0)
(3 -6.869236907e-15 0)
(3 -5.52651099e-15 0)
(3 -5.232210657e-15 0)
(3 -5.002737538e-15 0)
(3 -5.087311521e-15 0)
(3 -5.05405208e-15 0)
(3 -4.880246477e-15 0)
(3 -4.622201695e-15 0)
(3 -4.912495867e-15 0)
(3 -5.132662888e-15 0)
(3 -4.793946796e-15 0)
(3 -4.103905757e-15 0)
(3 -3.420775068e-15 0)
(3 -2.969631593e-15 0)
(3 -3.018871196e-15 0)
(3 -2.803133826e-15 0)
(3 -3.618083456e-15 0)
(3 -3.957417588e-15 0)
(3 -4.559039749e-15 0)
(3 -5.222439613e-15 0)
(3 -5.000978794e-15 0)
(3 -5.101506134e-15 0)
(3 -4.85137575e-15 0)
(3 -4.571305166e-15 0)
(3 -4.3202489e-15 0)
(3 -4.250007068e-15 0)
(3 -8.91596572e-16 0)
(3 -7.481621728e-16 0)
(3 -1.299030989e-15 0)
(3 -2.753917406e-15 0)
(3 -4.499151993e-15 0)
(3 -6.508468016e-15 0)
(3 -7.431001137e-15 0)
(3 -7.26154211e-15 0)
(3 -5.592495817e-15 0)
(3 -4.903837821e-15 0)
(3 -4.990090802e-15 0)
(3 -5.265648144e-15 0)
(3 -5.788599945e-15 0)
(3 -6.147843684e-15 0)
(3 -5.582058848e-15 0)
(3 -5.174592449e-15 0)
(3 -4.454405777e-15 0)
(3 -3.161768058e-15 0)
(3 -2.765339925e-15 0)
(3 -1.947764279e-15 0)
(3 -6.958930617e-16 0)
(3 -5.7331282e-16 0)
(3 -3.076435478e-16 0)
(3 5.951354928e-17 0)
(3 -2.693146741e-15 0)
(3 -4.379773978e-15 0)
(3 -6.540832931e-15 0)
(3 -6.237863374e-15 0)
(3 -5.154345721e-15 0)
(3 -4.953492437e-15 0)
(3 -5.052090153e-15 0)
(3 -5.244564927e-15 0)
(3 -4.691246329e-15 0)
(3 -4.337219099e-15 0)
(3 1.02872407e-15 0)
(3 -2.543938472e-16 0)
(3 -9.545490126e-16 0)
(3 -2.373945133e-15 0)
(3 -3.888249622e-15 0)
(3 -4.743493616e-15 0)
(3 -4.216127842e-15 0)
(3 -4.886707414e-15 0)
(3 -5.384567557e-15 0)
(3 -6.651284233e-15 0)
(3 -6.541830386e-15 0)
(3 -5.965462933e-15 0)
(3 -4.833488303e-15 0)
(3 -4.012166339e-15 0)
(3 -3.968047675e-15 0)
(3 -3.566264278e-15 0)
(3 -3.31685383e-15 0)
(3 -2.781245097e-15 0)
(3 -2.598885324e-15 0)
(3 -1.775554128e-15 0)
(3 2.343622438e-16 0)
(3 1.469742152e-15 0)
(3 1.59806849e-15 0)
(3 1.315023365e-15 0)
(3 -4.522418552e-16 0)
(3 -2.654128338e-15 0)
(3 -5.182160666e-15 0)
(3 -6.460800801e-15 0)
(3 -5.831357739e-15 0)
(3 -5.121541255e-15 0)
(3 -4.86222028e-15 0)
(3 -4.919021728e-15 0)
(3 -4.704300123e-15 0)
(3 -5.171640787e-15 0)
(3 -3.227080177e-15 0)
(3 -5.478257294e-15 0)
(3 -5.345542172e-15 0)
(3 -4.471453336e-15 0)
(3 -3.702552045e-15 0)
(3 -2.910236769e-15 0)
(3 -2.170285921e-15 0)
(3 -2.385951715e-15 0)
(3 -3.160541762e-15 0)
(3 -3.399642864e-15 0)
(3 -3.335818485e-15 0)
(3 -4.221845792e-15 0)
(3 -3.186478733e-15 0)
(3 -2.655505108e-15 0)
(3 -1.342142947e-15 0)
(3 -1.559504295e-15 0)
(3 -1.400734256e-15 0)
(3 -1.123016684e-15 0)
(3 -6.120904605e-16 0)
(3 5.657824051e-17 0)
(3 -1.098051562e-16 0)
(3 1.377499718e-16 0)
(3 1.069685574e-15 0)
(3 6.839145971e-16 0)
(3 3.932455245e-16 0)
(3 -2.101820811e-16 0)
(3 -1.207975439e-15 0)
(3 -1.192682891e-15 0)
(3 -3.091872662e-15 0)
(3 -5.404086302e-15 0)
(3 -5.501253076e-15 0)
(3 -3.162826323e-15 0)
(3 -2.313634988e-15 0)
(3 -1.621368396e-15 0)
(3 -7.955722295e-16 0)
(3 -3.052816625e-15 0)
(3 -4.73103858e-15 0)
(3 -4.147136422e-15 0)
(3 -3.672558574e-15 0)
(3 -2.757720965e-15 0)
(3 -2.853175339e-15 0)
(3 -3.298358835e-15 0)
(3 -4.030464377e-15 0)
(3 -5.235990132e-15 0)
(3 -5.686178972e-15 0)
(3 -5.479902756e-15 0)
(3 -3.919072875e-15 0)
(3 -2.823586967e-15 0)
(3 -2.278480781e-15 0)
(3 -8.137968852e-16 0)
(3 -1.770162454e-16 0)
(3 3.520775346e-16 0)
(3 1.042710621e-15 0)
(3 9.45253594e-16 0)
(3 2.77124648e-16 0)
(3 2.083036584e-16 0)
(3 4.601409308e-16 0)
(3 4.435900938e-16 0)
(3 4.051662747e-16 0)
(3 3.336069643e-16 0)
(3 1.055197061e-15 0)
(3 2.215859687e-15 0)
(3 -1.385609092e-15 0)
(3 -3.234237413e-15 0)
(3 -2.435234101e-15 0)
(3 4.451992763e-16 0)
(3 1.581886154e-15 0)
(3 1.872329427e-15 0)
(3 -1.314962414e-15 0)
(3 -2.046607354e-15 0)
(3 -1.754896124e-15 0)
(3 -3.132443371e-15 0)
(3 -4.399813544e-15 0)
(3 -5.218609703e-15 0)
(3 -6.601150404e-15 0)
(3 -7.14783661e-15 0)
(3 -4.422263096e-15 0)
(3 -4.702791352e-15 0)
(3 -5.987598943e-15 0)
(3 -6.189058584e-15 0)
(3 -6.483383855e-15 0)
(3 -5.687217543e-15 0)
(3 -5.210878809e-15 0)
(3 -4.268387136e-15 0)
(3 -3.599227138e-15 0)
(3 -3.007168401e-15 0)
(3 -1.859615025e-15 0)
(3 -1.828198225e-15 0)
(3 -7.371350364e-16 0)
(3 -4.384090615e-16 0)
(3 -3.160490308e-16 0)
(3 -6.241030128e-17 0)
(3 1.600879622e-16 0)
(3 8.036190859e-16 0)
(3 1.44568715e-15 0)
(3 1.758845069e-15 0)
(3 9.515634237e-17 0)
(3 1.167394736e-15 0)
(3 2.537346858e-15 0)
(3 3.371076046e-15 0)
(3 2.352335666e-15 0)
(3 1.738633292e-15 0)
(3 -2.162730765e-15 0)
(3 -1.36667477e-15 0)
(3 -9.143795651e-16 0)
(3 -1.946305398e-15 0)
(3 -3.758072597e-15 0)
(3 -5.243696803e-15 0)
(3 -5.988979612e-15 0)
(3 -5.430379085e-15 0)
(3 -5.671907868e-15 0)
(3 -6.601448901e-15 0)
(3 -6.473195088e-15 0)
(3 -6.473712648e-15 0)
(3 -6.30228988e-15 0)
(3 -5.577634807e-15 0)
(3 -4.298191733e-15 0)
(3 -3.690076378e-15 0)
(3 -3.462374487e-15 0)
(3 -3.662680768e-15 0)
(3 -3.37697597e-15 0)
(3 -2.024320752e-15 0)
(3 -1.52696876e-15 0)
(3 -1.059179983e-15 0)
(3 -8.7776231e-16 0)
(3 -3.304198075e-16 0)
(3 9.000906473e-16 0)
(3 2.113172578e-15 0)
(3 2.402647156e-15 0)
(3 1.97222178e-15 0)
(3 1.76889026e-15 0)
(3 3.42236647e-15 0)
(3 3.755163371e-15 0)
(3 2.920881829e-15 0)
(3 2.199261567e-15 0)
(3 1.265222464e-15 0)
(3 1.689326201e-15 0)
(3 -1.53951771e-16 0)
(3 -1.170734406e-15 0)
(3 -1.04637159e-15 0)
(3 -1.865079089e-15 0)
(3 -3.814259032e-15 0)
(3 -3.375809448e-15 0)
(3 -5.207708689e-15 0)
(3 -8.440037509e-15 0)
(3 -1.005575408e-14 0)
(3 -9.638212207e-15 0)
(3 -9.260551596e-15 0)
(3 -7.973108073e-15 0)
(3 -6.733927661e-15 0)
(3 -5.1977159e-15 0)
(3 -4.269802239e-15 0)
(3 -3.408210386e-15 0)
(3 -3.148410991e-15 0)
(3 -2.80922564e-15 0)
(3 -1.40104727e-15 0)
(3 -9.479301115e-16 0)
(3 -9.753347156e-16 0)
(3 -5.742473386e-16 0)
(3 -7.755487861e-17 0)
(3 1.568204087e-15 0)
(3 3.172830465e-15 0)
(3 4.07481897e-15 0)
(3 4.369552975e-15 0)
(3 4.925768281e-15 0)
(3 4.057811987e-15 0)
(3 3.391032002e-15 0)
(3 2.855176901e-15 0)
(3 2.206774101e-15 0)
(3 2.369627992e-15 0)
(3 4.34103113e-15 0)
(3 1.150794166e-15 0)
(3 6.448226418e-16 0)
(3 -1.808004362e-15 0)
(3 -2.847196102e-15 0)
(3 -4.384517284e-15 0)
(3 -4.947416049e-15 0)
(3 -7.05089409e-15 0)
(3 -8.689009395e-15 0)
(3 -9.324095516e-15 0)
(3 -8.858988197e-15 0)
(3 -8.730189149e-15 0)
(3 -8.473867892e-15 0)
(3 -8.647299869e-15 0)
(3 -7.369844692e-15 0)
(3 -7.030112191e-15 0)
(3 -5.616480188e-15 0)
(3 -3.293069184e-15 0)
(3 -2.553435952e-15 0)
(3 -2.370987448e-15 0)
(3 -1.828620209e-15 0)
(3 -5.763694618e-16 0)
(3 2.883703949e-16 0)
(3 9.749780689e-16 0)
(3 1.037546667e-15 0)
(3 1.079296335e-15 0)
(3 1.897226184e-15 0)
(3 2.6370333e-15 0)
(3 3.541502011e-15 0)
(3 2.503858747e-15 0)
(3 1.901396275e-15 0)
(3 1.755680897e-15 0)
(3 1.720112567e-15 0)
(3 2.06728508e-15 0)
(3 5.342799442e-15 0)
(3 6.080994183e-15 0)
(3 6.627009885e-15 0)
(3 3.949225752e-15 0)
(3 1.126167676e-15 0)
(3 -7.80098067e-16 0)
(3 -3.789804395e-15 0)
(3 -6.441695908e-15 0)
(3 -8.943980792e-15 0)
(3 -9.860543579e-15 0)
(3 -9.827679356e-15 0)
(3 -9.476226866e-15 0)
(3 -8.185813546e-15 0)
(3 -5.825127447e-15 0)
(3 -4.108027108e-15 0)
(3 -2.23568e-15 0)
(3 -2.024657585e-15 0)
(3 -1.463705998e-15 0)
(3 -2.025639973e-15 0)
(3 -1.604473649e-15 0)
(3 -2.066055846e-15 0)
(3 -1.697719302e-15 0)
(3 -1.248747297e-15 0)
(3 7.925754975e-17 0)
(3 7.127397079e-16 0)
(3 1.124507964e-15 0)
(3 1.701719459e-15 0)
(3 1.880444451e-15 0)
(3 2.678824796e-15 0)
(3 2.220190343e-15 0)
(3 1.424110908e-15 0)
(3 1.319966037e-15 0)
(3 1.667084788e-15 0)
(3 5.35127533e-16 0)
(3 7.269733434e-15 0)
(3 8.397472103e-15 0)
(3 8.128897525e-15 0)
(3 6.926229093e-15 0)
(3 5.34455337e-15 0)
(3 3.871419449e-15 0)
(3 2.018436612e-15 0)
(3 -1.518541099e-15 0)
(3 -3.084181461e-15 0)
(3 -2.015736704e-15 0)
(3 -5.747730427e-15 0)
(3 -7.870590776e-15 0)
(3 -7.710964938e-15 0)
(3 -6.38420662e-15 0)
(3 -4.663267203e-15 0)
(3 -2.946857019e-15 0)
(3 -9.300486349e-16 0)
(3 -8.487385763e-16 0)
(3 9.127733306e-17 0)
(3 1.537886425e-15 0)
(3 1.593108779e-15 0)
(3 9.639317805e-16 0)
(3 1.073262975e-15 0)
(3 1.385028204e-15 0)
(3 2.163120124e-15 0)
(3 2.596078425e-15 0)
(3 3.367507693e-15 0)
(3 3.245941445e-15 0)
(3 3.381070749e-15 0)
(3 3.109836738e-15 0)
(3 3.127256764e-15 0)
(3 3.275130268e-15 0)
(3 3.257223994e-15 0)
(3 2.14831003e-15 0)
(3 6.71761905e-15 0)
(3 6.630043464e-15 0)
(3 5.706632429e-15 0)
(3 5.057247052e-15 0)
(3 5.517534303e-15 0)
(3 6.269446875e-15 0)
(3 6.114211095e-15 0)
(3 4.395194948e-15 0)
(3 2.137292264e-15 0)
(3 1.052035725e-15 0)
(3 6.634468681e-16 0)
(3 -3.176471608e-15 0)
(3 -3.523236863e-15 0)
(3 -3.921015625e-15 0)
(3 -4.125186124e-15 0)
(3 -4.575337669e-15 0)
(3 -3.122910487e-15 0)
(3 -1.33307305e-15 0)
(3 7.150294099e-16 0)
(3 1.415320147e-15 0)
(3 2.163059556e-15 0)
(3 2.265304271e-15 0)
(3 1.914984671e-15 0)
(3 8.627198893e-16 0)
(3 -3.299369597e-16 0)
(3 -8.427108183e-16 0)
(3 5.436301088e-16 0)
(3 2.149613565e-15 0)
(3 2.440440661e-15 0)
(3 1.878455249e-15 0)
(3 1.724199022e-15 0)
(3 1.916382211e-15 0)
(3 3.008048473e-15 0)
(3 3.476579474e-15 0)
(3 4.885746813e-15 0)
(3 5.809298643e-15 0)
(3 6.459221911e-15 0)
(3 6.289383412e-15 0)
(3 5.46539039e-15 0)
(3 4.649406008e-15 0)
(3 3.572165641e-15 0)
(3 2.221017884e-15 0)
(3 6.613179108e-16 0)
(3 -2.832192966e-16 0)
(3 -6.91284075e-16 0)
(3 -1.90720963e-15 0)
(3 -4.210327474e-15 0)
(3 -3.614347667e-15 0)
(3 -3.150420247e-15 0)
(3 -2.858260915e-15 0)
(3 -1.760477234e-15 0)
(3 -1.009546551e-15 0)
(3 1.364532658e-16 0)
(3 1.198361518e-15 0)
(3 1.390699884e-15 0)
(3 1.147410203e-15 0)
(3 6.379431795e-16 0)
(3 -3.020897962e-16 0)
(3 -2.916992182e-15 0)
(3 -2.424248685e-15 0)
(3 -1.214071349e-15 0)
(3 5.584704469e-16 0)
(3 1.501578335e-15 0)
(3 1.703514457e-15 0)
(3 2.284693905e-15 0)
(3 2.662914794e-15 0)
(3 2.840735e-15 0)
(3 3.148198215e-15 0)
(3 8.296319575e-17 0)
(3 4.242558391e-17 0)
(3 9.335382523e-17 0)
(3 6.032194276e-16 0)
(3 1.30930855e-15 0)
(3 1.839227754e-15 0)
(3 1.528917091e-15 0)
(3 1.6331994e-15 0)
(3 1.829443864e-15 0)
(3 1.675193045e-15 0)
(3 -5.422263488e-16 0)
(3 -3.631103873e-15 0)
(3 -3.579208e-15 0)
(3 -2.962655237e-15 0)
(3 -1.617916674e-15 0)
(3 -2.521573463e-15 0)
(3 -2.432991493e-15 0)
(3 -2.618172649e-15 0)
(3 -2.725342548e-15 0)
(3 -2.579276271e-15 0)
(3 -2.03846658e-15 0)
(3 -1.561191852e-15 0)
(3 -1.63933744e-15 0)
(3 -1.721687523e-15 0)
(3 -1.552249818e-15 0)
(3 -1.069778296e-15 0)
(3 -7.39302475e-16 0)
(3 9.584146403e-16 0)
(3 1.651060087e-15 0)
(3 2.526392933e-15 0)
(3 3.480227255e-15 0)
(3 3.665901406e-15 0)
(3 3.526319461e-15 0)
(3 3.235941899e-15 0)
(3 -1.215777362e-15 0)
(3 -1.443005231e-15 0)
(3 -9.270549057e-16 0)
(3 -2.69500326e-16 0)
(3 7.628405908e-16 0)
(3 1.716861446e-15 0)
(3 1.428201547e-15 0)
(3 1.46181892e-15 0)
(3 1.513040951e-15 0)
(3 1.064998195e-15 0)
(3 -2.283289408e-16 0)
(3 -2.460543801e-15 0)
(3 -2.562573019e-15 0)
(3 2.337718457e-16 0)
(3 1.652983105e-15 0)
(3 1.434417423e-15 0)
(3 1.01928063e-15 0)
(3 3.277841239e-16 0)
(3 -2.504531288e-16 0)
(3 -2.998426698e-16 0)
(3 -1.774308817e-16 0)
(3 -1.701203537e-16 0)
(3 -4.769251141e-16 0)
(3 -7.926853016e-16 0)
(3 1.416822273e-16 0)
(3 8.264125063e-17 0)
(3 9.300740525e-17 0)
(3 2.747622602e-16 0)
(3 7.635702175e-16 0)
(3 1.165358138e-15 0)
(3 1.443037789e-15 0)
(3 1.485883096e-15 0)
(3 2.452138873e-15 0)
(3 2.084972074e-15 0)
(3 4.061953557e-15 0)
(3 -1.760662563e-15 0)
(3 -4.353378271e-15 0)
(3 -6.112295419e-15 0)
(3 -6.530124035e-15 0)
(3 -6.98353071e-15 0)
(3 -6.771062097e-15 0)
(3 -6.099951054e-15 0)
(3 -6.720070558e-15 0)
(3 -7.359509427e-15 0)
(3 -5.4223077e-15 0)
(3 -1.628160086e-15 0)
(3 -2.931736115e-16 0)
(3 -1.65407415e-15 0)
(3 -4.616464711e-15 0)
(3 -4.782415557e-15 0)
(3 -4.130361449e-15 0)
(3 -4.571835983e-15 0)
(3 -5.676214553e-15 0)
(3 -7.434759225e-15 0)
(3 -8.016309392e-15 0)
(3 -4.555943015e-15 0)
(3 -1.236635031e-15 0)
(3 -1.161805283e-15 0)
(3 -2.592988161e-15 0)
(3 -4.156430673e-15 0)
(3 -1.912383435e-15 0)
(3 -4.034804906e-15 0)
(3 -9.139027889e-16 0)
(3 1.731384759e-16 0)
(3 9.386867461e-16 0)
(3 2.756129852e-16 0)
(3 1.482727311e-15 0)
(3 2.736045145e-15 0)
(3 -2.913344939e-15 0)
(3 -7.407719971e-15 0)
(3 -7.427537104e-15 0)
(3 -6.886326808e-15 0)
(3 -5.567282911e-15 0)
(3 -4.319476817e-15 0)
(3 -4.677603507e-15 0)
(3 -4.172056105e-15 0)
(3 -5.616655499e-15 0)
(3 -2.904421662e-15 0)
(3 -2.656052655e-15 0)
(3 -2.07885129e-15 0)
(3 -4.45037337e-15 0)
(3 -4.951837807e-15 0)
(3 -5.103423123e-15 0)
(3 -5.257160977e-15 0)
(3 -4.878224745e-15 0)
(3 -4.435505884e-15 0)
(3 -5.560754954e-15 0)
(3 -7.213236715e-15 0)
(3 -7.173647609e-15 0)
(3 -4.726749599e-15 0)
(3 -3.669338236e-15 0)
(3 -3.321628523e-15 0)
(3 -2.452205146e-15 0)
(3 -2.936663424e-15 0)
(3 -6.390449792e-16 0)
(3 9.742944975e-17 0)
(3 -6.193358753e-16 0)
(3 -2.144028831e-15 0)
(3 -3.223233362e-15 0)
(3 -3.774804768e-15 0)
(3 -2.156495139e-15 0)
(3 -4.970792187e-15 0)
(3 -6.131179522e-15 0)
(3 -6.120540645e-15 0)
(3 -5.340986447e-15 0)
(3 -4.550726279e-15 0)
(3 -4.268943713e-15 0)
(3 -4.118933336e-15 0)
(3 -4.700659826e-16 0)
(3 7.633240274e-16 0)
(3 1.499002285e-15 0)
(3 -2.983694805e-15 0)
(3 -3.85093501e-15 0)
(3 -4.151040822e-15 0)
(3 -2.433457241e-15 0)
(3 -2.558094862e-15 0)
(3 -2.406850243e-15 0)
(3 -3.096273132e-15 0)
(3 -4.14097831e-15 0)
(3 -5.503098063e-15 0)
(3 -7.049141756e-15 0)
(3 -8.387634182e-15 0)
(3 -6.612477651e-15 0)
(3 -3.345574384e-15 0)
(3 -1.905317593e-15 0)
(3 2.294522486e-16 0)
(3 -6.195254345e-16 0)
(3 -1.500716966e-16 0)
(3 1.690853425e-17 0)
(3 1.021694176e-15 0)
(3 1.704474712e-17 0)
(3 -1.657647491e-15 0)
(3 -4.52690577e-15 0)
(3 -7.674687143e-15 0)
(3 -6.855716247e-15 0)
(3 -6.137182252e-15 0)
(3 -7.324214214e-15 0)
(3 -5.867482768e-15 0)
(3 -6.834323377e-15 0)
(3 -6.869921461e-15 0)
(3 -3.799118771e-15 0)
(3 4.501498543e-15 0)
(3 5.342408365e-15 0)
(3 3.351130172e-15 0)
(3 -1.972718174e-15 0)
(3 -2.139392622e-15 0)
(3 -3.3344505e-15 0)
(3 -4.406800728e-15 0)
(3 -3.980924917e-15 0)
(3 -3.105242119e-15 0)
(3 -2.956091626e-15 0)
(3 -3.523192e-15 0)
(3 -3.943924074e-15 0)
(3 -4.986246586e-15 0)
(3 -6.056905376e-15 0)
(3 -5.742742436e-15 0)
(3 -4.509640334e-15 0)
(3 -3.908230367e-15 0)
(3 -2.326975963e-15 0)
(3 -1.442293146e-15 0)
(3 -3.374864519e-16 0)
(3 6.719086818e-16 0)
(3 1.165230877e-15 0)
(3 1.364469133e-15 0)
(3 -3.22170982e-16 0)
(3 -5.614442741e-15 0)
(3 -9.403267572e-15 0)
(3 -1.029910135e-14 0)
(3 -5.706722323e-15 0)
(3 -6.190323694e-15 0)
(3 -6.617113531e-15 0)
(3 -5.218871521e-15 0)
(3 -3.767794543e-15 0)
(3 -1.554981694e-15 0)
(3 3.801003998e-15 0)
(3 3.946567639e-15 0)
(3 2.239254718e-15 0)
(3 -3.612221819e-15 0)
(3 -4.545688195e-15 0)
(3 -4.63689031e-15 0)
(3 -4.137872144e-15 0)
(3 -3.536234717e-15 0)
(3 -2.500313426e-15 0)
(3 -1.952173742e-15 0)
(3 -8.129821182e-16 0)
(3 -1.294388147e-15 0)
(3 -2.592771049e-15 0)
(3 -2.633929652e-15 0)
(3 -3.585843812e-15 0)
(3 -5.463985754e-15 0)
(3 -3.885163479e-15 0)
(3 -2.690671862e-15 0)
(3 -1.087572574e-15 0)
(3 4.343182002e-16 0)
(3 -1.830065438e-16 0)
(3 -2.621361811e-15 0)
(3 -2.973740382e-15 0)
(3 -4.613251224e-15 0)
(3 -7.051288567e-15 0)
(3 -8.401622047e-15 0)
(3 -8.010939266e-15 0)
(3 -7.284389639e-15 0)
(3 -6.838427728e-15 0)
(3 -4.934888874e-15 0)
(3 -1.063901791e-15 0)
(3 -9.014159501e-16 0)