/*--------------------------------*- C++ -*----------------------------------*\
  =========                 |
  \\      /  F ield         | OpenFOAM: The Open Source CFD Toolbox
   \\    /   O peration     | Website:  https://openfoam.org
    \\  /    A nd           | Version:  7
     \\/     M anipulation  |
\*---------------------------------------------------------------------------*/
FoamFile
{
    version     2.0;
    format      ascii;
    class       volVectorField;
    location    "4.1";
    object      U;
}
// * * * * * * * * * * * * * * * * * * * * * * * * * * * * * * * * * * * * * //

dimensions      [0 1 -1 0 0 0 0];

internalField   nonuniform List<vector> 
2222
(
(3 -1.972068799e-15 0)
(3 -2.23372341e-15 0)
(3 -9.702692749e-16 0)
(3 1.96308289e-16 0)
(3 2.165308146e-16 0)
(3 1.122255987e-15 0)
(3 3.177961722e-16 0)
(3 -9.501051711e-16 0)
(3 -1.503346281e-15 0)
(3 -2.302897986e-15 0)
(3 -1.380776934e-15 0)
(3 1.311542127e-15 0)
(3 3.770179448e-15 0)
(3 5.447620325e-15 0)
(3 5.320026639e-15 0)
(3 4.508184643e-15 0)
(3 4.458246291e-15 0)
(3 4.925637049e-15 0)
(3 4.832990273e-15 0)
(3 4.756707032e-15 0)
(3 4.887976159e-15 0)
(3 4.410094702e-15 0)
(3 2.307930202e-15 0)
(3 -1.178089987e-15 0)
(3 -5.716340957e-15 0)
(3 -6.516103772e-15 0)
(3 -4.583410217e-15 0)
(3 -5.386027315e-16 0)
(3 2.457688662e-15 0)
(3 2.833234473e-15 0)
(3 1.503105708e-15 0)
(3 1.046293689e-15 0)
(3 1.159642801e-16 0)
(3 6.114663733e-16 0)
(3 -5.627845635e-16 0)
(3 -1.175704003e-15 0)
(3 -5.881393175e-16 0)
(3 3.459653132e-16 0)
(3 1.028841837e-15 0)
(3 1.073868636e-16 0)
(3 -4.245987367e-16 0)
(3 -2.241095822e-15 0)
(3 -3.292309989e-15 0)
(3 -4.785074591e-15 0)
(3 -4.666725829e-15 0)
(3 2.701471941e-17 0)
(3 8.145218939e-17 0)
(3 8.515446319e-16 0)
(3 1.656813335e-15 0)
(3 2.563774234e-15 0)
(3 3.234726665e-15 0)
(3 3.910255552e-15 0)
(3 3.49577392e-15 0)
(3 2.23596272e-15 0)
(3 8.449941041e-16 0)
(3 1.531120074e-16 0)
(3 -7.346778854e-16 0)
(3 -1.599153084e-15 0)
(3 -1.632136432e-15 0)
(3 -1.283387285e-15 0)
(3 -1.174537783e-15 0)
(3 3.349066423e-16 0)
(3 9.750255434e-16 0)
(3 1.840132514e-16 0)
(3 -1.247366125e-15 0)
(3 -2.298717009e-15 0)
(3 -2.051690049e-15 0)
(3 -2.698791206e-15 0)
(3 -4.227212442e-15 0)
(3 -4.222689708e-15 0)
(3 -3.677636292e-15 0)
(3 -3.275632866e-15 0)
(3 -2.712170992e-15 0)
(3 -2.883842156e-15 0)
(3 -3.225445816e-15 0)
(3 -3.47508343e-15 0)
(3 -2.827807135e-15 0)
(3 -2.294649897e-15 0)
(3 -1.106557321e-15 0)
(3 -1.826766539e-16 0)
(3 -1.197619828e-16 0)
(3 -8.869774032e-16 0)
(3 -6.871689713e-16 0)
(3 -5.71905131e-16 0)
(3 6.998084145e-16 0)
(3 1.716554845e-15 0)
(3 2.061353633e-15 0)
(3 2.203610356e-15 0)
(3 1.430617714e-15 0)
(3 -4.078058074e-16 0)
(3 -2.023450771e-15 0)
(3 -2.9998414e-15 0)
(3 -1.857872936e-15 0)
(3 -1.105528979e-15 0)
(3 5.655469923e-16 0)
(3 8.506182766e-16 0)
(3 5.738636994e-16 0)
(3 6.484442957e-16 0)
(3 6.487511624e-16 0)
(3 5.483530574e-16 0)
(3 8.544066944e-16 0)
(3 1.131637717e-15 0)
(3 1.015415676e-15 0)
(3 1.576022882e-15 0)
(3 1.773326835e-15 0)
(3 1.645757014e-15 0)
(3 1.132305241e-15 0)
(3 1.282645624e-15 0)
(3 8.826937437e-16 0)
(3 -1.080335715e-15 0)
(3 -1.941709114e-15 0)
(3 -2.34019332e-15 0)
(3 6.238547803e-16 0)
(3 2.079187927e-15 0)
(3 4.686595135e-15 0)
(3 5.116072184e-15 0)
(3 5.278535081e-15 0)
(3 4.343591626e-15 0)
(3 2.003423365e-15 0)
(3 1.036547029e-15 0)
(3 9.374878575e-16 0)
(3 5.647968763e-16 0)
(3 1.474425135e-15 0)
(3 2.576652087e-15 0)
(3 1.918146615e-15 0)
(3 1.195847665e-15 0)
(3 1.654467969e-16 0)
(3 -4.67674734e-16 0)
(3 -4.436662361e-16 0)
(3 -1.232904332e-15 0)
(3 -1.233552398e-15 0)
(3 -7.174476391e-16 0)
(3 -1.042125601e-16 0)
(3 -1.05242271e-15 0)
(3 -2.240513814e-15 0)
(3 -2.332749433e-15 0)
(3 -3.393172569e-15 0)
(3 -3.682848396e-15 0)
(3 -5.014537791e-15 0)
(3 -5.82533035e-15 0)
(3 -6.894289574e-15 0)
(3 -6.535868573e-15 0)
(3 -6.427655947e-15 0)
(3 -5.020886746e-15 0)
(3 -2.063179429e-15 0)
(3 -1.597612058e-15 0)
(3 -1.360065413e-15 0)
(3 -3.320278585e-15 0)
(3 -3.428344423e-15 0)
(3 -2.541212647e-15 0)
(3 -6.587876683e-16 0)
(3 -6.252168343e-16 0)
(3 -1.272586086e-15 0)
(3 -1.266958918e-15 0)
(3 4.526649808e-16 0)
(3 -3.250058921e-16 0)
(3 -7.516079516e-16 0)
(3 7.910921735e-16 0)
(3 1.948573987e-15 0)
(3 4.680838083e-16 0)
(3 -1.150251834e-15 0)
(3 -1.410792675e-15 0)
(3 -9.059054882e-16 0)
(3 -2.117320188e-16 0)
(3 5.552149337e-16 0)
(3 4.500192977e-16 0)
(3 1.39481735e-16 0)
(3 -6.733212588e-16 0)
(3 3.905892351e-16 0)
(3 2.822403065e-15 0)
(3 3.968691561e-15 0)
(3 3.254959219e-15 0)
(3 3.141253063e-15 0)
(3 3.346315825e-15 0)
(3 4.272547358e-15 0)
(3 3.968743221e-15 0)
(3 2.995483469e-15 0)
(3 2.047743807e-15 0)
(3 1.04726427e-15 0)
(3 1.103683743e-15 0)
(3 2.375650325e-15 0)
(3 2.993290445e-15 0)
(3 3.001922646e-15 0)
(3 2.745808697e-15 0)
(3 1.302607871e-15 0)
(3 1.070948448e-15 0)
(3 9.28956197e-16 0)
(3 1.535742035e-15 0)
(3 1.909406274e-15 0)
(3 2.923045156e-15 0)
(3 4.341028969e-15 0)
(3 5.319562267e-15 0)
(3 3.905372184e-15 0)
(3 1.40608232e-15 0)
(3 9.259252014e-17 0)
(3 -8.939395229e-16 0)
(3 -1.353046542e-15 0)
(3 -1.436338158e-15 0)
(3 -6.098434119e-16 0)
(3 -3.503228359e-16 0)
(3 1.652971255e-16 0)
(3 1.255979016e-16 0)
(3 -6.544845601e-17 0)
(3 -1.340137122e-15 0)
(3 -3.003333343e-15 0)
(3 -3.355832669e-15 0)
(3 -4.391158571e-15 0)
(3 -4.407518703e-15 0)
(3 -3.559337081e-15 0)
(3 -2.305448609e-15 0)
(3 -2.02495319e-15 0)
(3 -8.170211214e-16 0)
(3 -7.660595629e-16 0)
(3 -1.318738124e-15 0)
(3 -1.666217696e-15 0)
(3 -1.168286595e-15 0)
(3 1.721095144e-16 0)
(3 1.878129303e-15 0)
(3 1.564008551e-15 0)
(3 -4.454569559e-16 0)
(3 -8.510390522e-16 0)
(3 -9.660942306e-16 0)
(3 -4.53047162e-16 0)
(3 1.113626693e-15 0)
(3 3.624269362e-15 0)
(3 5.537462149e-15 0)
(3 4.293660552e-15 0)
(3 9.578811671e-16 0)
(3 -1.527002051e-15 0)
(3 -1.547941806e-15 0)
(3 -2.343916622e-15 0)
(3 -2.297897064e-15 0)
(3 -5.585020854e-16 0)
(3 8.307907098e-16 0)
(3 -5.240012359e-16 0)
(3 -4.327040592e-16 0)
(3 3.490146788e-15 0)
(3 3.990769041e-15 0)
(3 4.00431539e-15 0)
(3 4.113098127e-15 0)
(3 5.041121092e-15 0)
(3 3.78047677e-15 0)
(3 1.949765379e-15 0)
(3 1.86843426e-15 0)
(3 3.545457712e-16 0)
(3 4.747830345e-16 0)
(3 -3.917379482e-16 0)
(3 -1.339887701e-15 0)
(3 -1.374883888e-15 0)
(3 -2.340121047e-15 0)
(3 -2.626578207e-15 0)
(3 -1.744796721e-15 0)
(3 -6.363343545e-16 0)
(3 -1.341868657e-16 0)
(3 1.197998491e-16 0)
(3 -2.836701758e-16 0)
(3 1.74105654e-16 0)
(3 6.946916938e-16 0)
(3 1.150492842e-15 0)
(3 1.159838187e-15 0)
(3 1.614377794e-15 0)
(3 9.22597924e-16 0)
(3 -1.850803567e-15 0)
(3 -2.931545307e-15 0)
(3 -2.988862451e-15 0)
(3 -2.174409681e-15 0)
(3 -1.139325892e-15 0)
(3 -1.011775555e-15 0)
(3 7.390739737e-16 0)
(3 2.066337651e-15 0)
(3 -2.545952715e-16 0)
(3 -1.923068164e-15 0)
(3 -1.206571624e-15 0)
(3 -8.064595883e-16 0)
(3 -1.53064195e-16 0)
(3 -3.059151552e-16 0)
(3 3.029839246e-16 0)
(3 -9.420414533e-16 0)
(3 -2.947253033e-15 0)
(3 -2.23631619e-15 0)
(3 -1.296010519e-15 0)
(3 -7.165844436e-16 0)
(3 6.533360451e-16 0)
(3 1.648548403e-15 0)
(3 7.387476275e-16 0)
(3 -5.856010119e-16 0)
(3 -2.802930245e-15 0)
(3 -2.432912354e-15 0)
(3 -2.035746139e-15 0)
(3 -6.635069167e-16 0)
(3 2.54904226e-15 0)
(3 3.848106896e-15 0)
(3 3.674015585e-15 0)
(3 1.512138667e-15 0)
(3 -1.050170533e-15 0)
(3 -4.038624391e-15 0)
(3 -6.094953822e-15 0)
(3 -6.577579642e-15 0)
(3 -5.703101447e-15 0)
(3 -4.394964251e-15 0)
(3 -3.23600987e-15 0)
(3 9.42968105e-16 0)
(3 2.168237587e-15 0)
(3 8.609034462e-16 0)
(3 1.08895875e-15 0)
(3 1.10101288e-15 0)
(3 2.463072701e-15 0)
(3 3.41125826e-15 0)
(3 2.487951268e-15 0)
(3 1.942336871e-15 0)
(3 9.007212639e-16 0)
(3 4.12845579e-16 0)
(3 -2.91284163e-17 0)
(3 -6.146787277e-16 0)
(3 -6.020226103e-16 0)
(3 -1.733068859e-15 0)
(3 -1.921353591e-15 0)
(3 -2.092772485e-15 0)
(3 -1.364375584e-15 0)
(3 -1.355617824e-15 0)
(3 -1.002160857e-15 0)
(3 -1.172574432e-15 0)
(3 -1.226427624e-15 0)
(3 -2.214228184e-15 0)
(3 -2.583894939e-15 0)
(3 -2.059345002e-15 0)
(3 -1.089647869e-15 0)
(3 3.192631263e-16 0)
(3 5.136619779e-16 0)
(3 -4.277752078e-16 0)
(3 -2.066734608e-15 0)
(3 -2.908395059e-15 0)
(3 -2.602958456e-15 0)
(3 -2.05723133e-15 0)
(3 -1.396382093e-15 0)
(3 7.249767468e-19 0)
(3 4.082983431e-16 0)
(3 -2.658749121e-16 0)
(3 -5.821484025e-16 0)
(3 -7.095607563e-16 0)
(3 5.163455644e-16 0)
(3 1.085817743e-16 0)
(3 -4.291019625e-16 0)
(3 -1.120683366e-15 0)
(3 -1.647739615e-15 0)
(3 -1.842129236e-15 0)
(3 -2.084761463e-15 0)
(3 -2.097950762e-15 0)
(3 -2.148733725e-15 0)
(3 -2.163878209e-15 0)
(3 -3.095812523e-15 0)
(3 -4.392953077e-15 0)
(3 -4.52749611e-15 0)
(3 -3.672828332e-15 0)
(3 -2.384950994e-15 0)
(3 2.045531598e-17 0)
(3 2.538765096e-15 0)
(3 3.485758406e-15 0)
(3 3.6417958e-15 0)
(3 3.405350419e-15 0)
(3 2.780271688e-15 0)
(3 1.399088683e-15 0)
(3 -5.829114864e-16 0)
(3 -1.741075825e-15 0)
(3 -2.14416388e-15 0)
(3 -1.495675955e-15 0)
(3 -2.900458553e-15 0)
(3 -4.088422014e-15 0)
(3 -2.517713849e-15 0)
(3 -1.079428789e-15 0)
(3 -1.043749152e-15 0)
(3 -7.414964701e-16 0)
(3 1.866960141e-16 0)
(3 1.401524214e-15 0)
(3 2.073060641e-15 0)
(3 2.539835e-15 0)
(3 3.067860056e-15 0)
(3 2.075096245e-17 0)
(3 1.408743226e-15 0)
(3 2.343026532e-16 0)
(3 3.788133371e-16 0)
(3 6.023673789e-16 0)
(3 -8.566504749e-16 0)
(3 -5.924881441e-16 0)
(3 -7.218572136e-16 0)
(3 -8.23550431e-16 0)
(3 -8.568947796e-16 0)
(3 -6.673665437e-16 0)
(3 -6.518413027e-16 0)
(3 -1.000882109e-15 0)
(3 -1.694928405e-15 0)
(3 -2.156997081e-15 0)
(3 -2.312124939e-15 0)
(3 -2.942668308e-15 0)
(3 -1.39849667e-15 0)
(3 -3.611287322e-16 0)
(3 -4.937576141e-16 0)
(3 1.108782206e-15 0)
(3 7.712203682e-16 0)
(3 1.237041444e-16 0)
(3 -2.260255102e-16 0)
(3 -2.471278135e-16 0)
(3 -1.266805317e-15 0)
(3 -2.556201422e-15 0)
(3 -6.716145165e-17 0)
(3 -2.192349115e-16 0)
(3 8.279017921e-16 0)
(3 4.236263461e-15 0)
(3 5.286714264e-15 0)
(3 4.310650418e-15 0)
(3 4.077987785e-15 0)
(3 2.741274994e-15 0)
(3 7.890847308e-16 0)
(3 -1.106796591e-15 0)
(3 -2.577044037e-15 0)
(3 -2.318059136e-15 0)
(3 -3.977796998e-15 0)
(3 -4.337940674e-15 0)
(3 -3.792665944e-15 0)
(3 -2.389659873e-15 0)
(3 -8.869679971e-16 0)
(3 -8.467112243e-16 0)
(3 -6.739892677e-16 0)
(3 2.436730753e-16 0)
(3 9.414663899e-16 0)
(3 4.431383123e-15 0)
(3 6.341508484e-15 0)
(3 4.965241801e-15 0)
(3 2.748620693e-15 0)
(3 6.587495595e-16 0)
(3 2.790166905e-16 0)
(3 -8.689456986e-17 0)
(3 -1.195130878e-15 0)
(3 -4.180203245e-15 0)
(3 -6.097270336e-15 0)
(3 -6.826260356e-15 0)
(3 -6.692199183e-15 0)
(3 -5.241103455e-15 0)
(3 -2.849973776e-15 0)
(3 -7.920161184e-16 0)
(3 -2.095439977e-16 0)
(3 2.347442504e-16 0)
(3 6.435051011e-16 0)
(3 3.429036284e-16 0)
(3 -4.354597082e-17 0)
(3 -9.038719253e-16 0)
(3 -7.516583138e-16 0)
(3 -6.834479227e-16 0)
(3 -1.29134064e-15 0)
(3 -5.871067615e-16 0)
(3 -5.506146678e-16 0)
(3 -6.820328341e-16 0)
(3 -8.956099546e-16 0)
(3 -1.237918305e-15 0)
(3 -1.491869923e-15 0)
(3 -1.377130387e-15 0)
(3 -8.505923205e-16 0)
(3 -1.067919376e-16 0)
(3 7.617444611e-16 0)
(3 -1.510105023e-17 0)
(3 -1.53188579e-15 0)
(3 -1.017407618e-15 0)
(3 -5.707201347e-16 0)
(3 -1.504435006e-16 0)
(3 1.762889847e-15 0)
(3 3.706090328e-15 0)
(3 3.465814848e-15 0)
(3 2.304707353e-15 0)
(3 1.090899638e-15 0)
(3 -1.016614159e-15 0)
(3 -2.03106289e-15 0)
(3 -1.501300738e-15 0)
(3 9.462221211e-16 0)
(3 3.580578167e-15 0)
(3 6.475828193e-15 0)
(3 6.385338352e-15 0)
(3 5.78581953e-15 0)
(3 5.649719562e-15 0)
(3 4.904710992e-15 0)
(3 2.772175963e-15 0)
(3 2.933516394e-16 0)
(3 -1.878258006e-15 0)
(3 -2.008910651e-15 0)
(3 -2.600722648e-15 0)
(3 -2.179064996e-15 0)
(3 -1.026086492e-15 0)
(3 1.286998376e-15 0)
(3 2.770700754e-15 0)
(3 1.649177294e-15 0)
(3 8.495471162e-16 0)
(3 8.427735828e-16 0)
(3 1.336485686e-15 0)
(3 3.049909911e-15 0)
(3 2.998055862e-15 0)
(3 8.398101498e-16 0)
(3 2.415173267e-16 0)
(3 1.219057775e-16 0)
(3 -3.013172691e-16 0)
(3 -1.262767412e-15 0)
(3 -5.04009365e-15 0)
(3 -7.136536474e-15 0)
(3 -8.219804337e-15 0)
(3 -7.020393252e-15 0)
(3 -5.580103849e-15 0)
(3 -5.205789724e-15 0)
(3 -3.377027087e-15 0)
(3 -2.205663984e-15 0)
(3 -1.508008591e-15 0)
(3 -1.379000198e-15 0)
(3 -1.106244254e-15 0)
(3 -1.454947327e-15 0)
(3 3.873703748e-17 0)
(3 -7.805058885e-16 0)
(3 -1.117560807e-15 0)
(3 2.274088244e-17 0)
(3 -2.099263064e-16 0)
(3 -8.920597147e-17 0)
(3 -2.8496201e-16 0)
(3 -6.188723204e-16 0)
(3 -9.908010535e-16 0)
(3 -1.098183307e-15 0)
(3 -1.417101584e-15 0)
(3 -1.717053642e-15 0)
(3 -3.230864472e-16 0)
(3 8.187288626e-16 0)
(3 4.373646036e-16 0)
(3 -3.894307081e-16 0)
(3 -2.624440605e-16 0)
(3 1.106226549e-16 0)
(3 9.1967638e-16 0)
(3 2.43704269e-15 0)
(3 3.664068773e-15 0)
(3 4.158906954e-15 0)
(3 2.828881923e-15 0)
(3 2.220978043e-15 0)
(3 1.083741736e-15 0)
(3 5.045188153e-16 0)
(3 -1.519755268e-15 0)
(3 -3.672598998e-15 0)
(3 -2.301025001e-16 0)
(3 1.295328854e-15 0)
(3 1.939419098e-15 0)
(3 3.647123961e-15 0)
(3 4.313459669e-15 0)
(3 3.912094273e-15 0)
(3 3.531900895e-15 0)
(3 3.05749133e-15 0)
(3 2.796481092e-15 0)
(3 1.10764831e-15 0)
(3 -8.864235412e-16 0)
(3 -2.008556573e-15 0)
(3 -2.04153935e-15 0)
(3 -6.91642771e-16 0)
(3 9.379821598e-16 0)
(3 1.743541232e-15 0)
(3 4.191327018e-15 0)
(3 4.436436645e-15 0)
(3 3.612288514e-15 0)
(3 3.754540489e-15 0)
(3 1.356857499e-15 0)
(3 -1.294101049e-15 0)
(3 -1.463557765e-15 0)
(3 -1.331653859e-15 0)
(3 -1.250179268e-15 0)
(3 -1.837806948e-15 0)
(3 -3.000285556e-15 0)
(3 -4.166811099e-15 0)
(3 -6.003498743e-15 0)
(3 -4.38770512e-15 0)
(3 -3.228101775e-15 0)
(3 -2.538288051e-15 0)
(3 -3.156897266e-15 0)
(3 -3.777411272e-15 0)
(3 -4.565764412e-15 0)
(3 -3.426986036e-15 0)
(3 -2.6109152e-15 0)
(3 -2.096100694e-15 0)
(3 -2.548617301e-15 0)
(3 -8.737107569e-16 0)
(3 -4.254742233e-16 0)
(3 4.084232282e-16 0)
(3 -1.439798874e-17 0)
(3 -1.316639574e-16 0)
(3 -4.866331436e-16 0)
(3 -9.482525703e-16 0)
(3 -1.121478697e-15 0)
(3 -1.266179216e-15 0)
(3 -7.484598296e-16 0)
(3 -8.503233004e-16 0)
(3 -1.188733958e-15 0)
(3 -4.174952689e-16 0)
(3 -9.802438234e-16 0)
(3 -2.861041391e-15 0)
(3 -2.021342523e-15 0)
(3 -5.320869568e-16 0)
(3 1.26786176e-15 0)
(3 2.439541764e-15 0)
(3 3.373609197e-15 0)
(3 2.315233552e-15 0)
(3 4.344158173e-16 0)
(3 -2.399270961e-16 0)
(3 3.761936147e-16 0)
(3 3.31683567e-17 0)
(3 5.637150371e-16 0)
(3 5.661576907e-16 0)
(3 -4.604596049e-16 0)
(3 -7.308929837e-17 0)
(3 -1.655916642e-15 0)
(3 -1.121260648e-15 0)
(3 8.596740855e-16 0)
(3 2.187456825e-15 0)
(3 1.582294877e-15 0)
(3 1.293239152e-15 0)
(3 7.106847148e-16 0)
(3 1.332921464e-15 0)
(3 1.553960805e-15 0)
(3 9.22411137e-16 0)
(3 1.515349243e-15 0)
(3 2.888091985e-15 0)
(3 1.600915065e-15 0)
(3 1.470931497e-15 0)
(3 1.538784947e-15 0)
(3 2.583757996e-15 0)
(3 2.11264605e-15 0)
(3 3.824339103e-16 0)
(3 -1.132046321e-15 0)
(3 -2.578921735e-15 0)
(3 -2.711609195e-15 0)
(3 -3.266726753e-15 0)
(3 -2.930135305e-15 0)
(3 -3.319421721e-15 0)
(3 -4.158626314e-15 0)
(3 -4.786493044e-15 0)
(3 -3.243270458e-15 0)
(3 -1.507756827e-15 0)
(3 -1.070918842e-16 0)
(3 -5.288337931e-16 0)
(3 -1.791250015e-16 0)
(3 1.268243343e-15 0)
(3 1.059055443e-15 0)
(3 -3.727796278e-16 0)
(3 -2.638168066e-15 0)
(3 -3.17191697e-15 0)
(3 -2.473660526e-15 0)
(3 -2.028770916e-15 0)
(3 -1.127364544e-15 0)
(3 -1.428003404e-15 0)
(3 -1.337539534e-15 0)
(3 -3.227774888e-16 0)
(3 -8.745261865e-16 0)
(3 -8.687997454e-16 0)
(3 -5.226766593e-16 0)
(3 -2.071782044e-16 0)
(3 -1.101013219e-16 0)
(3 -3.755150947e-16 0)
(3 -3.75979215e-16 0)
(3 1.977379761e-16 0)
(3 -7.542770616e-16 0)
(3 -1.816521318e-15 0)
(3 -1.366379694e-15 0)
(3 -1.475053474e-16 0)
(3 5.782579845e-16 0)
(3 8.431992427e-16 0)
(3 1.125400621e-15 0)
(3 5.177067318e-16 0)
(3 -6.564822596e-16 0)
(3 -1.237153407e-15 0)
(3 -8.117488161e-16 0)
(3 -9.656070518e-17 0)
(3 2.592136716e-16 0)
(3 4.104765162e-16 0)
(3 1.455690669e-15 0)
(3 3.152308814e-15 0)
(3 1.097430668e-15 0)
(3 -1.596704563e-15 0)
(3 -2.353420863e-15 0)
(3 -2.394777333e-15 0)
(3 -1.906508897e-15 0)
(3 -2.329436662e-15 0)
(3 -1.421153115e-15 0)
(3 -1.409981138e-15 0)
(3 -1.277514413e-15 0)
(3 1.87405255e-16 0)
(3 9.354661712e-16 0)
(3 2.901288271e-15 0)
(3 2.525538784e-15 0)
(3 7.049842335e-16 0)
(3 -2.095124359e-16 0)
(3 1.511928049e-16 0)
(3 2.075400895e-16 0)
(3 -2.169877161e-15 0)
(3 -2.833318739e-15 0)
(3 -3.697142229e-15 0)
(3 -5.143279107e-15 0)
(3 -4.777344488e-15 0)
(3 -4.083468185e-15 0)
(3 -3.419126795e-15 0)
(3 -3.016254333e-15 0)
(3 -2.906873817e-15 0)
(3 -2.100080602e-15 0)
(3 -1.168180298e-15 0)
(3 -5.480999723e-16 0)
(3 5.647303006e-16 0)
(3 4.737939521e-16 0)
(3 1.058449558e-15 0)
(3 3.006223088e-15 0)
(3 3.64024282e-15 0)
(3 3.54021315e-15 0)
(3 6.528918891e-16 0)
(3 -3.716582229e-15 0)
(3 -3.828815097e-15 0)
(3 -1.398269137e-15 0)
(3 -3.532643209e-16 0)
(3 -6.73735208e-17 0)
(3 -4.425340492e-16 0)
(3 4.207310072e-16 0)
(3 5.116063869e-16 0)
(3 6.707473998e-16 0)
(3 7.937577737e-16 0)
(3 6.74272706e-16 0)
(3 -3.208030576e-16 0)
(3 -8.184333181e-16 0)
(3 -1.487579769e-15 0)
(3 -1.50273798e-15 0)
(3 -2.329223987e-15 0)
(3 -1.969488999e-15 0)
(3 -1.693574591e-15 0)
(3 -1.253715611e-15 0)
(3 -2.119922137e-15 0)
(3 -4.295926529e-15 0)
(3 -4.508379684e-15 0)
(3 -3.916182957e-15 0)
(3 -2.733744871e-15 0)
(3 -2.7012721e-15 0)
(3 -2.29182406e-15 0)
(3 -2.20789167e-15 0)
(3 -1.480769573e-15 0)
(3 -2.536474025e-16 0)
(3 1.390849317e-15 0)
(3 3.716379811e-15 0)
(3 3.877320898e-15 0)
(3 4.029821395e-15 0)
(3 1.783636074e-15 0)
(3 -8.671482487e-16 0)
(3 -3.801685651e-15 0)
(3 -5.114100583e-15 0)
(3 -4.24394453e-15 0)
(3 -2.67238415e-15 0)
(3 -1.985565143e-15 0)
(3 -3.741235576e-16 0)
(3 1.876007897e-15 0)
(3 1.639904629e-15 0)
(3 -1.950788592e-16 0)
(3 -9.311813916e-16 0)
(3 -8.828935787e-16 0)
(3 -8.407422013e-16 0)
(3 -1.011779975e-15 0)
(3 -1.964902273e-15 0)
(3 -3.421227389e-15 0)
(3 -5.80671111e-15 0)
(3 -6.186327712e-15 0)
(3 -3.981200428e-15 0)
(3 -2.280095629e-15 0)
(3 -2.248883293e-15 0)
(3 -2.346021773e-15 0)
(3 -1.273848102e-15 0)
(3 -1.920796401e-16 0)
(3 5.210772419e-16 0)
(3 1.083308087e-15 0)
(3 9.613937695e-16 0)
(3 2.210674562e-15 0)
(3 1.064157695e-15 0)
(3 7.01451217e-16 0)
(3 -3.159940476e-16 0)
(3 -1.722107052e-15 0)
(3 -3.447189286e-15 0)
(3 -5.303942819e-15 0)
(3 -4.98934204e-15 0)
(3 -2.684113086e-15 0)
(3 -3.761193125e-16 0)
(3 2.753536508e-16 0)
(3 2.282376452e-17 0)
(3 4.127294527e-17 0)
(3 -4.750811209e-17 0)
(3 1.142525913e-15 0)
(3 5.148034469e-16 0)
(3 -9.326996894e-16 0)
(3 -2.090066131e-15 0)
(3 -2.115821301e-15 0)
(3 -3.22725906e-15 0)
(3 -4.165029067e-15 0)
(3 -5.397652034e-15 0)
(3 -4.69342118e-15 0)
(3 -4.77858899e-15 0)
(3 -4.575437794e-15 0)
(3 -3.758535875e-15 0)
(3 -4.544779957e-15 0)
(3 -3.999397472e-15 0)
(3 -3.88831058e-15 0)
(3 -3.590126839e-15 0)
(3 -2.786859813e-15 0)
(3 -2.260164196e-15 0)
(3 -1.71739204e-15 0)
(3 4.674231241e-17 0)
(3 1.411857228e-15 0)
(3 1.79119238e-15 0)
(3 1.514360649e-15 0)
(3 3.190438016e-15 0)
(3 2.783298055e-15 0)
(3 1.546461259e-15 0)
(3 5.305381258e-16 0)
(3 -5.588909647e-16 0)
(3 -1.912580737e-15 0)
(3 -2.352283344e-15 0)
(3 -1.871785e-15 0)
(3 -9.461806841e-16 0)
(3 8.096859907e-17 0)
(3 7.371945317e-16 0)
(3 -4.39193805e-16 0)
(3 -1.683642288e-15 0)
(3 -1.126432091e-15 0)
(3 -1.860212746e-15 0)
(3 -2.542661806e-15 0)
(3 -3.690616329e-15 0)
(3 -3.881497774e-15 0)
(3 -5.845910197e-15 0)
(3 -6.928743577e-15 0)
(3 -5.741628187e-15 0)
(3 -4.035862156e-15 0)
(3 -2.167082359e-15 0)
(3 -2.281069579e-15 0)
(3 -2.13356427e-15 0)
(3 -1.563406527e-15 0)
(3 -9.074412988e-16 0)
(3 1.273199558e-15 0)
(3 1.749833465e-15 0)
(3 8.540256318e-16 0)
(3 1.211234807e-15 0)
(3 8.980002933e-16 0)
(3 -9.611866083e-16 0)
(3 -2.034218005e-15 0)
(3 -3.843694223e-15 0)
(3 -4.1459608e-15 0)
(3 -3.738229099e-15 0)
(3 -4.687197266e-15 0)
(3 -4.393336442e-15 0)
(3 -3.426362802e-15 0)
(3 -2.961545488e-15 0)
(3 -1.741819604e-15 0)
(3 2.345275567e-16 0)
(3 1.079254446e-15 0)
(3 2.088217447e-15 0)
(3 2.768969931e-15 0)
(3 1.551841843e-15 0)
(3 8.342205712e-16 0)
(3 -8.711519871e-16 0)
(3 -1.378088944e-15 0)
(3 -1.858279061e-15 0)
(3 -3.585684249e-15 0)
(3 -5.165118391e-15 0)
(3 -5.142952965e-15 0)
(3 -3.468368017e-15 0)
(3 -1.140927196e-15 0)
(3 -4.139268749e-16 0)
(3 -1.715181566e-15 0)
(3 -2.788576616e-15 0)
(3 -2.668872543e-15 0)
(3 -2.3495673e-15 0)
(3 -1.200884611e-15 0)
(3 4.571011123e-16 0)
(3 9.393369353e-16 0)
(3 2.01595586e-16 0)
(3 -1.554249692e-15 0)
(3 -1.146279255e-15 0)
(3 -1.113975526e-15 0)
(3 -1.340764222e-15 0)
(3 1.390621556e-16 0)
(3 1.183693138e-16 0)
(3 7.551270946e-16 0)
(3 2.547606696e-15 0)
(3 3.262962813e-15 0)
(3 1.374618745e-15 0)
(3 -8.995330323e-16 0)
(3 -2.138191016e-15 0)
(3 -2.520535278e-15 0)
(3 -1.494866432e-15 0)
(3 2.002083611e-16 0)
(3 -1.874188159e-16 0)
(3 -1.611630478e-15 0)
(3 -2.80173274e-15 0)
(3 -5.423075432e-15 0)
(3 -7.171545951e-15 0)
(3 -6.384143005e-15 0)
(3 -5.278590999e-15 0)
(3 -4.668989174e-15 0)
(3 -4.494317768e-15 0)
(3 -3.270536521e-15 0)
(3 -1.868930589e-15 0)
(3 -6.588207168e-16 0)
(3 2.473186362e-17 0)
(3 2.987026082e-15 0)
(3 4.603035855e-15 0)
(3 3.463396038e-15 0)
(3 3.096886677e-15 0)
(3 1.616571844e-15 0)
(3 1.913651654e-16 0)
(3 -2.796619369e-15 0)
(3 -5.54733796e-15 0)
(3 -6.058408671e-15 0)
(3 -5.701824737e-15 0)
(3 -5.347125823e-15 0)
(3 -5.2676317e-15 0)
(3 -4.161182985e-15 0)
(3 -4.082669206e-15 0)
(3 -3.982049748e-15 0)
(3 -3.443279807e-15 0)
(3 5.607276607e-16 0)
(3 1.572209088e-15 0)
(3 9.746847609e-16 0)
(3 2.141726076e-15 0)
(3 2.435813348e-15 0)
(3 2.564128088e-15 0)
(3 1.083904828e-15 0)
(3 -8.106944801e-16 0)
(3 5.247900684e-16 0)
(3 2.262378973e-16 0)
(3 3.165490364e-17 0)
(3 6.79369509e-16 0)
(3 3.723286949e-16 0)
(3 3.448175458e-16 0)
(3 -7.431648069e-16 0)
(3 -3.091946806e-15 0)
(3 -4.085662571e-15 0)
(3 -4.029160694e-15 0)
(3 -2.891627549e-15 0)
(3 -8.520799576e-16 0)
(3 -3.136550585e-16 0)
(3 -8.601043804e-16 0)
(3 -1.205543354e-15 0)
(3 -8.260682703e-16 0)
(3 -1.258911981e-15 0)
(3 -2.791026996e-15 0)
(3 -2.343900738e-15 0)
(3 -1.685703204e-15 0)
(3 -1.468765206e-15 0)
(3 -5.219574027e-17 0)
(3 1.427303256e-15 0)
(3 1.529651749e-15 0)
(3 1.426094001e-15 0)
(3 5.084991296e-16 0)
(3 6.205458029e-16 0)
(3 1.139854049e-15 0)
(3 1.725378691e-15 0)
(3 2.52061877e-15 0)
(3 1.74277087e-15 0)
(3 2.081595712e-16 0)
(3 -8.247112961e-16 0)
(3 -3.38593316e-15 0)
(3 -4.498618319e-15 0)
(3 -3.963537799e-15 0)
(3 -3.33926826e-15 0)
(3 -3.786783254e-15 0)
(3 -3.663545008e-15 0)
(3 -3.419823854e-15 0)
(3 -8.138991217e-16 0)
(3 9.918712701e-16 0)
(3 3.584151153e-15 0)
(3 4.519169898e-15 0)
(3 3.048955524e-15 0)
(3 2.76841251e-15 0)
(3 2.282072956e-15 0)
(3 3.337796952e-16 0)
(3 -1.813966936e-15 0)
(3 -3.341837004e-15 0)
(3 -6.585220033e-15 0)
(3 -6.877821201e-15 0)
(3 -5.774945955e-15 0)
(3 -4.2572684e-15 0)
(3 -2.182284984e-15 0)
(3 -7.594207339e-16 0)
(3 -1.630181197e-15 0)
(3 -2.385179007e-15 0)
(3 -3.687132953e-15 0)
(3 -5.315089023e-16 0)
(3 -1.810571086e-15 0)
(3 -3.103395658e-15 0)
(3 -3.743357523e-15 0)
(3 -2.703250053e-15 0)
(3 -1.553834688e-15 0)
(3 -1.133018646e-15 0)
(3 -1.745557536e-15 0)
(3 -4.680495503e-16 0)
(3 1.881942386e-15 0)
(3 3.68116225e-15 0)
(3 3.953305237e-15 0)
(3 2.150813736e-15 0)
(3 -7.840475807e-16 0)
(3 -1.805467092e-15 0)
(3 -1.21388646e-15 0)
(3 -3.528586946e-15 0)
(3 -4.389267603e-15 0)
(3 -3.767943e-15 0)
(3 -3.162765745e-15 0)
(3 -3.77929911e-15 0)
(3 -2.858928504e-15 0)
(3 -2.599450285e-15 0)
(3 -2.311005448e-15 0)
(3 -1.601264435e-15 0)
(3 -1.992529468e-15 0)
(3 -3.945023047e-15 0)
(3 -4.602508032e-15 0)
(3 -4.643625892e-15 0)
(3 -4.710988525e-15 0)
(3 -4.663087219e-15 0)
(3 -3.791423811e-15 0)
(3 -2.144616227e-15 0)
(3 -1.169089854e-15 0)
(3 6.558798305e-16 0)
(3 2.803344849e-15 0)
(3 2.592504063e-15 0)
(3 2.686237668e-15 0)
(3 3.582920339e-15 0)
(3 2.996220886e-15 0)
(3 1.085198596e-15 0)
(3 2.728736122e-16 0)
(3 3.75016541e-16 0)
(3 -8.666776885e-16 0)
(3 -9.258511268e-16 0)
(3 -6.831458553e-16 0)
(3 -6.120640019e-16 0)
(3 -1.739617724e-15 0)
(3 -1.772368493e-16 0)
(3 2.594264781e-15 0)
(3 4.647398731e-15 0)
(3 3.827768196e-15 0)
(3 2.419785674e-15 0)
(3 1.004277832e-15 0)
(3 6.025889993e-16 0)
(3 -1.294039228e-15 0)
(3 -2.251698729e-15 0)
(3 -3.292243789e-15 0)
(3 -3.265783572e-15 0)
(3 -3.818116303e-15 0)
(3 -3.61452396e-15 0)
(3 -3.158536717e-15 0)
(3 -2.501406062e-15 0)
(3 -2.220116163e-15 0)
(3 -2.158598889e-15 0)
(3 -1.365959894e-15 0)
(3 -1.118422266e-15 0)
(3 -6.222449925e-16 0)
(3 -2.084312529e-15 0)
(3 -2.15593282e-15 0)
(3 -2.830309912e-15 0)
(3 -2.562895169e-15 0)
(3 -1.817462674e-15 0)
(3 -3.724688616e-16 0)
(3 5.507729105e-16 0)
(3 1.276874667e-15 0)
(3 2.364308527e-15 0)
(3 3.510071789e-15 0)
(3 2.175362126e-15 0)
(3 1.297483077e-16 0)
(3 -6.590101638e-16 0)
(3 -3.656667295e-16 0)
(3 -1.373256961e-15 0)
(3 -1.267220123e-15 0)
(3 -1.876853792e-15 0)
(3 -2.797652145e-15 0)
(3 -4.974751679e-15 0)
(3 -6.398273678e-15 0)
(3 -5.825293539e-15 0)
(3 -3.0661926e-15 0)
(3 -2.592764978e-15 0)
(3 -2.229788443e-15 0)
(3 -1.483643653e-15 0)
(3 -1.770220812e-15 0)
(3 -3.005112888e-15 0)
(3 -3.338482032e-15 0)
(3 -5.638320053e-15 0)
(3 -7.676145822e-15 0)
(3 -7.742306899e-15 0)
(3 -6.037216487e-15 0)
(3 -5.522486973e-15 0)
(3 -3.816903671e-15 0)
(3 -1.943046638e-15 0)
(3 -4.472204918e-17 0)
(3 7.21232892e-16 0)
(3 1.480962138e-15 0)
(3 1.600127559e-15 0)
(3 1.437388558e-15 0)
(3 3.143873789e-15 0)
(3 4.427221995e-15 0)
(3 3.29522798e-15 0)
(3 2.386050007e-15 0)
(3 1.6654367e-15 0)
(3 1.820048679e-16 0)
(3 -1.858328732e-15 0)
(3 -1.946386095e-15 0)
(3 -2.005295617e-15 0)
(3 -8.512217573e-16 0)
(3 1.995790021e-15 0)
(3 3.138271607e-15 0)
(3 2.923993332e-15 0)
(3 1.520020661e-15 0)
(3 -7.410624047e-16 0)
(3 -2.473130416e-15 0)
(3 -3.343439227e-15 0)
(3 -2.919487822e-15 0)
(3 -3.18219492e-15 0)
(3 -3.691158615e-15 0)
(3 -4.564153378e-15 0)
(3 -5.251409799e-15 0)
(3 -4.92662498e-15 0)
(3 -2.625592613e-15 0)
(3 -4.342443642e-16 0)
(3 5.408562508e-16 0)
(3 -1.693612013e-17 0)
(3 -2.080436166e-16 0)
(3 -9.423365784e-17 0)
(3 -4.638729896e-16 0)
(3 -3.179149693e-16 0)
(3 3.525804341e-16 0)
(3 8.603175018e-16 0)
(3 1.413074103e-15 0)
(3 1.736719922e-15 0)
(3 3.258388091e-15 0)
(3 1.61547225e-15 0)
(3 5.152160718e-16 0)
(3 6.943229037e-16 0)
(3 1.464508562e-15 0)
(3 1.086526753e-15 0)
(3 1.005033667e-15 0)
(3 1.979047956e-15 0)
(3 2.430318897e-15 0)
(3 1.818014151e-15 0)
(3 -1.104873482e-16 0)
(3 -2.101959949e-15 0)
(3 -3.595113737e-15 0)
(3 -2.465688617e-15 0)
(3 -5.90029352e-16 0)
(3 1.28166878e-16 0)
(3 3.800084871e-16 0)
(3 4.965355755e-16 0)
(3 -1.204242544e-16 0)
(3 -1.096883059e-15 0)
(3 -3.542614326e-15 0)
(3 -4.888913377e-15 0)
(3 -5.792722114e-15 0)
(3 -6.366929321e-15 0)
(3 -4.788659333e-15 0)
(3 -5.085485277e-15 0)
(3 -4.196561122e-15 0)
(3 -2.531044717e-15 0)
(3 -1.183676775e-15 0)
(3 6.522276415e-16 0)
(3 2.222744285e-15 0)
(3 3.108495799e-15 0)
(3 3.935249455e-15 0)
(3 5.89271316e-15 0)
(3 6.146654006e-15 0)
(3 4.057327801e-15 0)
(3 1.997857878e-15 0)
(3 -2.268270176e-16 0)
(3 -1.312429288e-15 0)
(3 -3.315708877e-15 0)
(3 -5.347574628e-15 0)
(3 -4.989344156e-15 0)
(3 -3.163221247e-15 0)
(3 -2.895233374e-15 0)
(3 -2.954136873e-15 0)
(3 -3.128252099e-15 0)
(3 -2.969137562e-15 0)
(3 -3.551956245e-15 0)
(3 -4.676420766e-15 0)
(3 -6.277554666e-15 0)
(3 -5.672794335e-15 0)
(3 -5.432124211e-15 0)
(3 -5.199893812e-15 0)
(3 -4.795194697e-15 0)
(3 -4.127947795e-15 0)
(3 -3.351021481e-15 0)
(3 -1.221707539e-15 0)
(3 1.207612736e-15 0)
(3 1.835847171e-16 0)
(3 6.455629658e-16 0)
(3 8.011694525e-16 0)
(3 5.301513882e-16 0)
(3 -4.120043587e-16 0)
(3 -7.763984803e-16 0)
(3 -9.810255969e-16 0)
(3 -8.583211059e-16 0)
(3 -9.623781464e-16 0)
(3 -4.891190929e-16 0)
(3 -1.153073853e-15 0)
(3 -1.244447059e-15 0)
(3 -1.487610983e-17 0)
(3 8.684131432e-16 0)
(3 3.328146258e-16 0)
(3 1.110493992e-15 0)
(3 1.77624803e-15 0)
(3 2.003297648e-15 0)
(3 1.210060951e-15 0)
(3 1.058671449e-15 0)
(3 9.604998818e-16 0)
(3 1.214880142e-15 0)
(3 9.597233426e-16 0)
(3 1.37656381e-15 0)
(3 2.201628936e-15 0)
(3 3.212020169e-15 0)
(3 2.754585807e-15 0)
(3 1.324891177e-15 0)
(3 1.03858749e-15 0)
(3 5.207312739e-16 0)
(3 -7.474396236e-16 0)
(3 -1.910294976e-15 0)
(3 -3.806680695e-15 0)
(3 -4.313036314e-15 0)
(3 -5.974419112e-15 0)
(3 -7.895582734e-15 0)
(3 -5.283019808e-15 0)
(3 2.560111591e-16 0)
(3 2.696374879e-15 0)
(3 4.505341014e-15 0)
(3 4.221180192e-15 0)
(3 3.871763659e-15 0)
(3 4.08387869e-15 0)
(3 3.882936128e-15 0)
(3 3.996911125e-15 0)
(3 2.724325441e-15 0)
(3 1.009563543e-15 0)
(3 -1.151029203e-15 0)
(3 -2.223926765e-15 0)
(3 -2.853538306e-15 0)
(3 -5.487777906e-15 0)
(3 -6.4834425e-15 0)
(3 -7.384556948e-15 0)
(3 -8.771283449e-15 0)
(3 -8.411053889e-15 0)
(3 -5.780518633e-15 0)
(3 -5.886586677e-15 0)
(3 -5.191855969e-15 0)
(3 -6.212465644e-15 0)
(3 -6.071497674e-15 0)
(3 -5.381560426e-15 0)
(3 -3.191989883e-15 0)
(3 -3.640021222e-16 0)
(3 5.064238847e-16 0)
(3 6.412951001e-16 0)
(3 2.749801813e-17 0)
(3 1.19766067e-15 0)
(3 8.27291191e-16 0)
(3 1.976116854e-15 0)
(3 2.284998667e-15 0)
(3 2.897024209e-15 0)
(3 1.708497407e-15 0)
(3 4.804919299e-16 0)
(3 -6.590439827e-16 0)
(3 -1.73619006e-15 0)
(3 -2.914240828e-15 0)
(3 -2.931406809e-15 0)
(3 -2.320849548e-15 0)
(3 -1.605977202e-15 0)
(3 -1.995693865e-15 0)
(3 -2.714540823e-15 0)
(3 -2.593818969e-15 0)
(3 -2.075465915e-15 0)
(3 -7.054091068e-16 0)
(3 -1.507073207e-16 0)
(3 3.548072765e-16 0)
(3 1.305540139e-15 0)
(3 1.072824696e-15 0)
(3 1.989602823e-15 0)
(3 2.967650386e-15 0)
(3 2.557582554e-15 0)
(3 2.598197319e-15 0)
(3 2.447015749e-15 0)
(3 1.647455431e-15 0)
(3 1.090352338e-16 0)
(3 3.177961288e-16 0)
(3 1.235820748e-15 0)
(3 4.149385537e-16 0)
(3 4.380797328e-17 0)
(3 -9.397587054e-16 0)
(3 -2.037929026e-15 0)
(3 -2.721480233e-15 0)
(3 -2.616136677e-15 0)
(3 -1.600186882e-15 0)
(3 7.621534734e-17 0)
(3 3.593022911e-15 0)
(3 3.9754207e-15 0)
(3 3.177859483e-15 0)
(3 1.24524401e-15 0)
(3 -1.199063903e-15 0)
(3 -1.301018334e-15 0)
(3 5.346895432e-16 0)
(3 1.515340143e-15 0)
(3 4.514108383e-16 0)
(3 -1.563180023e-15 0)
(3 -1.467352005e-15 0)
(3 -1.651196527e-15 0)
(3 -3.48585389e-15 0)
(3 -4.573708213e-15 0)