/*--------------------------------*- C++ -*----------------------------------*\
  =========                 |
  \\      /  F ield         | OpenFOAM: The Open Source CFD Toolbox
   \\    /   O peration     | Website:  https://openfoam.org
    \\  /    A nd           | Version:  7
     \\/     M anipulation  |
\*---------------------------------------------------------------------------*/
FoamFile
{
    version     2.0;
    format      ascii;
    class       volScalarField;
    location    "4.7";
    object      p;
}
// * * * * * * * * * * * * * * * * * * * * * * * * * * * * * * * * * * * * * //

dimensions      [1 -1 -2 0 0 0 0];

internalField   nonuniform List<scalar> 
2223
(
1.370029207
1.317210543
1.261555096
1
1
1
1
1
1
1
1.000000011
1.000000792
1.000044383
1.001137823
1.018603931
1.138908088
1.449272411
1.872273159
2.03868411
2.02948859
2.031455585
2.036934168
2.04983537
2.048465511
2.042876881
2.027495891
2.002464917
1.970257397
1.923037216
1.856485587
1.795530927
1.733066133
1.663068194
1.610427021
1.560735965
1.491453941
1.441117879
1.406588941
1.355592202
1.296980114
1
1
1
1
1
1
1
1
1.000000025
1.000002055
1.000068127
1.001987213
1.025362812
1.172171885
1.565627113
1.951512274
1.981096422
2.006806948
2.041147508
2.055797508
2.051411851
2.044595117
2.03706401
2.019810616
1.993123853
1.95239384
1.892936301
1.835477794
1.778019021
1.709398613
1.654323771
1.604362747
1.535748645
1.481238043
1.444702311
1.39483751
1.331159364
1
1
1
1
1
1
1
1
1
1.000000045
1.000002205
1.000130895
1.002672631
1.039892796
1.227902227
1.677370909
1.921925361
2.025542328
2.057652555
2.056699888
2.048614562
2.043628216
2.041097652
2.032384439
2.014428396
1.978704279
1.92458987
1.871210074
1.820452263
1.755436026
1.697234126
1.646755997
1.579526421
1.521468806
1.483305192
1.435776377
1.368622678
1
1
1
1
1
1
1
1
1
1.000000001
1.000000062
1.000006467
1.000202303
1.005843116
1.058059298
1.342830872
1.752434776
1.967152146
2.04236022
2.050062331
2.04916978
2.045486634
2.043582781
2.04230444
2.03252111
2.00179718
1.954389192
1.904774357
1.859234833
1.799458917
1.738070491
1.687069324
1.623228596
1.562994621
1.522669194
1.476658234
1.40695503
1
1
1
1
1
1
1
1
1
1
1.000000003
1.000000335
1.000014245
1.000630038
1.010392588
1.105464681
1.458454791
1.76915937
2.000149571
2.055136306
2.054234613
2.045261454
2.044804672
2.04417328
2.040581026
2.018834943
1.982172648
1.938992153
1.896443258
1.841692611
1.778648316
1.726381992
1.665526858
1.603555869
1.561649255
1.517869591
1.448261208
1
1
1
1
1
1
1
1
1
1
1
1.000000018
1.000000898
1.000054898
1.001261376
1.021281638
1.163392046
1.50660406
1.880442416
2.052618121
2.043036518
2.034111715
2.039955697
2.043677538
2.040803581
2.025101412
2.000661838
1.969222
1.93216419
1.882807908
1.8195889
1.765157168
1.707785713
1.644606703
1.599474504
1.556508481
1.488752103
1
1
1
1
1
1
1
1
1
1
1
1.000000001
1.000000039
1.000003212
1.000095282
1.002786916
1.03267477
1.223669183
1.583218141
1.973482433
2.00495345
2.030106032
2.047784116
2.051562209
2.04004797
2.026731457
2.011878389
1.991545008
1.962148558
1.919685084
1.859508651
1.802385026
1.748235756
1.686148785
1.637406385
1.594186402
1.528338319
1
1
1
1
1
1
1
1
1
1
1
1
1.000000001
1.000000094
1.000004309
1.000209916
1.004153225
1.056260735
1.267969331
1.700438572
1.968865294
2.028269423
2.042267136
2.049179819
2.04368408
2.034790286
2.024473802
2.008422358
1.98464992
1.94878656
1.89520019
1.838001884
1.786699503
1.727486758
1.674762342
1.63108236
1.569408982
1
1
1
1
1
1
1
1
1
1
1
1
1
1.000000001
1.000000119
1.000009651
1.000347751
1.00827214
1.074738589
1.346234275
1.832698635
1.955328696
2.01087333
2.046488383
2.050938323
2.044576169
2.037976443
2.023275741
2.003356452
1.972693459
1.926247427
1.872171801
1.823451139
1.768036177
1.710749841
1.665773135
1.610194996
1
1
1
1
1
1
1
1
1
1
1
1
1
1
1.000000003
1.000000339
1.000020692
1.00077233
1.012838673
1.109136882
1.504102639
1.822347358
1.980075759
2.044335237
2.050156046
2.048132195
2.046881727
2.035640269
2.023198427
1.997211676
1.955413837
1.906414079
1.860636268
1.80969433
1.748003623
1.698167485
1.648823962
1
1
1
1
1
1
1
1
1
1
1
1
1
1
1
1.000000012
1.000000968
1.000052977
1.001442498
1.023459202
1.182514671
1.578853724
1.879992507
2.027089133
2.026544537
2.018893475
2.037880106
2.046725921
2.041771155
2.017792979
1.979586543
1.937035745
1.895074726
1.849489292
1.788596135
1.731263272
1.684583268
1
1
1
1
1
1
1
1
1
1
1
1
1
1
1
1
1.000000038
1.000002802
1.000116686
1.003351783
1.040038882
1.273190293
1.609731357
1.965268527
2.00383883
2.017597245
2.036600407
2.046908797
2.047529344
2.030098442
1.998065671
1.962618612
1.924517259
1.8831309
1.827862566
1.766549318
1.720094143
1
1
1
1
1
1
1
1
1
1
1
1
1
1
1
1
1.000000001
1.000000101
1.000006779
1.000291579
1.005741489
1.073107851
1.296973291
1.723980678
1.995187118
2.021024918
2.036066276
2.041136226
2.045486865
2.032664412
2.009792824
1.982580221
1.949217477
1.910787891
1.862039625
1.801978935
1.754896609
1
1
1
1
1
1
1
1
1
1
1
1
1
1
1
1
1
1.000000002
1.000000247
1.000015342
1.000534501
1.010654651
1.092507122
1.360811094
1.841400134
1.971100218
2.012703348
2.035556097
2.045145189
2.035571078
2.021958846
2.002876739
1.974492004
1.936714528
1.891183048
1.835407364
1.788499882
1
1
1
1
1
1
1
1
1
1
1
1
1
1
1
1
1
1
1.000000006
1.000000503
1.000031785
1.000948451
1.016419663
1.11334457
1.510996097
1.867373289
1.993745633
2.041724529
2.044528156
2.040432815
2.034647588
2.018643587
1.996211778
1.963049484
1.920085038
1.868569541
1.821581471
1
1
1
1
1
1
1
1
1
1
1
1
1
1
1
1
1
1
1
1.000000013
1.000001298
1.000059616
1.001785392
1.023908744
1.198959285
1.622980609
1.887528539
2.021590178
2.036571303
2.029132027
2.026551777
2.026804605
2.017579959
1.990031499
1.948180353
1.901556078
1.856132681
1
1
1
1
1
1
1
1
1
1
1
1
1
1
1
1
1
1
1
1
1.000000047
1.000003181
1.000147236
1.003639364
1.048082981
1.309695731
1.651986968
1.969787764
2.028544247
2.018805483
2.025703211
2.027206878
2.027939317
2.012622862
1.974329363
1.930982562
1.888431143
1
1
1
1
1
1
1
1
1
1
1
1
1
1
1
1
1
1
1
1
1.000000002
1.00000015
1.000010378
1.000377669
1.008013883
1.089427636
1.339968932
1.756531976
1.999920777
2.02442338
2.02928966
2.02603932
2.028676301
2.019988623
1.992087912
1.956428875
1.918519483
1
1
1
1
1
1
1
1
1
1
1
1
1
1
1
1
1
1
1
1
1
1.000000005
1.000000512
1.000025248
1.000827636
1.014247049
1.111408895
1.397878668
1.844129196
1.976131981
2.018308201
2.0361362
2.036167855
2.023746916
2.005767521
1.980626487
1.950552306
1
1
1
1
1
1
1
1
1
1
1
1
1
1
1
1
1
1
1
1
1
1
1.000000014
1.000000945
1.000048609
1.001334031
1.019909786
1.130874233
1.53867808
1.861409491
1.984242139
2.03717216
2.036668938
2.028801975
2.023962939
2.007720413
1.978798026
1
1
1
1
1
1
1
1
1
1
1
1
1
1
1
1
1
1
1
1
1
1
1
1.00000002
1.00000172
1.00007837
1.002148731
1.027072776
1.214677778
1.636267062
1.907214757
2.024833574
2.035168072
2.03228083
2.026657329
2.014248777
1.996966894
1
1
1
1
1
1
1
1
1
1
1
1
1
1
1
1
1
1
1
1
1
1
1
1
1.000000052
1.000003831
1.000171211
1.004108443
1.05460333
1.336876627
1.674212328
1.964275591
2.020443716
2.028384504
2.02796148
2.019618652
2.011407741
1
1
1
1
1
1
1
1
1
1
1
1
1
1
1
1
1
1
1
1
1
1
1
1
1.000000002
1.000000194
1.000012933
1.000474933
1.009502147
1.10596213
1.372204686
1.791603805
1.985446378
2.018779937
2.025303757
2.022537424
2.018705111
1
1
1
1
1
1
1
1
1
1
1
1
1
1
1
1
1
1
1
1
1
1
1
1
1
1.000000009
1.000000783
1.000037762
1.001089728
1.018794256
1.129295524
1.445489278
1.858324561
1.985506353
2.021680603
2.034457071
2.023753605
1
1
1
1
1
1
1
1
1
1
1
1
1
1
1
1
1
1
1
1
1
1
1
1
1
1
1.000000027
1.000001709
1.000072139
1.001913459
1.024984488
1.154886102
1.58742087
1.866168998
1.990634014
2.033702424
2.027604624
1
1
1
1
1
1
1
1
1
1
1
1
1
1
1
1
1
1
1
1
1
1
1
1
1
1
1
1.000000039
1.000002643
1.000114735
1.002842172
1.032348691
1.252069126
1.650156296
1.919541333
2.021386969
2.029121414
1
1
1
1
1
1
1
1
1
1
1
1
1
1
1
1
1
1
1
1
1
1
1
1
1
1
1
1.000000001
1.000000071
1.000005244
1.000220864
1.004907057
1.065919951
1.35559344
1.692357573
1.969639411
2.009917797
1
1
1
1
1
1
1
1
1
1
1
1
1
1
1
1
1
1
1
1
1
1
1
1
1
1
1
1
1.000000003
1.000000258
1.000016193
1.000588715
1.011539524
1.120090664
1.376973723
1.811737146
1.98370591
1
1
1
1
1
1
1
1
1
1
1
1
1
1
1
1
1
1
1
1
1
1
1
1
1
1
1
1
1
1.000000014
1.000001063
1.000050989
1.001379033
1.022474784
1.13327037
1.47445621
1.874003242
1
1
1
1
1
1
1
1
1
1
1
1
1
1
1
1
1
1
1
1
1
1
1
1
1
1
1
1
1
1
1.000000044
1.000002573
1.00009583
1.002354536
1.027204254
1.171322166
1.623193093
1
1
1
1
1
1
1
1
1
1
1
1
1
1
1
1
1
1
1
1
1
1
1
1
1
1
1
1
1
1
1.000000001
1.000000061
1.000003585
1.000143038
1.00338864
1.037453732
1.287916672
1
1
1
1
1
1
1
1
1
1
1
1
1
1
1
1
1
1
1
1
1
1
1
1
1
1
1
1
1
1
1
1.000000001
1.000000096
1.000006784
1.000293669
1.006020034
1.081995694
1
1
1
1
1
1
1
1
1
1
1
1
1
1
1
1
1
1
1
1
1
1
1
1
1
1
1
1
1
1
1
1
1.000000004
1.000000361
1.000022919
1.000754327
1.014745455
1
1
1
1
1
1
1
1
1
1
1
1
1
1
1
1
1
1
1
1
1
1
1
1
1
1
1
1
1
1
1
1
1
1.00000002
1.000001516
1.0000649
1.001769014
1
1
1
1
1
1
1
1
1
1
1
1
1
1
1
1
1
1
1
1
1
1
1
1
1
1
1
1
1
1
1
1
1
1.000000001
1.000000061
1.000003212
1.000123312
1
1
1
1
1
1
1
1
1
1
1
1
1
1
1
1
1
1
1
1
1
1
1
1
1
1
1
1
1
1
1
1
1
1
1.000000001
1.000000079
1.000004789
1
1
1
1
1
1
1
1
1
1
1
1
1
1
1
1
1
1
1
1
1
1
1
1
1
1
1
1
1
1
1
1
1
1
1
1.000000001
1.000000143
1
1
1
1
1
1
1
1
1
1
1
1
1
1
1
1
1
1
1
1
1
1
1
1
1
1
1
1
1
1
1
1
1
1
1
1
1.000000006
1
1
1
1
1
1
1
1
1
1
1
1
1
1
1
1
1
1
1
1
1
1
1
1
1
1
1
1
1
1
1
1
1
1
1
1
1
1
1
1
1
1
1
1
1
1
1
1
1
1
1
1
1
1
1
1
1
1
1
1
1
1
1
1
1
1
1
1
1
1
1
1
1
1
1
1
1
1
1
1
1
1
1
1
1
1
1
1
1
1
1
1
1
1
1
1
1
1
1
1
1
1
1
1
1
1
1
1
1
1
1
1
1
1
1
1
1
1
1
1
1
1
1
1
1
1
1
1
1
1
1
1
1
1
1
1
1
1
1
1
1
1
1
1
1
1
1
1
1
1
1
1
1
1
1
1
1
1
1
1
1
1
1
1
1
1
1
1
1
1
1
1
1
1
1
1
1
1
1
1
1
1
1
1
1
1
1
1
1
1
1
1
1
1
1
1
1
1
1
1
1
1
1
1
1
1
1
1
1
1
1
1
1
1
1
1
1
1
1
1
1
1
1
1
1
1
1
1
1
1
1
1
1
1
1
1
1
1
1
1
1
1
1
1
1
1
1
1
1
1
1
1
1
1
1
1
1
1
1
1
1
1
1
1
1
1
1
1
1
1
1
1
1
1
1
1
1
1
1
1
1
1
1
1
1
1
1
1
1
1
1
1
1
1
1
1
1
1
1
1
1
1
1
1
1
1
1
1
1
1
1
1
1
1
1
1
1
1
1
1
1
1
1
1
1
1
1
1
1
1
1
1
1
1
1
1
1
1
1
1
1
1
1
1
1
1
1
1
1
1
1
1
1
1
1
1
1
1
1
1
1
1
1
1
1
1
1
1
1
1
1
1
1
1
1
1
1
1
1
1
1
1
1
1
1
1
1
1
1
1
1
1
1
1
1
1
1
1
1
1
1
1
1
1
1
1
1
1
1
1
1
1
1
1
1
1
1
1
1
1
1
1
1
1
1
1
1
1
1
1
1
1
1
1
1
1
1
1
1
1
1
1
1
1
1
1
1
1
1
1
1
1
1
1
1
1
1
1
1
1
1
1
1
1
1
1
1
1
1
1
1
1
1
1
1
1
1
1
1
1
1
1
1
1
1
1
1
1
1
1
1
1
1
1
1
1
1
1
1
1
1
1
1
1
1
1
1
1
1
1
1
1
1
1
1
1
1
1
1
1
1
1
1
1
1
1
1
1
1
1
1
1
1
1
1
1
1
1
1
1
1
1
1
1
1
1
1
1
1
1
1
1
1
1
1
1
1
1
1
1
1
1
1
1
1
1
1
1
1
1
1
1
1
1
1
1
1
1
1
1
1
1
1
1
1
1
1
1
1
1
1
1
1
1
1
1
1
1
1
1
1
1
1
1
1
1
1
1
1
1
1
1
1
1
1
1
1
1
1
1
1
1
1
1
1
1
1
1
1
1
1
1
1
1
1
1
1
1
1
1
1
1
1
1
1
1
1
1
1
1
1
1
1
1
1
1
1
1
1
1
1
1
1
1
1
1
1
1
1
1
1
1
1
1
1
1
1
1
1
1
1
1
1
1
1
1
1
1
1
1
1
1
1
1
1
1
1
1
1
1
1
1
1
1
1
1
1
1
1
1
1
1
1
1
1
1
1
1
1
1
1
1
1
1
1
1
1
1
1
1
1
1
1
1
1
1
1
1
1
1
1
1
1
1
1
1
1
1
1
1
1
1
1
1
1
1
1
1
1
1
1
1
1
1
1
1
1
1
1
1
1
1
1
1
1
1
1
1
1
1
1
1
1
1
1
1
1
1
1
1
1
1
1
1
1
1
1
1
1
1
1
1
1
1
1
1
1
1
1
1
1
1
1
1
)
;

boundaryField
{
    inlet
    {
        type            fixedValue;
        value           nonuniform 0();
    }
    outlet
    {
        type            zeroGradient;
    }
    bottom
    {
        type            slip;
    }
    top
    {
        type            slip;
    }
    obstacle
    {
        type            zeroGradient;
    }
    defaultFaces
    {
        type            empty;
    }
    procBoundary33to26
    {
        type            processor;
        value           nonuniform List<scalar> 
25
(
1
1
1
1
1
1
1
1
1
1
1
1
1
1
1
1
1
1
1
1
1
1
1
1
1
)
;
    }
    procBoundary33to27
    {
        type            processor;
        value           nonuniform List<scalar> 
38
(
1.33207152
1.277689521
1.226320119
1
1
1
1
1
1
1.000000002
1.000000234
1.000013505
1.000530605
1.010196479
1.104740013
1.40025961
1.793980256
1.989200282
2.024310928
2.03671903
2.045672913
2.050447893
2.054046576
2.045645645
2.0295813
2.008491319
1.979364019
1.942773732
1.887638694
1.814520606
1.753004677
1.688275987
1.617784198
1.566124951
1.51642886
1.448554452
1.403157974
1.403157974
)
;
    }
    procBoundary33to32
    {
        type            processor;
        value           nonuniform List<scalar> 
35
(
1
1
1
1
1
1
1
1
1
1
1
1
1
1
1
1
1
1
1
1
1
1
1
1
1
1
1
1
1
1
1
1
1
1
1
)
;
    }
    procBoundary33to34
    {
        type            processor;
        value           nonuniform List<scalar> 
61
(
1.235268692
1.269512698
1.302077647
1.335539129
1.369272487
1.404763969
1.440694512
1.475259455
1.512309779
1.551150047
1.59137839
1.629993363
1.668848452
1.707956725
1.74579087
1.780896481
1.815696728
1.848788975
1.879525302
1.912853739
1.942489446
1.967715244
1.988200678
1.997117467
2.003035889
2.016632902
2.024399699
2.016451297
2.018131925
1.98724555
1.875498378
1.672671222
1.374738814
1.131593013
1.025505085
1.00274699
1.000179347
1.000009608
1.000000549
1.000000029
1.000000001
1
1
1
1
1
1
1
1
1
1
1
1
1
1
1
1
1
1
1
1
)
;
    }
}


// ************************************************************************* //
