/*--------------------------------*- C++ -*----------------------------------*\
  =========                 |
  \\      /  F ield         | OpenFOAM: The Open Source CFD Toolbox
   \\    /   O peration     | Website:  https://openfoam.org
    \\  /    A nd           | Version:  7
     \\/     M anipulation  |
\*---------------------------------------------------------------------------*/
FoamFile
{
    version     2.0;
    format      ascii;
    class       volVectorField;
    location    "4.7";
    object      U;
}
// * * * * * * * * * * * * * * * * * * * * * * * * * * * * * * * * * * * * * //

dimensions      [0 1 -1 0 0 0 0];

internalField   nonuniform List<vector> 
2222
(
(2.994805052 0.002429447891 0)
(2.995554572 0.002629077433 0)
(2.994705838 0.003736951434 0)
(2.994076476 0.003347183015 0)
(2.994130227 0.002716948013 0)
(2.994418092 0.001204614107 0)
(2.994321251 0.0002194984657 0)
(2.99499567 -0.0002852107154 0)
(2.995154155 -0.0002580923388 0)
(2.995320301 -0.0002736617693 0)
(2.995212438 -6.825529322e-05 0)
(2.994888817 0.0005557271177 0)
(2.994650438 0.0006554280825 0)
(2.994547202 0.0005384753833 0)
(2.994408954 0.0002236587781 0)
(2.994359804 0.000118180011 0)
(2.994368039 0.0001869699838 0)
(2.99451765 0.0004346623999 0)
(3.094744195 0.3562508622 0)
(3.094459931 0.3588435591 0)
(3.093350045 0.3561987198 0)
(3.086981593 0.3332533578 0)
(3.073957568 0.2673895732 0)
(3.04951527 0.1628710627 0)
(3.048603833 0.1245128007 0)
(3.038069952 0.0712158531 0)
(3.013882542 0.02204100747 0)
(3.005610082 0.01073816332 0)
(2.994614619 0.007420430859 0)
(2.994182371 0.006044355071 0)
(2.993650842 0.002826648298 0)
(2.994215439 0.001232518723 0)
(2.99466904 -7.462417514e-05 0)
(2.994737971 -0.0005576808703 0)
(2.994463749 -8.092225176e-05 0)
(2.994022272 0.0008048028126 0)
(2.994075548 0.001228054452 0)
(2.994525131 0.0005971565181 0)
(2.994624521 0.0002146846612 0)
(2.994925249 -0.0002846731625 0)
(2.995221446 -0.0007346646015 0)
(2.995313102 -0.0008071125946 0)
(2.995156453 -0.0005405572311 0)
(2.994833557 3.998916547e-05 0)
(2.994403076 0.0006639853674 0)
(2.994289717 0.000708187635 0)
(2.994189777 0.0005902236346 0)
(2.994110707 0.0004787045394 0)
(2.994158305 0.0005268993051 0)
(2.994369393 0.0007000250371 0)
(3.095072752 0.3599303824 0)
(3.091382605 0.3486679258 0)
(3.082002092 0.3146227775 0)
(3.04911706 0.1914769827 0)
(3.057436405 0.1332345075 0)
(3.024614116 0.003456647811 0)
(3.004054762 -0.01514881846 0)
(2.992482219 0.007943833504 0)
(2.996384846 0.003228982335 0)
(2.997452386 0.0005420631928 0)
(2.99361557 0.001971307854 0)
(2.992018875 0.003141349687 0)
(2.992068603 0.00312929543 0)
(2.99295568 0.002245576021 0)
(2.993509567 0.0008822581018 0)
(2.993789748 -0.0002533481489 0)
(2.993828736 -0.0002626711177 0)
(2.993947524 0.000126206594 0)
(2.994263851 0.0003952110179 0)
(2.994567658 0.0004516617272 0)
(2.994774267 0.0001462632984 0)
(2.994899234 -0.0002404864411 0)
(2.995094557 -0.0005817323069 0)
(2.995171277 -0.0006392552619 0)
(2.995042875 -0.0003623328008 0)
(2.994736701 0.0002857820188 0)
(2.99437397 0.00073806103 0)
(2.994163369 0.0007607025097 0)
(2.993996936 0.0007362373156 0)
(2.993896082 0.0007157653547 0)
(2.993876267 0.0007864853677 0)
(2.994066766 0.0008809282556 0)
(3.086028787 0.3282960845 0)
(3.069213266 0.262006976 0)
(3.0422147 0.1554994409 0)
(3.030528859 0.09441466532 0)
(3.031805617 0.0560643899 0)
(3.014918392 0.02094043008 0)
(3.000065656 0.005089664531 0)
(2.996078322 0.005066809476 0)
(2.995048441 0.002428310843 0)
(2.995292961 -0.002431347554 0)
(2.99404976 -0.002866574855 0)
(2.991193926 0.0003876582744 0)
(2.991636615 0.002510833725 0)
(2.992586054 0.001948988965 0)
(2.992815522 0.001299168133 0)
(2.993032778 0.0006813523877 0)
(2.993299516 0.0005614963912 0)
(2.99384661 0.0005530019535 0)
(2.994233097 0.0005147430606 0)
(2.994517534 0.0002832872621 0)
(2.994722318 2.927876347e-05 0)
(2.99482708 -0.0002873939599 0)
(2.994899982 -0.0003634761186 0)
(2.994934233 -0.0003096481402 0)
(2.994813427 6.169948228e-05 0)
(2.994543115 0.0005864274048 0)
(2.994329299 0.0008105632044 0)
(2.994118556 0.0007751223642 0)
(2.99383902 0.0006312573198 0)
(2.993717579 0.0006111237915 0)
(2.993603783 0.0006734953019 0)
(2.99372821 0.0007214266983 0)
(3.061992046 0.2159180231 0)
(3.037360163 0.1217225043 0)
(3.021878477 0.04214337478 0)
(3.010920441 -0.02051650034 0)
(2.995942919 -0.001953136148 0)
(2.994069713 0.00605758951 0)
(2.994159706 0.005587360331 0)
(2.994936873 0.005175460419 0)
(2.994672217 0.003198252505 0)
(2.99429899 0.0005499778699 0)
(2.993315858 -0.0004122526411 0)
(2.992077582 0.001129768699 0)
(2.992071759 0.0019068209 0)
(2.99227529 0.001712350623 0)
(2.992602857 0.001167233307 0)
(2.992885913 0.0005983972845 0)
(2.993055758 0.0007595491863 0)
(2.993729767 0.0006850680084 0)
(2.994055314 0.0005553497719 0)
(2.994345629 0.0002805276818 0)
(2.994504703 -0.000139055972 0)
(2.994563556 -0.0004179965045 0)
(2.994583649 -0.000466250762 0)
(2.994538197 -0.0003081988766 0)
(2.994516105 2.408262083e-05 0)
(2.994349815 0.0005409197715 0)
(2.99419233 0.0007643602973 0)
(2.993995397 0.0007679973872 0)
(2.993795117 0.000696452446 0)
(2.993585886 0.0006017832792 0)
(2.993507308 0.0005489516652 0)
(2.993557305 0.0005293541292 0)
(3.026671466 0.003553638861 0)
(3.012772851 0.02666475194 0)
(3.006410237 0.01435022302 0)
(3.003631756 0.0008203233277 0)
(3.00040616 -0.001221286325 0)
(2.994940733 0.001315092558 0)
(2.99252559 0.003002900164 0)
(2.993223279 0.00378858886 0)
(2.993948668 0.003943733633 0)
(2.993491177 0.003631546008 0)
(2.99313583 0.003132701663 0)
(2.992545915 0.002993512067 0)
(2.992198427 0.002446630473 0)
(2.992657165 0.0007282102901 0)
(2.992831193 6.088025094e-05 0)
(2.993001688 -0.0001905656311 0)
(2.993154089 -0.000192591965 0)
(2.993487407 1.7034359e-05 0)
(2.99394396 0.0001517121458 0)
(2.994067646 5.223849795e-05 0)
(2.994123629 -0.0001901373888 0)
(2.994126088 -0.0004737549978 0)
(2.994112306 -0.0005399137875 0)
(2.994082262 -0.0004517187951 0)
(2.994068253 -0.000214673818 0)
(2.994031561 0.0002759038674 0)
(2.994012111 0.0007880164807 0)
(2.993880283 0.0009124011089 0)
(2.9937435 0.0008868365324 0)
(2.993587505 0.0008489091584 0)
(2.993501983 0.0007232450267 0)
(2.993507321 0.0005089772561 0)
(3.014218099 0.02791808954 0)
(3.009549773 0.01982156215 0)
(3.000947326 0.009552425459 0)
(2.998879434 0.004696684417 0)
(2.997225547 -0.001674341973 0)
(2.99405722 -0.001439649814 0)
(2.993001292 0.0002819579509 0)
(2.99297877 0.001980923979 0)
(2.993491992 0.002820778731 0)
(2.993350001 0.003077855736 0)
(2.993099346 0.002978949811 0)
(2.99282756 0.002692960295 0)
(2.992749872 0.002115054732 0)
(2.993035775 0.000468419146 0)
(2.993117286 -0.0006834775742 0)
(2.993342734 -0.001084580117 0)
(2.993537873 -0.001223868544 0)
(2.993598076 -0.0009299205505 0)
(2.993644436 -0.0004181117416 0)
(2.993791163 -0.0001482833938 0)
(2.993652797 -0.0001736079474 0)
(2.993614899 -0.0002910044109 0)
(2.993571988 -0.0003917669005 0)
(2.993585764 -0.0003501251032 0)
(2.993622221 -0.0001293981385 0)
(2.993719186 0.0003143444216 0)
(2.993761128 0.0008863446337 0)
(2.993794399 0.00111135719 0)
(2.993714025 0.001097507894 0)
(2.99359484 0.001047612109 0)
(2.993491437 0.0009187652363 0)
(2.993558005 0.0005704188326 0)
(2.991625799 0.004892200447 0)
(2.997500892 0.003515547622 0)
(2.998489506 0.003541901105 0)
(2.994767129 0.001796381846 0)
(2.993784148 0.00103070178 0)
(2.992692286 0.001057247679 0)
(2.992178273 0.001425684382 0)
(2.992905563 0.001332538194 0)
(2.993161822 0.001242061354 0)
(2.993370955 0.001234857031 0)
(2.993169105 0.001442742455 0)
(2.993286163 0.001550546276 0)
(2.993403577 0.001226398306 0)
(2.993723611 0.0002765630585 0)
(2.993856097 -0.0004610054981 0)
(2.994030127 -0.001072508615 0)
(2.993974355 -0.001315874541 0)
(2.993772582 -0.001114482037 0)
(2.99356604 -0.0006747542323 0)
(2.993539808 -0.0003176884175 0)
(2.993325668 -5.094903033e-05 0)
(2.993186939 -4.276428653e-05 0)
(2.993080987 -0.0001099896879 0)
(2.993058311 -9.609558196e-05 0)
(2.99312738 0.0001188465 0)
(2.993325689 0.0005037014065 0)
(2.993490623 0.001044186949 0)
(2.993534877 0.001221275763 0)
(2.993622121 0.001198517474 0)
(2.993607612 0.001087871373 0)
(2.993579902 0.0008866867014 0)
(2.993661769 0.0005174305637 0)
(2.99314182 0.00105664371 0)
(2.993366686 -0.00121905267 0)
(2.994704803 -0.002561422999 0)
(2.994133504 -0.00213696212 0)
(2.99229215 0.000849400339 0)
(2.991945123 0.001595688326 0)
(2.991718564 0.002018211533 0)
(2.992203948 0.001624180604 0)
(2.993010283 0.0007751898725 0)
(2.993312232 0.0003472418292 0)
(2.993530831 0.0002736983933 0)
(2.993926932 0.0006054514292 0)
(2.994420863 0.000592232828 0)
(2.994664984 0.000260137397 0)
(2.9947669 -0.00027652016 0)
(2.994727225 -0.0008108100032 0)
(2.994333978 -0.0009214136928 0)
(2.993887858 -0.0008473799052 0)
(2.993533294 -0.0006170435633 0)
(2.993286864 -0.0002627506352 0)
(2.992972211 -2.21224869e-05 0)
(2.992787364 6.320117867e-05 0)
(2.992654544 9.98537292e-05 0)
(2.992591036 0.0001874613173 0)
(2.992680795 0.0003943693706 0)
(2.992927671 0.0008138110866 0)
(2.993076649 0.001121137304 0)
(2.99328032 0.00119961192 0)
(2.993504507 0.001134962931 0)
(2.993609775 0.0009704216425 0)
(2.993653999 0.0007895263623 0)
(2.993752072 0.0004927969219 0)
(2.993014723 0.0006700837299 0)
(2.993055818 -0.0008016880061 0)
(2.993861294 -0.002740498773 0)
(2.993409709 -0.002173271291 0)
(2.992181231 -0.0001852602093 0)
(2.99155789 0.001852065312 0)
(2.991646306 0.002112516213 0)
(2.992129606 0.001845563956 0)
(2.992680678 0.00118848285 0)
(2.993120657 0.0006453296576 0)
(2.993732677 0.0004922601056 0)
(2.994483976 0.0006338084118 0)
(2.994968544 0.0006666563483 0)
(2.995356774 0.0004330296922 0)
(2.995207195 -0.000366932942 0)
(2.995129691 -0.0007860381596 0)
(2.994522076 -0.0008587203595 0)
(2.994019166 -0.0007787619341 0)
(2.993618482 -0.0005119645881 0)
(2.99313579 -0.000270180513 0)
(2.992673344 -6.756097616e-05 0)
(2.992378048 8.425269557e-05 0)
(2.992224816 0.0001538519134 0)
(2.992145406 0.0002228775113 0)
(2.992255868 0.0004455069584 0)
(2.992487255 0.0008367713562 0)
(2.992674866 0.001029151455 0)
(2.993034992 0.001108141492 0)
(2.993372698 0.001003712356 0)
(2.993560113 0.0008366178972 0)
(2.993709613 0.000713347621 0)
(2.993814872 0.0005649629333 0)
(2.991886477 0.00208124131 0)
(2.992495084 0.001701946886 0)
(2.992771131 0.0006516747358 0)
(2.992665711 -6.95783604e-05 0)
(2.992152457 0.0007721826893 0)
(2.991719995 0.001409587251 0)
(2.992108515 0.001595536797 0)
(2.992399324 0.001447700815 0)
(2.992744185 0.001012694068 0)
(2.993209834 0.0007464987613 0)
(2.993881845 0.0006508001985 0)
(2.994617 0.0005932552852 0)
(2.99495351 0.0005484559081 0)
(2.995487379 0.0002466034933 0)
(2.995351783 -0.0004231526504 0)
(2.995191064 -0.0007941634006 0)
(2.994650914 -0.0008045174162 0)
(2.994117756 -0.0006851551644 0)
(2.993721627 -0.0004187312011 0)
(2.993116517 -0.0001545620652 0)
(2.992607204 3.467383646e-05 0)
(2.992159622 8.721672824e-05 0)
(2.992014845 0.0001325183956 0)
(2.991889951 0.0001906539171 0)
(2.991925421 0.000379501858 0)
(2.992101739 0.0006189035479 0)
(2.992437388 0.0007681071799 0)
(2.992908231 0.0008291956518 0)
(2.99326597 0.0008005591069 0)
(2.993492904 0.0007176223314 0)
(2.993730573 0.0007003128885 0)
(2.993851018 0.0006357105151 0)
(2.992360795 0.001246660217 0)
(2.992694206 0.002076762829 0)
(2.992354561 0.001844656481 0)
(2.992081714 0.001629950369 0)
(2.991809343 0.001710825077 0)
(2.991695256 0.00159957687 0)
(2.99248837 0.001029169091 0)
(2.992673541 0.0008692772634 0)
(2.993041497 0.0005986377496 0)
(2.993488506 0.0002991100298 0)
(2.993962072 0.000300659155 0)
(2.994572475 0.0003401714873 0)
(2.99482869 0.0002894171346 0)
(2.995249713 7.799626415e-05 0)
(2.995317432 -0.0002928821678 0)
(2.995027323 -0.0006202152309 0)
(2.994622944 -0.0006591908018 0)
(2.994149103 -0.0005493103039 0)
(2.993741647 -0.0002824818023 0)
(2.993122659 3.024194498e-05 0)
(2.992613947 0.0002439224912 0)
(2.992212732 0.0002997409764 0)
(2.991971771 0.0002084182676 0)
(2.991912312 0.0001982756239 0)
(2.991912756 0.000252941726 0)
(2.992058444 0.0003564288863 0)
(2.992454768 0.0004497030551 0)
(2.992828396 0.0005569188549 0)
(2.993175768 0.0006398327888 0)
(2.993459589 0.0005308098088 0)
(2.993681378 0.0006129723212 0)
(2.993828297 0.0006258872311 0)
(2.992798715 0.0008568925597 0)
(2.992735002 0.00115050608 0)
(2.992681837 0.001215217465 0)
(2.991938353 0.001603417595 0)
(2.991859226 0.001694356611 0)
(2.992023801 0.001475399505 0)
(2.99279323 0.0009350540454 0)
(2.993088075 0.000574595304 0)
(2.993443627 2.580445331e-05 0)
(2.993860178 -0.0002290970198 0)
(2.994035655 -0.0001614803402 0)
(2.994329973 6.864786864e-05 0)
(2.994458394 8.536990065e-05 0)
(2.994722658 3.853583801e-07 0)
(2.994815566 -0.0001913823264 0)
(2.994735032 -0.0002738104321 0)
(2.994530678 -0.0002752657725 0)
(2.994191078 -0.0001921084086 0)
(2.99377353 4.562319287e-05 0)
(2.993237287 0.0003350377962 0)
(2.992748429 0.0004642330367 0)
(2.992368527 0.000462874987 0)
(2.992156211 0.0003385604003 0)
(2.992114168 0.0002633281105 0)
(2.992093539 0.0002258507372 0)
(2.992188443 0.0002520723365 0)
(2.992609836 0.0002804542493 0)
(2.992880654 0.0003140332151 0)
(2.993133682 0.0004167140168 0)
(2.993372458 0.0004268076555 0)
(2.99357691 0.0004328857538 0)
(2.993701188 0.0005568363472 0)
(2.992760643 0.0004824547408 0)
(2.992791072 0.0002216321771 0)
(2.992772854 0.0001592416109 0)
(2.992424158 0.0003008953253 0)
(2.992205134 0.0007710634526 0)
(2.992684552 0.001006040669 0)
(2.993330517 0.0007947026077 0)
(2.993642096 0.0004575163877 0)
(2.993847075 -0.0001502378673 0)
(2.994101839 -0.0004746826261 0)
(2.994119389 -0.0004085029229 0)
(2.994066046 -1.20000073e-05 0)
(2.99410779 7.912483888e-05 0)
(2.994227907 0.0001042679901 0)
(2.994318685 6.882750368e-05 0)
(2.994348683 4.735650839e-05 0)
(2.99424465 7.471579498e-05 0)
(2.994033827 0.0001537315264 0)
(2.993684186 0.000375889753 0)
(2.993260085 0.0005647390906 0)
(2.992945272 0.0005873032005 0)
(2.992638969 0.0005159346575 0)
(2.992475769 0.0003723041029 0)
(2.992420532 0.0002798950425 0)
(2.992407656 0.0001778645263 0)
(2.992459103 0.0001315683498 0)
(2.992829483 0.0001130679416 0)
(2.993006821 0.0001241742738 0)
(2.993148809 0.0002073176565 0)
(2.993298851 0.0002084968236 0)
(2.993394315 0.0002737719489 0)
(2.993476158 0.0004511513801 0)
(2.992591889 0.0008297340262 0)
(2.992714085 0.0003435977754 0)
(2.992782411 0.0001643316286 0)
(2.992791894 0.0001857395966 0)
(2.992836411 0.0004025844048 0)
(2.993434214 0.0005804535128 0)
(2.993826983 0.0005263968428 0)
(2.994080768 0.0003243378595 0)
(2.994219571 -0.0001454679211 0)
(2.994252934 -0.0004133529091 0)
(2.994008081 -0.0003156070177 0)
(2.993804552 5.03408097e-05 0)
(2.993782987 0.0001936538687 0)
(2.993771313 0.0003017781178 0)
(2.993883781 0.0002710490683 0)
(2.993884457 0.0002280730929 0)
(2.993852258 0.0002300737496 0)
(2.993752142 0.0002981774475 0)
(2.993543632 0.0005047132084 0)
(2.993321043 0.0006019041954 0)
(2.993178599 0.0005795399514 0)
(2.992985119 0.0004562023734 0)
(2.992856004 0.000307628949 0)
(2.992779267 0.0002044256753 0)
(2.992730761 9.453366844e-05 0)
(2.992719862 3.336714284e-05 0)
(2.992976172 -2.242693251e-05 0)
(2.993080492 -2.914132964e-05 0)
(2.993151175 2.131786709e-05 0)
(2.993226974 3.200080026e-05 0)
(2.993255913 6.954304324e-05 0)
(2.993267376 0.0002592263794 0)
(2.992748312 0.001003248122 0)
(2.992699802 0.0007976330155 0)
(2.992732107 0.0005722602627 0)
(2.992980593 0.0005446256551 0)
(2.99346717 0.000648736451 0)
(2.993931789 0.0006456006991 0)
(2.994187117 0.0005481950423 0)
(2.994463947 0.0001750655196 0)
(2.994369365 -0.00024277942 0)
(2.994239376 -0.0003269296296 0)
(2.99381228 -0.0001243810532 0)
(2.993482107 0.0001821976488 0)
(2.993334816 0.0003761731389 0)
(2.993277073 0.0004283409576 0)
(2.993359626 0.0003393255451 0)
(2.993404997 0.0002476740631 0)
(2.993453176 0.0002568944813 0)
(2.99344095 0.0003298068866 0)
(2.9934289 0.0004892382946 0)
(2.99339196 0.0005275791106 0)
(2.993337949 0.0004828899047 0)
(2.993267162 0.0004020201852 0)
(2.993098033 0.0002546847673 0)
(2.993006656 0.0001233607391 0)
(2.992932296 5.025387375e-06 0)
(2.992886667 -6.429029739e-05 0)
(2.993044613 -0.0001344797756 0)
(2.993094153 -0.0001429874696 0)
(2.993136719 -0.0001242829581 0)
(2.993177284 -0.0001052026542 0)
(2.993164322 -7.353948799e-05 0)
(2.993114409 0.0001258860437 0)
(2.993066604 0.0008786912769 0)
(2.992833756 0.0006928928855 0)
(2.992711239 0.0005647202326 0)
(2.992982413 0.0005243754082 0)
(2.993642934 0.0004708953194 0)
(2.994057964 0.0003854355248 0)
(2.994286743 0.0002744587463 0)
(2.994517789 -5.804204419e-05 0)
(2.994301098 -0.0003090580051 0)
(2.994052616 -0.0002819374523 0)
(2.993660596 -8.270254741e-05 0)
(2.993159595 0.000179908862 0)
(2.992958881 0.000395977333 0)
(2.99292902 0.0004020102035 0)
(2.992993648 0.0003181468759 0)
(2.993051437 0.0002417797094 0)
(2.993169821 0.0002802038939 0)
(2.99323862 0.0003509017592 0)
(2.993354417 0.0004518975063 0)
(2.9934208 0.0004633067434 0)
(2.993415013 0.000419457572 0)
(2.993399935 0.0003834348768 0)
(2.993223831 0.000242439491 0)
(2.993093835 7.964115719e-05 0)
(2.993014582 -3.390766903e-05 0)
(2.992961322 -8.794928916e-05 0)
(2.993030611 -0.000154258032 0)
(2.993070332 -0.0001713013448 0)
(2.993098439 -0.0001737662119 0)
(2.993114926 -0.0001461305997 0)
(2.99308755 -0.0001395608053 0)
(2.993004779 3.539045879e-05 0)
(2.993200321 0.0004772974717 0)
(2.992955573 0.0002636030635 0)
(2.992740837 5.124306614e-05 0)
(2.992938972 3.80176459e-05 0)
(2.99355547 0.0001087676373 0)
(2.993965427 0.0001318984814 0)
(2.994132275 9.678391773e-05 0)
(2.994290036 -0.0001031485246 0)
(2.99410863 -0.0002818052105 0)
(2.993595733 -0.0002504331443 0)
(2.993309921 -0.0001503399821 0)
(2.992816688 7.379236463e-05 0)
(2.992618405 0.0003001906497 0)
(2.992659281 0.0003347811871 0)
(2.992746295 0.0002946141835 0)
(2.992849894 0.0002730808492 0)
(2.992968248 0.000287813666 0)
(2.99314582 0.000366495813 0)
(2.99330446 0.0004001305992 0)
(2.993370994 0.0003818794007 0)
(2.993392077 0.000340334199 0)
(2.993368164 0.0003314558304 0)
(2.993241707 0.0002441710627 0)
(2.993062055 0.0001403714862 0)
(2.993017179 1.919542215e-05 0)
(2.99298441 -4.723969781e-05 0)
(2.993000275 -6.238944328e-05 0)
(2.993043725 -0.000105857572 0)
(2.993043221 -0.0001159095355 0)
(2.99303281 -0.0001027456221 0)
(2.992994716 -0.0001129992599 0)
(2.992900838 1.497487473e-05 0)
(2.993248168 5.498893477e-05 0)
(2.993035905 -0.0003604300555 0)
(2.992808697 -0.0005919476243 0)
(2.992905842 -0.0004558343684 0)
(2.99332192 -0.0001860156215 0)
(2.993632641 -1.600300387e-05 0)
(2.99375386 1.706273668e-05 0)
(2.993851407 -5.669869886e-05 0)
(2.993626825 -0.0001746566929 0)
(2.993045493 -0.000147718875 0)
(2.992769498 -6.669546229e-05 0)
(2.992426387 0.0001365229261 0)
(2.992291916 0.0003165364258 0)
(2.992388039 0.0003464523486 0)
(2.992542703 0.0003321122639 0)
(2.992654462 0.000315893299 0)
(2.992839782 0.0002858710012 0)
(2.993041363 0.0003301632884 0)
(2.993198672 0.0003390766598 0)
(2.993235245 0.0002997023298 0)
(2.993226426 0.0002704834265 0)
(2.993173697 0.0002589621721 0)
(2.993052702 0.0001908072022 0)
(2.992829233 0.0001383682744 0)
(2.992794351 6.861908266e-05 0)
(2.992783225 3.90418235e-05 0)
(2.992810708 3.182478232e-05 0)
(2.992880649 -2.056363959e-05 0)
(2.992887238 -3.884595267e-05 0)
(2.992892206 -3.933108922e-05 0)
(2.992873555 -7.920831548e-05 0)
(2.992801352 1.752794978e-06 0)
(2.993190372 -0.0001767650243 0)
(2.992956862 -0.0004217108629 0)
(2.992701422 -0.0005845316308 0)
(2.992693831 -0.000445930328 0)
(2.992933164 -0.0001788560262 0)
(2.99310464 -1.882143246e-05 0)
(2.993228451 4.538459551e-05 0)
(2.993279049 4.001338488e-05 0)
(2.992993396 -5.680708017e-05 0)
(2.992463842 -6.035153219e-05 0)
(2.99223136 9.619319776e-06 0)
(2.992012977 0.0001818574069 0)
(2.99198651 0.000349074268 0)
(2.992165159 0.0003708824621 0)
(2.992317119 0.000356628447 0)
(2.99248144 0.0003217690264 0)
(2.992721086 0.0002417392422 0)
(2.992935573 0.0001922202427 0)
(2.993025366 0.0001906186707 0)
(2.992986439 0.0001651883938 0)
(2.992947396 0.000147041109 0)
(2.992844724 0.0001418301775 0)
(2.992671273 0.0001732996181 0)
(2.992419882 0.0001529236187 0)
(2.992386467 0.0001189560256 0)
(2.992386033 9.591232055e-05 0)
(2.992456589 6.371416564e-05 0)
(2.992606744 2.680522201e-05 0)
(2.992645541 -1.277540191e-06 0)
(2.992698681 -3.205294068e-06 0)
(2.992727963 -4.607843434e-05 0)
(2.992702525 2.100518955e-05 0)
(2.99287296 -0.0004102045273 0)
(2.992713296 -0.0003788024757 0)
(2.992516273 -0.0003928846337 0)
(2.992442539 -0.0002356379032 0)
(2.992595666 2.945049192e-05 0)
(2.992669015 0.0001126765245 0)
(2.992758179 0.0001600946345 0)
(2.992734093 0.0001251337327 0)
(2.992471669 -4.387109944e-06 0)
(2.992060623 4.203491144e-06 0)
(2.991880841 8.956988762e-05 0)
(2.991733324 0.0002200630251 0)
(2.991776582 0.0003417183987 0)
(2.992003988 0.0003235016744 0)
(2.992133135 0.000297200047 0)
(2.992343192 0.0002426593077 0)
(2.992613054 0.0001100406732 0)
(2.992805486 4.768425319e-05 0)
(2.992823834 7.623298482e-05 0)
(2.992752088 8.316506693e-05 0)
(2.992689741 7.386973886e-05 0)
(2.9925328 0.000104567124 0)
(2.992318692 0.000212286745 0)
(2.992084846 0.000196736095 0)
(2.992087712 0.0001253810457 0)
(2.992116471 0.0001037311683 0)
(2.992212626 6.702760117e-05 0)
(2.992394349 4.650910507e-05 0)
(2.992457594 7.637392546e-06 0)
(2.992544589 9.888823053e-06 0)
(2.992605261 -3.984330626e-05 0)
(2.992613598 1.265637577e-05 0)
(2.992524057 -0.0003637227243 0)
(2.992448793 -0.0003509079248 0)
(2.992277213 -0.0003488983314 0)
(2.992167162 -0.0001577455428 0)
(2.992294796 9.480148463e-05 0)
(2.992333245 0.0001443510254 0)
(2.992380824 0.0001915728431 0)
(2.992359171 0.0001912191755 0)
(2.992193994 7.136604642e-05 0)
(2.99188863 1.86930192e-05 0)
(2.991742734 8.657149704e-05 0)
(2.99169274 0.0001687528825 0)
(2.991753838 0.0002592799497 0)
(2.991965498 0.0002454792295 0)
(2.992067072 0.0002224446805 0)
(2.992284592 0.0001367162777 0)
(2.992543343 -9.272269849e-06 0)
(2.992735587 -4.751676083e-05 0)
(2.992728498 1.596276006e-05 0)
(2.992676074 5.199452882e-05 0)
(2.992598601 5.332938514e-05 0)
(2.992406264 8.895822238e-05 0)
(2.99216576 0.0002238883872 0)
(2.99197859 0.0002242229637 0)
(2.992002886 0.0001589659246 0)
(2.992043828 0.0001379264536 0)
(2.992140492 0.0001033686791 0)
(2.992333716 6.111607666e-05 0)
(2.99240708 1.619797796e-06 0)
(2.99249593 -1.459648451e-05 0)
(2.992560745 -6.612858371e-05 0)
(2.992568456 2.892778031e-06 0)
(2.992301733 -0.0003046204255 0)
(2.992226741 -0.0002991125565 0)
(2.99206026 -0.0002121619236 0)
(2.991949809 -0.000109050316 0)
(2.992113608 0.0001530865957 0)
(2.99219434 0.0002306745726 0)
(2.992248515 0.000276427448 0)
(2.992279389 0.0002851919607 0)
(2.992225993 0.0001807142301 0)
(2.992026235 5.836279336e-05 0)
(2.991885096 4.455627425e-05 0)
(2.991885463 7.559005787e-05 0)
(2.991961876 0.0001181501775 0)
(2.992087196 0.0001256885275 0)
(2.992175252 0.0001133050556 0)
(2.992359305 4.239565842e-05 0)
(2.992579585 -7.128251357e-05 0)
(2.992765208 -5.082112964e-05 0)
(2.992750572 2.644099002e-05 0)
(2.992707691 5.925838492e-05 0)
(2.992631724 6.274014476e-05 0)
(2.992444144 9.037748664e-05 0)
(2.99220398 0.000197297134 0)
(2.992051034 0.0002443222072 0)
(2.992073113 0.000195550186 0)
(2.992111083 0.0001706288273 0)
(2.992198538 0.0001371339514 0)
(2.992374603 7.311241696e-05 0)
(2.992440981 -1.483620938e-05 0)
(2.992533095 -4.836865472e-05 0)
(2.992594789 -0.000125614665 0)
(2.992593522 -7.817489245e-05 0)
(2.992334032 -0.0002146682146 0)
(2.9923007 -0.0002477837405 0)
(2.992271672 -0.0002177776566 0)
(2.992256279 -0.0001270715395 0)
(2.992378178 9.786529506e-05 0)
(2.992501314 0.0003446472907 0)
(2.992535709 0.0004203780168 0)
(2.992574098 0.0004088225289 0)
(2.992595112 0.0002318977273 0)
(2.992498807 9.12039012e-05 0)
(2.99233395 4.795620223e-05 0)
(2.992251423 1.076039345e-06 0)
(2.992283094 -4.056083544e-06 0)
(2.992355509 -4.920876504e-06 0)
(2.992446386 -2.103215386e-06 0)
(2.992581406 -4.084134732e-05 0)
(2.9927486 -9.310030662e-05 0)
(2.992906592 -4.456483735e-05 0)
(2.992890287 3.780388263e-05 0)
(2.992866292 5.170267055e-05 0)
(2.992796843 5.950173401e-05 0)
(2.99263651 7.004224033e-05 0)
(2.992414542 0.0001561867131 0)
(2.992285234 0.0002330792513 0)
(2.9923192 0.0002169166717 0)
(2.99236556 0.0001804319564 0)
(2.99242266 0.0001744926052 0)
(2.992546717 8.307791378e-05 0)
(2.992589977 -3.525885437e-05 0)
(2.992666508 -0.0001009559872 0)
(2.992713386 -0.0002167845235 0)
(2.992701442 -0.0002033715227 0)
(2.992735802 -0.0001763509664 0)
(2.992775384 -0.0002060997997 0)
(2.992819747 -0.000180462658 0)
(2.992934872 -8.763224077e-05 0)
(2.993075837 0.0001782824333 0)
(2.993174186 0.0004870072113 0)
(2.993204485 0.0005454537353 0)
(2.993210274 0.0005162751933 0)
(2.993208952 0.0003807344281 0)
(2.993101913 0.0002015549307 0)
(2.992926403 0.0001017103823 0)
(2.992790233 3.905995645e-05 0)
(2.992746348 -6.064308946e-06 0)
(2.992750494 -2.995032713e-05 0)
(2.992800658 -4.087086217e-05 0)
(2.992899594 -7.891979539e-05 0)
(2.993036491 -0.0001306153463 0)
(2.993167535 -8.09324499e-05 0)
(2.99318062 -4.772994045e-06 0)
(2.993161899 1.918777021e-05 0)
(2.993107559 2.815013074e-05 0)
(2.992972156 4.155463638e-05 0)
(2.992783008 0.0001311123068 0)
(2.99268763 0.0002435935262 0)
(2.992713576 0.0002493394563 0)
(2.99274837 0.0002205695606 0)
(2.992773362 0.0001982843479 0)
(2.992840415 0.0001309524206 0)
(2.99287872 -4.833028901e-05 0)
(2.992915027 -0.000119814949 0)
(2.992925777 -0.0002443736596 0)
(2.99289636 -0.0002875800372 0)
(2.993404186 -0.0001495512382 0)
(2.993449095 -0.0002170129097 0)
(2.99356219 -0.0002116614114 0)
(2.993768311 -0.0001233780246 0)
(2.993979233 0.0001556394077 0)
(2.994078212 0.0005382150864 0)
(2.994088054 0.0006454889163 0)
(2.994091278 0.0006360095517 0)
(2.994074415 0.0004797742086 0)
(2.993892079 0.0002904834155 0)
(2.993642851 0.0001509257331 0)
(2.993443791 3.715058711e-05 0)
(2.993350106 -2.816590544e-05 0)
(2.99330859 -4.847221141e-05 0)
(2.993308139 -6.970168073e-05 0)
(2.993373142 -0.0001393358901 0)
(2.993475408 -0.0002119223932 0)
(2.993582192 -0.0001753538769 0)
(2.993612917 -9.082634323e-05 0)
(2.993595623 -4.186048166e-05 0)
(2.993553084 -2.56187574e-05 0)
(2.993443935 8.077374616e-07 0)
(2.993296997 8.586694629e-05 0)
(2.993213365 0.0002166679605 0)
(2.993207926 0.0002549841658 0)
(2.99321425 0.0002522096201 0)
(2.993211643 0.0002225590519 0)
(2.993229236 0.0001814310563 0)
(2.993248361 3.362704195e-06 0)
(2.99319273 -0.0001369777253 0)
(2.99318162 -0.0002353557075 0)
(2.993157268 -0.0002519706968 0)
(2.994171185 -0.0001739152609 0)
(2.994295153 -0.0003438847891 0)
(2.994454876 -0.0003576136073 0)
(2.994680971 -0.0002651911623 0)
(2.994899954 2.317032903e-05 0)
(2.994963633 0.0004116271223 0)
(2.994937276 0.000527244005 0)
(2.994905196 0.00056795409 0)
(2.994842743 0.0005107117661 0)
(2.994515515 0.0003749631342 0)
(2.994298158 0.0001649516052 0)
(2.994076284 1.623820263e-06 0)
(2.993951036 -7.510876709e-05 0)
(2.993885717 -9.925836764e-05 0)
(2.993872581 -0.0001339202713 0)
(2.993924568 -0.000206611451 0)
(2.994013869 -0.000287499207 0)
(2.994127105 -0.0002576769295 0)
(2.994173718 -0.0001633129436 0)
(2.994157637 -8.104768594e-05 0)
(2.994120159 -5.844713568e-05 0)
(2.994022805 -5.864805484e-06 0)
(2.993882084 0.0001016139856 0)
(2.993768729 0.0001784655129 0)
(2.993706617 0.000176933938 0)
(2.993676529 0.0001715363449 0)
(2.993625697 0.0001557929685 0)
(2.993562106 0.0001052925179 0)
(2.99350515 -7.717775139e-05 0)
(2.993379464 -0.0002331769562 0)
(2.993333866 -0.0003750210293 0)
(2.993321065 -0.0003626795635 0)
(2.994595162 -0.0004241917987 0)
(2.99479598 -0.0005595010942 0)
(2.99492908 -0.0005340344098 0)
(2.994998276 -0.0003574781148 0)
(2.995134371 -7.312457598e-05 0)
(2.995133815 0.0003109565817 0)
(2.995054362 0.0004757030482 0)
(2.994979613 0.0005216044458 0)
(2.994846636 0.0005125788089 0)
(2.994569464 0.0003750389049 0)
(2.994349291 0.0001793015246 0)
(2.994206251 7.439616157e-05 0)
(2.99405213 -4.573946307e-05 0)
(2.993999182 -8.29007598e-05 0)
(2.993986803 -8.392850405e-05 0)
(2.994038494 -0.0001154635244 0)
(2.994122506 -0.000157164586 0)
(2.994206323 -8.897009007e-05 0)
(2.994198584 3.363239317e-05 0)
(2.994167383 0.000111135442 0)
(2.994126806 0.0001481436378 0)
(2.994025705 0.0001985110852 0)
(2.993901318 0.0002828974302 0)
(2.993764691 0.0003695610384 0)
(2.993670533 0.0003745308525 0)
(2.993589021 0.0003514507459 0)
(2.993521675 0.0003082655624 0)
(2.993426488 0.000235981669 0)
(2.99334263 2.096825643e-05 0)
(2.993197036 -0.0002055032456 0)
(2.993147934 -0.000410604116 0)
(2.993139629 -0.0004231632417 0)
(2.993478229 -0.0006361471816 0)
(2.993583224 -0.0007251994247 0)
(2.99357366 -0.0006719116546 0)
(2.993506879 -0.0005192300219 0)
(2.993504805 -0.0001969102151 0)
(2.993585475 0.0001958181488 0)
(2.993558924 0.0004166862315 0)
(2.993584401 0.0004212222404 0)
(2.993548936 0.0003733870928 0)
(2.993439994 0.0002391477082 0)
(2.993373754 8.273390698e-05 0)
(2.99327557 -6.286276972e-05 0)
(2.993205372 -0.0001459046697 0)
(2.993170149 -0.0001700077748 0)
(2.993165335 -0.000180968413 0)
(2.993194914 -0.000227100704 0)
(2.99320738 -0.0003010976902 0)
(2.99314023 -0.0002646347761 0)
(2.993018165 -0.0001589596846 0)
(2.992905888 -6.544740099e-05 0)
(2.992858176 -4.256445448e-05 0)
(2.992763919 1.647114029e-05 0)
(2.992674318 0.0001580160258 0)
(2.992612365 0.000275419107 0)
(2.992593214 0.0003089828491 0)
(2.99259091 0.0003075917232 0)
(2.992606682 0.0002368408941 0)
(2.992614263 0.0001685889239 0)
(2.992616047 -3.86823624e-05 0)
(2.992535678 -0.0002973245392 0)
(2.99250045 -0.0005065735504 0)
(2.992481238 -0.0005250341208 0)
(2.990676265 -0.0004232092779 0)
(2.990620907 -0.0004913920609 0)
(2.990508991 -0.0004247153466 0)
(2.990443762 -0.0002693419966 0)
(2.990406598 6.959261974e-05 0)
(2.990531799 0.0004538679457 0)