/*--------------------------------*- C++ -*----------------------------------*\
  =========                 |
  \\      /  F ield         | OpenFOAM: The Open Source CFD Toolbox
   \\    /   O peration     | Website:  https://openfoam.org
    \\  /    A nd           | Version:  7
     \\/     M anipulation  |
\*---------------------------------------------------------------------------*/
FoamFile
{
    version     2.0;
    format      ascii;
    class       volScalarField;
    location    "0.9";
    object      T;
}
// * * * * * * * * * * * * * * * * * * * * * * * * * * * * * * * * * * * * * //

dimensions      [0 0 0 1 0 0 0];

internalField   nonuniform List<scalar> 
2222
(
1.175525442
1.167397127
1.161647905
1.155492785
1.154784291
1.160214362
1.169862996
1.180005573
1.186868142
1.191769641
1.195980805
1.200050197
1.20481505
1.210211561
1.214999151
1.218754525
1.220233666
1.221620812
0.878468105
0.9762255322
1.071714805
1.113378522
1.12205899
1.121038794
1.115238919
1.111076709
1.107964595
1.110816306
1.115866432
1.123497139
1.132771587
1.140400772
1.145771804
1.149243804
1.153240735
1.15891711
1.165932697
1.172931624
1.178769953
1.181706787
1.183382706
0.8379930924
0.9039126908
1.014691627
1.066947745
1.080084915
1.081753036
1.080660106
1.075309773
1.073209396
1.076406052
1.081312572
1.086946699
1.094465673
1.10085149
1.105374506
1.108943818
1.113346915
1.119472967
1.12649296
1.133164731
1.139029171
1.142616252
1.14455811
0.8241326752
0.8730949576
0.9864309277
1.037741482
1.054268942
1.057713115
1.056649826
1.054619228
1.055104112
1.05754195
1.062417703
1.066989584
1.072813626
1.077955807
1.081817783
1.085600045
1.089221818
1.093659393
1.098298753
1.102984133
1.107453389
1.110498068
1.112422617
0.8072319823
0.8504256619
0.9587254067
1.034177867
1.04738616
1.048963493
1.047411231
1.049529585
1.051808972
1.054243786
1.057931079
1.061004653
1.064081266
1.066885629
1.069033634
1.071483708
1.074034139
1.076787852
1.079848062
1.08292659
1.085747419
1.087697414
1.089411315
0.7802914833
0.8104637537
0.8950008692
1.025577403
1.05050247
1.053910342
1.053446204
1.05404415
1.05512064
1.052638813
1.052761935
1.054074069
1.055684521
1.057546959
1.059428003
1.061459203
1.063819468
1.065429165
1.0672315
1.068896134
1.070386578
1.071650436
1.073047178
1.07464807
0.7596882854
0.7761930365
0.830503041
0.9655041676
1.045538162
1.064583905
1.063239112
1.061730422
1.055657561
1.048728339
1.047929581
1.049192977
1.050122195
1.051855127
1.054733365
1.057131227
1.059175159
1.060484124
1.06163963
1.062479167
1.063250528
1.064059625
1.065100271
1.066180454
0.7434712654
0.7465909487
0.7764578206
0.882284661
1.021344021
1.066723728
1.066700043
1.062487792
1.053389482
1.044006125
1.043613542
1.044859748
1.046886611
1.050052229
1.053366399
1.056285683
1.058316952
1.059283193
1.060128991
1.060839222
1.061493963
1.061984304
1.062790305
1.063484377
0.7278727611
0.7274985459
0.7270354494
0.8125789448
0.9645898594
1.061943152
1.066849201
1.060423636
1.047463171
1.041773902
1.043086635
1.044077492
1.046172872
1.050451516
1.053823051
1.056037305
1.056850532
1.057162508
1.057601623
1.058112255
1.058784099
1.059299546
1.060034512
1.060392637
0.7261942987
0.7240544598
0.7182388185
0.7303562672
0.8967092679
1.021572948
1.054796484
1.050176299
1.04525155
1.0431536
1.045722202
1.045745282
1.047391311
1.050580502
1.052695929
1.053415634
1.0533087
1.053978351
1.054783952
1.055301104
1.055966697
1.05651231
1.057245569
1.057348938
0.7262716424
0.7235008779
0.7194433574
0.7107091485
0.7854224767
0.968410916
1.035211256
1.042654555
1.045414062
1.046374342
1.046886629
1.046538203
1.046774849
1.048688089
1.048225924
1.048769003
1.050209614
1.050877509
1.052085925
1.052716637
1.053387162
1.053656261
1.054018708
1.053913344
0.7249125941
0.7235643052
0.7197639608
0.7105460903
0.7074876203
0.880853757
1.016335069
1.041564704
1.04780731
1.046240928
1.04538354
1.044562412
1.043978555
1.042917144
1.043097481
1.044600242
1.046570912
1.048282826
1.049677946
1.049898638
1.05023417
1.050382721
1.050871619
1.051057373
1.051441399
0.7229694685
0.7237594633
0.7196675252
0.7120802588
0.6987561869
0.7623516054
0.9865265684
1.041484628
1.046720143
1.041664312
1.037445201
1.036699088
1.036054764
1.036238479
1.038194509
1.041215474
1.043570374
1.045298376
1.04642766
1.046597035
1.047116185
1.047538335
1.048248304
1.048618671
1.049213766
0.722427131
0.7243117547
0.7203221526
0.7121685282
0.6982094823
0.6963744793
0.8889062761
1.027465298
1.042885792
1.029918815
1.02857895
1.02890795
1.029961852
1.032270466
1.036266102
1.038500381
1.040072252
1.041358842
1.042577354
1.043426728
1.044669708
1.045595384
1.046604927
1.047182001
1.047575805
0.7223643604
0.7245855511
0.7205130891
0.7112504488
0.6988496301
0.6857428217
0.7614471673
0.9652978447
1.025207756
1.020261151
1.02407911
1.026153234
1.028150982
1.0318862
1.034449305
1.035335202
1.036266805
1.03786574
1.039762241
1.041075012
1.042671311
1.043768921
1.044847373
1.045149336
1.045367594
0.7230546333
0.724570222
0.7203394046
0.7113020833
0.6993120104
0.6852603902
0.6916295854
0.8803636403
0.9991455024
1.018165241
1.026408734
1.028103413
1.02933903
1.031357904
1.031721636
1.032013284
1.033791914
1.035873577
1.03810185
1.039524268
1.041028726
1.041919274
1.042719355
1.042793549
1.042919828
0.7235863446
0.7244908101
0.7200316859
0.7112632819
0.6995513024
0.6851849849
0.6775115472
0.784668417
0.9749536046
1.022019094
1.028866695
1.030000979
1.030434326
1.029754409
1.028646193
1.0301587
1.032968397
1.035124895
1.036756439
1.038148759
1.039405976
1.039697798
1.039888251
1.039889106
1.040427152
0.7236754959
0.7243918305
0.7195606084
0.7109033788
0.6994485402
0.6856792337
0.6760211321
0.6973969408
0.9126326834
1.017385103
1.030523666
1.031521963
1.02999188
1.026623346
1.027165472
1.030043422
1.032321122
1.03385297
1.035114743
1.036549147
1.037499115
1.037914151
1.038292701
1.03858346
1.039569201
0.7236495633
0.7241362762
0.7186471952
0.7106771229
0.6990456335
0.6857239702
0.6756553247
0.674767634
0.7948351592
0.9801377247
1.024470886
1.026863668
1.024910943
1.02451976
1.027759952
1.029901073
1.03147595
1.032636241
1.033709787
1.035499598
1.036467357
1.037318844
1.038179253
1.039027106
1.040194717
1.040771477
0.7233740695
0.7229672659
0.7182669978
0.710574754
0.6982955839
0.6852612265
0.6767162194
0.6727802889
0.7132000705
0.9197388714
1.004581442
1.018000514
1.022354611
1.024342961
1.027985057
1.03045478
1.031158722
1.031563421
1.033617607
1.036051604
1.037769022
1.038666555
1.039472598
1.040476917
1.0415707
1.042018802
0.7216926539
0.7218824424
0.7183088422
0.7103193621
0.6977212518
0.6847833333
0.6768157016
0.6717460531
0.6787203267
0.845316783
0.9863085007
1.017002623
1.023634001
1.028779378
1.031654238
1.031173334
1.030639999
1.032906716
1.035915981
1.038493286
1.040449597
1.041165714
1.0416133
1.041961032
1.042599398
1.042886376
0.720590606
0.7217305655
0.7188686799
0.7099825921
0.6969668995
0.6841204403
0.6752104838
0.6723533083
0.6728192063
0.7443188835
0.9609119756
1.022359236
1.031078727
1.034422976
1.033802322
1.030721578
1.032792615
1.036404176
1.039573767
1.041437662
1.042800838
1.043117635
1.043054518
1.042620376
1.042828503
1.043079161
0.7204679407
0.7217443493
0.7190355559
0.7091900687
0.6961230823
0.6835950523
0.674577901
0.6725094346
0.6717224153
0.6861498127
0.8725055513
1.014207672
1.036774104
1.038537528
1.032225815
1.033300374
1.036941826
1.040130432
1.042238288
1.043327645
1.044121348
1.043878827
1.043547652
1.042832071
1.042948214
1.043149295
0.7209382201
0.722182236
0.7190584926
0.708278998
0.6956170717
0.6831790806
0.6742589245
0.6716938845
0.6711991445
0.6754865555
0.7664975355
0.979094231
1.038402021
1.034906067
1.033799418
1.036710896
1.04074812
1.043059674
1.043932958
1.044057507
1.0444883
1.0445188
1.0445542
1.044535977
1.045332012
1.045880981
0.7214635458
0.7226837244
0.7189846196
0.7079469565
0.6953964155
0.6828634542
0.6741836003
0.6714961827
0.6717112446
0.6746970179
0.7035182324
0.902421298
1.01741548
1.033183841
1.038290352
1.044554193
1.046068239
1.046144923
1.044806172
1.045115294
1.046199017
1.04732312
1.048041468
1.048238407
1.049233702
1.049755005
1.049997255
0.721525647
0.7227397814
0.7188274184
0.7078798368
0.6952229291
0.6826622057
0.6740891333
0.6714846794
0.6717665844
0.6738641865
0.6833011203
0.8159469993
0.9871679218
1.036370617
1.048576429
1.05023964
1.049126595
1.046186454
1.046272688
1.047748014
1.049519695
1.051194429
1.052146553
1.052633393
1.053492068
1.053747192
1.05340622
0.7214996624
0.7227129903
0.718336861
0.707954683
0.6948185704
0.6825139952
0.6739825134
0.6717151382
0.6713594624
0.6748577929
0.6813115654
0.7264036683
0.9506524939
1.043134854
1.053609991
1.053325434
1.047637964
1.047328961
1.048954272
1.051116992
1.054074362
1.055539542
1.056261071
1.056268084
1.05672302
1.056564082
1.056017937
0.7206087288
0.7225983453
0.7176776164
0.7079414236
0.6942485166
0.6822932545
0.6739067137
0.6716624446
0.6713742589
0.6748606352
0.6812005656
0.6918103691
0.8555514832
1.029922342
1.054707853
1.049961929
1.048169557
1.049546951
1.052753507
1.05551811
1.05694369
1.057794543
1.05828228
1.058356263
1.058241789
1.057779943
1.057059779
0.7192906601
0.7221196761
0.7175100624
0.7080134539
0.6935201669
0.682065282
0.6737897965
0.6713575828
0.6713099712
0.6743206764
0.6820188058
0.6872501433
0.7489770819
0.9706990433
1.044110738
1.046476765
1.049401299
1.053994385
1.057032257
1.057523044
1.058005037
1.05839359
1.058640498
1.058172745
1.058047302
1.057953981
1.057971239
0.7187306651
0.7207153908
0.7175242566
0.7080305841
0.6932522631
0.6818210501
0.6735997469
0.6712741753
0.6714207235
0.6742199173
0.6822715996
0.6872984552
0.7007879377
0.8809545275
1.017745337
1.048100668
1.05585345
1.058473688
1.058120641
1.057655137
1.057074004
1.057532054
1.057995871
1.058082913
1.058571567
1.058960727
1.059385316
0.7185352154
0.7196341909
0.71832199
0.7080067851
0.6929235118
0.6815955983
0.6735398844
0.6712491137
0.6716855537
0.6743076573
0.6823625949
0.6878722074
0.6918616036
0.7909685935
0.9920790069
1.053646512
1.059644046
1.059696827
1.057913079
1.055207743
1.05600549
1.057380145
1.058413302
1.05878696
1.059735623
1.060707504
1.061444644
0.7185230756
0.7193031694
0.7191652967
0.7087495888
0.6926979679
0.6813877941
0.6734440906
0.6712127271
0.6720596351
0.6743996368
0.6822350573
0.6884030375
0.6908249559
0.7149284046
0.9347450156
1.047266066
1.058992302
1.057670928
1.053405847
1.053828545
1.055826905
1.057816317
1.059853862
1.060868398
1.061972006
1.062677588
1.062821527
1.062856178
0.7186041949
0.7191942674
0.7194092289
0.7089969753
0.6928901643
0.6811492633
0.6732322087
0.6710494131
0.6722804881
0.6743151909
0.6820704543
0.6884861386
0.6908979518
0.6938357844
0.8248689502
1.017640842
1.055342747
1.049539086
1.051494694
1.053447215
1.056968362
1.0601985
1.061932221
1.0623067
1.062639877
1.062905884
1.062946681
1.062923955
0.7185689038
0.7193835836
0.7195311348
0.7090586548
0.6929636194
0.6806594391
0.6727520396
0.6707813434
0.672360934
0.6739524217
0.6817229666
0.6884333758
0.6911626203
0.6918719696
0.7368814738
0.9475623261
1.034891847
1.04682853
1.052572964
1.056755684
1.060101461
1.061741921
1.062191635
1.061941841
1.062097158
1.062089757
1.062346268
1.06244454
0.7177830414
0.7198042301
0.7195692777
0.7090515996
0.6929017415
0.679587546
0.6721996956
0.6705296059
0.6722856159
0.6737364243
0.6813114206
0.6883792514
0.6912627143
0.69176198
0.6978797449
0.870947244
1.014146562
1.049996959
1.058908212
1.060167218
1.060473505
1.060748793
1.0610032
1.060582544
1.060503752
1.06088922
1.061463684
1.061906024
0.7153243745
0.7199319361
0.7191246735
0.7090597326
0.6927250162
0.6786746206
0.6718504961
0.6702378912
0.6721278598
0.6737359928
0.6811251724
0.688369997
0.6912112519
0.6919169895
0.6923420657
0.7762836563
0.9953594004
1.053879399
1.060593726
1.060879284
1.05957938
1.057874928
1.058180338
1.058690816
1.059330831
1.060331297
1.061561774
1.062525609
0.7144682997
0.7199403187
0.7176281479
0.7089887504
0.692650842
0.6782421394
0.6715210453
0.6698729349
0.6716984975
0.6738206739
0.6811412492
0.6882467884
0.6911050731
0.6919669743
0.6916215789
0.7060507329
0.9198200345
1.046217148
1.059938241
1.058374895
1.054326502
1.054872643
1.056497302
1.057825323
1.059273779
1.060959976
1.062648081
1.063345048
0.7145318539
0.7195204402
0.7170332094
0.7089085801
0.6925379507
0.6780243046
0.6711696168
0.6695240534
0.6715459515
0.6739059079
0.6811252069
0.6882419754
0.6910912801
0.6919106464
0.6914904999
0.6918226462
0.8031446096
1.006132875
1.053458628
1.04947113
1.051213272
1.053395848
1.056346112
1.058937079
1.060411332
1.061995086
1.063431739
1.063534485
1.064495018
0.7160880156
0.7174970182
0.7167623811
0.7095387205
0.6925060401
0.678143691
0.6707083723
0.6692194258
0.6714522579
0.6739063715
0.680997675
0.6879488318
0.6909447835
0.6915144016
0.6915509661
0.6910055007
0.7274637316
0.9385495814
1.032987875
1.046710401
1.051368973
1.055062178
1.058633017
1.059989058
1.060756076
1.062017534
1.06282715
1.062696494
1.063592655
0.7166455218
0.7148742808
0.7167241826
0.7098934988
0.6932719569
0.6781302709
0.6703567134
0.6687827545
0.6713244955
0.6739599646
0.6807564495
0.6876346451
0.6906778732
0.6913638502
0.6914067149
0.6908483969
0.6943202592
0.8634662079
1.014388246
1.050166692
1.056757538
1.058181037
1.059423926
1.059546814
1.060369909
1.061150328
1.061358978
1.061644982
1.062511934
0.7164940523
0.7138303228
0.7166458398
0.7097200884
0.6938052478
0.6778431712
0.6699639676
0.6682155762
0.671021778
0.6739446997
0.6806689276
0.6873633505
0.6905803029
0.6914708939
0.6912626992
0.6909594927
0.6908144647
0.7635461799
0.9939974348
1.05407325
1.057792032
1.058355727
1.058761219
1.058524565
1.058694781
1.059372071
1.060344675
1.060737945
1.062054873
0.7162193469
0.7136658615
0.7165294487
0.7093426045
0.6936190569
0.6772088957
0.6694344684
0.667858964
0.6707438454
0.6740649795
0.6807459479
0.6873433352
0.6905855687
0.6916308813
0.6914560232
0.691006958
0.6902925901
0.6999176153
0.9095263815
1.046782151
1.05595967
1.056155936
1.054576564
1.055635951
1.057361068
1.058580685
1.060209894
1.060708563
1.06212993
0.7147987129
0.7137078549
0.7164195064
0.7085580322
0.6931246915
0.6763263329
0.6689594863
0.6676903427
0.6706397709
0.6742284413
0.6809333844
0.6873312012
0.6906163302
0.691668461
0.6915363084
0.6909818905
0.6902060994
0.6898654433
0.7915666738
1.003172593
1.048982503
1.046832273
1.050804385
1.054404372
1.05717679
1.059214966
1.06074313
1.060587544
1.061961372
0.7117426704
0.7142906622
0.7162705936
0.7079505228
0.6927917423
0.6757268007
0.6685660083
0.6675226038
0.6707339561
0.6745565109
0.6812194774
0.6873962062
0.6906354796
0.6916633227
0.6915312131
0.6908726409
0.6902740916
0.6895907331
0.7175698463
0.9328215546
1.026761804
1.042500124
1.050790651
1.05588686
1.059838786
1.060273971
1.0601969
1.05995339
1.061295352
0.7106422531
0.715426524
0.7161066507
0.7077117673
0.6930391206
0.6756379289
0.6681134961
0.6673010508
0.6707654059
0.6750135936
0.68153165
0.6875110731
0.6905846045
0.6915190999
0.6914099111
0.6907088108
0.6900877142
0.6895232135
0.6913119285
0.8521256071
1.007213096
1.043733971
1.056022733
1.060032265
1.061071776
1.059810663
1.059072768
1.058260134
1.059178835
1.060456171
0.7107641241
0.7157357654
0.7148770524
0.7077661969
0.6929981635
0.6756493193
0.6678227997
0.6670181181
0.6706505627
0.6753388863
0.6817752441
0.6875172725
0.6903954149
0.6913351226
0.6912907016
0.6906880024
0.6899750273
0.6896819904
0.6891713583
0.7500678061
0.9858821242
1.047043404
1.059209013
1.060885444
1.060227429
1.058273009
1.05585404
1.055895307
1.057704191
1.059590898
0.7129344531
0.7157328895
0.712829157
0.7074847975
0.6924934406
0.6753266348
0.6675178678
0.6666211404
0.6701538338
0.6755813228
0.6819794994
0.6875352904
0.6903024821
0.69125669
0.6912737136
0.6907014315
0.6899791591
0.6897250343
0.6888834747
0.6953083253
0.8968205321
1.039055737
1.0584514
1.059665858
1.055995153
1.0543145
1.053425493
1.054658242
1.05733219
1.059511763
0.7165086088
0.7143234605
0.7120915121
0.7070883162
0.6920021306
0.6747247178
0.6670392118
0.6662156668
0.669836186
0.6758187612
0.6823163514
0.6876519063
0.6902820762
0.691239172
0.6913258275
0.6908314731
0.6901969589
0.6896397446
0.6889685652
0.6886134948
0.7799161748
0.99611047
1.052260513
1.051904022
1.051182149
1.051882282
1.052680997
1.055230487
1.058573305
1.060345474
0.717331859
0.7122881814
0.7121857589
0.706828455
0.6917788293
0.6742215957
0.6664661743
0.6659460891
0.6698059728
0.6761419591
0.6827298513
0.6878613763
0.6903239909
0.6912893163
0.6917078691
0.691329872
0.6905131784
0.689696758
0.6893860377
0.6887637371
0.7102102385
0.9242653221
1.027968637
1.045269868
1.049825863
1.052107615
1.054748627
1.05629617
1.058967731
1.060351013
0.7173464232
0.7117456887
0.712449753
0.7067162436
0.6917714566
0.674041637
0.6661300874
0.665888924
0.6698455546
0.6765627535
0.6831707772
0.6882218106
0.6906026734
0.6915136213
0.6918846041
0.6915478536
0.6905738805
0.6896985776
0.6894181185
0.688762483
0.6899854755
0.841800505
1.004162837
1.043979295
1.053147096
1.055106373
1.055858968
1.056416635
1.058967677
1.060137258
0.7168434678
0.7117710066
0.7128602786
0.706676889
0.6920185875
0.674221819
0.6660902287
0.665936421
0.6700556096
0.677347868
0.6838429459
0.6886588216
0.6907831398
0.6915842831
0.6918854192
0.6915646127
0.6904895737
0.6897033957
0.6893564491
0.6888662531
0.6884601727
0.7417480587
0.979396131
1.048077024
1.055112813
1.055423541
1.055873382
1.055751521
1.056768797
1.058341064
0.7134077962
0.7118872247
0.714248116
0.7066344588
0.6924050287
0.6750610682
0.6661315646
0.6659442788
0.670254511
0.6781096974
0.68468292
0.688891176
0.6907994397
0.6915303098
0.691771727
0.6914539744
0.6904190592
0.6896884733
0.6893355483
0.6889645265
0.6883455152
0.6934528581
0.8890822489
1.038819077
1.053145866
1.055166877
1.053049196
1.05329404
1.054866059
1.056932193
1.060450675
0.7106982868
0.712766926
0.7153467119
0.7064026228
0.6927761387
0.675865637
0.6666930201
0.6659320934
0.6700041492
0.6784795319
0.6851922296
0.6889296285
0.6907439427
0.6914458232
0.6917344605
0.6914520444
0.6904462933
0.6897780558
0.6894273812
0.6890687332
0.6883590262
0.6881107993
0.7746920905
0.9969327934
1.047577578
1.050969743
1.050324573
1.052277013
1.054577567
1.056552045
1.059703888
0.7103918132
0.7152785727
0.7154827122
0.7063292481
0.6929896905
0.6763419877
0.6670788353
0.6658425372
0.6697907682
0.6785644943
0.685382304
0.6890504402
0.6907723094
0.6914392557
0.6917404181
0.6915136545
0.6906375764
0.6901248777
0.6897519618
0.689335259
0.6887722762
0.6883016442
0.7082456174
0.9203505078
1.023465028
1.045161396
1.050581811
1.054194948
1.057038503
1.057834693
1.058269556
0.710986269
0.7162514489
0.7145880297
0.7063829448
0.693009452
0.6764408491
0.6672468927
0.666020703
0.6698691704
0.6786290359
0.6855297127
0.6892461411
0.6908989359
0.6915369473
0.6920078607
0.6919462059
0.6912289857
0.6904572945
0.6898774158
0.689513311
0.6890131938
0.6884778891
0.6896730095
0.8383580456
1.000684221
1.043994387
1.055550969
1.058220989
1.058860031
1.05812472
1.056322314
0.7150206655
0.7161772575
0.7113632997
0.7064691788
0.6930244847
0.6765066504
0.6676236923
0.6662265336
0.6700033946
0.6787162879
0.6858082929
0.6895574259
0.6913689666
0.6919920735
0.6923059555
0.6922008751
0.6915653917
0.6905250747
0.6898911754
0.6895353373
0.6891178703
0.688648904
0.6883888799
0.7436229597
0.978496224
1.047932727
1.059356504
1.05875817
1.058608728
1.057117093
1.054926812
0.7189022752
0.715047876
0.7097864832
0.706532867
0.6931711057
0.6771092137
0.6682779186
0.6663165746
0.6701877855
0.6789928958
0.6864236799
0.6902106364
0.6919767161
0.6922995857
0.6923861818
0.6922514258
0.6916248513
0.6904816667
0.6898487443
0.6894860712
0.6890852553
0.6886653989
0.6883031879
0.6945035378
0.8934125808
1.038338217
1.059674592
1.058518904
1.055801981
1.053707008
1.054916948
0.719580105
0.712875255
0.7095909013
0.7068558488
0.692874948
0.6783572165
0.6685802971
0.6663342161
0.670391986
0.6795022861
0.6872719194
0.6908174043
0.6922485842
0.6923791848
0.6923545252
0.6922381759
0.6915783386
0.6904606812
0.6898531768
0.6894972374
0.6891159551
0.6887120304
0.6883445044
0.6885198201
0.7821941381
0.9987722347
1.055592191
1.053306591
1.049830591
1.049491273
1.055025169
0.7197091077
0.7120312302
0.7096352594
0.707347914
0.6931686156
0.6785727964
0.6686095963
0.6663337219
0.6705782731
0.679816291
0.6877409272
0.6910894623
0.6922649843
0.6923700609
0.6923607603
0.6922354436
0.6915715019
0.6905097331
0.6899169658
0.6895682952
0.6892412748
0.6888912427
0.6886191201
0.6884422906
0.7153498157
0.9296453602
1.034883771
1.047428974
1.047536698
1.048033486
1.054372485
0.7188956013
0.7120764417
0.7105202129
0.7079584279
0.6932667467
0.6785535404
0.668566222
0.6663245909
0.6707208965
0.6799964766
0.6879047106
0.6911447938
0.6922757492
0.692496093
0.6924746443
0.6923390796
0.6916628545
0.6908112465
0.6902767342
0.6899094225
0.6896323129
0.6892862969
0.6889384064
0.6886038198
0.6910127617
0.8553950291
1.015372136
1.046758984
1.049695805
1.049871914
1.053161179
1.05717034
0.7150162185
0.7122988587
0.7132092501
0.7087018817
0.6933310531
0.6784844639
0.6684535797
0.6663138361
0.6707662068
0.6800668902
0.6880511631
0.6912175265
0.6924928136
0.6928965603
0.6927100931
0.6927031884
0.6921142822
0.6912973123
0.6905850611
0.6901602701
0.6898500231
0.6895130031
0.6892067645
0.6889178861
0.6890656601
0.7619284598
0.9971357465
1.050987442
1.053428045
1.053393951
1.051255623
1.05476004
0.7126478566
0.7129312239
0.7140889429
0.7089643462
0.6932837791
0.6782952661
0.6682445031
0.6662973179
0.6709451335
0.6801570454
0.6884652309
0.6916301657
0.6931330895
0.6933578102
0.6929800375
0.6929694841
0.6925151368
0.691536581
0.6906831673
0.6902176442
0.6898939907
0.6895711584
0.6892863575
0.6890441025
0.6889281491
0.7005103425
0.9197408366
1.043580066
1.052945763
1.054642454
1.051110093
1.053757714
0.7124564904
0.7157850887
0.7139292311
0.7078777833
0.692731826
0.6778812342
0.6680925037
0.6663793104
0.6712425056
0.6803830492
0.6888773118
0.692204027
0.6934496755
0.6935698921
0.69319002
0.6930864183
0.6926609577
0.691609372
0.6906892884
0.6902214123
0.6898901634
0.6895770573
0.6893151214
0.6890804137
0.6889470541
0.6897772657
0.8079085781
1.01115936
1.050952966
1.054278498
1.052661503
1.05429014
0.7131327767
0.7179672533
0.7123273983
0.7067456801
0.6923963558
0.6773853507
0.6681618909
0.6664832761
0.6715818045
0.680675895
0.6890797499
0.6924724471
0.6935773699
0.6936521943
0.6932967908
0.6931099917
0.692698289
0.6916007608
0.6906885626
0.6902290904
0.6899682415
0.6896805461
0.6894401123
0.6891863659
0.689208808
0.6892770272
0.7360453116
0.9528710827
1.035654097
1.048359969
1.055801093
1.057513293
0.7167866905
0.718186969
0.7100195569
0.7062963387
0.6924069491
0.6771795489
0.6683228861
0.666854086
0.6719894431
0.6809934575
0.6892413709
0.6926292333
0.6936061881
0.6937062091
0.6933555976
0.693153002
0.6927406691
0.6916674625
0.6908301149
0.6904007895
0.6901322797
0.6899285096
0.6897463528
0.6895253202
0.6893414715
0.6894344087
0.6954357127
0.8899690924
1.016576543
1.043092088
1.05719786
1.058714822
0.7203851217
0.7181299207
0.7093412915
0.7061469144
0.6926366297
0.6770778883
0.6681573766
0.6671047324
0.6724739937
0.6812297044
0.6893322796
0.6927634511
0.6937218184
0.6939031904
0.6935898827
0.6933007016
0.6928294379
0.6918315667
0.6909833037
0.690672949
0.6904849462
0.6902549965
0.6900602516
0.689790137
0.6896530083
0.68956667
0.690180483
0.8000123198
1.003180531
1.042489553
1.057854712
1.058771855
0.7215842254
0.7178104146
0.7092241016
0.7060371246
0.6929593455
0.6767825764
0.6677902847
0.6671035328
0.6728278363
0.68154815
0.689479761
0.6929173859
0.6939487511
0.6940892414
0.6937246005
0.6933580286
0.6930699836
0.6922178993
0.6913430681
0.6908894668
0.6906381827
0.6903802875
0.6901939145
0.6899267954
0.6897640091
0.6897777495
0.6897549488
0.7167342671
0.9550229925
1.046316584
1.052056173
1.054417934
1.056339357
0.721845401
0.7164544657
0.7091664907
0.7059310161
0.6927846025
0.6765416652
0.6674660024
0.6671045233
0.6730130639
0.6818830132
0.6895926105
0.6931284149
0.6941923359
0.6945373174
0.6940503972
0.6935227069
0.6932650823
0.6925170568
0.691514817
0.6909854874
0.6907058879
0.6904255993
0.6902453701
0.689951427
0.6897811242
0.6898125383
0.6898313039
0.6923815001
0.8512571656
1.037727894
1.047714139
1.05029236
1.051790797
0.7216161195
0.7150899844
0.709268358
0.7057305649
0.6925504621
0.6762318361
0.6671283499
0.6670723564
0.6733752284
0.6822352987
0.6898003641
0.69337691
0.6945312716
0.6947446652
0.694226353
0.693594085
0.6933158266
0.6926037131
0.6915922031
0.6910081483
0.6907061102
0.6904372417
0.6902883285
0.690042816
0.6898329756
0.6898514522
0.6898357427
0.6899193706
0.7652115914
0.9934072006
1.049813998
1.049706782
1.049989119
0.7190721464
0.7150643832
0.711197683
0.7056141901
0.6920350769
0.6757393992
0.6667497118
0.6671832543
0.6738810543
0.6827324393
0.690067132
0.6935680571
0.6946056511
0.6947833909
0.6943097995
0.6936198652
0.6933244064
0.6926214058
0.691579734
0.6910541236
0.6907411011
0.6904763524
0.690330906
0.6900992364
0.6899051191
0.6899432854
0.6899561998
0.6900539879
0.7071531695
0.9301478613
1.053175659
1.053703185
1.052148708
0.7154531539
0.7152997877
0.7134391904
0.7053660807
0.6915874874
0.6751910174
0.6662698188
0.6672855231
0.6747030042
0.6833505964
0.6903156429
0.6936404328
0.6946262944
0.694788512
0.6943000507
0.6935981854
0.6933068831
0.6926424998
0.691638653
0.6911077818
0.6907769463
0.6905342435
0.6905021325
0.6903783678
0.6901275749
0.6901502697
0.6902069452
0.690160027
0.6917888967
0.8549189743
1.038368703
1.054374573
1.055320981
0.7143319695
0.7170161257
0.7136455222
0.7036011106
0.690912683
0.674755648
0.6658910806
0.6672891618
0.6755193946
0.6838427201
0.6905250509
0.6936430176
0.6945660551
0.6948034818
0.6943280672
0.69359426
0.6932802922
0.6926674192
0.6917347418
0.691304425
0.6909563116
0.6907099423
0.6907056554
0.6905960985
0.690315133
0.6903234285
0.6903785208
0.6903773731
0.6904514428
0.7562870223
0.9811819019
1.049938003
1.054699759
0.7145290342
0.72010631
0.7133128694
0.7008258472
0.690660557
0.6743096368
0.6655998119
0.6672067864
0.6760302085
0.684233298
0.6905715628
0.69358097
0.6945313555
0.69486578
0.694496486
0.6936939249
0.6932867136
0.692738553
0.6919365159
0.6915165197
0.6911598809
0.6908092472
0.690777642
0.6906680308
0.6903727218
0.6903828971
0.690443135
0.6904362034
0.6903632903
0.6995898136
0.9037248485
1.028747202
1.052421433
0.7170461332
0.7210593415
0.7124897599
0.6996157673
0.6902981902
0.6738624894
0.6652192578
0.667129419
0.6761894975
0.6847636201
0.6906326723
0.6934982148
0.6945191335
0.6949735494
0.6947299494
0.6938228386
0.6933135726
0.6928404574
0.6920226097
0.6915755838
0.691217501
0.6908341709
0.6907872904
0.6906947403
0.6903662789
0.690260411
0.6904475435
0.6904361142
0.6903467081
0.6914482634
0.8247576254
0.9976494203
1.04123191
0.7202879802
0.720953235
0.7115427423
0.6994391352
0.6899234973
0.6734252494
0.6649459688
0.6669564694
0.6764443835
0.6853078772
0.6908326883
0.6934968347
0.6946699405
0.6950838347
0.6947669415
0.6938273532
0.6932852289
0.6928382875
0.6920272844
0.6915712544
0.6912193335
0.6907226459
0.6905616121
0.6906111539
0.6902498498
0.6901337974
0.6903116526
0.6903146145
0.6902503133
0.6905521703
0.736050366
0.9710233893
1.029948645
1.046757749
0.7213105734
0.7208014569
0.7113711432
0.6995136439
0.6893547512
0.6730054901
0.6647724907
0.666566571
0.6767969977
0.6859332131
0.6910586858
0.6936960628
0.6947600342
0.6950662801
0.6947361349
0.6937223286
0.6932007218
0.6927817742
0.6919526652
0.6913458578
0.6911370372
0.6905110219
0.6903455176
0.6904421723
0.6902214467
0.6901045443
0.6902574374
0.6902807204
0.6902369797
0.6903426362
0.6957249208
0.8991476565
1.026115271
1.045910174
0.7214545278
0.7201397233
0.7114502546
0.7001639081
0.6891226782
0.6723304427
0.6644035934
0.6661292499
0.6771936038
0.686468648
0.6912258214
0.6937460451
0.6947504418
0.6949883886
0.6946630827
0.6934627973
0.6928261854
0.6926139201
0.6917306637
0.6910564751
0.6908993874
0.6904403087
0.6902650266
0.690378546
0.6903119647
0.6901703571
0.6902904911
0.6903469225
0.6903077982
0.6903654635
0.6907869414
0.7954629878
1.020644424
1.051851152
0.7214604444
0.7175695578
0.7114305458
0.7009023805
0.6887796167
0.6718182778
0.6642977095
0.6661222179
0.67775809
0.6868196824
0.6913073127
0.6937493864
0.6947095236
0.6946637242
0.6945296437
0.6933062462
0.6925106285
0.6922459888
0.6915900576
0.6909453637
0.6908138878
0.690513603
0.6903186628
0.6904379937
0.6903473735
0.6901893808
0.6903168524
0.6903830304
0.6903275713
)
;

boundaryField
{
    inlet
    {
        type            fixedValue;
        value           nonuniform 0();
    }
    outlet
    {
        type            inletOutlet;
        inletValue      nonuniform 0();
        value           nonuniform 0();
    }
    bottom
    {
        type            slip;
    }
    top
    {
        type            slip;
    }
    obstacle
    {
        type            zeroGradient;
    }
    defaultFaces
    {
        type            empty;
    }
    procBoundary21to15
    {
        type            processor;
        value           nonuniform List<scalar> 
23
(
1.238390461
1.228990935
1.221673347
1.213706712
1.211665959
1.216559271
1.22385208
1.228917063
1.230747132
1.232443718
1.236412834
1.240525397
1.244862647
1.249029836
1.252280599
1.254526641
1.254300281
0.9787281996
1.127880831
1.172201264
1.18616593
1.183245921
1.183245921
)
;
    }
    procBoundary21to22
    {
        type            processor;
        value           nonuniform List<scalar> 
70
(
1.254065436
1.223182201
1.1853103
1.146697858
1.114512873
1.09141821
1.09141821
1.076735719
1.067584897
1.064502287
1.061087485
1.057771082
1.054262932
1.054262932
1.051303681
1.049115894
1.047261813
1.045179779
1.042862642
1.04068395
1.040187438
1.040187438
1.041046596
1.042056947
1.042623179
1.042838744
1.043382209
1.046274771
1.046274771
1.049993786
1.053006068
1.055400558
1.056577605
1.058160443
1.060131245
1.062093794
1.062093794
1.063363343
1.063459671
1.062896663
1.063185171
1.063876023
1.064662966