/*--------------------------------*- C++ -*----------------------------------*\
  =========                 |
  \\      /  F ield         | OpenFOAM: The Open Source CFD Toolbox
   \\    /   O peration     | Website:  https://openfoam.org
    \\  /    A nd           | Version:  7
     \\/     M anipulation  |
\*---------------------------------------------------------------------------*/
FoamFile
{
    version     2.0;
    format      ascii;
    class       volScalarField;
    location    "3";
    object      p;
}
// * * * * * * * * * * * * * * * * * * * * * * * * * * * * * * * * * * * * * //

dimensions      [1 -1 -2 0 0 0 0];

internalField   nonuniform List<scalar> 
555
(
0.9924438159
0.9926494673
0.9925113558
0.9931649997
0.994812762
0.9973130544
0.998787442
0.9991109265
0.999245736
0.9996656864
0.999719534
0.9861746179
0.9930135235
0.9884358691
0.9880705177
0.991224268
0.9925908143
0.9931902575
0.9933043363
0.9931711834
0.9937283717
0.9952342989
0.997003976
0.9983303151
0.9992099576
0.9998455334
1.000291004
1.000210437
0.9836264129
0.9917889865
0.9884233477
0.9886495649
0.9922910826
0.9938514194
0.9942077002
0.9943137541
0.994172644
0.9946079275
0.9959189337
0.9974575932
0.9988986305
1.00008326
1.000826605
1.001255977
1.00122724
0.9823007707
0.9921698071
0.9894550068
0.9900555464
0.9939731423
0.9954679068
0.995515135
0.9955850284
0.9953346903
0.9957201303
0.996749867
0.998129868
0.9995005551
1.000797164
1.001692875
1.002328618
1.002473546
0.9931264261
0.9909497967
0.9919446283
0.9961183648
0.9968830763
0.9970293385
0.9971880826
0.9968467869
0.9971099107
0.9977814593
0.9990281595
1.00076108
1.002106916
1.002671831
1.003128686
1.002941477
0.9947791422
0.9927734071
0.9933072724
0.9964944274
0.9967106469
0.9967263029
0.9970610412
0.9968739731
0.9971367837
0.9977327076
0.9992137743
1.000836383
1.001668755
1.001922482
1.002553823
1.002523881
0.9959737525
0.9938074311
0.9932393253
0.9958521843
0.9956387845
0.995620956
0.9963522559
0.9965410152
0.9968105888
0.9973947046
0.9988392956
1.000395416
1.000752122
1.000709584
1.000950371
1.000473556
0.9960222205
0.9937213572
0.9918559891
0.9938103514
0.9940254756
0.9945646039
0.9951604082
0.9952661917
0.9956671525
0.9962395565
0.997440434
0.9982069244
0.9980407327
0.9976480556
0.9979157203
0.9980142976
0.9978536863
0.9952747867
0.9926491813
0.9894658431
0.9922691415
0.9939969334
0.9947622512
0.9950014262
0.9945969799
0.994170504
0.9941652596
0.994413622
0.9947028165
0.9951185142
0.9956284978
0.9966927455
0.9974041784
0.9974291123
0.9929156119
0.9896487913
0.988725244
0.9923724616
0.9945593427
0.9953896988
0.9954797697
0.9950458661
0.9941173437
0.9936465171
0.9932974203
0.9937053915
0.9946434567
0.9958221405
0.9970567319
0.997853356
0.9978052345
0.9925184204
0.9896296464
0.9888917846
0.9930890445
0.9961767373
0.9966593899
0.9963669785
0.9955537579
0.9945711533
0.9941776638
0.9938784455
0.9942530503
0.9951776794
0.9963407694
0.9977507376
0.9989816684
0.999069108
0.9929423014
0.9905538981
0.9900105659
0.9949890735
0.9967604308
0.9965449535
0.996018701
0.9962481713
0.9951489321
0.995037865
0.9950730832
0.9957374712
0.9966553636
0.9976938305
0.9993649024
1.000722583
1.00091985
0.9918334719
0.9910783068
0.9954779068
0.9966841629
0.9964160807
0.9960013722
0.9960154256
0.9959306255
0.9962728987
0.9968788522
0.9982227841
0.9994511252
1.000287199
1.001666712
1.002300401
1.002516402
0.9924872145
0.9908836893
0.99501837
0.9960337055
0.995697604
0.995793588
0.9961679314
0.9969654304
0.997758658
0.9986124573
1.000077767
1.001169634
1.001601242
1.002075041
1.002255591
1.002491575
0.99310557
0.9902021642
0.9937884312
0.9950782221
0.9948136965
0.9955313833
0.9962182786
0.9972026177
0.9980666898
0.9985565047
0.999898434
1.000955409
1.00137628
1.001615974
1.001557828
1.001297835
0.9933393043
0.9894916258
0.9928298695
0.9951884205
0.9949775135
0.9952737088
0.9960030973
0.9967182789
0.9974218768
0.9977299191
0.9984426051
0.9989114536
0.9990644344
0.9984121283
0.9985988819
0.9988233498
0.9930123981
0.9888169025
0.9931070664
0.9964386664
0.9959427442
0.9957390644
0.9954314607
0.9950006964
0.9950012879
0.9944282623
0.9947515381
0.9955077255
0.99610966
0.9961521876
0.9968222816
0.997595558
0.9936603977
0.988789683
0.9938106469
0.9972459994
0.9968191668
0.9961264637
0.9951644025
0.9942881186
0.9935259391
0.9933402309
0.9935269209
0.9943777643
0.9948503221
0.9949309833
0.9956111764
0.9968298903
0.9941979377
0.9888895763
0.9943016448
0.9979203186
0.9976206211
0.996582476
0.995245861
0.9938129372
0.9932753674
0.9930138451
0.9934288708
0.994573099
0.9951103332
0.9949692044
0.9958195961
0.9972171572
0.9944781118
0.9892301615
0.9948290012
0.9980359081
0.9973544237
0.9961641814
0.9950959091
0.994150112
0.9941764839
0.9945214864
0.9951622287
0.996277918
0.9970004242
0.9970977927
0.9980533236
0.9991597978
0.9911066415
0.9890578757
0.9949152809
0.9967682746
0.9952888511
0.9946512344
0.9944276087
0.9943635819
0.9946294938
0.9950878074
0.9958541138
0.9967162286
0.9973592348
0.9974222558
0.9978925642
0.9986020534
0.9680938695
0.9879903854
1.001641157
0.996065763
0.9916881211
0.9923558388
0.9929656202
0.9938057142
0.9943654774
0.9950920388
0.9955174775
0.99609271
0.9967916515
0.9963990989
0.9964588507
0.997174201
0.8915588752
0.9664473826
0.9878296509
0.9867149032
0.9906769778
0.9958740072
0.9962787175
0.996112291
0.9963008622
0.9966868035
0.9964079697
0.9962901988
0.9956640765
0.9948202276
0.994973901
0.9955369789
0.7284309346
0.8638136023
0.9362967979
0.9596095805
0.98731113
0.9960579747
0.9967729467
0.9981567084
0.9987526248
0.9975849224
0.9956997381
0.9951340621
0.9944729888
0.9947390801
0.9955507749
0.9964936274
0.584763394
0.656944916
0.7784127894
0.8904151703
0.9786262288
0.9817637893
0.9886310167
0.995436425
0.9961103481
0.9942439995
0.9957358063
0.9953466906
0.9952182351
0.9956328988
0.9961687192
0.9966576669
0.5561003409
0.5648717875
0.6109145574
0.7092873368
0.8433969939
0.8992283481
0.9514338482
0.9802666883
0.9783701474
0.9855236128
0.9943363127
0.9970616748
0.9963042508
0.9956922216
0.9956248003
0.9958726286
0.5602662464
0.5641581356
0.5664940981
0.5854394808
0.6453632761
0.7694440046
0.8906304439
0.9439350291
0.9602101147
0.9904650205
0.9984952099
0.9975035552
0.9956096714
0.992146648
0.9904007934
0.9913688632
0.5903708329
0.5837532109
0.5733120089
0.5681477238
0.5725122088
0.6118913744
0.6909271122
0.8094656485
0.9096098904
0.9797680864
0.9865164671
0.9859403659
0.9895369822
0.9870951406
0.9863362746
0.9894005478
0.6136357024
0.6018914462
0.5928000484
0.5745064127
0.5733811871
0.578591851
0.594119836
0.6461816428
0.7395332308
0.8594084128
0.912067334
0.9585747411
0.9899780855
0.9871523562
0.9898671662
0.9950770318
0.6615868531
0.6391682711
0.6349959075
0.6145847939
0.5905260863
0.5864602051
0.5837622759
0.5859006965
0.6101312604
0.6764421504
0.7966730002
0.913070255
0.9683139672
0.9799965745
0.9953153976
0.999757844
0.7354341361
0.6902454303
0.6670925912
0.6497044866
0.6153373717
0.5963345173
0.5949660355
0.5888693223
0.5884186436
0.5973233401
0.645674525
0.730836713
0.8362064039
0.9159179697
0.9860423366
0.988163912
0.7848035727
0.7394253705
0.7037869238
0.6946590109
0.6732039994
0.6393297952
0.6273179479
0.6155631288
0.5975348743
0.5929266323
0.5970605282
0.6171598565
0.6848547064
0.7899952752
0.9007401145
0.929142883
0.8438628903
0.8054036697
0.7604402707
0.7384248679
0.7175472638
0.6792593746
0.651119697
0.6432111475
0.6242528219
0.6012514567
0.6005310042
0.6036284565
0.6111375159
0.6488213084
0.7250213256
0.8344333138
0.9071014759
0.8675487236
0.8155892192
0.7768896535
0.7561840162
0.7299122643
0.693802554
0.681193155
0.6690488176
0.6392472914
0.6221164671
0.6161424643
0.6070880123
0.607389383
0.6215548441
0.6838944969
0.9658750566
0.9246299348
0.8778324795
0.8296386496
0.8044137118
0.7833408989
0.7461578238
0.7157810453
)
;

boundaryField
{
    inlet
    {
        type            fixedValue;
        value           nonuniform 0();
    }
    outlet
    {
        type            zeroGradient;
    }
    bottom
    {
        type            slip;
    }
    top
    {
        type            slip;
    }
    obstacle
    {
        type            zeroGradient;
    }
    defaultFaces
    {
        type            empty;
    }
    procBoundary28to21
    {
        type            processor;
        value           nonuniform List<scalar> 8(0.9873269944 0.9859876554 0.9843454981 0.9824536622 0.9824536622 0.9832748048 0.9828251284 0.982146177);
    }
    procBoundary28to22
    {
        type            processor;
        value           nonuniform List<scalar> 
18
(
0.9941089186
0.9944342075
0.9941912277
0.9948166041
0.9960120341
0.9979380653
0.999582461
1.000001306
1.000016732
1.000011334
1.000129184
0.9874407855
0.9943955168
0.9904402436
0.9883145747
0.9905436801
0.9915903448
0.9915903448
)
;
    }
    procBoundary28to23
    {
        type            processor;
        value           uniform 0.9997927423;
    }
    procBoundary28to27
    {
        type            processor;
        value           nonuniform List<scalar> 
28
(
0.9796649764
0.9763530408
0.9747627048
0.9740611265
0.9940702423
0.9940702423
0.9942103078
0.9943186321
0.994149998
0.9941523059
0.9939112545
0.9940068159
0.9935117978
0.9961582456
0.9578935538
0.800530196
0.6101560337
0.5537407287
0.5545704585
0.5600962647
0.6054033783
0.6536604934
0.70354853
0.7679140088
0.8193909544
0.8826981924
0.9537246306
1.02419372
)
;
    }
    procBoundary28to29
    {
        type            processor;
        value           nonuniform List<scalar> 
34
(
1.000178474
1.000971362
1.002150076
1.002559486
1.002270818
1.000142266
1.000142266
0.9979490026
0.9974855889
0.9977644466
0.9985685143
1.000542345
1.00245469
1.002432814
1.000644999
0.9992700874
0.9981564081
0.9977721487
0.9980822385
0.9996536196
0.9990976027
0.9978534281
0.9963717707
0.9968274193
0.9972655625
0.9964145268
0.9936087985
0.993928472
0.9980300678
0.99888281
0.9890707655
0.9675936086
0.938339552
0.7757968197
)
;
    }
    procBoundary28to34
    {
        type            processor;
        value           nonuniform List<scalar> 
17
(
0.6989538733
0.6748163407
0.64576485
0.6337837831
0.6225305221
0.6095865875
0.6114150622
0.6210803402
1.032122445
0.9829674826
0.9408459643
0.8891903159
0.8482208314
0.8227739251
0.7905203191
0.6989538733
0.7553598328
)
;
    }
}


// ************************************************************************* //
