/*--------------------------------*- C++ -*----------------------------------*\
  =========                 |
  \\      /  F ield         | OpenFOAM: The Open Source CFD Toolbox
   \\    /   O peration     | Website:  https://openfoam.org
    \\  /    A nd           | Version:  7
     \\/     M anipulation  |
\*---------------------------------------------------------------------------*/
FoamFile
{
    version     2.0;
    format      ascii;
    class       volScalarField;
    location    "0.6";
    object      T;
}
// * * * * * * * * * * * * * * * * * * * * * * * * * * * * * * * * * * * * * //

dimensions      [0 0 0 1 0 0 0];

internalField   nonuniform List<scalar> 
2222
(
1
1
1
1
1
1
1
1
1
1
1
1
1
1
1
1
1
1
1
1
1
1
1
1
1
1
1
1
1
1
1
1
1
1
1
1
1
1
1
1
1
1
1
1
1
1
1
1
1
1
1
1
1
1
1
1
1
1
1
1
1
1
1
1
1
1
1
1
1
1
1
1
1
1
1
1
1
1
1
1
1
1
1
1
1
1
1
1
1
1
1
1
1
1
1
1
1
1
1
1
1
1
1
1
1
1
1
1
1
1
1
1
1
1
1
1
1
1
1
1
1
1
1
1
1
1
1
1
1
1
1
1
1
1
1
1
1
1
1
1
1
1
1
1
1
1
1
1
1
1
1
1
1
1
1
1
1
1
1
1
1
1
1
1
1
1
1
1
1
1
1
1
1
1
1
1
1
1
1
1
1
1
1
1
1
1
1
1
1
1
1
1
1
1
1
1
1
1
1
1
1
1
1
1
1
1
1
1
1
1
1
1
1
1
1
1
1
1
1
1
1
1
1
1
1
1
1
1
1
1
1
1
1
1
1
1
1
1
1
1
1
1
1
1
1
1
1
1
1
1
1
1
1
1
1
1
1
1
1
1
1
1
1
1
1
1
1
1
1
1
1
1
1
1
1
1
1
1
1
1
1
1
1
1
1
1
1
1
1
1
1
1
1
1
1
1
1
1
1
1
1
1
1
1
1
1
1
1
1
0.9999999995
1
0.9999980392
1
1
1
1
1
1
1
1
1
1
1
1
1
1
1
1
1
1
1
1
1
1
1
1
1
1
1
1
1
1
1
1
1
1
1
1
1
1
1
1
1
1
1
1
1
1
1
1
1
1
1
1
1
1
1
1
1
1
1
0.9999999999
0.9999999999
0.9999999999
0.9999999999
1.000000001
0.9999999957
1.0000017
0.9998622465
1
1
1
1
1
1
1
1
1
1
1
1
1
1
1
1
1
1
1
1
1
1
1
1
1
1
1
1
1
1
1
1
1
1
1
1
1
1
1
1
1
1
1
1
1
1
1
1
1
1
1
1
1
1
1
1
0.9999999999
0.9999999999
0.9999999999
0.9999999997
1.000000002
1.000000003
1.000000116
1.000003668
1.000024145
1.00056961
0.9985396355
1
1
1
1
1
1
1
1
1
1
1
1
1
1
1
1
1
1
1
1
1
1
1
1
1
1
1
1
1
1
1
1
1
1
1
1
1
1
1
1
1
1
1
1
1
1
1
1
1
1
1
1
1
1
0.9999999997
0.9999999998
0.9999999994
1.000000003
1.00000001
1.000000396
1.000005323
1.000065134
1.000348488
1.002074998
1.007625049
1.027096473
1.04899231
1
1
1
1
1
1
1
1
1
1
1
1
1
1
1
1
1
1
1
1
1
1
1
1
1
1
1
1
1
1
1
1
1
1
1
1
1
1
1
1
1
1
1
1
1
1
1
1
1
1
0.9999999999
0.9999999999
0.9999999999
1
0.9999999976
1.000000058
1.000001061
1.000013163
1.000122398
1.000636093
1.002808568
1.012365696
1.032846611
1.076016553
1.139564328
1.205411517
1.256197593
1
1
1
1
1
1
1
1
1
1
1
1
1
1
1
1
1
1
1
1
1
1
1
1
1
1
1
1
1
1
1
1
1
1
1
1
1
1
1
1
1
1
1
1
1
1
1
0.9999999997
0.9999999998
0.9999999997
0.9999999999
1.000000001
1.000000237
1.00000302
1.000027982
1.000241065
1.001147517
1.004811535
1.01885682
1.044852486
1.091843683
1.159877437
1.221986755
1.281705682
1.319652142
1.338110309
1.358251264
1
1
1
1
1
1
1
1
1
1
1
1
1
1
1
1
1
1
1
1
1
1
1
1
1
1
1
1
1
1
1
1
1
1
1
1
1
1
1
1
1
1
0.9999999999
0.9999999999
0.9999999996
0.9999999996
1
0.9999999982
1.00000002
1.000000792
1.000008352
1.000069609
1.000526656
1.002173598
1.007759224
1.027131413
1.060258623
1.116387966
1.185829051
1.241608328
1.299191125
1.329604607
1.343431749
1.358032431
1.371873772
1.380159279
1.381580112
1
1
1
1
1
1
1
1
1
1
1
1
1
1
1
1
1
1
1
1
1
1
1
1
1
1
1
1
1
1
1
1
1
1
1
1
1
1
0.9999999999
0.9999999999
0.9999999999
0.9999999998
0.9999999995
1.000000002
0.9999999973
1.000000151
1.000003033
1.000025143
1.000167003
1.001043577
1.003930085
1.013258408
1.04200498
1.083174911
1.141433115
1.207445424
1.259527825
1.317393242
1.343769889
1.352991992
1.363977164
1.372634388
1.379339297
1.383289058
1.384349456
1.384329643
1.383326604
1
1
1
1
1
1
1
1
1
1
1
1
1
1
1
1
1
1
1
1
1
1
1
1
1
1
1
1
1
1
1
1
1
1
1
0.9999999999
0.9999999999
0.9999999999
0.9999999998
1
1.000000001
1.000000026
1.000000756
1.000010002
1.000068213
1.000398523
1.002287371
1.007741427
1.022555224
1.059914036
1.106842243
1.16998054
1.235681829
1.281591349
1.330271294
1.355871615
1.358946247
1.364096176
1.367661797
1.37152839
1.377397525
1.380245985
1.381626832
1.382591744
1.382548276
1.38187977
1.380218579
1
1
1
1
1
1
1
1
1
1
1
1
1
1
1
1
1
1
1
1
1
1
1
1
1
1
1
1
1
1
1
0.9999999999
0.9999999999
0.9999999999
0.9999999999
0.9999999994
1.000000004
1.000000006
1.000000208
1.00000318
1.000034565
1.000204435
1.001007388
1.004758647
1.013870492
1.035961696
1.085551894
1.14027845
1.203138948
1.259733927
1.296641946
1.33848568
1.365191228
1.369582684
1.375148055
1.377059166
1.378105377
1.380071726
1.381944049
1.383274633
1.38375096
1.383613363
1.382274369
1.380242666
1.378483743
1.377603994
1.377570715
1
1
1
1
1
1
1
1
1
1
1
1
1
1
1
1
1
1
1
1
1
1
1
1
1
1
1
1
0.9999999999
0.9999999995
0.9999999997
0.9999999995
1.000000001
0.9999999988
1.000000082
1.000001285
1.000013827
1.000116644
1.000545624
1.002289728
1.009699907
1.02571293
1.059083084
1.117782934
1.172372309
1.232367809
1.282099908
1.312689119
1.346145058
1.369711627
1.37195815
1.371857647
1.371804437
1.370727436
1.372131579
1.375485561
1.378423096
1.380748028
1.382875226
1.38366204
1.383559392
1.382919031
1.38135117
1.379308402
1.378228812
1.378137488
1.3785288
1
1
1
1
1
1
1
1
1
1
1
1
1
1
1
1
1
1
1
1
1
1
1
1
0.9999999999
0.9999999999
0.9999999997
0.9999999998
0.9999999999
0.9999999966
1.000000024
1.000000665
1.000006197
1.000050958
1.000349144
1.001447834
1.005550855
1.019988516
1.044120532
1.087481774
1.151857835
1.208103063
1.266585002
1.305423762
1.328513123
1.353517411
1.371919202
1.376088246
1.38086096
1.381808808
1.381474197
1.380660758
1.378644729
1.377500449
1.37761773
1.379054805
1.380531568
1.381055441
1.381141583
1.380802387
1.3799252
1.379262215
1.37885998
1.378812587
1.379223306
1.380331084
1.381329028
1
1
1
1
1
1
1
1
1
1
1
1
1
1
1
1
1
1
1
1
0.9999999999
0.9999999999
0.9999999998
0.9999999996
0.9999999992
1.000000003
0.9999999982
1.000000275
1.000003722
1.000027685
1.000197322
1.001083418
1.003680346
1.012182106
1.036062422
1.070667085
1.126986804
1.193242083
1.242671815
1.296203513
1.32451099
1.338573336
1.354690244
1.36880386
1.373433556
1.375603537
1.376406351
1.376669281
1.377385742
1.378276294
1.378621245
1.379022711
1.379842756
1.381357211
1.382665017
1.382897147
1.382558443
1.381557659
1.38011958
1.378680092
1.37802578
1.378019375
1.378295498
1.37904246
1.380355465
1.381402094
1.381664332
1
1
1
1
1
1
1
1
1
1
1
1
1
1
1
1
0.9999999999
0.9999999999
0.9999999999
0.9999999998
0.9999999994
1.000000002
0.9999999982
1.000000102
1.000002209
1.000020068
1.000118409
1.000667387
1.002892777
1.008645777
1.026254054
1.064385925
1.108315508
1.170242833
1.227529996
1.272498648
1.32339396
1.343510124
1.353831429
1.366701571
1.374081452
1.376838043
1.380499531
1.382837474
1.382916923
1.382735926
1.380959311
1.377364406
1.375798604
1.376072154
1.376892377
1.37812171
1.379782715
1.381286178
1.381876535
1.381910756
1.381558372
1.380615199
1.379412844
1.378779739
1.378770933
1.379115031
1.37978435
1.380508895
1.380866803
1.380940281
1.380708648
1
1
1
1
1
1
1
1
1
1
1
1
1
0.9999999998
0.9999999998
0.9999999998
0.9999999996
1.000000001
1.000000003
1.000000057
1.000001118
1.000013211
1.000087076
1.000422864
1.002116586
1.00771637
1.020172244
1.051383002
1.099538085
1.148589042
1.213719995
1.263873214
1.301457236
1.344575427
1.35576517
1.358734577
1.363058646
1.365631113
1.368766509
1.373425915
1.376544605
1.378198631
1.380484794
1.382392161
1.382474795
1.382190534
1.38120968
1.379578968
1.378898349
1.379067478
1.37968253
1.380319028
1.380722156
1.380770203
1.380483656
1.379765876
1.379195525
1.379074166
1.379196372
1.379551552
1.380340799
1.381147935
1.38137322
1.381303073
1.381021626
1.380456822
1.379594058
1
1
1
1
1
1
1
1
1
0.9999999999
0.9999999995
0.9999999997
0.9999999998
0.9999999984
1.000000001
1.000000044
1.000000678
1.000007624
1.000066958
1.000352782
1.001474099
1.006235247
1.017887356
1.040297808
1.087649493
1.144159159
1.19798318
1.257056822
1.291671789
1.321488434
1.357141684
1.367210053
1.371509902
1.377285877
1.377946724
1.377730574
1.37876996
1.380195984
1.380981169
1.381004931
1.380928867
1.379698154
1.378412143
1.377874339
1.377895707
1.378276935
1.378772534
1.379620523
1.381060413
1.381913771
1.381981256
1.381747733
1.381213783
1.380501824
1.379569762
1.379165912
1.379176583
1.379361946
1.379866669
1.380682408
1.381310606
1.381472752
1.38147432
1.381279293
1.38070195
1.380094157
1.379863412
1
1
1
1
1
0.9999999999
0.9999999999
0.9999999995
0.9999999998
0.9999999998
0.9999999968
1.000000014
1.000000514
1.000005256
1.000046221
1.000303247
1.001216246
1.004429164
1.015938758
1.037612369
1.075657916
1.136869493
1.190678839
1.242412608
1.290714337
1.313996364
1.338224859
1.364504203
1.36917238
1.369360721
1.370681982
1.370885778
1.371432309
1.374104058
1.376383557
1.378320273
1.380318809
1.38232212
1.38339435
1.383457557
1.383076612
1.381566506
1.379486415
1.378372596
1.378333822
1.378592043
1.379237058
1.380426422
1.381800299
1.382382769
1.382405927
1.382078342
1.381297919
1.380472901
1.38013241
1.380130668
1.380447634
1.381127901
1.381670011
1.381831559
1.38183213
1.381637277
1.381205082
1.380795953
1.380659734
1.38071729
1.380934691
1
0.9999999998
0.9999999999
0.9999999995
0.9999999995
0.999999999
1.000000003
0.9999999954
1.000000345
1.000004263
1.000032146
1.000221649
1.001101176
1.003779604
1.012792704
1.03701707
1.070391356
1.122616948
1.185668091
1.234631365
1.287543042
1.321006793
1.336873489
1.355291331
1.371468933
1.37461743
1.378398426
1.3814325
1.381428144
1.381111608
1.379845663
1.376977707
1.37560615
1.376205786
1.377870282
1.37935246
1.380627287
1.38167018
1.38209602
1.382092631
1.381945331
1.381468227
1.381047049
1.381110072
1.381620821
1.382124843
1.382274615
1.382239967
1.382136589
1.381918867
1.38139872
1.380953941
1.380897978
1.381074347
1.381473878
1.382077416
1.382658794
1.382843416
1.38283444
1.382701395
1.382279737
1.381731292
1.381492046
1.381525597
1.381736385
1.382135442
1.382485334
0.9999999996
0.9999999988
1.000000003
0.9999999949
1.000000163
1.000003103
1.000024971
1.000156064
1.000920959
1.003651071
1.010830415
1.031717205
1.069701659
1.114435581
1.178821799
1.236867505
1.27764499
1.324865109
1.341840463
1.348595769
1.359364944
1.367979457
1.370738601
1.374108443
1.377000702
1.378255087
1.379566538
1.380988373
1.381443912
1.38161798
1.381718158
1.381906697
1.382438381
1.383250424
1.383508484
1.383276484
1.382828176
1.382115702
1.381158738
1.380795128
1.380971601
1.381452862
1.382277569
1.383446656
1.384432506
1.384618614
1.384473041
1.383981701
1.383116756
1.382230448
1.381922356
1.381968254
1.382222773
1.382792275
1.383493272
1.383992902
1.384157365
1.384145343
1.383919569
1.383443852
1.383007081
1.382909589
1.38300515
1.383304132
1.383686435
1.384026225
1.384053425
1.000000055
1.000001871
1.000020827
1.00013169
1.000683761
1.003192002
1.009964334
1.026220632
1.065781088
1.116158333
1.170860637
1.233504693
1.27536618
1.312556539
1.35282641
1.36236168
1.368823274
1.376834507
1.378920581
1.380053165
1.382451491
1.38422466
1.384396824
1.384205165
1.383103499
1.380787426
1.378847902
1.378652424
1.379195817
1.380158388
1.381614669
1.383510952
1.385083995
1.385704041
1.385796978
1.385599168
1.384872006
1.383723029
1.383011837
1.382991649
1.383109378
1.383594698
1.384386481
1.385074786
1.385365697
1.385383409
1.385181435
1.38468959
1.384189112
1.384068442
1.384162187
1.384478481
1.384987389
1.385332815
1.385496534
1.385518972
1.38534633
1.384951003
1.384633251
1.384571252
1.384682266
1.38496589
1.385354844
1.385687737
1.385843324
1.385892012
1.385685084
1.000512867
1.002395668
1.009516036
1.024871046
1.058222248
1.115021947
1.166939834
1.225437696
1.279147691
1.309458362
1.342666864
1.369369388
1.370184799
1.371791577
1.373787114
1.372921356
1.373901649
1.378326068
1.381636474
1.384029548
1.38634901
1.38740052
1.387334983
1.386857903
1.385952199
1.384180478
1.382506159
1.382473058
1.382970554
1.383902539
1.385066883
1.386197399
1.38668181
1.386717124
1.38644352
1.38622471
1.386009088
1.3858948
1.38599929
1.386460083
1.386967277
1.387069594
1.387010529
1.386885986
1.386455165
1.385895333
1.385675864
1.385735077
1.3860531
1.386503061
1.386990469
1.387412665
1.387579749
1.387601886
1.387492881
1.387101937
1.38660932
1.386450059
1.386523894
1.386766956
1.387101239
1.387477798
1.387722531
1.387783432
1.387743297
1.387595848
1.387125958
1.052226245
1.10491498
1.169224071
1.222152405
1.281096737
1.317048316
1.339570329
1.368122845
1.382806604
1.384632415
1.388117919
1.389237523
1.38864829
1.38795173
1.386714374
1.384869074
1.38332223
1.383390083
1.384255541
1.384714691
1.385093684
1.385399425
1.385340405
1.385309
1.385380807
1.385726141
1.386557242
1.387869469
1.388839701
1.389155027
1.389100081
1.388788448
1.388124007
1.387282795
1.386969061
1.387054287
1.387409332
1.388025115
1.388742021
1.38927545
1.389349163
1.389301817
1.389079759
1.388535357
1.38793352
1.387786673
1.387838319
1.388067111
1.388495349
1.388978583
1.38927747
1.389343602
1.389293257
1.38909326
1.388805284
1.388610404
1.388605986
1.388669408
1.388817082
1.3890914
1.389362393
1.389420315
1.389368597
1.389183684
1.388934702
1.388817479
1.38870025
1.277692549
1.328787528
1.345552823
1.359893657
1.378016173
1.384187948
1.385443814
1.387335751
1.389418621
1.388077819
1.387205354
1.387148732
1.387412916
1.388433414
1.389861526
1.390878494
1.390795009
1.390279281
1.389317528
1.388088672
1.3869808
1.386376333
1.386504468
1.387015446
1.387886227
1.388984704
1.390256309
1.391261416
1.391491781
1.391489916
1.391244819
1.390598958
1.389859663
1.389442101
1.389333746
1.389349577
1.389621138
1.390138949
1.390564132
1.390672513
1.390609675
1.390367682
1.389999024
1.389775077
1.389765186
1.389834854
1.39003636
1.390355107
1.390597094
1.39064411
1.39058851
1.39035307
1.390005328
1.389836165
1.389839917
1.389933652
1.390083666
1.390300467
1.390509995
1.390552538
1.390528391
1.39042217
1.390161882
1.389931066
1.389878726
1.38989607
1.390015812
1.388540568
1.399431314
1.400630133
1.400551673
1.400482649
1.399822983
1.398321189
1.394785236
1.390465787
1.386481952
1.38504984
1.385079786
1.385575637
1.38665791
1.388447533
1.390440806
1.391191138
1.391321982
1.391001458
1.390244311
1.3895468
1.389375028
1.389679829
1.390471876
1.391475044
1.392128448
1.392240645
1.392145814
1.391592014
1.391111373
1.390951036
1.390899125
1.390896548
1.391080475
1.391430893
1.391601063
1.391586478
1.391489822
1.391270662
1.390807419
1.390500616
1.390465509
1.39054224
1.390681575
1.390848778
1.391102831
1.391391779
1.39148406
1.391442531
1.391253721
1.390864486
1.390519538
1.390374397
1.390359168
1.390404717
1.390562244
1.390827281
1.391023998
1.391038224
1.390958177
1.390701766
1.390430337
1.390289036
1.390259691
1.390278573
1.39037847
1.390680471
1.393990578
1.397346082
1.398552527
1.397606055
1.395942042
1.39472808
1.39333124
1.392649539
1.392237906
1.390849617
1.389570577
1.388857117
1.388348508
1.388543706
1.389096424
1.389267193
1.389606444
1.390288261
1.391163408
1.391650396
1.391804447
1.392078068
1.392561961
1.3929765
1.393073081
1.392953891
1.392583026
1.391904003
1.391140264
1.39077534
1.390756836
1.390867729
1.391207062
1.391710296
1.39194109
1.391919874
1.391748813
1.391388494
1.390940588
1.390612997
1.390497415
1.39052282
1.390715108
1.39106349
1.391313499
1.391342554
1.391297834
1.391124315
1.390917313
1.390718744
1.390542917
1.390422086
1.39039579
1.390452032
1.390573891
1.390672277
1.390697031
1.390663998
1.390535218
1.390379531
1.390254455
1.390167181
1.390129698
1.390138802
1.390226802
1.390347652
1.390542137
1.39570221
1.391290738
1.389652192
1.388375332
1.386951726
1.38595161
1.385962823
1.386789629
1.388546644
1.389965609
1.390901771
1.391136625
1.391081449
1.390753446
1.390013509
1.389160813
1.389104378
1.389390337
1.390046852
1.390784695
1.391317517
1.391609689
1.391651696
1.39158009
1.391378458
1.391096163
1.39073782
1.390285875
1.38995548
1.389891502
1.389941197
1.390165254
1.390499783
1.390633101
1.390601088
1.390490302
1.390238979
1.389938134
1.38972438
1.389666319
1.389703575
1.389871169
1.39012396
1.390264409
1.390262229
1.390122516
1.38978752
1.389428434
1.38923763
1.389196793
1.389227825
1.38936593
1.389549787
1.389664199
1.389680424
1.38962729
1.3894345
1.389170005
1.388954343
1.388866449
1.388865104
1.388923143
1.38903122
1.389152317
1.389231547
1.389191898
1.38939284
1.390191507
1.388814677
1.386995795
1.384959253
1.383093561
1.382046816
1.38216363
1.382795943
1.384369525
1.386492804
1.387864142
1.388193894
1.388276989
1.388254215
1.388050132
1.387883342
1.387896366
1.388089507
1.388483214
1.388661538
1.388645721
1.38843482
1.387956949
1.387494461
1.387249075
1.387224613
1.387272484
1.387461446
1.38774737
1.387868054
1.387873094
1.387813509
1.38766528
1.387486116
1.387291838
1.387135755
1.387060966
1.387065454
1.387131464
1.38731277
1.38753065
1.387636015
1.387625956
1.38751156
1.387293834
1.387001403
1.386726613
1.386595751
1.386591338
1.38666223
1.386873558
1.387114496
1.387180152
1.387150167
1.387019278
1.386793277
1.386567217
1.386450975
1.386430791
1.386458211
1.386583959
1.386746035
1.386817625
1.386809108
1.386711765
1.386476215
1.386754505
1.38143492
1.381355145
1.38129285
1.381622011
1.382284232
1.382643708
1.382717881
1.382768988
1.382982061
1.383224408
1.383701096
1.384346424
1.384882909
1.385010489
1.384928383
1.384629092
1.384010744
1.383268783
1.382882014
1.382848199
1.382912779
1.383212793
1.383745801
1.384017097
1.384039254
1.383984251
1.383767835
1.383546275
1.383413631
1.383379588
1.383395122
1.383483635
1.383637195
1.383769855
1.383822275
1.383826103
1.383814498
1.383771201
1.383682374
1.383549606
1.383436384
1.383409652
1.383442957
1.383529761
1.383656509
1.38374858
1.383765944
1.383755131
1.38369654
1.38354429
1.383409446
1.383394677
1.383444357
1.383569311
1.383745504
1.383854179
1.383853655
1.38380849
1.383718142
1.38356107
1.383387423
1.383688783
1.379120654
1.379102862
1.37918408
1.379320597
1.379613803
1.380129087
1.380612895
1.380743813
1.380716905
1.380588279
1.380289022
1.380011865
1.379971699
1.380013536
1.380225546
1.380535473
1.380741374
1.380833925
1.380833649
1.380715714
1.380509944
1.380455633
1.380497017
1.380653455
1.380906293
1.381064861
1.381075411
1.381053749
1.380991257
1.380898857
1.38084074
1.380842403
1.380887532
1.380983279
1.38112869
1.381243876
1.38127321
1.381268317
1.381256916
1.381254568
1.381256274
1.381251837
1.381248277
1.381255488
1.381284304
1.381365928
1.38148263
1.381584889
1.381628674
1.381629618
1.381622635
1.381591496
1.381521234
1.381478457
1.381476743
1.381684918
1.378377394
1.378388771
1.378421859
1.378489231
1.378622904
1.37881088
1.379004818
1.379233609
1.379528547
1.379688799
1.379688444
1.379652347
1.379537769
1.37937358
1.379336323
1.37939613
1.37960964
1.37995881
1.380176951
1.380182296
1.380166145
1.380052807
1.379814429
1.379669519
1.379678666
1.379785505
1.380020098
1.380308513
1.380461164
1.380483931
1.380481322
1.380423782
1.38031414
1.380273881
1.38029763
1.380385946
1.380537985
1.38070013
1.380792368
1.380817968
1.380830107
1.380826667
1.380799953
1.380769116
1.380756067
1.380759703
1.380793017
1.380878829
1.380978372
1.381108316
)
;

boundaryField
{
    inlet
    {
        type            fixedValue;
        value           nonuniform 0();
    }
    outlet
    {
        type            inletOutlet;
        inletValue      nonuniform 0();
        value           nonuniform 0();
    }
    bottom
    {
        type            slip;
    }
    top
    {
        type            slip;
    }
    obstacle
    {
        type            zeroGradient;
    }
    defaultFaces
    {
        type            empty;
    }
    procBoundary14to7
    {
        type            processor;
        value           nonuniform List<scalar> 6(1 1 1 1 1 1);
    }
    procBoundary14to8
    {
        type            processor;
        value           nonuniform List<scalar> 
74
(
1
1
1
1
1
1
1
1
1
1
1
1
1
1
1
1
1
1
1
1
1
1
1
1
1
1
1
1
1
1
1
1
1
1
1
1
1
1
1
1
1
1
1
1
1
1
1
1
1
1
1
1
1
1
1
1
1
1
1
1
1
1
1
1
1
1
1
1
1
1
1
1
1
0.9999999955
)
;
    }
    procBoundary14to9
    {
        type            processor;
        value           nonuniform List<scalar> 
30
(
1.001459828
1.020251886
1.125274577
1.283688218
1.361453269
1.380322478
1.379993455
1.379895445
1.380260839
1.379915329
1.380128579
1.380673151
1.380457447
1.379923822
1.379945519
1.38081879
1.381954106
1.383156232
1.384523622
1.38625574
1.388285217
1.389688294
1.390291684
1.390431731
1.389075598
1.385315618
1.37638011
1.356635164
1.317986444
1.253166224
)
;
    }
    procBoundary14to13
    {
        type            processor;
        value           nonuniform List<scalar> 
28
(
1
1
1
1
1
1
1
1
1
1
1
1
1
1
1
1
1
1
1
0.9999999998
1.000000002
1.000106166
1.024293821
1.227410089
1.375704703
1.392140178
1.402153512
1.391070217
)
;
    }
    procBoundary14to20
    {
        type            processor;
        value           nonuniform List<scalar> 
20
(
1.378372715
1.380428773
1.381070437
1.381416531
1.381328751
1.381328751
1.37865425
1.379045554
1.379058798
1.379126686
1.379227552
1.379169924
1.379169924
1.379568278
1.379552458
1.37940517
1.379016618
1.378493502
1.378357245
1.378357245
)
;
    }
}


// ************************************************************************* //
