/*--------------------------------*- C++ -*----------------------------------*\
  =========                 |
  \\      /  F ield         | OpenFOAM: The Open Source CFD Toolbox
   \\    /   O peration     | Website:  https://openfoam.org
    \\  /    A nd           | Version:  7
     \\/     M anipulation  |
\*---------------------------------------------------------------------------*/
FoamFile
{
    version     2.0;
    format      ascii;
    class       volScalarField;
    location    "4.6";
    object      rho;
}
// * * * * * * * * * * * * * * * * * * * * * * * * * * * * * * * * * * * * * //

dimensions      [1 -3 0 0 0 0 0];

internalField   nonuniform List<scalar> 
22
(
1.041451803
1.322774413
1.049935021
1.281602565
1.052415475
1.259251867
1.049928549
1.222674031
1.35663529
1.040126657
1.172699523
1.34358247
1.02938062
1.131784043
1.319308251
1.020121068
1.09981247
1.288294677
1.011210023
1.070939608
1.250171323
0.9962447938
)
;

boundaryField
{
    inlet
    {
        type            calculated;
        value           nonuniform 0();
    }
    outlet
    {
        type            calculated;
        value           nonuniform 0();
    }
    bottom
    {
        type            calculated;
        value           nonuniform 0();
    }
    top
    {
        type            calculated;
        value           nonuniform 0();
    }
    obstacle
    {
        type            calculated;
        value           nonuniform List<scalar> 9(1.041451803 1.049935021 1.052415475 1.049928549 1.040126657 1.02938062 1.020121068 1.011210023 0.9962447938);
    }
    defaultFaces
    {
        type            empty;
    }
    procBoundary21to15
    {
        type            processor;
        value           nonuniform List<scalar> 2(1.03773276 1.322469512);
    }
    procBoundary21to22
    {
        type            processor;
        value           nonuniform List<scalar> 7(1.350256121 1.355035776 1.35490006 1.35490006 1.347156775 1.356279407 1.363158829);
    }
    procBoundary21to27
    {
        type            processor;
        value           nonuniform List<scalar> 4(1.043831826 1.209617382 1.043831826 1.025570434);
    }
    procBoundary21to28
    {
        type            processor;
        value           nonuniform List<scalar> 2(1.360487901 1.354767173);
    }
}


// ************************************************************************* //
