/*--------------------------------*- C++ -*----------------------------------*\
  =========                 |
  \\      /  F ield         | OpenFOAM: The Open Source CFD Toolbox
   \\    /   O peration     | Website:  https://openfoam.org
    \\  /    A nd           | Version:  7
     \\/     M anipulation  |
\*---------------------------------------------------------------------------*/
FoamFile
{
    version     2.0;
    format      ascii;
    class       volScalarField;
    location    "4.6";
    object      T;
}
// * * * * * * * * * * * * * * * * * * * * * * * * * * * * * * * * * * * * * //

dimensions      [0 0 0 1 0 0 0];

internalField   nonuniform List<scalar> 
22
(
0.9827193263
1.088214895
0.973452957
1.060887277
0.9535187577
1.030388477
0.9401326182
1.002492585
1.057756845
0.9348852651
0.9805580617
1.043156747
0.9325441742
0.9662081235
1.029271572
0.930302926
0.9551045131
1.015186282
0.9275749555
0.9444328825
0.9985879939
0.9222230678
)
;

boundaryField
{
    inlet
    {
        type            fixedValue;
        value           nonuniform 0();
    }
    outlet
    {
        type            inletOutlet;
        inletValue      nonuniform 0();
        value           nonuniform 0();
    }
    bottom
    {
        type            slip;
    }
    top
    {
        type            slip;
    }
    obstacle
    {
        type            zeroGradient;
    }
    defaultFaces
    {
        type            empty;
    }
    procBoundary21to15
    {
        type            processor;
        value           nonuniform List<scalar> 2(0.9815091925 1.087906622);
    }
    procBoundary21to22
    {
        type            processor;
        value           nonuniform List<scalar> 7(1.085123068 1.081645443 1.070894415 1.070894415 1.059212161 1.052478147 1.047119023);
    }
    procBoundary21to27
    {
        type            processor;
        value           nonuniform List<scalar> 4(0.9341930349 0.9806515249 0.9341930349 0.9316642974);
    }
    procBoundary21to28
    {
        type            processor;
        value           nonuniform List<scalar> 2(1.040587493 1.034279768);
    }
}


// ************************************************************************* //
