/*--------------------------------*- C++ -*----------------------------------*\
  =========                 |
  \\      /  F ield         | OpenFOAM: The Open Source CFD Toolbox
   \\    /   O peration     | Website:  https://openfoam.org
    \\  /    A nd           | Version:  7
     \\/     M anipulation  |
\*---------------------------------------------------------------------------*/
FoamFile
{
    version     2.0;
    format      ascii;
    class       volScalarField;
    location    "3.1";
    object      p;
}
// * * * * * * * * * * * * * * * * * * * * * * * * * * * * * * * * * * * * * //

dimensions      [1 -1 -2 0 0 0 0];

internalField   nonuniform List<scalar> 
200
(
1
1
1
1
1
1
1
1
1
1
1
1
1
1
1
1
1
1
1
1
1
1
1
1
1
1
0.9999999847
0.9999999831
0.9999999724
1.00000012
1.000000047
0.9999999236
1.000001329
1.000027748
1.000031997
1.000025816
1.000158982
1.000794103
1.002337077
1.005744852
1.003680482
1.011685067
1.027982707
1.047694238
1.095656303
1.055745727
1.122366809
1.195637613
1.261247693
1.362463811
1.001515254
1.020781787
1.053999685
1.072012119
1.057728415
1.014965578
1.041855053
1.050675523
1.045084253
1.023475227
1.0594668
1.058391024
1.033386482
0.9985153847
0.9996505301
1.092923082
1.04701288
0.9619038069
0.9582542914
0.9786580681
1.1585492
0.9327499062
0.9500655674
0.9734213789
0.9978819412
0.809090662
0.8654721605
1.018465556
1.023573773
1.012143013
0.8093798484
0.8968559583
1.035666065
1.029129566
1.010622009
0.8244537478
0.9289392766
1.048309724
1.027553306
1.010231992
0.8365925748
0.9508263283
1.05249838
1.027725846
1.010095951
0.8175525323
0.9919601324
1.06173794
1.025158444
1.009602059
0.820427639
0.9926237487
1.059008875
1.02558354
1.009421299
0.8366533265
0.9561123908
1.056112582
1.027780405
1.010100681
0.8229876942
0.9337495727
1.048283084
1.027621988
1.01019777
0.8077404141
0.9003382093
1.034149554
1.028740308
1.010685923
0.8096520813
0.862924794
1.01747004
1.023696214
1.012222409
1.158544122
0.9326301452
0.949962569
0.9734510474
0.9979597866
1.092915141
1.047064171
0.9618577716
0.9581345842
0.9786068568
1.059471159
1.058394561
1.033366955
0.9984340112
0.9995926941
1.014968323
1.04186129
1.050678969
1.045048798
1.023406115
1.001515676
1.020790095
1.053990304
1.071991679
1.057679289
1.055745731
1.122366802
1.195637627
1.261247663
1.362464004
1.00368048
1.011685068
1.027982715
1.047694185
1.095657329
1.000025816
1.000158982
1.000794101
1.00233708
1.005744828
1.000000047
0.9999999236
1.000001329
1.000027747
1.000031997
1
0.9999999847
0.9999999831
0.9999999724
1.00000012
1
1
1
1
1
1
1
1
1
1
1
1
1
1
1
1
1
1
1
1
1
1
1
1
1
)
;

boundaryField
{
    inlet
    {
        type            fixedValue;
        value           uniform 1;
    }
    outlet
    {
        type            zeroGradient;
    }
    bottom
    {
        type            slip;
    }
    top
    {
        type            slip;
    }
    obstacle
    {
        type            zeroGradient;
    }
    defaultFaces
    {
        type            empty;
    }
}


// ************************************************************************* //
