/*--------------------------------*- C++ -*----------------------------------*\
  =========                 |
  \\      /  F ield         | OpenFOAM: The Open Source CFD Toolbox
   \\    /   O peration     | Website:  https://openfoam.org
    \\  /    A nd           | Version:  7
     \\/     M anipulation  |
\*---------------------------------------------------------------------------*/
FoamFile
{
    version     2.0;
    format      ascii;
    class       volScalarField;
    location    "1.6";
    object      T;
}
// * * * * * * * * * * * * * * * * * * * * * * * * * * * * * * * * * * * * * //

dimensions      [0 0 0 1 0 0 0];

internalField   nonuniform List<scalar> 
200
(
1
1
1
1
1
1
1
1
1
1
1
1
1
1
1
1
1
1
1
1
1
1
1
1
1
1
0.9999999957
0.9999999952
0.9999999921
1.000000035
1.000000014
0.9999999782
1.000000369
1.000008295
1.000009108
1.000007464
1.000046254
1.000232107
1.000683833
1.00168648
1.001072436
1.003409891
1.008172173
1.013836006
1.027196951
1.015769855
1.033795552
1.052878642
1.069245333
1.094006163
1.000428805
1.005912887
1.015197453
1.020066293
1.016079873
1.004245515
1.011886736
1.014362857
1.012919952
1.007136072
1.017144216
1.016924386
1.010382701
1.001721375
1.002724276
1.027996748
1.01727894
0.9952655074
0.993714278
1.00006562
1.052653637
0.9933688294
0.9991758903
1.00623241
1.012722346
0.957679781
0.9774143416
1.024720637
1.028129699
1.022869416
0.9584926063
0.9898752735
1.032642503
1.032094051
1.025394724
0.9674938978
1.004476233
1.041003938
1.035121644
1.028815226
0.9757825907
1.017112889
1.046145811
1.038005647
1.031297834
0.9710220518
1.031724642
1.050133039
1.038372899
1.031835073
0.9712373364
1.028072577
1.049018392
1.038262172
1.031862103
0.974576121
1.014340897
1.046645323
1.038030311
1.031328749
0.9669677328
1.005029234
1.041434385
1.035338292
1.028846628
0.9590751184
0.9912549189
1.032983453
1.032155259
1.025367064
0.9576692351
0.9782467884
1.02473072
1.028032161
1.02287019
1.052650872
0.993310165
0.9991081123
1.006237151
1.012753278
1.027994993
1.017291883
0.9952481217
0.9936897764
1.00005728
1.01714478
1.016925979
1.010370383
1.001696914
1.002711926
1.004246068
1.011889167
1.014362713
1.012907157
1.007120135
1.000428899
1.00591542
1.015194223
1.020061577
1.016071538
1.015769857
1.033795549
1.052878651
1.069245309
1.09400632
1.001072436
1.003409891
1.008172182
1.013835949
1.02719801
1.000007464
1.000046254
1.000232107
1.000683832
1.001686489
1.000000014
0.9999999782
1.000000369
1.000008295
1.000009108
1
0.9999999957
0.9999999952
0.9999999921
1.000000035
1
1
1
1
1
1
1
1
1
1
1
1
1
1
1
1
1
1
1
1
1
1
1
1
1
)
;

boundaryField
{
    inlet
    {
        type            fixedValue;
        value           uniform 1;
    }
    outlet
    {
        type            inletOutlet;
        inletValue      uniform 1;
        value           nonuniform List<scalar> 
20
(
1.012752002
1.000057866
1.002712291
1.007120295
1.016071683
1.031804016
1.031322588
1.028879375
1.02539136
1.022873331
1.022866722
1.02541646
1.028860886
1.031298272
1.031833462
1.016079921
1.007136132
1.002724592
1.000066467
1.012720395
)
;
    }
    bottom
    {
        type            slip;
    }
    top
    {
        type            slip;
    }
    obstacle
    {
        type            zeroGradient;
    }
    defaultFaces
    {
        type            empty;
    }
}


// ************************************************************************* //
