/*--------------------------------*- C++ -*----------------------------------*\
  =========                 |
  \\      /  F ield         | OpenFOAM: The Open Source CFD Toolbox
   \\    /   O peration     | Website:  https://openfoam.org
    \\  /    A nd           | Version:  7
     \\/     M anipulation  |
\*---------------------------------------------------------------------------*/
FoamFile
{
    version     2.0;
    format      ascii;
    class       volScalarField;
    location    "4.9";
    object      p;
}
// * * * * * * * * * * * * * * * * * * * * * * * * * * * * * * * * * * * * * //

dimensions      [1 -1 -2 0 0 0 0];

internalField   nonuniform List<scalar> 
2225
(
0.996792306
0.9971229622
0.9975041315
0.9977090366
0.9977943113
0.9977685833
0.9976727722
0.997702648
0.9979181185
0.9983297999
0.9986980149
0.999047199
0.5906835636
0.5835513137
0.5836891745
0.5860874321
0.5966001327
0.6330892009
0.7276385316
0.8236933016
0.9149296953
0.9447261718
0.9837418238
0.9939616762
0.9964459104
0.9998775098
1.001772135
1.001145616
0.999644527
0.9972604672
0.9964759265
0.9967930057
0.99736861
0.9982440347
0.9985893528
0.9984208911
0.9979370985
0.9974342217
0.9973545294
0.9974658611
0.9978103202
0.9983542864
0.9988025038
0.9989900467
0.6078692125
0.5986358397
0.5882057124
0.5873830328
0.5879890434
0.5900555018
0.6094158124
0.6639491366
0.7606968194
0.8755655743
0.9657352898
0.9795824965
0.9851730141
0.9941450335
0.9955431932
0.9934850947
0.9954555886
0.9965478925
0.9973700698
0.9980406434
0.9987529976
0.9993496867
0.9992746085
0.9987620961
0.9977261796
0.9973200394
0.9975330239
0.9978265449
0.9982336508
0.998770274
0.9990189554
0.9989831108
0.6202484848
0.6150516919
0.6045475263
0.599404503
0.5956639053
0.5903931748
0.590488425
0.5969450829
0.6287703758
0.710359937
0.8213286761
0.8941904711
0.9425768414
0.9781940499
0.9788663102
0.983759838
0.9919655338
0.9973770496
0.9977922877
0.998006503
0.9983565625
0.9981869146
0.9980940273
0.997880112
0.9973942793
0.9976657515
0.997924707
0.9979408251
0.998187148
0.9986006893
0.9987638495
0.9988578722
0.6339215368
0.6279224614
0.6169440866
0.6099798807
0.6068582105
0.5994974334
0.59277819
0.5939123128
0.5966014932
0.612818011
0.6590319261
0.7648025837
0.8743491707
0.955359633
0.9671602347
0.9891032156
0.9974619449
0.9963941451
0.9962219563
0.9960267638
0.9943621463
0.9937924343
0.9952874112
0.9965365022
0.9973644836
0.9977216948
0.9977616447
0.997464451
0.9974080495
0.9976568796
0.9980986896
0.9986678657
0.6493017323
0.6449177617
0.6356744054
0.6258348654
0.6197362999
0.6131676769
0.6007726449
0.5985637936
0.5986902366
0.5981842088
0.6019833482
0.6320513955
0.6995350678
0.8036752817
0.9012119428
0.9769036356
0.9872153699
0.9829150062
0.9896887549
0.9917793403
0.9908650154
0.9919873115
0.9955012461
0.9971993666
0.997550797
0.9976803401
0.997218951
0.9967174804
0.9967344972
0.997064882
0.9978129716
0.9986202191
0.6603454569
0.6577697531
0.6500775385
0.6404243933
0.6355479668
0.6307290606
0.619792918
0.6082401082
0.6046384011
0.5993678059
0.5988814954
0.6009617136
0.6143799013
0.6601731508
0.7512892312
0.8623308912
0.9170021066
0.9529095129
0.9925978875
0.9924428536
0.9935418105
0.9972031813
0.9996848657
0.9984244763
0.9976268589
0.9969714849
0.9966371291
0.9970854986
0.9975131522
0.9979405458
0.9986450224
0.9988028847
0.6740365937
0.6697681789
0.6620048725
0.6489494018
0.6459770909
0.6435501173
0.6363914136
0.6257098287
0.6201360131
0.613799449
0.6039661726
0.6029363956
0.6034324821
0.6068682451
0.6334262249
0.6953850292
0.8038923836
0.9063813031
0.9717731626
0.9808890211
0.992123219
0.9997102299
0.9989845318
0.9973797664
0.9965023409
0.9961776221
0.9971049675
0.998402574
0.9989979851
0.9990796069
0.9991928905
0.9988647241
0.689633435
0.6853311339
0.6795774758
0.665718372
0.657454855
0.6542445735
0.6471405412
0.6370336363
0.6323519682
0.6285869368
0.6192844014
0.6120450336
0.608432584
0.6060319244
0.6067118867
0.6165234794
0.6619664865
0.7403010043
0.839929837
0.907100999
0.977181713
0.9881765401
0.9861800241
0.9913508575
0.9945598431
0.9965476394
0.9978240873
0.99816103
0.9984486929
0.998241199
0.9983852761
0.9986393202
0.7015124877
0.6982961025
0.6948032935
0.6839839897
0.6721564867
0.6683685464
0.6634973015
0.652686896
0.645981159
0.6409653017
0.632898121
0.6242208021
0.6198152941
0.6144599904
0.6083539806
0.6084536451
0.6121107715
0.6331865922
0.6922964052
0.7983881049
0.9083072864
0.9375991291
0.9620440219
0.9928713852
0.995756732
0.9965399195
0.9968550251
0.9947671373
0.9941656291
0.9952080442
0.9971166341
0.9987440892
0.7171100381
0.7098356121
0.7062577675
0.6971079486
0.684005618
0.6799511868
0.6766618562
0.6683229806
0.6605377592
0.6564266684
0.65004416
0.6392681342
0.6316096481
0.6263217756
0.6160976237
0.6092972469
0.6112237402
0.6135290443
0.6219014652
0.6632173985
0.7412038567
0.8462973937
0.929146648
0.9825722617
0.9834802092
0.9904631527
0.9896334271
0.988540121
0.9900675347
0.9949721099
0.9981896861
0.999375516
0.7382417505
0.7258902923
0.7206347707
0.7135273157
0.7005101491
0.6922327879
0.6869151004
0.6786394207
0.6704342941
0.6677177116
0.6630112268
0.6537716712
0.6465054445
0.6421634851
0.6354108759
0.6206179818
0.6166741434
0.6163115818
0.6147018139
0.6168632397
0.6347178389
0.6986810201
0.783152921
0.8833199011
0.9252780949
0.9728379789
0.9821929462
0.9903849251
0.9962425151
1.000101647
1.00038546
0.9996071923
0.7540708001
0.7401701286
0.7337882445
0.7284290542
0.7187793157
0.7091262892
0.7021172724
0.6929110407
0.6831753776
0.6778225138
0.6725406273
0.662840661
0.655075047
0.6533235295
0.6502916749
0.6415098043
0.6291361542
0.6241969015
0.6183663583
0.6170132741
0.6178909631
0.6273935924
0.6621296355
0.7317006728
0.8422342878
0.9409207945
0.9669600813
0.985947147
0.99893329
0.9999668789
0.9994948697
0.9979446951
0.7702544996
0.7569718086
0.7474387196
0.740180593
0.7319147264
0.7238149633
0.7175466579
0.7089339339
0.697880686
0.6913683304
0.6867661757
0.6782866981
0.6667923816
0.6618981834
0.6595046035
0.6544354731
0.6437961666
0.6368789089
0.6324699338
0.6258766393
0.6213532272
0.6200577401
0.6225635954
0.6389296399
0.6965116255
0.7824590975
0.8679864472
0.9408985575
0.986818082
0.9831260686
0.9880774027
0.9939609824
0.7863827658
0.775034854
0.7646765853
0.7548565294
0.7436374308
0.7357431061
0.7300756618
0.7216922058
0.708829084
0.7023740587
0.6993409994
0.6942046662
0.6846435385
0.6753264327
0.6708309733
0.6668308604
0.6588762557
0.6476088172
0.6427632345
0.6376759091
0.6283056834
0.6223477819
0.6231776125
0.6240471538
0.6315685351
0.6605463295
0.7446970584
0.8363592973
0.9194917159
0.948340048
0.9791045161
0.9968359451
0.7997950306
0.7890724882
0.7810551811
0.7729842115
0.7598414124
0.7491944921
0.7441335393
0.7373388864
0.7242703329
0.7137802219
0.7093463951
0.7044117305
0.6975267081
0.6888565715
0.6815601473
0.6781935639
0.6737503607
0.6650576483
0.6560993451
0.6516697217
0.6444835923
0.6351773799
0.630890703
0.627141957
0.6243143445
0.6258683832
0.6444933729
0.6930643189
0.7802157511
0.8905536803
0.954934413
0.9860867439
0.8160589045
0.8020013025
0.7945712118
0.7884780338
0.7765435593
0.7612083994
0.7560164348
0.7520286692
0.7427355866
0.730631021
0.7225364983
0.7161112059
0.7098791533
0.7023314069
0.6919031301
0.6844698805
0.6822815039
0.6780987532
0.6697831739
0.6640002238
0.6597675756
0.6509794437
0.6413682868
0.6353637439
0.6275841958
0.6264455544
0.627935903
0.6358865877
0.6665005499
0.7419317757
0.8222699867
0.9192821247
0.8356632646
0.8180279455
0.8069840099
0.8021326651
0.7936090244
0.7764503032
0.7668467323
0.763825855
0.7577852813
0.7474591484
0.7380388095
0.7299091701
0.7228157871
0.7170486093
0.708811874
0.6959007193
0.6898452529
0.6873240134
0.6812056666
0.672726035
0.6694353868
0.6649352289
0.6558916269
0.6500623422
0.6438404032
0.6356461675
0.6314028545
0.6303727272
0.6325007453
0.6488524521
0.6918635287
0.8209571029
0.8539395449
0.8385928982
0.8216635123
0.8158866946
0.8101210762
0.7968863636
0.781880363
0.7752602097
0.769704975
0.7612155606
0.7521698019
0.7422620577
0.7325416244
0.7276507569
0.7232426228
0.7139178143
0.7020343984
0.6982830564
0.6944097966
0.685166237
0.6774087874
0.6735020672
0.6671310128
0.6598276399
0.6560814896
0.6495678695
0.6396251631
0.6332665985
0.6330030398
0.6341873138
0.6393416635
0.7020180405
0.8687509327
0.8579081734
0.8391980317
0.8282663803
0.8230666975
0.8144657547
0.8006842133
0.7892907112
0.7817011266
0.7745950207
0.7671135991
0.7579549351
0.7449894951
0.736832767
0.7337921739
0.7282782537
0.7160534062
0.7078357901
0.7057025111
0.7000706668
0.6903629566
0.6852907913
0.6802462326
0.6716815961
0.6663370701
0.6627072169
0.655070001
0.64577288
0.6403784874
0.6375377433
0.6355978837
0.6476948851
0.8830442867
0.8752061837
0.8604337608
0.8439650386
0.8348361465
0.8283211872
0.8184588317
0.8061716864
0.794611544
0.7858820708
0.7798266042
0.7732230175
0.7620269292
0.749024295
0.7439301235
0.7404219003
0.7317731322
0.7180436547
0.7138721801
0.7106072133
0.7024067874
0.6957891049
0.6923381606
0.6857158379
0.6775736875
0.6738688445
0.6687302094
0.6590558927
0.6498996447
0.6437042466
0.6376080239
0.6394035018
0.8968626087
0.8894972065
0.8794433238
0.8648946614
0.8496878938
0.839672897
0.8323302022
0.8229181955
0.810053809
0.7969846181
0.7902326969
0.7857508939
0.7786050679
0.7657215088
0.7552092252
0.751755866
0.7469614668
0.7352575718
0.7244766824
0.72095928
0.7146396796
0.7053569684
0.7014103465
0.6964951405
0.6877509428
0.682863688
0.6803335137
0.6747993299
0.6652078438
0.6580752768
0.6513993787
0.6446712391
0.9142753559
0.9019869676
0.8932420897
0.8834293128
0.8696387069
0.8535745866
0.8447318305
0.8384515039
0.8285346853
0.813076704
0.8016724818
0.7968879157
0.7917932283
0.7822947141
0.7684566067
0.7606560742
0.7574323947
0.7508189982
0.7388555345
0.7320856233
0.7277427175
0.7190191489
0.7116904484
0.707319814
0.6986420559
0.6889597386
0.6873650839
0.684869123
0.677724391
0.6702374573
0.6652654176
0.6547227383
0.9367854706
0.9186744425
0.9052731995
0.8973357246
0.8880213932
0.8720332524
0.8566266988
0.8506568562
0.8445130095
0.8324033283
0.8167239783
0.8076518642
0.8029454059
0.7968770367
0.7858978254
0.7719558344
0.7663235055
0.7628373644
0.7544794025
0.7440917634
0.7387660954
0.7321322951
0.7234020528
0.7186656695
0.7130728227
0.7016114306
0.6949116998
0.6936016563
0.689314465
0.6805699353
0.6755237447
0.6670935462
0.9571694804
0.9408724638
0.9210791974
0.9103170246
0.9037612052
0.8925215666
0.8737779659
0.8616079953
0.8567734
0.8495383712
0.8361895818
0.8218157091
0.8136994641
0.8088402953
0.8018614693
0.7887931039
0.7761350864
0.7723586458
0.767572068
0.7579026672
0.7493596914
0.7430984606
0.7346069054
0.7282152455
0.7242021058
0.7165286087
0.705636688
0.7024898616
0.7002365966
0.6935446448
0.6859219393
0.6766535828
0.9728896941
0.9617211371
0.942225224
0.923740801
0.9165524642
0.9095047995
0.8956678577
0.8776944003
0.8675577736
0.861802605
0.8530800143
0.8396043292
0.8256049046
0.8183389108
0.8138437513
0.8060546126
0.7912263351
0.7815475026
0.7785329953
0.7722128558
0.7628462414
0.7553894609
0.7471764559
0.7386683037
0.7341792306
0.7293387829
0.7189143428
0.7102392918
0.7084789818
0.7045793295
0.6981158861
0.6883598743
0.9869499953
0.9786095652
0.9652185216
0.9433670966
0.9285444279
0.9222189865
0.9135248269
0.8986512869
0.8822514001
0.8730030719
0.8666063258
0.8574918934
0.8432030952
0.8291975029
0.8238193116
0.8196245771
0.8096785193
0.794166885
0.7878306806
0.7836853362
0.7756919431
0.7675952318
0.7602213767
0.75060513
0.7438527568
0.7403650831
0.7339537404
0.7219059765
0.7158681156
0.7124732216
0.7073695703
0.698234736
1.003344529
0.9921259738
0.9835163681
0.9676931733
0.9464777229
0.9340345801
0.9268172544
0.9166259281
0.9011239136
0.8856037756
0.8775203057
0.8714651675
0.8620149347
0.8464813801
0.8336350759
0.8293463173
0.8242006641
0.8118392873
0.7983764424
0.7935882235
0.7877573745
0.7798048617
0.7731346366
0.7646558647
0.7544365263
0.7496522484
0.74602755
0.7376310559
0.7263700787
0.7217065826
0.7178422577
0.7083677313
1.026081499
1.005896326
0.9966204258
0.9869365659
0.9699794424
0.9502163674
0.9392060938
0.9316323962
0.920646454
0.9039467644
0.8888028561
0.8818072421
0.8761239115
0.8660854941
0.8500202064
0.8393152204
0.8354253025
0.8286956198
0.8145560007
0.8040035111
0.7985469983
0.7913093906
0.7845238866
0.7778570829
0.7673574881
0.7580487516
0.7547602869
0.7502654533
0.7402782324
0.7310015369
0.7275107284
0.7193384038
1.049460647
1.027437512
1.009608788
1.000619908
0.9899071341
0.9721757813
0.9536322762
0.9439020983
0.9363221075
0.9245111092
0.9072051082
0.8927847477
0.8862344375
0.880164359
0.8690005644
0.8529862329
0.8444997425
0.840456693
0.831936234
0.8182630644
0.8090174776
0.8020090108
0.7951258086
0.7898157878
0.7823323096
0.7699218338
0.763010665
0.7604426069
0.7546672078
0.7437414374
0.7371130771
0.7290538594
1.066553233
1.050901634
1.029219243
1.013584587
1.004618909
0.9930768807
0.9746443996
0.957011255
0.9481603767
0.9403400806
0.9278322675
0.9103349156
0.897000928
0.8911523205
0.8845912518
0.8719702747
0.8558424044
0.8495093768
0.8452574461
0.8356671575
0.8231405195
0.8136059648
0.8056458018
0.8000292038
0.7948137273
0.7850781061
0.772526503
0.7684074039
0.7653686595
0.757608145
0.748842785
0.7389169758
1.080888475
1.068756101
1.051923514
1.031036524
1.016761927
1.008268557
0.996305087
0.9773419583
0.9607249326
0.9523835131
0.944062974
0.9306661716
0.9125191346
0.9011210204
0.8961144353
0.8889873177
0.874519536
0.8593682129
0.8543808027
0.8490133932
0.8389671791
0.8274183866
0.8172347813
0.8096979357
0.8050798669
0.7992840212
0.7875306912
0.7769374813
0.7743265026
0.7697928573
0.7617639389
0.7499716373
1.098142452
1.083784221
1.071286737
1.053966469
1.032522091
1.01946614
1.011561083
0.9989918237
0.9796588913
0.964613416
0.9569190296
0.9481856832
0.933461925
0.9149723842
0.905407981
0.9009255845
0.8928554662
0.8769609266
0.8642522686
0.8594490871
0.8530401219
0.8430937434
0.8315407424
0.820634192
0.8142824018
0.810276955
0.8030669976
0.7898380333
0.7822962281
0.7791274987
0.7734949173
0.7612369015
1.120091682
1.099274193
1.086024356
1.074372693
1.055947459
1.034069973
1.023059232
1.014869765
1.000993578
0.9817094296
0.9685627405
0.9612733291
0.9520688283
0.9363787001
0.918350189
0.9100812769
0.9051041751
0.8954681223
0.8792344591
0.8690299516
0.8637208964
0.8566513764
0.8472241364
0.8353848676
0.8237426337
0.8184058935
0.8144581157
0.805919937
0.7933372171
0.7873838966
0.783658484
0.7730817306
1.1430249
1.121132431
1.100087309
1.089051381
1.076957802
1.056430218
1.036871112
1.027288594
1.017952948
1.002844959
0.9842915579
0.9720599572
0.9649472365
0.9553646149
0.939276962
0.922324334
0.9148167661
0.9092538286
0.897860132
0.8823216995
0.873153796
0.8672220335
0.860468292
0.851858353
0.8392575438
0.8276201112
0.8235391427
0.8189544523
0.8087212763
0.7971634453
0.7923681935
0.7832908817
1.160675097
1.144741331
1.12099057
1.10330183
1.092705553
1.078191205
1.057058498
1.040203894
1.030664757
1.02059672
1.005359854
0.987003242
0.9751939473
0.9682170564
0.9585003185
0.9418712977
0.925763848
0.9194948732
0.913009341
0.9008357076
0.8862213624
0.8767634964
0.8701468392
0.8640430859
0.8556407516
0.8418766683
0.8318015752
0.8283712988
0.8227136827
0.8112405482
0.8024853525
0.7929969547
1.175576611
1.162824806
1.144178579
1.121718483
1.106999726
1.095424218
1.07959079
1.059359865
1.042550183
1.032851075
1.023085934
1.007801294
0.9893625739
0.9785068624
0.9720145837
0.9617211309
0.9439882618
0.9294045384
0.9235679912
0.9166506622
0.9040846048
0.8903399851
0.8802536193
0.8738972629
0.868477114
0.8591027
0.8440718441
0.8365729387
0.8334116376
0.826111112
0.8154853291
0.8032057429
1.193568466
1.178438835
1.163867432
1.143873715
1.123481344
1.108902072
1.097082392
1.08200743
1.061603254
1.044537229
1.035544005
1.025645836
1.009445562
0.9913080886
0.9822018615
0.9758528362
0.9648254907
0.9464372803
0.9332302566
0.9276792679
0.9196022743
0.9073432874
0.8936962947
0.8833770784
0.8781243396
0.8726462313
0.8615707835
0.8468062162
0.8413349048
0.8372351061
0.8292314388
0.8149093023
1.215794703
1.195097512
1.179837817
1.164382572
1.145442854
1.124676548
1.109853436
1.099038671
1.083966451
1.062668973
1.047623675
1.039136573
1.028214673
1.010926739
0.993786228
0.985495548
0.9792467282
0.9672153463
0.9489373987
0.9376595765
0.9313895421
0.9229844844
0.9105524919
0.8966587915
0.8868986073
0.8823167296
0.876316844
0.8638726648
0.8510563451
0.8463495093
0.8413722081
0.8277814641
1.238494489
1.216660628
1.196007747
1.179970116
1.16553046
1.146460937
1.125123659
1.112290185
1.101513967
1.08457122
1.064090672
1.051051628
1.042210892
1.030622233
1.013213444
0.9962803764
0.9886177618
0.9819609744
0.9694011387
0.9515999078
0.9414642297
0.9352883348
0.9260498545
0.9139786522
0.8998710926
0.8907337339
0.8860079525
0.8789440293
0.8658924045
0.8554969932
0.8510977005
0.8397128446
1.257405817
1.238957842
1.217532907
1.196227879
1.181207919
1.166662974
1.145695464
1.12639322
1.115290845
1.103312631
1.085679622
1.066610478
1.05337204
1.044378796
1.032969475
1.015431687
0.9989002984
0.9915395903
0.9848599159
0.971143719
0.9542987296
0.9453477984
0.9383582945
0.9296430262
0.9171856525
0.9035176213
0.8946537694
0.8896925105
0.8817051562
0.8684481928
0.8608148705
0.8504077614
1.275110699
1.257402392
1.239367604
1.217155049
1.197090157
1.1832907
1.167055423
1.145538001
1.128321151
1.116935747
1.104574515
1.087956234
1.069002475
1.055373907
1.04656495
1.035143424
1.01706007
1.001253188
0.9948920511
0.9874643727
0.973561607
0.9572068994
0.9485843375
0.9419185269
0.9324631371
0.9205969652
0.9064841138
0.898477827
0.8933901444
0.8839462042
0.873099499
0.8604398872
1.294673112
1.274756184
1.257914732
1.239254819
1.216578575
1.198376701
1.184502876
1.167513922
1.147078743
1.129744796
1.117754187
1.106001588
1.089836087
1.070695869
1.057992692
1.04936587
1.037172707
1.018529577
1.003838498
0.9977519483
0.9903996094
0.9752396378
0.9604834721
0.952136745
0.9447995367
0.936097206
0.9231098567
0.9098741118
0.9025326938
0.8963206467
0.8874668794
0.8725386381
1.314364617
1.293479277
1.274318031
1.258165067
1.238925884
1.216840685
1.199285181
1.185024533
1.168451427
1.148376245
1.130932983
1.119497943
1.107707992
1.090659321
1.072216825
1.060558083
1.051957624
1.039454762
1.020485168
1.006357894
1.000704209
0.992379978
0.9780392829
0.9630148002
0.9552283536
0.9483619135
0.9385877988
0.9264225632
0.9134701957
0.9062178922
0.8996248206
0.8851671497
1.313424448
1.292020919
1.273837315
1.257924956
1.238651949
1.217417777
1.200273168
1.185940493
1.169235021
1.148726469
1.132523596
1.121693976
1.109120395
1.091834906
1.073865644
1.062482781
1.054180963
1.041608908
1.022643725
1.009170927
1.003505102
0.9951149443
0.9791344507
0.9664211413
0.9584189205
0.951009803
0.9418985113
0.9284205897
0.9179398555
0.9105723821
0.896857696
1.331563408
1.311966148
1.290900237
1.273552521
1.257363452
1.2381275
1.21790351
1.201476405
1.187306837
1.169728133
1.149468763
1.134198783
1.123009341
1.110366183
1.093590112
1.075715832
1.064387094
1.056253567
1.043551098
1.024384128
1.012492543
1.006543863
0.9968649438
0.9823561408
0.9683846069
0.9615609387
0.9540042758
0.9434299982
0.9326162671
0.9222529871
0.9078046578
1.347991149
1.330230219
1.310195467
1.290193186
1.273334213
1.25683776
1.23794956
1.218217135
1.202448567
1.188167652
1.170588998
1.151165586
1.135536889
1.123725722
1.111588224
1.095190792
1.077453899
1.066810816
1.058400103
1.045081754
1.026943716
1.015250577
1.009173269
0.999308007
0.983259102
0.9725888084
0.9636895863
0.9561727326
0.9468796323
0.9349450451
0.9198460067
1.36492796
1.34691554
1.328673242
1.308991543
1.289688352
1.272706001
1.256706044
1.237994031
1.218502479
1.202940227
1.188640706
1.171632112
1.152869864
1.136848117
1.125124846
1.112846519
1.096171491
1.079285703
1.068880979
1.060442853
1.047215392
1.029171856
1.018245493
1.010921604
1.000651021
0.9873528884
0.9739080383
0.9673063375
0.9575673906
0.9474186895
0.9350950852
1.38166464
1.363518615
1.345494829
1.327543355
1.308474424
1.288708366
1.272164844
1.25652214
1.237800265
1.218887883
1.20368501
1.189099068
1.172397821
1.153950392
1.138493727
1.126797943
1.114217247
1.097479819
1.080750673
1.070634176
1.062167908
1.049203027
1.032099029
1.020097437
1.013169918
1.002506444
0.9888314025
0.9791470219
0.9660807255
0.9579860686
0.9556667877
1.396715119
1.380044852
1.362043937
1.344210395
1.32695654
1.307612327
1.287989797
1.271953735
1.255922144
1.237153941
1.219510761
1.204341661
1.189754007
1.173158424
1.155021532
1.139816661
1.128146253
1.115504754
1.099219866
1.082488499
1.072092453
1.063762692
1.050607917
1.03435879
1.023372386
1.014195418
1.004900419
0.991160318
0.9769614854
0.97240459
0.9863977435
1.410015282
1.395106771
1.378588708
1.360602773
1.343281088
1.325971459
1.306347553
1.287704104
1.271833646
1.255069718
1.237061644
1.219674997
1.204730111
1.190465776
1.174139272
1.156360616
1.141022076
1.128986625
1.116765472
1.100597482
1.084523531
1.074040723
1.064860232
1.052328841
1.036876529
1.025977574
1.015293711
1.002877212
0.9951085866
0.9955890714
1.040247849
1.421667875
1.408321807
1.393420076
1.376918676
1.359335229
1.342392692
1.324598863
1.305391887
1.287593538
1.271295653
1.254807025
1.23707834
1.219701657
1.204902082
1.190919604
1.174879458
1.157864143
1.142532689
1.13008803
1.117645445
1.101898978
1.086529739
1.076281709
1.065763194
1.053830728
1.039244444
1.025191645
1.018068369
1.020295048
1.033091947
1.132476527
1.431423104
1.420481088
1.406850343
1.391858838
1.375287467
1.358075616
1.341054172
1.323360881
1.304942629
1.287086374
1.270721595
1.254614247
1.236991589
1.219978505
1.20542377
1.190855032
1.175541193
1.159129771
1.144102363
1.131580353
1.118365391
1.103660687
1.088989889
1.077703
1.06605944
1.052396448
1.042327481
1.04348974
1.060209645
1.109504363
1.256742952
1.43804494
1.430563214
1.419221715
1.405404332
1.390187203
1.373652907
1.356450561
1.339716167
1.32256389
1.304465667
1.286674096
1.27035652
1.254106101
1.236791422
1.220500145
1.205809126
1.191241957
1.176012047
1.160383853
1.145259992
1.133034038
1.119461309
1.105533956
1.090726014
1.076236437
1.068117166
1.070005532
1.084712528
1.14488972
1.24641936
1.370890092
1.441012858
1.437446034
1.429742958
1.418153376
1.404103123
1.3887017
1.371891781
1.355105791
1.338588428
1.321675763
1.303799995
1.286338862
1.270285043
1.253609988
1.236855951
1.220922031
1.205893258
1.191945448
1.176661837
1.161520548
1.146737687
1.133514482
1.119975855
1.104524
1.093663497
1.09480813
1.113271261
1.170903838
1.274089893
1.399500173
1.448275719
1.441745342
1.440674644
1.436988908
1.429136022
1.417165079
1.402762225
1.386926309
1.370400363
1.353854822
1.337612867
1.320553915
1.303195504
1.286321754
1.270023561
1.253877074
1.236929068
1.221097791
1.205838483
1.192305354
1.177362641
1.162274112
1.14729537
1.132210777
1.121829143
1.123553111
1.142209592
1.201093993
1.319311659
1.41904916
1.479770934
1.475399663
1.441380683
1.440964008
1.440275121
1.436677281
1.428360942
1.416143683
1.401509227
1.385611027
1.369149825
1.352601459
1.336437807
1.319904156
1.302541
1.286151347
1.269526528
1.253830259
1.237025132
1.221029209
1.20642918
1.191634274
1.176626611
1.16122178
1.149726363
1.151955347
1.170937431
1.239716456
1.351989613
1.454996288
1.522631123
1.52247236
1.499851741
1.433447452
1.440709431
1.441029965
1.44024797
1.436115256
1.427685529
1.415263989
1.400343485
1.384197924
1.367545782
1.351500383
1.335396371
1.31918646
1.30184719
1.285332057
1.269061904
1.25316788
1.237016114
1.221266779
1.205191444
1.190054974
1.178557273
1.181279912
1.204971694
1.271513181
1.388221586
1.5089035
1.540038282
1.544694839
1.538107801
1.513417492
1.422440227
1.437412449
1.441021164
1.440739809
1.439607196
1.435621738
1.426994695
1.413994814
1.398576808
1.383091359
1.366475571
1.350668676
1.334280811
1.317638148
1.300814399
1.284508956
1.268523022
1.252671559
1.235496116
1.219629255
1.208282087
1.21203218
1.235125618
1.313232085
1.438282743
1.531995088
1.598150826
1.596050079
1.573936783
1.548438919
1.514090912
1.421221327
1.425427962
1.433772705
1.439784714
1.440427549
1.439630598
1.435204283
1.425446269
1.412360735
1.397597129
1.382017266
1.36572833
1.34925826
1.332618033
1.31630451
1.299846702
1.284119272
1.267008742
1.250670531
1.239638349
1.243754694
1.273772987
1.35309464
1.468515188
1.595331083
1.61169061
1.6132746
1.609276531
1.593560084
1.567953545
1.522518134
1.358418901
1.394098325
1.423137369
1.435498036
1.440871986
1.440412678
1.438411367
1.433017044
1.423571715
1.411062964
1.396554814
1.380860607
1.364164918
1.347965225
1.331437694
1.315698466
1.298486775
1.281775216
1.272352173
1.278607013
1.310246141
1.398581817
1.529487708
1.625551273
1.679329275
1.671538216
1.64233977
1.615170716
1.595304111
1.573885801
1.530181215
1.246361664
1.36488046
1.418714196
1.423379632
1.434329515
1.439135191
1.437879525
1.435976593
1.431165267
1.422433764
1.410238398
1.395134587
1.379301013
1.362928211
1.346883357
1.330143598
1.313421936
1.305206452
1.312070611
1.352310986
1.450446695
1.565959001
1.673031979
1.693659414
1.692309273
1.686523869
1.66807566
1.634805924
1.602048689
1.578464297
1.53691501
1.132418576
1.260000824
1.357029123
1.391957619
1.423575542
1.437796133
1.437947769
1.436250728
1.434850537
1.430735391
1.421941925
1.40883535
1.393859632
1.378215454
1.361299855
1.344666862
1.338433317
1.348028385
1.395866122
1.496185927
1.629610163
1.731004891
1.760433049
1.744606451
1.712791889
1.689827409
1.669822823
1.642504976
1.609781588
1.583892913
1.540396448
1.046578218
1.127826902
1.247234671
1.357397308
1.419733949
1.426859784
1.430371802
1.435880836
1.435873886
1.434612479
1.429909273
1.420604996
1.407893805
1.392359984
1.37558736
1.372086815
1.384726181
1.437930712
1.555489706
1.686244054
1.744802393
1.778401364
1.776148807
1.765338937
1.738967621
1.703457472
1.672815247
1.646555012
1.618109949
1.591132031
1.544819355
1.010425572
1.042233642
1.131126724
1.249042179
1.365694901
1.395476017
1.418890382
1.436950569
1.435988866
1.434938504
1.433734909
1.429163762
1.42044606
1.405199246
1.405352575
1.42186517
1.488577657
1.609493282
1.736802232
1.839228224
1.838275417
1.818862197
1.789038435
1.769240475
1.74704787
1.71464491
1.680331612
1.651843966
1.623450109
1.596177873
1.548846463
1.001504682
1.009629007
1.043318441
1.127581282
1.249581391
1.351905739
1.418436087
1.428234078
1.429719029
1.433411242
1.433944126
1.433290328
1.429081169
1.433165438
1.461877586
1.535344967
1.659657934
1.805805615
1.83741508
1.865172488
1.862866584
1.8460548
1.814207826
1.779992693
1.751816863
1.723153205
1.690510201
1.658478035
1.62771252
1.60091558
1.553918019
1.000145672
1.001437725
1.009403779
1.043127306
1.126960399
1.242095481
1.369245036
1.394354098
1.417579385
1.432234357
1.431936449
1.43474731
1.450184
1.493596516
1.594196257
1.731454038
1.83908251
1.927594547
1.920552726
1.899574488
1.875051399
1.852665316
1.82425119
1.788239793
1.755624136
1.726811094
1.696138472
1.664051093
1.632221576
1.605237592
1.558040089
1.000009598
1.000142403
1.001337611
1.009903104
1.03988652
1.126051099
1.250955017
1.350138083
1.416105776
1.425547839
1.4345357
1.459340418
1.526767447
1.63339587
1.763641379
1.881588232
1.932566949
1.95052651
1.949048704
1.934357547
1.904943904
1.873213936
1.843609444
1.811200603
1.776615798
1.744073979
1.713257716
1.68198492
1.648858864
1.619988634
1.571101132
1.000000428
1.000009605
1.00012961
1.001452931
1.008643452
1.043112386
1.121671177
1.243438666
1.360058462
1.394728937
1.453497541
1.543862765
1.665331094
1.819281319
1.926775484
1.983711167
1.986850053
1.977254566
1.955752585
1.930594255
1.89954923
1.865899296
1.834849451
1.803062897
1.768902635
1.73493841
1.702489997
1.670351828
1.637053221
1.607893601
1.558804223
1.000000014
1.000000452
1.000008826
1.000141021
1.001302451
1.009604129
1.039987995
1.126854708
1.258691757
1.391005514
1.542037994
1.703630246
1.806063529
1.91857328
1.977148857
2.015108178
2.008916605
1.986714398
1.959717221
1.931060601
1.900730082
1.868446143
1.836736004
1.804848991
1.77141486
1.736942737
1.702959454
1.669834751
1.636434711
1.607105438
1.557669893
1
1.000000015
1.000000385
1.000009181
1.000126901
1.001412923
1.009436416
1.046661481
1.154080972
1.37923327
1.613668766
1.813269741
1.987694391
2.050945254
2.045410966
2.036857109
2.018130416
1.993199708
1.962914992
1.930824889
1.900219671
1.869764195
1.83867475
1.80677364
1.773912849
1.739438904
1.704482111
1.67043026
1.63689455
1.607611386
1.557966641
)
;

boundaryField
{
    inlet
    {
        type            fixedValue;
        value           nonuniform 0();
    }
    outlet
    {
        type            zeroGradient;
    }
    bottom
    {
        type            slip;
    }
    top
    {
        type            slip;
    }
    obstacle
    {
        type            zeroGradient;
    }
    defaultFaces
    {
        type            empty;
    }
    procBoundary35to29
    {
        type            processor;
        value           nonuniform List<scalar> 
33
(
0.9975508275
0.997662816
0.9979209523
0.9980359918
0.9980563802
0.9981635157
0.9981028986
0.9980805487
0.9982664127
0.9986395109
0.9989661669
0.9991924184
0.5838678445
0.5826817826
0.5857033436
0.6079100138
0.6771333067
0.7810201612
0.8743145708
0.9526160436
0.9938369732
0.9846278607
0.9882449317
0.9923549858
0.9966575536
0.9993114567
1.000298177
1.000429592
0.9995840992
0.9981630615
0.9970305713
0.9967126463
0.9967126463
)
;
    }
    procBoundary35to34
    {
        type            processor;
        value           nonuniform List<scalar> 
71
(
0.5954975698
0.612123458
0.6236453986
0.6393606822
0.6547781229
0.6656503137
0.6833773326
0.701116339
0.715531948
0.7334658904
0.7516913661
0.7652603096
0.7791701396
0.7947016417
0.8101450221
0.8285921665
0.8463433127
0.8609319083
0.8742670278
0.8903939552
0.9097561538
0.9325897418
0.9530491943
0.9684542017
0.9825363168
1.001694855
1.025312452
1.046822576
1.063480186
1.07713567
1.095283701
1.118624202
1.140772758
1.158907635
1.174028881
1.193426837
1.21695772
1.238873016
1.257757123
1.275618935
1.295591025
1.31535904
1.33314888
1.332291782
1.332291782