/*--------------------------------*- C++ -*----------------------------------*\
  =========                 |
  \\      /  F ield         | OpenFOAM: The Open Source CFD Toolbox
   \\    /   O peration     | Website:  https://openfoam.org
    \\  /    A nd           | Version:  7
     \\/     M anipulation  |
\*---------------------------------------------------------------------------*/
FoamFile
{
    version     2.0;
    format      ascii;
    class       volScalarField;
    location    "1";
    object      T;
}
// * * * * * * * * * * * * * * * * * * * * * * * * * * * * * * * * * * * * * //

dimensions      [0 0 0 1 0 0 0];

internalField   nonuniform List<scalar> 
2222
(
1
1
1
1
1
1
1
1
1
1
1
1
1
1
1
1
1
1
1
1
1
1
1
1
1
1
1
1
1
1
1
1
1
1
1
1
1
1
1
1
1
1
1
1
1
1
1
1
1
1
1
1
1
1
1
1
1
1
1
1
1
1
1
1
1
1
1
1
1
1
1
1
1
1
1
1
1
1
1
1
1
1
1
1
1
1
1
1
1
1
1
1
1
1
1
1
1
1
1
1
1
1
1
1
1
1
1
1
1
1
1
1
1
1
1
1
1
1
1
1
1
1
1
1
1
1
1
1
1
1
1
1
1
1
1
1
1
1
1
1
1
1
1
1
1
1
1
1
1
1
1
1
1
1
1
1
1
1
1
1
1
1
1
1
1
1
1
1
1
1
1
1
1
1
1
1
1
1
1
1
1
1
1
1
1
1
1
1
1
1
1
1
1
1
1
1
1
1
1
1
1
1
1
1
1
1
1
1
1
1
1
1
1
1
1
1
1
1
1
1
1
1
1
1
1
1
1
1
1
1
1
1
1
1
1
1
1
1
1
1
1
1
1
1
1
1
1
1
1
1
1
1
1
1
1
1
1
1
1
1
1
1
1
1
1
1
1
1
1
1
1
1
1
1
1
1
1
1
1
1
1
1
1
1
1
1
1
1
1
1
1
1
1
1
1
1
1
1
1
1
1
1
1
1
1
1
1
1
1
1
1
1
1
1
1
1
1
1
1
1
1
1
1
1
1
1
1
1
1
1
1
1
1
1
1
1
1
1
1
1
1
1
1
1
1
1
1
1
1
1
1
1
1
1
1
1
1
1
1
1
1
1
1
1
1
1
1
1
1
1
1
1
1
1
1
1
1
1
1
1
1
1
1
1
1
1
1
1
1
1
1
1
1
1
1
1
1
1
1
1
1
1
1
1
1
1
1
1
1
1
1
1
1
1
1
1
1
1
1
1
1
1
1
1
1
1
1
1
1
1
1
1
1
1
1
1
1
1
1
1
1
1
1
1
1
1
1
1
1
1
1
1
1
1
1
1
1
1
1
1
1
1
1
1
1
1
1
1
1
1
1
1
1
1
1
1
1
1
1
1
1
1
1
1
1
1
1
1
1
1
1
1
1
1
1
1
1
1
1
1
1
1
1
1
1
1
1
1
1
1
1
1
1
1
1
1
1
1
1
1
1
1
1
1
1
1
1
1
1
1
1
1
1
1
1
1
1
1
1
1
1
1
1
1
1
1
1
1
1
1
1
1
1
1
1
1
1
1
1
1
1
1
1
1
1
1
1
1
1
1
1
1
1
1
1
1
1
1
1
1
1
1
1
1
1
1
1
1
1
1
1
1
1
1
1
1
1
1
1
1
1
1
1
1
1
1
1
1
1
1
1
1
1
1
1
1
1
1
1
1
1
1
1
1
1
1
1
1
1
1
1
1
1
1
1
1
1
1
1
1
1
1
1
1
1
1
1
1
1
1
1
1
1
1
1
1
1
1
1
1
1
1
1
1
1
1
1
1
1
1
1
1
1
1
1
1
1
1
1
1
1
1
1
1
1
1
1
1
1
1
1
1
1
1
1
1
1
1
1
1
1
1
1
1
1
1
1
1
1
1
1
1
1
1
1
1
1
1
1
1
1
1
1
1
1
1
1
1
1
1
1
1
1
1
1
1
1
1
1
1
1
1
1
1
1
1
1
1
1
1
1
1
1
1
1
1
1
1
1
1
1
1
1
1
1
1
1
1
1
1
1
1
1
1
1
1
1
1
1
1
1
1
1
1
1
1
1
1
1
1
1
1
1
1
1
1
1
1
1
1
1
1
1
1
1
1
1
1
1
1
1
1
1
1
1
1
1
1
1
1
1
1
1
1
1
1
1
1
1
1
1
1
1
1
1
1
1
1
1
1
1
1
1
1
1
1
1
1
1
1
1
1
1
1
1
1
1
1
1
1
1
1
1
1
1.000000001
1
1
1
1
1
1
1
1
1
1
1
1
1
1
1
1
1
1
1
1
1
1
1
1
1
1
1
1
1
1
1
1
1
1
1
1.000000035
1
1
1
1
1
1
1
1
1
1
1
1
1
1
1
1
1
1
1
1
1
1
1
1
1
1
1
1
1
1
1
1
1
1
1.000000006
1.000001077
1
1
1
1
1
1
1
1
1
1
1
1
1
1
1
1
1
1
1
1
1
1
1
1
1
1
1
1
1
1
1
1
1
1.000000005
1.000000211
1.000022706
1
1
1
1
1
1
1
1
1
1
1
1
1
1
1
1
1
1
1
1
1
1
1
1
1
1
1
1
1
1
1
1
1.000000001
1.000000206
1.000005263
1.000316932
1
1
1
1
1
1
1
1
1
1
1
1
1
1
1
1
1
1
1
1
1
1
1
1
1
1
1
1
1
1
1
1.000000001
1.000000037
1.000004927
1.00008765
1.002853451
1
1
1
1
1
1
1
1
1
1
1
1
1
1
1
1
1
1
1
1
1
1
1
1
1
1
1
1
1
1
1
1.000000031
1.000000951
1.000077616
1.000995618
1.016467738
1
1
1
1
1
1
1
1
1
1
1
1
1
1
1
1
1
1
1
1
1
1
1
1
1
1
1
1
1
1
1.000000004
1.000000848
1.000018106
1.000835045
1.007824055
1.058473912
1
1
1
1
1
1
1
1
1
1
1
1
1
1
1
1
1
1
1
1
1
1
1
1
1
1
1
1
1
1.000000004
1.000000143
1.000016807
1.000260588
1.006188137
1.039273417
1.126307018
1
1
1
1
1
1
1
1
1
1
1
1
1
1
1
1
1
1
1
1
1
1
1
1
1
1
1
1
1.000000001
1.000000152
1.000003906
1.000235746
1.002672603
1.029657839
1.112849641
1.190793699
1
1
1
1
1
1
1
1
1
1
1
1
1
1
1
1
1
1
1
1
1
1
1
1
1
1
1
1.000000001
1.000000027
1.000003833
1.000070889
1.002249862
1.017217347
1.088805451
1.182765851
1.230885155
1
1
1
1
1
1
1
1
1
1
1
1
1
1
1
1
1
1
1
1
1
1
1
1
1
1
1
1.000000027
1.000000766
1.000061878
1.000848824
1.013785435
1.066431158
1.160491573
1.214981542
1.238595212
1
1
1
1
1
1
1
1
1
1
1
1
1
1
1
1
1
1
1
1
1
1
1
1
1
1
1.000000003
1.000000699
1.000014884
1.00066571
1.006820316
1.052270521
1.144888932
1.214014751
1.224902231
1.232431634
1
1
1
1
1
1
1
1
1
1
1
1
1
1
1
1
1
1
1
1
1
1
1
1
1
1.000000003
1.000000104
1.000012632
1.000209591
1.004953706
1.035173816
1.119047121
1.202724222
1.236462136
1.237761226
1.235764653
1
1
1
1
1
1
1
1
1
1
1
1
1
1
1
1
1
1
1
1
1
1
1
1
1
1.0000001
1.000002672
1.000169736
1.002140432
1.024942795
1.103989923
1.186788074
1.21788021
1.234997421
1.239497252
1.238715336
1
1
1
1
1
1
1
1
1
1
1
1
1
1
1
1
1
1
1
1
1
1
1
1
1.000000015
1.000002545
1.000051271
1.001675061
1.014399461
1.080747045
1.174873746
1.230061192
1.232147804
1.233914677
1.237362474
1.23711389
1
1
1
1
1
1
1
1
1
1
1
1
1
1
1
1
1
1
1
1
1
1
1
1.000000018
1.000000528
1.000044972
1.000682283
1.01111017
1.059654461
1.155372233
1.211807216
1.239577977
1.240423443
1.238254802
1.236592506
1.234766713
1
1
1
1
1
1
1
1
1
1
1
1
1
1
1
1
1
1
1
1
1
1
1.000000002
1.000000535
1.000011821
1.000528191
1.005979374
1.045981373
1.137528406
1.213666177
1.226004652
1.233626391
1.238739736
1.238099653
1.235981332
1.23208883
1
1
1
1
1
1
1
1
1
1
1
1
1
1
1
1
1
1
1
1
1
1.000000002
1.000000082
1.000010025
1.000177065
1.00414268
1.032331889
1.112533073
1.199069473
1.235836519
1.239525194
1.237098494
1.236880177
1.236633141
1.233869629
1.228950038
1
1
1
1
1
1
1
1
1
1
1
1
1
1
1
1
1
1
1
1
1
1.000000076
1.000002062
1.000131234
1.001812624
1.021815128
1.097152658
1.185488722
1.216690703
1.235326444
1.241075124
1.240441636
1.238527044
1.235327305
1.230885245
1.225427899
1
1
1
1
1
1
1
1
1
1
1
1
1
1
1
1
1
1
1
1
1.00000001
1.000001789
1.000038391
1.001275229
1.012216935
1.07386715
1.168487628
1.229883946
1.231219657
1.233911571
1.238847963
1.239406449
1.237457195
1.233377788
1.227488809
1.221030559
1
1
1
1
1
1
1
1
1
1
1
1
1
1
1
1
1
1
1
1.000000011
1.000000343
1.000031051
1.000520641
1.00868908
1.052696291
1.148648558
1.20883759
1.239868864
1.240963183
1.239337141
1.238092567
1.23708174
1.234776765
1.229895284
1.223106365
1.215773618
1
1
1
1
1
1
1
1
1
1
1
1
1
1
1
1
1
1
1.000000001
1.000000358
1.00000835
1.000386336
1.004843726
1.038475851
1.128504073
1.211187926
1.224618983
1.233708807
1.240757831
1.240322612
1.238653611
1.235398408
1.231231453
1.225037075
1.217964808
1.210201588
1
1
1
1
1
1
1
1
1
1
1
1
1
1
1
1
1
1.000000001
1.000000056
1.000007344
1.0001383
1.003336361
1.027843843
1.103164277
1.192488521
1.235770826
1.239695006
1.238013628
1.238907522
1.239128348
1.237249908
1.233196526
1.227852176
1.220368017
1.212845865
1.204530137
1
1
1
1
1
1
1
1
1
1
1
1
1
1
1
1
1
1.000000055
1.00000153
1.000102036
1.001525182
1.019212628
1.088650168
1.179536162
1.214388004
1.236205787
1.242580655
1.241850481
1.24028301
1.238587941
1.235203639
1.230383919
1.224173772
1.215557692
1.207429641
1.198263531
1
1
1
1
1
1
1
1
1
1
1
1
1
1
1
1
1.000000007
1.000001357
1.000029896
1.001026
1.010792826
1.068741948
1.161975037
1.226615713
1.229928415
1.234535753
1.239556606
1.241027212
1.23982275
1.237073838
1.232153677
1.226414155
1.219202783
1.209742775
1.201331113
1.191402973
1
1
1
1
1
1
1
1
1
1
1
1
1
1
1
1.000000007
1.000000248
1.000024064
1.000421532
1.007160561
1.048900124
1.142593979
1.206978753
1.238715789
1.241288258
1.239720955
1.238384612
1.238470682
1.237457869
1.234270552
1.228289951
1.221672349
1.213237657
1.203108106
1.194719682
1.18425083
1
1
1
1
1
1
1
1
1
1
1
1
1
1
1.000000001
1.000000246
1.000006292
1.000301944
1.00402104
1.033401633
1.122786076
1.2084706
1.224727006
1.234430075
1.241405311
1.240910612
1.239189908
1.237424105
1.234981937
1.23057084
1.223688259
1.216462206
1.206888425
1.196322008
1.187954985
1.177004151
1
1
1
1
1
1
1
1
1
1
1
1
1
1.000000001
1.000000039
1.000005536
1.000106084
1.002669338
1.023608822
1.0956231
1.188711151
1.236075235
1.238844518
1.238461108
1.239115142
1.240027615
1.239466952
1.236856032
1.232852739
1.226678657
1.218629513
1.21071847
1.200103441
1.189359537
1.181015902
1.169647192
1
1
1
1
1
1
1
1
1
1
1
1
1
1.000000041
1.000001149
1.000082051
1.001201597
1.016002118
1.07890069
1.173270116
1.215053652
1.237459156
1.243367004
1.242461553
1.240787926
1.239765159
1.237807948
1.234299873
1.229538339
1.22189576
1.212817491
1.204151052
1.192563229
1.181873557
1.173635062
1.161944205
1
1
1
1
1
1
1
1
1
1
1
1
1.000000005
1.000001092
1.000022659
1.000848487
1.008932237
1.060749512
1.152101176
1.224225785
1.22968392
1.235288711
1.240422394
1.242502416
1.241566378
1.239301846
1.235670721
1.230911622
1.225119586
1.216100255
1.206406837
1.197065198
1.184537408
1.173907097
1.165738168
1.153791584
1
1
1
1
1
1
1
1
1
1
1
1.000000005
1.000000161
1.000018724
1.000314321
1.006060927
1.042864002
1.132799244
1.203020938
1.238906005
1.242063976
1.239794513
1.239506866
1.240326974
1.240008413
1.237755082
1.232852189
1.226784859
1.21978383
1.209511473
1.199613143
1.189768858
1.176478257
1.16586225
1.157587376
1.145274424
1
1
1
1
1
1
1
1
1
1
1.000000001
1.000000145
1.000003924
1.000229757
1.003063073
1.029169421
1.115360327
1.200451192
1.22141543
1.234083288
1.242530513
1.24248641
1.241147465
1.240226085
1.238785849
1.235304839
1.229208706
1.222184261
1.21388687
1.202399383
1.19244
1.182213198
1.16840176
1.157883044
1.149451468
1.136796814
1
1
1
1
1
1
1
1
1
1
1.000000018
1.000003527
1.000071742
1.002127296
1.018859764
1.089694659
1.183903598
1.232402347
1.235261148
1.237390549
1.239826645
1.24204952
1.241899944
1.24050859
1.237461412
1.232441719
1.22483804
1.21682341
1.207207649
1.194780675
1.184895204
1.174377731
1.160279972
1.150072875
1.141538625
1.128516914
1
1
1
1
1
1
1
1
1
1.00000002
1.000000654
1.0000615
1.000905616
1.013566328
1.069681694
1.16755275
1.214476428
1.238443133
1.242832721
1.241879407
1.240628003
1.240784325
1.240515515
1.238992956
1.235354684
1.228913882
1.219694453
1.210693435
1.199733364
1.186668131
1.176975256
1.166238075
1.151981768
1.142168172
1.133535691
1.120153585
1
1
1
1
1
1
1
1
1.000000004
1.000000762
1.000016037
1.000723703
1.007403141
1.053629779
1.147082638
1.222738362
1.229042709
1.235195277
1.240633267
1.242244898
1.241300857
1.240175232
1.238975916
1.236397437
1.231886036
1.224318939
1.214029151
1.20424619
1.191896312
1.178343678
1.168757164
1.157636096
1.1431803
1.133902154
1.125322204
1.111804213
1.100882863
1
1
1
1
1
1
1
1.000000003
1.000000134
1.000015738
1.000243512
1.005528044
1.037498809
1.123088529
1.204042556
1.23998602
1.242691845
1.239830542
1.239705568
1.240606133
1.240482933
1.239272903
1.236910457
1.232994074
1.227517779
1.218792711
1.207816817
1.197524688
1.183945758
1.170029555
1.160365812
1.148687729
1.134200644
1.125467471
1.116889326
1.10318765
1.092676261
1
1
1
1
1
1
1.000000001
1.000000095
1.000002733
1.000198108
1.002355216
1.027481688
1.105740627
1.192422998
1.219906615
1.238470308
1.244319641
1.243871165
1.242345386
1.241125578
1.239917353
1.237872827
1.234433251
1.229135274
1.222389806
1.212173545
1.20073809
1.190188846
1.175669901
1.161680323
1.151941797
1.13956524
1.125074237
1.116788712
1.108238997
1.094665209
1.084633647
1
1
1
1
1
1
1.000000011
1.000002081
1.000043762
1.001730984
1.01494497
1.084532888
1.177475602
1.230647919
1.232645799
1.23635984
1.241156822
1.243859785
1.243348419
1.241673152
1.239420553
1.236315192
)
;

boundaryField
{
    inlet
    {
        type            fixedValue;
        value           nonuniform 0();
    }
    outlet
    {
        type            inletOutlet;
        inletValue      nonuniform 0();
        value           nonuniform 0();
    }
    bottom
    {
        type            slip;
    }
    top
    {
        type            slip;
    }
    obstacle
    {
        type            zeroGradient;
    }
    defaultFaces
    {
        type            empty;
    }
    procBoundary3to2
    {
        type            processor;
        value           nonuniform List<scalar> 
35
(
1
1
1
1
1
1
1
1
1
1
1
1
1
1
1
1
1
1
1
1
1
1
1
1
1
1
1
1
1
1
1
1
1
1
1
)
;
    }
    procBoundary3to4
    {
        type            processor;
        value           nonuniform List<scalar> 
62
(
1
1
1
1
1
1
1
1
1
1
1
1
1
1
1
1
1
1
1
1
1
1
1.000000002
1.00000005
1.000001221
1.000023045
1.000325419
1.003167828
1.019801695
1.0736594
1.15676642
1.208094766
1.217112076
1.232452455
1.239721029
1.237713217
1.235473819
1.23658918
1.234514434
1.231087031
1.226396752
1.222059408
1.217698779
1.212284529
1.205893828
1.19941914
1.193007982
1.18605188
1.178661262
1.171188967
1.163806572
1.156415578
1.148851896
1.140991919
1.13282917
1.124801329
1.116840977
1.108867102
1.108867102
1.093970678
1.085950719
1.077975371
)
;
    }
    procBoundary3to8
    {
        type            processor;
        value           nonuniform List<scalar> 
28
(
1
1
1
1
1
1
1
1
1
1
1
1
1
1
1
1
1
1
1
1
1
1
1
1
1
1
1
1
)
;
    }
    procBoundary3to9
    {
        type            processor;
        value           nonuniform List<scalar> 
38
(
1.231322378
1.224397428
1.216227517
1.204493436
1.19287882
1.182170634
1.166924834
1.153124526
1.143301985
1.130105972
1.1158449
1.108037832
1.099503042
1.085889119
1.076178536
1
1
1
1
1
1.000000006
1.000000287
1.000038059
1.000575274
1.01091274
1.060468797
1.156548232
1.21598398
1.239993319
1.242452134
1.24103848
1.240318692
1.241766531
1.242461602
1.241655297
1.239000507
1.231322378
1.234392068
)
;
    }
}


// ************************************************************************* //
