/*--------------------------------*- C++ -*----------------------------------*\
  =========                 |
  \\      /  F ield         | OpenFOAM: The Open Source CFD Toolbox
   \\    /   O peration     | Website:  https://openfoam.org
    \\  /    A nd           | Version:  7
     \\/     M anipulation  |
\*---------------------------------------------------------------------------*/
FoamFile
{
    version     2.0;
    format      ascii;
    class       volVectorField;
    location    "2.2";
    object      U;
}
// * * * * * * * * * * * * * * * * * * * * * * * * * * * * * * * * * * * * * //

dimensions      [0 1 -1 0 0 0 0];

internalField   nonuniform List<vector> 5((2.874962538 -0.002162544596 0) (2.834083558 -0.02947373733 0) (2.891324158 -0.009022525799 0) (2.904594745 -0.05160023095 0) (2.938218396 -0.008520187156 0));

boundaryField
{
    inlet
    {
        type            fixedValue;
        value           nonuniform 0();
    }
    outlet
    {
        type            inletOutlet;
        inletValue      nonuniform 0();
        value           nonuniform 0();
    }
    bottom
    {
        type            slip;
    }
    top
    {
        type            slip;
    }
    obstacle
    {
        type            slip;
    }
    defaultFaces
    {
        type            empty;
    }
    procBoundary22to16
    {
        type            processor;
        value           nonuniform List<vector> 3((2.881706545 0.004935662526 0) (2.799414986 -0.02727285215 0) (2.799414986 -0.02727285215 0));
    }
    procBoundary22to21
    {
        type            processor;
        value           nonuniform List<vector> 2((2.751489539 -0.09529549925 0) (2.832683051 -0.1438767554 0));
    }
    procBoundary22to28
    {
        type            processor;
        value           nonuniform List<vector> 2((2.970015274 -0.08174855886 0) (2.983123875 -0.01845174977 0));
    }
    procBoundary22to29
    {
        type            processor;
        value           nonuniform List<vector> 3((2.891663343 0.001944455469 0) (2.906190818 0.001149405422 0) (2.940181899 0.002077656558 0));
    }
}


// ************************************************************************* //
