/*--------------------------------*- C++ -*----------------------------------*\
  =========                 |
  \\      /  F ield         | OpenFOAM: The Open Source CFD Toolbox
   \\    /   O peration     | Website:  https://openfoam.org
    \\  /    A nd           | Version:  7
     \\/     M anipulation  |
\*---------------------------------------------------------------------------*/
FoamFile
{
    version     2.0;
    format      ascii;
    class       volScalarField;
    location    "2.6";
    object      T;
}
// * * * * * * * * * * * * * * * * * * * * * * * * * * * * * * * * * * * * * //

dimensions      [0 0 0 1 0 0 0];

internalField   nonuniform List<scalar> 
2222
(
1.089187578
1.089191868
1.089155737
1.08911862
1.089103808
1.089087906
1.08907029
1.089011425
1.088891732
1.088803769
1.088725257
1.088647031
1.088578128
1.088510323
1.088394958
1.089957002
1.089980179
1.090202156
1.090184813
1.090365497
1.090325834
1.090085008
1.089760362
1.089516297
1.089324379
1.089078455
1.088916386
1.088778879
1.088696636
1.088726809
1.088774806
1.088826031
1.088936183
1.08903733
1.089094745
1.089057461
1.088979351
1.088988165
1.08905454
1.089102171
1.089137527
1.089203069
1.089218203
1.089177661
1.089096614
1.089020784
1.088897519
1.088804591
1.088736484
1.088670479
1.088619639
1.08853545
1.088386914
1.089830704
1.089843308
1.089936283
1.090010166
1.090264282
1.090322101
1.090223331
1.089926789
1.089492946
1.089102157
1.088915896
1.08878888
1.088654938
1.088565148
1.088541096
1.08862801
1.088690956
1.088727398
1.088771762
1.088829274
1.088822169
1.088786314
1.088810514
1.088884233
1.088967906
1.089064943
1.08915939
1.08917754
1.089137791
1.089050259
1.088961923
1.088854447
1.088767049
1.088688559
1.088636665
1.088604654
1.088536391
1.088322672
1.089441027
1.089493135
1.08955302
1.089658981
1.089928116
1.090036876
1.089944101
1.089772428
1.089413829
1.088941382
1.088615669
1.088455448
1.088342341
1.088239701
1.088202896
1.088309856
1.088391034
1.088374823
1.088363122
1.088420294
1.088495462
1.088490329
1.088524063
1.08858727
1.088685972
1.088824978
1.088937155
1.088942967
1.088892088
1.088806879
1.088737157
1.088665362
1.088561766
1.088465254
1.088429607
1.088402876
1.088315022
1.088149578
1.088737621
1.088947793
1.08887533
1.088967808
1.089130017
1.089215511
1.089235094
1.089101775
1.088770029
1.088499352
1.088191145
1.087913117
1.087754704
1.08763564
1.087577412
1.087681756
1.08776807
1.087740949
1.08772089
1.087777343
1.087883286
1.087963445
1.087999219
1.088034615
1.08812638
1.088239002
1.088334488
1.088335213
1.088279903
1.088221744
1.088167164
1.088124572
1.088063387
1.087971863
1.087921337
1.087846492
1.087777808
1.087631499
1.087760832
1.08800532
1.087817354
1.087792209
1.087778946
1.087783154
1.087823094
1.087783843
1.087548098
1.087403452
1.087215892
1.086954009
1.086725878
1.086557841
1.086518276
1.08659169
1.086654451
1.08663555
1.086629792
1.08669897
1.086835119
1.086967335
1.087036027
1.087048498
1.087071366
1.087118733
1.087174234
1.087194451
1.087175789
1.08713691
1.087099306
1.087080341
1.087074818
1.087002629
1.086889127
1.08678417
1.0867372
1.08665988
1.086078
1.086171752
1.085999429
1.08590379
1.0857084
1.085703956
1.085709052
1.085765287
1.085598252
1.085531379
1.085429685
1.085259019
1.08508831
1.084873345
1.084853004
1.084897531
1.08492031
1.084932731
1.08496256
1.085040821
1.085174943
1.085317359
1.085371756
1.08533837
1.085281802
1.085293725
1.085295341
1.085351824
1.085408964
1.085423063
1.085408341
1.08537315
1.085376224
1.085344675
1.085242622
1.085115991
1.085044177
1.085016934
1.083427979
1.083353862
1.08319293
1.0831156
1.082882841
1.082851335
1.082865123
1.08294343
1.082886889
1.082796111
1.082782394
1.082710702
1.082627456
1.082486245
1.08247056
1.082494332
1.082480988
1.082446288
1.082513948
1.082608028
1.082713269
1.082826018
1.082823733
1.082753497
1.082682996
1.082643922
1.082644398
1.082708725
1.082852812
1.082962333
1.082975832
1.082929209
1.082896801
1.082897108
1.082822164
1.082713054
1.082639542
1.082632306
1.079799959
1.079587181
1.079434587
1.079401052
1.079356716
1.079327979
1.079245882
1.079320231
1.079317795
1.079241961
1.079302
1.079293549
1.079237802
1.079174054
1.079240269
1.079261107
1.079213873
1.079125664
1.079173166
1.079266552
1.079340844
1.079377596
1.079362542
1.079280345
1.079187975
1.079157917
1.07921048
1.079307078
1.079469554
1.07967099
1.079707542
1.079660095
1.07959536
1.079582027
1.079553376
1.079458883
1.079416017
1.079455345
1.07527112
1.074971201
1.074856037
1.074845374
1.074982254
1.07505546
1.074979841
1.074909381
1.074956624
1.074914399
1.075046454
1.075023753
1.075002929
1.07496261
1.075003627
1.075008968
1.074996184
1.074976277
1.074952679
1.074976531
1.075017632
1.07503013
1.074996893
1.074925567
1.074844904
1.074857899
1.074949343
1.07509448
1.075292479
1.075427746
1.075512367
1.075499602
1.07544698
1.075392257
1.075363432
1.075349271
1.075378961
1.075440416
1.069946788
1.069583499
1.069571812
1.069580715
1.069816777
1.06993958
1.069952755
1.069866895
1.069932595
1.069860429
1.069868156
1.069924939
1.069800095
1.069786873
1.06982333
1.069850815
1.069870648
1.069914841
1.069925343
1.069865401
1.069856821
1.06986237
1.069836272
1.069789136
1.06974457
1.069787839
1.06994577
1.070148886
1.070299243
1.070419993
1.070471279
1.070482042
1.070420809
1.070328757
1.070323937
1.070424122
1.070491094
1.070598518
1.06385928
1.06370012
1.063722656
1.0637765
1.064027023
1.064142397
1.064223147
1.064235512
1.064268247
1.06419265
1.064077691
1.063978487
1.063885536
1.063838862
1.06381163
1.063842638
1.063977467
1.064105034
1.06415851
1.06413937
1.064047964
1.064047848
1.064039782
1.064017189
1.064032474
1.064094389
1.064246784
1.064455012
1.064612083
1.064723393
1.06474543
1.06472558
1.06465132
1.064596533
1.064618759
1.064735871
1.064874463
1.065012607
1.057457264
1.057456729
1.057530932
1.05757184
1.057745633
1.057830482
1.057963012
1.058016107
1.058024108
1.057966898
1.05779717
1.057619755
1.057521489
1.057423051
1.05733927
1.057312387
1.057411485
1.057692432
1.057849209
1.057861592
1.057776932
1.057742866
1.057750534
1.057792711
1.057846149
1.057886195
1.057989192
1.058185097
1.058348466
1.058456607
1.058478918
1.058445957
1.05838546
1.058368708
1.058403805
1.058478113
1.058613533
1.05879103
1.051016785
1.051058665
1.051040722
1.051113762
1.051180479
1.051332474
1.051468887
1.051453501
1.0513933
1.0511722
1.050981646
1.05086285
1.050704104
1.05057382
1.050486397
1.050524081
1.050773984
1.051153944
1.051261045
1.051229345
1.05117707
1.051206475
1.051247734
1.051282531
1.051315269
1.051387428
1.051550242
1.051728219
1.051838441
1.051869511
1.051832886
1.051794386
1.051774417
1.051818095
1.051850126
1.051935896
1.052113185
1.044404399
1.044389659
1.044362521
1.04436053
1.044455423
1.044528851
1.044747257
1.044705918
1.044615678
1.044381199
1.044176672
1.044050798
1.0438739
1.043750839
1.04366941
1.043704829
1.043869431
1.044185817
1.044470343
1.044552405
1.044501618
1.044485892
1.044503281
1.044536012
1.044570965
1.044626764
1.044755517
1.044925685
1.045045616
1.045071246
1.045051446
1.045036475
1.045026671
1.045045711
1.045043753
1.045092786
1.045247582
1.037737913
1.037647049
1.037646401
1.037675782
1.037823339
1.037842248
1.037960747
1.037953069
1.03782942
1.037664464
1.037510638
1.037329827
1.037171141
1.037059894
1.037041232
1.037042725
1.037165593
1.03738808
1.037607415
1.037812141
1.037820422
1.037784605
1.03775213
1.037788509
1.037842446
1.0378907
1.037979449
1.038116574
1.038211049
1.038239837
1.038269307
1.03829095
1.038284834
1.038275369
1.03825158
1.038271461
1.038386218
1.031220091
1.031104665
1.031140561
1.031193441
1.031367683
1.031401154
1.031392595
1.031387541
1.031268728
1.031214897
1.031080362
1.03083926
1.030712515
1.030651958
1.030688903
1.030732931
1.030845444
1.030938283
1.031058306
1.031218879
1.031298073
1.031211197
1.031162358
1.031187663
1.031243771
1.031294659
1.031387892
1.0315187
1.031607152
1.031619687
1.031641485
1.031674245
1.031687083
1.031668587
1.031648412
1.031634558
1.031712644
1.025013601
1.024917628
1.024957577
1.025038282
1.025177366
1.02529254
1.025239319
1.02518231
1.0250638
1.025059408
1.024896609
1.024690682
1.02456935
1.02455302
1.024605751
1.024783062
1.024877733
1.024927344
1.02495108
1.025029957
1.025083201
1.024997862
1.024957195
1.024963924
1.024992879
1.025038577
1.025120118
1.025259207
1.02538222
1.025410494
1.025416831
1.025427923
1.025428216
1.025408677
1.025389148
1.025352565
1.025425703
1.019258292
1.01919873
1.01922608
1.019354156
1.019464856
1.019596777
1.019563216
1.019457662
1.019333061
1.01929015
1.019142025
1.018999434
1.018901511
1.018957872
1.019060577
1.019178387
1.019339579
1.019378119
1.019361943
1.01937747
1.019365243
1.019295133
1.019243654
1.019211225
1.019206054
1.019246338
1.01931229
1.019452787
1.01963218
1.019720515
1.019732886
1.019727374
1.019697899
1.019648475
1.0196072
1.01958416
1.01967569
1.014083976
1.014057312
1.014081169
1.014221855
1.014324661
1.0144129
1.014395264
1.014315976
1.014204506
1.014083599
1.013963993
1.013870049
1.013828631
1.013918431
1.014060775
1.014146775
1.01424776
1.014309162
1.01432545
1.0143005
1.014259086
1.014207453
1.014134943
1.014037508
1.013988278
1.014034909
1.01413694
1.014297461
1.014500498
1.01463609
1.014668413
1.014646424
1.014586583
1.01452136
1.01446364
1.014464335
1.014562344
1.009563394
1.00955156
1.009594694
1.009679573
1.009794417
1.009816708
1.009846058
1.00983573
1.009750622
1.00958528
1.009484788
1.009408529
1.009429495
1.009548481
1.009652884
1.009706284
1.009740043
1.009841772
1.0099033
1.009886141
1.009848108
1.009802547
1.009699026
1.009564193
1.009497606
1.00954154
1.009685878
1.009873286
1.010073737
1.010229568
1.010274309
1.010231251
1.010170911
1.010126965
1.010088805
1.010089651
1.010174561
1.005695063
1.005715197
1.005814546
1.005849386
1.005991443
1.005994896
1.006055797
1.006079195
1.006012593
1.005851302
1.005760559
1.00568999
1.005744749
1.005859532
1.005893663
1.005900993
1.005938783
1.006093238
1.006182384
1.006189982
1.006164696
1.006119291
1.005993646
1.005873129
1.005809695
1.005837818
1.005988324
1.00619412
1.006385008
1.006525539
1.00655724
1.006505952
1.006490681
1.006495618
1.006494027
1.006499045
1.006564294
1.002554921
1.002660693
1.002817741
1.00280812
1.002950437
1.002974321
1.003028976
1.00303142
1.002989577
1.002887132
1.002823976
1.002758356
1.002784587
1.002829648
1.002825621
1.002843337
1.002942036
1.003116078
1.003196905
1.003223093
1.003223334
1.003185491
1.003044572
1.002942505
1.002888887
1.002939829
1.003107673
1.003311915
1.003460266
1.003531701
1.003527136
1.003509511
1.003554127
1.003608319
1.003647172
1.003678632
1.003718236
1.000167219
1.000321686
1.00047701
1.000447518
1.000568426
1.000678371
1.000725649
1.000694732
1.000684977
1.000649405
1.000608445
1.000537155
1.000488674
1.000484895
1.000492524
1.000558592
1.000700071
1.000873234
1.000955218
1.000991941
1.00100996
1.000948682
1.000802109
1.000740297
1.00075753
1.000869858
1.001023073
1.001153472
1.001208583
1.00119415
1.001194589
1.001248306
1.001322483
1.001403372
1.001482442
1.001549156
1.001577175
0.9984218261
0.9986005608
0.9986928745
0.9987289468
0.9988652724
0.9990512588
0.9990934518
0.9990433392
0.9990480687
0.9990478156
0.9990010635
0.9989230128
0.9988461318
0.9988274195
0.9988711007
0.9990066772
0.9991746332
0.9993295568
0.9994337738
0.9994563526
0.9994321408
0.9993235007
0.9992671153
0.9992951385
0.999360256
0.9994450888
0.9995167148
0.9995246422
0.9995017405
0.9994965077
0.9995552051
0.9996452525
0.9997225838
0.9998257333
0.9999389057
1.000012349
1.000028628
0.9971955254
0.9973817122
0.9974875831
0.9976443944
0.9978015236
0.9979528999
0.9979697145
0.9979148717
0.9979050687
0.9979259515
0.9978948351
0.9978494067
0.9978029299
0.9978085429
0.9978886132
0.9980365708
0.998158004
0.9982608633
0.9983796618
0.9983835993
0.9983282801
0.9983030179
0.9983839663
0.9984479062
0.9984720504
0.9984521609
0.9984078434
0.9983466554
0.9983320919
0.998382771
0.9984803583
0.9985926763
0.9986946649
0.9988062472
0.9989022269
0.9989417326
0.9989484877
0.9965740647
0.9966637272
0.9968947402
0.9970273454
0.9971105684
0.9971280732
0.9971168923
0.9971074493
0.9971678504
0.9971839023
0.9971634861
0.9971471064
0.9971998288
0.9972980061
0.9973953038
0.9974535188
0.9975350112
0.9976468468
0.9976693868
0.997682562
0.997763862
0.9979020052
0.9979446147
0.9979134519
0.9978191894
0.9977035712
0.9976250255
0.9976304308
0.9977168716
0.9978526827
0.9980042904
0.9981087702
0.9981781028
0.9982260204
0.9982355414
0.998284446
0.9960264762
0.9960895213
0.9963049577
0.9963887856
0.9964597892
0.9965148238
0.9966015114
0.9966264068
0.9966732217
0.9967041263
0.996678777
0.9967143285
0.9968533906
0.9969503527
0.9970220191
0.997103165
0.9971937981
0.9972625583
0.997314907
0.997378776
0.9974748705
0.9975846099
0.9976079359
0.9975545623
0.9974437772
0.9972970077
0.9972171196
0.9972901218
0.9974467637
0.9976019615
0.997727248
0.9977831815
0.9978076989
0.9978472489
0.9978843134
0.997974438
0.995735781
0.995872847
0.9960837901
0.9961862228
0.9962494132
0.9962982794
0.9963820047
0.996366736
0.9963270433
0.9963251518
0.9963719573
0.9965314359
0.996712978
0.9967993697
0.9969044919
0.9970348688
0.9971089156
0.9971250413
0.9971560051
0.9971934124
0.997232205
0.9972659521
0.9972855059
0.9972505543
0.9971353785
0.9970278594
0.9970506699
0.9972209067
0.9974033456
0.9975176737
0.9975750692
0.9976092388
0.9976357646
0.9976732565
0.9977108205
0.9977914983
0.995748129
0.9959438137
0.9961622105
0.9962608925
0.9962925242
0.9963050957
0.996321857
0.9962233427
0.9961500429
0.9961467158
0.9962837241
0.9964934705
0.9966493389
0.9967246984
0.9968567504
0.9970218429
0.9970767357
0.9970616735
0.9970576867
0.9970448921
0.9970165253
0.9969820957
0.9969684243
0.9969007627
0.9968305078
0.9968927089
0.9970672311
0.997258285
0.997403676
0.9974496411
0.9974483569
0.9975110885
0.9975618252
0.9975741526
0.9975700147
0.997647103
0.9959748596
0.9961199912
0.9962816655
0.9963625923
0.9963653445
0.9963514834
0.996311673
0.9961897629
0.996143701
0.9961855485
0.9963593699
0.9965039975
0.9966030695
0.9966658798
0.9967821881
0.9969190664
0.9969468907
0.9969316237
0.9969082785
0.9968880609
0.9968492972
0.9967752854
0.9967081948
0.996685922
0.9967401323
0.9969428728
0.9971894918
0.9973231042
0.9973839165
0.9973520403
0.9973375029
0.9974466765
0.9975040609
0.9975070295
0.9975101326
0.9976079821
0.996222419
0.9962424145
0.9962733277
0.9963410259
0.9963779636
0.9964012243
0.9963408456
0.9962613441
0.9962520499
0.9963350956
0.9964883298
0.9965261994
0.9965257011
0.9966043452
0.9966975643
0.9967552771
0.9967822546
0.9967900912
0.9967750538
0.9967833831
0.9967663488
0.9966936516
0.9966377216
0.9967074413
0.9968517744
0.9971348459
0.9973288765
0.9973793714
0.9972876285
0.9972168416
0.9972703003
0.9974037062
0.9974522208
0.9974612403
0.9975129631
0.9976695495
0.9963446026
0.9962538371
0.9962211252
0.9962742474
0.9964004843
0.9964675799
0.996422439
0.9964437032
0.9964685466
0.9965331071
0.9965782257
0.9965102864
0.9964233584
0.9965273832
0.9966449145
0.9967189252
0.9967658393
0.9967917791
0.9968068039
0.9968121981
0.9967846999
0.9967275865
0.9967866686
0.9969535024
0.997185532
0.9973433136
0.9974044124
0.9972900369
0.9970904502
0.9971097731
0.9972811819
0.9973624501
0.9974109951
0.9975108645
0.9976456752
0.9978173571
0.9964136907
0.9962062875
0.9961982578
0.9963412871
0.9965654167
0.9966214488
0.9966033602
0.9966662141
0.996703051
0.996732675
0.9966308244
0.9965201952
0.9965651968
0.9967225224
0.9969022283
0.9969900541
0.9970763868
0.997093856
0.9970581854
0.9969653411
0.9969258088
0.9969957705
0.9971280776
0.9973389832
0.9974820861
0.997473668
0.9973413233
0.9970487697
0.9970363691
0.9972217917
0.9973748735
0.9974057264
0.9974835483
0.9976610344
0.9978324224
0.9979664869
0.9965353824
0.9963350737
0.9964684567
0.9966721036
0.9968662101
0.996868779
0.996843405
0.9968826874
0.9969096045
0.9968781691
0.9967516033
0.9968415194
0.997045325
0.9971894026
0.9973564299
0.997444578
0.9975419466
0.9975213975
0.9974512601
0.9973226695
0.9972901571
0.9973898196
0.9975632004
0.9976415957
0.9976359427
0.9974728971
0.9971412049
0.997120586
0.9972920512
0.9974795261
0.9975458137
0.9975877248
0.9977204341
0.9978820003
0.998016073
0.9981078458
0.9969079541
0.9968003816
0.9969868996
0.9971433971
0.9972171888
0.9971237806
0.997053665
0.9970781265
0.997113979
0.997130549
0.9972437334
0.997424345
0.9976415426
0.9977737659
0.997905308
0.9979356413
0.9980085853
0.9980358852
0.9979336545
0.9977860587
0.9977761022
0.9978621929
0.9979267523
0.9978809602
0.9976747904
0.997391961
0.9973646368
0.9975410109
0.9977395018
0.9978316035
0.9978689817
0.9979558043
0.9980931386
0.9982019277
0.9982749902
0.9982825188
0.9974949094
0.9974377728
0.9975844406
0.9976757383
0.9975727537
0.9973916443
0.9974014438
0.9974725217
0.9975899834
0.9977551873
0.9979728079
0.9981423891
0.9983373288
0.9984721489
0.9985062561
0.9984917805
0.9984757445
0.9985236724
0.9984973744
0.9983857346
0.9983042125
0.9982931959
0.9982576549
0.9980120571
0.9977617344
0.9977661725
0.9979379381
0.9981356203
0.9983113817
0.9983477714
0.9983780593
0.9984952787
0.9985979224
0.9986451698
0.9986544869
0.9985792119
0.9982135124
0.99812872
0.9982314066
0.9982292462
0.9981019692
0.9981519348
0.9982466284
0.9983311894
0.9984421349
0.9986108582
0.998838898
0.9990748026
0.9991707337
0.9992296704
0.9992289438
0.9992115074
0.9991816519
0.9991938107
0.9991618362
0.9990939481
0.9989412711
0.9988039908
0.9985428693
0.998362102
0.9983946369
0.9985255125
0.9986940353
0.9989420187
0.9990131622
0.999040742
0.9990890547
0.9991733762
0.9992304313
0.9992382623
0.9992305902
0.9991563437
0.999099959
0.9989825352
0.9990546968
0.9991288567
0.9991856032
0.999253632
0.9993290821
0.9994013767
0.9994768229
0.9996323983
0.9998558704
1.000033262
1.000095216
1.000120893
1.000130387
1.000121527
1.0000843
1.000038572
0.9999826075
0.9999293197
0.9997191832
0.999378212
0.999221617
0.9992865115
0.9993563567
0.999486352
0.9997346427
0.9998408044
0.9998644284
0.9999023972
0.9999493548
0.9999782856
0.9999755526
0.9999896749
1.000015539
0.9999819688
1.000350181
1.00023
1.000315581
1.000407958
1.000470997
1.000552323
1.000634054
1.000668262
1.000697209
1.000852566
1.000997064
1.001076421
1.001061351
1.001102456
1.001181491
1.001169615
1.001078432
1.000938107
1.000829977
1.00071675
1.000520039
1.00036417
1.000358891
1.000433642
1.00055078
1.00074498
1.000851291
1.000834426
1.000826319
1.000889451
1.000901386
1.000821719
1.000813491
1.000898676
1.000953008
1.000963268
1.001768995
1.001800891
1.001790678
1.001922413
1.002020329
1.002075046
1.002062099
1.002058172
1.002127934
1.002170088
1.002125916
1.002030273
1.002133055
1.002250366
1.00224652
1.00209576
1.00188529
1.001808466
1.001742562
1.001718245
1.001682609
1.001713014
1.001824397
1.00199081
1.00208596
1.002010734
1.001899035
1.001911465
1.001946136
1.001876542
1.001842914
1.001904346
1.001985179
1.002022114
1.002089786
1.003402219
1.003334048
1.003315612
1.003460487
1.003473895
1.003418266
1.003385092
1.003363373
1.003356604
1.003326841
1.00316818
1.003152859
1.003233119
1.003310942
1.003273405
1.003163947
1.003102017
1.003101363
1.003073282
1.003081652
1.003126159
1.003252122
1.003413683
1.003475672
1.003376474
1.003200436
1.003125019
1.00311405
1.003066911
1.003037059
1.003042817
1.003108794
1.003158759
1.00319291
1.003276059
1.005090078
1.004932899
1.004878965
1.004870885
1.004739998
1.004632015
1.00460147
1.004587531
1.004493201
1.004406499
1.004330715
1.004343476
1.004323619
1.004312709
1.004357893
1.004391245
1.004431857
1.004479592
1.004529753
1.004598427
1.004735057
1.004887044
1.004900448
1.004808195
1.004642456
1.00449172
1.004424288
1.004366661
1.00425076
1.004242541
1.004292641
1.004337264
1.004351807
1.004382119
1.004478404
1.006563859
1.006353225
1.006191681
1.006031455
1.005853933
1.005756218
1.005707818
1.005672496
1.005550845
1.005401934
1.005378785
1.005380118
1.005315479
1.005361514
1.005500516
1.005553303
1.005677544
1.005809579
1.005957851
1.006080077
1.006195496
1.00619363
1.006095452
1.005972601
1.005810679
1.005721163
1.005658642
1.00554632
1.005419474
1.005408749
1.005500427
1.005508203
1.005510138
1.005562345
1.005682748
1.007475271
1.007320894
1.007125567
1.006968241
1.006828946
1.006767979
1.006691862
1.006591549
1.006412446
1.006217486
1.006221554
1.006308213
1.006369035
1.00640782
1.006537347
1.00670535
1.006905292
1.007016885
1.007098974
1.007183751
1.007227974
1.007203038
1.007102213
1.006963315
1.006826589
1.006763542
1.006694281
1.006590648
1.006523392
1.006535557
1.00660661
1.006635368
1.00665661
1.006739615
1.00684853
1.00803329
1.008040967
1.007871991
1.007716976
1.007655148
1.007620569
1.00752397
1.007301842
1.007051788
1.006961829
1.006961701
1.007032271
1.007230947
1.007333224
1.007532376
1.007912907
1.007974143
1.00791565
1.007920786
1.007983687
1.007997592
1.00793219
1.007800646
1.007643744
1.007624029
1.007627692
1.007549582
1.007485854
1.00752004
1.007605387
1.007612539
1.007664485
1.007721452
1.007768758
1.007821538
1.008360502
1.0083869
1.008320799
1.008303845
1.008284809
1.008237374
1.008133869
1.00784245
1.007661152
1.007574994
1.007585969
1.007649786
1.007920833
1.008188575
1.008611482
1.008872674
1.008819318
1.008739904
1.008675215
1.008617247
1.008573506
1.008365902
1.008192919
1.008155681
1.008232063
1.008279934
1.008282618
1.008270085
1.008409639
1.008531647
1.008474872
1.008491317
1.00853102
1.008516037
1.008535487
1.008843617
1.008848971
1.008884431
1.008888817
1.008815079
1.00873153
1.008568095
1.008283451
1.008140485
1.008115012
1.008146824
1.008222727
1.008545183
1.009039942
1.009515484
1.009533666
1.009424859
1.009400138
1.009408491
1.009318028
1.009055751
1.008799488
1.008716489
1.008743233
1.008804662
1.008860092
1.008909954
1.009034944
1.009211516
1.009258696
1.009146278
1.009061562
1.009089483
1.009094106
1.009081635
1.009385962
1.00933404
1.009378105
1.009326209
1.009283355
1.009175339
1.009000584
1.008735302
1.008602259
1.008603851
1.00868325
1.008854668
1.009259269
1.00982547
1.010070489
1.009993641
1.009892625
1.009913598
1.009968011
1.009917452
1.009699154
1.009491647
1.009359064
1.009334087
1.00938635
1.009464573
1.009581472
1.009839687
1.009870007
1.009748849
1.009646296
1.0094872
1.009469031
1.00946794
1.009506517
1.009949977
1.00987061
1.009828871
1.00976642
1.009682524
1.009547262
1.009386271
1.009267229
1.009141755
1.009163903
1.00928542
1.00960961
1.010076549
1.010356662
1.010347688
1.010286869
1.010279694
1.010305271
1.010357124
1.010329009
1.010179221
1.010128439
1.010106536
1.01006807
1.010079507
1.010215697
1.010416293
1.0104811
1.010345415
1.010128585
1.010013101
1.00992344
1.009847747
1.009832362
1.009904475
1.010492514
1.0104172
1.010292397
1.010268882
1.01017389
1.010004862
1.009829213
1.009809583
1.009784619
1.009868047
1.010053894
1.010380367
1.010652155
1.010584539
1.010464055
1.010490152
1.010612912
1.010670269
1.010646498
1.010588889
1.01055795
1.01066071
1.010858388
1.010900436
1.010870237
1.010924647
1.010995333
1.010893989
1.010670431
1.010461178
1.010297799
1.010215794
1.010158074
1.010189313
1.010397345
1.010969818
1.010892667
1.010814294
1.010804227
1.010716278
1.01054153
1.01038436
1.010379135
1.010500433
1.010688914
1.01091318
1.011045053
1.010870162
1.010704903
1.010603027
1.010659634
1.010855377
1.010978876
1.010942888
1.010853922
1.010951589
1.011184092
1.011382123
1.011509476
1.011537592
1.011445103
1.011310734
1.011137195
1.010893641
1.010657087
1.010516837
1.010488386
1.01053396
1.010722418
1.011019885
1.011398031
1.011335102
1.011372225
1.011339119
1.011260486
1.011157942
1.011133046
1.011213585
1.011361297
1.011468166
1.011504793
1.011385565
1.011012177
1.010764299
1.010749959
1.010884989
1.011071214
1.011158693
1.011148232
1.011163678
1.011385941
1.011587033
1.011668003
1.011730853
1.011767712
1.01170445
1.011494167
1.011239946
1.011017862
1.010853867
1.01079821
1.010857332
1.01103821
1.011314684
1.01150341
1.011711908
1.011878443
1.011864148
1.011854012
1.011848037
1.011843586
1.011940623
1.011996794
1.012006125
1.011883013
1.011654691
1.011447274
1.011109839
1.010853522
1.010967254
1.011219541
1.011293397
1.011242627
1.011266318
1.011409474
1.011678042
1.01177793
1.011787442
1.011758357
1.011772259
1.011731678
1.01154085
1.011286819
1.011142664
1.01113033
1.011278475
1.011479704
1.01166769
1.011758177
1.011685023
1.012431431
1.012311669
1.012401126
1.012337411
1.012319359
1.012318296
1.012200863
1.012121092
1.011988276
1.011689101
1.011364401
1.011124478
1.011055257
1.011244763
1.011464769
1.011465364
1.01137711
1.011426169
1.011603342
1.011750076
1.01178403
1.011772484
1.011711391
1.011653507
1.01160924
1.011507876
1.011359113
1.011388001
1.011589437
1.011852287
1.012003479
1.012001369
1.011867493
1.011679182
1.012792757
1.012772877
1.012725173
1.012642656
1.012508497
1.012290556
1.012174412
1.012066908
1.011891645
1.011640123
1.011273907
1.011214618
1.01134509
1.011496036
1.011530672
1.011488849
1.011548561
1.011713516
1.011843964
1.011759223
1.011696235
1.011680672
1.011650739
1.011554502
1.011482746
1.011470617
1.011571913
1.011856298
1.012156675
1.012244402
1.012166413
1.01201196
1.011825732
1.011635701
1.012911897
1.01297038
1.012721021
1.01259945
1.012448863
1.012218489
1.012059237
1.011941376
1.011776383
1.011490127
1.011309768
1.011340078
1.011561889
1.011727736
1.011633062
1.011550689
1.011736487
1.012020834
1.012035302
1.011847222
1.0117033
1.01167876
1.011723218
1.011733803
1.011667454
1.011685777
1.012033093
1.012377605
1.012463448
1.012290043
1.01207955
1.011883711
1.011744909
1.011664751
1.012914137
1.012798437
1.012609705
1.012387068
1.01225083
1.012144732
1.012084445
1.011834726
1.011679217
1.011489827
1.011386884
1.011532512
1.011847138
1.011875129
1.01186228
1.011958932
1.012154838
1.012240438
1.012170976
1.011996874
1.011960213
1.01196522
1.011953717
1.011977116
1.012100849
1.012312848
1.012543678
1.012588421
1.012433886
1.012181025
1.011951517
1.011791037
1.011764019
1.011833449
1.012810662
1.012539566
1.012449133
1.012087832
1.011911061
1.011877862
1.011842977
1.011730861
1.011591464
1.011503288
1.011481646
1.011846163
1.012129002
1.012037298
1.012160998
1.012486612
1.012613749
1.01246602
1.012306046
1.012254452
1.01229133
1.012323952
1.012309166
1.012288627
1.012461303
1.012760368
1.012721343
1.012504327
1.012204048
1.012037733
1.011933163
1.011882318
1.011963536
1.012147757
1.012552971
1.01238224
1.012271583
1.012123376
1.011842683
1.01178904
1.011671063
1.011718656
1.011611779
1.011586706
1.011810258
1.012152171
1.01239232
1.012564575
1.012738125
1.012853386
1.012880175
1.012712275
1.012535474
1.012469345
1.012458558
1.012556552
1.012645318
1.01266597
1.012635479
1.012640504
1.012598852
1.01223478
1.01204639
1.012011022
1.012068873
1.012171698
1.012280456
1.0123337
1.012144112
1.012176081
1.01196853
1.011900178
1.011904414
1.01202613
1.012001928
1.011872388
1.0118493
1.011993916
1.012406277
1.012788285
1.012963542
1.013098838
1.013111194
1.012879762
1.012799672
1.012672178
1.012639542
1.012600243
1.012602633
1.012671069
1.012764573
1.012821342
1.012781977
1.01249333
1.012270569
1.012115583
1.012098537
1.012252854
1.012335705
1.012413147
1.01246329
1.012364361
1.01181155
1.011850146
1.011699117
1.011768693
1.012205829
1.012532166
1.012523762
1.012486216
1.012573575
1.012832512
1.013192817
1.013286084
1.01324003
1.013172484
1.013051391
1.012833166
1.012584886
1.012486151
1.012547355
1.012613466
1.012693966
1.012665342
1.012685306
1.012605428
1.01254787
1.012374435
1.012133225
1.012180376
1.012447967
1.012631813
1.012583889
1.012491886
1.011894264
1.011650648
1.011851816
1.012349064
1.01299552
1.013095767
)
;

boundaryField
{
    inlet
    {
        type            fixedValue;
        value           nonuniform 0();
    }
    outlet
    {
        type            inletOutlet;
        inletValue      uniform 1;
        value           nonuniform List<scalar> 
61
(
1.08838524
1.088304481
1.088130451
1.087624155
1.086664502
1.085043445
1.082645025
1.079457317
1.075431386
1.070593981
1.065007541
1.058801127
1.052126649
1.045254443
1.038385666
1.031704913
1.025414826
1.01966997
1.014567431
1.010187138
1.006575033
1.003718527
1.001564662
1.000007208
0.9989351246
0.9982971034
0.997988108
0.9977856177
0.9976379156
0.9976088524
0.9976841131
0.9978321266
0.9979705374
0.9981018514
0.9982613022
0.9985652992
0.9991579916
0.9999804511
1.000954765
1.002087925
1.003282736
1.004495615
1.005713366
1.006860304
1.007803236
1.008516404
1.009036859
1.009491992
1.009902587
1.010450043
1.011091705
1.011523186
1.011648894
1.01162705
1.011597578
1.011672246
1.011879676
1.012164974
1.012316135
1.012348655
1.088402019
)
;
    }
    bottom
    {
        type            slip;
    }
    top
    {
        type            slip;
    }
    obstacle
    {
        type            zeroGradient;
    }
    defaultFaces
    {
        type            empty;
    }
    procBoundary23to17
    {
        type            processor;
        value           nonuniform List<scalar> 
39
(
1.08916935
1.089128487
1.089065339
1.088955374
1.08892678
1.088955621
1.088979872
1.088928156
1.088865308
1.088765975
1.088662171
1.088575382
1.088498996
1.088432636
1.08834872
1.089915982
1.09005394
1.090327888
1.090306344
1.090297345
1.090147471
1.089940515
1.089694952
1.089503046
1.089355777
1.089104601
1.088935568
1.088804191
1.088731345
1.088792028
1.088832023
1.08887516
1.089006697
1.089129744
1.089195825
1.089185891
1.089140211
1.089143978
1.089143978
)
;
    }
    procBoundary23to22
    {
        type            processor;
        value           nonuniform List<scalar> 
63
(
1.089910114
1.08987206
1.089665845
1.089194293
1.088095529
1.086197202
1.083413301
1.079732322
1.075173062
1.069799667
1.063806406
1.057552121
1.050940298
1.050940298
1.044379958
1.037857489
1.03146348
1.02518469
1.019286048
1.014012099
1.009491455
1.005690214
1.002620077
1.000301883
0.9985759718
0.9973116069
0.9964332459
0.9964332459
0.9959892504
0.9958070752
0.995836662
0.9960738823
0.9963331088
0.9964039937
0.9964227149
0.9966429732
0.9970158715
0.9975439139