/*--------------------------------*- C++ -*----------------------------------*\
  =========                 |
  \\      /  F ield         | OpenFOAM: The Open Source CFD Toolbox
   \\    /   O peration     | Website:  https://openfoam.org
    \\  /    A nd           | Version:  7
     \\/     M anipulation  |
\*---------------------------------------------------------------------------*/
FoamFile
{
    version     2.0;
    format      ascii;
    class       volScalarField;
    location    "0.7";
    object      T;
}
// * * * * * * * * * * * * * * * * * * * * * * * * * * * * * * * * * * * * * //

dimensions      [0 0 0 1 0 0 0];

internalField   nonuniform List<scalar> 
2222
(
1.344169053
1.354616777
1.361289516
1.378330849
1.40455462
1.42297522
1.431328238
1.434029516
1.435547309
1.436080397
1.437392141
1.440500422
1.4412443
1.441829869
1.44242304
1.441541715
1.440078676
1.438092191
0.9995494386
1.091466021
1.173524514
1.210258797
1.222069011
1.236792866
1.252922468
1.275751772
1.306834953
1.341156642
1.366064262
1.380360671
1.388245543
1.393064541
1.398300308
1.407425817
1.417159331
1.42279671
1.425191753
1.42690166
1.426917801
1.426429418
1.426219747
0.8715988406
0.9393254925
1.050553196
1.106103272
1.126305435
1.142710306
1.160771788
1.185822977
1.217588901
1.253418631
1.28437751
1.305028223
1.320085361
1.334090374
1.349735172
1.368180866
1.385599594
1.39785165
1.403302524
1.404636684
1.405378052
1.406959634
1.408747434
0.8183620927
0.8799464562
0.9806164758
1.041849848
1.064951537
1.073914046
1.087683273
1.108655811
1.136688784
1.170909688
1.20307199
1.224841974
1.240335042
1.255854249
1.274632322
1.298086966
1.323450358
1.3452271
1.359471881
1.367339568
1.371939089
1.377842389
1.385707084
0.8038092129
0.8483553239
0.9444465135
1.004940405
1.035459411
1.042638907
1.051704505
1.063325772
1.081189676
1.104708719
1.130869983
1.152923104
1.169252668
1.183480341
1.200628469
1.223775599
1.25078763
1.275258073
1.293074881
1.305067988
1.313508553
1.323485787
1.33709448
0.7910583298
0.8236299925
0.9128367672
0.9822682646
1.01693923
1.03173195
1.043314419
1.052209274
1.06267957
1.075346496
1.092517049
1.106785623
1.118737147
1.13011119
1.144256023
1.16409192
1.188373705
1.211148684
1.227284212
1.23834597
1.246924109
1.257805247
1.274073191
1.297091453
0.7641050087
0.7875761217
0.8614119534
0.9759447249
1.014936659
1.033203971
1.042772104
1.047562886
1.051927227
1.058680292
1.067228054
1.075091351
1.082541581
1.090021581
1.099630992
1.113289838
1.13130734
1.149629168
1.163942273
1.174717056
1.183640022
1.194747236
1.211334581
1.235890335
0.7337282031
0.7551594766
0.803747832
0.9417768015
1.025210567
1.042465521
1.046237699
1.045635281
1.046293509
1.052024757
1.057248203
1.063002729
1.068225408
1.072271698
1.077543207
1.085116682
1.09515329
1.105794857
1.115183015
1.124140888
1.133567024
1.144400713
1.159082658
1.180483355
0.7144634773
0.7199153173
0.7513315287
0.859100224
1.012289651
1.04556447
1.044341668
1.041835456
1.046022332
1.050764688
1.056989172
1.063189776
1.06825298
1.070946327
1.074105951
1.078574628
1.083528503
1.088308965
1.093412186
1.098322787
1.102337355
1.107444616
1.116496356
1.132189771
0.7025039055
0.7024015925
0.7063667742
0.7780272927
0.9459579798
1.033857509
1.041122056
1.045753612
1.050352938
1.056203326
1.060694134
1.066702198
1.070635088
1.071622516
1.072979726
1.074636115
1.076105904
1.077961022
1.079573515
1.080813489
1.081465897
1.0842697
1.089920711
1.099497565
0.7021422405
0.7013683586
0.7008719639
0.7135667149
0.8654580463
1.006656479
1.047527874
1.054640686
1.060667442
1.064852253
1.067090952
1.07081184
1.072666603
1.072633882
1.073090464
1.073068596
1.072506145
1.072016062
1.071592603
1.071158174
1.072166132
1.075978402
1.08119493
1.086658301
0.7021892611
0.7019700045
0.7011465007
0.7004408025
0.7718353323
0.9735828748
1.05817994
1.068095557
1.070808192
1.069498829
1.06947422
1.071393536
1.072227999
1.072420329
1.072482396
1.07182907
1.070642924
1.069264342
1.067944035
1.067870749
1.070687477
1.074534576
1.077389428
1.080098814
1.08486219
0.70207854
0.7021607825
0.7013251862
0.700000667
0.7087873079
0.8921238758
1.045601336
1.073439765
1.074181315
1.069079511
1.072371177
1.075167683
1.075116504
1.07418107
1.072878404
1.071411817
1.070841907
1.069572774
1.067995931
1.068851699
1.071832695
1.073234231
1.074314149
1.075094998
1.077170742
0.7020437806
0.7022189887
0.7014157881
0.6998272401
0.6986855841
0.7730289156
0.9924560098
1.069348943
1.068274468
1.071065408
1.074705025
1.075223821
1.076637759
1.07617341
1.074998395
1.074345918
1.073634843
1.072322184
1.071863859
1.072103519
1.072521449
1.073172031
1.072934641
1.072447193
1.073006578
0.7020479402
0.7022806165
0.7013822959
0.6999467301
0.6982836361
0.7111710515
0.8985193876
1.03717852
1.065932907
1.073621908
1.077142733
1.079548461
1.079673121
1.080762927
1.080580645
1.079923521
1.07879422
1.077439368
1.075645634
1.074984488
1.074076546
1.073324471
1.072287841
1.071471118
1.071665964
0.7021526673
0.7023240233
0.7014242463
0.6999985171
0.6982608923
0.6977170156
0.8018528471
0.9990667081
1.063174876
1.080497523
1.083435449
1.084205643
1.085084697
1.086329869
1.086122598
1.085061037
1.083741323
1.081809363
1.079194812
1.077534977
1.075438099
1.07396024
1.073564431
1.072460403
1.072392643
0.7026667037
0.7023377114
0.7014666041
0.6999727054
0.6982715342
0.6966372231
0.7211037353
0.9401618658
1.059658072
1.081599102
1.086294247
1.08720572
1.088011395
1.088771719
1.088573286
1.08761383
1.085865473
1.08369107
1.080597105
1.07838716
1.076740732
1.076541954
1.076409027
1.075933649
1.075708236
0.7031146713
0.7023175213
0.7014298764
0.6998842459
0.6982926035
0.6964539146
0.6971905743
0.8312201581
1.033553997
1.077968803
1.084027671
1.08433809
1.085793919
1.086841792
1.08724385
1.086546984
1.085072075
1.083231642
1.081143548
1.080035917
1.079452473
1.079628346
1.079481988
1.078783319
1.077773317
0.7032470851
0.7021954126
0.701174957
0.6998017122
0.6983167416
0.6964285018
0.6948756644
0.7355730482
0.9562297987
1.057836931
1.074192971
1.079643823
1.082118622
1.083255825
1.083221074
1.082658695
1.083040126
1.083458514
1.08306621
1.082331053
1.081947771
1.082039548
1.081293409
1.080622237
1.079404975
1.078217098
0.7032574614
0.7018878971
0.7009416333
0.6997487305
0.6982861378
0.6964976513
0.6948790158
0.6986384521
0.8641289754
1.023435277
1.069119208
1.077208804
1.078612576
1.078640471
1.078908347
1.08054153
1.082927167
1.084103161
1.084275016
1.084271206
1.084056554
1.083440961
1.082104577
1.081427082
1.080093668
1.078564945
0.7028233418
0.7016974516
0.7008659447
0.6997150517
0.698247568
0.6964664172
0.6948739802
0.6944285422
0.7624633955
0.9881958062
1.069472038
1.082059054
1.081327588
1.079576834
1.078709087
1.079970964
1.082995193
1.085281338
1.085990244
1.086178051
1.085179196
1.084346514
1.082988829
1.082050367
1.080911882
1.079582884
0.7018552984
0.7016862167
0.7008413212
0.6997020578
0.6982719344
0.6965172953
0.6949583588
0.6939778729
0.7008766575
0.8972697118
1.053489464
1.084314021
1.084122496
1.082053213
1.08148454
1.082499175
1.084688723
1.087035737
1.08718175
1.086645846
1.085219988
1.084598247
1.083571814
1.082815619
1.08198882
1.081224441
0.7013658538
0.7016910962
0.7008515843
0.6999037046
0.6985535393
0.6967191007
0.6950148943
0.694205862
0.6933457425
0.7725176387
1.006367317
1.079190106
1.08482719
1.083787731
1.082780217
1.083296079
1.084864114
1.086707376
1.08656715
1.086109379
1.0847033
1.084366594
1.083932303
1.083392659
1.082881911
1.082563996
0.7012731238
0.7017194331
0.7011339409
0.7004319163
0.6988162276
0.6968529058
0.6950254237
0.6942286969
0.6932489237
0.7047672256
0.9053498303
1.050589664
1.080903171
1.081292228
1.080904353
1.081682437
1.083301688
1.084920741
1.084904532
1.084641408
1.084170144
1.084482509
1.084731482
1.084560417
1.084323507
1.084073847
0.701298141
0.7021497063
0.7017122024
0.7006830186
0.6988731469
0.69691055
0.6950095047
0.6937040382
0.6934131675
0.6932055669
0.7995249236
0.9982670861
1.063060575
1.071968808
1.074215131
1.076461437
1.079061133
1.081643936
1.082694232
1.083726834
1.084147993
1.085063956
1.085567887
1.085531784
1.085140446
1.084554823
1.083858682
0.7020310253
0.7025194993
0.7020165918
0.7007256888
0.6988838716
0.696932489
0.6949857503
0.6935896712
0.6940907338
0.6930259021
0.7133679816
0.9370050039
1.043590418
1.066504193
1.069933082
1.072038532
1.07478415
1.078962464
1.081734059
1.083766973
1.084594914
1.085395969
1.085551566
1.085375518
1.084934835
1.08455054
1.083749976
0.7029843061
0.7025824834
0.7020900959
0.7007315079
0.6988856753
0.6969390458
0.6949778577
0.6935509273
0.6939216152
0.692880008
0.6933513245
0.8257826908
1.029141419
1.066785028
1.069257614
1.071037807
1.073675025
1.07784637
1.081646338
1.084462299
1.084301152
1.08458242
1.084507309
1.084306551
1.084051265
1.083876175
1.083373919
0.7033087315
0.7025913098
0.7020900842
0.7007314284
0.6988740358
0.6968924306
0.6949136447
0.6935571519
0.6934471187
0.6934666328
0.6919854677
0.7265772669
0.9674553638
1.065248974
1.075961995
1.074908777
1.075855263
1.078848466
1.081866754
1.083937327
1.083257048
1.083330651
1.083170912
1.083152247
1.083237285
1.083210888
1.082871145
0.7033684152
0.7025912785
0.7020762474
0.7006451004
0.6986485243
0.6966944226
0.694706663
0.6935261206
0.6934350337
0.6934752586
0.6919735218
0.6940503901
0.8476017163
1.046754567
1.077566391
1.078182128
1.078468495
1.079543919
1.08120113
1.082831394
1.082057749
1.081686029
1.08192717
1.082399713
1.082949764
1.083056817
1.083031777
0.7033513025
0.7025326808
0.7018702397
0.7001737997
0.6983520241
0.6965613418
0.6946262116
0.6936442977
0.6935705672
0.6928907047
0.6920380403
0.6908494199
0.7538640789
0.9777968335
1.074102433
1.078083629
1.078174508
1.079120455
1.080177475
1.08102746
1.080704443
1.080654598
1.08131328
1.081933795
1.082595689
1.082817106
1.082898707
0.7026555335
0.7021055689
0.701213985
0.6998068264
0.6982564236
0.6965240219
0.694640718
0.6937942803
0.6935702272
0.6927262406
0.6922167248
0.6907821083
0.6997355208
0.8939655027
1.041498914
1.074349097
1.07566011
1.076028812
1.07754456
1.079536811
1.079846546
1.080585527
1.081444276
1.081858788
1.082248397
1.082137285
1.082214252
0.701604547
0.7016720154
0.7008734473
0.6997206429
0.6982390298
0.6965786099
0.6948879388
0.6938270072
0.6934447637
0.6926656265
0.6920964562
0.6906370228
0.6906420494
0.799566235
0.9996738616
1.058456368
1.067652144
1.07151289
1.075135495
1.078672449
1.07992335
1.080875163
1.081528198
1.081743471
1.082018446
1.081796408
1.081502873
1.080910631
0.7012184476
0.7015500211
0.7008293259
0.6997277695
0.6984207039
0.696956694
0.6951975802
0.6937955994
0.6931986263
0.6927036
0.6917775334
0.6907624291
0.6896555389
0.7168272732
0.949363518
1.045231595
1.064897629
1.070365213
1.074632873
1.079343948
1.080270534
1.081072458
1.081501882
1.081461778
1.08157216
1.081252445
1.080911657
1.080253366
0.7011365078
0.7015365284
0.7008967322
0.7001440254
0.6990311541
0.6972414611
0.6952943745
0.6936392732
0.6929374036
0.6926933913
0.6916983168
0.6907265139
0.6894275588
0.6923356521
0.8486278854
1.039799023
1.067866274
1.073373851
1.076284939
1.079817067
1.079874798
1.07987706
1.079976969
1.079884601
1.080033769
1.080399392
1.080525226
1.080032269
0.7013260091
0.7017732096
0.7015121126
0.700892433
0.6993939555
0.6972906072
0.6953090672
0.6935056266
0.6928690966
0.6926746539
0.6916682995
0.6906444847
0.6893989024
0.6888919962
0.7494136133
0.9990137471
1.069832312
1.076263127
1.07689455
1.0777872
1.077883758
1.077729443
1.077902023
1.078062678
1.07851911
1.079493092
1.080421195
1.080041895
0.7023735731
0.7023302747
0.7021173902
0.7011929943
0.6994574174
0.6972956105
0.6952731483
0.6934117128
0.6928337662
0.6927745187
0.6916369673
0.6905444409
0.689609262
0.6888501012
0.700062931
0.9000673528
1.061759275
1.076119883
1.076834506
1.074836462
1.076467404
1.076635617
1.077042998
1.077627966
1.078185238
1.078946972
1.080068859
1.080034429
0.7030415869
0.7025498014
0.7022640249
0.7012361178
0.6994533047
0.6972752846
0.6951676814
0.6932965745
0.6928072175
0.6928101144
0.6916055372
0.6904154077
0.6895151185
0.6887267428
0.6894087649
0.8005903454
1.011303227
1.071673065
1.070711964
1.074013059
1.076375662
1.07705286
1.077647592
1.078345035
1.078798016
1.079252779
1.079924139
1.0801215
0.7031958868
0.7025793566
0.702267662
0.7012317571
0.6993952778
0.6970771092
0.69503724
0.6932110224
0.6928469396
0.692790084
0.6915917937
0.6903771329
0.6893132254
0.6891155686
0.6890554385
0.719544206
0.9474179903
1.048516422
1.065634615
1.076522703
1.077911411
1.078613618
1.079091552
1.079482973
1.079528519
1.07972016
1.080076277
1.080032925
1.079675352
0.7032200206
0.7025742328
0.7022414833
0.7010415099
0.6989714659
0.6968333671
0.6949354654
0.6931964786
0.6929582336
0.6926852967
0.6914605929
0.6902820097
0.6892530702
0.6891306958
0.6888280846
0.6922937313
0.8613083057
1.026643361
1.065090885
1.078349562
1.078964171
1.079407856
1.079817442
1.079900902
1.079348486
1.079512688
1.080100482
1.080073258
1.079694224
0.7027996558
0.7023378725
0.7017933331
0.7003182701
0.6985265504
0.6967485702
0.6948983481
0.6933408725
0.6929696385
0.6925268856
0.6913643379
0.6900781401
0.6891941137
0.6888616451
0.689114833
0.6894963048
0.7536991888
1.000635558
1.06827999
1.078391987
1.079235021
1.078419473
1.078008491
1.078430095
1.078081608
1.078515677
1.079830782
1.080010412
1.079744742
0.701647442
0.7017349376
0.7010333823
0.6998668039
0.6983915506
0.6967298255
0.69500059
0.6936186129
0.6929287786
0.6924201115
0.6912930715
0.6899497398
0.6890561699
0.6886905527
0.6891497097
0.6890642929
0.6981903343
0.9071821832
1.058728136
1.073472377
1.074200657
1.075791688
1.076012758
1.076317484
1.076565771
1.07740821
1.079407127
1.080100315
1.079851143
0.701047425
0.7014482326
0.7007882811
0.6997701457
0.6983737413
0.6968717587
0.6954082825
0.6936703593
0.6927345317
0.6923443246
0.6912243215
0.6898934156
0.6889607142
0.6885600136
0.6889613173
0.6889851081
0.6898012988
0.7888390951
1.012078612
1.059677837
1.071978734
1.075149935
1.075786156
1.075824775
1.076392477
1.077028394
1.078538823
1.080010173
1.08021004
0.700918332
0.7014058244
0.7007628323
0.6997807623
0.6986080254
0.6973893378
0.6955844287
0.6936478009
0.692387783
0.6922872787
0.6912159927
0.6899074974
0.6889313759
0.6885376871
0.6886492873
0.6893286279
0.6895678864
0.7158856238
0.9452716058
1.048959282
1.072412403
1.078611723
1.078887515
1.077742479
1.077527469
1.077415345
1.078337819
1.079876348
1.080599731
0.7010091705
0.701499253
0.7009214582
0.7002826313
0.6993155155
0.6977169717
0.6955957623
0.693581133
0.6921728361
0.6922560032
0.6912726599
0.6899171405
0.6889874796
0.6885431733
0.6885544835
0.68923415
0.6895166162
0.6925937849
0.8557857872
1.043894194
1.076805144
1.082922019
1.082267066
1.080807299
1.079836928
1.078337598
1.078218916
1.079787978
1.080776183
0.7019496376
0.7019870796
0.701631506
0.7009687607
0.6997048517
0.6977797224
0.6955960047
0.6935130298
0.6920738239
0.6922455019
0.6913110843
0.6899151594
0.6890104935
0.6885757807
0.6885610782
0.6890186623
0.6897020232
0.6901867491
0.7479637411
0.9976713784
1.072181642
1.083765191
1.083092216
1.081291654
1.079863816
1.07885451
1.079132238
1.079888986
1.081044123
1.079934029
0.7027674168
0.7022930199
0.7020479566
0.7011686872
0.6997687588
0.6977806151
0.6955770283
0.6934542499
0.6920085133
0.6922017306
0.6913048568
0.6899154137
0.6890159368
0.6886165699
0.6886278054
0.6889661726
0.6897520213
0.6900013383
0.6974587237
0.8892395658
1.049035333
1.08160892
1.080991697
1.079912437
1.078803818
1.078440077
1.079258952
1.080868351
1.081999577
1.080871167
0.7029972451
0.7023558862
0.7020982172
0.701188423
0.6997649509
0.6977698766
0.6955404787
0.693402504
0.6919369295
0.6921161035
0.6912584656
0.6898860741
0.689015765
0.6886395114
0.688719244
0.6890078161
0.6897639855
0.6900164489
0.6911038571
0.7952065166
1.000158707
1.067656595
1.075455045
1.075924754
1.07513423
1.076487514
1.079291429
1.081541309
1.082838906
1.08183759
0.7030462293
0.7023596932
0.7020895424
0.7011789022
0.6997458051
0.6977480251
0.6955237506
0.6933722878
0.6918966433
0.6920135991
0.6911738793
0.6898379004
0.6889782779
0.6886545857
0.6887576076
0.6890978319
0.689833335
0.6902344937
0.690646507
0.7185987135
0.9493007843
1.053282021
1.07394869
1.074634096
1.073981217
1.074962962
1.077821614
1.080991586
1.083007811
1.082568803
0.702768427
0.702197993
0.7019434698
0.7009768673
0.6995575118
0.6976425276
0.6955339072
0.6933923589
0.6919832447
0.6918334723
0.6911022576
0.6898012024
0.6889096798
0.6886224837
0.6887761989
0.6891314809
0.6899251981
0.6903036142
0.690515532
0.6935580294
0.8593714956
1.046473384
1.07790263
1.076781559
1.074872813
1.075442945
1.077623789
1.080909751
1.083207436
1.083177322
0.7016030368
0.7016822749
0.7012604324
0.7002685025
0.6989333488
0.6973058807
0.695566237
0.693539611
0.6920564756
0.6915589532
0.6910316478
0.6897616893
0.6888574065
0.6885257207
0.6887563784
0.6891532685
0.6899515036
0.6903880119
0.6905902789
0.6910367653
0.7542211481
1.006705456
1.077922169
1.081504589
1.079475688
1.077870512
1.078484648
1.081372167
1.083744083
1.083566498
0.700862276
0.7013886424
0.7007984737
0.6998218656
0.6985098503
0.6970306196
0.6955560491
0.6936728433
0.6920219147
0.6912940048
0.690996116
0.6897449177
0.68881638
0.6884592317
0.6886761297
0.6891591537
0.689972703
0.6904750236
0.6906568992
0.6909773769
0.7019856558
0.9091673596
1.066189849
1.082095313
1.082026688
1.081438816
1.08111878
1.082429338
1.084632547
1.083924208
0.7006875306
0.7013335286
0.700722465
0.6997264052
0.6984035963
0.6969461607
0.6954741461
0.6937323894
0.6919451487
0.6910969586
0.6910036312
0.6897794674
0.6888098618
0.6884361819
0.688522513
0.6891031852
0.6899641289
0.6905119706
0.6907404655
0.6910303548
0.6918643703
0.8104502611
1.017792937
1.079343019
1.082757494
1.082486363
1.082853434
1.084169691
1.085859991
1.084805899
1.082782514
0.7007101712
0.7014826966
0.7008007885
0.6997675307
0.6983951367
0.6969334895
0.6954332683
0.6937544859
0.6918624145
0.6909458323
0.6910526543
0.6898952259
0.6888859608
0.6884510233
0.6884664267
0.6889190426
0.6899591929
0.6905362085
0.6907836374
0.6910701819
0.6914621271
0.7313852959
0.9613262733
1.057928034
1.07872261
1.081532154
1.083794326
1.085040135
1.086179908
1.085180452
1.082963412
0.7016173065
0.7020060085
0.7013311129
0.7002185585
0.6986639226
0.6969750714
0.6954324079
0.6937556955
0.6917871011
0.6908391364
0.691058147
0.6899181397
0.688942898
0.6885173857
0.6884799882
0.6888063727
0.6898370103
0.6905563856
0.6908030836
0.6910880217
0.69133954
0.6962186668
0.888672063
1.034717257
1.069875908
1.077132518
1.081668065
1.083752832
1.085027099
1.084963845
1.083443048
0.7026096017
0.7022440554
0.701689957
0.7005910213
0.6991132176
0.6972934045
0.6954481708
0.6936845213
0.6917313998
0.6907586328
0.691015683
0.6898886996
0.6889400638
0.6885525412
0.6885376612
0.6887917245
0.6896851031
0.6905388534
0.6908096241
0.6910696567
0.6913346448
0.6919265457
0.7849091082
1.01695853
1.066121818
1.076164077
1.078442161
1.080504108
1.082971911
1.084255493
1.084077546
0.7029385368
0.7022875228
0.7017270861
0.7006573759
0.6992681217
0.6976660774
0.6957075654
0.6936525457
0.6917048313
0.6906969303
0.6909333781
0.6898193989
0.6889200042
0.688581399
0.6886416651
0.6888259671
0.6896646019
0.6905295415
0.6908344867
0.6910414866
0.6913303488
0.6914243825
0.7128247354
0.9514960498
1.06889007
1.0788219
1.078134622
1.079990603
1.082655439
1.083948534
1.08447364
0.7030219977
0.7022914062
0.7017179598
0.7006500243
0.6992751658
0.697841394
0.6961466562
0.6940084889
0.6916827454
0.6906593941
0.6908374808
0.6897313161
0.6888807234
0.6885928656
0.6887262413
0.6889097768
0.6897123509
0.6905432027
0.6908747004
0.6910402837
0.6912896774
0.6913837545
0.6933582807
0.8391702359
1.051856048
1.08430154
1.082106775
1.081345389
1.083626857
1.084202588
1.084512729
0.702936172
0.7020414949
0.7015607211
0.7005305541
0.6992469493
0.6978655974
0.696374399
0.6944475875
0.6917326149
0.6905664001
0.6906489672
0.6895380655
0.6886492415
0.6884463209
0.6887648982
0.6889780095
0.6897967056
0.6906128266
0.6909356483
0.6910563986
0.6912705888
0.6913637347
0.691488091
0.7562643657
0.9962364794
1.082775757
1.08618713
1.085124622
1.085978288
1.085621209
1.084411057
0.701909379
0.7014043715
0.7008996883
0.6999891064
0.6990260852
0.6978530041
0.6963998115
0.6945783017
0.6919359706
0.6904324265
0.6903388539
0.6893269147
0.6884903257
0.6882585739
0.6887323165
0.6890516931
0.6898067883
0.6906521679
0.6909968555
0.6911032964
0.6912782141
0.6913907325
0.6914579616
0.7029199943
0.9146391458
1.065542795
1.086684551
1.086298121
1.086084363
1.08581825
1.084265984
0.7007807706
0.7011122342
0.7004906859
0.6995798412
0.698626777
0.6977990979
0.6963969607
0.6945870499
0.6920418265
0.6903863242
0.6901371476
0.6891719112
0.6884301732
0.6882028617
0.6885787092
0.6890844103
0.6898025471
0.6906717417
0.6910394401
0.6911394507
0.6913156952
0.69142326
0.6914272641
0.6925103546
0.8288531847
1.023311778
1.083916923
1.085778877
1.085153544
1.085640107
1.084639023
1.083875362
0.7004163346
0.7010531208
0.7004189058
0.6994788923
0.698433563
0.6974780092
0.6962950513
0.6945826065
0.6920860334
0.6903497863
0.6900163
0.689038133
0.6884221111
0.6881830751
0.6884531076
0.6890642527
0.689752423
0.6906698156
0.6910656896
0.6911600457
0.6913288984
0.6914209593
0.6914621755
0.6915970831
0.7398118834
0.9833347609
1.066314457
1.080232384
1.080603394
1.083287975
1.085619151
1.085323773
0.7003470317
0.7012601094
0.7005782066
0.6995738098
0.6983837977
0.6970660814
0.6957575619
0.6943366706
0.6921328516
0.690297934
0.6899228052
0.6889679591
0.6884304342
0.6881832444
0.6884215353
0.6889961587
0.6896479551
0.6906452084
0.6910752784
0.6911701583
0.6913318006
0.6914092459
0.6914615507
0.691314069
0.6989688175
0.9116430625
1.049931621
1.073662035
1.078292743
1.080931014
1.085973481
1.085888014
0.7008612139
0.7019307297
0.7012297539
0.7000937718
0.6984903719
0.6968840906
0.6953098614
0.6937589758
0.6921765495
0.6902750049
0.6898582741
0.6888994704
0.6884103479
0.6882063959
0.6884207869
0.6889880814
0.6895721265
0.690591224
0.6910751733
0.6911681055
0.6913321346
0.6913981887
0.6914448561
0.6912895436
0.6920143712
0.8075844693
1.041229729
1.072094564
1.079212512
1.08070075
1.085931605
1.085900035
0.7019594729
0.7021696348
0.701557553
0.7003767488
0.6986866175
0.6968247991
0.6951912177
0.693539113
0.6922115993
0.6903501514
0.6898153304
0.6888200051
0.6883821657
0.6882212213
0.6884584296
0.6890144649
0.6895604076
0.6904356435
0.6910395964
0.6911250837
0.6913031557
0.6913851836
0.6913770956
0.691317663
0.6912827384
0.7295080862
0.9900122537
1.076004383
1.084522925
1.083871923
1.083794754
1.083809685
0.7024864028
0.7021822929
0.7015941494
0.7004075698
0.6987212047
0.6968738953
0.6951786958
0.6935158521
0.6922329609
0.69041546
0.6897628919
0.6887415979
0.6883559215
0.688242904
0.6885381377
0.689083594
0.6895737553
0.6903531734
0.6909558452
0.6911014644
0.6912184817
0.6913177654
0.6913353382
0.6913313919
0.6912803633
0.6958345988
0.8819828133
1.066036214
1.085351596
1.085213351
1.082012743
1.082217678
0.7026363361
0.7021891471
0.701585206
0.7003977771
0.6987141167
0.6970583706
0.6954482581
0.6937822795
0.6922446765
0.6903939462
0.6896704377
0.6886189554
0.6882340831
0.6882135123
0.6886172666
0.689185157
0.6896221173
0.6903420885
0.690923011
0.6911043677
0.6911840438
0.6912569029
0.691296126
0.691323197
0.6912496992
0.6913526084
0.7913761081
1.021742476
1.083439483
1.084238672
1.081427062
1.081697299
0.7026609334
0.7019482516
0.7013448495
0.7001777235
0.6986659635
0.6971081244
0.6959215481
0.6945878646
0.6926933559
0.6903445151
0.6894048471
0.6883477216
0.6880141461
0.6880561474
0.6886368373
0.6892903071
0.6896969625
0.6903869228
0.6909250002
0.6911079038
0.6911747146
0.6912352741
0.691281533
0.6912901139
0.6912705276
0.6911935885
0.7196103048
0.9569082575
1.065539434
1.081117035
1.083213669
1.083980361
1.081175255
0.7021912191
0.7011054704
0.700501959
0.6994655465
0.6982694572
0.6970955367
0.6961090117
0.6949517698
0.6929072703
0.690217765
0.6891629181
0.6881415958
0.687917858
0.6879877548
0.6885968128
0.6893265907
0.6897523478
0.6903866843
0.6909510445
0.691149508
0.6912000965
0.691241274
0.6912816587
0.6912718318
0.6911968042
0.6910215787
0.6938408608
0.8803014236
1.040258199
1.071465907
1.083384994
1.084849742
1.083377625
0.7009421793
0.7006832504
0.7000317706
0.6990236851
0.6978420555
0.6970228349
0.696120012
0.6949874997
0.692895468
0.6900771407
0.6890424885
0.6880358843
0.6879044818
0.6879796941
0.6885353276
0.6893300515
0.6897499756
0.6904012364
0.6909638121
0.6911721745
0.6912345618
0.6912779612
0.6912651228
0.6912501351
0.6911129012
0.6909914145
0.6914063931
0.7808544254
1.02095827
1.064920229
1.082613036
1.084960399
1.084384316
0.7002285777
0.7006025373
0.6999398439
0.6989171272
0.6977099693
0.6968310044
0.6961017791
0.6949786378
0.6928555931
0.6899782694
0.6889584748
0.6879692089
0.687909919
0.6879666225
0.6884128656
0.6893018753
0.6897211436
0.6903689516
0.6909543014
0.6911740397
0.691240567
0.6912839489
0.6912731419
0.6912082453
0.6910589783
0.6909981089
0.6908994987
0.7092815502
0.9630460304
1.066477701
1.077192322
1.081717637
1.084962777
0.7000494053
0.700737422
0.7001254377
0.6990656152
0.6977251825
0.6967644789
0.6960485301
0.6949549415
0.6927990066
0.6898874699
0.6888868457
0.6879161871
0.6879073804
0.6879307455
0.6883225815
0.689215048
0.6897112516
0.6902837292
0.6908988682
0.6911690647
0.6912395407
0.6912812514
0.6912659249
0.691152044
0.6910280151
0.6909898352
0.6908618813
0.6924367494
0.8516818405
1.058061714
1.070188778
1.077890506
1.082697358
0.7000824149
0.7014993778
0.7008993369
0.6997934165
0.6982184029
0.6967759343
0.6957217867
0.6946781302
0.6927309402
0.6897986662
0.6888284975
0.6878601503
0.6878799882
0.6878925402
0.6883065176
0.6891470642
0.6897128091
0.6902083856
0.6907635717
0.6911303441
0.6912294428
0.6912684552
0.6912481572
0.6911201762
0.6910231221
0.6909612224
0.6908660841
0.6907560913
0.7605007522
1.023996283
1.069043364
1.077904852
1.080140075
0.7008659818
0.7019239006
0.7012843039
0.7002069057
0.6986194843
0.6968572249
0.6953272881
0.6939796185
0.6925944644
0.6898215423
0.6887671761
0.6878013475
0.6877832735
0.6878712482
0.6883492153
0.6891252508
0.6897154855
0.6901786728
0.6906714056
0.691011364
0.6911511469
0.6912087734
0.69120481
0.6911023093
0.6910113817
0.6909294443
0.6908903937
0.6907665225
0.7029784054
0.9408158797
1.07170609
1.083062075
1.079948852
0.7016870867
0.701942646
0.7013246637
0.7002608142
0.6986785764
0.6968515859
0.6951864002
0.6935865922
0.6923926729
0.6901868444
0.6886771771
0.687716525
0.6876627738
0.6878587867
0.68841952
0.6891766805
0.6897632144
0.6901674838
0.6906453135
0.6909425581
0.691041991
0.6910833122
0.6911174087
0.6910851224
0.690991288
0.6909174933
0.6908739941
0.6907258064
0.6917561727
0.8512595534
1.054985686
1.085396034
1.082900263
0.7019860641
0.7019368828
0.7013222846
0.7002617085
0.6986729579
0.6968295279
0.6951268525
0.6934961867
0.6923272601
0.6903270921
0.6884708641
0.6875661245
0.6876022608
0.6878616196
0.6884795918
0.6892500465
0.6898219861
0.6902013415
0.6906357093
0.6909225045
0.6910015024
0.6910217846
0.6910468894
0.6910446575
0.6909642758
0.6908929812
0.6908110076
0.6907615051
0.6908268705
0.7521520818
0.9958140657
1.08092156
1.083613344
1.080645416
0.7020480439
0.7017627099
0.701019901
0.700058913
0.6985855659
0.6967943733
0.6951088836
0.6935270798
0.6923349571
0.6902637023
0.6883012259
0.6874051113
0.6875674381
0.6878181278
0.6884760798
0.6893021154
0.6898891321
0.6902321977
0.6906616197
0.6909238079
0.6909880149
0.6909986594
0.6910087354
0.6910061871
0.6909303678
0.6908521231
0.6907823384
0.6907467125
0.6905818427
0.6976214325
0.9159952483
1.05958535
1.083179213
1.083061347
0.7019544462
0.7008473812
0.7000713427
0.6991846674
0.6979410202
0.6966187064
0.6951145189
0.6939458966
0.6927075009
0.6901226773
0.6881717857
0.6872830482
0.6874681873
0.687721276
0.6882754895
0.6892835095
0.6899382459
0.6902607524
0.690671872
0.690950088
0.6910131936
0.6909999582
0.690995833
0.6909622258
0.6909076811
0.6907430284
0.6907156334
0.6907078291
0.6905619004
0.6913842109
0.8305047162
1.024343488
1.079431498
1.084805811
0.7012193982
0.7002584423
0.6995557265
0.6985994813
0.697285033
0.6960783886
0.6951052976
0.6943767682
0.6930725046
0.6899275065
0.6880621768
0.6871824422
0.6872943701
0.6875699994
0.6881153388
0.6891586865
0.689941739
0.690271947
0.6906688435
0.6909458201
0.6910235964
0.6910141379
0.6910026007
0.6909496091
0.6908536238
0.6906473909
0.6906324834
0.690617438
0.6905740601
)
;

boundaryField
{
    inlet
    {
        type            fixedValue;
        value           nonuniform 0();
    }
    outlet
    {
        type            inletOutlet;
        inletValue      nonuniform 0();
        value           nonuniform 0();
    }
    bottom
    {
        type            slip;
    }
    top
    {
        type            slip;
    }
    obstacle
    {
        type            zeroGradient;
    }
    defaultFaces
    {
        type            empty;
    }
    procBoundary21to15
    {
        type            processor;
        value           nonuniform List<scalar> 
23
(
1.423124326
1.434699116
1.4370886
1.443044061
1.449963139
1.451502376
1.449881663
1.45015335
1.453246972
1.454346333
1.454008618
1.45326046
1.451105228
1.449261504
1.448089151
1.446447973
1.444372505
1.178061462
1.287339267
1.330352568
1.334764248
1.33670126
1.33670126
)
;
    }
    procBoundary21to22
    {
        type            processor;
        value           nonuniform List<scalar> 
70
(
1.441481991
1.434835973
1.426079486
1.412429063
1.395309628
1.354878616
1.354878616
1.323692031
1.266258752
1.208284984
1.155010268
1.114574413
1.094501688
1.094501688
1.090676739
1.080097998
1.074007264
1.072039806
1.072938479
1.075745843
1.077014761
1.077014761
1.076730232
1.076693821
1.07804328
1.079992152
1.082047573
1.083665435
1.083665435
1.082853682
1.082364533
1.082022297
1.081868474
1.082263642
1.082343717
1.081696687
1.081696687
1.079944562
1.079302642
1.079212772
1.079381393
1.079599704
1.079725594
1.079725594
1.078436585
1.078602006