/*--------------------------------*- C++ -*----------------------------------*\
  =========                 |
  \\      /  F ield         | OpenFOAM: The Open Source CFD Toolbox
   \\    /   O peration     | Website:  https://openfoam.org
    \\  /    A nd           | Version:  7
     \\/     M anipulation  |
\*---------------------------------------------------------------------------*/
FoamFile
{
    version     2.0;
    format      ascii;
    class       volVectorField;
    location    "3.5";
    object      U;
}
// * * * * * * * * * * * * * * * * * * * * * * * * * * * * * * * * * * * * * //

dimensions      [0 1 -1 0 0 0 0];

internalField   nonuniform List<vector> 
555
(
(2.855652959 -0.2461963114 0)
(2.855245779 -0.2580296217 0)
(2.854496768 -0.2614648033 0)
(2.856817797 -0.2595815878 0)
(2.861902131 -0.2632743069 0)
(2.862603496 -0.2645066384 0)
(2.861343646 -0.2624889711 0)
(2.860543142 -0.2630332068 0)
(2.8610793 -0.2628554506 0)
(2.863764979 -0.2604845247 0)
(2.865176969 -0.2598670315 0)
(2.866635015 -0.2602019618 0)
(2.867974583 -0.2604828426 0)
(2.868875481 -0.2586397053 0)
(2.869978595 -0.2565259914 0)
(2.870794352 -0.255533127 0)
(2.872420076 -0.2556370983 0)
(2.874287064 -0.2551757792 0)
(2.855652993 0.2461964429 0)
(2.855245733 0.2580296272 0)
(2.854496746 0.261464704 0)
(2.856817835 0.2595815351 0)
(2.861902168 0.2632743788 0)
(2.862603457 0.2645066405 0)
(2.861343598 0.2624889715 0)
(2.860543113 0.2630332228 0)
(2.861079347 0.2628554157 0)
(2.863765003 0.2604845067 0)
(2.86517698 0.2598670528 0)
(2.866635022 0.2602020039 0)
(2.867974556 0.2604828608 0)
(2.868875469 0.2586396582 0)
(2.869978584 0.2565259465 0)
(2.870794352 0.2555331433 0)
(2.872420113 0.2556371246 0)
(2.874287064 0.2551757973 0)
(2.874574714 0.2549138281 0)
(2.87479583 0.2542718622 0)
(2.874791345 0.2524011574 0)
(2.875353902 0.2508487044 0)
(2.875969227 0.250348615 0)
(2.876164947 0.2503115414 0)
(2.875694825 0.2501388201 0)
(2.874773693 0.249253548 0)
(2.87451982 0.2480332766 0)
(2.874985458 0.2479017394 0)
(2.875410622 0.2487660679 0)
(2.875699081 0.24914693 0)
(2.875457012 0.2491596453 0)
(2.875995745 0.2493447359 0)
(2.87647145 0.2498779166 0)
(2.862569155 0.3077017231 0)
(2.859935656 0.3054836426 0)
(2.857742453 0.2924105078 0)
(2.858011229 0.2857396077 0)
(2.86156388 0.2820906674 0)
(2.867462144 0.2792593757 0)
(2.870884612 0.2755906322 0)
(2.872576711 0.2738223329 0)
(2.874329054 0.2711254425 0)
(2.877778955 0.266573759 0)
(2.879228004 0.2631811794 0)
(2.88004159 0.2613604623 0)
(2.881405284 0.2599043929 0)
(2.88204845 0.258905769 0)
(2.88252646 0.2551858271 0)
(2.882925734 0.2508949331 0)
(2.883080333 0.2495580102 0)
(2.883821892 0.2497673373 0)
(2.884547954 0.2489846716 0)
(2.884496629 0.2476390529 0)
(2.884064031 0.2458509267 0)
(2.883302106 0.2441557274 0)
(2.882945585 0.2435308091 0)
(2.88294679 0.2438964695 0)
(2.882836681 0.2445606982 0)
(2.882716457 0.2446141345 0)
(2.883095045 0.2447544619 0)
(2.883472324 0.2453009677 0)
(2.883632557 0.2465318554 0)
(2.88327278 0.2484755435 0)
(2.883704611 0.2502435057 0)
(2.88314749 0.2514486626 0)
(2.883123868 0.2520719049 0)
(2.937768152 0.2087848255 0)
(2.936749664 0.2201737119 0)
(2.930758542 0.2344153808 0)
(2.916229175 0.2514882415 0)
(2.909339038 0.2551659056 0)
(2.903066188 0.259389499 0)
(2.900458813 0.262322719 0)
(2.899298546 0.2661787246 0)
(2.897684174 0.2669143428 0)
(2.896944487 0.2667119229 0)
(2.895697635 0.2675684296 0)
(2.893983391 0.2686531112 0)
(2.893108257 0.270170865 0)
(2.893226288 0.2711846191 0)
(2.893122789 0.2698324966 0)
(2.892217239 0.265735773 0)
(2.892272111 0.262569304 0)
(2.892338278 0.2599821281 0)
(2.89308978 0.2588306604 0)
(2.893440249 0.2585967796 0)
(2.894276777 0.2559147892 0)
(2.89412326 0.2518078924 0)
(2.893444839 0.2506161409 0)
(2.893161666 0.2514914568 0)
(2.89341876 0.2520359195 0)
(2.894484303 0.2511893647 0)
(2.894908245 0.2506357775 0)
(2.895301011 0.2508784431 0)
(2.895330628 0.2514904162 0)
(2.894622212 0.2511176177 0)
(2.894388272 0.2509745839 0)
(2.893998579 0.2509368369 0)
(2.893249535 0.2510354839 0)
(2.955944799 0.1383637819 0)
(2.956008821 0.1544317529 0)
(2.94622256 0.1862681604 0)
(2.933963708 0.225099132 0)
(2.932876604 0.2252320119 0)
(2.925048904 0.2393276822 0)
(2.909380035 0.2694655461 0)
(2.904531883 0.2755712841 0)
(2.904712286 0.2743498906 0)
(2.900298008 0.2818406884 0)
(2.897547087 0.2843972095 0)
(2.894556444 0.2813914408 0)
(2.893835203 0.2779457081 0)
(2.893935442 0.2757987974 0)
(2.895088832 0.2750915903 0)
(2.894090314 0.2717671773 0)
(2.893828087 0.2682527891 0)
(2.894703665 0.265395827 0)
(2.895740226 0.2636833254 0)
(2.89677935 0.2630386439 0)
(2.898030158 0.2615290564 0)
(2.898607071 0.2593454095 0)
(2.899060791 0.2588016566 0)
(2.899571378 0.2594082926 0)
(2.900124625 0.2589008816 0)
(2.901212906 0.2563321003 0)
(2.902078972 0.2537606938 0)
(2.902288572 0.2535505561 0)
(2.90213906 0.253193694 0)
(2.90226166 0.2511443924 0)
(2.901436068 0.2490038125 0)
(2.900353578 0.2480261611 0)
(2.89974141 0.2484978128 0)
(2.989099869 0.02438075811 0)
(2.983348917 0.0398635206 0)
(2.97666839 0.05623815512 0)
(2.967638945 0.08087649924 0)
(2.960566474 0.103410555 0)
(2.949474209 0.1310041864 0)
(2.936819352 0.1675917687 0)
(2.935956804 0.172155049 0)
(2.929747432 0.1886606736 0)
(2.916339214 0.2275821437 0)
(2.913263302 0.2326998376 0)
(2.916026638 0.2263597912 0)
(2.907623986 0.2380395304 0)
(2.904622645 0.2460589887 0)
(2.904202907 0.2495182648 0)
(2.90123443 0.2550268352 0)
(2.89937009 0.2571122334 0)
(2.898093931 0.2590911378 0)
(2.896981521 0.2603791423 0)
(2.896027301 0.2627371786 0)
(2.894679666 0.2645979013 0)
(2.894197234 0.2650869652 0)
(2.894768145 0.265943414 0)
(2.895914137 0.2668668314 0)
(2.895087594 0.2655232902 0)
(2.894948987 0.2631097326 0)
(2.894544993 0.2611387607 0)
(2.894277034 0.2599347586 0)
(2.895700913 0.2579873893 0)
(2.896342821 0.2567011253 0)
(2.897367924 0.2543624531 0)
(2.897813913 0.2519815895 0)
(2.89803744 0.2513370227 0)
(2.999304038 0.001273400067 0)
(2.998510057 0.00281008633 0)
(2.997044536 0.005663654102 0)
(2.994519328 0.01067439571 0)
(2.99032608 0.02021409345 0)
(2.985358627 0.03046561258 0)
(2.977558105 0.04792268314 0)
(2.967875817 0.07420620314 0)
(2.959372925 0.09317426973 0)
(2.944653058 0.1260329503 0)
(2.936750675 0.1505151749 0)
(2.931895509 0.1706194567 0)
(2.913225253 0.2158085897 0)
(2.907661652 0.2303687128 0)
(2.911845899 0.23047366 0)
(2.899059677 0.2524565432 0)
(2.894205863 0.2713621156 0)
(2.893886409 0.2709266541 0)
(2.890766955 0.2749809034 0)
(2.88958185 0.2812250986 0)
(2.887920585 0.2805043606 0)
(2.886594526 0.2755042014 0)
(2.8871189 0.2711480525 0)
(2.889650115 0.2684198887 0)
(2.891597224 0.2667917902 0)
(2.891281033 0.2638857727 0)
(2.890749042 0.2629234914 0)
(2.89085061 0.2612434542 0)
(2.891331385 0.2603747459 0)
(2.892009956 0.2594775851 0)
(2.892800304 0.2585548213 0)
(2.893738708 0.2573470818 0)
(2.894448184 0.2579875729 0)
(2.999992594 1.237855658e-05 0)
(2.999977124 3.813255349e-05 0)
(2.999932866 0.0001152895933 0)
(2.999816044 0.000320596979 0)
(2.999557292 0.0007838212522 0)
(2.998977663 0.001910003783 0)
(2.997846473 0.004046384007 0)
(2.995940346 0.007951763321 0)
(2.992709828 0.01464500736 0)
(2.987583342 0.0247267863 0)
(2.980586695 0.04118194482 0)
(2.972880377 0.05866685832 0)
(2.96228278 0.0821994559 0)
(2.953330489 0.1053784508 0)
(2.943178656 0.1311654203 0)
(2.927680104 0.1709266423 0)
(2.922859972 0.1848490728 0)
(2.927136776 0.1811859686 0)
(2.911481919 0.2092903792 0)
(2.905754088 0.234203158 0)
(2.905814931 0.2308770507 0)
(2.904502068 0.2335650613 0)
(2.898385924 0.2435996055 0)
(2.897316582 0.2452584655 0)
(2.896118212 0.2503036671 0)
(2.895387405 0.2534584172 0)
(2.893710046 0.2550396383 0)
(2.892057144 0.2566259171 0)
(2.890617045 0.2585716205 0)
(2.889936038 0.2613772677 0)
(2.88894199 0.2633824161 0)
(2.888991207 0.2620016382 0)
(2.88996849 0.2621101609 0)
(2.999999991 1.420760533e-08 0)
(2.999999951 7.825912863e-08 0)
(2.999999781 3.478897626e-07 0)
(2.999999068 1.514538332e-06 0)
(2.999996423 5.983386635e-06 0)
(2.999987995 2.030140994e-05 0)
(2.999961388 6.701281429e-05 0)
(2.999890329 0.0001939918812 0)
(2.999712908 0.0005226529779 0)
(2.999306904 0.001276097341 0)
(2.998463917 0.002915273493 0)
(2.996915513 0.006032146989 0)
(2.994246062 0.01133389442 0)
(2.989815879 0.0211748727 0)
(2.983803483 0.03413787299 0)
(2.97701806 0.04838402549 0)
(2.965969709 0.07553068879 0)
(2.957382701 0.09797335344 0)
(2.942229538 0.1296284738 0)
(2.931418777 0.1562324299 0)
(2.930439038 0.1685437973 0)
(2.916801974 0.2010442129 0)
(2.904860989 0.2370593979 0)
(2.902382207 0.2376191673 0)
(2.90301308 0.2428324075 0)
(2.892551288 0.2618428923 0)
(2.889847634 0.2696289348 0)
(2.888830496 0.2699035386 0)
(2.886955134 0.2719253132 0)
(2.886729157 0.2745453377 0)
(2.885951791 0.2739378213 0)
(2.883041371 0.2676919728 0)
(2.885701714 0.2630237444 0)
(3 -3.075995529e-12 0)
(3 6.385346604e-12 0)
(3 7.97744883e-11 0)
(3 6.026329985e-10 0)
(2.999999997 4.768745443e-09 0)
(2.999999982 2.866074261e-08 0)
(2.999999904 1.530326805e-07 0)
(2.999999549 7.366894922e-07 0)
(2.999998174 3.02836989e-06 0)
(2.999993165 1.167223326e-05 0)
(2.999976749 4.023926458e-05 0)
(2.999930886 0.0001227778948 0)
(2.999803933 0.0003599276622 0)
(2.99952093 0.0008847958824 0)
(2.998884539 0.002134961773 0)
(2.997642577 0.004605148129 0)
(2.995387464 0.009262131174 0)
(2.992201394 0.01591369824 0)
(2.986151536 0.02838421793 0)
(2.979802707 0.04280594638 0)
(2.970449163 0.06622334167 0)
(2.960687702 0.08794235828 0)
(2.950966616 0.1117925108 0)
(2.945541191 0.1286251916 0)
(2.928245659 0.1672336596 0)
(2.918184552 0.1989592689 0)
(2.918037635 0.1957757414 0)
(2.918010719 0.199163335 0)
(2.907516241 0.2209671388 0)
(2.903268383 0.2378300795 0)
(2.904418717 0.2372997695 0)
(2.899292453 0.2426958525 0)
(2.896855149 0.243680802 0)
(3 -2.763832784e-13 0)
(3 -2.33104041e-13 0)
(3 -1.993302148e-13 0)
(3 -2.132349818e-13 0)
(3 -1.289032727e-12 0)
(3 1.020760705e-11 0)
(3 4.07213739e-12 0)
(3 1.899799469e-10 0)
(2.999999999 1.810210951e-09 0)
(2.999999992 1.214945041e-08 0)
(2.999999953 7.507756134e-08 0)
(2.999999766 3.839969056e-07 0)
(2.999998979 1.684789052e-06 0)
(2.9999959 7.023303199e-06 0)
(2.999985608 2.498769525e-05 0)
(2.999954307 8.06793272e-05 0)
(2.999864457 0.0002447438083 0)
(2.999652445 0.0006452063465 0)
(2.999143082 0.001617056391 0)
(2.998199902 0.003536610589 0)
(2.996326644 0.007380191304 0)
(2.993598034 0.012993144 0)
(2.988551354 0.02420503957 0)
(2.982407839 0.03841234142 0)
(2.973456238 0.0573622511 0)
(2.965709248 0.07620436841 0)
(2.955433926 0.1039059266 0)
(2.941800504 0.1381201538 0)
(2.929738521 0.1639566925 0)
(2.923651919 0.1786668322 0)
(2.921390596 0.1962198668 0)
(2.907687473 0.2329165897 0)
(2.903840602 0.2383357183 0)
(3 -5.701068043e-14 0)
(3 -9.325567275e-14 0)
(3 -1.329656226e-13 0)
(3 -1.656983736e-13 0)
(3 -1.581336604e-13 0)
(3 -1.631747159e-13 0)
(3 -2.540728771e-13 0)
(3 -2.782774437e-13 0)
(3 -9.045403067e-13 0)
(3 5.600695358e-12 0)
(3 -4.782136816e-12 0)
(3 8.377530867e-11 0)
(3 6.708814467e-10 0)
(2.999999996 5.989597637e-09 0)
(2.999999976 3.704200152e-08 0)
(2.999999869 2.127168815e-07 0)
(2.999999383 1.00466222e-06 0)
(2.999997409 4.410479136e-06 0)
(2.999990522 1.628689893e-05 0)
(2.999968156 5.71685873e-05 0)
(2.999905643 0.0001683118146 0)
(2.999742057 0.0004846813562 0)
(2.999365573 0.001199266964 0)
(2.998616076 0.002670576537 0)
(2.997027831 0.00590095499 0)
(2.9945953 0.01109972236 0)
(2.990440398 0.02027156561 0)
(2.985058855 0.03179733883 0)
(2.977889637 0.04755925087 0)
(2.967204832 0.07305118387 0)
(2.956479405 0.1012015098 0)
(2.95040763 0.116202355 0)
(2.940198123 0.1400910278 0)
(3 -6.47187474e-15 0)
(3 -1.210829161e-14 0)
(3 -2.536141471e-14 0)
(3 -4.12203688e-14 0)
(3 -6.38103034e-14 0)
(3 -1.029478308e-13 0)
(3 -1.43130704e-13 0)
(3 -1.664264822e-13 0)
(3 -2.585999022e-13 0)
(3 -2.420119901e-13 0)
(3 -2.397599111e-13 0)
(3 -2.597932778e-13 0)
(3 -1.650752465e-13 0)
(3 -2.48296473e-12 0)
(3 1.287407882e-11 0)
(3 1.008875644e-11 0)
(3 3.590145939e-10 0)
(2.999999998 2.909272739e-09 0)
(2.999999986 2.156335297e-08 0)
(2.999999924 1.203426563e-07 0)
(2.999999611 6.450924343e-07 0)
(2.999998358 2.747464203e-06 0)
(2.99999357 1.098656563e-05 0)
(2.999977701 3.954735463e-05 0)
(2.999932296 0.0001206357418 0)
(2.999807205 0.0003606463104 0)
(2.999521527 0.0008890027415 0)
(2.998864933 0.002216353018 0)
(2.997654279 0.004677289992 0)
(2.995311592 0.009587765573 0)
(2.992488485 0.01557312496 0)
(2.985921957 0.03113280442 0)
(2.981769356 0.03975294758 0)
(3 3.088359834e-15 0)
(3 6.283298481e-16 0)
(3 -3.620693373e-15 0)
(3 -6.621567285e-15 0)
(3 -1.227362287e-14 0)
(3 -1.740515389e-14 0)
(3 -2.182911846e-14 0)
(3 -3.237046394e-14 0)
(3 -4.79826935e-14 0)
(3 -7.758336052e-14 0)
(3 -1.024286688e-13 0)
(3 -1.608564304e-13 0)
(3 -1.713381694e-13 0)
(3 -3.149082914e-13 0)
(3 -2.903857748e-13 0)
(3 -2.642835469e-13 0)
(3 -3.341380743e-13 0)
(3 2.683088295e-13 0)
(3 -6.030322467e-12 0)
(3 1.975489566e-11 0)
(3 1.386029511e-10 0)
(2.999999999 1.620039542e-09 0)
(2.999999992 1.239211731e-08 0)
(2.999999953 7.29140917e-08 0)
(2.999999749 4.206542831e-07 0)
(2.999998941 1.726763582e-06 0)
(2.999995371 8.14653379e-06 0)
(2.999985033 2.569329795e-05 0)
(2.999947327 9.811506688e-05 0)
(2.999866558 0.0002392954545 0)
(2.999600034 0.0008135157241 0)
(2.999218727 0.001551859793 0)
(2.99835357 0.003371174166 0)
(3 -9.386963677e-16 0)
(3 -1.579282312e-15 0)
(3 -1.705435755e-15 0)
(3 -1.091462712e-15 0)
(3 -1.342997576e-15 0)
(3 -2.784077001e-15 0)
(3 -3.89960429e-15 0)
(3 -6.554171123e-15 0)
(3 -1.031970599e-14 0)
(3 -1.580882272e-14 0)
(3 -2.240019593e-14 0)
(3 -3.718236165e-14 0)
(3 -5.697098326e-14 0)
(3 -8.457834906e-14 0)
(3 -1.256639816e-13 0)
(3 -1.500978288e-13 0)
(3 -1.963012855e-13 0)
(3 -1.92039582e-13 0)
(3 -3.147813664e-13 0)
(3 -3.470450715e-13 0)
(3 -3.115576933e-13 0)
(3 2.126045202e-13 0)
(3 -3.897031818e-12 0)
(3 1.96989237e-11 0)
(3 3.227870035e-11 0)
(2.999999999 1.071824186e-09 0)
(2.999999995 6.521799353e-09 0)
(2.99999997 5.068276696e-08 0)
(2.999999843 2.488746936e-07 0)
(2.999999242 1.324064452e-06 0)
(2.999997088 4.858683956e-06 0)
(2.999981473 3.753083397e-05 0)
(2.999994838 2.036534078e-06 0)
(3 -5.095633931e-15 0)
(3 -2.833157895e-15 0)
(3 -2.696209111e-16 0)
(3 8.245333996e-17 0)
(3 -1.469809313e-16 0)
(3 -1.193438702e-15 0)
(3 -3.950721709e-15 0)
(3 -5.559971922e-15 0)
(3 -8.689271943e-15 0)
(3 -9.590094587e-15 0)
(3 -1.142319632e-14 0)
(3 -1.527389419e-14 0)
(3 -2.150662801e-14 0)
(3 -2.52449913e-14 0)
(3 -3.222174619e-14 0)
(3 -4.286238407e-14 0)
(3 -6.318188946e-14 0)
(3 -8.016297315e-14 0)
(3 -1.18734263e-13 0)
(3 -1.481388354e-13 0)
(3 -1.716218553e-13 0)
(3 -2.166281426e-13 0)
(3 -2.382004709e-13 0)
(3 -2.373633957e-13 0)
(3 -2.497025271e-13 0)
(3 -1.152285768e-13 0)
(3 -2.284047045e-12 0)
(3 4.890011018e-12 0)
(3 3.480572895e-11 0)
(3 5.653543399e-10 0)
(2.999999998 3.542893916e-09 0)
(2.999999907 1.727980832e-07 0)
(3.000000022 1.496476207e-08 0)
(3 -8.755074093e-16 0)
(3 3.088224611e-16 0)
(3 -5.925060416e-17 0)
(3 1.146689472e-16 0)
(3 -5.574905964e-16 0)
(3 -1.82190544e-15 0)
(3 -5.020597556e-15 0)
(3 -7.753658892e-15 0)
(3 -9.564551369e-15 0)
(3 -1.290879096e-14 0)
(3 -1.55154211e-14 0)
(3 -1.872094913e-14 0)
(3 -2.067549955e-14 0)
(3 -2.156445827e-14 0)
(3 -2.052905514e-14 0)
(3 -1.879869833e-14 0)
(3 -1.694409348e-14 0)
(3 -2.075831464e-14 0)
(3 -2.333414327e-14 0)
(3 -3.302686577e-14 0)
(3 -5.533474432e-14 0)
(3 -7.05578252e-14 0)
(3 -1.108339111e-13 0)
(3 -1.406885259e-13 0)
(3 -1.706500035e-13 0)
(3 -1.659339639e-13 0)
(3 -3.109949051e-13 0)
(3 -4.212187296e-13 0)
(3 -5.053446825e-13 0)
(3 -4.814305364e-13 0)
(3 -1.241316314e-12 0)
(3 1.987329046e-10 0)
(3.000000002 -7.912367097e-10 0)
(3 -9.039430993e-16 0)
(3 -2.066486386e-16 0)
(3 -3.401301505e-16 0)
(3 -6.490883533e-16 0)
(3 -2.337798654e-15 0)
(3 -3.469845643e-15 0)
(3 -4.383925886e-15 0)
(3 -6.278568438e-15 0)
(3 -7.213454535e-15 0)
)
;

boundaryField
{
    inlet
    {
        type            fixedValue;
        value           nonuniform 0();
    }
    outlet
    {
        type            inletOutlet;
        inletValue      nonuniform 0();
        value           nonuniform 0();
    }
    bottom
    {
        type            slip;
    }
    top
    {
        type            slip;
    }
    obstacle
    {
        type            slip;
    }
    defaultFaces
    {
        type            empty;
    }
    procBoundary20to13
    {
        type            processor;
        value           uniform (2.855028048 -0.2316363318 0);
    }
    procBoundary20to14
    {
        type            processor;
        value           nonuniform List<vector> 
19
(
(2.862569148 -0.3077015396 0)
(2.859935664 -0.3054836831 0)
(2.857742451 -0.2924106608 0)
(2.858011215 -0.2857396206 0)
(2.861563888 -0.2820906254 0)
(2.867462099 -0.2792593772 0)
(2.870884641 -0.2755906236 0)
(2.87257674 -0.2738223066 0)
(2.874329035 -0.2711254719 0)
(2.877778928 -0.2665737882 0)
(2.879228013 -0.2631811606 0)
(2.880041592 -0.2613604203 0)
(2.881405279 -0.2599043464 0)
(2.882048477 -0.2589057646 0)
(2.882526456 -0.2551859145 0)
(2.882925746 -0.250894968 0)
(2.883080321 -0.2495579777 0)
(2.883821858 -0.2497672928 0)
(2.874574726 -0.2549138163 0)
)
;
    }
    procBoundary20to19
    {
        type            processor;
        value           nonuniform List<vector> 
16
(
(2.855028095 0.2316363603 0)
(2.865576871 0.3073083072 0)
(2.95188117 0.1792177362 0)
(2.968723219 0.09873861956 0)
(2.993400335 0.01434170344 0)
(2.999693862 0.0005549717513 0)
(2.999997849 3.495659256e-06 0)
(2.999999998 2.461899088e-09 0)
(3 2.044299813e-13 0)
(3 -1.601990366e-13 0)
(3 -3.391448207e-14 0)
(3 -4.130319801e-15 0)
(3 4.309105968e-15 0)
(3 -6.01651224e-16 0)
(3 -4.579279877e-15 0)
(3 -1.731342605e-15 0)
)
;
    }
    procBoundary20to25
    {
        type            processor;
        value           uniform (3 -2.249494907e-15 0);
    }
    procBoundary20to26
    {
        type            processor;
        value           nonuniform List<vector> 
34
(
(3 -9.927558283e-15 0)
(3 -1.23558607e-14 0)
(3 -1.506299419e-14 0)
(3 -1.642445572e-14 0)
(3 -1.618500875e-14 0)
(3 -1.541346269e-14 0)
(3 -1.467243524e-14 0)
(3 -1.444505492e-14 0)
(3 -1.394420786e-14 0)
(3 -1.309945914e-14 0)
(3 -1.249165047e-14 0)
(3 -1.230723882e-14 0)
(3 -1.346801472e-14 0)
(3 -2.250880767e-14 0)
(3 -3.198949109e-14 0)
(3 -5.115314208e-14 0)
(3 -7.420814584e-14 0)
(3 -1.127787957e-13 0)
(3 -1.61554058e-13 0)
(3 -2.616513151e-13 0)
(3 -3.140834838e-13 0)
(3 -5.379000655e-13 0)
(3 -4.986862621e-13 0)
(3 -3.897598726e-11 0)
(3 5.472774928e-15 0)
(3 7.181359927e-15 0)
(3 7.307930687e-15 0)
(3 5.825118715e-15 0)
(3 4.158761765e-15 0)
(3 3.04138254e-15 0)
(3 9.425452519e-16 0)
(3 -5.708482641e-16 0)
(3 -9.927558283e-15 0)
(3 -2.554823075e-15 0)
)
;
    }
    procBoundary20to27
    {
        type            processor;
        value           nonuniform List<vector> 
16
(
(2.961658035 -0.04259385118 0)
(2.893110915 0.2288317003 0)
(2.894591544 0.2481780962 0)
(2.900057599 0.2481273615 0)
(2.898300273 0.2517054953 0)
(2.897162414 0.255278609 0)
(2.89083376 0.2603031813 0)
(2.888046021 0.2603501464 0)
(2.893125925 0.2530771319 0)
(2.893392955 0.2698638297 0)
(2.916315265 0.2016012178 0)
(2.945418041 0.1229417561 0)
(2.989395248 0.02352185116 0)
(2.998668101 0.003416750924 0)
(2.999960049 9.93789187e-05 0)
(2.999999157 2.197440616e-06 0)
)
;
    }
}


// ************************************************************************* //
