/*--------------------------------*- C++ -*----------------------------------*\
  =========                 |
  \\      /  F ield         | OpenFOAM: The Open Source CFD Toolbox
   \\    /   O peration     | Website:  https://openfoam.org
    \\  /    A nd           | Version:  7
     \\/     M anipulation  |
\*---------------------------------------------------------------------------*/
FoamFile
{
    version     2.0;
    format      ascii;
    class       volScalarField;
    location    "2";
    object      p;
}
// * * * * * * * * * * * * * * * * * * * * * * * * * * * * * * * * * * * * * //

dimensions      [1 -1 -2 0 0 0 0];

internalField   nonuniform List<scalar> 
2222
(
0.9756375299
0.9815576151
0.9808192194
0.9786788943
0.9775574399
0.9779106555
0.9802306428
0.9838328706
0.9870149265
0.9883920129
0.9893398483
0.9906847509
0.992882438
0.9941170797
0.9930891902
0.980301237
0.9803094916
0.980474866
0.9788627097
0.9765400531
0.9763625929
0.9756936957
0.9745459628
0.9756293503
0.9765715482
0.9770760145
0.9772264627
0.9772041889
0.9770885929
0.9761226817
0.9766457582
0.9776790271
0.9738858272
0.9723906618
0.9764847149
0.9780301522
0.972315329
0.9662677543
0.9672450335
0.9746620857
0.9811321583
0.9805029807
0.978478329
0.9771792424
0.9774646746
0.9792190135
0.9828773184
0.9865330479
0.9885702826
0.9897409175
0.9913587544
0.9936189475
0.9941834787
0.9933777866
0.9811213651
0.9805698885
0.9799665974
0.9788402383
0.9766555787
0.9762860466
0.9758387118
0.9750794137
0.9757839305
0.977020008
0.9780562753
0.9783867468
0.977328086
0.9766310051
0.9755230832
0.9758294308
0.9778796198
0.9753463685
0.972819638
0.9750189307
0.9766887859
0.9716956214
0.9657747468
0.9667432393
0.9734502999
0.9801943919
0.9799381859
0.9781215753
0.9766405331
0.9768947941
0.9786825964
0.9818507623
0.9858111939
0.9883701052
0.9900338844
0.9917944365
0.9938011982
0.9939992945
0.9933873201
0.9790047681
0.9785327199
0.9789843219
0.9783585534
0.9761235523
0.9756098112
0.9752045108
0.974469612
0.9747495117
0.9760334493
0.9774962308
0.9781619326
0.978094846
0.97703191
0.9752180605
0.975495439
0.9770552748
0.9753574231
0.9734933885
0.9759835398
0.9778966372
0.9724103143
0.9659487029
0.9666369559
0.9729351177
0.9798100342
0.9795482843
0.977976316
0.9762850959
0.9762778278
0.9778939241
0.9810830623
0.9853566236
0.9887487993
0.991123737
0.9932307277
0.9943866403
0.9940929242
0.9933120597
0.9758547368
0.9770081034
0.9791939137
0.9797698755
0.977210446
0.9763280619
0.9758994036
0.974362072
0.9735562812
0.9746029112
0.9758184603
0.9765646961
0.9771204221
0.9777848459
0.9769863712
0.9765174783
0.976569353
0.9743159937
0.972942029
0.9754702682
0.9780577049
0.9739677042
0.9675703506
0.9680911909
0.9732688501
0.980225416
0.9808175237
0.9790626053
0.977059107
0.9767171289
0.9776854834
0.980553242
0.9846992029
0.988767872
0.9916225072
0.9940795656
0.9948434313
0.9945559067
0.9932685808
0.9771846141
0.9789338791
0.980638285
0.98094568
0.9784611005
0.9771809991
0.9769731709
0.975650716
0.9744670905
0.9754096983
0.975797107
0.9753207691
0.9757134313
0.9774664039
0.9776510232
0.9778393539
0.9774463836
0.9742077003
0.9719268908
0.9744983395
0.9773269223
0.9741566342
0.9688435861
0.9694592804
0.9748042504
0.9809721061
0.9816369774
0.9796436048
0.9773534762
0.9767466767
0.9775007253
0.9799751019
0.9842161622
0.9888085874
0.9919847853
0.9944488862
0.9946733392
0.9944115627
0.9932851058
0.9783254368
0.9788548737
0.9797593437
0.9798222816
0.9773417426
0.9761058964
0.9759855942
0.975108773
0.9742159505
0.9753454768
0.9761706115
0.9759979572
0.97624289
0.977597671
0.9774651252
0.9776807445
0.9770608478
0.9742736258
0.9722335846
0.9741648972
0.9767847229
0.97410598
0.9699952304
0.9711389863
0.9761335801
0.981177479
0.982256802
0.9800858728
0.9775161571
0.9764635414
0.9771807955
0.9793696774
0.9835020957
0.9883294473
0.9919934566
0.9944833323
0.994502319
0.9941168079
0.993120503
0.9790118421
0.9793998568
0.9790259047
0.9767458066
0.9755197464
0.9752777385
0.9745115819
0.9737476996
0.9748067181
0.9757341811
0.9760592432
0.976794058
0.9778290655
0.9774307101
0.9772436711
0.9765755202
0.9740868955
0.9723782736
0.9739227138
0.9760958492
0.9737297009
0.970605901
0.9723347725
0.9778280154
0.9817021246
0.9823619306
0.9803118277
0.9780998895
0.976849176
0.9773579997
0.9790763106
0.9827761806
0.9877262325
0.9919399692
0.9943127123
0.99458638
0.9944929686
0.9936361133
0.9785290831
0.9790648282
0.9788622632
0.9773861497
0.97625044
0.9759519542
0.9752881844
0.9744681878
0.975322905
0.9762888745
0.977228604
0.978136303
0.9782536739
0.9773489011
0.9766096582
0.9763992889
0.9744729759
0.9728918212
0.9739944924
0.9756809089
0.9733531732
0.9712898988
0.973486938
0.9789320273
0.9816263999
0.9821628483
0.9799882661
0.9780496158
0.976712892
0.9772336014
0.9787024835
0.9821261492
0.9869553175
0.9912642445
0.9938330074
0.9945727804
0.9947043705
0.9941304117
0.9778552811
0.9790700255
0.9794239063
0.9788168097
0.9777599554
0.9771232515
0.9762371104
0.9753908825
0.9760905027
0.977098186
0.9781067551
0.9783702783
0.9779655628
0.9767162953
0.9758284604
0.9763025233
0.974958653
0.9740173269
0.9750373293
0.975530178
0.9721410331
0.9711063428
0.9735387234
0.978915103
0.9808817757
0.9818180705
0.9798754243
0.9781726386
0.9768152532
0.977126997
0.9785463994
0.9816659211
0.9863006184
0.9905027629
0.99365927
0.9948672682
0.9950519094
0.994634104
0.9770950495
0.9788507681
0.9795760632
0.9792826367
0.978116016
0.9771253674
0.9759202859
0.9749226494
0.9755739449
0.9765168717
0.9774002531
0.9777430688
0.9775300402
0.9763385413
0.9757467846
0.9765848784
0.9757755053
0.9745043719
0.9759129211
0.976038256
0.9716740678
0.9703674115
0.9728704402
0.9785520653
0.9802388889
0.9812485174
0.979574044
0.9787132185
0.977625784
0.9775671434
0.9788512615
0.9816616338
0.9858804725
0.9900957906
0.993919931
0.9953727808
0.9954870074
0.9950564916
0.9775928378
0.9792777522
0.9800009531
0.9795546977
0.9783716243
0.9772746893
0.9759578682
0.9746398236
0.9750674698
0.9756736664
0.9760592722
0.976363667
0.9767731178
0.9764140261
0.9765457712
0.9771750247
0.9756291555
0.9744406337
0.97641157
0.9765055484
0.9721541551
0.9703645752
0.9726164073
0.9783391367
0.9797330678
0.9806710291
0.9792675906
0.9791572172
0.9787864185
0.9786317089
0.9797405798
0.9816703117
0.985322122
0.9898742938
0.9941897553
0.9957001603
0.9957564422
0.9952720887
0.9785249096
0.979941287
0.9805673188
0.9793702022
0.9778602339
0.9769980019
0.9759772394
0.9747572451
0.9750758582
0.9754787837
0.9752184693
0.9752531255
0.9761119209
0.9771957638
0.9777666106
0.9773940792
0.9753921391
0.9738494006
0.9770961267
0.9773193346
0.9731587546
0.9714295961
0.9735934051
0.9784850213
0.9792208077
0.9796750978
0.9787931948
0.9794093137
0.979448194
0.9794352955
0.9801102062
0.9818036295
0.9848843584
0.989390245
0.9939646431
0.9955431027
0.9955732209
0.9950538643
0.9792656056
0.9797611369
0.9786200204
0.9772230017
0.9765734901
0.9758286307
0.9751964849
0.9753222051
0.9758154761
0.9756401251
0.9755041076
0.9762749236
0.9773441062
0.9780818532
0.9774469114
0.9749489606
0.9734927745
0.9773444634
0.9778404812
0.9745984956
0.9726397864
0.9750580905
0.9791917303
0.9788494021
0.9784934174
0.9782113493
0.9795246084
0.980070324
0.9800618896
0.9804858813
0.9818698979
0.9846238401
0.9889413991
0.993596615
0.995292105
0.9953324766
0.9947759067
0.9930636448
0.9783312124
0.979036137
0.9784612184
0.9772592029
0.9770287719
0.9764554789
0.9757049611
0.9754524217
0.9760817181
0.9764694138
0.9766587798
0.9773650881
0.9778228621
0.9780990505
0.9771875804
0.9742277044
0.9734811792
0.9772491573
0.9774474501
0.9748897394
0.9736978469
0.9769968473
0.980242382
0.9792567291
0.9781500372
0.9779519479
0.9795478321
0.9802747402
0.980332854
0.9807201368
0.9819597291
0.9843031005
0.9883801997
0.9928604974
0.9947172718
0.9947940983
0.9942813883
0.9926842954
0.9776441076
0.9787670124
0.9788440056
0.9777510453
0.9777664976
0.9770599821
0.9761613521
0.9755032794
0.9761222824
0.9768675068
0.9776726283
0.9783061073
0.9778685493
0.9774857997
0.9761283942
0.9733950777
0.9735729645
0.9772122301
0.9771481932
0.9746088492
0.9740980199
0.9782722681
0.9813794378
0.9802327846
0.9783595856
0.9780683405
0.9794546689
0.9804104208
0.9808491718
0.9811935748
0.9821740544
0.9841407324
0.9877094232
0.9916229191
0.9938047735
0.9940623446
0.9937125772
0.9923275046
0.9774527082
0.9788752051
0.9794101335
0.9782698589
0.9781685764
0.9771893097
0.9761103602
0.9750137738
0.9755450201
0.9764546271
0.9772721355
0.9778730508
0.9770915155
0.9763599206
0.9756539211
0.9734044341
0.9740744624
0.9770899413
0.976490198
0.9738934731
0.9738205219
0.9789801552
0.9825666214
0.9816345522
0.9789763213
0.9784258598
0.9796360395
0.9810530792
0.9819763404
0.9824277582
0.9829935704
0.984425768
0.9870790437
0.990184841
0.9928414018
0.9936750856
0.9934793475
0.9922545661
0.9781141018
0.9794783387
0.980011196
0.9788471205
0.9785491843
0.9774007175
0.9762809619
0.9749772721
0.9751586554
0.9756184721
0.97615135
0.9769032372
0.9766325345
0.9763525965
0.9763946618
0.9740243252
0.9745917197
0.9767099198
0.9755870665
0.9727994966
0.9732607892
0.979087341
0.9835166322
0.9828247923
0.9794506729
0.9786904143
0.9797982984
0.981795606
0.9834566381
0.9840753322
0.9840737142
0.9846307478
0.9862021136
0.9888723587
0.9920204861
0.9935719127
0.9934091936
0.9921418856
0.9788972726
0.9799253198
0.9800530427
0.9788599904
0.9785156651
0.9775905908
0.9767336467
0.9756339062
0.9755070679
0.9754296034
0.9753409963
0.9757090871
0.9765259937
0.977082779
0.9772948623
0.9746923692
0.9749102344
0.9768887486
0.9754955713
0.97230273
0.9727430988
0.9781589003
0.9835308928
0.9831079218
0.9794980235
0.9786986938
0.9797822243
0.9823373002
0.9847680977
0.9854062349
0.9848868837
0.9844720457
0.9855301736
0.9879620513
0.9914061204
0.9933563638
0.9932433061
0.9919570979
0.9780330123
0.9789018573
0.9788114079
0.9778010175
0.9776702624
0.977257532
0.9767762238
0.9762105401
0.976125904
0.9758812235
0.9755171961
0.9755944493
0.9767252096
0.9778813544
0.9779699147
0.9753665393
0.9750232008
0.9773498318
0.9759772719
0.9726350155
0.9729826599
0.9775509785
0.9830272424
0.9826734159
0.9789158347
0.9780278014
0.9791683648
0.9825003326
0.9856435037
0.9860660553
0.9852498167
0.9843429052
0.985044455
0.9872280522
0.9908024725
0.9928887717
0.9927103416
0.9913463412
0.9775763877
0.9779722149
0.9772215464
0.9772632983
0.9770786505
0.9766651354
0.9763932468
0.976719358
0.9767872694
0.9766948117
0.976884651
0.977498683
0.9784077754
0.9782206199
0.9750118348
0.9750100848
0.977538391
0.9764530412
0.9733623753
0.9735927608
0.9777948058
0.9822273581
0.9816212717
0.9776645948
0.9766742374
0.9778621558
0.981682447
0.9857603481
0.9863411797
0.9855038168
0.9843950603
0.9848447666
0.9867306706
0.9902200813
0.9921665742
0.9919193052
0.9905438522
0.9773459684
0.9781297986
0.977414139
0.9774132334
0.9771254934
0.9766666098
0.9762143699
0.9766080128
0.9771573615
0.9775173816
0.9778160403
0.9778637563
0.9780848585
0.9774148502
0.9735089474
0.9745432679
0.9790288897
0.9780305611
0.9740539511
0.974205277
0.9780808106
0.9811586082
0.9802207756
0.9760547293
0.9750558429
0.9763549955
0.9803255646
0.9852247119
0.9865037574
0.9860248901
0.9851154195
0.9851342907
0.9863969883
0.9892664289
0.9909749661
0.9906748028
0.989647773
0.9781050666
0.9791095187
0.978320089
0.9779731209
0.9776945255
0.9766403923
0.9758107672
0.9756788586
0.9763727655
0.9772380091
0.9779224246
0.9774872037
0.9771105555
0.9760744136
0.9727455393
0.9750170187
0.9799736544
0.9791442214
0.9756505074
0.9750866656
0.9779543541
0.9806869059
0.979934818
0.9759719906
0.9749279479
0.9760065567
0.9794546908
0.9843934888
0.9871492744
0.9870227388
0.9861549004
0.9857752596
0.9864231942
0.9881509513
0.9896272989
0.989298544
0.988901254
0.9793628786
0.9800294993
0.979172157
0.9788574751
0.9787153822
0.9777028062
0.9764162283
0.97517265
0.975477946
0.9760102119
0.9767903152
0.9766211034
0.9763631029
0.9759066221
0.9730119497
0.9756021414
0.9805958212
0.9800271576
0.9764012945
0.9755928188
0.9786675566
0.9811438235
0.9804524873
0.9764686472
0.9755271288
0.9765750778
0.9798242147
0.9844706193
0.987634023
0.9878928735
0.987253364
0.9863241566
0.9862943662
0.9869915927
0.9881276709
0.9882072009
0.9882822046
0.9794462147
0.9798611593
0.9790517677
0.9788410099
0.9788825638
0.9781608654
0.9771273877
0.9757673767
0.9752374984
0.9754250306
0.9758500511
0.9766156305
0.9768257026
0.9764482044
0.9735300665
0.9763954821
0.9810208998
0.9797131981
0.976207089
0.9758823969
0.9788329121
0.9816215202
0.9812035415
0.9773250922
0.9762831298
0.9772293475
0.9803083933
0.9849495291
0.9884445735
0.9887052944
0.9881357081
0.9865548557
0.9856646952
0.9856770772
0.9863728952
0.9872644704
0.9875601909
0.9781859712
0.978581016
0.9779955463
0.9778358025
0.9782190977
0.977990787
0.9774201364
0.9769053677
0.9761388726
0.9753703814
0.9753979735
0.976246282
0.9772648644
0.9775573488
0.9746119621
0.9770354635
0.9801257269
0.9787039483
0.9752886997
0.9753547784
0.9783437257
0.9818665465
0.9817755022
0.9783101469
0.9771003711
0.9779253921
0.9808233097
0.9857848207
0.9891519464
0.9890138076
0.9881558148
0.9862265384
0.9845767817
0.9844788425
0.9850645016
0.9862837198
0.9868052507
0.9772433679
0.9770027775
0.9767443428
0.9774102499
0.9774345286
0.9771743865
0.9773456799
0.97721213
0.976605799
0.9759897301
0.9763741615
0.9776783189
0.9780723859
0.9750038707
0.9768643357
0.9790415171
0.9775489386
0.9743354921
0.9746260439
0.9777408508
0.981559908
0.9815822544
0.9784235489
0.9770062373
0.977721149
0.9803769763
0.9853700641
0.9886968096
0.9889234521
0.9878476589
0.9858538184
0.9842095279
0.9839979429
0.9845364029
0.9856391435
0.9862168067
0.9863410626
0.9771722598
0.9771176432
0.9764359825
0.9772399057
0.9772334994
0.9767961651
0.9769979717
0.9774140782
0.9773624773
0.97701936
0.9767573518
0.9774190365
0.977511837
0.9744223236
0.976470394
0.978309329
0.9764670128
0.9733478044
0.9738310665
0.9772479702
0.9810873342
0.9810099704
0.9779840499
0.9761599858
0.9767926479
0.979572371
0.9844879362
0.9877274443
0.9881742327
0.9873477054
0.9855966009
0.9841047717
0.9838150047
0.9841435744
0.9849771449
0.9856406928
0.9859731436
0.978233642
0.9779482456
0.9770270335
0.9777596061
0.9776186912
0.9768267959
0.9765228222
0.9769161613
0.9772736723
0.9772880818
0.97677351
0.9770139047
0.9767149613
0.9733618291
0.9759613882
0.9782142799
0.9763979487
0.9732233536
0.9737817876
0.9773646584
0.9807656485
0.9803764522
0.9775444554
0.9755034736
0.9759801054
0.978257761
0.9821521229
0.985357168
0.9874721008
0.9869018017
0.9855973569
0.9843209021
0.9840235097
0.9841718511
0.9846144489
0.985065222
0.9855297438
0.979122712
0.978618308
0.9776201577
0.9783717489
0.9783103394
0.9774667935
0.9764043566
0.9762388559
0.9767131253
0.9768789976
0.9766310384
0.9769677483
0.9764116469
0.9727699641
0.9762699437
0.9793542826
0.9773627866
0.9739549328
0.9744018815
0.978178879
0.9805447747
0.9799195039
0.9772535476
0.9744869828
0.9747739883
0.9768786889
0.9807135521
0.9842365349
0.9869366834
0.9873390873
0.9864149055
0.9853198208
0.9845360479
0.9842667524
0.9841896687
0.9841986611
0.9846564445
0.9791874064
0.978616187
0.977742541
0.9785430025
0.978684144
0.9782852832
0.9771095726
0.9759896216
0.9759697018
0.9763686263
0.9766831647
0.9774074906
0.9769491141
0.9732543265
0.9774475163
0.9809862759
0.9788465594
0.9748188298
0.9748995131
0.9786313322
0.9804151382
0.9796580461
0.9769766637
0.9740168531
0.974211333
0.9761338828
0.9797445216
0.9836311702
0.9871758878
0.9881918608
0.9874986812
0.9862099735
0.9847695204
0.9839670804
0.9834724443
0.9831054912
0.9834763272
0.9779478421
0.977449034
0.9767919802
0.9776934794
0.9781061597
0.9782057823
0.9777290349
0.9767302529
0.9760993973
0.9761546806
0.9764315804
0.9776756268
0.9775451084
0.9742210418
0.9789164903
0.9821060925
0.9796835258
0.9752414554
0.9750641042
0.9786349107
0.9800872245
0.979310101
0.9766718073
0.9739774961
0.9742117364
0.976297717
0.9800630449
0.9839918303
0.9877649447
0.9888200119
0.9881410325
0.9863936264
0.9844085479
0.9833315957
0.9826217057
0.9819906807
0.9823079112
0.976478719
0.9761148844
0.9756442687
0.9765986461
0.9772547056
0.9776561381
0.9775508718
0.9774551803
0.9769483221
0.9762679682
0.9763462666
0.9777027901
0.9778071651
0.9747793602
0.9793756674
0.9817214436
0.9791732225
0.9749165772
0.9750216019
0.9783628245
0.9796557815
0.9789420063
0.9763567698
0.9740312254
0.9744620303
0.9768866882
0.9807978523
0.984753692
0.9880844418
0.9887779406
0.9879511122
0.9857783729
0.9836241504
0.9825782363
0.9818329541
0.9811919987
0.9815631046
0.9761414435
0.9752856584
0.9760311024
0.9767444805
0.9769545761
0.976764027
0.9771572905
0.9775409531
0.9770193902
0.9763919119
0.977197859
0.9773709774
0.9742793472
0.9786459529
0.9804093659
0.9777653821
0.9741440626
0.974630395
0.9781339855
0.9792843356
0.9786135404
0.9760039324
0.9741793179
0.9749425218
0.9777000873
0.9814966523
0.9851768474
0.9879689153
0.9880647249
0.986964425
0.9846828379
0.9828508661
0.9820144132
0.9813926007
0.9810696163
0.9816512316
0.9779489069
0.9764537989
0.9768391742
0.9775569755
0.9772347586
0.9764307268
0.9764505624
0.9771670672
0.9772038461
0.9765786528
0.9769581843
0.9768680767
0.9732799464
0.9774048079
0.9791639079
0.9764485565
0.9734000333
0.9743115799
0.978054037
0.9790503156
0.9783602008
0.9757473371
0.974419191
0.9754502119
0.9780777545
0.9815466836
0.9844104776
0.9863578608
0.9864183855
0.9855177456
0.983723457
0.9822860524
0.981700411
0.9813469617
0.9814306551
0.9823594133
0.9787937062
0.9774217024
0.9776432335
0.978454407
0.9782896283
0.9772848803
0.9761885678
0.9764942349
0.9767208487
0.9765186859
0.9771513874
0.9768461713
0.9725479522
0.9764993822
0.9784903626
0.975710876
0.9730987739
0.9742881354
0.9782375008
0.9789897661
0.9782769979
0.9756260911
0.9747868404
0.9756716257
0.9778928474
0.9808495227
0.9827370963
0.9840490649
0.9845745027
0.9842800708
0.983133523
0.9822089013
0.9818912063
0.9818922819
0.9822126154
0.9833802682
0.9777128297
0.9769160412
0.9772136722
0.9783100174
0.9785672043
0.9780656821
0.976853699
0.9761691636
0.9762451802
0.9762017874
0.9773681836
0.9772501833
0.9725689768
0.9767002913
0.9788396961
0.9758698362
0.9734482441
0.9746182107
0.9785057593
0.9790755066
0.9782971084
0.9755987609
0.9752143699
0.9755091319
0.9773736857
0.9798368179
0.981058333
0.9821903941
0.9829906256
0.9834997449
0.9830920857
0.9827321908
0.9826950718
0.9828799868
0.9830203013
0.9841548825
0.9763166851
0.9759068411
0.9760919035
0.9774516347
0.9780063118
0.9780263526
0.9773849571
0.9765636751
0.97612761
0.97611102
0.9776022648
0.9779240388
0.9734326386
0.9782795905
0.9802805332
0.97684609
0.9738395819
0.9748280532
0.978479644
0.9792246138
0.9783841178
0.9758535488
0.9755542434
0.974894025
0.9765709812
0.9787861241
0.9797734023
0.9807855592
0.9818274986
0.9833660742
0.9836748324
0.9835620352
0.9836466011
0.9835216096
0.9835705754
0.9847855358
0.9754766119
0.9750486942
0.9749701068
0.976550877
0.9772341568
0.9775859933
0.9775081797
0.9772576582
0.9765262725
0.9761532312
0.9777598176
0.9782665469
0.9741516151
0.9798559456
0.9813257258
0.9774682212
0.9736823121
0.9745531342
0.9780412259
0.9791344675
0.9783005162
0.97626388
0.9753681422
0.9738859527
0.975745064
0.9778300334
0.9788120199
0.9799621433
0.9817612258
0.9845135178
0.9849486104
0.9846059218
0.9838742646
0.9833177575
0.9836058261
0.9852388067
0.9751498324
0.9745186851
0.9761622348
0.976677481
0.9768377976
0.9770198244
0.9775135121
0.9771720173
0.976106235
0.977494698
0.9778969593
0.9739708407
0.9800921447
0.9810538446
0.9769021162
0.9730930584
0.9740098153
0.9775879487
0.978884468
0.9781399056
0.9764081032
0.9746134636
0.973147859
0.9753095969
0.9772953358
0.9784891456
0.9803416764
0.9836192667
0.9863970132
0.9856596012
0.9840759583
0.9827708116
0.9824529762
0.9832450393
0.9855607158
0.9764571576
0.97530915
0.9765229021
0.9768092449
0.9763636939
0.9764177701
0.9771886085
0.9773977833
0.976083652
0.97725854
0.9772047653
0.9730775304
0.9788672439
0.9797581337
0.9754704554
0.9725096812
0.9737255083
0.9777380463
0.9788658002
0.978166188
0.9760922164
0.9738561839
0.9731784377
0.9756003992
0.9777861131
0.9795839317
0.9826509303
0.9857211817
0.9861144807
0.9848404291
0.982928126
0.9818244773
0.9818869547
0.9832947597
0.9862245468
0.9889448816
0.9768545028
0.9760616585
0.9770476012
0.9777509055
0.9772748562
0.9766272091
0.9768757133
0.9771844124
0.9761425839
0.9774435504
0.9770225348
0.9723358404
0.9777075944
0.978687401
0.9743377381
0.9724368011
0.97410512
0.9786404026
0.9791856695
0.9782817688
0.9755794871
0.9737125005
0.9740797604
0.9768586064
0.9798885655
0.9820414761
0.9842490437
0.9852056377
0.9851229108
0.9838627225
0.9820759719
0.9815427455
0.9821750627
0.9844172641
0.9876061448
0.9901234795
0.9767136967
0.9757057274
0.9765601952
0.9779004329
0.9783497117
0.977573692
0.9768385988
0.9769638479
0.9762671199
0.9778154583
0.9778157827
0.9723172353
0.9770737521
0.9783906995
0.9738501555
0.9732503673
0.9753715447
0.9791334455
0.9790181627
0.977932967
0.9751907004
0.9745081231
0.9756441696
0.9790299614
0.9827700393
0.9828790044
0.9834954207
0.9842615881
0.9840221533
0.9828736596
0.9818035629
0.9818998425
0.983485469
0.9857717378
0.9881955714
0.9904707996
0.9753086717
0.9751309582
0.9760468933
0.9778167884
0.978507133
0.9782585998
0.9771600717
0.9767484923
0.9763262136
0.978198522
0.9786704428
0.9728296301
0.9771832929
0.9789217724
0.9745511373
0.973607206
0.97553643
0.9784840839
0.9783391037
0.9774530233
0.9754052425
0.9757272759
0.9774100695
0.9806237404
0.9831325457
0.9822244743
0.9825269625
0.982800882
0.9825779314
0.9818874872
0.981612392
0.9824402279
0.9839817288
0.985403702
0.9876345001
0.9898707673
0.9743058419
0.97378326
0.9744894647
0.9765443281
0.9777169285
0.977714952
0.9773247247
0.9767712505
0.9760149489
0.9780306044
0.978637998
0.973029096
0.9778755238
0.978888142
0.9747000322
0.9729405369
0.9750970642
0.9776783435
0.9778105776
0.9772760754
0.9763304727
0.9770924317
0.9783833611
0.9808842908
0.9824837062
0.9815617273
0.9811134731
0.9809159215
0.980746637
0.9807506746
0.9810698787
0.9821243974
0.983460881
0.9847982095
0.986899714
0.9888766442
0.9738228707
0.9729351674
0.9735136579
0.9753938882
0.9762139268
0.9767859069
0.9769869292
0.9770599674
0.9757063793
0.9775936563
0.9779846
0.9726702872
0.9787000034
0.9791657876
0.9741736414
0.9722081239
0.9747871405
0.9768178421
0.977763386
0.9777440211
0.9777192327
0.9780852948
0.9784311293
0.9806345261
0.9816494971
0.9805235821
0.9791794831
0.9788932722
0.9789141865
0.979497674
0.9803660824
0.9815327593
0.9828367385
0.9838007712
0.9856998286
0.9879683789
0.9736760299
0.9736334959
0.9748647231
0.9755068946
0.9759555464
0.9767622519
0.9773594916
0.9758877514
0.9773059568
0.9773641517
0.9722062693
0.9791045002
0.9797808102
0.9736896922
0.9720760061
0.9748498988
0.9768134327
0.9784817897
0.9787081264
0.9783729316
0.9779388166
0.9780637718
0.9801489471
0.9806817389
0.9794623614
0.9779094207
0.9775682649
0.9776337627
0.9783653453
0.979478483
0.980662352
0.9816715169
0.9829163613
0.9852877198
0.9878556307
0.9750446877
0.9751033918
0.976067132
0.9758162454
0.9759151653
0.9768927734
0.9775644965
0.9762993788
0.977475723
0.9770431316
0.9718486483
0.9791459902
0.9800681167
0.9741116531
0.9724481888
0.9754692118
0.9779687573
0.9791156704
0.9787870984
0.9783896886
0.97744777
0.9778684918
0.9800387771
0.9804662391
0.9791713317
0.9775072901
0.9770592657
0.9770536376
0.9777357313
0.9788584777
0.9799158622
0.9810256745
0.9826081804
0.9852550966
0.9882951705
0.9756255828
0.9756033018
0.9772138688
0.9775449019
0.9767465554
0.9766848483
0.9773257179
0.9764102599
0.9779696787
0.9772274227
0.9718787599
0.9790724155
0.9802836714
0.9742721739
0.9735189926
0.9768123065
0.9789040175
0.9788849293
0.9784000028
0.9779576948
0.9770448418
0.9777361138
0.9802706856
0.9805947705
0.9792423728
0.9774101714
0.9767928143
0.9766991084
0.9773272692
0.9787425131
0.9798174774
0.9810424082
0.9830836999
0.9862946691
0.9897210451
0.9747275014
0.9751723503
0.9773498046
0.978142286
0.9777352178
0.976783529
0.9767524987
0.9760532722
0.9781531362
0.9776131755
0.9718615252
0.9789617994
0.9805649839
0.974872275
0.9743472518
0.977836307
0.9786750854
0.9784988987
0.9780016353
0.9772460342
0.9767454581
0.9778122908
0.9811212456
0.9815299083
0.9800072873
0.9779701784
0.9773674078
0.9773919582
0.9780771425
0.9792732231
0.9802404534
0.9817442571
0.9840861068
0.9871525499
0.9900525768
0.9724402971
0.9726631855
0.9752321338
0.9775337897
0.9777208444
0.9774104334
0.9764960654
0.975660588
0.9779300838
0.9778356053
0.9715839617
0.9783990092
0.9799413082
0.9751358998
0.974104809
0.9777197829
0.9782920009
0.9779851411
0.977352957
0.9770197713
0.9768975862
0.9787022378
0.9823331238
0.982621687
0.9811657873
0.9796842534
0.9792412813
0.9793119469
0.9795195201
0.9800991736
0.9807373136
0.9820500824
0.9841196829
0.986896257
0.9896956678
0.9715508586
0.9715684235
0.9729767976
0.9754411127
0.9772255359
0.9772948215
0.9769302447
0.9754452744
0.97770896
0.9777707357
0.9713759129
0.9779469314
0.9792059254
0.974399697
0.9736160954
0.9773820462
0.9775182976
0.9771755155
0.9770779059
0.9770486061
0.9779748068
0.980138993
0.9824677657
0.9825231982
0.9816396144
0.9809326826
0.9805933246
0.9802524987
0.9796853105
0.9798579827
0.9804478228
0.9816727481
0.9837700812
0.9865110505
0.9890721078
0.9729170308
0.9713985618
0.9718483385
0.9736126842
0.975327574
0.9773795796
0.9775316892
0.9759208782
0.9774054097
0.977347592
0.9710360643
0.9777104218
0.9787479432
0.9736981675
0.973122105
0.9775532882
0.9774724402
0.9769542064
0.9770754083
0.9780007238
0.9789813618
0.9806107861
0.9821747939
0.9822032357
0.9815358054
0.980990921
0.9806296631
0.9800708037
0.9792627402
0.9793106233
0.9798861977
0.9811584725
0.9832861961
0.985891543
0.9879797629
0.9739114943
0.9731694445
0.9732960467
0.9744264838
0.9763866357
0.9777061553
0.9765520272
0.9771658245
0.9766408866
0.9705525644
0.9776357378
0.9786115342
0.9733513237
0.9730085975
0.9776639078
0.9775678367
0.9770962981
0.9776678588
0.9786769657
0.978940522
0.9804749626
0.981691651
0.9818342494
0.9813758435
0.9807995368
0.9803759925
0.9798089457
0.9787324701
0.9785042427
0.9790318514
0.9802643013
0.9822136399
0.9846973993
0.9870268041
0.9747385391
0.9748699138
0.9749033433
0.974523727
0.9754310338
0.9769181633
0.9765613068
0.9772379518
0.9762444747
0.9703261373
0.978394255
0.9795162536
0.9732952659
0.9732388927
0.9779761102
0.978249194
0.9777402762
0.9780910866
0.9785047928
0.9787222541
0.9801090556
0.9810738147
0.9817391654
0.981302602
0.9805505962
0.9798953156
0.9790767538
0.9772952847
0.9771481926
0.9775959953
0.9787420948
0.9810142311
0.984169547
0.9867203146
0.9880904338
0.9743636054
0.9750721384
0.9764084513
0.9758842903
0.9751723527
0.9759781678
0.9762386576
0.9775139091
0.97620841
0.9701252397
0.9800528945
0.9815363769
0.9739391895
0.9738674712
0.9785155862
0.9786268459
0.9778024917
0.9778676444
0.9781653925
0.9782255765
0.9792523276
0.9808679861
0.981938008
0.981518149
0.9801559694
0.9788663061
0.9777129176
0.9771230522
0.9763260174
0.976736172
0.9782292771
0.9809263882
0.9840845266
0.9867516929
0.9881144482
0.9708683534
0.9736358168
0.9763384281
0.9768738599
0.9760940437
0.975558709
0.9756376253
0.9776058713
0.9761599791
0.9700488624
0.9814725448
0.9828110989
0.9745518925
0.9744542734
0.9787016694
0.9784859916
0.977523039
0.9775424976
0.9775683058
0.9775965467
0.9789376273
0.9811020833
0.9823182896
0.9814178137
0.9795637779
0.978022115
0.9774172429
0.9771827363
0.9770356431
0.9774477284
0.9788090237
0.9814426428
0.9847956316
0.9874390818
0.9884423303
0.9679005929
0.9695700755
0.9743422154
0.9768389094
0.9773079451
0.9760944482
0.9754683867
0.9772665026
0.9759771636
0.9703147344
0.9819405075
0.983277891
0.97489487
0.9749613347
0.9788548029
0.9782233458
0.9769865222
0.9767454648
0.9768108263
0.9774442041
0.9790140094
0.9818480517
0.9821763188
0.9811528514
0.9790411762
0.9776118938
0.9774610567
0.9776589703
0.9778394753
0.97839707
0.9801187009
0.9829052428
0.9859490273
0.9879594212
0.9884099255
0.9672173618
0.9679792752
0.9708084852
0.975069347
0.9771551661
0.9772230707
0.9756901372
0.9765259916
0.9758243021
0.9706509861
0.9820802027
0.9832405795
0.9747978334
0.9752539605
0.9790246237
0.9779517878
0.9761730831
0.976152133
0.9765602048
0.9774236104
0.979854281
0.9817898623
0.9819088168
0.980795843
0.9785505647
0.9774902528
0.9778840325
0.9792216172
0.9802441345
0.9808904588
0.9825975863
0.9844089456
0.9861712971
0.9878751884
0.9881893004
0.9722904709
0.9688663733
0.9695242414
0.9720764066
0.9759918478
0.9777236367
0.9765338753
0.976210079
0.9755639226
0.9707253916
0.9823307711
0.9830722221
0.9745556727
0.9754850139
0.9793361942
0.9779028773
0.9755940101
0.9757176926
0.9764841412
0.9777636436
0.9797846187
0.9816118063
0.9816266803
0.9800980888
0.978263638
0.9778194418
0.97915799
0.9821147678
0.9838249292
0.9840582194
0.9842832407
0.9848043358
0.9860980636
0.9871848973
0.9873807202
0.9758663842
0.9734708883
0.9707242575
0.9712477402
0.9736487061
0.9773541781
0.9767681178
0.9763488642
0.9753094654
0.9704840846
0.9819806179
0.9824924562
0.9743493785
0.9755327757
0.9796940088
0.978122426
0.9755170399
0.9757070621
0.9765686953
0.9778308887
0.979802334
0.9812723292
0.9809786413
0.9793504143
0.9781813332
0.9784319253
0.9810529385
0.9840054864
0.9857511606
0.9858027982
0.985242776
0.9850741563
0.9856780206
0.9857330518
0.9863872978
0.9749745782
0.9740351346
0.9721231032
0.9729300366
0.9752515715
0.976826489
0.9767799984
)
;

boundaryField
{
    inlet
    {
        type            fixedValue;
        value           nonuniform 0();
    }
    outlet
    {
        type            zeroGradient;
    }
    bottom
    {
        type            slip;
    }
    top
    {
        type            slip;
    }
    obstacle
    {
        type            zeroGradient;
    }
    defaultFaces
    {
        type            empty;
    }
    procBoundary22to15
    {
        type            processor;
        value           uniform 0.9792506932;
    }
    procBoundary22to16
    {
        type            processor;
        value           nonuniform List<scalar> 
40
(
0.9748406889
0.9806944375
0.9812792023