/*--------------------------------*- C++ -*----------------------------------*\
  =========                 |
  \\      /  F ield         | OpenFOAM: The Open Source CFD Toolbox
   \\    /   O peration     | Website:  https://openfoam.org
    \\  /    A nd           | Version:  7
     \\/     M anipulation  |
\*---------------------------------------------------------------------------*/
FoamFile
{
    version     2.0;
    format      ascii;
    class       volScalarField;
    location    "1";
    object      p;
}
// * * * * * * * * * * * * * * * * * * * * * * * * * * * * * * * * * * * * * //

dimensions      [1 -1 -2 0 0 0 0];

internalField   nonuniform List<scalar> 5(0.8345812098 0.8192154328 0.8186299114 0.8380078047 0.8244481873);

boundaryField
{
    inlet
    {
        type            fixedValue;
        value           nonuniform 0();
    }
    outlet
    {
        type            zeroGradient;
    }
    bottom
    {
        type            slip;
    }
    top
    {
        type            slip;
    }
    obstacle
    {
        type            zeroGradient;
    }
    defaultFaces
    {
        type            empty;
    }
    procBoundary21to15
    {
        type            processor;
        value           uniform 0.8228428028;
    }
    procBoundary21to16
    {
        type            processor;
        value           nonuniform List<scalar> 3(0.9473308362 0.9856062656 0.9974080875);
    }
    procBoundary21to22
    {
        type            processor;
        value           nonuniform List<scalar> 2(0.9571858232 0.9308732576);
    }
    procBoundary21to27
    {
        type            processor;
        value           uniform 0.8075234853;
    }
}


// ************************************************************************* //
