/*--------------------------------*- C++ -*----------------------------------*\
  =========                 |
  \\      /  F ield         | OpenFOAM: The Open Source CFD Toolbox
   \\    /   O peration     | Website:  https://openfoam.org
    \\  /    A nd           | Version:  7
     \\/     M anipulation  |
\*---------------------------------------------------------------------------*/
FoamFile
{
    version     2.0;
    format      ascii;
    class       volScalarField;
    location    "2.9";
    object      p;
}
// * * * * * * * * * * * * * * * * * * * * * * * * * * * * * * * * * * * * * //

dimensions      [1 -1 -2 0 0 0 0];

internalField   nonuniform List<scalar> 
22
(
1
1
1.000000634
1.000036301
1.000000001
1.00001962
1.000556639
1.000000302
1.000358553
1.005329479
1.034238054
1.000023924
1.004036617
1.031054983
1.089832203
1.000879107
1.026499914
1.10135705
1.144178005
1.014065036
1.096274738
1.173806822
)
;

boundaryField
{
    inlet
    {
        type            fixedValue;
        value           nonuniform 0();
    }
    outlet
    {
        type            zeroGradient;
    }
    bottom
    {
        type            slip;
    }
    top
    {
        type            slip;
    }
    obstacle
    {
        type            zeroGradient;
    }
    defaultFaces
    {
        type            empty;
    }
    procBoundary3to2
    {
        type            processor;
        value           nonuniform List<scalar> 5(1 0.9999999997 0.9999999997 0.999999999 0.9999999986);
    }
    procBoundary3to4
    {
        type            processor;
        value           nonuniform List<scalar> 6(1.000954713 1.007563749 1.007563749 1.092567912 1.141010529 1.143881938);
    }
    procBoundary3to8
    {
        type            processor;
        value           nonuniform List<scalar> 2(1.00000016 1.000085505);
    }
    procBoundary3to9
    {
        type            processor;
        value           nonuniform List<scalar> 5(1.168626568 1.093518918 1.185316115 1.168626568 1.180631223);
    }
}


// ************************************************************************* //
