/*--------------------------------*- C++ -*----------------------------------*\
  =========                 |
  \\      /  F ield         | OpenFOAM: The Open Source CFD Toolbox
   \\    /   O peration     | Website:  https://openfoam.org
    \\  /    A nd           | Version:  7
     \\/     M anipulation  |
\*---------------------------------------------------------------------------*/
FoamFile
{
    version     2.0;
    format      ascii;
    class       volVectorField;
    location    "4";
    object      U;
}
// * * * * * * * * * * * * * * * * * * * * * * * * * * * * * * * * * * * * * //

dimensions      [0 1 -1 0 0 0 0];

internalField   nonuniform List<vector> 
80000
(
(3 1.021819017e-15 0)
(3 -3.606766151e-15 0)
(3 -4.431377654e-15 0)
(3 -4.57244801e-15 0)
(3 -2.551423542e-15 0)
(3 -1.998299672e-15 0)
(3 8.514820348e-16 0)
(3 4.803372929e-15 0)
(3 5.286953072e-15 0)
(3 6.207345058e-15 0)
(3 7.169824435e-15 0)
(3 8.507745848e-15 0)
(3 6.348717502e-15 0)
(3 4.276549206e-15 0)
(3 3.221157129e-15 0)
(3 3.707103452e-15 0)
(3 -2.62637244e-16 0)
(3 -2.160929225e-15 0)
(3 -5.830174957e-15 0)
(3 -5.795298292e-15 0)
(3 -5.458175297e-15 0)
(3 -4.761732497e-15 0)
(3 -2.799966791e-15 0)
(3 3.579557636e-16 0)
(3 1.287746167e-15 0)
(3 6.534429024e-15 0)
(3 6.724499436e-15 0)
(3 9.408217053e-15 0)
(3 1.126555513e-14 0)
(3 8.491485211e-15 0)
(3 5.692505496e-15 0)
(3 1.947640715e-15 0)
(3 1.261566458e-15 0)
(3 -4.674200773e-16 0)
(3 -1.463504346e-15 0)
(3 -1.55126776e-15 0)
(3 -9.947672786e-16 0)
(3 -2.482877109e-15 0)
(3 -2.477084639e-15 0)
(3 -2.153699769e-15 0)
(3 -1.956819259e-15 0)
(3 -9.520913244e-16 0)
(3 -1.676888823e-15 0)
(3 -3.55115326e-15 0)
(3 -5.935520341e-15 0)
(3 -4.751510919e-15 0)
(3 -4.350474808e-15 0)
(3 -7.260730029e-15 0)
(3 -6.112027989e-15 0)
(3 -4.326789418e-15 0)
(3 -2.576096498e-15 0)
(3 -7.115291553e-16 0)
(3 2.470955e-16 0)
(3 2.650006945e-16 0)
(3 5.94113771e-16 0)
(3 -1.685135157e-15 0)
(3 -2.541937441e-15 0)
(3 -3.657644668e-15 0)
(3 -2.881312234e-15 0)
(3 -2.556829531e-15 0)
(3 -1.049503137e-15 0)
(3 -2.073499167e-15 0)
(3 -1.770685259e-15 0)
(3 -8.592625789e-16 0)
(3 3.511218682e-16 0)
(3 6.172110449e-16 0)
(3 2.352176046e-15 0)
(3 3.485396728e-15 0)
(3 8.077800508e-15 0)
(3 7.539517855e-15 0)
(3 9.178477323e-15 0)
(3 1.030164388e-14 0)
(3 9.341088903e-15 0)
(3 7.976516931e-15 0)
(3 6.905377748e-15 0)
(3 7.898359862e-15 0)
(3 9.331263237e-15 0)
(3 1.544165732e-14 0)
(3 1.248880316e-14 0)
(3 7.0246285e-15 0)
(3 4.420131089e-15 0)
(3 2.395207657e-15 0)
(3 -3.522971951e-15 0)
(3 -5.742004328e-15 0)
(3 -7.72950996e-15 0)
(3 -1.237968975e-14 0)
(3 -9.896948873e-15 0)
(3 -1.030852962e-14 0)
(3 -6.797723136e-15 0)
(3 -3.658166451e-15 0)
(3 -3.899833812e-15 0)
(3 -2.943981862e-15 0)
(3 -1.518375449e-15 0)
(3 6.533274947e-15 0)
(3 9.724448978e-15 0)
(3 1.127792236e-14 0)
(3 6.391707706e-15 0)
(3 4.848701551e-15 0)
(3 5.750256055e-15 0)
(3 5.787582014e-15 0)
(3 -1.656942136e-16 0)
(3 -2.612110523e-15 0)
(3 -2.614682869e-15 0)
(3 -2.21358309e-15 0)
(3 -1.864645669e-15 0)
(3 -1.452051272e-15 0)
(3 2.120252675e-15 0)
(3 4.738280377e-15 0)
(3 6.483440334e-15 0)
(3 6.658368229e-15 0)
(3 6.558635388e-15 0)
(3 3.720363683e-15 0)
(3 2.253706595e-15 0)
(3 1.079726792e-15 0)
(3 -8.856828788e-16 0)
(3 -2.528094667e-15 0)
(3 -5.796214702e-15 0)
(3 -7.464706769e-15 0)
(3 -7.593355148e-15 0)
(3 -6.602163484e-15 0)
(3 -4.714586068e-15 0)
(3 -3.216215092e-15 0)
(3 6.61700584e-17 0)
(3 7.6673834e-15 0)
(3 1.161386714e-14 0)
(3 2.030459626e-14 0)
(3 2.844375678e-14 0)
(3 2.876277642e-14 0)
(3 2.603697938e-14 0)
(3 2.049832812e-14 0)
(3 1.497460819e-14 0)
(3 9.446549935e-15 0)
(3 5.547356634e-15 0)
(3 1.213620531e-15 0)
(3 -2.436854722e-15 0)
(3 -5.100407839e-15 0)
(3 -7.055618314e-15 0)
(3 -8.033273079e-15 0)
(3 -6.389036421e-15 0)
(3 -6.688484496e-15 0)
(3 -5.08135228e-15 0)
(3 -3.740714117e-15 0)
(3 -1.912524652e-15 0)
(3 -2.630454718e-15 0)
(3 -5.275768763e-15 0)
(3 -6.126730946e-15 0)
(3 -1.247643376e-14 0)
(3 -1.246476329e-14 0)
(3 -1.107462259e-14 0)
(3 -1.056174768e-14 0)
(3 -8.996987845e-15 0)
(3 -6.741111295e-15 0)
(3 -4.420629806e-15 0)
(3 -1.150828364e-17 0)
(3 3.360880938e-15 0)
(3 2.520497815e-15 0)
(3 1.670025589e-15 0)
(3 -1.979210224e-15 0)
(3 -2.401375107e-15 0)
(3 -4.531538635e-15 0)
(3 -3.064973087e-15 0)
(3 -5.125468364e-15 0)
(3 -4.454982719e-15 0)
(3 -3.923090838e-15 0)
(3 2.867198449e-15 0)
(3 7.173265287e-15 0)
(3 1.104930557e-14 0)
(3 1.498918839e-14 0)
(3 1.633364234e-14 0)
(3 1.690268034e-14 0)
(3 1.591040182e-14 0)
(3 1.454106474e-14 0)
(3 1.057779135e-14 0)
(3 5.506791228e-15 0)
(3 4.355065477e-15 0)
(3 8.224698733e-15 0)
(3 1.469226547e-14 0)
(3 1.587820098e-14 0)
(3 1.194967825e-14 0)
(3 6.007482876e-15 0)
(3 -1.439248948e-15 0)
(3 -6.529852018e-15 0)
(3 -1.122079866e-14 0)
(3 -1.220866821e-14 0)
(3 -1.283121371e-14 0)
(3 -1.385023542e-14 0)
(3 -1.368777518e-14 0)
(3 -1.201441477e-14 0)
(3 -5.921687396e-15 0)
(3 -1.551408494e-15 0)
(3 -9.178697229e-16 0)
(3 -1.442403878e-15 0)
(3 3.352417526e-16 0)
(3 8.194587065e-15 0)
(3 1.423188272e-14 0)
(3 1.788864126e-14 0)
(3 9.907810216e-15 0)
(3 6.632624604e-15 0)
(3 1.023256727e-14 0)
(3 1.427521396e-14 0)
(3 -3.968075985e-16 0)
(3 1.227267613e-15 0)
(3 1.544309698e-15 0)
(3 6.733096459e-16 0)
(3 7.220146493e-16 0)
(3 2.741872543e-16 0)
(3 -1.631500305e-15 0)
(3 -1.502983858e-15 0)
(3 -9.470654371e-16 0)
(3 -7.900477257e-16 0)
(3 -4.11630064e-15 0)
(3 -5.285792097e-15 0)
(3 -6.014220344e-15 0)
(3 -3.93358515e-15 0)
(3 -3.055615502e-15 0)
(3 -2.213126094e-15 0)
(3 -3.41088519e-15 0)
(3 -1.525292053e-15 0)
(3 3.925523047e-16 0)
(3 3.527157159e-16 0)
(3 1.467694794e-15 0)
(3 2.368047308e-15 0)
(3 2.627740322e-15 0)
(3 7.317736752e-15 0)
(3 1.402834149e-14 0)
(3 2.012683167e-14 0)
(3 2.773376889e-14 0)
(3 2.830839788e-14 0)
(3 2.611649479e-14 0)
(3 1.973945098e-14 0)
(3 1.094224689e-14 0)
(3 1.493894338e-15 0)
(3 -2.327228983e-15 0)
(3 -7.439059714e-15 0)
(3 -7.461617395e-15 0)
(3 -7.061275575e-15 0)
(3 -7.053639381e-15 0)
(3 -6.249185395e-15 0)
(3 -3.727972015e-15 0)
(3 -6.358321863e-17 0)
(3 4.512613633e-15 0)
(3 5.353106585e-15 0)
(3 5.122827945e-15 0)
(3 5.061030628e-15 0)
(3 4.181421597e-15 0)
(3 -1.22413726e-15 0)
(3 -9.157640595e-15 0)
(3 -1.231837257e-14 0)
(3 -1.370291644e-14 0)
(3 -1.253394899e-14 0)
(3 -9.869633265e-15 0)
(3 -1.054536986e-14 0)
(3 -8.387682369e-15 0)
(3 -1.832096141e-15 0)
(3 -5.595026671e-17 0)
(3 1.298990818e-16 0)
(3 -1.500737102e-15 0)
(3 -4.076436051e-15 0)
(3 -5.951263428e-15 0)
(3 -7.503703055e-15 0)
(3 -8.716286216e-15 0)
(3 -5.543360465e-15 0)
(3 -4.070258384e-15 0)
(3 -3.365490944e-15 0)
(3 1.843863352e-16 0)
(3 3.439102359e-15 0)
(3 3.203267355e-15 0)
(3 4.223142423e-15 0)
(3 4.070589965e-15 0)
(3 3.290738124e-15 0)
(3 1.107632748e-15 0)
(3 1.188917586e-15 0)
(3 2.732429615e-15 0)
(3 4.922116056e-15 0)
(3 8.946056685e-15 0)
(3 1.320540283e-14 0)
(3 1.601624844e-14 0)
(3 1.371360617e-14 0)
(3 1.28583741e-14 0)
(3 9.513537073e-15 0)
(3 5.765233327e-15 0)
(3 -3.239949436e-16 0)
(3 -5.934339085e-16 0)
(3 -1.838571554e-15 0)
(3 -4.48076888e-15 0)
(3 -6.639396024e-15 0)
(3 -1.01152037e-14 0)
(3 -1.03286831e-14 0)
(3 -1.026539651e-14 0)
(3 -1.007906924e-14 0)
(3 -7.445439722e-15 0)
(3 -1.459680453e-15 0)
(3 1.109219555e-15 0)
(3 9.244189257e-15 0)
(3 1.882139096e-14 0)
(3 2.043295132e-14 0)
(3 1.612696853e-14 0)
(3 1.483403228e-14 0)
(3 1.464846573e-14 0)
(3 1.2411859e-14 0)
(3 -1.340880267e-15 0)
(3 9.215150616e-16 0)
(3 -5.48292317e-16 0)
(3 -1.14194485e-15 0)
(3 -3.031117594e-16 0)
(3 -1.302953731e-15 0)
(3 -4.346181283e-15 0)
(3 -7.555321161e-15 0)
(3 -7.267161701e-15 0)
(3 -4.970775699e-15 0)
(3 -4.575982247e-15 0)
(3 -5.059031418e-15 0)
(3 -4.874541235e-15 0)
(3 -3.256311203e-15 0)
(3 -2.008114723e-15 0)
(3 -6.349522693e-16 0)
(3 8.882687803e-16 0)
(3 4.593476396e-16 0)
(3 8.635044783e-17 0)
(3 2.916921924e-16 0)
(3 -1.681858532e-15 0)
(3 -2.781582811e-15 0)
(3 -3.223025154e-15 0)
(3 -4.387334346e-15 0)
(3 -2.353118109e-15 0)
(3 2.215475444e-15 0)
(3 5.579229006e-15 0)
(3 1.123212133e-14 0)
(3 1.387729966e-14 0)
(3 1.4098525e-14 0)
(3 9.848010487e-15 0)
(3 4.275704717e-15 0)
(3 -2.56925518e-15 0)
(3 -6.411303771e-15 0)
(3 -9.746681572e-15 0)
(3 -1.235669067e-14 0)
(3 -1.224596121e-14 0)
(3 -1.206879471e-14 0)
(3 -1.022700167e-14 0)
(3 -5.816722757e-15 0)
(3 -4.750683913e-15 0)
(3 -2.931742885e-15 0)
(3 -6.551613502e-16 0)
(3 4.309214535e-15 0)
(3 7.832256711e-15 0)
(3 3.966213397e-15 0)
(3 4.518072757e-15 0)
(3 -2.395650616e-15 0)
(3 -4.407341102e-15 0)
(3 -3.012402978e-15 0)
(3 -2.210634789e-15 0)
(3 -3.887654729e-15 0)
(3 -3.715838106e-15 0)
(3 -4.151596205e-15 0)
(3 -5.589131274e-15 0)
(3 -6.262516403e-15 0)
(3 -7.251676469e-15 0)
(3 -6.371888374e-15 0)
(3 -7.102023225e-15 0)
(3 -5.057588182e-15 0)
(3 -7.376694417e-15 0)
(3 -6.446286338e-15 0)
(3 -7.161795063e-15 0)
(3 -3.792366876e-15 0)
(3 -7.597258084e-15 0)
(3 -4.917606652e-15 0)
(3 -5.891508002e-15 0)
(3 -9.891901857e-15 0)
(3 -1.014376536e-14 0)
(3 -1.168699054e-14 0)
(3 -1.040587395e-14 0)
(3 -5.977268471e-15 0)
(3 -2.198561642e-15 0)
(3 6.985590875e-15 0)
(3 1.184923078e-14 0)
(3 1.115051264e-14 0)
(3 9.059169817e-15 0)
(3 8.780649379e-15 0)
(3 1.042966276e-14 0)
(3 1.27974441e-14 0)
(3 1.347618583e-14 0)
(3 1.226536639e-14 0)
(3 1.068517752e-14 0)
(3 7.875640649e-15 0)
(3 6.826641001e-15 0)
(3 4.551540347e-15 0)
(3 -3.019067699e-15 0)
(3 -6.624592487e-15 0)
(3 -6.263883502e-15 0)
(3 -5.301700555e-15 0)
(3 -2.877612181e-15 0)
(3 4.56525495e-15 0)
(3 1.263447876e-14 0)
(3 2.011731937e-14 0)
(3 2.411193709e-14 0)
(3 2.179224382e-14 0)
(3 2.162717968e-14 0)
(3 2.081162754e-14 0)
(3 1.767202953e-14 0)
(3 1.141956927e-14 0)
(3 2.104535513e-16 0)
(3 1.324586593e-16 0)
(3 -7.697957409e-16 0)
(3 -1.083024897e-15 0)
(3 -1.480073258e-15 0)
(3 -2.208970354e-15 0)
(3 -1.953886976e-15 0)
(3 -2.613645342e-15 0)
(3 -3.463927976e-16 0)
(3 -7.974052395e-16 0)
(3 1.42283943e-15 0)
(3 2.996013804e-15 0)
(3 5.267223339e-15 0)
(3 5.910304668e-15 0)
(3 4.940983248e-15 0)
(3 4.719073328e-15 0)
(3 3.756128205e-15 0)
(3 2.61911295e-15 0)
(3 7.8678566e-16 0)
(3 5.88662851e-16 0)
(3 -1.106629549e-16 0)
(3 -1.323964796e-15 0)
(3 -2.320155904e-15 0)
(3 -8.89306945e-15 0)
(3 -1.246001551e-14 0)
(3 -1.456383705e-14 0)
(3 -1.220681347e-14 0)
(3 -1.263948675e-14 0)
(3 -8.378802058e-15 0)
(3 -2.296086053e-15 0)
(3 -5.754389124e-16 0)
(3 2.450535804e-15 0)
(3 5.609405765e-15 0)
(3 4.09630923e-15 0)
(3 -4.582449439e-16 0)
(3 -2.441561727e-15 0)
(3 -6.745487474e-15 0)
(3 -8.014331057e-15 0)
(3 -7.185430448e-15 0)
(3 -6.884610634e-15 0)
(3 -5.789708675e-15 0)
(3 -3.503591137e-15 0)
(3 -1.479485026e-15 0)
(3 1.644824459e-15 0)
(3 2.492600585e-15 0)
(3 3.791668193e-15 0)
(3 6.238642388e-15 0)
(3 6.790952561e-15 0)
(3 4.632089961e-15 0)
(3 4.972639886e-15 0)
(3 3.300592889e-15 0)
(3 4.112187752e-15 0)
(3 2.87445794e-15 0)
(3 -8.161420553e-16 0)
(3 -2.784516864e-15 0)
(3 -3.264294361e-15 0)
(3 -1.74111437e-15 0)
(3 -1.459063505e-15 0)
(3 -2.367492564e-15 0)
(3 -4.099909883e-15 0)
(3 -7.067263842e-15 0)
(3 -9.446495814e-15 0)
(3 -1.208971532e-14 0)
(3 -1.238013601e-14 0)
(3 -1.186106838e-14 0)
(3 -1.012886455e-14 0)
(3 -9.541958158e-15 0)
(3 -1.288734828e-14 0)
(3 -1.596890907e-14 0)
(3 -1.381438854e-14 0)
(3 -8.428248682e-15 0)
(3 9.469556508e-16 0)
(3 5.789118974e-15 0)
(3 5.358440434e-15 0)
(3 5.583169794e-15 0)
(3 2.209759139e-15 0)
(3 2.443674305e-15 0)
(3 6.149028405e-15 0)
(3 8.857304214e-15 0)
(3 1.547595974e-14 0)
(3 1.956183365e-14 0)
(3 1.916858738e-14 0)
(3 1.529771894e-14 0)
(3 1.430441562e-14 0)
(3 1.203508378e-14 0)
(3 1.215388582e-14 0)
(3 8.007892751e-15 0)
(3 1.808367232e-15 0)
(3 -1.664924551e-16 0)
(3 3.428005734e-15 0)
(3 7.709801728e-15 0)
(3 1.569494085e-14 0)
(3 2.234624203e-14 0)
(3 2.536741323e-14 0)
(3 2.568174177e-14 0)
(3 2.40682314e-14 0)
(3 2.137565029e-14 0)
(3 1.866340059e-14 0)
(3 1.990106024e-14 0)
(3 1.947498164e-14 0)
(3 8.331342325e-16 0)
(3 1.789357186e-15 0)
(3 2.123057467e-15 0)
(3 5.857109767e-16 0)
(3 1.473848384e-16 0)
(3 4.947235079e-16 0)
(3 5.4191629e-15 0)
(3 8.171776255e-15 0)
(3 8.188499107e-15 0)
(3 6.395852444e-15 0)
(3 6.765980531e-15 0)
(3 8.89315824e-15 0)
(3 1.01541049e-14 0)
(3 1.095234831e-14 0)
(3 1.017588731e-14 0)
(3 1.156102575e-14 0)
(3 8.238254193e-15 0)
(3 6.617400973e-15 0)
(3 3.960294001e-15 0)
(3 1.593694721e-15 0)
(3 2.295532108e-16 0)
(3 -1.667182482e-15 0)
(3 -4.756792772e-15 0)
(3 -8.725352972e-15 0)
(3 -1.329024721e-14 0)
(3 -1.67443378e-14 0)
(3 -2.081879204e-14 0)
(3 -2.104468157e-14 0)
(3 -1.951047525e-14 0)
(3 -1.214607128e-14 0)
(3 -4.795249692e-15 0)
(3 1.243441814e-15 0)
(3 2.988196674e-15 0)
(3 2.68358825e-15 0)
(3 2.289323199e-15 0)
(3 2.072907083e-15 0)
(3 3.713990056e-16 0)
(3 -1.883897042e-15 0)
(3 -2.228328944e-15 0)
(3 -5.304409005e-15 0)
(3 -5.948081419e-15 0)
(3 -5.418038705e-15 0)
(3 -3.304189543e-15 0)
(3 -1.774813857e-15 0)
(3 -2.981862785e-15 0)
(3 2.087077031e-15 0)
(3 3.120066411e-15 0)
(3 4.989360583e-15 0)
(3 7.24603681e-15 0)
(3 7.753919482e-15 0)
(3 6.20700838e-15 0)
(3 5.678716595e-15 0)
(3 6.080720432e-15 0)
(3 5.264082989e-15 0)
(3 5.784955228e-15 0)
(3 9.443662863e-15 0)
(3 8.676891156e-15 0)
(3 6.513462695e-15 0)
(3 4.577316972e-16 0)
(3 -7.546204455e-15 0)
(3 -1.46228006e-14 0)
(3 -1.370653762e-14 0)
(3 -1.15828327e-14 0)
(3 -1.258561245e-14 0)
(3 -1.242464425e-14 0)
(3 -1.251470006e-14 0)
(3 -9.372074051e-15 0)
(3 -9.021556963e-15 0)
(3 -7.453887619e-15 0)
(3 -6.130407583e-15 0)
(3 -2.220685952e-15 0)
(3 -9.666390269e-16 0)
(3 -2.020989762e-15 0)
(3 -5.170938114e-15 0)
(3 -7.530773676e-15 0)
(3 -7.168206094e-15 0)
(3 -1.867335805e-15 0)
(3 2.584509599e-15 0)
(3 8.145725024e-15 0)
(3 8.945815882e-15 0)
(3 9.999660948e-15 0)
(3 1.018818047e-14 0)
(3 1.284415071e-14 0)
(3 1.437491292e-14 0)
(3 1.224527448e-14 0)
(3 1.072267018e-14 0)
(3 1.380867883e-14 0)
(3 1.148528961e-14 0)
(3 9.6289607e-15 0)
(3 1.313909577e-14 0)
(3 1.980534377e-14 0)
(3 2.639084007e-14 0)
(3 2.870024372e-14 0)
(3 3.175792163e-14 0)
(3 3.938282919e-14 0)
(3 4.408362934e-14 0)
(3 3.617661031e-14 0)
(3 2.583022754e-14 0)
(3 2.084623302e-14 0)
(3 1.577552157e-14 0)
(3 -1.287802409e-16 0)
(3 2.240119531e-16 0)
(3 1.057016333e-15 0)
(3 5.94247993e-16 0)
(3 -2.834532599e-16 0)
(3 -1.346185185e-15 0)
(3 7.015506687e-17 0)
(3 1.882070148e-15 0)
(3 8.561839163e-16 0)
(3 1.492576954e-15 0)
(3 1.177956187e-15 0)
(3 1.489930528e-15 0)
(3 2.586698232e-15 0)
(3 6.599408322e-15 0)
(3 9.451268536e-15 0)
(3 1.214179892e-14 0)
(3 1.186708744e-14 0)
(3 1.002131605e-14 0)
(3 5.856805834e-15 0)
(3 2.293412314e-15 0)
(3 -9.9964492e-16 0)
(3 -3.0282331e-15 0)
(3 -4.384581325e-15 0)
(3 -5.774568415e-15 0)
(3 -8.03583113e-15 0)
(3 -1.154560965e-14 0)
(3 -1.583583025e-14 0)
(3 -1.507605243e-14 0)
(3 -1.417394223e-14 0)
(3 -1.07127758e-14 0)
(3 -4.185731862e-15 0)
(3 -2.666458549e-15 0)
(3 -1.537588583e-15 0)
(3 -1.533873735e-15 0)
(3 1.599906308e-15 0)
(3 3.568677294e-15 0)
(3 5.237234382e-15 0)
(3 4.558703893e-15 0)
(3 5.167375992e-15 0)
(3 3.297288578e-15 0)
(3 1.169357101e-15 0)
(3 8.144070691e-16 0)
(3 -4.333633541e-16 0)
(3 -1.421521146e-15 0)
(3 -5.085885362e-15 0)
(3 -4.86565614e-15 0)
(3 -2.89687386e-15 0)
(3 -4.212903823e-17 0)
(3 1.125194907e-15 0)
(3 6.54303475e-16 0)
(3 -5.828688581e-16 0)
(3 8.406766177e-16 0)
(3 1.492515566e-15 0)
(3 5.012034783e-15 0)
(3 8.458647533e-15 0)
(3 8.722846337e-15 0)
(3 7.227738375e-15 0)
(3 5.718455895e-15 0)
(3 2.108915408e-15 0)
(3 8.049688349e-16 0)
(3 -6.490013782e-15 0)
(3 -7.80577183e-15 0)
(3 -4.250279163e-15 0)
(3 -3.24313401e-15 0)
(3 -6.888253697e-15 0)
(3 -9.556078541e-15 0)
(3 -6.096029843e-15 0)
(3 -4.684565107e-15 0)
(3 -7.950952633e-17 0)
(3 -1.931650737e-15 0)
(3 -2.676908499e-15 0)
(3 -6.051657644e-15 0)
(3 -1.026457004e-14 0)
(3 -1.125593147e-14 0)
(3 -1.252359641e-14 0)
(3 -1.25417993e-14 0)
(3 -1.226852414e-14 0)
(3 -1.208049776e-14 0)
(3 -7.902933086e-15 0)
(3 -2.443770629e-15 0)
(3 5.448272988e-15 0)
(3 8.422819955e-15 0)
(3 6.296629331e-15 0)
(3 5.056027051e-15 0)
(3 4.924979082e-15 0)
(3 7.054919172e-15 0)
(3 1.214318906e-14 0)
(3 1.933190667e-14 0)
(3 2.171812818e-14 0)
(3 2.333749316e-14 0)
(3 2.662795318e-14 0)
(3 2.977073191e-14 0)
(3 3.22102986e-14 0)
(3 3.065912675e-14 0)
(3 3.054324957e-14 0)
(3 2.88567448e-14 0)
(3 2.078615698e-14 0)
(3 1.888993252e-14 0)
(3 1.608519563e-14 0)
(3 1.147765447e-14 0)
(3 -6.480182188e-16 0)
(3 -1.817596015e-15 0)
(3 -3.662515296e-16 0)
(3 -1.016385163e-15 0)
(3 -1.216525061e-15 0)
(3 -4.648651714e-15 0)
(3 -6.349117827e-15 0)
(3 -6.080053946e-15 0)
(3 -5.165812235e-15 0)
(3 -2.328316219e-15 0)
(3 -2.189071527e-15 0)
(3 -2.425441424e-15 0)
(3 -1.014841336e-15 0)
(3 1.005665538e-15 0)
(3 3.194174019e-15 0)
(3 4.974133009e-15 0)
(3 7.372030472e-15 0)
(3 8.107903226e-15 0)
(3 6.87913626e-15 0)
(3 6.693559285e-15 0)
(3 4.592081757e-15 0)
(3 1.340773747e-15 0)
(3 2.470915213e-15 0)
(3 4.333017346e-15 0)
(3 6.25560647e-15 0)
(3 3.805761249e-15 0)
(3 1.765347537e-15 0)
(3 -2.454320157e-15 0)
(3 -4.658607918e-15 0)
(3 -3.980459579e-15 0)
(3 -4.155873578e-15 0)
(3 -4.618317772e-15 0)
(3 -2.88122386e-15 0)
(3 -2.117549103e-15 0)
(3 -5.069111559e-16 0)
(3 -2.663975998e-15 0)
(3 1.855462645e-15 0)
(3 2.835351869e-15 0)
(3 1.775278494e-15 0)
(3 8.916899384e-16 0)
(3 -5.664370403e-16 0)
(3 -2.782975876e-15 0)
(3 -4.603441467e-15 0)
(3 -6.319731932e-15 0)
(3 -1.013054474e-14 0)
(3 -1.269047562e-14 0)
(3 -1.049442566e-14 0)
(3 -7.656469843e-15 0)
(3 -5.394329974e-15 0)
(3 -5.070396276e-15 0)
(3 -2.001362289e-15 0)
(3 1.276286512e-15 0)
(3 3.244763439e-15 0)
(3 6.264127609e-15 0)
(3 6.124002999e-15 0)
(3 5.603366648e-15 0)
(3 5.307693944e-15 0)
(3 4.419057667e-16 0)
(3 7.674005112e-16 0)
(3 1.392502609e-16 0)
(3 9.085784475e-16 0)
(3 2.672756905e-15 0)
(3 5.470209127e-15 0)
(3 5.153107958e-15 0)
(3 6.258418612e-15 0)
(3 8.835206455e-15 0)
(3 6.272690646e-15 0)
(3 3.937065258e-15 0)
(3 2.706572312e-15 0)
(3 1.069890922e-15 0)
(3 -5.26589802e-15 0)
(3 -7.45773332e-15 0)
(3 -3.882732795e-15 0)
(3 -3.486013762e-15 0)
(3 -3.612455186e-15 0)
(3 -1.020124518e-14 0)
(3 -1.380981568e-14 0)
(3 -1.277481365e-14 0)
(3 -9.212132069e-15 0)
(3 -5.662589916e-15 0)
(3 -9.363863479e-16 0)
(3 -1.932303578e-15 0)
(3 1.297696557e-16 0)
(3 -1.047556761e-15 0)
(3 3.148825725e-15 0)
(3 4.892228344e-15 0)
(3 8.926752513e-15 0)
(3 1.345664893e-14 0)
(3 1.777320229e-14 0)
(3 1.922911022e-14 0)
(3 2.425291654e-14 0)
(3 2.602740101e-14 0)
(3 2.456227384e-14 0)
(3 2.251559474e-14 0)
(3 1.714759867e-14 0)
(3 1.447071934e-14 0)
(3 1.10739099e-14 0)
(3 8.407136053e-15 0)
(3 7.886577088e-15 0)
(3 8.698077678e-15 0)
(3 1.39273665e-15 0)
(3 1.085612486e-15 0)
(3 1.715662008e-15 0)
(3 -5.185489897e-16 0)
(3 -5.717152711e-16 0)
(3 3.976601576e-16 0)
(3 -5.82971752e-16 0)
(3 -1.288290094e-15 0)
(3 1.702129848e-16 0)
(3 1.233965705e-15 0)
(3 1.34076532e-15 0)
(3 2.48703681e-15 0)
(3 1.54571891e-15 0)
(3 4.35878133e-16 0)
(3 5.889686875e-16 0)
(3 3.012849938e-16 0)
(3 6.973954391e-16 0)
(3 1.744756095e-15 0)
(3 1.578908391e-15 0)
(3 2.618884223e-15 0)
(3 4.096123356e-15 0)
(3 6.897986449e-15 0)
(3 7.8763797e-15 0)
(3 1.267071384e-14 0)
(3 1.586230803e-14 0)
(3 1.419901359e-14 0)
(3 9.209370523e-15 0)
(3 5.298100392e-15 0)
(3 -1.283264873e-15 0)
(3 -3.284883331e-15 0)
(3 -3.041875712e-15 0)
(3 -2.911161847e-15 0)
(3 -5.362958817e-15 0)
(3 -5.351247805e-15 0)
(3 -5.141677115e-15 0)
(3 -7.390087104e-15 0)
(3 -5.595365738e-15 0)
(3 -4.132455886e-15 0)
(3 -7.167167637e-15 0)
(3 -6.233617532e-15 0)
(3 -6.697438323e-15 0)
(3 -9.304951558e-15 0)
(3 -1.328051461e-14 0)
(3 -1.282510241e-14 0)
(3 -1.086281159e-14 0)
(3 -1.433098042e-14 0)
(3 -1.645205603e-14 0)
(3 -1.583554583e-14 0)
(3 -1.256532387e-14 0)
(3 -8.372207431e-15 0)
(3 -3.358406485e-15 0)
(3 3.762188964e-15 0)
(3 9.346890644e-15 0)
(3 1.163924763e-14 0)
(3 9.359660597e-15 0)
(3 5.971724848e-15 0)
(3 3.038865691e-15 0)
(3 1.669029832e-15 0)
(3 1.038477616e-15 0)
(3 2.981023758e-15 0)
(3 4.510191414e-15 0)
(3 6.919925063e-15 0)
(3 8.767659759e-15 0)
(3 9.484566578e-15 0)
(3 9.751801668e-15 0)
(3 1.070679042e-14 0)
(3 1.02534643e-14 0)
(3 1.353956829e-14 0)
(3 1.277669353e-14 0)
(3 1.234368834e-14 0)
(3 7.771058103e-15 0)
(3 5.288999756e-15 0)
(3 8.101570678e-15 0)
(3 5.345000879e-15 0)
(3 3.041334086e-15 0)
(3 -1.625422319e-15 0)
(3 -2.994059245e-15 0)
(3 5.682996804e-16 0)
(3 -4.86302099e-16 0)
(3 -1.264252347e-15 0)
(3 -6.368084737e-15 0)
(3 -1.13065585e-14 0)
(3 -7.043319155e-15 0)
(3 -7.349589632e-15 0)
(3 -1.825037499e-15 0)
(3 2.928592761e-16 0)
(3 4.692040872e-15 0)
(3 3.97635121e-15 0)
(3 6.262460561e-15 0)
(3 7.117139691e-15 0)
(3 7.062407975e-15 0)
(3 6.956835635e-15 0)
(3 3.754931165e-15 0)
(3 6.205065657e-15 0)
(3 8.225711559e-15 0)
(3 7.992296901e-15 0)
(3 4.328796817e-15 0)
(3 3.152901948e-15 0)
(3 5.477448168e-15 0)
(3 6.73793255e-15 0)
(3 1.767640438e-16 0)
(3 -1.78757798e-16 0)
(3 -1.98006628e-16 0)
(3 1.505278834e-15 0)
(3 1.698545356e-15 0)
(3 4.12555233e-15 0)
(3 3.587994927e-15 0)
(3 2.582096753e-15 0)
(3 2.282786835e-15 0)
(3 2.526452866e-15 0)
(3 6.524161952e-15 0)
(3 6.668264447e-15 0)
(3 4.811157477e-15 0)
(3 2.128969712e-15 0)
(3 1.750001656e-15 0)
(3 -4.045622104e-16 0)
(3 -1.196890721e-15 0)
(3 -1.709563523e-15 0)
(3 -1.046955567e-15 0)
(3 -3.187760667e-15 0)
(3 -3.787781705e-15 0)
(3 -3.615621203e-15 0)
(3 -3.627082045e-15 0)
(3 -2.17223347e-15 0)
(3 -8.768952944e-17 0)
(3 3.487480062e-15 0)
(3 3.740212645e-15 0)
(3 1.704445033e-15 0)
(3 -1.419727685e-15 0)
(3 -6.263776412e-15 0)
(3 -1.008154037e-14 0)
(3 -1.021726103e-14 0)
(3 -1.003768872e-14 0)
(3 -1.02237378e-14 0)
(3 -1.246242143e-14 0)
(3 -1.091473482e-14 0)
(3 -1.038958983e-14 0)
(3 -9.397864113e-15 0)
(3 -7.246605791e-15 0)
(3 -3.510712759e-15 0)
(3 -1.950059417e-15 0)
(3 9.989701269e-16 0)
(3 4.074631952e-15 0)
(3 7.315286202e-15 0)
(3 9.743356495e-15 0)
(3 8.943776905e-15 0)
(3 4.655304958e-15 0)
(3 -1.71250106e-15 0)
(3 -4.904066612e-15 0)
(3 -8.209750234e-15 0)
(3 -6.767953792e-15 0)
(3 -6.174414607e-15 0)
(3 -3.422051511e-15 0)
(3 -1.096485277e-15 0)
(3 -2.191734899e-15 0)
(3 -7.438955089e-16 0)
(3 -4.503635716e-15 0)
(3 4.423967846e-16 0)
(3 -5.167672007e-16 0)
(3 5.856499459e-16 0)
(3 -1.327928257e-16 0)
(3 1.543352335e-15 0)
(3 2.375713423e-15 0)
(3 5.742676079e-15 0)
(3 8.388387289e-15 0)
(3 9.011191985e-15 0)
(3 8.112998025e-15 0)
(3 8.942318366e-15 0)
(3 8.902277263e-15 0)
(3 8.958921e-15 0)
(3 1.086771112e-14 0)
(3 1.142729666e-14 0)
(3 1.294066318e-14 0)
(3 1.678887462e-14 0)
(3 1.809371043e-14 0)
(3 1.784124506e-14 0)
(3 1.446366385e-14 0)
(3 1.233808586e-14 0)
(3 7.881593619e-15 0)
(3 3.358284657e-15 0)
(3 -1.005476748e-14 0)
(3 -1.478101121e-14 0)
(3 -1.287243786e-14 0)
(3 -9.952308935e-15 0)
(3 -1.067779009e-14 0)
(3 -6.552297475e-15 0)
(3 -1.947386841e-15 0)
(3 2.209867388e-16 0)
(3 -3.707396311e-16 0)
(3 -1.265600214e-15 0)
(3 -5.87739609e-15 0)
(3 -9.110255384e-15 0)
(3 -1.389487751e-14 0)
(3 -1.424134629e-14 0)
(3 -1.100339559e-14 0)
(3 -8.925826052e-15 0)
(3 -7.084855915e-15 0)
(3 -6.037410897e-15 0)
(3 -2.042650125e-15 0)
(3 5.529918752e-15 0)
(3 -6.095300221e-16 0)
(3 -3.222017595e-15 0)
(3 -3.910646584e-15 0)
(3 -1.485342298e-15 0)
(3 -5.81184762e-17 0)
(3 5.208275668e-16 0)
(3 1.635866372e-15 0)
(3 2.374263719e-15 0)
(3 4.972785579e-16 0)
(3 1.712151766e-15 0)
(3 2.977840926e-15 0)
(3 1.714480871e-15 0)
(3 -6.687754866e-16 0)
(3 -5.959284316e-16 0)
(3 -3.458311015e-16 0)
(3 -3.618858147e-16 0)
(3 -5.045306136e-17 0)
(3 -5.534055842e-16 0)
(3 -2.093206318e-15 0)
(3 -3.637337087e-15 0)
(3 -4.817097007e-15 0)
(3 -6.959833071e-15 0)
(3 -6.69999728e-15 0)
(3 -7.818598802e-15 0)
(3 -1.030173547e-14 0)
(3 -8.17236006e-15 0)
(3 -7.807471922e-15 0)
(3 -7.747466816e-15 0)
(3 -8.058287772e-15 0)
(3 -9.592576401e-15 0)
(3 -1.481700824e-14 0)
(3 -1.413640895e-14 0)
(3 -1.270897928e-14 0)
(3 -1.168235935e-14 0)
(3 -1.278254338e-14 0)
(3 -1.480616401e-14 0)
(3 -1.563611048e-14 0)
(3 -1.135853199e-14 0)
(3 -9.11384923e-15 0)
(3 -7.293612836e-15 0)
(3 -5.722278541e-15 0)
(3 -3.705477793e-15 0)
(3 -2.469772357e-15 0)
(3 -6.069625985e-17 0)
(3 1.558586346e-15 0)
(3 2.635363142e-15 0)
(3 4.389059991e-15 0)
(3 3.339937557e-15 0)
(3 7.019391487e-16 0)
(3 -1.534196334e-15 0)
(3 -7.07715329e-16 0)
(3 -4.215858848e-15 0)
(3 -2.468105377e-15 0)
(3 -3.648974775e-15 0)
(3 -3.051375594e-15 0)
(3 -8.087116737e-16 0)
(3 -2.36775963e-15 0)
(3 -5.786074352e-15 0)
(3 -7.273117397e-15 0)
(3 -5.451989878e-15 0)
(3 -2.589024066e-15 0)
(3 -1.543237336e-15 0)
(3 9.741459935e-16 0)
(3 8.004117601e-15 0)
(3 1.625297023e-14 0)
(3 1.602833201e-14 0)
(3 1.552438491e-14 0)
(3 1.098000254e-14 0)
(3 1.004262609e-14 0)
(3 1.194347879e-14 0)
(3 1.52323003e-14 0)
(3 1.960191939e-14 0)
(3 2.025604422e-14 0)
(3 2.531815293e-14 0)
(3 3.146227942e-14 0)
(3 3.302589398e-14 0)
(3 2.140188731e-14 0)
(3 1.312677328e-14 0)
(3 5.52219459e-15 0)
(3 -2.031300889e-15 0)
(3 -1.060906528e-15 0)
(3 1.520554358e-15 0)
(3 8.974107109e-16 0)
(3 -1.367862965e-15 0)
(3 -4.631495901e-15 0)
(3 -7.170711659e-15 0)
(3 -6.099227412e-15 0)
(3 -3.726353007e-15 0)
(3 -5.897535231e-15 0)
(3 -7.411663864e-15 0)
(3 -1.335078429e-14 0)
(3 -1.535862735e-14 0)
(3 -1.604032373e-14 0)
(3 -1.973361848e-14 0)
(3 -1.903443613e-14 0)
(3 -1.342838954e-14 0)
(3 -4.807850634e-15 0)
(3 -5.71962897e-16 0)
(3 -1.914282688e-15 0)
(3 -1.288481811e-15 0)
(3 1.39624995e-15 0)
(3 9.427333577e-16 0)
(3 9.405022312e-17 0)
(3 -1.621156266e-15 0)
(3 -1.294336789e-15 0)
(3 -2.570177392e-15 0)
(3 -9.301799941e-16 0)
(3 -1.84980273e-16 0)
(3 2.0076753e-16 0)
(3 -1.533195416e-15 0)
(3 -5.766915955e-15 0)
(3 -7.391360833e-15 0)
(3 -8.866959488e-15 0)
(3 -6.626877393e-15 0)
(3 -7.685987471e-15 0)
(3 -1.090444153e-14 0)
(3 -1.075481937e-14 0)
(3 -9.441459757e-15 0)
(3 -1.179169996e-14 0)
(3 -1.037809886e-14 0)
(3 -1.06579278e-14 0)
(3 -7.763488735e-15 0)
(3 -8.032713587e-15 0)
(3 -6.027315021e-15 0)
(3 -6.287237325e-15 0)
(3 -8.84600603e-15 0)
(3 -1.148309973e-14 0)
(3 -1.144005019e-14 0)
(3 -1.051625054e-14 0)
(3 -9.933263014e-15 0)
(3 -8.764238873e-15 0)
(3 -1.008897238e-14 0)
(3 -1.39365466e-14 0)
(3 -1.297782275e-14 0)
(3 -9.272641004e-15 0)
(3 -6.869788306e-15 0)
(3 -4.95092063e-15 0)
(3 -5.885514788e-15 0)
(3 -4.287197049e-15 0)
(3 -4.632998744e-15 0)
(3 -2.444119925e-15 0)
(3 2.486279706e-15 0)
(3 3.096889513e-15 0)
(3 4.047252713e-15 0)
(3 2.284685087e-15 0)
(3 3.183667725e-15 0)
(3 5.486165771e-15 0)
(3 5.830965298e-15 0)
(3 2.39120748e-15 0)
(3 2.459641393e-16 0)
(3 -3.463991983e-15 0)
(3 -5.901242723e-15 0)
(3 -2.670545012e-15 0)
(3 -1.211071774e-15 0)
(3 -2.965526882e-15 0)
(3 -5.876688774e-15 0)
(3 -1.09744974e-14 0)
(3 -1.437604978e-14 0)
(3 -1.124190733e-14 0)
(3 -6.889005644e-15 0)
(3 5.477376322e-16 0)
(3 3.808829641e-15 0)
(3 9.996521138e-15 0)
(3 1.313468787e-14 0)
(3 1.795316694e-14 0)
(3 2.6585555e-14 0)
(3 2.530395884e-14 0)
(3 1.965414427e-14 0)
(3 1.159630395e-14 0)
(3 9.784833933e-15 0)
(3 9.821776513e-15 0)
(3 1.393069425e-14 0)
(3 2.114586326e-14 0)
(3 2.958382114e-14 0)
(3 3.209587477e-14 0)
(3 2.826450823e-14 0)
(3 2.010220137e-14 0)
(3 1.243354829e-14 0)
(3 5.532110172e-15 0)
(3 5.697320119e-15 0)
(3 6.737155106e-15 0)
(3 9.365146408e-15 0)
(3 1.123300313e-14 0)
(3 5.013938202e-15 0)
(3 2.281724772e-15 0)
(3 -1.650377937e-15 0)
(3 -8.761377965e-15 0)
(3 -8.799890621e-15 0)
(3 -8.192618863e-15 0)
(3 -8.033025044e-15 0)
(3 -9.639828199e-15 0)
(3 -1.282378521e-14 0)
(3 -1.731337585e-14 0)
(3 -1.978795646e-14 0)
(3 -2.061322338e-14 0)
(3 -1.879016668e-14 0)
(3 -1.566675712e-14 0)
(3 -1.410949907e-14 0)
(3 -1.060029117e-14 0)
(3 -3.934398174e-15 0)
(3 -4.738585482e-16 0)
(3 -4.661029867e-16 0)
(3 -4.595010857e-16 0)
(3 -1.488971604e-15 0)
(3 -1.549485462e-15 0)
(3 -2.145335001e-15 0)
(3 -1.50322138e-15 0)
(3 -2.386452131e-15 0)
(3 -2.17612654e-15 0)
(3 -2.126788229e-15 0)
(3 -4.290854651e-15 0)
(3 -4.839407917e-15 0)
(3 -5.229773729e-15 0)
(3 -9.695519999e-15 0)
(3 -1.49239326e-14 0)
(3 -1.596244821e-14 0)
(3 -1.740794278e-14 0)
(3 -1.657097254e-14 0)
(3 -1.441207134e-14 0)
(3 -1.415971331e-14 0)
(3 -1.139985089e-14 0)
(3 -7.396363784e-15 0)
(3 -4.866876686e-15 0)
(3 -6.795021388e-15 0)
(3 -7.179960358e-15 0)
(3 -5.041925215e-15 0)
(3 -1.790526095e-15 0)
(3 -4.438852853e-15 0)
(3 -8.882276118e-15 0)
(3 -9.652006509e-15 0)
(3 -9.428951334e-15 0)
(3 -1.026876606e-14 0)
(3 -1.050858071e-14 0)
(3 -7.192618552e-15 0)
(3 -4.940954139e-15 0)
(3 -2.279119791e-15 0)
(3 -2.279687888e-15 0)
(3 -4.579634504e-15 0)
(3 -3.424470765e-15 0)
(3 1.248613188e-15 0)
(3 4.8771258e-15 0)
(3 8.207198039e-15 0)
(3 1.03818854e-14 0)
(3 9.583533644e-15 0)
(3 6.977945521e-15 0)
(3 6.654441884e-15 0)
(3 2.346047084e-15 0)
(3 -3.917898276e-16 0)
(3 -2.724740633e-15 0)
(3 -7.268967863e-15 0)
(3 -8.980134506e-15 0)
(3 -7.444117809e-15 0)
(3 -7.790042817e-15 0)
(3 -6.717919393e-15 0)
(3 -7.714472165e-15 0)
(3 -1.0978435e-14 0)
(3 -1.636627689e-14 0)
(3 -1.907090459e-14 0)
(3 -1.669702985e-14 0)
(3 -1.161569155e-14 0)
(3 -8.399776989e-15 0)
(3 -5.881828372e-15 0)
(3 -4.2767847e-15 0)
(3 -6.510329025e-15 0)
(3 -2.954171117e-15 0)
(3 7.655535387e-15 0)
(3 1.20670337e-14 0)
(3 1.124486904e-14 0)
(3 8.073727882e-15 0)
(3 6.522315877e-15 0)
(3 5.708838292e-15 0)
(3 7.70123472e-15 0)
(3 8.040192842e-15 0)
(3 1.334441657e-14 0)
(3 1.801622732e-14 0)
(3 1.603846852e-14 0)
(3 1.387995017e-14 0)
(3 1.154925649e-14 0)
(3 1.022250838e-14 0)
(3 1.175802548e-14 0)
(3 1.325704053e-14 0)
(3 1.604803529e-14 0)
(3 1.377025526e-14 0)
(3 9.281076407e-15 0)
(3 5.914216826e-15 0)
(3 4.565845833e-15 0)
(3 1.619685336e-15 0)
(3 -3.976346166e-15 0)
(3 -8.906374427e-15 0)
(3 -6.154434797e-15 0)
(3 -4.959132672e-15 0)
(3 -1.130443623e-14 0)
(3 -2.040461323e-14 0)
(3 -2.398051725e-14 0)
(3 -2.216614724e-14 0)
(3 -2.382135574e-14 0)
(3 -2.071766839e-14 0)
(3 -1.330045109e-14 0)
(3 -8.337454337e-15 0)
(3 -6.688068496e-15 0)
(3 -1.019093102e-15 0)
(3 -2.378561585e-15 0)
(3 -1.07852204e-15 0)
(3 -1.181441501e-15 0)
(3 -1.23703508e-15 0)
(3 4.439991064e-16 0)
(3 -7.10568504e-16 0)