/*--------------------------------*- C++ -*----------------------------------*\
  =========                 |
  \\      /  F ield         | OpenFOAM: The Open Source CFD Toolbox
   \\    /   O peration     | Website:  https://openfoam.org
    \\  /    A nd           | Version:  7
     \\/     M anipulation  |
\*---------------------------------------------------------------------------*/
FoamFile
{
    version     2.0;
    format      ascii;
    class       volScalarField;
    location    "2.9";
    object      rho;
}
// * * * * * * * * * * * * * * * * * * * * * * * * * * * * * * * * * * * * * //

dimensions      [1 -3 0 0 0 0 0];

internalField   nonuniform List<scalar> 8(1.353013602 1.349959346 1.431849198 1.395462727 1.450116033 1.44440172 1.453489144 1.471229806);

boundaryField
{
    inlet
    {
        type            calculated;
        value           nonuniform 0();
    }
    outlet
    {
        type            calculated;
        value           nonuniform 0();
    }
    bottom
    {
        type            calculated;
        value           nonuniform 0();
    }
    top
    {
        type            calculated;
        value           nonuniform List<scalar> 2(1.453489144 1.471229806);
    }
    obstacle
    {
        type            calculated;
        value           nonuniform 0();
    }
    defaultFaces
    {
        type            empty;
    }
    procBoundary34to28
    {
        type            processor;
        value           nonuniform List<scalar> 2(1.331042514 1.354252263);
    }
    procBoundary34to33
    {
        type            processor;
        value           nonuniform List<scalar> 4(1.44090755 1.457095185 1.441478694 1.420713382);
    }
    procBoundary34to35
    {
        type            processor;
        value           nonuniform List<scalar> 4(1.369985742 1.395662681 1.422616467 1.457282671);
    }
}


// ************************************************************************* //
