/*--------------------------------*- C++ -*----------------------------------*\
  =========                 |
  \\      /  F ield         | OpenFOAM: The Open Source CFD Toolbox
   \\    /   O peration     | Website:  https://openfoam.org
    \\  /    A nd           | Version:  7
     \\/     M anipulation  |
\*---------------------------------------------------------------------------*/
FoamFile
{
    version     2.0;
    format      ascii;
    class       volVectorField;
    location    "2.8";
    object      U;
}
// * * * * * * * * * * * * * * * * * * * * * * * * * * * * * * * * * * * * * //

dimensions      [0 1 -1 0 0 0 0];

internalField   nonuniform List<vector> 
555
(
(2.96652353 -0.3166336625 0)
(2.944353421 -0.1787017327 0)
(2.915926151 -0.05009548206 0)
(2.902548267 -0.001975166032 0)
(2.894266941 -0.001691753531 0)
(2.890654855 -0.008130879291 0)
(2.892242222 -0.004184045818 0)
(2.894016383 0.007726179872 0)
(3.347990985 -0.4465000976 0)
(3.374223954 -0.420714429 0)
(3.341771791 -0.4466131466 0)
(3.1956225 -0.456745136 0)
(3.062820264 -0.4236373107 0)
(2.994221367 -0.406594563 0)
(2.966845764 -0.3894480022 0)
(2.961599884 -0.3890043536 0)
(2.967090514 -0.3756032639 0)
(2.974788724 -0.340030466 0)
(2.951514163 -0.2251937963 0)
(2.919534076 -0.07693578059 0)
(2.905068999 -0.008714606164 0)
(2.896315707 -0.002734588393 0)
(2.892667663 -0.008349229769 0)
(2.894598595 -0.004880877833 0)
(2.896678828 0.008190379085 0)
(3.342063354 -0.4477640676 0)
(3.376500625 -0.4193130321 0)
(3.353455425 -0.439607663 0)
(3.196270706 -0.4585408075 0)
(3.054772436 -0.4263824454 0)
(2.989055357 -0.4096720004 0)
(2.963968951 -0.3906417045 0)
(2.961758075 -0.3911842486 0)
(2.968826734 -0.3837756625 0)
(2.978139068 -0.3477103572 0)
(2.975875274 -0.2698302084 0)
(2.934764898 -0.111303504 0)
(2.906937912 -0.01826286924 0)
(2.898259251 -0.002390202333 0)
(2.894796002 -0.008158533725 0)
(2.89698372 -0.006040441281 0)
(2.899532511 0.009096804496 0)
(3.334728783 -0.4487458521 0)
(3.379614356 -0.4175367118 0)
(3.36780734 -0.4317832533 0)
(3.198861716 -0.4586078029 0)
(3.045864377 -0.4291935737 0)
(2.982906257 -0.4116973292 0)
(2.962022127 -0.3910074563 0)
(2.962102222 -0.3913112093 0)
(2.970761527 -0.3885076494 0)
(2.98217143 -0.3658492709 0)
(2.980891637 -0.2739846703 0)
(2.945000216 -0.1354813912 0)
(2.916256639 -0.03446041507 0)
(2.900104923 0.003311773514 0)
(2.896524181 -0.007809795513 0)
(2.899685483 -0.007125657647 0)
(2.902416152 0.01008174573 0)
(3.325545261 -0.4495309335 0)
(3.387860397 -0.4162090767 0)
(3.386439931 -0.4232830437 0)
(3.202907989 -0.4585985303 0)
(3.037822945 -0.4314387909 0)
(2.977544719 -0.41438171 0)
(2.961099695 -0.3916535436 0)
(2.962896268 -0.3920926988 0)
(2.972692138 -0.3900906583 0)
(2.986711259 -0.3770858303 0)
(2.984328644 -0.3067071894 0)
(2.957003545 -0.1524256828 0)
(2.926978483 -0.03680356503 0)
(2.902502613 0.004870946822 0)
(2.898578912 -0.007979441133 0)
(2.902689851 -0.00746496729 0)
(2.904750117 0.01096693636 0)
(2.900696496 -0.002710583761 0)
(3.312960283 -0.4505283657 0)
(3.399217237 -0.4141796297 0)
(3.410503459 -0.4152086243 0)
(3.207391379 -0.4570601871 0)
(3.028440753 -0.4334161669 0)
(2.969824009 -0.4161056366 0)
(2.960629433 -0.3925479349 0)
(2.964166468 -0.3929890258 0)
(2.974684434 -0.3923564487 0)
(2.989423952 -0.3820993584 0)
(2.993169817 -0.3391899137 0)
(2.963329976 -0.1943893761 0)
(2.935871861 -0.05819939675 0)
(2.907789682 -0.009868669721 0)
(2.90156942 -0.009848631262 0)
(2.904816957 -0.008366030652 0)
(2.906369799 0.01177964377 0)
(2.901560502 -0.002385023572 0)
(3.294979456 -0.4513796752 0)
(3.413870879 -0.4134745528 0)
(3.436231129 -0.4076654636 0)
(3.211081522 -0.4543948356 0)
(3.017809381 -0.4344952393 0)
(2.96098155 -0.4192624327 0)
(2.960922011 -0.393845576 0)
(2.965829383 -0.3938687641 0)
(2.97668137 -0.3947495918 0)
(2.991392547 -0.3881148684 0)
(2.998229147 -0.356687312 0)
(2.976416061 -0.2443348708 0)
(2.940600531 -0.09199859728 0)
(2.916254728 -0.0214126796 0)
(2.904695474 -0.01069928322 0)
(2.905172752 -0.01053616689 0)
(2.905933951 0.01266087975 0)
(2.900389331 -0.001815221493 0)
(3.269912347 -0.4526687226 0)
(3.437526294 -0.415077952 0)
(3.457710597 -0.3965007256 0)
(3.216190439 -0.4494141665 0)
(3.005960785 -0.4348171591 0)
(2.95219317 -0.4219016086 0)
(2.961360775 -0.3950704817 0)
(2.967132296 -0.3942777048 0)
(2.978939068 -0.3965468249 0)
(2.99382862 -0.3948852599 0)
(2.999699009 -0.3636092291 0)
(2.987162572 -0.2723318226 0)
(2.954816659 -0.1323528693 0)
(2.925260597 -0.0292237722 0)
(2.909319819 -0.01075119791 0)
(2.902974745 -0.01292562379 0)
(2.902432258 0.01249857047 0)
(2.896317453 -0.003629601766 0)
(3.235988608 -0.4535665966 0)
(3.474839751 -0.4156926456 0)
(3.496896469 -0.3904474689 0)
(3.22209554 -0.4449153134 0)
(2.993975734 -0.4340595944 0)
(2.943354931 -0.4238842963 0)
(2.961454931 -0.3966689263 0)
(2.96819375 -0.3947611642 0)
(2.980941994 -0.3970066109 0)
(2.995020843 -0.3965217446 0)
(3.002301629 -0.3808752393 0)
(2.988391048 -0.2816288135 0)
(2.972751971 -0.1636551336 0)
(2.939486591 -0.03187930775 0)
(2.911872807 -0.009085247149 0)
(2.896616381 -0.01427647722 0)
(2.896278801 0.01399679467 0)
(2.892533306 -0.003988572409 0)
(3.188511864 -0.4492902021 0)
(3.531838819 -0.4236110976 0)
(3.54593394 -0.3813283 0)
(3.220248453 -0.4340699447 0)
(2.98069087 -0.4327069395 0)
(2.933526167 -0.4248981213 0)
(2.963147908 -0.39831823 0)
(2.968944863 -0.3958279358 0)
(2.982349009 -0.3982062416 0)
(2.995770849 -0.3985016557 0)
(3.002416341 -0.3884053754 0)
(2.99012917 -0.317652858 0)
(2.986913766 -0.1742549437 0)
(2.955449465 -0.03571432334 0)
(2.903350595 -0.01188112987 0)
(2.885822397 -0.01672515624 0)
(2.890509134 0.01352766675 0)
(2.892138049 -0.004614605206 0)
(3.13055543 -0.4493692798 0)
(3.601498068 -0.4304906146 0)
(3.581950182 -0.3697897665 0)
(3.207854465 -0.4210550254 0)
(2.969196625 -0.4295733762 0)
(2.926116312 -0.4273150557 0)
(2.963995068 -0.4009157233 0)
(2.969076632 -0.3958943815 0)
(2.983162028 -0.3984106631 0)
(2.99624841 -0.3997315101 0)
(3.002208636 -0.3931529453 0)
(2.993336018 -0.3414722862 0)
(2.998382982 -0.2115257071 0)
(2.971550833 -0.06194372884 0)
(2.883412431 -0.01720331153 0)
(2.87244362 -0.01751988954 0)
(2.88922228 0.01580682401 0)
(2.896414076 -0.003983081476 0)
(3.056201358 -0.4271018015 0)
(3.666763006 -0.4397240126 0)
(3.600052216 -0.3659396127 0)
(3.187581708 -0.408003862 0)
(2.958526353 -0.4265099185 0)
(2.923378248 -0.4249045854 0)
(2.964829193 -0.4018083114 0)
(2.969003336 -0.3972293404 0)
(2.98364877 -0.4003177977 0)
(2.996691554 -0.4021519392 0)
(3.002800826 -0.40036892 0)
(2.994576314 -0.3572934941 0)
(3.007658148 -0.2656387421 0)
(2.982653367 -0.1100665931 0)
(2.871176739 -0.03052188337 0)
(2.861637502 -0.02338538015 0)
(2.893002646 0.01564687545 0)
(2.903343474 -0.005512149647 0)
(2.963293054 -0.04068554923 0)
(2.973775935 -0.02644945606 0)
(3.005431804 -0.2550987545 0)
(2.917596074 -0.3742199546 0)
(2.908001836 -0.4234366178 0)
(2.934777013 -0.4274978114 0)
(2.962666806 -0.404100703 0)
(2.975298077 -0.3975155364 0)
(2.988542098 -0.4018064662 0)
(2.997678666 -0.4081969086 0)
(3.014962084 -0.4131164072 0)
(3.026507847 -0.3939008465 0)
(3.039943978 -0.359719092 0)
(3.014904331 -0.2248155243 0)
(3.040991399 -0.1713292989 0)
(2.951677298 0.00962868441 0)
(2.934919311 0.02101300457 0)
(2.926832381 -0.001984483362 0)
(2.893397893 0.2287186857 0)
(2.901235977 0.0529062473 0)
(2.901528345 -0.1498528046 0)
(2.918652062 -0.2816445474 0)
(2.94524156 -0.3708449791 0)
(2.987137803 -0.3349677405 0)
(2.984314419 -0.3408686092 0)
(3.016049046 -0.375313462 0)
(3.029574115 -0.3911638478 0)
(3.053474802 -0.4140933336 0)
(3.062232364 -0.4161526688 0)
(3.079382249 -0.4124610194 0)
(3.086010666 -0.4019126013 0)
(3.089771444 -0.3889796052 0)
(3.099725311 -0.3102894524 0)
(3.091706893 -0.2128462303 0)
(3.053970728 -0.112931357 0)
(3.034552882 -0.0495416371 0)
(2.894578515 0.2482301034 0)
(2.906609522 0.2065669032 0)
(2.925261932 0.1179654091 0)
(2.966893059 -0.03957064047 0)
(2.973162516 -0.07324722662 0)
(3.032712958 -0.2396390466 0)
(3.045248576 -0.3102779354 0)
(3.063114275 -0.3502264359 0)
(3.085817412 -0.4021529981 0)
(3.099992225 -0.4091816496 0)
(3.102580167 -0.3920841927 0)
(3.115094334 -0.3971340255 0)
(3.11763058 -0.4009754893 0)
(3.118860611 -0.4101993307 0)
(3.117270269 -0.4032435926 0)
(3.113844572 -0.3721836741 0)
(3.093404105 -0.2426061571 0)
(3.093883091 -0.1649885707 0)
(2.900218283 0.2481427389 0)
(2.904206517 0.2399770898 0)
(2.923024376 0.1974775693 0)
(2.959631006 0.1105254353 0)
(2.998811927 -0.02074846137 0)
(3.033298241 -0.1212135596 0)
(3.066481277 -0.2353327728 0)
(3.082827146 -0.3120683653 0)
(3.101555494 -0.3126925571 0)
(3.092047661 -0.3126724812 0)
(3.097874028 -0.3436508713 0)
(3.111552553 -0.3763099583 0)
(3.116879014 -0.4094847368 0)
(3.121189263 -0.415619603 0)
(3.122459578 -0.4065242722 0)
(3.119934605 -0.4019819919 0)
(3.108953168 -0.3893549726 0)
(3.094561902 -0.3256031651 0)
(2.898263975 0.2515514567 0)
(2.900060027 0.2489544441 0)
(2.907522658 0.2359626848 0)
(2.927114284 0.1975963099 0)
(2.961399334 0.117146351 0)
(2.998808665 0.01773656962 0)
(3.015566613 -0.03453520625 0)
(3.045270778 -0.1437211406 0)
(3.066676194 -0.2052815909 0)
(3.078535709 -0.2741310528 0)
(3.094224377 -0.3390673957 0)
(3.104485918 -0.3627725979 0)
(3.110603153 -0.3884794758 0)
(3.116755198 -0.377988454 0)
(3.109447326 -0.3809206507 0)
(3.102623237 -0.3907854427 0)
(3.099746202 -0.398786398 0)
(3.098354692 -0.3931509821 0)
(2.896831623 0.2550881589 0)
(2.898530969 0.251597811 0)
(2.901519254 0.2459389404 0)
(2.909929005 0.2290565935 0)
(2.928531482 0.1904009989 0)
(2.957750572 0.1225092546 0)
(2.991839898 0.0255270523 0)
(3.016752986 -0.04225626497 0)
(3.046790255 -0.1452789446 0)
(3.063095972 -0.2219199541 0)
(3.078021372 -0.231374146 0)
(3.075835592 -0.2441837069 0)
(3.076864488 -0.2883881616 0)
(3.087316139 -0.3347373043 0)
(3.092039627 -0.3515797557 0)
(3.098243556 -0.3834388304 0)
(3.097218103 -0.3992368994 0)
(3.102051574 -0.3963462404 0)
(2.891057649 0.2599066442 0)
(2.892433081 0.2555163876 0)
(2.894112987 0.2522902302 0)
(2.898109978 0.2445993068 0)
(2.907399423 0.2259339921 0)
(2.92635373 0.18605373 0)
(2.952680362 0.1250705075 0)
(2.98214196 0.05151412472 0)
(3.001817934 -0.003145614075 0)
(3.029765382 -0.09537476714 0)
(3.04797823 -0.153240459 0)
(3.052671913 -0.1752603296 0)
(3.071457298 -0.2484910754 0)
(3.078014206 -0.3128171621 0)
(3.085600913 -0.3269520913 0)
(3.098313184 -0.3385303968 0)
(3.096439247 -0.3535891642 0)
(3.093769718 -0.3586905909 0)
(2.88825279 0.2605454709 0)
(2.889113182 0.2589890005 0)
(2.890771944 0.2559069718 0)
(2.893199651 0.250407299 0)
(2.897799119 0.2403679763 0)
(2.907325473 0.2210525014 0)
(2.925393665 0.1837102253 0)
(2.95248155 0.1210719653 0)
(2.974884246 0.06561770753 0)
(2.996531852 0.008654562185 0)
(3.02766095 -0.09108742838 0)
(3.039571205 -0.153381429 0)
(3.05432465 -0.1696989392 0)
(3.060590848 -0.2143433893 0)
(3.066585954 -0.2498186168 0)
(3.069145842 -0.2561688598 0)
(3.079275179 -0.2924983707 0)
(3.087822343 -0.3405326992 0)
(2.895080947 0.2542827474 0)
(2.891115966 0.2609736241 0)
(2.88988155 0.2582838347 0)
(2.890560953 0.2541757032 0)
(2.892382994 0.2490133965 0)
(2.897702213 0.2382309549 0)
(2.907417379 0.2187703218 0)
(2.923866925 0.1841496296 0)
(2.949990637 0.1222194709 0)
(2.970987333 0.07306752839 0)
(2.985602852 0.02848510122 0)
(3.013108183 -0.05809973192 0)
(3.030062091 -0.09560838515 0)
(3.039468667 -0.1301652196 0)
(3.058234625 -0.2048861971 0)
(3.061579944 -0.2457886541 0)
(3.075453909 -0.2682951193 0)
(3.08569527 -0.302633745 0)
(2.898166143 0.2732660619 0)
(2.892183615 0.263314487 0)
(2.889474258 0.2567340877 0)
(2.889619896 0.2555854647 0)
(2.889984363 0.255418763 0)
(2.892610576 0.2507904988 0)
(2.898619448 0.2374422736 0)
(2.908282651 0.2159543877 0)
(2.923949499 0.1810517731 0)
(2.946894369 0.1265018892 0)
(2.966934006 0.07910058518 0)
(2.9896033 0.02060071273 0)
(3.010740306 -0.04784633567 0)
(3.025380015 -0.08481261999 0)
(3.039102813 -0.1249445645 0)
(3.051591586 -0.1845143861 0)
(3.059731928 -0.1934664129 0)
(3.056876587 -0.2054149442 0)
(2.915897365 0.2201531107 0)
(2.907291218 0.2224093426 0)
(2.89480478 0.2459949438 0)
(2.891111594 0.2549894711 0)
(2.889437235 0.2593648703 0)
(2.890131395 0.2566366177 0)
(2.892060561 0.2500544911 0)
(2.897790215 0.2357276588 0)
(2.907662951 0.2136755136 0)
(2.924321845 0.1771395036 0)
(2.944380038 0.1314328668 0)
(2.963591397 0.08715350437 0)
(2.985239361 0.02781726626 0)
(3.004881122 -0.02923042173 0)
(3.016734584 -0.05245104464 0)
(3.030509654 -0.1036900382 0)
(3.042575593 -0.1532338061 0)
(3.050882166 -0.1781280393 0)
(2.942877572 0.1343467092 0)
(2.929867565 0.1764488751 0)
(2.896736313 0.2556103572 0)
(2.891296768 0.261396392 0)
(2.890617809 0.2592969565 0)
(2.888696274 0.2562575189 0)
(2.889365301 0.2545736244 0)
(2.891914591 0.2479735538 0)
(2.897961932 0.2335921125 0)
(2.908285568 0.2109531629 0)
(2.924900562 0.1737083057 0)
(2.942741836 0.1320692296 0)
(2.959288877 0.09195955507 0)
(2.982068454 0.03227315768 0)
(2.998539607 -0.01040606835 0)
(3.014377277 -0.05200086548 0)
(3.02998588 -0.1064591302 0)
(3.040709012 -0.1390815591 0)
(2.982900291 0.03584441719 0)
(2.964878593 0.1016221665 0)
(2.91158642 0.231802821 0)
(2.904308201 0.2282065922 0)
(2.892704003 0.2498864429 0)
(2.890340433 0.2544545544 0)
(2.889945255 0.255396276 0)
(2.890456516 0.2529217552 0)
(2.892873656 0.2458381387 0)
(2.898826248 0.2315373222 0)
(2.908679646 0.208418517 0)
(2.923566056 0.1732299625 0)
(2.940090576 0.1340013157 0)
(2.958314679 0.0905866972 0)
(2.977448009 0.04231526056 0)
(2.993582683 0.005967430758 0)
(3.006761905 -0.03347742682 0)
(3.022258594 -0.0840703366 0)
(2.997842967 0.004529551597 0)
(2.987829187 0.03430994397 0)
(2.945703182 0.1347234389 0)
(2.933848749 0.1697627896 0)
(2.898204295 0.2417579848 0)
(2.892473403 0.2597470063 0)
(2.890562222 0.2558163691 0)
(2.889789002 0.2545746976 0)
(2.890693651 0.2528591075 0)
(2.893647989 0.2454806209 0)
(2.899596397 0.2300296659 0)
(2.909455111 0.2053271987 0)
(2.92298989 0.172484869 0)
(2.939035835 0.1354815028 0)
(2.95752902 0.09148516454 0)
(2.975879363 0.04700722391 0)
(2.98929062 0.01387014641 0)
(3.005520556 -0.03357751353 0)
(2.99989093 0.0002445080406 0)
(2.99778938 0.00568955348 0)
(2.978972551 0.04764428694 0)
(2.965987215 0.1047627112 0)
(2.911628115 0.2325133981 0)
(2.904436443 0.2294680307 0)
(2.894965987 0.2482347949 0)
(2.891891528 0.2540145064 0)
(2.891066698 0.2553137675 0)
(2.891520616 0.253022046 0)
(2.894286293 0.2448881811 0)
(2.9004937 0.2288256656 0)
(2.911172003 0.202454193 0)
(2.923949569 0.1716676308 0)
(2.93899175 0.136246665 0)
(2.956108375 0.09580036431 0)
(2.972592138 0.05533786875 0)
(2.987693018 0.01628563183 0)
(2.99999746 6.096897782e-06 0)
(2.999791897 0.0005108595709 0)
(2.99570652 0.009932520081 0)
(2.985774516 0.04078337544 0)
(2.94713642 0.1349935306 0)
(2.93745389 0.166223036 0)
(2.901747522 0.2397994688 0)
(2.89508998 0.2575156256 0)
(2.891388962 0.2544530386 0)
(2.891393727 0.2546121111 0)
(2.892669417 0.252556776 0)
(2.896414561 0.2433704465 0)
(2.902769481 0.2262618074 0)
(2.912804187 0.200468352 0)
(2.925315189 0.1696925279 0)
(2.93946796 0.1363590741 0)
(2.955105503 0.09936312045 0)
(2.970914468 0.06108966469 0)
(2.999999977 5.589966859e-08 0)
(2.999987839 2.982274212e-05 0)
(2.999529668 0.001168814454 0)
(2.996643094 0.008783769669 0)
(2.978024686 0.05142472496 0)
(2.965045679 0.1083053586 0)
(2.91488834 0.227622264 0)
(2.908537656 0.2241024856 0)
(2.897034853 0.2467492806 0)
(2.893506665 0.2550724992 0)
(2.892769424 0.2552487399 0)
(2.893808914 0.2520267802 0)
(2.897260337 0.2418939602 0)
(2.903521282 0.2248063954 0)
(2.913629721 0.199615895 0)
(2.92633247 0.1695101163 0)
(2.940805529 0.1359298334 0)
(2.955955171 0.1008917879 0)
(3 2.480726885e-10 0)
(2.99999958 1.028971938e-06 0)
(2.999967253 8.568149874e-05 0)
(2.999563364 0.001105287387 0)
(2.994977799 0.01202587521 0)
(2.984733969 0.04335668611 0)
(2.947732547 0.1325474969 0)
(2.936451215 0.1664689092 0)
(2.902606427 0.2430227373 0)
(2.896990454 0.2569073805 0)
(2.893752651 0.2538305408 0)
(2.893831935 0.2537067194 0)
(2.895012532 0.2506963174 0)
(2.89858512 0.2403077677 0)
(2.905633769 0.2216807507 0)
(2.915436348 0.1976273384 0)
(2.928231276 0.167981308 0)
(2.941953688 0.1367937138 0)
(3 2.787340053e-13 0)
(2.999999988 3.024513441e-08 0)
(2.999998735 3.352629906e-06 0)
(2.999962941 9.352618019e-05 0)
(2.999371404 0.001602193378 0)
(2.996091386 0.01022046059 0)
(2.977802607 0.05194845394 0)
(2.962022941 0.1100627649 0)
(2.914828575 0.2228483357 0)
(2.911001689 0.2201907657 0)
(2.899548495 0.2453989692 0)
(2.895521401 0.2550184506 0)
(2.894420325 0.2543870204 0)
(2.895579692 0.2500127828 0)
(2.89923168 0.238945039 0)
(2.906669983 0.2200225814 0)
(2.917022117 0.1952443332 0)
(2.92898448 0.1676358506 0)
(3 -7.137954218e-15 0)
(3 5.124873275e-10 0)
(2.999999964 9.659496096e-08 0)
(2.99999822 4.451551448e-06 0)
(2.9999463 0.0001414456279 0)
(2.999440923 0.001413162682 0)
(2.994632624 0.01291361461 0)
(2.983613611 0.04483217635 0)
(2.946543569 0.1314495072 0)
(2.935412307 0.1666671993 0)
)
;

boundaryField
{
    inlet
    {
        type            fixedValue;
        value           nonuniform 0();
    }
    outlet
    {
        type            inletOutlet;
        inletValue      nonuniform 0();
        value           nonuniform 0();
    }
    bottom
    {
        type            slip;
    }
    top
    {
        type            slip;
    }
    obstacle
    {
        type            slip;
    }
    defaultFaces
    {
        type            empty;
    }
    procBoundary27to20
    {
        type            processor;
        value           nonuniform List<vector> 
16
(
(2.876488661 0.2498732904 0)
(2.883152055 0.2518329989 0)
(2.893242956 0.2510888412 0)
(2.899741332 0.2488591115 0)
(2.89783384 0.2520704473 0)
(2.894566015 0.2585703012 0)
(2.890648629 0.262820876 0)
(2.8876161 0.263444139 0)
(2.896242989 0.244045603 0)
(2.902176505 0.2346234459 0)
(2.941194863 0.1370522379 0)
(2.982882433 0.03810504178 0)
(2.998556466 0.002791822471 0)
(2.999989708 1.284853215e-05 0)
(3.000000049 -2.051750332e-08 0)
(3.000000005 -3.94180581e-09 0)
)
;
    }
    procBoundary27to21
    {
        type            processor;
        value           nonuniform List<vector> 
18
(
(2.958063163 -0.2831807762 0)
(2.938640691 -0.1439398886 0)
(2.909973748 -0.03028138252 0)
(2.897572489 0.0002355671347 0)
(2.8915008 -0.0001043109839 0)
(2.888029767 -0.007365673025 0)
(2.889676197 -0.0032607736 0)
(2.890944598 0.007806286578 0)
(3.352447622 -0.4444699072 0)
(3.371624099 -0.4221356297 0)
(3.332123854 -0.452630991 0)
(3.196636226 -0.4546421126 0)
(3.072088176 -0.420856941 0)
(3.000656459 -0.403430839 0)
(2.970183554 -0.3865939085 0)
(2.961468225 -0.3849600692 0)
(2.965451395 -0.3713462665 0)
(2.965451395 -0.3713462665 0)
)
;
    }
    procBoundary27to26
    {
        type            processor;
        value           nonuniform List<vector> 4((3 -1.538046066e-10 0) (3 -1.198696433e-12 0) (3 -4.540598443e-14 0) (3 -1.854699654e-15 0));
    }
    procBoundary27to28
    {
        type            processor;
        value           nonuniform List<vector> 
28
(
(2.892775087 -0.002115643457 0)
(2.895201077 -0.002760243094 0)
(2.897060071 -0.00318637217 0)
(2.898968359 -0.003040182794 0)
(2.898968359 -0.003040182794 0)
(2.899955568 -0.001407361187 0)
(2.90069735 -0.001314381241 0)
(2.900892161 -0.001332060118 0)
(2.901642959 -0.002527171265 0)
(2.903456532 -0.003937230425 0)
(2.906067015 -0.004380338396 0)
(2.911845331 -0.003850627185 0)
(2.919325946 -0.004431780975 0)
(2.936455015 -0.002331526604 0)
(3.000511677 -0.01485668792 0)
(3.050834753 -0.03402662621 0)
(3.0767346 -0.230359669 0)
(3.092294754 -0.360102891 0)
(3.102960959 -0.3872619881 0)
(3.093386809 -0.3733314843 0)
(3.088656004 -0.3583560617 0)
(3.085192669 -0.3217892836 0)
(3.071883099 -0.2626109872 0)
(3.064273427 -0.221893383 0)
(3.047868029 -0.1513298135 0)
(3.032070805 -0.1070960878 0)
(3.018119523 -0.06956033619 0)
(3.001001954 -0.019972946 0)
)
;
    }
    procBoundary27to33
    {
        type            processor;
        value           nonuniform List<vector> 
19
(
(2.903465017 0.2445569099 0)
(2.898878247 0.2569600529 0)
(2.89552274 0.2536019689 0)
(2.895547949 0.2516889683 0)
(2.896701355 0.2480048295 0)
(2.900562883 0.2367285271 0)
(2.907683845 0.2174503143 0)
(2.917547456 0.1930470939 0)
(3 -3.530933348e-15 0)
(3 1.067550411e-11 0)
(2.999999999 1.350100998e-09 0)
(2.999999924 1.922911531e-07 0)
(2.999997461 6.620880926e-06 0)
(2.999941838 0.0001456909721 0)
(2.999279055 0.001832905548 0)
(2.995580385 0.01141153253 0)
(2.977627033 0.05221804042 0)
(2.903465017 0.2445569099 0)
(2.959764769 0.1116649048 0)
)
;
    }
    procBoundary27to34
    {
        type            processor;
        value           nonuniform List<vector> 4((2.985817594 0.02268798314 0) (2.970307535 0.06592403313 0) (2.956600559 0.1026692293 0) (2.942411151 0.1373017915 0));
    }
}


// ************************************************************************* //
