/*--------------------------------*- C++ -*----------------------------------*\
  =========                 |
  \\      /  F ield         | OpenFOAM: The Open Source CFD Toolbox
   \\    /   O peration     | Website:  https://openfoam.org
    \\  /    A nd           | Version:  7
     \\/     M anipulation  |
\*---------------------------------------------------------------------------*/
FoamFile
{
    version     2.0;
    format      ascii;
    class       volScalarField;
    location    "3.5";
    object      T;
}
// * * * * * * * * * * * * * * * * * * * * * * * * * * * * * * * * * * * * * //

dimensions      [0 0 0 1 0 0 0];

internalField   nonuniform List<scalar> 
2222
(
1.444818841
1.435909127
1.427067628
1.418527475
1.410299141
1.40217525
1.394100331
1.3861592
1.378458303
1.370865327
1.363488013
1.356270808
1.34897555
1.341524691
1.333991879
1.32626706
1.318167949
1.310141564
1.30271168
1.295942455
1.289307288
1.282898577
1.276939581
1.271249483
1.265701602
1.260144661
1.254441992
1.24865519
1.242747764
1.236580293
1.231111783
1.22200272
1.447210423
1.438260979
1.429445369
1.420929771
1.412715283
1.404607229
1.396561272
1.38861908
1.380895158
1.373308693
1.365832987
1.358526836
1.351180058
1.343691727
1.33606828
1.328368706
1.320357455
1.312381389
1.304884255
1.29802127
1.291433568
1.285022422
1.279054079
1.273333739
1.267744263
1.262146681
1.256425362
1.250603558
1.244683713
1.238507399
1.233011599
1.223899368
1.445166564
1.436074611
1.427389525
1.418824459
1.410646379
1.402605262
1.394641232
1.386739974
1.3789531
1.371421727
1.363917704
1.356469384
1.349068293
1.341626326
1.333983175
1.326296774
1.318893455
1.31132862
1.303770533
1.296476334
1.28971663
1.283282032
1.277305752
1.271605737
1.266029904
1.260469567
1.254791058
1.249006738
1.243116986
1.23699331
1.231498809
1.222405109
1.44475642
1.435447262
1.427162072
1.418804448
1.410626672
1.402563132
1.394606726
1.386737747
1.37892759
1.371378394
1.36393431
1.356273213
1.348688173
1.34117491
1.333538513
1.325774297
1.318794183
1.312150941
1.304535282
1.296374927
1.289339602
1.283325535
1.277410438
1.271613071
1.265971174
1.260395413
1.254725236
1.248945075
1.243047803
1.236926674
1.231412792
1.222293714
1.444360613
1.435041336
1.427105644
1.420108192
1.412292697
1.404352034
1.396455391
1.388629506
1.380816358
1.373148424
1.365727824
1.357156099
1.348751282
1.341084907
1.333435389
1.325861377
1.318327192
1.310577797
1.303164309
1.296081196
1.289075378
1.283901616
1.278845704
1.273105143
1.267437695
1.261834795
1.256156633
1.250370993
1.244467714
1.238354305
1.232857617
1.223732035
1.444481905
1.435168335
1.427097369
1.418469069
1.410231641
1.402339256
1.394494875
1.386691656
1.378994381
1.37109152
1.363530407
1.356407896
1.348897394
1.34127617
1.3336633
1.326110604
1.318360989
1.310667087
1.303337489
1.296275858
1.289528139
1.283291603
1.277355408
1.271372669
1.265678063
1.260096487
1.254458515
1.248737687
1.242861737
1.236741521
1.23132937
1.222153839
1.446442505
1.437237148
1.427601325
1.418299071
1.410155439
1.402337242
1.39452114
1.386681902
1.379003702
1.37112222
1.363115716
1.356590098
1.350221082
1.342911733
1.335432822
1.32781194
1.32004001
1.31241119
1.305059766
1.298098585
1.291388371
1.283770436
1.277055841
1.271340649
1.265723449
1.260082278
1.254403876
1.248669696
1.24278973
1.23664
1.231252695
1.222075879
1.444111151
1.434744512
1.426021943
1.419293245
1.411833784
1.404075032
1.396320295
1.388479795
1.380781257
1.3728111
1.363748546
1.355904494
1.348346177
1.340888674
1.333493429
1.325974139
1.318257973
1.310649933
1.30330264
1.296359613
1.289623045
1.282790427
1.276596878
1.272248072
1.26709488
1.261459789
1.255767131
1.25002643
1.244172261
1.238026497
1.232617263
1.223317834
1.443963662
1.434525376
1.425981285
1.417850849
1.409645522
1.401827672
1.394208557
1.386397
1.378415758
1.370676153
1.363510498
1.355802364
1.348201209
1.340762587
1.333383182
1.325979996
1.318350955
1.310769253
1.303429829
1.296452426
1.289622284
1.282905871
1.276842126
1.27126585
1.265425599
1.259661861
1.253976396
1.248256262
1.242472306
1.2364384
1.230890707
1.222116271
1.445548854
1.436322439
1.426792481
1.417500017
1.40935169
1.401627229
1.393987265
1.386198629
1.378066231
1.370065361
1.363968171
1.357191751
1.349791494
1.342358187
1.334888857
1.327544864
1.320045845
1.312506713
1.305170096
1.298035983
1.29112112
1.284697196
1.278281927
1.271198021
1.265202971
1.259541775
1.253856415
1.24811049
1.242337835
1.236365534
1.230832893
1.221917318
1.442993812
1.433921907
1.425133508
1.417080881
1.410675797
1.403342427
1.395680423
1.387969327
1.378797095
1.370265141
1.362719347
1.355220313
1.347603104
1.340121376
1.332632973
1.325254264
1.318104427
1.310608132
1.303333527
1.296217515
1.289337147
1.282928753
1.276522558
1.270251498
1.265678014
1.260782065
1.255175139
1.24940994
1.243635688
1.237679332
1.232179372
1.22266101
1.442162437
1.433016197
1.424567521
1.41660461
1.408490872
1.40093566
1.393211978
1.385495824
1.377939687
1.370318193
1.362396811
1.354899771
1.347215044
1.339728381
1.332365703
1.324940506
1.31800439
1.310739788
1.303451012
1.296288275
1.289394155
1.28289736
1.276454667
1.270404768
1.265010963
1.259082936
1.253253101
1.247501621
1.241777565
1.235892881
1.230494701
1.221741235
1.441906868
1.432602528
1.424018388
1.415875961
1.407655606
1.399946205
1.392352692
1.384479021
1.378337964
1.371659698
1.363919368
1.355658481
1.347372835
1.339883501
1.332571348
1.325189332
1.317897012
1.311869148
1.305005748
1.297888209
1.290961299
1.284301736
1.278002899
1.271913306
1.264975439
1.258691418
1.252918269
1.24717193
1.241464559
1.235618365
1.230353002
1.221532833
1.441976778
1.432649226
1.423955559
1.415609493
1.407599977
1.399671718
1.392087783
1.384395269
1.377111424
1.369565801
1.361528306
1.354265712
1.348576158
1.341575375
1.334311736
1.326954106
1.319336317
1.310783025
1.303200054
1.296035236
1.289134177
1.282445688
1.27610547
1.269983313
1.26387019
1.259240142
1.254042923
1.248358799
1.242667859
1.236841599
1.231699048
1.222816774
1.443379204
1.434254977
1.425590641
1.41724887
1.409445701
1.400492694
1.392087485
1.384467459
1.376769066
1.369185125
1.361320226
1.354112086
1.34690132
1.339377803
1.332099005
1.324799015
1.317709047
1.310773561
1.303342224
1.296139526
1.289173426
1.282424279
1.275959376
1.269744468
1.263865432
1.258036686
1.252089614
1.246296596
1.240587767
1.234778872
1.229647663
1.221075868
1.440821408
1.431807147
1.423214838
1.414778109
1.40676908
1.399608492
1.391644269
1.385227931
1.378277102
1.370708945
1.363004197
1.354776578
1.346548978
1.339309888
1.332127427
1.324916261
1.31758509
1.311269793
1.304758409
1.29769466
1.290631984
1.283844494
1.277302551
1.271118593
1.264937417
1.257630833
1.251561573
1.24585702
1.240157006
1.234354398
1.229225961
1.220767895
1.440513364
1.431488554
1.42285824
1.414529707
1.40624837
1.39949241
1.392777377
1.3841063
1.376088541
1.368374107
1.360781367
1.352965746
1.345792548
1.340096013
1.333372886
1.326324306
1.319022725
1.310655439
1.303017184
1.295832432
1.28879967
1.281991571
1.275446784
1.269016885
1.263168103
1.257394187
1.25166516
1.24596516
1.240264039
1.234461465
1.22935364
1.220921461
1.441797174
1.432879981
1.424341356
1.416125693
1.407757764
1.398944613
1.391114993
1.383627794
1.375784777
1.368126487
1.360570513
1.352924059
1.345786324
1.338676598
1.331206993
1.32383149
1.316861465
1.310206973
1.303107959
1.295919404
1.288830657
1.281936671
1.275307135
1.268858012
1.262532033
1.257994497
1.252890299
1.247291271
1.241571323
1.235739441
1.230678399
1.222291184
1.438973938
1.430249457
1.421831649
1.413493645
1.405616341
1.398034965
1.390396094
1.38403727
1.377120277
1.369548599
1.361878072
1.354369479
1.346665655
1.338534709
1.330912986
1.323502247
1.316357167
1.310183489
1.304259462
1.297366956
1.290247402
1.283308254
1.276626141
1.270207755
1.263013581
1.256416442
1.250752353
1.24520633
1.239579063
1.233811672
1.228848927
1.220629311
1.438596718
1.429849633
1.421522274
1.413026942
1.405013865
1.397331622
1.390420395
1.382734042
1.37487752
1.36713434
1.359458421
1.35202313
1.344487774
1.337398284
1.330853801
1.323696191
1.316488217
1.309579118
1.302363214
1.295520721
1.288388423
1.281454261
1.274670351
1.268011513
1.26231555
1.256041726
1.250286964
1.244806498
1.239259063
1.233562729
1.228657245
1.220582201
1.439839158
1.431097608
1.422966182
1.414335903
1.405163627
1.396880883
1.389392402
1.382223185
1.374504292
1.366766141
1.359110352
1.351740121
1.34432269
1.336851155
1.330897252
1.32500937
1.317418264
1.309323193
1.301990403
1.295351266
1.288443237
1.281446391
1.27461767
1.267745191
1.262008008
1.256889615
1.251357658
1.245891906
1.240300991
1.234577877
1.229673755
1.22173493
1.43729333
1.428391172
1.420113506
1.412463744
1.4047731
1.396887438
1.388871624
1.382041012
1.375639901
1.368135609
1.360373625
1.35279818
1.345098084
1.337198508
1.329668924
1.322776079
1.316276145
1.309339328
1.30222605
1.295183177
1.289324463
1.28271716
1.275901215
1.269079732
1.261619184
1.254965395
1.248820392
1.243374116
1.238239061
1.232645806
1.227737068
1.219864417
1.43691505
1.427810351
1.41910241
1.411941618
1.405713799
1.398349674
1.390156009
1.381394891
1.373369882
1.365737463
1.357797708
1.350004177
1.342992603
1.33631279
1.328939165
1.321994492
1.316458896
1.310462948
1.303712534
1.296430876
1.288244702
1.280956629
1.273853745
1.267254533
1.261031123
1.254689803
1.248303193
1.242396816
1.237356275
1.231945496
1.227181054
1.219439922
1.438362379
1.42847985
1.419013325
1.411057802
1.403343185
1.395743622
1.387943982
1.380053818
1.372286338
1.36499068
1.357364626
1.349643036
1.342405153
1.335709482
1.328582914
1.321902335
1.315186264
1.308465866
1.301583954
1.29488202
1.288104119
1.280960144
1.273896736
1.266811002
1.261256854
1.25568433
1.249213566
1.242272836
1.236767339
1.231860333
1.227231529
1.219517096
1.435402129
1.427166803
1.418894438
1.41069757
1.402872393
1.395227888
1.387532819
1.37965482
1.371749742
1.36437429
1.357667146
1.350626786
1.343205496
1.335733342
1.328672297
1.321964722
1.315148837
1.308440944
1.301622686
1.294617064
1.288621395
1.282145253
1.275233779
1.267858028
1.26007566
1.253353546
1.247829477
1.242077767
1.236409922
1.231988257
1.228194246
1.22079746
1.434885731
1.426648801
1.419835298
1.412020046
1.404165795
1.396477439
1.388806915
1.380799552
1.37234234
1.364068812
1.356305825
1.348624683
1.34142936
1.33499763
1.329522683
1.32308052
1.316318634
1.309598981
1.3028408
1.29581741
1.287744308
1.280283509
1.2730885
1.26660954
1.259784767
1.253055275
1.247341902
1.24266533
1.237312287
1.231375931
1.22639865
1.218926945
1.436125303
1.426459637
1.417532481
1.409327053
1.401491067
1.393853167
1.386154777
1.378261297
1.370676771
1.363056735
1.355513732
1.348229321
1.341258006
1.334822695
1.327675537
1.320867501
1.314150319
1.307448992
1.30060562
1.293964235
1.287381683
1.280236047
1.273034838
1.266159685
1.260432054
1.254204514
1.247233254
1.240878356
1.235317226
1.230604802
1.226129031
1.218570702
1.433436679
1.425647192
1.417078417
1.408868858
1.401036686
1.393457648
1.385710779
1.377695023
1.369915222
1.362459118
1.355115353
1.349113628
1.342412558
1.334696825
1.32734373
1.320727293
1.314108646
1.307411641
1.300623919
1.293665542
1.287543254
1.281237643
1.274301522
1.26647452
1.25871105
1.252167956
1.246540013
1.240615194
1.235066797
1.230032879
1.226873168
1.219305777
1.432652197
1.425213648
1.41807512
1.410118117
1.402272052
1.394627021
1.386720564
1.378295772
1.369903283
1.3620085
1.354771457
1.347076631
1.339904566
1.33360608
1.32813798
1.321822916
1.315217465
1.308506135
1.301733473
1.294752072
1.286810866
1.279203753
1.272099905
1.265675551
1.258604914
1.251698827
1.246390815
1.241467885
1.236195614
1.230088905
1.225220827
1.218305453
1.433357206
1.423990511
1.415491552
1.407319365
1.399578311
1.391860181
1.384272128
1.376452165
1.368829152
1.361179783
1.354166081
1.346717496
1.339570847
1.333220842
1.32609774
1.319450613
1.312936125
1.306275278
1.299386273
1.292744452
1.286293673
1.279102533
1.271890663
1.265340355
1.259446355
1.252689655
1.245487128
1.239351248
1.234113003
1.228919937
1.224318634
1.218667456
1.43121647
1.422634698
1.414599236
1.406834026
1.399272288
1.391417043
1.383657818
1.376076487
1.368659025
1.361154375
1.35354474
1.347387754
1.340621054
1.332936311
1.32570213
1.319229349
1.312793164
1.30616911
1.299317144
1.292439722
1.286179444
1.279950849
1.273069698
1.2649955
1.257278785
1.251150582
1.244958774
1.238979686
1.233665268
1.22838488
1.223991247
1.217259036
1.430251439
1.421655345
1.413852777
1.40757705
1.400366102
1.392342963
1.383654907
1.376805319
1.369654125
1.362234903
1.35376039
1.345319031
1.338106919
1.331757632
1.326394154
1.320216168
1.313804405
1.307238083
1.300417213
1.293464837
1.285873066
1.277905441
1.270809364
1.264347272
1.256946837
1.250443653
1.245400636
1.239895305
1.234445069
1.228386896
1.223989758
1.217167062
1.429964085
1.421140376
1.413211403
1.405491883
1.397598962
1.389847531
1.382339711
1.374821144
1.367187433
1.359584867
1.352671659
1.344912842
1.33769766
1.33146808
1.324398338
1.31771493
1.311301576
1.304917322
1.298218521
1.291306063
1.284859739
1.277815424
1.270407245
1.264099309
1.257697514
1.250338952
1.24371133
1.237729304
1.232256497
1.22835904
1.224986377
1.218318558
1.428650508
1.420026739
1.412221951
1.404609389
1.396891022
1.389206016
1.381983631
1.374607719
1.367000434
1.3592184
1.351909858
1.345615831
1.338674447
1.331240888
1.323979505
1.317374981
1.310979664
1.304670692
1.298128633
1.291203493
1.284223597
1.278409169
1.271268234
1.263317983
1.256213831
1.249781682
1.243470604
1.237491355
1.232103404
1.227550275
1.223220324
1.216372821
1.427652263
1.419469932
1.411576935
1.403761584
1.396302879
1.388862605
1.382576676
1.375633912
1.368114278
1.360261594
1.351840017
1.343535836
1.336021516
1.329710085
1.324567704
1.318308823
1.311913102
1.305659002
1.29924775
1.292339021
1.28471635
1.276859362
1.269644889
1.262366797
1.255606227
1.250108269
1.244225808
1.238430729
1.233005339
1.227265667
1.222983093
1.216217947
1.427031478
1.418768045
1.41050862
1.402966424
1.395499024
1.387667016
1.379985486
1.372587238
1.365282593
1.357768111
1.350707551
1.343111041
1.335707229
1.32912195
1.322487839
1.315743402
1.309232126
1.303102845
1.296870976
1.290224268
1.283420756
1.276210563
1.269141085
1.262058506
1.255244642
1.248362905
1.241990308
1.236231973
1.230878824
1.226315631
1.22366796
1.217290023
1.425686001
1.417868757
1.410177209
1.40233549
1.394717931
1.387133072
1.379337677
1.371589246
1.364225174
1.356947515
1.34976316
1.343735934
1.336735088
1.328833699
1.321560305
1.315118635
1.308714913
1.3026719
1.296609633
1.290076597
1.283298249
1.276313433
1.269261199
1.262239484
1.255213482
1.248222124
1.241755
1.236006563
1.230753859
1.226196565
1.222347447
1.215440533
1.425081111
1.416888718
1.409226352
1.401279088
1.393653137
1.387139143
1.379789604
1.371551129
1.363715026
1.356629295
1.349192881
1.341565911
1.33438791
1.327169709
1.320488822
1.315057699
1.309469891
1.303511255
1.297578044
1.291107872
1.284296088
1.27741558
1.270368728
1.263287752
1.256088468
1.249056891
1.242519403
1.236765527
1.23175623
1.226718163
1.222011709
1.21530865
1.424499491
1.415899123
1.40797714
1.400670249
1.393210459
1.38530923
1.377670996
1.370351927
1.362846662
1.355578033
1.348502607
1.341109687
1.333966051
1.326725758
1.32016663
1.313661602
1.306936626
1.30061994
1.294917911
1.288813805
1.282027646
1.275083448
1.268111927
1.261063442
1.253908918
1.246936884
1.240404206
1.234515847
1.229496456
1.224673078
1.221160671
1.216076895
1.424081719
1.415868107
1.407513394
1.39959694
1.392225003
1.384540607
1.376768544
1.369308392
1.362044355
1.35473556
1.348336941
1.341897721
1.334884682
1.327575227
1.31996279
1.312743411
1.305927002
1.299535165
1.293693655
1.288106989
1.281731238
1.274875784
1.267871523
1.260846938
1.253757212
1.2468527
1.24041205
1.234529097
1.229335555
1.224608962
1.221039603
1.214468648
1.422356555
1.414468982
1.406599748
1.398583481
1.391094666
1.384150703
1.376830505
1.36907529
1.361305323
1.35400594
1.346840545
1.339472292
1.332230048
1.325408234
1.318706969
1.312087756
1.305629335
1.299438106
1.293049148
1.287457369
1.282394212
1.275776057
1.268560043
1.261511755
1.254429236
1.247553934
1.241276968
1.235457735
1.230138754
1.225540035
1.22148737
1.21397916
1.421192658
1.413066419
1.405670655
1.39834511
1.390716217
1.382957286
1.375502299
1.368044546
1.360323157
1.352814466
1.345613838
1.338541655
1.331403089
1.324564652
1.317682821
1.311405745
1.30629751
1.300356618
1.293396289
1.286604816
1.279935891
1.27328734
1.266193493
1.258906266
1.251969725
1.245162785
1.238984764
1.233377122
1.228132246
1.223183047
1.219850684
1.213871159
1.421097732
1.412652402
1.40453775
1.39694273
1.389587795
1.382056178
1.374397556
1.366952962
1.35983657
1.352566327
1.344876016
1.337441664
1.33043324
1.324054635
1.317575555
1.310692143
1.304196041
1.297973887
1.291707885
1.285381954
1.278891283
1.272246632
1.265154828
1.257796225
1.251003715
1.244695021
1.238776553
1.233285103
1.228146658
1.223083449
1.219215756
1.214451221
1.419824689
1.411682975
1.403629677
1.395831436
1.388344181
1.381295634
1.3741297
1.366507974
1.358933964
1.35144091
1.343705782
1.336410268
1.329610235
1.322783156
1.316440176
1.310094936
1.303669713
1.297479129
1.291376574
1.284962437
1.278425006
1.27163319
1.264839204
1.257560744
1.250184388
1.244455433
1.239343248
1.234048616
1.229117574
1.224111692
1.219578945
1.212926137
1.418407322
1.410769158
1.403068298
1.39544715
1.387959669
1.380421265
1.372969054
1.365543407
1.35787993
1.350262357
1.343015823
1.335942786
1.32890498
1.321839802
1.31528704
1.310199713
1.304470234
1.298422101
1.292324398
1.285534064
1.278148137
1.271241817
1.264256221
1.256753963
1.249635612
1.243173053
1.236969581
1.231638821
1.226926593
1.222292063
1.218492005
1.212263844
1.417572608
1.409361448
1.401543618
1.394097628
1.38678546
1.37937927
1.3717691
1.364488578
1.3574235
1.349916867
1.342250873
1.334918577
1.327804676
1.321005073
1.314860734
1.308270013
1.3019825
1.295966958
1.289931345
1.283524344
1.277266407
1.270981084
1.263977601
1.256604504
1.249266191
1.242541948
1.236721058
1.231546239
1.22687868
1.222316068
1.218485045
1.212272413
1.416246344
1.408022304
1.400357063
1.392899729
1.385422599
1.378260115
1.371313328
1.364000444
1.356415841
1.348863771
1.341120157
1.333837385
1.327226814
1.320468646
1.313990334
1.307559634
1.301468845
1.295438134
1.289365727
1.283136175
1.276904049
1.270135171
1.2628943
1.255718952
1.248389092
1.241782998
1.236999072
1.232151821
1.227575054
1.223214207
1.219380945
1.212424435
1.415517393
1.40721937
1.399213104
1.391726023
1.384760648
1.377628658
1.370315939
1.362917706
1.355195282
1.347789181
1.340684067
1.333389334
1.326008771
1.319105913
1.312671008
1.30793749
1.302415268
1.296323392
1.290146146
1.283957324
1.277016513
1.269278482
1.261937743
1.255258156
1.248331185
1.241536998
1.235261021
1.229881654
1.225316894
1.221051032
1.217234326
1.211770885
1.414003496
1.405882344
1.398376589
1.391049717
1.383711626
1.376414044
1.368949902
1.361787322
1.354759301
1.347310252
1.33970902
1.332180739
1.324722785
1.318229797
1.3118078
1.305510053
1.299816186
1.293772981
1.287586945
1.281449728
1.275158971
1.268323123
1.261307261
1.254556528
1.248117607
1.241458108
1.235287335
1.229957881
1.225380859
1.221089767
1.217312133
1.211418113
1.412925589
1.405317523
1.397589405
1.389844119
1.382149958
1.37516215
1.368484745
1.36131881
1.353835213
1.346203781
1.338441355
1.331215572
1.324320566
1.317525325
1.310806368
1.304205883
1.298379854
1.292812591
1.286949664
1.280833917
1.274517875
1.267693611
1.260467182
1.253351055
1.247843147
1.242099055
1.236152287
1.230868933
1.226192872
1.221894664
1.218324572
1.211362787
1.411935065
1.403876962
1.395936018
1.388628092
1.381632635
1.374451674
1.367271919
1.359996478
1.352477997
1.345342992
1.338082894
1.330614743
1.323435506
1.316364041
1.309783999
1.303742097
1.297624673
1.2927329
1.287556796
1.281292121
1.27419426
1.267191747
1.260093844
1.253203789
1.246377051
1.239685167
1.233995645
1.228940043
1.22413503
1.219707693
1.216143261
1.209988821
1.410124205
1.402735468
1.395404574
1.387880908
1.38041786
1.372939
1.365622766
1.359016793
1.352158413
1.344724909
1.33706676
1.329413696
1.322258993
1.315741657
1.309269561
1.302773856
1.296763894
1.290930062
1.284833634
1.278749879
1.27249288
1.266011109
1.259194697
1.252356772
1.245267518
1.238760338
1.233206913
1.228306708
1.224045174
1.219745502
1.215906575
1.209490172
1.409540098
1.401682609
1.393995073
1.386302687
1.378818322
1.371967445
1.365116386
1.35796053
1.350731417
1.343302513
1.335952153
1.328900244
1.321727029
1.314818427
1.308130024
1.301597659
1.295624278
1.289880581
1.283985517
1.277915052
1.271461257
1.264859254
1.258262867
1.251841247
1.245054527
1.238817272
1.232882019
1.227463577
1.224337014
1.220629589
1.216642167
1.209593029
1.407685147
1.39973986
1.392476504
1.38554726
1.378353812
1.371016048
1.363655861
1.356218544
1.349231293
1.342685403
1.335489365
1.328069281
1.32071281
1.313710238
1.307239902
1.301169941
1.295108605
1.289229434
1.283437008
1.277439775
1.270962313
1.26454572
1.257833481
1.250932808
1.243828362
1.237670961
1.232221945
1.22758756
1.22287727
1.218308433
1.214731825
1.208631974
1.406581753
1.399087014
1.391692515
1.384354142
1.37695422
1.369390243
1.362135447
1.35546534
1.348487567
1.34118994
1.333875249
1.326968996
1.320241825
1.313490241
1.3068914
1.30062841
1.294454435
1.288428843
1.282397085
1.276374285
1.270048307
1.263526512
1.25660925
1.250002999
1.243333845
1.237499834
1.231584582
1.227173174
1.222335988
1.217529488
1.214099431
1.208022604
1.405132822
1.397479045
1.389888286
1.382584493
1.375722868
1.368839254
1.361569723
1.354225632
1.346807882
1.339574152
1.332917758
1.326205291
1.319162565
1.312250864
1.305521407
1.299513195
1.29365512
1.287531964
1.281399998
1.275493905
1.26940714
1.263094637
1.256354666
1.249578779
1.242736854
1.236738915
1.230817748
1.226436353
1.221747122
1.217286129
1.214092083
1.207907433
1.403736345
1.396330162
1.389073235
1.381998228
1.374810737
1.367570901
1.360094579
1.352517178
1.345394691
1.338675174
1.331635137
1.32458155
1.317907176
1.311526267
1.305107874
1.298748522
1.292503235
1.286555864
1.280658591
1.27460087
1.268210797
1.261709997
1.254992258
1.248396636
1.242044123
1.23637394
1.230913856
1.226238978
1.220771989
1.217133478
1.213226432
1.206852791
1.402482709
1.39506644
1.387767841
1.380482402
1.373056907
1.36589367
1.359014288
1.352016688
1.344673497
1.337474763
1.3305346
1.323840956
1.3171121
1.310435935
1.303972302
1.297625416
1.291391184
1.285327886
1.27933365
1.273337676
1.267187902
1.260900781
1.254491875
1.248041078
1.241644527
1.235795859
1.230434442
1.22490008
1.219973491
1.216822882
1.212638994
1.206639659
1.400657021
1.393517888
1.386542929
1.379494588
1.372365971
1.365274187
1.357982057
1.350684727
1.34332724
1.336195924
1.329226353
1.322334704
1.315469911
1.308940704
1.302883641
1.296871182
1.290778301
1.284790231
1.278893369
1.27283771
1.266529862
1.260100402
1.253496795
1.246848367
1.240673876
1.235044723
1.230115058
1.22418096
1.220077798
1.216685223
1.211556307
1.207178246
1.399890839
1.392657575
1.38542022
1.378214194
1.371001286
1.363682493
1.356191916
1.349042763
1.342193126
1.33531172
1.328314149
1.321458174
1.314846822
1.308427889
1.302034603
1.295756171
1.289660569
1.283623835
1.277577162
1.271337408
1.265188249
1.259185332
1.25284496
1.246458824
1.240683174
1.234850103
1.229122306
1.224244533
1.220174375
1.215430482
1.210588658
1.209074834
1.397989207
1.390702601
1.383484954
1.376550234
1.369761392
1.362760194
1.355561972
1.34837024
1.341119608
1.334040966
1.327051525
1.32018317
1.313499627
1.306933578
1.300479037
1.294360357
1.288656821
1.282818312
1.276874012
1.27085495
1.264787309
1.258399086
1.251875009
1.245602769
1.239682336
1.233535158
1.228104871
1.224503662
1.220637278
1.214227537
1.21078771
1.218677619
1.39694682
1.389878328
1.382896733
1.375869742
1.368639353
1.361361631
1.354052508
1.346692376
1.339321081
1.332206821
1.325432533
1.318938263
1.312556291
1.306231254
1.300091168
1.293959684
1.287848088
1.281706022
1.275703737
1.269571335
1.263300761
1.2569609
1.250920354
1.245049569
1.239252275
1.233096599
1.228429811
1.223615512
1.218743537
1.213469413
1.211248795
1.24600792
1.395322811
1.388249931
1.381150656
1.373923658
1.366626206
1.359619174
1.352749852
1.345712885
1.338625555
1.33168503
1.324823707
1.318027317
1.311430703
1.305008404
1.298715878
1.292398632
1.286235711
1.280330271
1.274762845
1.268850269
1.262785645
1.256619251
1.250453933
1.244133673
1.237781258
1.232452297
1.227694097
1.222678138
1.217453246
1.2137196
1.214110997
1.304092163
1.394060049
1.387070749
1.380058964
1.373044996
1.366038298
1.358906202
1.351537687
1.344219495
1.337056661
1.329996383
1.323000958
1.316179361
1.30985405
1.303882276
1.297825746
1.291666665
1.285787534
1.279807722
1.273780863
1.267561041
1.261411446
1.255207925
1.249047085
1.242954207
1.236797682
1.232346767
1.227516431
1.221545166
1.2177
1.216698085
1.232716726
1.384808057
1.392512324
1.385482847
1.378437549
1.371364213
1.364175148
1.356806086
1.349409626
1.342345614
1.335574575
1.328793957
1.322079478
1.315601106
1.309320943
1.302959146
1.296644763
1.290421321
1.284344873
1.278161843
1.272270001
1.266437751
1.260615876
1.254653899
1.24862781
1.242231676
1.236741297
1.23119145
1.225139914
1.221237674
1.218814273
1.228015672
1.302054745
1.447412651
1.390886338
1.384040937
1.377149607
1.370165043
1.363031894
1.355860403
1.348765881
1.341663461
1.334509666
1.327463071
1.320703791
1.314125134
1.307652735
1.301221562
1.295166973
1.289414164
1.283593644
1.277654168
1.271776355
1.265574466
1.259614218
1.253286022
1.247057547
1.241062987
1.23617481
1.230254873
1.224148204
1.221772907
1.225084323
1.280903889
1.400064263
1.471676378
1.389693616
1.382701985
1.375670913
1.368549049
1.361327569
1.354094585
1.346872309
1.339597808
1.332399502
1.325529997
1.319224069
1.313053078
1.30686244
1.300732361
1.294677157
1.288501738
1.282351641
1.276200262
1.27010171
1.264146454
1.258605561
1.252400062
1.246369834
1.24099775
1.235291938
1.228654817
1.224813184
1.225200017
1.257646339
1.380941198
1.475607468
1.488288334
1.387420836
1.380645884
1.373929746
1.367063332
1.359995512
1.352839085
1.345663527
1.338534137
1.331648308
1.324989905
1.318456284
1.31195468
1.305672667
1.299426181
1.293143396
1.286937447
1.281153616
1.27540391
1.269601011
1.263803662
1.257521845
1.251253149
1.245706101
1.239632248
1.233013095
1.228240012
1.227750095
1.24558248
1.350517073
1.452281642
1.495995201
1.493822162
1.386679799
1.379879722
1.372867057
1.365680162
1.358440855
1.351195796
1.343999626
1.336912532
1.330028289
1.323273599
1.316649908
1.310222945
1.304329863
1.298538135
1.292591224
1.286617805
1.28045087
1.274274843
1.268249387
1.262057673
1.25591474
1.250283969
1.245259285
1.238518036
1.232733981
1.229970068
1.240162429
1.320580296
1.441869712
1.480577556
1.496340671
1.49507758
1.384471278
1.377509446
1.370460923
1.363545514
1.356760681
1.349719745
1.342403867
1.335162755
1.328377799
1.32201234
1.31588322
1.309825233
1.303800444
1.297609529
)
;

boundaryField
{
    inlet
    {
        type            fixedValue;
        value           nonuniform 0();
    }
    outlet
    {
        type            inletOutlet;
        inletValue      uniform 1;
        value           nonuniform List<scalar> 
69
(
1.222003037
1.223900068
1.222405726
1.222294215
1.223733237
1.222154184
1.22207367
1.223306958
1.222123811
1.221932444
1.222649905
1.221751452
1.221536666
1.222816571
1.221082707
1.220776884
1.220930332
1.222300542
1.220640245
1.220594704
1.221749401
1.219881106
1.219457452
1.219533081
1.220813229
1.218950508
1.218594139
1.219315951
1.218335338
1.2187072
1.217288461
1.217195908
1.218345942
1.216400604
1.216245491
1.217317042
1.215467032
1.215341309
1.21611824
1.214498728
1.214003042
1.213903842
1.214502237
1.21295913
1.21229825
1.212302062
1.212449566
1.21182194
1.211453468
1.211384634
1.210023147
1.209518967
1.20961035
1.208662552
1.20805471
1.207938933
1.206887537
1.20667657
1.207208937
1.209105211
1.218711292
1.246070759
1.304152126
1.384856026
1.447397809
1.471756533
1.488389349
1.493811272
1.495083128
)
;
    }
    bottom
    {
        type            slip;
    }
    top
    {
        type            slip;
    }
    obstacle
    {
        type            zeroGradient;
    }
    defaultFaces
    {
        type            empty;
    }
    procBoundary5to4
    {
        type            processor;
        value           nonuniform List<scalar> 
69
(
1.45429386
1.456874203
1.45496086
1.454568605
1.454112565
1.454254158
1.456199136
1.453815021
1.453699096
1.455342815
1.452747934
1.452013378
1.451774184
1.451768597
1.452623782
1.450427929
1.450097616
1.451223901
1.448429826
1.448100624
1.449292199
1.446694034
1.446242077
1.447526195
1.444767033
1.444431842
1.445549049
1.442477036
1.442070763
1.443222101
1.440022669
1.439184891
1.438873217
1.437764796
1.436429692
1.435687586
1.434576088
1.433855308
1.433182261
1.431932326
1.430927038
1.430075699
1.429674534
1.427999354
1.426380832
1.425984401
1.42489299
1.423962168
1.422473339
1.420690134
1.420127429
1.418321247
1.417416194
1.415911221
1.414278859
1.412950327
1.411404309
1.410071356
1.408145065
1.407286649
1.405374846
1.404191892
1.402517505
1.401147345
1.399622667
1.397762733
1.396735552
1.394363677
1.393411944
)
;
    }
    procBoundary5to10
    {
        type            processor;
        value           uniform 1.391326351;
    }
    procBoundary5to11
    {
        type            processor;
        value           nonuniform List<scalar> 
33
(
1.291461036
1.285230659
1.278950218
1.273179895
1.267547036
1.261448304
1.255665913
1.249865589
1.24334937
1.236183241
1.23340136
1.236447484
1.299041623
1.418853009
1.494382513
1.501441277
1.499819014
1.49599739
1.383219444
1.376475289
1.36969302
1.362726821
1.355421807
1.348017931
1.340902214
1.334104757
1.327386126
1.320776922
1.314380079
1.308095066
1.301890714
1.291461036
1.295773299
)
;
    }
}

