/*--------------------------------*- C++ -*----------------------------------*\
  =========                 |
  \\      /  F ield         | OpenFOAM: The Open Source CFD Toolbox
   \\    /   O peration     | Website:  https://openfoam.org
    \\  /    A nd           | Version:  7
     \\/     M anipulation  |
\*---------------------------------------------------------------------------*/
FoamFile
{
    version     2.0;
    format      ascii;
    class       volVectorField;
    location    "2";
    object      U;
}
// * * * * * * * * * * * * * * * * * * * * * * * * * * * * * * * * * * * * * //

dimensions      [0 1 -1 0 0 0 0];

internalField   nonuniform List<vector> 
22
(
(3 1.559021779e-15 0)
(3 8.071867381e-16 0)
(3 1.627010744e-15 0)
(3 3.87865216e-14 0)
(3 2.471799045e-13 0)
(3 7.834025619e-13 0)
(3 9.708255757e-15 0)
(3 1.189597896e-13 0)
(3 1.04610948e-12 0)
(3 8.758861369e-12 0)
(3 2.156021405e-11 0)
(3 5.21955882e-11 0)
(3 1.737218171e-10 0)
(3 4.524712238e-12 0)
(3 2.042306827e-11 0)
(3 7.883431288e-11 0)
(3 1.961436793e-10 0)
(3 3.227816826e-10 0)
(3 5.031365472e-10 0)
(3 6.852349257e-10 0)
(3 1.18132038e-09 0)
(3 9.121619917e-10 0)
)
;

boundaryField
{
    inlet
    {
        type            fixedValue;
        value           nonuniform 0();
    }
    outlet
    {
        type            inletOutlet;
        inletValue      nonuniform 0();
        value           nonuniform 0();
    }
    bottom
    {
        type            slip;
    }
    top
    {
        type            slip;
    }
    obstacle
    {
        type            slip;
    }
    defaultFaces
    {
        type            empty;
    }
    procBoundary2to1
    {
        type            processor;
        value           nonuniform List<vector> 3((3 2.520427667e-15 0) (3 3.107598564e-15 0) (3 6.705835896e-13 0));
    }
    procBoundary2to3
    {
        type            processor;
        value           nonuniform List<vector> 5((3 1.173790779e-11 0) (3 1.173790779e-11 0) (3 -1.011119551e-09 0) (2.999999917 -1.864436747e-07 0) (2.999992948 -1.622695768e-05 0));
    }
    procBoundary2to8
    {
        type            processor;
        value           nonuniform List<vector> 8((3 2.054144519e-10 0) (3 3.882272999e-10 0) (3 7.47410394e-10 0) (3 7.520300319e-10 0) (3.000000001 1.434842918e-09 0) (3.000000001 1.434842918e-09 0) (2.999999787 -3.91028487e-07 0) (2.999999984 -1.303084328e-07 0));
    }
}


// ************************************************************************* //
