/*--------------------------------*- C++ -*----------------------------------*\
  =========                 |
  \\      /  F ield         | OpenFOAM: The Open Source CFD Toolbox
   \\    /   O peration     | Website:  https://openfoam.org
    \\  /    A nd           | Version:  7
     \\/     M anipulation  |
\*---------------------------------------------------------------------------*/
FoamFile
{
    version     2.0;
    format      ascii;
    class       volScalarField;
    location    "4.7";
    object      T;
}
// * * * * * * * * * * * * * * * * * * * * * * * * * * * * * * * * * * * * * //

dimensions      [0 0 0 1 0 0 0];

internalField   nonuniform List<scalar> 
2222
(
1.297333659
1.283821942
1.297102092
1.299716663
1.313501387
1.32363096
1.331215371
1.336889488
1.355732893
1.37910367
1.392621026
1.404855982
1.407590694
1.408313464
1.411265587
1.415121726
1.419972656
1.423745837
0.9648586826
1.072293487
1.147174803
1.198258021
1.226890897
1.24754664
1.237462718
1.240195282
1.239115364
1.249335487
1.266378708
1.280438059
1.28824805
1.301094479
1.325341343
1.34377036
1.356316073
1.365610793
1.373855297
1.380897171
1.383784391
1.393277495
1.406877452
0.8641661581
0.9632828909
1.088110573
1.178088723
1.213790456
1.238689851
1.233024654
1.221529344
1.216421261
1.216774063
1.231939199
1.244443746
1.252912406
1.257765248
1.278149961
1.298713683
1.310678734
1.320764549
1.331332769
1.340954154
1.348179423
1.360244715
1.378277181
0.783946494
0.8600410857
1.06086071
1.182292039
1.214886864
1.236054119
1.23516943
1.219288436
1.216479455
1.210057602
1.224877014
1.238671043
1.239973566
1.23511475
1.247678809
1.265577056
1.273242922
1.281314124
1.293114058
1.302751856
1.309140314
1.322780541
1.345083006
0.6245116385
0.625765573
0.8324715678
1.138264241
1.20768266
1.223354855
1.239650059
1.22122628
1.223405516
1.211554181
1.223100994
1.232006322
1.234390264
1.230527208
1.238555775
1.251373224
1.253104926
1.254976837
1.263723216
1.273752981
1.279938513
1.290006488
1.307572349
0.6228776736
0.6246361596
0.615967733
0.9011571622
1.187627775
1.21351778
1.241387933
1.228723018
1.227166677
1.219718852
1.217379195
1.218047341
1.226126723
1.22704892
1.233456067
1.246280094
1.247256043
1.243973445
1.246469012
1.252222603
1.258842394
1.266742392
1.279143817
1.291915961
0.6221605673
0.6247839899
0.6123704969
0.6012554802
1.030377609
1.198176926
1.228153451
1.230296117
1.226808195
1.221013854
1.209202284
1.202200411
1.208989745
1.220619767
1.225566827
1.236377322
1.239486478
1.235815433
1.232376425
1.235642565
1.241859136
1.249153282
1.259229293
1.270180687
0.6217674371
0.6248879247
0.6120008401
0.5897532014
0.6528690206
1.11920158
1.19206296
1.223204786
1.218179804
1.216362558
1.200012095
1.191496172
1.193035493
1.211749494
1.215241137
1.224683924
1.230543706
1.226800271
1.221437522
1.222094719
1.229089783
1.237336655
1.246725761
1.25581125
0.6214074176
0.6244340203
0.6122614351
0.5900861675
0.5666375464
0.8090684584
1.11911815
1.200372889
1.193497955
1.203119888
1.193984159
1.187130999
1.184053871
1.200292609
1.202579262
1.207544586
1.216107955
1.216997664
1.211790836
1.210748327
1.218336896
1.231467238
1.239240946
1.244971214
0.6211351064
0.6234566644
0.6121741745
0.5905693202
0.5649227817
0.5559074288
0.965151947
1.142625181
1.152932924
1.174292768
1.180678896
1.182384221
1.180296516
1.18644026
1.191933019
1.192641655
1.197141289
1.205181953
1.20515677
1.202803245
1.207015673
1.221095453
1.230239021
1.234277615
0.6208375724
0.622064551
0.6114560164
0.5906090461
0.5651379346
0.5434939326
0.6445298107
1.006798855
1.11550325
1.140695721
1.168312395
1.173238519
1.175767717
1.174318963
1.183034078
1.18165076
1.181799172
1.191707046
1.19925244
1.198392148
1.199579704
1.208227054
1.219703206
1.223525389
0.6203957032
0.6211924011
0.6113790721
0.5897523675
0.5651488292
0.5433453743
0.5318388636
0.7722296107
1.079432537
1.120958662
1.158224824
1.167065948
1.170307468
1.163770313
1.175105406
1.175110483
1.173268879
1.180097639
1.195146134
1.195733906
1.193735092
1.197188792
1.206237831
1.211886685
1.208945253
0.619406215
0.620543614
0.611060887
0.5892198291
0.5643916256
0.5434137086
0.5300920262
0.5410840847
0.9709563983
1.116400196
1.144615115
1.156077429
1.165662275
1.158757692
1.168659949
1.173322886
1.170466906
1.172686368
1.186602067
1.19315376
1.19140694
1.190202951
1.194554955
1.200972176
1.201574826
0.616656972
0.6200462303
0.6099576979
0.5884386625
0.5640513839
0.5434693738
0.5303451378
0.5260002471
0.6807419089
1.098031559
1.125676813
1.136306524
1.151631705
1.158685839
1.163492333
1.172491386
1.172115265
1.170928533
1.178174516
1.189958758
1.190010628
1.186068812
1.187222146
1.192637561
1.196348576
0.6141259986
0.6197134997
0.60947614
0.588072438
0.5638625717
0.5432975638
0.5302676442
0.5256180361
0.5374939746
0.9302589849
1.100703688
1.123528362
1.135298272
1.160072268
1.156129963
1.170577757
1.174690578
1.171776183
1.172314656
1.181438046
1.187587047
1.184062312
1.18360509
1.18793727
1.19285288
0.6126886487
0.6193804125
0.6088416831
0.5879778562
0.5637174303
0.5432573526
0.5303811611
0.5266087589
0.5280686409
0.633853698
1.059351545
1.120658177
1.136167693
1.165866393
1.153309373
1.165789381
1.176334538
1.171151262
1.169806934
1.171894181
1.180967831
1.18221287
1.181832057
1.185753344
1.192178008
0.6119004614
0.6183680871
0.6079305528
0.5878565127
0.5635715829
0.5432915923
0.5310759002
0.5275477978
0.5287849089
0.5359184695
0.84151209
1.120489667
1.147145052
1.16910313
1.158213439
1.161702634
1.175272473
1.175978765
1.169316143
1.167570383
1.173251673
1.183104395
1.182903762
1.186348522
1.192375485
0.6114882158
0.6174509582
0.6076403288
0.5884833979
0.5634712471
0.543625522
0.5318120424
0.528502432
0.5300467317
0.5335548605
0.5626138907
1.059374221
1.157427133
1.164934797
1.172816738
1.165002941
1.170278576
1.182809467
1.17789289
1.171161091
1.172265331
1.183490501
1.18817328
1.189812279
1.192115402
0.611217587
0.6158382589
0.6077476121
0.5886165878
0.5635624009
0.5438396471
0.5320557853
0.528835996
0.5303848653
0.5344481757
0.5442086172
0.7689574875
1.143448549
1.159169167
1.189998813
1.173365902
1.171413781
1.183724288
1.188375889
1.180572782
1.177942814
1.184336175
1.194517752
1.194319551
1.191853595
1.191905307
0.6106616002
0.6134867503
0.6077187104
0.5885730192
0.5637523505
0.5438397139
0.5320830699
0.5289027752
0.5306375238
0.5352406955
0.5436538841
0.5660911258
1.009312908
1.157434901
1.200296325
1.191674911
1.177172376
1.182532004
1.197104099
1.198116028
1.187418387
1.189930087
1.197864802
1.198580055
1.193457752
1.190754791
0.6097782003
0.6121903583
0.6076655234
0.5885497556
0.563732497
0.5437012882
0.5317707661
0.5287975641
0.5307785444
0.5358724487
0.5446944331
0.553702418
0.733984987
1.139667701
1.199111314
1.203552116
1.189638823
1.184775351
1.199302611
1.209516053
1.203845525
1.195942746
1.200590279
1.201751708
1.194436932
1.190105793
0.6083341452
0.6117267548
0.6075753879
0.5885139585
0.5635701655
0.5434316481
0.5314868313
0.5287175034
0.5309110086
0.5362706412
0.5451765811
0.5534487323
0.5665661199
0.9792368512
1.167123543
1.204859208
1.203980593
1.185749903
1.195728365
1.211965942
1.213549129
1.197750754
1.199925051
1.202333942
1.197126954
1.193537556
0.6054216496
0.6115975805
0.6072395189
0.5882944683
0.5632653968
0.5431782918
0.5313577609
0.528884809
0.5310530807
0.5366740815
0.5453752755
0.553968946
0.559647238
0.6664164941
1.087544957
1.197424653
1.205234037
1.192975325
1.191776042
1.208609898
1.214318786
1.205960444
1.19800365
1.202689123
1.2054633
1.199326424
0.6025877652
0.611517596
0.6066926
0.5876376308
0.5627626432
0.5428670499
0.5312661622
0.5291725816
0.5318953677
0.5370707294
0.5455350506
0.5543226105
0.5605808374
0.567454637
0.8860434887
1.151020884
1.203498763
1.202994877
1.18968786
1.197423163
1.212507703
1.211916926
1.199884525
1.204013626
1.210943407
1.209414938
0.6015738505
0.6113761794
0.6060647642
0.5873004337
0.5621434552
0.5424604551
0.530993659
0.529000947
0.5319388766
0.5376415914
0.5459408489
0.5551699235
0.5616361059
0.5644383139
0.6133263807
1.042362823
1.192695027
1.206576249
1.192144845
1.191516932
1.204372501
1.213132054
1.20602355
1.204956553
1.214295276
1.217368057
1.214394611
0.6014242461
0.6110960726
0.605459871
0.5871177521
0.5616464511
0.5421018944
0.530866529
0.5290446708
0.5320605398
0.5386877285
0.5471803464
0.5561309389
0.5621223224
0.5653972979
0.5681077335
0.824222926
1.131250036
1.203881826
1.202347855
1.190433436
1.195701427
1.2138876
1.211930911
1.207201844
1.213133949
1.219422869
1.216618206
0.6016334268
0.6099001425
0.6053352301
0.5870642479
0.5615266251
0.541884855
0.5308417341
0.5296062975
0.5327767868
0.5393036904
0.5479805094
0.5564998303
0.5622707719
0.5658210206
0.5668513421
0.5862699968
1.037904609
1.190235891
1.207625327
1.1970095
1.19149017
1.204673454
1.214654878
1.208885468
1.210924153
1.217559516
1.214851079
0.6029605914
0.6067454657
0.6055182519
0.5878761786
0.5615946927
0.5418161642
0.5309901883
0.5299964267
0.5328168005
0.5395106961
0.5482068875
0.5565406493
0.5622844676
0.5660159162
0.5681843191
0.5682631232
0.791886472
1.118753394
1.205271813
1.205663253
1.190263515
1.195177851
1.211208471
1.209945098
1.205934745
1.211617491
1.210572047
0.6031327445
0.6045625863
0.6061584768
0.5887816115
0.5615953932
0.5418842468
0.5317099765
0.530360535
0.5327426912
0.5393507684
0.5481739312
0.5564317218
0.5622380779
0.5661971992
0.568528682
0.5681221801
0.5756078914
0.9951840924
1.18667962
1.203571322
1.199431863
1.186621771
1.203410213
1.209004288
1.199732024
1.20360129
1.206376076
0.6028533197
0.6040683248
0.6064817805
0.589146656
0.5624014447
0.5426626729
0.5323174723
0.5306239491
0.5328626269
0.5393467937
0.5481674613
0.5565116731
0.5622921951
0.5663149608
0.5685226371
0.5687454301
0.5678463103
0.7224028921
1.098175541
1.19538075
1.202222272
1.184109253
1.192915142
1.203975167
1.199447514
1.19769269
1.20374675
0.6011953317
0.6040645763
0.6064316454
0.5892643535
0.5635742644
0.5435960989
0.5326670591
0.5308285766
0.532859877
0.539504097
0.5483527394
0.5567294718
0.562453113
0.5664333667
0.5684138982
0.5687234511
0.567988888
0.5728142487
0.9362615619
1.169029823
1.198761173
1.191529232
1.183776775
1.198228314
1.201796718
1.194464105
1.202252604
0.5974606402
0.6043212397
0.6062682958
0.5892507543
0.563987672
0.5442003767
0.53303647
0.531077045
0.5329741226
0.539747504
0.5487341525
0.5573348774
0.5630086075
0.5665878095
0.5681506156
0.5685570928
0.5687222205
0.5682819216
0.6722172311
1.072457277
1.192021473
1.194613659
1.179233912
1.194139754
1.202177862
1.195664647
1.2024261
1.206560661
0.59574019
0.6044567233
0.6060465399
0.5892774367
0.5640212065
0.544368031
0.5332628781
0.5312940791
0.5333336779
0.5405519719
0.5495661109
0.5582248514
0.5638138759
0.5668601578
0.5680597283
0.568450607
0.5685721955
0.5685372745
0.5713389616
0.8834008962
1.149271887
1.193179072
1.181320416
1.187147777
1.202521166
1.199976982
1.201969389
1.206552643
0.5953673314
0.6042478384
0.6058126121
0.5893556256
0.5640214096
0.5443418347
0.5332822305
0.531553871
0.5337707647
0.5412722085
0.5505455865
0.5589456568
0.5644214046
0.5674643804
0.5680253395
0.5684352743
0.5683031042
0.5687011295
0.5687703751
0.6230213285
1.059476789
1.190680201
1.187525145
1.181163449
1.199394646
1.203585225
1.198768618
1.204365879
0.5953290189
0.6030923579
0.6057479903
0.5895079732
0.5640571073
0.5446310602
0.5337008284
0.5322657075
0.5348690358
0.5418767297
0.5513591801
0.5593775615
0.5646575962
0.5677110712
0.5681358896
0.5687628922
0.568304288
0.5684405344
0.5690611813
0.5706683054
0.8460888741
1.134755297
1.19114771
1.176368634
1.1885853
1.201588561
1.194204316
1.199263566
0.5971500088
0.6013776095
0.6057128574
0.590251986
0.5643080549
0.5448978491
0.5342481064
0.5331566065
0.5362629749
0.5423913192
0.5518255955
0.5595537792
0.5645485439
0.5676376826
0.5690397516
0.5697888637
0.5684297554
0.5685269295
0.5690718594
0.5696072717
0.5886298753
1.033098168
1.186150003
1.17161775
1.176265771
1.196456739
1.187492005
1.191543593
0.600017771
0.5996984837
0.6052382879
0.591128676
0.565134097
0.5451581088
0.5347690657
0.5344574406
0.5374254681
0.5429695426
0.5523411068
0.5599172967
0.5645819348
0.5672810664
0.5695884069
0.5700610469
0.5696875254
0.5690692901
0.5691858487
0.5705670619
0.5719773674
0.796315209
1.124901661
1.173930528
1.165334424
1.186028366
1.186188336
1.183964434
0.6006798874
0.5989877949
0.6046471736
0.5913125695
0.5659009924
0.545954438
0.5360333473
0.5357295807
0.5383631467
0.54364591
0.5529007134
0.5603397951
0.5647308875
0.5672424359
0.5696004728
0.5700601531
0.5707310132
0.5705077749
0.570706218
0.5721605314
0.5719998571
0.5796844535
0.9794971149
1.160704595
1.155189969
1.171757146
1.185271437
1.175595558
1.183171331
0.6003579577
0.5988667595
0.6046744498
0.5911851401
0.5662274139
0.546097535
0.5365363166
0.5362125724
0.5387933844
0.5445977894
0.5538566423
0.5610679491
0.5649516764
0.56725771
0.5692671232
0.570035066
0.5711108958
0.5713563255
0.5725195148
0.5737811349
0.5750620407
0.5748250576
0.7341831364
1.107644639
1.152039108
1.156273712
1.179640346
1.170459196
1.177692295
0.5970663598
0.5986969282
0.6046045859
0.591055746
0.5664831308
0.5461860358
0.5365707261
0.5362716826
0.5389855667
0.5459255859
0.5552742449
0.56208845
0.5655312047
0.5673458562
0.5692694435
0.5698022784
0.571216563
0.5716173169
0.5733118765
0.5745321796
0.5764284669
0.5769700251
0.5827535127
0.936650516
1.136028356
1.141226767
1.174680827
1.171900023
1.173018307
0.5948450427
0.5979963946
0.6042402182
0.5911046441
0.5665841089
0.5465180054
0.5366113847
0.5363519052
0.5393158736
0.5469694129
0.5564147999
0.5629389778
0.5662975463
0.5676499888
0.5693605053
0.5698490268
0.5711627468
0.5714537323
0.5734827672
0.5747409713
0.5770585924
0.5797128954
0.5807257484
0.6868751953
1.090015665
1.132924484
1.166927306
1.173626685
1.164889477
0.5946023642
0.5970788529
0.603975912
0.5919443186
0.5666013826
0.546279651
0.5365201469
0.5364486274
0.5396348446
0.5477214704
0.5571242509
0.563320741
0.5667384529
0.5684759595
0.5696918045
0.5700737324
0.571277311
0.5715923346
0.5732025752
0.5751001592
0.5774459328
0.5801707719
0.5819778638
0.5862204332
0.8975690139
1.119057932
1.152105364
1.170605095
1.158180669
0.5946394263
0.5965824232
0.6039936813
0.5928907432
0.5680789477
0.5462745572
0.5363487078
0.5364061093
0.5399057432
0.5482058775
0.5572528204
0.5633930194
0.5667413543
0.5694354689
0.5709727047
0.5718613798
0.5727466566
0.5731083929
0.5733460598
0.5752974205
0.5779975643
0.5803702981
0.5821552174
0.5848547648
0.6439807721
1.076024362
1.124620856
1.165974608
1.157832071
0.5957633043
0.5963437597
0.6024869344
0.5936021775
0.5692889062
0.5467977945
0.5365295197
0.536518313
0.540195883
0.5484900896
0.5572646365
0.5635315786
0.5668332103
0.5701607717
0.5718875121
0.5736240216
0.5744228024
0.5758491964
0.574559029
0.5766219741
0.5791516543
0.580902628
0.5825015769
0.5860871412
0.5895828392
0.8662292492
1.094548152
1.158440768
1.160530816
0.5996033734
0.5963207979
0.6011720347
0.5942788764
0.5695764096
0.5467951533
0.5365133156
0.5367049196
0.5407769938
0.5487325102
0.5572619496
0.5636827699
0.5670518876
0.5704741951
0.5720506516
0.5742112195
0.5752324319
0.576964966
0.577668539
0.5799629603
0.5817455771
0.5819877072
0.5845960101
0.5864078301
0.5890344551
0.6210806076
1.045323696
1.132023516
1.159305337
1.144232708
0.6016458538
0.5967157037
0.6011329775
0.5944588443
0.5696586274
0.5466032558
0.5363849018
0.5366700559
0.5411206144
0.5488950897
0.5572681817
0.5638927399
0.5678133742
0.5704484258
0.571747032
0.5739599709
0.575410575
0.5773715217
0.5794839017
0.5816542009
0.5837872681
0.585612892
0.5874670152
0.588811247
0.5914330438
0.5938676984
0.8377839877
1.079658352
1.1542882
1.143512809
0.6021420764
0.5975049479
0.6011545185
0.5946101955
0.5696869512
0.5464518373
0.536309947
0.5364975908
0.5411886015
0.5494141891
0.5573784827
0.5649408349
0.5698649316
0.5705986614
0.5718485672
0.5737497516
0.5752927369
0.5774626509
0.5802781711
0.582070863
0.5845727479
0.5877355443
0.5891138175
0.5914606345
0.5943332158
0.5960193983
0.6108133082
1.015200093
1.141746694
1.146258397
0.6009116276
0.5975738521
0.601208327
0.5948703703
0.5695239435
0.5458767942
0.5359759857
0.536346116
0.5410739561
0.5498130567
0.5581896111
0.5661475775
0.5708121994
0.5714322327
0.5724085174
0.573888955
0.5755845178
0.5778217606
0.5804261524
0.5822037308
0.5846873751
0.5885194679
0.5902631976
0.592511713
0.5954665568
0.5980769415
0.5993615536
0.8140828571
1.080785208
1.145565306
0.5988839805
0.5963674771
0.6012793806
0.5957326394
0.5696148596
0.545537507
0.5357961113
0.536284633
0.5410524782
0.5498609894
0.5589187936
0.5665027116
0.5708034911
0.5731313376
0.5750236878
0.5746187948
0.5772348018
0.5791993247
0.5807097027
0.5832256662
0.585281535
0.5887789956
0.5908411364
0.5932236074
0.5956861188
0.5985293629
0.6008505588
0.6093737855
0.9948562518
1.138236399
0.5987378332
0.5960169031
0.6018979125
0.5965605748
0.5703579285
0.5455582737
0.535838392
0.5366238383
0.5411092908
0.5497294059
0.5590821272
0.5664148881
0.5700337086
0.5740696337
0.5770768867
0.5775528794
0.5803424219
0.5819096424
0.5817509751
0.5836163845
0.5870158109
0.5892991703
0.5910970086
0.5940907586
0.5960924515
0.5985177429
0.6013882528
0.6034319581
0.8050972094
1.093357382
0.5989211322
0.5960415813
0.601604818
0.5966064525
0.5706956011
0.5461740635
0.5364671139
0.5370941107
0.5414407365
0.5496191028
0.5588403505
0.5659536602
0.5698519109
0.5744620716
0.5779401252
0.5800900783
0.582071854
0.583929542
0.5854956567
0.5864156971
0.5887641675
0.5910380677
0.5932468271
0.594293989
0.5974503779
0.5992821826
0.6015457184
0.6037911319
0.6125232772
0.9857904717
0.59993921
0.5961848961
0.5989571885
0.5956218025
0.5707191294
0.5468858218
0.5367485397
0.5372531553
0.5420871501
0.5496370831
0.5586900074
0.565978536
0.5698944997
0.5746200028
0.5782216124
0.5810552567
0.582676898
0.5848141205
0.5877961688
0.5896396718
0.5917729018
0.5932826779
0.5966809716
0.5967363919
0.5985828102
0.6017681753
0.6034168441
0.6046567306
0.6071851459
0.795933236
1.100698825
0.6048955889
0.5973944957
0.5978659483
0.5953103694
0.570635453
0.5469645331
0.5367523166
0.5372302584
0.5424800167
0.5499553958
0.5587716341
0.5661524887
0.5703659421
0.574937594
0.5781869159
0.5811009727
0.5827360111
0.5852895993
0.5887158801
0.5907980162
0.5934562695
0.5960319285
0.5981803277
0.6000960375
0.6015063565
0.6042045142
0.6067611411
0.6080386676
0.6090784404
0.6168840382
0.9886625255
0.6089315127
0.6004782708
0.5973553934
0.5954889385
0.5705496745
0.5469488747
0.5363576166
0.5366038764
0.5425638987
0.5507616133
0.5596226114
0.5674860067
0.573464888
0.5773698199
0.5783459645
0.5812392351
0.5830228591
0.5862868716
0.5894923375
0.591300325
0.5937375704
0.5973764586
0.5991139388
0.6014701126
0.603809769
0.6063028885
0.6083235213
0.6104048275
0.6121890513
0.6133043163
0.7868990668
0.6101693414
0.6016904659
0.5971312228
0.5959117772
0.570524154
0.5468536276
0.5362756636
0.5365769661
0.5423944172
0.5515949343
0.5615209534
0.5700983721
0.5762419503
0.5794789315
0.5802321755
0.5821488989
0.5843313347
0.5868882488
0.5901005041
0.5924947813
0.5940295184
0.5974565045
0.6000377673
0.6024189854
0.6043184707
0.6072111432
0.6091539766
0.6112867726
0.6130911906
0.6150253095
0.6194756645
0.6093408811
0.6018387591
0.5972312255
0.5960840388
0.5705936374
0.5468930702
0.5363206409
0.5367512554
0.5425871102
0.552006079
0.5627713896
0.571602285
0.5772757082
0.5802993601
0.5836317324
0.5856307964
0.5881540327
0.5895310744
0.5906160369
0.5926357917
0.5957334739
0.5976665356
0.6001673984
0.603318298
0.6047243034
0.607036772
0.6099459479
0.6117094553
0.613189805
0.6150218189
0.6167414268
0.6061360419
0.6011800573
0.5978519709
0.5959566207
0.5714079845
0.5470948143
0.5364795726
0.5370783589
0.5431792881
0.5523169309
0.563096999
0.5717803557
0.5772923158
0.5804333139
0.5850716954
0.5881207572
0.5906099828
0.5928186327
0.5941197988
0.5946194936
0.5967509382
0.599310647
0.601215172
0.603409381
0.6061124894
0.6076332415
0.6100299322
0.6128291212
0.6136271152
0.6152753587
0.6180690411
0.6055930136
0.6011999662
0.5975017573
0.5955686227
0.5717852623
0.5483211861
0.5370797156
0.5382652504
0.5445282278
0.5528978731
0.5634131077
0.5716408323
0.576947055
0.5802990213
0.5856295292
0.5892949423
0.5919318262
0.5940425809
0.5965414905
0.5985310064
0.5992089861
0.6010282397
0.6049719844
0.6053106685
0.6064711531
0.6096832172
0.6115467075
0.6133525404
0.6157405127
0.6171783779
0.6202859985
0.6057312758
0.601272072
0.5955942512
0.5957879764
0.5718797606
0.5492898199
0.5380315496
0.5395041283
0.545801819
0.5545611272
0.5642763217
0.5719380684
0.5772272815
0.5806730858
0.5859603762
0.5897772874
0.5930089398
0.5949306919
0.5976789814
0.6002598537
0.602436084
0.6038645563
0.6071939781
0.6090624937
0.6099787635
0.6118457204
0.615146959
0.6169046553
0.6184839059
0.6207054461
0.6231146484
0.606573651
0.6013628126
0.5944560414
0.5954151542
0.5718017409
0.5494981311
0.5384877564
0.5400513936
0.5465204804
0.557060018
0.5664594906
0.5730601914
0.5783740979
0.5829870747
0.5861375107
0.5900255635
0.5931039116
0.5958289098
0.5986417718
0.6010425101
0.603416731
0.6063477012
0.6083214972
0.6107495034
0.6128550545
0.6144633548
0.6170415376
0.6193866775
0.6209318868
0.622455074
0.6244491466
0.6260932773
0.6122098688
0.6035351831
0.5940960815
0.5944248249
0.5708924132
0.5494862327
0.5385680771
0.5396875864
0.5463802223
0.5586927057
0.5685819699
0.5767990229
0.5820978566
0.5877887702
0.5890663779
0.5906669962
0.5933658773
0.5958953674
0.5991509487
0.6018171211
0.6034463166
0.6068360781
0.6091873387
0.6115415795
0.6139194294
0.6161666842
0.6179545817
0.6202902499
0.6222540953
0.6230828354
0.6248768448
0.6273428387
0.6171973994
0.6066974827
0.5941061516
0.594097163
0.5694817243
0.5487389924
0.5379056475
0.5390285574
0.546153167
0.5590916217
0.5698139645
0.5798573978
0.5850707708
0.590265059
0.5928037618
0.5946758666
0.5959468302
0.5975675537
0.5994623513
0.6027837932
0.6044380153
0.6067013787
0.6094025438
0.6124829998
0.6142267565
0.6162982681
0.6187921197
0.6204903962
0.622430662
0.6233311668
0.62505409
0.6277534606
0.6189683814
0.6079254063
0.5944500844
0.5936309398
0.5685759332
0.5477320397
0.5376433806
0.5390656056
0.5462879904
0.5593702883
0.5706165686
0.581211259
0.5864455248
0.5912752815
0.5946350606
0.597643239
0.5998047344
0.6021859256
0.6025236831
0.6036932243
0.6062073509
0.6076062989
0.6098285044
0.6130995586
0.6151544693
0.6164334979
0.6189874338
0.6211643033
0.6226966898
0.6240164792
0.6258765911
0.627964224
0.6192755773
0.6084503523
0.5944707703
0.5935148114
0.5686081568
0.5471890802
0.5375595452
0.5391639512
0.5468663386
0.5603360111
0.5716455906
0.5811259182
0.5870274485
0.5916538886
0.5958493514
0.5995073753
0.6016723809
0.6044087181
0.6063304936
0.608007213
0.6085282365
0.6103890802
0.6127144539
0.6145935957
0.6170297869
0.6178375051
0.6197739745
0.6228346461
0.6243861222
0.6259995542
0.628866918
0.6290707533
0.6153876417
0.6087384003
0.5939127695
0.5941020258
0.5686689459
0.5473152385
0.5380406575
0.5400423742
0.5500289068
0.5640269872
0.574704663
0.5812948911
0.5876318632
0.5918351125
0.5960583353
0.6003379063
0.6030326804
0.6053328906
0.6078147566
0.610505348
0.6123180747
0.6132364008
0.6163961562
0.618640169
0.6196674661
0.6215563086
0.6235486561
0.6254131664
0.6280057111
0.6299028318
0.6315965336
0.6325161254
0.6116661788
0.6082003767
0.5924439894
0.5941402352
0.5682666441
0.5482174296
0.5388574921
0.5424647945
0.5538282389
0.5675699337
0.5772849838
0.582354351
0.5895889451
0.5933908164
0.5965621269
0.6002881111
0.6035561927
0.6063174775
0.608476796
0.6114139226
0.6136652029
0.6159349656
0.6180743578
0.6206624529
0.6228463052
0.6241780961
0.6263211236
0.6284429731
0.6301748553
0.6317145117
0.6328269901
0.6348576086
0.6110883402
0.6080855719
0.5919980704
0.591875018
0.5672025624
0.5482497489
0.5387826157
0.5433508829
0.5554823069
0.5691627044
0.5786513846
0.586727016
0.593047185
0.5974792657
0.6002036081
0.6009538984
0.6038038376
0.606627866
0.6095451714
0.6116928715
0.6141522706
0.6171565132
0.6186595579
0.6213040613
0.6238978796
0.6258033811
0.6273758464
0.6294872639
0.63123212
0.6322691151
0.6332723961
0.6357952635
0.6368557777
0.6115922078
0.6081545525
0.5921583786
0.5892107999
0.5649542928
0.5476501192
0.5384839572
0.543433041
0.5555587353
0.5693568006
0.5797009135
0.5909024545
0.5962679499
0.6005581602
0.6042156676
0.6045444602
0.606524058
0.6075685086
0.609735307
0.6129269423
0.6144937019
0.6170821925
0.6194669086
0.6214992991
0.6241255409
0.626401179
0.627583509
0.6295989003
0.6315912973
0.632465656
0.6334941325
0.6359963767
0.6371227827
0.6179730432
0.6095930518
0.5930822825
0.5877284657
0.5631347979
0.5465372542
0.5379998945
0.5428796717
0.5552821246
0.5694464798
0.5807118578
0.5928680316
0.5981144571
0.603172126
0.6063668889
0.6081470398
0.6109917562
0.6122758154
0.612788569
0.6142497952
0.6167077551
0.6176824835
0.6196827603
0.6228123529
0.6245300963
0.6265108836
0.6282932634
0.6299834383
0.63190742
0.6332195553
0.634779842
0.6363115827
0.6380653744
0.6244096474
0.6134710159
0.5957850533
0.5867622166
0.5622480248
0.5459486715
0.5375613116
0.5430387736
0.5557184436
0.5703284461
0.5825669638
0.5932559604
0.5987405575
0.6042316766
0.6080359389
0.6111649436
0.6131551844
0.6154431158
0.6175620705
0.6180209683
0.6203992621
0.6211063788
0.6222218217
0.6242953911
0.6267248708
0.6278950928
0.6293787004
0.6317580703
0.633915312
0.6363693083
0.6386284193
0.6383400326
0.641358133
0.6263301885
0.6152551536
0.5968582739
0.5857883718
0.5620297952
0.5458047091
0.5375658554
0.543825106
0.5582281205
0.5744651456
0.5871515278
0.5932595255
0.5992783122
0.6042404397
0.6084337273
0.6125032949
0.6144604657
0.616680677
0.6195417266
0.6217157597
0.6233713414
0.6248843067
0.626930473
0.6286232874
0.6305401946
0.632212181
0.6336798517
0.63572881
0.6378675731
0.6398238366
0.6411750251
0.6420218776
0.6441431949
0.6266834659
0.615445206
0.5965247326
0.584808263
0.5630198951
0.5468240425
0.5384884954
0.5475706508
0.5633554986
0.5794717821
0.5911124825
0.5945025097
0.6004767824
0.6053926462
0.6087856169
0.6123603283
0.6151058181
0.617475517
0.6199743281
0.6228917254
0.6251516034
0.6271921699
0.6290891807
0.631153275
0.633113099
0.6349804794
0.6365615802
0.6382319264
0.6399689428
0.6413127029
0.6421655436
0.6438911421
0.6452226066
0.6227400501
0.6154906233
0.595568104
0.5837873625
0.5638696231
0.5494822121
0.5418332682
0.5505089382
0.56686573
0.5822722076
0.5932512336
0.6001588026
0.604281559
0.6091994443
0.612131644
0.6129655865
0.6152967865
0.6181422736
0.6204446584
0.6227020413
0.6255875191
0.6283060115
0.6298285209
0.6318973993
0.6342486868
0.6360954114
0.6376172623
0.6391376366
0.6407313533
0.641807439
0.6425074414
0.6444585689
0.6454109908
0.6163085757
0.615195581
0.5941190741
0.581714908
0.563577663
0.5497475324
0.5435784399
0.552306428
0.5686816118
0.5832220066
0.5945571079
0.6046314344
0.6098348614
0.6136772632
0.6171156578
0.6169896658
0.6175255522
0.6192866152
0.6222765465
0.6235337506
0.6257775517
0.628605344
0.6301087262
0.6318729849
0.6343988912
0.6365600987
0.6378362283
0.639229456
0.6409460837
0.6421404411
0.6431377465
0.6446285832
0.6457390819
0.6146297829
0.6151141895
0.5932466096
0.5790810473
0.5616866985
0.5495633507
0.5443701064
0.553077073
0.5690456406
0.5837080685
0.595601714
0.6064037526
0.6123853208
0.6162796793
0.6194095723
0.6216685296
0.6230143312
0.6247228626
0.6248518005
0.6264721146
0.6277347151
0.6293496819
0.6310508752
0.632663438
0.6349678918
0.6371678105
0.6384861952
0.6398452173
0.6416510979
0.6433568647
0.6457333878
0.6455799783
0.6474819398
0.6483827896
0.6147462196
0.615697016
0.5925439099
0.5769642363
0.5595979333
0.5496631919
0.5443775282
0.5534860404
0.5702027732
0.5852712257
0.5970072692
0.6066619931
0.6131687576
0.6170161478
0.620664133
0.6247279888
0.6262154296
0.6282575409
0.6298873127
0.6307867501
0.6326701028
0.6336305597
0.6349583951
0.6363088855
0.6380109747
0.6395339053
0.6413101199
0.6427911852
0.6448305564
0.6472594031
0.6495899865
0.649082762
0.6511907611
0.6517412004
0.6195196242
0.6188397163
0.5919094681
0.575704109
0.5593458146
0.5498055136
0.5444783626
0.5548657093
0.5731140379
0.5908669013
0.6027431931
0.607382155
0.6133327544
0.6173404595
0.6211727575
0.6258652773
0.6278805506
0.6296249646
0.6318328252
0.6344501919
0.6359605602
0.637979372
0.6394855614
0.6407795048
0.6424628653
0.6440759361
0.6456206093
0.6470021491
0.6486853361
0.6501426413
0.6513536084
0.6522077249
0.6533026543
0.6545787868
0.6255742445
0.6212442363
0.5923342385
0.5749275169
0.5593755091
0.5501482234
0.5457267169
0.5592255628
0.5799187321
0.5972710153
0.6082442993
0.6121096432
0.6143602189
0.6181906605
0.6216835217
0.6257233124
0.6283057566
0.6301283245
0.6324442689
0.6355200668
0.6373429537
0.6396727086
0.6414307346
0.6428803717
0.6445543542
0.6463165904
0.6477000512
0.64893842
0.6503366873
)
;

boundaryField
{
    inlet
    {
        type            fixedValue;
        value           nonuniform 0();
    }
    outlet
    {
        type            inletOutlet;
        inletValue      nonuniform 0();
        value           nonuniform 0();
    }
    bottom
    {
        type            slip;
    }
    top
    {
        type            slip;
    }
    obstacle
    {
        type            zeroGradient;
    }
    defaultFaces
    {
        type            empty;
    }
    procBoundary21to15
    {
        type            processor;
        value           nonuniform List<scalar> 
24
(
1.374579998
1.366994988
1.377311751
1.380684553
1.387247761
1.38181337
1.37703305
1.383678329
1.405727026
1.423768497
1.435164393
1.441141164
1.439290715
1.439262243
1.437447623
1.434232198
1.430480413
1.428085768
1.081954541
1.225915574
1.260548847
1.262611384
1.280960085
1.280960085
)
;
    }
    procBoundary21to22
    {
        type            processor;
        value           nonuniform List<scalar> 
69
(
1.425410171
1.411955077
1.386972378
1.356238896
1.321485447
1.321485447
1.292913785
1.272830358
1.259442862
1.245961611
1.234676506
1.220904828
1.220904828
1.20838869
1.20075957
1.196363311
1.192732463
1.191962039