/*--------------------------------*- C++ -*----------------------------------*\
  =========                 |
  \\      /  F ield         | OpenFOAM: The Open Source CFD Toolbox
   \\    /   O peration     | Website:  https://openfoam.org
    \\  /    A nd           | Version:  7
     \\/     M anipulation  |
\*---------------------------------------------------------------------------*/
FoamFile
{
    version     2.0;
    format      ascii;
    class       volVectorField;
    location    "4.8";
    object      U;
}
// * * * * * * * * * * * * * * * * * * * * * * * * * * * * * * * * * * * * * //

dimensions      [0 1 -1 0 0 0 0];

internalField   nonuniform List<vector> 
80000
(
(3 -6.49245624e-16 0)
(3 -2.215413475e-15 0)
(3 -4.102159123e-15 0)
(3 -3.632600701e-15 0)
(3 -2.854157867e-15 0)
(3 -1.843702838e-15 0)
(3 2.39671107e-16 0)
(3 1.720538052e-15 0)
(3 3.348854283e-15 0)
(3 4.531115488e-15 0)
(3 3.730906194e-15 0)
(3 2.854067471e-15 0)
(3 1.771175871e-15 0)
(3 2.029252777e-15 0)
(3 2.087525833e-15 0)
(3 1.141863385e-15 0)
(3 2.379725764e-15 0)
(3 3.873978711e-15 0)
(3 4.50308751e-15 0)
(3 4.152924281e-15 0)
(3 3.125779856e-15 0)
(3 1.121715003e-15 0)
(3 1.705432301e-15 0)
(3 8.162100902e-16 0)
(3 5.361815003e-16 0)
(3 -3.318010085e-15 0)
(3 -4.963195195e-16 0)
(3 -2.003902071e-15 0)
(3 -2.63345995e-15 0)
(3 -9.469121003e-15 0)
(3 -9.363891194e-15 0)
(3 -6.975211133e-15 0)
(3 -3.860758951e-15 0)
(3 -1.882657198e-15 0)
(3 1.431736573e-16 0)
(3 2.612288133e-15 0)
(3 1.103344759e-15 0)
(3 4.583605937e-15 0)
(3 7.827347312e-15 0)
(3 1.053866235e-14 0)
(3 1.007805858e-14 0)
(3 5.38293395e-15 0)
(3 5.362218327e-15 0)
(3 6.509105941e-15 0)
(3 6.827686431e-15 0)
(3 8.081866655e-15 0)
(3 8.564941356e-15 0)
(3 7.073637557e-15 0)
(3 4.891079319e-15 0)
(3 3.839860724e-15 0)
(3 2.350714842e-15 0)
(3 -5.027123992e-16 0)
(3 -1.185720025e-15 0)
(3 -1.677029264e-16 0)
(3 1.382228042e-15 0)
(3 6.153501119e-16 0)
(3 1.194102316e-15 0)
(3 2.356685904e-15 0)
(3 4.558511133e-15 0)
(3 2.902922904e-15 0)
(3 1.939289692e-15 0)
(3 9.313308366e-16 0)
(3 -6.961658863e-16 0)
(3 -1.532931229e-15 0)
(3 -4.751799537e-15 0)
(3 -5.63996844e-15 0)
(3 -5.45462709e-15 0)
(3 -3.915733842e-15 0)
(3 -2.869527984e-15 0)
(3 -1.329408355e-15 0)
(3 -8.259677868e-16 0)
(3 -5.685466303e-16 0)
(3 -3.248664579e-15 0)
(3 -5.854155906e-15 0)
(3 -5.35449414e-15 0)
(3 -4.205569727e-16 0)
(3 -3.103625187e-15 0)
(3 -3.057978002e-15 0)
(3 -2.758895541e-15 0)
(3 -2.282479322e-15 0)
(3 -2.452442196e-15 0)
(3 -2.306218057e-15 0)
(3 -2.299719777e-15 0)
(3 -1.126721535e-16 0)
(3 -7.739271057e-16 0)
(3 -1.593446625e-15 0)
(3 -8.107514177e-16 0)
(3 1.363522779e-17 0)
(3 2.008492258e-15 0)
(3 4.290940228e-15 0)
(3 5.082570107e-15 0)
(3 4.133863046e-15 0)
(3 2.943660996e-15 0)
(3 6.095674829e-16 0)
(3 -1.960092217e-15 0)
(3 -4.365451196e-15 0)
(3 -4.517313594e-15 0)
(3 -4.314592311e-15 0)
(3 -5.22622325e-15 0)
(3 -8.282944828e-15 0)
(3 -3.541440772e-16 0)
(3 -1.076024993e-15 0)
(3 -2.913082404e-15 0)
(3 -1.447681959e-15 0)
(3 -1.082319536e-15 0)
(3 -3.278778385e-15 0)
(3 -2.108452236e-15 0)
(3 -1.065713796e-15 0)
(3 5.749284624e-16 0)
(3 1.194030545e-15 0)
(3 1.963031743e-15 0)
(3 1.721498179e-15 0)
(3 1.585361375e-15 0)
(3 1.314278705e-15 0)
(3 8.080795833e-16 0)
(3 -1.715617124e-16 0)
(3 1.195936552e-15 0)
(3 2.723190294e-15 0)
(3 3.106094568e-15 0)
(3 1.246129526e-15 0)
(3 -1.200815698e-16 0)
(3 -3.115134383e-15 0)
(3 -4.603322151e-15 0)
(3 -7.032444871e-15 0)
(3 -6.463154033e-15 0)
(3 -8.374135422e-15 0)
(3 -5.355906172e-15 0)
(3 -9.24827762e-15 0)
(3 -1.052920781e-14 0)
(3 -1.080498797e-14 0)
(3 -9.39860259e-15 0)
(3 -2.151463406e-15 0)
(3 4.06812383e-15 0)
(3 8.118615948e-15 0)
(3 1.017283662e-14 0)
(3 1.333412648e-14 0)
(3 1.294405077e-14 0)
(3 1.385849552e-14 0)
(3 1.453435662e-14 0)
(3 1.445319269e-14 0)
(3 1.334668424e-14 0)
(3 8.225699386e-15 0)
(3 6.295179174e-15 0)
(3 9.884402578e-15 0)
(3 1.15493896e-14 0)
(3 1.319535827e-14 0)
(3 1.140731853e-14 0)
(3 7.898686905e-15 0)
(3 5.085797425e-15 0)
(3 2.61217896e-15 0)
(3 7.766764718e-17 0)
(3 -4.160223773e-15 0)
(3 -4.473054738e-15 0)
(3 -2.321434037e-15 0)
(3 -1.103710661e-15 0)
(3 -1.976526043e-15 0)
(3 -4.039133515e-16 0)
(3 3.644003468e-15 0)
(3 9.560447329e-15 0)
(3 1.219092931e-14 0)
(3 1.140127014e-14 0)
(3 8.320168474e-15 0)
(3 5.172664439e-15 0)
(3 4.016944405e-15 0)
(3 7.544649035e-16 0)
(3 -1.024387833e-15 0)
(3 -1.34008603e-15 0)
(3 -2.459245524e-15 0)
(3 -3.023795692e-15 0)
(3 -5.440412331e-15 0)
(3 -5.779475831e-15 0)
(3 -4.834313751e-15 0)
(3 -7.140785505e-15 0)
(3 -1.065021362e-14 0)
(3 -8.599751222e-15 0)
(3 -2.314617796e-15 0)
(3 -3.880164988e-15 0)
(3 -3.92704108e-15 0)
(3 -3.76659832e-15 0)
(3 -2.447621471e-15 0)
(3 -3.515516472e-15 0)
(3 -4.486631842e-15 0)
(3 -5.685207649e-15 0)
(3 -1.994096336e-15 0)
(3 -4.884952043e-16 0)
(3 2.767179303e-15 0)
(3 3.297593067e-15 0)
(3 4.176551759e-15 0)
(3 6.76344598e-15 0)
(3 9.639436756e-15 0)
(3 1.147561489e-14 0)
(3 9.660596093e-15 0)
(3 6.394020752e-15 0)
(3 2.966001794e-15 0)
(3 -2.380633203e-15 0)
(3 -6.913056431e-15 0)
(3 -1.127536331e-14 0)
(3 -1.179653019e-14 0)
(3 -1.354418353e-14 0)
(3 -1.646633917e-14 0)
(3 2.309178284e-15 0)
(3 4.717149039e-15 0)
(3 4.857351939e-15 0)
(3 4.284726274e-15 0)
(3 3.659783513e-15 0)
(3 2.012479937e-15 0)
(3 1.491085512e-15 0)
(3 1.618352095e-15 0)
(3 1.250819582e-15 0)
(3 1.364579509e-15 0)
(3 2.212370063e-15 0)
(3 2.823909568e-15 0)
(3 3.384862716e-15 0)
(3 2.47311489e-15 0)
(3 1.714839073e-15 0)
(3 -1.153981674e-15 0)
(3 -1.355611302e-15 0)
(3 -2.667327887e-15 0)
(3 -4.504062272e-15 0)
(3 -6.996852552e-15 0)
(3 -9.673592363e-15 0)
(3 -1.316010874e-14 0)
(3 -1.683332529e-14 0)
(3 -2.341851504e-14 0)
(3 -2.583822815e-14 0)
(3 -2.576304455e-14 0)
(3 -2.406742512e-14 0)
(3 -2.153433579e-14 0)
(3 -1.535978076e-14 0)
(3 -1.240918082e-14 0)
(3 -8.232582495e-15 0)
(3 -5.902924583e-15 0)
(3 -6.643079719e-15 0)
(3 -7.483299338e-15 0)
(3 -7.748233846e-15 0)
(3 -5.004724985e-15 0)
(3 2.409753663e-16 0)
(3 1.875612344e-15 0)
(3 3.998825225e-15 0)
(3 8.148609194e-15 0)
(3 1.400880767e-14 0)
(3 1.755397348e-14 0)
(3 2.024080043e-14 0)
(3 2.061593943e-14 0)
(3 2.061501782e-14 0)
(3 2.113974218e-14 0)
(3 1.398297555e-14 0)
(3 1.105977465e-14 0)
(3 8.320149873e-15 0)
(3 2.449087297e-15 0)
(3 -1.079745684e-15 0)
(3 -5.090587307e-15 0)
(3 -7.919733491e-15 0)
(3 -8.510415045e-15 0)
(3 -6.16028906e-15 0)
(3 -3.75369565e-15 0)
(3 1.934878267e-15 0)
(3 8.105509861e-15 0)
(3 1.163601329e-14 0)
(3 1.51423563e-14 0)
(3 1.859750965e-14 0)
(3 1.713459434e-14 0)
(3 1.633916993e-14 0)
(3 1.468979256e-14 0)
(3 1.416520823e-14 0)
(3 1.370410915e-14 0)
(3 1.274528987e-14 0)
(3 9.134562264e-15 0)
(3 6.528930535e-15 0)
(3 5.424160451e-15 0)
(3 3.208345116e-15 0)
(3 5.05387796e-16 0)
(3 -1.005647563e-15 0)
(3 -9.87144422e-16 0)
(3 -1.880508638e-16 0)
(3 1.13349717e-15 0)
(3 3.259951455e-15 0)
(3 2.318525959e-15 0)
(3 1.136218676e-15 0)
(3 -2.870253574e-15 0)
(3 -5.277277521e-15 0)
(3 -5.117688405e-15 0)
(3 -5.233219637e-15 0)
(3 -4.856538293e-15 0)
(3 -1.789489812e-15 0)
(3 3.056551088e-15 0)
(3 8.603616382e-15 0)
(3 1.308033898e-14 0)
(3 1.380597954e-14 0)
(3 1.75714918e-14 0)
(3 1.912963963e-14 0)
(3 1.98152911e-14 0)
(3 1.617110225e-14 0)
(3 1.101888334e-14 0)
(3 2.584216854e-15 0)
(3 -5.174588766e-15 0)
(3 -1.504621886e-14 0)
(3 -2.34413266e-14 0)
(3 -2.76804023e-14 0)
(3 -2.980524901e-14 0)
(3 -2.099235467e-16 0)
(3 5.130787933e-17 0)
(3 1.314301567e-15 0)
(3 2.070728234e-15 0)
(3 1.59937435e-15 0)
(3 3.709578568e-15 0)
(3 4.088301244e-15 0)
(3 3.845880962e-15 0)
(3 3.740587337e-15 0)
(3 4.015448365e-15 0)
(3 2.587050423e-15 0)
(3 1.994884461e-15 0)
(3 1.688636525e-15 0)
(3 8.846938665e-17 0)
(3 -9.988736963e-16 0)
(3 -3.879621219e-15 0)
(3 -5.816238696e-15 0)
(3 -6.981945471e-15 0)
(3 -7.99807044e-15 0)
(3 -9.128511374e-15 0)
(3 -1.370851244e-14 0)
(3 -1.416036376e-14 0)
(3 -1.487627014e-14 0)
(3 -1.68289718e-14 0)
(3 -1.977407171e-14 0)
(3 -1.692697934e-14 0)
(3 -1.707767872e-14 0)
(3 -1.672985756e-14 0)
(3 -1.680270159e-14 0)
(3 -1.65674303e-14 0)
(3 -1.568395914e-14 0)
(3 -1.562438393e-14 0)
(3 -1.396156067e-14 0)
(3 -1.266024711e-14 0)
(3 -6.394169629e-15 0)
(3 -3.193257431e-16 0)
(3 2.353155205e-15 0)
(3 2.614429383e-15 0)
(3 4.2990036e-15 0)
(3 8.045270942e-15 0)
(3 1.200025601e-14 0)
(3 1.554938069e-14 0)
(3 2.210200056e-14 0)
(3 2.382412444e-14 0)
(3 2.306066871e-14 0)
(3 2.15921235e-14 0)
(3 1.845098261e-14 0)
(3 1.437310776e-14 0)
(3 1.057734525e-14 0)
(3 6.009155363e-15 0)
(3 1.034843085e-15 0)
(3 -1.417786001e-15 0)
(3 -5.592705041e-15 0)
(3 -7.462871548e-15 0)
(3 -6.448754891e-15 0)
(3 -5.586043644e-15 0)
(3 -3.437266408e-15 0)
(3 -9.621743171e-16 0)
(3 6.974981205e-16 0)
(3 -7.4478149e-16 0)
(3 2.311131439e-15 0)
(3 2.566771814e-15 0)
(3 3.734277705e-15 0)
(3 4.441867322e-15 0)
(3 5.693446268e-15 0)
(3 3.275470922e-15 0)
(3 1.701120113e-15 0)
(3 3.091567497e-15 0)
(3 4.475137896e-15 0)
(3 3.758667722e-15 0)
(3 2.602541719e-15 0)
(3 1.274259977e-15 0)
(3 1.0421746e-15 0)
(3 3.002541406e-15 0)
(3 5.162557837e-15 0)
(3 5.599888702e-15 0)
(3 7.945313993e-15 0)
(3 7.387490343e-15 0)
(3 6.233911851e-15 0)
(3 3.218511546e-15 0)
(3 2.755327819e-15 0)
(3 2.731539099e-15 0)
(3 7.414329307e-15 0)
(3 7.273116e-15 0)
(3 8.876064598e-15 0)
(3 7.956510269e-15 0)
(3 8.012366718e-15 0)
(3 5.686768051e-15 0)
(3 5.948559761e-15 0)
(3 1.342013832e-14 0)
(3 1.415672822e-14 0)
(3 1.634916917e-14 0)
(3 1.325891923e-14 0)
(3 1.003609325e-14 0)
(3 -2.409910687e-15 0)
(3 -1.045452702e-14 0)
(3 -1.428530374e-14 0)
(3 -1.952957361e-14 0)
(3 -2.610058628e-14 0)
(3 -3.656775733e-14 0)
(3 -2.529943333e-15 0)
(3 -2.155038319e-15 0)
(3 -1.300287086e-15 0)
(3 -6.38680431e-16 0)
(3 -7.067995176e-16 0)
(3 2.401511947e-16 0)
(3 8.400202835e-16 0)
(3 1.89221163e-15 0)
(3 2.308576207e-15 0)
(3 3.977647005e-15 0)
(3 3.93681033e-15 0)
(3 3.137736041e-15 0)
(3 1.508906568e-15 0)
(3 -9.38846862e-16 0)
(3 -2.516523449e-15 0)
(3 -1.283805669e-15 0)
(3 -2.398407094e-15 0)
(3 -2.848924592e-15 0)
(3 -1.442116647e-15 0)
(3 4.569220614e-17 0)
(3 -3.339472393e-16 0)
(3 -6.891885146e-16 0)
(3 -2.732364049e-15 0)
(3 -1.702048623e-15 0)
(3 -3.046336644e-16 0)
(3 1.04249968e-15 0)
(3 -1.233504337e-16 0)
(3 -2.456021117e-15 0)
(3 -4.743674385e-15 0)
(3 -6.47323193e-15 0)
(3 -8.654927107e-15 0)
(3 -9.983304139e-15 0)
(3 -7.119983044e-15 0)
(3 -2.70709665e-15 0)
(3 3.687177759e-15 0)
(3 5.879043355e-15 0)
(3 6.557497479e-15 0)
(3 1.022297579e-14 0)
(3 1.136976045e-14 0)
(3 1.359042879e-14 0)
(3 1.437873689e-14 0)
(3 1.497733061e-14 0)
(3 1.369175535e-14 0)
(3 1.608337669e-14 0)
(3 2.212866837e-14 0)
(3 2.12852038e-14 0)
(3 2.175593676e-14 0)
(3 1.85329777e-14 0)
(3 1.651640018e-14 0)
(3 1.313452752e-14 0)
(3 9.205307227e-15 0)
(3 6.204020048e-15 0)
(3 3.816364269e-15 0)
(3 1.255969294e-15 0)
(3 -3.475692336e-16 0)
(3 4.540985849e-16 0)
(3 1.306066397e-15 0)
(3 2.297450433e-15 0)
(3 1.561242846e-15 0)
(3 2.232170195e-15 0)
(3 -2.073743163e-15 0)
(3 -2.871813862e-15 0)
(3 -1.88570279e-15 0)
(3 -9.022762583e-16 0)
(3 -8.923114206e-16 0)
(3 -9.64839236e-16 0)
(3 9.957047112e-16 0)
(3 -1.644022881e-15 0)
(3 -4.33097379e-15 0)
(3 -4.293325371e-15 0)
(3 -4.664213632e-15 0)
(3 -4.658384803e-15 0)
(3 -1.627671592e-15 0)
(3 1.680182036e-15 0)
(3 1.557876846e-15 0)
(3 2.923378316e-15 0)
(3 5.158284216e-15 0)
(3 5.650056189e-15 0)
(3 6.243539747e-15 0)
(3 1.164026431e-14 0)
(3 1.51820854e-14 0)
(3 1.771080837e-14 0)
(3 1.528514436e-14 0)
(3 1.460581266e-14 0)
(3 1.053768254e-14 0)
(3 9.857921409e-15 0)
(3 4.577825157e-15 0)
(3 2.640756998e-15 0)
(3 3.437064786e-15 0)
(3 7.231484341e-15 0)
(3 1.228599843e-14 0)
(3 1.656180047e-14 0)
(3 1.561260259e-14 0)
(3 1.277783636e-14 0)
(3 3.844122822e-15 0)
(3 -1.601835198e-15 0)
(3 -7.160438096e-15 0)
(3 -1.304296122e-14 0)
(3 -2.129622779e-14 0)
(3 -2.605164124e-14 0)
(3 2.560778521e-16 0)
(3 1.946536445e-15 0)
(3 2.373445193e-15 0)
(3 1.17906235e-15 0)
(3 1.614203166e-15 0)
(3 1.884889464e-15 0)
(3 2.002098036e-15 0)
(3 2.733733974e-15 0)
(3 3.170917104e-15 0)
(3 3.370077653e-16 0)
(3 1.774979917e-15 0)
(3 1.611526225e-15 0)
(3 8.097469351e-16 0)
(3 5.95260686e-16 0)
(3 3.977289865e-16 0)
(3 -3.561044577e-16 0)
(3 9.979321067e-16 0)
(3 2.445738208e-15 0)
(3 5.372340783e-15 0)
(3 7.048750846e-15 0)
(3 1.260900048e-14 0)
(3 1.195204587e-14 0)
(3 1.119806098e-14 0)
(3 1.169059546e-14 0)
(3 1.217991921e-14 0)
(3 1.052145099e-14 0)
(3 8.168983908e-15 0)
(3 5.483856096e-15 0)
(3 2.497232461e-15 0)
(3 3.93421814e-15 0)
(3 3.3734775e-15 0)
(3 3.507180599e-15 0)
(3 5.393867733e-15 0)
(3 9.047558758e-15 0)
(3 7.355380115e-15 0)
(3 4.561056222e-15 0)
(3 6.050506797e-15 0)
(3 1.386679889e-14 0)
(3 1.921495523e-14 0)
(3 2.096749744e-14 0)
(3 1.828927939e-14 0)
(3 1.041671007e-14 0)
(3 8.59472655e-15 0)
(3 9.315868629e-15 0)
(3 8.477468621e-15 0)
(3 1.083459831e-14 0)
(3 1.301615097e-14 0)
(3 1.430836793e-14 0)
(3 1.388055734e-14 0)
(3 1.332728127e-14 0)
(3 1.090055703e-14 0)
(3 1.013114632e-14 0)
(3 9.736627834e-15 0)
(3 8.109102371e-15 0)
(3 5.039158749e-15 0)
(3 3.982166327e-15 0)
(3 4.949904221e-15 0)
(3 5.795347569e-15 0)
(3 1.95913883e-15 0)
(3 7.415058175e-16 0)
(3 -1.824115599e-15 0)
(3 -3.980775408e-15 0)
(3 -8.30513279e-15 0)
(3 -1.143267903e-14 0)
(3 -1.240451843e-14 0)
(3 -8.405254909e-15 0)
(3 4.315555217e-16 0)
(3 8.637603151e-16 0)
(3 -3.329011216e-15 0)
(3 -4.880550352e-15 0)
(3 -6.228617139e-15 0)
(3 -4.790504707e-15 0)
(3 -2.25820159e-15 0)
(3 5.48872132e-16 0)
(3 3.374624305e-15 0)
(3 5.989583327e-15 0)
(3 9.276159013e-15 0)
(3 1.267566646e-14 0)
(3 1.648641564e-14 0)
(3 2.501994129e-14 0)
(3 2.50779096e-14 0)
(3 1.999624602e-14 0)
(3 1.263482466e-14 0)
(3 6.279386424e-15 0)
(3 1.313174365e-15 0)
(3 1.839837562e-15 0)
(3 1.860290533e-15 0)
(3 4.482047311e-15 0)
(3 7.232147366e-15 0)
(3 9.749442136e-15 0)
(3 1.413738906e-14 0)
(3 1.13256773e-14 0)
(3 1.231238991e-14 0)
(3 1.371830699e-14 0)
(3 1.291467665e-14 0)
(3 1.007959424e-14 0)
(3 1.465247225e-15 0)
(3 -6.688995377e-15 0)
(3 -1.030777041e-14 0)
(3 -9.845490862e-15 0)
(3 -2.732471889e-16 0)
(3 -2.608625563e-15 0)
(3 -3.045842808e-15 0)
(3 -1.490727412e-15 0)
(3 -1.039460447e-15 0)
(3 -8.938896877e-16 0)
(3 -1.759350933e-15 0)
(3 -3.199826388e-15 0)
(3 -3.710405185e-15 0)
(3 -6.339288062e-15 0)
(3 -5.969880434e-15 0)
(3 -5.685633954e-15 0)
(3 -4.978891421e-15 0)
(3 -4.071318309e-15 0)
(3 -3.503271926e-15 0)
(3 -3.152209693e-15 0)
(3 -3.997808284e-15 0)
(3 -2.926866676e-15 0)
(3 -3.972379655e-16 0)
(3 2.374297901e-15 0)
(3 4.178564383e-15 0)
(3 6.288383931e-15 0)
(3 6.424074614e-15 0)
(3 6.727778602e-15 0)
(3 5.358077382e-15 0)
(3 5.25255026e-15 0)
(3 5.055117878e-15 0)
(3 5.569270149e-15 0)
(3 9.338713839e-15 0)
(3 9.240667027e-15 0)
(3 3.427084014e-15 0)
(3 1.889449588e-15 0)
(3 5.07320017e-15 0)
(3 1.026496227e-14 0)
(3 1.09210601e-14 0)
(3 1.282037507e-14 0)
(3 1.863216161e-14 0)
(3 1.729417449e-14 0)
(3 1.609722501e-14 0)
(3 1.139485011e-14 0)
(3 4.974482694e-15 0)
(3 -9.073815923e-16 0)
(3 -1.797390705e-15 0)
(3 -1.706412108e-15 0)
(3 -1.147950679e-15 0)
(3 -3.690803547e-16 0)
(3 1.408973008e-15 0)
(3 5.131023935e-15 0)
(3 7.238221778e-15 0)
(3 1.061438615e-14 0)
(3 1.256851611e-14 0)
(3 1.247321742e-14 0)
(3 1.126702835e-14 0)
(3 9.700585338e-15 0)
(3 8.447278531e-15 0)
(3 9.263768638e-15 0)
(3 9.398096323e-15 0)
(3 7.409170023e-15 0)
(3 2.627485978e-15 0)
(3 -1.366395284e-15 0)
(3 -4.65710295e-15 0)
(3 -7.093878013e-15 0)
(3 -1.142099358e-14 0)
(3 -1.506592413e-14 0)
(3 -1.802464997e-14 0)
(3 -1.227450168e-14 0)
(3 -3.458062732e-15 0)
(3 2.010745001e-15 0)
(3 7.159716967e-15 0)
(3 8.545547359e-15 0)
(3 7.944490737e-15 0)
(3 7.684419648e-15 0)
(3 7.804172656e-15 0)
(3 8.636617558e-15 0)
(3 8.076603671e-15 0)
(3 1.094520955e-14 0)
(3 1.378690755e-14 0)
(3 2.064635492e-14 0)
(3 2.950775317e-14 0)
(3 3.047105008e-14 0)
(3 2.873684161e-14 0)
(3 2.515239541e-14 0)
(3 2.171144986e-14 0)
(3 2.128998521e-14 0)
(3 1.4041811e-14 0)
(3 1.098627859e-14 0)
(3 1.107559515e-14 0)
(3 1.272148334e-14 0)
(3 1.624723786e-14 0)
(3 1.461191107e-14 0)
(3 1.383241414e-14 0)
(3 1.356438603e-14 0)
(3 1.363164278e-14 0)
(3 1.195132618e-14 0)
(3 1.090696861e-14 0)
(3 8.393753237e-15 0)
(3 3.915840671e-15 0)
(3 -6.760444175e-16 0)
(3 -1.802187107e-15 0)
(3 -1.093311638e-15 0)
(3 1.731973683e-16 0)
(3 1.716843893e-16 0)
(3 -1.039145993e-15 0)
(3 -1.074768259e-15 0)
(3 -2.233754092e-15 0)
(3 -2.308992302e-15 0)
(3 -1.707235086e-15 0)
(3 -3.012047555e-15 0)
(3 -3.34987839e-15 0)
(3 -2.641756497e-15 0)
(3 -1.93444161e-15 0)
(3 -3.63919593e-15 0)
(3 -4.50770358e-15 0)
(3 -6.083371306e-15 0)
(3 -6.805597055e-15 0)
(3 -5.597408064e-15 0)
(3 -7.206815443e-15 0)
(3 -7.144997164e-15 0)
(3 -6.256212426e-15 0)
(3 -3.592562508e-15 0)
(3 -2.380020358e-15 0)
(3 5.397189559e-16 0)
(3 4.126615041e-15 0)
(3 4.864861799e-15 0)
(3 3.722454899e-15 0)
(3 3.051636843e-15 0)
(3 3.381426353e-15 0)
(3 5.790154704e-15 0)
(3 6.574498502e-15 0)
(3 7.456356498e-15 0)
(3 8.949691754e-15 0)
(3 9.405584768e-15 0)
(3 9.172227737e-15 0)
(3 7.245312357e-15 0)
(3 4.424884845e-15 0)
(3 9.023896838e-15 0)
(3 1.198253836e-14 0)
(3 8.897545665e-15 0)
(3 3.305611389e-15 0)
(3 -1.522399551e-15 0)
(3 -8.485657265e-15 0)
(3 -8.899199375e-15 0)
(3 -9.228695726e-15 0)
(3 -9.419349035e-15 0)
(3 -9.899579527e-15 0)
(3 -8.260193824e-15 0)
(3 -6.241482701e-15 0)
(3 -2.322483136e-15 0)
(3 4.602011485e-15 0)
(3 9.24082896e-15 0)
(3 1.103928087e-14 0)
(3 1.135024708e-14 0)
(3 1.198981971e-14 0)
(3 1.371193702e-14 0)
(3 1.603401834e-14 0)
(3 1.622764801e-14 0)
(3 1.283946612e-14 0)
(3 6.337789068e-15 0)
(3 3.88693954e-15 0)
(3 9.263593196e-16 0)
(3 -1.369156344e-15 0)
(3 -4.431781703e-15 0)
(3 -6.188944364e-15 0)
(3 -6.227326975e-15 0)
(3 -6.069576316e-15 0)
(3 -7.432278058e-15 0)
(3 -4.955621807e-15 0)
(3 -2.328247151e-15 0)
(3 2.484349967e-15 0)
(3 5.179485332e-15 0)
(3 8.671417588e-15 0)
(3 1.043693515e-14 0)
(3 1.055360991e-14 0)
(3 8.6760645e-15 0)
(3 5.49094636e-15 0)
(3 6.183442632e-15 0)
(3 1.034528945e-14 0)
(3 1.35839967e-14 0)
(3 1.942191969e-14 0)
(3 2.127426294e-14 0)
(3 2.431498595e-14 0)
(3 2.297394383e-14 0)
(3 2.221956502e-14 0)
(3 2.237727904e-14 0)
(3 2.197076724e-14 0)
(3 1.959114368e-14 0)
(3 1.879886837e-14 0)
(3 1.645737116e-14 0)
(3 1.486903794e-14 0)
(3 1.284018959e-14 0)
(3 7.763967988e-15 0)
(3 7.204815104e-15 0)
(3 7.879546948e-15 0)
(3 7.011412959e-15 0)
(3 6.11883955e-15 0)
(3 8.59515063e-15 0)
(3 8.27163523e-15 0)
(3 6.6151491e-15 0)
(3 2.497411436e-15 0)
(3 -3.22033387e-16 0)
(3 1.085498022e-15 0)
(3 1.826843735e-15 0)
(3 1.017592476e-15 0)
(3 -9.033136052e-16 0)
(3 -1.336748045e-15 0)
(3 6.462762513e-16 0)
(3 2.358058223e-15 0)
(3 1.939804235e-15 0)
(3 2.370450616e-15 0)
(3 2.363826977e-15 0)
(3 1.96769309e-15 0)
(3 -2.203397902e-15 0)
(3 -3.608245362e-15 0)
(3 -4.896891073e-15 0)
(3 -5.188598274e-15 0)
(3 -4.848187751e-15 0)
(3 -2.145470207e-15 0)
(3 -1.785664556e-15 0)
(3 -1.315655942e-15 0)
(3 -5.820737932e-16 0)
(3 1.478848352e-15 0)
(3 3.837901306e-15 0)
(3 8.321383457e-15 0)
(3 8.849996978e-15 0)
(3 9.746491973e-15 0)
(3 8.637801418e-15 0)
(3 7.864794528e-15 0)
(3 5.713604538e-15 0)
(3 1.907206998e-15 0)
(3 4.757134651e-15 0)
(3 1.040171111e-14 0)
(3 1.295698237e-14 0)
(3 1.050877862e-14 0)
(3 4.291082007e-15 0)
(3 -2.631641583e-15 0)
(3 -4.840372919e-15 0)
(3 -6.933462179e-15 0)
(3 -1.146911841e-14 0)
(3 -1.441308864e-14 0)
(3 -1.60607371e-14 0)
(3 -1.875044807e-14 0)
(3 -1.932812329e-14 0)
(3 -1.712382658e-14 0)
(3 -1.337453257e-14 0)
(3 -1.072759697e-14 0)
(3 -3.392500873e-15 0)
(3 2.81061706e-15 0)
(3 8.128645899e-15 0)
(3 1.541007497e-14 0)
(3 1.815505785e-14 0)
(3 1.900712053e-14 0)
(3 1.668660316e-14 0)
(3 1.970677327e-14 0)
(3 2.445058205e-14 0)
(3 2.523631486e-14 0)
(3 2.096699579e-14 0)
(3 1.258332981e-14 0)
(3 9.307498063e-15 0)
(3 6.037111119e-15 0)
(3 3.059919565e-15 0)
(3 2.652466933e-15 0)
(3 3.647773299e-15 0)
(3 5.338513682e-15 0)
(3 6.997629464e-15 0)
(3 6.130187182e-15 0)
(3 9.57946587e-16 0)
(3 -3.968142836e-15 0)
(3 -5.216690751e-15 0)
(3 -2.535113246e-15 0)
(3 -1.607538492e-15 0)
(3 -3.502308487e-15 0)
(3 -4.571332602e-15 0)
(3 -5.214100251e-15 0)
(3 -4.696857906e-15 0)
(3 -3.14799328e-15 0)
(3 -2.663826301e-15 0)
(3 -3.422836709e-16 0)
(3 8.211849311e-16 0)
(3 5.525191623e-15 0)
(3 1.039077478e-14 0)
(3 1.183433366e-14 0)
(3 1.240336753e-14 0)
(3 1.245786731e-14 0)
(3 1.589597677e-14 0)
(3 1.830338848e-14 0)
(3 1.744783718e-14 0)
(3 1.546816903e-14 0)
(3 1.203115721e-14 0)
(3 9.889793562e-15 0)
(3 7.499359204e-15 0)
(3 5.038995539e-15 0)
(3 5.575045797e-15 0)
(3 4.398159422e-15 0)
(3 6.019934578e-15 0)
(3 6.733160556e-15 0)
(3 1.153941331e-14 0)
(3 1.424151484e-14 0)
(3 1.690873655e-14 0)
(3 9.392289521e-15 0)
(3 3.825887568e-15 0)
(3 5.01492091e-16 0)
(3 -8.215535215e-16 0)
(3 -1.418965758e-15 0)
(3 -2.715585264e-15 0)
(3 -1.586986722e-15 0)
(3 -8.936591931e-16 0)
(3 -1.010488629e-15 0)
(3 9.681772409e-16 0)
(3 1.862104403e-15 0)
(3 4.231449016e-15 0)
(3 2.523995641e-15 0)
(3 3.052988326e-15 0)
(3 3.666985662e-15 0)
(3 3.008072014e-15 0)
(3 1.429673133e-15 0)
(3 3.196028738e-15 0)
(3 6.446232382e-15 0)
(3 6.636334818e-15 0)
(3 6.157333715e-15 0)
(3 7.409775565e-15 0)
(3 9.300647477e-15 0)
(3 1.155821821e-14 0)
(3 1.352629067e-14 0)
(3 1.264681237e-14 0)
(3 1.459926474e-14 0)
(3 1.147300251e-14 0)
(3 6.392477143e-15 0)
(3 4.071706793e-15 0)
(3 5.238314246e-16 0)
(3 3.553646984e-15 0)
(3 1.503958723e-15 0)
(3 3.621894459e-15 0)
(3 3.154126887e-17 0)
(3 -3.616586298e-15 0)
(3 -8.50302457e-15 0)
(3 -1.447503115e-14 0)
(3 -1.79515049e-14 0)
(3 -1.908097087e-14 0)
(3 -2.153816696e-14 0)
(3 -2.172759858e-14 0)
(3 -1.694526591e-14 0)
(3 -1.636254071e-14 0)
(3 -1.315652523e-14 0)
(3 -1.139796317e-14 0)
(3 -7.535402847e-15 0)
(3 -3.765732406e-15 0)
(3 3.561664897e-15 0)
(3 6.451151421e-15 0)
(3 6.183228294e-15 0)
(3 9.89876625e-15 0)
(3 1.326501377e-14 0)
(3 1.677809259e-14 0)
(3 2.199193142e-14 0)
(3 2.413462662e-14 0)
(3 2.256922102e-14 0)
(3 1.603859473e-14 0)
(3 1.494180229e-14 0)
(3 1.180937542e-14 0)
(3 7.875836174e-15 0)
(3 1.721035084e-15 0)
(3 -3.236850111e-16 0)
(3 -1.483989034e-15 0)
(3 2.810477969e-16 0)
(3 3.204166335e-15 0)
(3 5.466444586e-15 0)
(3 3.763560448e-15 0)
(3 -8.581442633e-17 0)
(3 -6.168457568e-15 0)
(3 -6.853701047e-15 0)
(3 -9.146618137e-15 0)
(3 -9.549573984e-15 0)
(3 -8.91922102e-15 0)
(3 -9.094237878e-15 0)
(3 -5.972847957e-15 0)
(3 -5.054381286e-15 0)
(3 -6.729505092e-15 0)
(3 -7.923506725e-15 0)
(3 -3.900149915e-15 0)
(3 6.196165227e-17 0)
(3 4.624942447e-15 0)
(3 5.839893964e-15 0)
(3 7.707531228e-15 0)
(3 8.556423666e-15 0)
(3 1.020616558e-14 0)
(3 1.255675268e-14 0)
(3 1.287569911e-14 0)
(3 1.053596227e-14 0)
(3 1.044181263e-14 0)
(3 8.684888518e-15 0)
(3 6.68822437e-15 0)
(3 5.7771187e-15 0)
(3 6.605529608e-15 0)
(3 9.596930149e-15 0)
(3 1.190507335e-14 0)
(3 1.568752399e-14 0)
(3 1.957513216e-14 0)
(3 2.304902391e-14 0)
(3 2.233716714e-14 0)
(3 1.049061071e-14 0)
(3 7.459141156e-15 0)
(3 -9.059786783e-17 0)
(3 -1.895426891e-16 0)
(3 8.188962621e-16 0)
(3 1.089572209e-15 0)
(3 -4.109665346e-16 0)
(3 -2.766765337e-15 0)
(3 -4.362052802e-15 0)
(3 -2.596738068e-15 0)
(3 -2.383893891e-15 0)
(3 -2.385904677e-15 0)
(3 5.287207807e-16 0)
(3 2.061849576e-15 0)
(3 6.046528599e-15 0)
(3 6.98936219e-15 0)
(3 6.177457446e-15 0)
(3 1.020895595e-14 0)
(3 8.954350105e-15 0)
(3 9.647315825e-15 0)
(3 9.191817544e-15 0)
(3 1.012051852e-14 0)
(3 1.019771477e-14 0)
(3 1.403851789e-14 0)
(3 1.386304448e-14 0)
(3 1.11183581e-14 0)
(3 8.83710527e-15 0)
(3 5.684968809e-15 0)
(3 1.349105325e-15 0)
(3 -7.668437046e-16 0)
(3 -1.781888322e-15 0)
(3 -4.772337874e-15 0)
(3 -4.566765767e-15 0)
(3 -3.987957664e-15 0)
(3 -2.093122856e-15 0)
(3 -6.34586268e-17 0)
(3 -1.880087194e-15 0)
(3 -5.937352349e-15 0)
(3 -8.219968537e-15 0)
(3 -8.784745164e-15 0)
(3 -9.349173759e-15 0)
(3 -1.274696597e-14 0)
(3 -1.178532647e-14 0)
(3 -9.37192634e-15 0)
(3 -8.344300246e-15 0)
(3 -8.751574113e-15 0)
(3 -7.452392373e-15 0)
(3 -6.029128863e-15 0)
(3 -1.342627404e-15 0)
(3 1.556032709e-15 0)
(3 4.245618266e-15 0)
(3 6.545897176e-15 0)
(3 9.603589001e-15 0)
(3 1.835435155e-14 0)
(3 2.223673199e-14 0)
(3 2.15278746e-14 0)
(3 1.705105696e-14 0)
(3 8.058961005e-15 0)
(3 4.089276872e-15 0)
(3 2.860858585e-15 0)
(3 1.237398948e-15 0)
(3 7.647814625e-16 0)
(3 1.966900301e-15 0)
(3 -9.523691257e-16 0)
(3 5.546847429e-18 0)
(3 -1.861405574e-15 0)
(3 -2.389995261e-15 0)
(3 -2.539620776e-15 0)
(3 -2.976155993e-15 0)
(3 -2.401699131e-15 0)
(3 -2.387274979e-15 0)
(3 -1.745885169e-15 0)
(3 -4.593727534e-15 0)
(3 -5.08527887e-15 0)
(3 -2.302564716e-15 0)
(3 -3.045072808e-15 0)
(3 -2.820822177e-15 0)
(3 3.12506213e-15 0)
(3 5.271547427e-15 0)
(3 4.398040341e-15 0)
(3 8.716838934e-16 0)
(3 1.81877405e-15 0)
(3 6.998137499e-15 0)
(3 8.43385547e-15 0)
(3 9.396816647e-15 0)
(3 9.373148106e-15 0)
(3 1.283897698e-14 0)
(3 1.507110499e-14 0)
(3 1.427380255e-14 0)
(3 1.612606741e-14 0)
(3 1.426351458e-14 0)
(3 1.054918741e-14 0)
(3 1.146033498e-14 0)
(3 1.337079816e-14 0)
(3 1.819927653e-14 0)
(3 2.211268787e-14 0)
(3 2.424723278e-14 0)
(3 2.469817038e-14 0)
(3 2.535298068e-14 0)
(3 1.960898518e-14 0)
(3 1.01766825e-14 0)
(3 1.073020392e-14 0)
(3 -5.386971064e-16 0)
(3 -9.339960005e-16 0)
(3 2.567557397e-15 0)
(3 3.685385449e-15 0)
(3 3.225602818e-15 0)
(3 1.422349973e-15 0)
(3 3.221556691e-17 0)
(3 -3.80064977e-15 0)
(3 -3.241548743e-15 0)
(3 -4.905175664e-15 0)
(3 -3.615354817e-15 0)
(3 -2.677234232e-15 0)
(3 -1.013289599e-15 0)
(3 4.2012286e-15 0)
(3 6.566342819e-15 0)
(3 4.140743722e-15 0)
(3 3.845662878e-15 0)
(3 1.291008103e-15 0)
(3 2.52529351e-15 0)
(3 1.596794264e-15 0)
(3 2.711582887e-15 0)
(3 1.763257175e-15 0)
(3 1.149677455e-15 0)
(3 1.44649537e-15 0)
(3 8.075187536e-16 0)
(3 7.433999903e-16 0)
(3 -8.9936046e-16 0)
(3 -5.659891101e-15 0)
(3 -7.024584773e-15 0)
(3 -8.159329992e-15 0)
(3 -5.358486621e-15 0)
(3 -4.482235334e-15 0)
(3 -2.925822998e-15 0)
(3 -2.022806946e-15 0)
(3 -4.004558599e-15 0)
(3 -5.32822165e-15 0)
(3 -5.570420183e-15 0)
(3 -7.006257711e-15 0)
(3 -7.038148899e-15 0)
(3 -8.746278349e-15 0)
(3 -1.115487338e-14 0)
(3 -9.619898549e-15 0)
(3 -8.27899488e-15 0)
(3 -6.303894929e-15 0)
(3 -2.18708198e-15 0)
(3 1.107010811e-15 0)
(3 4.81054434e-15 0)
(3 7.059289519e-15 0)
(3 7.327221099e-15 0)
(3 8.298432093e-15 0)
(3 8.982531708e-15 0)
(3 9.032392105e-15 0)
(3 1.114093578e-14 0)
(3 8.466162072e-15 0)
(3 3.960469306e-15 0)
(3 -1.564580707e-15 0)
(3 -3.397848514e-15 0)
(3 -1.312090975e-15 0)
(3 3.257691681e-15 0)
(3 4.224564722e-15 0)
(3 4.692822986e-15 0)
(3 5.211185903e-15 0)
(3 3.392234464e-15 0)
(3 -2.326759479e-15 0)
(3 -4.922625151e-15 0)
(3 -7.202799115e-15 0)
(3 -7.410696921e-15 0)
(3 -3.706282976e-15 0)
(3 2.280692184e-15 0)
(3 2.981570491e-15 0)
(3 2.659178939e-15 0)
(3 2.18639459e-15 0)
(3 -2.336742071e-16 0)
(3 2.34006441e-16 0)
(3 -1.864664653e-16 0)
(3 -1.663477477e-15 0)
(3 -3.512285151e-15 0)
(3 -7.874674068e-15 0)
(3 -1.116354873e-14 0)
(3 -9.355799689e-15 0)
(3 -7.157014934e-15 0)
(3 -2.337054085e-16 0)
(3 3.708117958e-15 0)
(3 5.392824282e-15 0)
(3 5.379978731e-15 0)
(3 4.954008049e-15 0)
(3 7.569648727e-15 0)
(3 6.76360357e-15 0)
(3 5.175695953e-15 0)
(3 7.135686411e-15 0)
(3 1.382079212e-14 0)
(3 1.898143163e-14 0)
(3 1.683438149e-14 0)
(3 1.822904135e-14 0)
(3 1.888703883e-14 0)
(3 1.954521015e-14 0)
(3 1.843011361e-14 0)
(3 1.556481405e-14 0)
(3 1.77488914e-14 0)
(3 1.551641939e-14 0)
(3 -4.935487247e-16 0)
(3 -6.183259227e-16 0)
(3 1.250319324e-17 0)
(3 1.22455261e-16 0)
(3 -2.934124178e-16 0)
(3 7.324473979e-16 0)
(3 3.745858122e-16 0)
(3 -3.537860947e-16 0)
(3 -1.980323095e-15 0)
(3 -2.257356582e-15 0)
(3 -5.896380602e-15 0)
(3 -5.704047684e-15 0)
(3 -6.092772841e-15 0)
(3 -3.069951019e-15 0)
(3 -5.731778557e-16 0)
(3 -1.093984369e-15 0)
(3 -5.413668069e-16 0)
(3 -9.41479536e-16 0)
(3 -1.442392036e-16 0)
(3 -5.882425342e-16 0)
(3 -2.000605269e-15 0)
(3 -5.79820285e-15 0)
(3 -1.0276802e-14 0)
(3 -9.07476406e-15 0)
(3 -9.575655354e-15 0)
(3 -8.925334018e-15 0)
(3 -7.98327017e-15 0)
(3 -9.106577992e-15 0)
(3 -6.898653649e-15 0)
(3 -5.313789014e-15 0)
(3 -6.921410114e-15 0)
(3 -7.45966696e-15 0)
(3 -1.048777739e-14 0)
(3 -1.342371208e-14 0)
(3 -1.321166551e-14 0)
(3 -1.17907391e-14 0)
(3 -1.239084728e-14 0)
(3 -1.298890604e-14 0)
(3 -1.229806378e-14 0)
(3 -1.030367771e-14 0)
(3 -6.788688004e-15 0)
(3 -5.577273006e-15 0)
(3 -3.669548277e-15 0)
(3 3.069133795e-15 0)
(3 6.923673132e-15 0)
(3 7.674713104e-15 0)
(3 7.289168983e-15 0)
(3 7.2538823e-15 0)
(3 5.679729341e-15 0)
(3 5.53007001e-15 0)
(3 4.540258613e-15 0)
(3 3.258140255e-15 0)
(3 3.851839183e-15 0)
(3 2.900797054e-15 0)
(3 2.787323338e-15 0)
(3 -4.487381588e-16 0)
(3 -7.432059679e-16 0)
(3 1.208900046e-15 0)
(3 5.368952458e-15 0)
(3 5.830615077e-15 0)
(3 6.871960874e-15 0)
(3 8.830235725e-15 0)
(3 6.421652939e-15 0)
(3 3.054449086e-15 0)
(3 2.911543846e-15 0)
(3 -5.895145334e-16 0)
(3 -2.738460398e-15 0)
(3 -2.502385298e-15 0)
(3 -2.030818207e-15 0)
(3 -9.555944206e-16 0)
(3 1.449399723e-15 0)
(3 6.415455867e-15 0)
(3 7.011367766e-15 0)
(3 7.057613793e-15 0)
(3 4.340213896e-15 0)
(3 -1.83431746e-15 0)
(3 -8.285945575e-15 0)
(3 -1.166398487e-14 0)
(3 -1.099647078e-14 0)
(3 -1.03514487e-14 0)
(3 -8.18208872e-15 0)
(3 -8.013725159e-15 0)
(3 -5.470315006e-15 0)
(3 -2.831307545e-15 0)
(3 -4.320296741e-15 0)
(3 -7.482830371e-15 0)
(3 -6.171441417e-15 0)
(3 -5.65690941e-15 0)
(3 -4.155729828e-15 0)
(3 9.19183944e-17 0)
(3 3.410085861e-15 0)
(3 7.969198941e-15 0)
(3 7.848024343e-15 0)
(3 9.888410971e-15 0)
(3 1.227030205e-14 0)
(3 1.170156542e-14 0)
(3 8.582546389e-15 0)
(3 7.424316791e-15 0)
(3 8.784257176e-15 0)
(3 8.858909258e-15 0)
(3 8.967523793e-16 0)
(3 -1.220345593e-15 0)
(3 -2.659904001e-15 0)
(3 -1.818430738e-15 0)
(3 -8.418698196e-16 0)
(3 -5.898670281e-16 0)
(3 -5.481310491e-16 0)
(3 1.363247323e-15 0)
(3 7.079936706e-16 0)
(3 1.513251472e-15 0)
(3 1.244629804e-15 0)
(3 -5.521749144e-16 0)
(3 -1.30202452e-15 0)
(3 -7.986906359e-17 0)
(3 -1.50818881e-15 0)