/*--------------------------------*- C++ -*----------------------------------*\
  =========                 |
  \\      /  F ield         | OpenFOAM: The Open Source CFD Toolbox
   \\    /   O peration     | Website:  https://openfoam.org
    \\  /    A nd           | Version:  7
     \\/     M anipulation  |
\*---------------------------------------------------------------------------*/
FoamFile
{
    version     2.0;
    format      ascii;
    class       volScalarField;
    location    "1.5";
    object      rho;
}
// * * * * * * * * * * * * * * * * * * * * * * * * * * * * * * * * * * * * * //

dimensions      [1 -3 0 0 0 0 0];

internalField   nonuniform List<scalar> 5(1.374557054 1.385389955 1.371627753 1.381565282 1.370366269);

boundaryField
{
    inlet
    {
        type            calculated;
        value           nonuniform 0();
    }
    outlet
    {
        type            calculated;
        value           nonuniform List<scalar> 3(1.374568353 1.371590389 1.370402891);
    }
    bottom
    {
        type            calculated;
        value           nonuniform 0();
    }
    top
    {
        type            calculated;
        value           nonuniform 0();
    }
    obstacle
    {
        type            calculated;
        value           nonuniform 0();
    }
    defaultFaces
    {
        type            empty;
    }
    procBoundary23to16
    {
        type            processor;
        value           nonuniform List<scalar> 2(1.40821678 1.414957685);
    }
    procBoundary23to17
    {
        type            processor;
        value           nonuniform List<scalar> 3(1.37983529 1.389061067 1.389061067);
    }
    procBoundary23to29
    {
        type            processor;
        value           nonuniform List<scalar> 2(1.38203235 1.370111903);
    }
}


// ************************************************************************* //
