/*--------------------------------*- C++ -*----------------------------------*\
  =========                 |
  \\      /  F ield         | OpenFOAM: The Open Source CFD Toolbox
   \\    /   O peration     | Website:  https://openfoam.org
    \\  /    A nd           | Version:  7
     \\/     M anipulation  |
\*---------------------------------------------------------------------------*/
FoamFile
{
    version     2.0;
    format      ascii;
    class       volScalarField;
    location    "1.7";
    object      rho;
}
// * * * * * * * * * * * * * * * * * * * * * * * * * * * * * * * * * * * * * //

dimensions      [1 -3 0 0 0 0 0];

internalField   nonuniform List<scalar> 
800
(
1.40000504
1.40000504
1.40000504
1.40000504
1.40000504
1.40000504
1.40000504
1.40000504
1.40000504
1.40000504
1.40000504
1.40000504
1.40000504
1.40000504
1.40000504
1.40000504
1.40000504
1.40000504
1.40000504
1.40000504
1.40000504
1.40000504
1.40000504
1.40000504
1.40000504
1.40000504
1.40000504
1.40000504
1.40000504
1.40000504
1.40000504
1.40000504
1.40000504
1.40000504
1.40000504
1.40000504
1.40000504
1.40000504
1.40000504
1.40000504
1.40000504
1.40000504
1.40000504
1.40000504
1.40000504
1.40000504
1.40000504
1.40000504
1.40000504
1.40000504
1.40000504
1.40000504
1.40000504
1.40000504
1.40000504
1.40000504
1.40000504
1.40000504
1.40000504
1.40000504
1.40000504
1.40000504
1.40000504
1.40000504
1.40000504
1.40000504
1.40000504
1.40000504
1.40000504
1.40000504
1.40000504
1.40000504
1.40000504
1.40000504
1.40000504
1.40000504
1.40000504
1.40000504
1.40000504
1.40000504
1.40000504
1.40000504
1.40000504
1.40000504
1.40000504
1.40000504
1.40000504
1.40000504
1.40000504
1.40000504
1.40000504
1.40000504
1.40000504
1.40000504
1.40000504
1.40000504
1.40000504
1.40000504
1.40000504
1.40000504
1.40000504
1.40000504
1.40000504
1.40000504
1.40000504
1.40000504
1.40000504
1.40000504
1.40000504
1.40000504
1.40000504
1.40000504
1.40000504
1.40000504
1.40000504
1.40000504
1.40000504
1.40000504
1.40000504
1.40000504
1.40000504
1.40000504
1.40000504
1.40000504
1.40000504
1.40000504
1.40000504
1.40000504
1.400005039
1.400005039
1.40000504
1.40000504
1.40000504
1.40000504
1.40000504
1.400005039
1.400005039
1.400005038
1.400005038
1.400005039
1.40000504
1.400005039
1.400005039
1.400005038
1.400005038
1.400005038
1.400005041
1.400005034
1.400005664
1.4000052
1.400005036
1.400005036
1.400005037
1.400005035
1.400005057
1.40000543
1.400007641
1.400017388
1.40010675
1.400090645
1.40000503
1.400005127
1.400006469
1.400016613
1.400060702
1.400218859
1.400650638
1.401704073
1.404301712
1.406520073
1.400025285
1.400159114
1.400661937
1.402073945
1.405115219
1.410918846
1.4204109
1.435154189
1.455616138
1.479852391
1.403201566
1.411652539
1.425431454
1.446901234
1.472255945
1.504097856
1.537296852
1.575395931
1.609010223
1.665293495
1.45541067
1.518758873
1.587863567
1.651739802
1.71280252
1.76578091
1.81504948
1.856457004
1.88983448
1.930205964
1.40000504
1.400005675
1.40004135
1.400959365
1.40857172
1.442635392
1.504635029
1.573098684
1.62130396
1.604920214
1.400005042
1.400024673
1.400561775
1.407551877
1.434461219
1.4832717
1.520341496
1.554129391
1.571037508
1.535856293
1.400005342
1.400363854
1.405326987
1.43396981
1.490976789
1.515133701
1.523701058
1.513005183
1.492779963
1.452121995
1.400029012
1.404033943
1.430809037
1.488167714
1.537162342
1.533591796
1.512491076
1.45896682
1.384189063
1.379286114
1.400882123
1.42621286
1.49901898
1.539664909
1.539306546
1.514569618
1.446706561
1.371543152
1.311366616
1.32682695
1.413867497
1.493562804
1.567005084
1.562012718
1.514531959
1.428590898
1.342425164
1.316233372
1.305387794
1.327198366
1.490222745
1.577076432
1.572387281
1.522646753
1.40220712
1.303052152
1.275881509
1.286403535
1.317151033
1.36341882
1.629063742
1.618553794
1.517999392
1.36075234
1.283633241
1.267409168
1.27762201
1.31425709
1.352545462
1.37531749
1.664551533
1.520174135
1.294618904
1.196684214
1.212732562
1.256757417
1.32978128
1.362911855
1.366489557
1.372591276
1.559801106
1.206442171
1.142788476
1.187742921
1.273852938
1.33877686
1.352877531
1.3622699
1.361726713
1.36179084
1.025549233
1.02811601
1.154470411
1.308866416
1.370864052
1.377808604
1.34746923
1.356037463
1.35561834
1.355632509
0.9962866027
1.044157986
1.209459661
1.341886001
1.370453665
1.375368668
1.341393763
1.349282395
1.351754786
1.352275118
1.011384904
1.069391092
1.245089941
1.353733174
1.36575678
1.366752417
1.333677044
1.340525072
1.343486188
1.348848428
1.020194811
1.099293359
1.285983131
1.358559006
1.360347956
1.361481637
1.328967791
1.334186729
1.337944398
1.345125536
1.029163215
1.136056585
1.322665653
1.359989341
1.358222121
1.359711269
1.325286837
1.327925791
1.332275575
1.336941441
1.039903846
1.174424991
1.347004698
1.355632812
1.352227949
1.35302527
1.317465496
1.320953074
1.325630077
1.328808387
1.049870616
1.216106946
1.359050199
1.350363603
1.343574989
1.34268758
1.308214639
1.315311552
1.321674178
1.322896832
1.05288474
1.25612604
1.355992236
1.341345516
1.337891811
1.338178648
1.30305715
1.313133878
1.320676813
1.321587546
1.050410898
1.281346127
1.353748968
1.332228989
1.331565052
1.333590521
1.297093686
1.310514878
1.317629293
1.320780521
1.038864029
1.330989354
1.34873748
1.324663913
1.323695054
1.326561031
1.291040394
1.306856883
1.311942169
1.318279899
1.03932913
1.309502801
1.347338912
1.32385571
1.323582915
1.326023495
1.291168793
1.30490956
1.311377491
1.317803226
1.049600597
1.267203498
1.353194315
1.331890611
1.328595585
1.331076967
1.29715713
1.304038364
1.312975654
1.317076942
1.052654694
1.257437795
1.359720683
1.341657409
1.338001309
1.338412892
1.303286931
1.312566185
1.320019165
1.320174745
1.05008563
1.226605314
1.359547158
1.349500874
1.344382396
1.343357023
1.308693038
1.317918398
1.323063103
1.325549058
1.040192682
1.179039614
1.34637029
1.354986022
1.352592103
1.3530473
1.317732607
1.322125272
1.327752519
1.33063911
1.029420287
1.131307046
1.319048109
1.360570148
1.358856825
1.360485474
1.325532811
1.328760178
1.334111922
1.337646364
1.019988012
1.096176803
1.283829644
1.359688607
1.360374758
1.361999806
1.329224623
1.333415861
1.337503696
1.341574947
1.011132112
1.07063493
1.24784065
1.354668549
1.365856306
1.366760959
1.333440397
1.33829438
1.34192428
1.34634666
0.9962800059
1.04506268
1.212002937
1.342134189
1.370736973
1.37514058
1.340581881
1.348175587
1.351569002
1.354934816
1.02564693
1.027887841
1.153331042
1.307927835
1.371088511
1.377503952
1.347244927
1.356291428
1.356568329
1.357057924
1.55979874
1.206405577
1.142769932
1.187718485
1.273904085
1.338845711
1.352898738
1.362229267
1.361709841
1.361604973
1.664551296
1.520187996
1.294616869
1.196691141
1.212739147
1.256781663
1.329810888
1.362866242
1.366436242
1.372592363
1.629063699
1.618553116
1.517998113
1.360754289
1.283642933
1.267425482
1.277645
1.314239213
1.352528667
1.375328601
1.490222723
1.577076059
1.572386779
1.522645707
1.402210346
1.303051864
1.275901766
1.286421359
1.317147661
1.363379012
1.413867513
1.493562793
1.567004421
1.562012031
1.514530209
1.428589187
1.342430158
1.316248409
1.305409203
1.327193847
1.40088213
1.426212842
1.499018389
1.539664259
1.539305981
1.514568995
1.446707362
1.371545393
1.311381852
1.326824729
1.400029012
1.404033926
1.430808874
1.48816739
1.537161894
1.533591619
1.512490367
1.458965889
1.384197384
1.379287494
1.400005342
1.400363851
1.405326979
1.433969678
1.490976542
1.515133731
1.523700463
1.513004183
1.492781559
1.452124063
1.400005042
1.400024673
1.400561775
1.407551835
1.434461094
1.483271551
1.520341096
1.55412908
1.571037101
1.535856814
1.40000504
1.400005675
1.40004135
1.400959356
1.408571652
1.442635233
1.504634857
1.573098371
1.621302668
1.604918869
1.45541067
1.518758872
1.587863567
1.651739802
1.712802521
1.76578091
1.81504948
1.856457004
1.88983448
1.930205964
1.403201565
1.41165254
1.425431453
1.446901234
1.472255945
1.504097856
1.537296853
1.575395929
1.609010225
1.665293492
1.400025285
1.400159114
1.400661937
1.402073945
1.405115219
1.410918847
1.420410899
1.43515419
1.455616136
1.479852394
1.40000503
1.400005127
1.400006469
1.400016613
1.400060702
1.400218859
1.400650638
1.401704073
1.404301712
1.406520073
1.400005036
1.400005036
1.400005037
1.400005035
1.400005057
1.40000543
1.400007641
1.400017388
1.40010675
1.400090645
1.40000504
1.400005039
1.400005039
1.400005038
1.400005038
1.400005038
1.400005041
1.400005034
1.400005664
1.4000052
1.40000504
1.40000504
1.40000504
1.40000504
1.40000504
1.400005039
1.400005039
1.400005038
1.400005038
1.400005039
1.40000504
1.40000504
1.40000504
1.40000504
1.40000504
1.40000504
1.40000504
1.40000504
1.400005039
1.400005039
1.40000504
1.40000504
1.40000504
1.40000504
1.40000504
1.40000504
1.40000504
1.40000504
1.40000504
1.40000504
1.40000504
1.40000504
1.40000504
1.40000504
1.40000504
1.40000504
1.40000504
1.40000504
1.40000504
1.40000504
1.40000504
1.40000504
1.40000504
1.40000504
1.40000504
1.40000504
1.40000504
1.40000504
1.40000504
1.40000504
1.40000504
1.40000504
1.40000504
1.40000504
1.40000504
1.40000504
1.40000504
1.40000504
1.40000504
1.40000504
1.40000504
1.40000504
1.40000504
1.40000504
1.40000504
1.40000504
1.40000504
1.40000504
1.40000504
1.40000504
1.40000504
1.40000504
1.40000504
1.40000504
1.40000504
1.40000504
1.40000504
1.40000504
1.40000504
1.40000504
1.40000504
1.40000504
1.40000504
1.40000504
1.40000504
1.40000504
1.40000504
1.40000504
1.40000504
1.40000504
1.40000504
1.40000504
1.40000504
1.40000504
1.40000504
1.40000504
1.40000504
1.40000504
1.40000504
1.40000504
1.40000504
1.40000504
1.40000504
1.40000504
1.40000504
1.40000504
1.40000504
1.40000504
1.40000504
1.40000504
1.40000504
1.40000504
1.40000504
1.40000504
1.40000504
1.40000504
1.40000504
1.40000504
1.40000504
1.40000504
1.40000504
1.40000504
1.40000504
1.40000504
1.40000504
1.40000504
1.40000504
1.40000504
1.40000504
1.40000504
1.40000504
1.40000504
1.40000504
1.40000504
1.40000504
1.40000504
1.40000504
1.40000504
1.40000504
1.40000504
)
;

boundaryField
{
    inlet
    {
        type            calculated;
        value           uniform 1.40000504;
    }
    outlet
    {
        type            calculated;
        value           nonuniform List<scalar> 
40
(
1.361634826
1.372588095
1.37532807
1.36337983
1.327193975
1.326824843
1.379287464
1.452124021
1.535856815
1.604918876
1.317705189
1.31683034
1.320093795
1.325579634
1.330708882
1.338000004
1.341713156
1.345864992
1.354557908
1.357035574
1.355526375
1.352123342
1.348958677
1.345172573
1.336737191
1.328871308
1.322943538
1.321648097
1.320974114
1.318328215
1.604920215
1.535856286
1.452121956
1.379286106
1.326827053
1.327198486
1.363419446
1.37531694
1.372590481
1.361799619
)
;
    }
    bottom
    {
        type            calculated;
        value           nonuniform List<scalar> 
30
(
1.40000504
1.40000504
1.40000504
1.40000504
1.40000504
1.40000504
1.40000504
1.40000504
1.40000504
1.40000504
1.40000504
1.40000504
1.40000504
1.40000504
1.40000504
1.40000504
1.40000504
1.40000504
1.40000504
1.40000504
1.40000504
1.400005675
1.40004135
1.400959365
1.40857172
1.442635392
1.504635029
1.573098684
1.62130396
1.604920214
)
;
    }
    top
    {
        type            calculated;
        value           nonuniform List<scalar> 
30
(
1.40000504
1.40000504
1.40000504
1.40000504
1.40000504
1.40000504
1.40000504
1.40000504
1.40000504
1.40000504
1.40000504
1.40000504
1.40000504
1.40000504
1.40000504
1.40000504
1.40000504
1.40000504
1.40000504
1.40000504
1.40000504
1.400005675
1.40004135
1.400959356
1.408571652
1.442635233
1.504634857
1.573098371
1.621302668
1.604918869
)
;
    }
    obstacle
    {
        type            calculated;
        value           nonuniform List<scalar> 
40
(
1.45541067
1.518758872
1.587863567
1.651739802
1.712802521
1.76578091
1.81504948
1.856457004
1.88983448
1.930205964
1.03932913
1.049600597
1.052654694
1.05008563
1.040192682
1.029420287
1.019988012
1.011132112
0.9962800059
1.02564693
1.025549233
0.9962866027
1.011384904
1.020194811
1.029163215
1.039903846
1.049870616
1.05288474
1.050410898
1.038864029
1.45541067
1.518758873
1.587863567
1.651739802
1.71280252
1.76578091
1.81504948
1.856457004
1.88983448
1.930205964
)
;
    }
    defaultFaces
    {
        type            empty;
    }
}


// ************************************************************************* //
