/*--------------------------------*- C++ -*----------------------------------*\
  =========                 |
  \\      /  F ield         | OpenFOAM: The Open Source CFD Toolbox
   \\    /   O peration     | Website:  https://openfoam.org
    \\  /    A nd           | Version:  7
     \\/     M anipulation  |
\*---------------------------------------------------------------------------*/
FoamFile
{
    version     2.0;
    format      ascii;
    class       volVectorField;
    location    "2.5";
    object      U;
}
// * * * * * * * * * * * * * * * * * * * * * * * * * * * * * * * * * * * * * //

dimensions      [0 1 -1 0 0 0 0];

internalField   nonuniform List<vector> 
139
(
(3.254728576 0.002681904638 0)
(3.239397835 0.001491196704 0)
(3.241626253 0.002892278234 0)
(3.245090801 0.004049754484 0)
(3.247991651 0.002453359546 0)
(3.250635063 0.001259955043 0)
(3.252123154 0.0008151972911 0)
(3.253381263 0.0001707834114 0)
(3.253479566 -0.0001679057906 0)
(3.253499085 0.0004330532735 0)
(3.25451399 0.0003366443226 0)
(3.242340405 -0.0006282399185 0)
(3.244569388 -0.0006759266622 0)
(3.248087705 -0.0003619474642 0)
(3.250606744 -5.323081397e-06 0)
(3.253346539 0.001739834824 0)
(3.254728007 0.002101642552 0)
(3.255398318 0.001068140015 0)
(3.255505552 -0.0008306339202 0)
(3.255479301 -0.001557482123 0)
(3.256853812 -0.001353350269 0)
(3.251199948 -0.003774215352 0)
(3.253075753 -0.004123181243 0)
(3.255211661 -0.003333201107 0)
(3.257497106 9.434309402e-05 0)
(3.258609566 0.000975496041 0)
(3.259275736 -4.542837303e-05 0)
(3.259738141 -0.0003457685128 0)
(3.260166812 -0.001121647202 0)
(3.261249888 -0.001665283632 0)
(3.262807464 -0.002446488879 0)
(3.264039543 -0.005121835309 0)
(3.264975076 -0.00594914199 0)
(3.265546472 -0.004504609111 0)
(3.265962718 -0.002305929556 0)
(3.266468264 -0.002381528836 0)
(3.267211785 0.0002558205281 0)
(3.267413933 0.001108038945 0)
(3.267709418 0.001224316884 0)
(3.27774892 -0.000214627054 0)
(3.277186623 0.0002992770644 0)
(3.276373971 0.0004989394153 0)
(3.275711206 -0.001689421046 0)
(3.275869025 -0.003562673035 0)
(3.276369034 -0.003503898023 0)
(3.276823233 -0.003620660064 0)
(3.276733566 -0.001879716982 0)
(3.276696427 -0.0002753442999 0)
(3.288429904 -0.000137722523 0)
(3.287425157 0.001093545307 0)
(3.28603711 0.001465879893 0)
(3.284492265 -0.0006259649851 0)
(3.283846247 -0.002054411015 0)
(3.283756472 -0.002719418472 0)
(3.283416321 -0.001583121221 0)
(3.282738423 0.0005867290028 0)
(3.281727959 0.001389787291 0)
(3.287662422 0.002362642522 0)
(3.285803874 0.004293601116 0)
(3.284459866 0.003481054593 0)
(3.28333569 0.0002697218713 0)
(3.282614616 -0.001894392048 0)
(3.281972109 -0.002345005896 0)
(3.281050376 -0.001067223421 0)
(3.279176828 0.0008797621618 0)
(3.277280845 0.001601711462 0)
(3.274906752 0.002131002302 0)
(3.272267521 0.003149453402 0)
(3.270113702 0.001181564269 0)
(3.268405632 -0.00155471158 0)
(3.267550958 -0.001122712182 0)
(3.266424929 -0.0006857701762 0)
(3.264172574 0.0003685548723 0)
(3.262646752 0.0008114549635 0)
(3.260485594 0.001087265988 0)
(3.251768748 -0.001442411879 0)
(3.249298227 -0.0008792787516 0)
(3.24664221 -0.002036952643 0)
(3.243713948 -0.003077350063 0)
(3.241658269 -0.001670329187 0)
(3.239405484 -0.001117426164 0)
(3.236616614 -0.0006486388171 0)
(3.235006117 -0.00190022388 0)
(3.232234353 -0.001708543775 0)
(3.221274822 -0.002870183376 0)
(3.217919232 -0.004003294839 0)
(3.215088034 -0.005200543398 0)
(3.211339724 -0.00502600624 0)
(3.208787213 -0.003046005538 0)
(3.206170164 -0.002498402736 0)
(3.2034469 -0.00227800206 0)
(3.200976175 -0.003458294972 0)
(3.197020954 -0.002875106175 0)
(3.185710748 -0.001790442122 0)
(3.181561995 -0.002887516857 0)
(3.178824925 -0.003754218324 0)
(3.174332354 -0.003496021275 0)
(3.171722955 -0.002971533059 0)
(3.168792816 -0.003002594423 0)
(3.165288502 -0.002985329567 0)
(3.162657158 -0.002411983021 0)
(3.158371396 -0.001007149298 0)
(3.14997664 0.0004859607773 0)
(3.144903612 8.549707142e-05 0)
(3.140521391 -0.001011123096 0)
(3.135749733 -0.001552674988 0)
(3.133376996 -0.001794774663 0)
(3.129495959 -0.002238723975 0)
(3.126194155 -0.002129942352 0)
(3.123173429 -0.0001389550879 0)
(3.119593253 0.00157946989 0)
(3.113091714 0.001436571284 0)
(3.108065678 0.002858486287 0)
(3.10331399 0.001721310847 0)
(3.098123035 -0.0004166289356 0)
(3.094746981 -0.0007489594166 0)
(3.089700308 -0.001399998139 0)
(3.08593419 -0.0001321011984 0)
(3.083369915 0.0009467076331 0)
(3.080232957 0.002127022271 0)
(3.069982149 0.0005693004073 0)
(3.066791768 0.002618857413 0)
(3.063545649 0.002386417895 0)
(3.057704478 -0.0002332450959 0)
(3.053174304 -0.001066632343 0)
(3.048434125 -0.001056108846 0)
(3.04411435 -0.0002929661622 0)
(3.042266735 0.000519070859 0)
(3.039489684 0.001183484773 0)
(3.022815688 -0.001481590531 0)
(3.021330365 0.0006845744246 0)
(3.018322687 0.0005892643038 0)
(3.012850761 -0.001874954259 0)
(3.009234395 -0.002032273265 0)
(3.005909952 -0.0005216848613 0)
(3.002322781 0.0007508888604 0)
(3.000789243 0.0005260156054 0)
(2.998403762 0.0006240672218 0)
(2.97438129 -0.001657676193 0)
)
;

boundaryField
{
    inlet
    {
        type            fixedValue;
        value           nonuniform 0();
    }
    outlet
    {
        type            inletOutlet;
        inletValue      uniform (3 0 0);
        value           nonuniform List<vector> 
16
(
(3.25451399 0.0003366443226 0)
(3.256853812 -0.001353350269 0)
(3.261249888 -0.001665283632 0)
(3.267709418 0.001224316884 0)
(3.276696427 -0.0002753442999 0)
(3.281727959 0.001389787291 0)
(3.277280845 0.001601711462 0)
(3.260485594 0.001087265988 0)
(3.232234353 -0.001708543775 0)
(3.197020954 -0.002875106175 0)
(3.158371396 -0.001007149298 0)
(3.119593253 0.00157946989 0)
(3.080232957 0.002127022271 0)
(3.039489684 0.001183484773 0)
(2.998403762 0.0006240672218 0)
(3.254728576 0.002681904638 0)
)
;
    }
    bottom
    {
        type            slip;
    }
    top
    {
        type            slip;
    }
    obstacle
    {
        type            slip;
    }
    defaultFaces
    {
        type            empty;
    }
    procBoundary23to17
    {
        type            processor;
        value           nonuniform List<vector> 
11
(
(3.256615648 0.001877061977 0)
(3.239148531 0.002440312453 0)
(3.241019552 0.004544519725 0)
(3.243577447 0.005812682031 0)
(3.246373126 0.00472770067 0)
(3.248975687 0.0005950804322 0)
(3.251817098 -0.00122049605 0)
(3.253013483 -0.001233054241 0)
(3.253415293 0.0005510941568 0)
(3.25365717 0.002692897358 0)
(3.25365717 0.002692897358 0)
)
;
    }
    procBoundary23to22
    {
        type            processor;
        value           nonuniform List<vector> 
16
(
(3.237987351 -0.0004474408832 0)
(3.240896903 -0.0001832683252 0)
(3.249317888 -0.002849878503 0)
(3.249317888 -0.002849878503 0)
(3.262096391 0.0001111386429 0)
(3.278289556 -0.0007534489368 0)
(3.2898754 -0.0005224575935 0)
(3.290370699 4.420528264e-05 0)
(3.27814921 -0.001093675011 0)
(3.255071108 -0.003939356751 0)
(3.224924827 -0.003099105715 0)
(3.190444051 -0.00157500161 0)
(3.155037788 -0.0001553187586 0)
(3.118358319 -3.835524774e-05 0)
(3.075161794 -0.0007608984312 0)
(3.027026988 -0.003288372844 0)
)
;
    }
    procBoundary23to28
    {
        type            processor;
        value           uniform (2.975339289 -0.002999067823 0);
    }
    procBoundary23to29
    {
        type            processor;
        value           nonuniform List<vector> 9((2.972538069 -0.002354556957 0) (2.969126972 -0.004545737671 0) (2.967097527 -0.004095521741 0) (2.965154642 -0.002209750248 0) (2.962777312 -0.001629456885 0) (2.961637722 -0.002768018085 0) (2.960281982 -0.002722107486 0) (2.972538069 -0.002354556957 0) (2.930878548 -0.002342476968 0));
    }
}


// ************************************************************************* //
