/*--------------------------------*- C++ -*----------------------------------*\
  =========                 |
  \\      /  F ield         | OpenFOAM: The Open Source CFD Toolbox
   \\    /   O peration     | Website:  https://openfoam.org
    \\  /    A nd           | Version:  7
     \\/     M anipulation  |
\*---------------------------------------------------------------------------*/
FoamFile
{
    version     2.0;
    format      ascii;
    class       volScalarField;
    location    "3.3";
    object      p;
}
// * * * * * * * * * * * * * * * * * * * * * * * * * * * * * * * * * * * * * //

dimensions      [1 -1 -2 0 0 0 0];

internalField   nonuniform List<scalar> 
22
(
1.000954713
1.008589299
1.043034074
1.106550486
1.007563751
1.034701329
1.084546999
1.122916174
1.092568047
1.117686267
1.126654183
1.141010498
1.137311864
1.115562479
1.143881879
1.118457677
1.049443305
1.119594878
1.03211788
0.9469033425
1.008354698
0.9115224685
)
;

boundaryField
{
    inlet
    {
        type            fixedValue;
        value           nonuniform 0();
    }
    outlet
    {
        type            zeroGradient;
    }
    bottom
    {
        type            slip;
    }
    top
    {
        type            slip;
    }
    obstacle
    {
        type            zeroGradient;
    }
    defaultFaces
    {
        type            empty;
    }
    procBoundary4to3
    {
        type            processor;
        value           nonuniform List<scalar> 6(1.000036301 1.00055664 1.034238081 1.034238081 1.089832273 1.144178004);
    }
    procBoundary4to5
    {
        type            processor;
        value           nonuniform List<scalar> 6(1.177646472 1.157905858 1.115682267 1.061056386 0.9743211604 0.921573745);
    }
    procBoundary4to9
    {
        type            processor;
        value           nonuniform List<scalar> 2(1.168626526 1.129797869);
    }
    procBoundary4to10
    {
        type            processor;
        value           nonuniform List<scalar> 4(0.8848208244 0.8962434213 0.8848208244 0.8821068697);
    }
}


// ************************************************************************* //
