/*--------------------------------*- C++ -*----------------------------------*\
  =========                 |
  \\      /  F ield         | OpenFOAM: The Open Source CFD Toolbox
   \\    /   O peration     | Website:  https://openfoam.org
    \\  /    A nd           | Version:  7
     \\/     M anipulation  |
\*---------------------------------------------------------------------------*/
FoamFile
{
    version     2.0;
    format      ascii;
    class       volScalarField;
    location    "3.7";
    object      T;
}
// * * * * * * * * * * * * * * * * * * * * * * * * * * * * * * * * * * * * * //

dimensions      [0 0 0 1 0 0 0];

internalField   nonuniform List<scalar> 
22
(
1.047420098
1.027317627
1.05223074
1.051197465
1.038798235
1.066520247
1.064182078
1.040257152
0.999335055
1.074142819
1.044091987
0.9900240463
0.9603495509
1.070402776
0.9711044436
0.9517085328
0.9690534988
0.9316753394
0.928113582
0.9590466383
0.9222234076
0.9346501378
)
;

boundaryField
{
    inlet
    {
        type            fixedValue;
        value           nonuniform 0();
    }
    outlet
    {
        type            inletOutlet;
        inletValue      nonuniform 0();
        value           nonuniform 0();
    }
    bottom
    {
        type            slip;
    }
    top
    {
        type            slip;
    }
    obstacle
    {
        type            zeroGradient;
    }
    defaultFaces
    {
        type            empty;
    }
    procBoundary9to3
    {
        type            processor;
        value           nonuniform List<scalar> 5(1.040392358 1.00412249 1.027603265 1.048710935 1.048710935);
    }
    procBoundary9to4
    {
        type            processor;
        value           nonuniform List<scalar> 2(1.034932492 1.006774264);
    }
    procBoundary9to8
    {
        type            processor;
        value           uniform 1.001913243;
    }
    procBoundary9to10
    {
        type            processor;
        value           nonuniform List<scalar> 5(0.9774904895 0.9654386434 0.9979325017 1.016470801 1.016470801);
    }
    procBoundary9to14
    {
        type            processor;
        value           nonuniform List<scalar> 3(1.023100083 1.072189998 1.14191098);
    }
    procBoundary9to15
    {
        type            processor;
        value           nonuniform List<scalar> 4(0.9814812324 0.927553272 0.9814812324 0.9442876557);
    }
}


// ************************************************************************* //
