/*--------------------------------*- C++ -*----------------------------------*\
  =========                 |
  \\      /  F ield         | OpenFOAM: The Open Source CFD Toolbox
   \\    /   O peration     | Website:  https://openfoam.org
    \\  /    A nd           | Version:  7
     \\/     M anipulation  |
\*---------------------------------------------------------------------------*/
FoamFile
{
    version     2.0;
    format      ascii;
    class       volVectorField;
    location    "3.7";
    object      U;
}
// * * * * * * * * * * * * * * * * * * * * * * * * * * * * * * * * * * * * * //

dimensions      [0 1 -1 0 0 0 0];

internalField   nonuniform List<vector> 5((3.000374804 0.03542252802 0) (3.002437167 0.01541438559 0) (3.001274035 0.01640659083 0) (2.996945197 0.02749089813 0) (2.991993052 0.002993028831 0));

boundaryField
{
    inlet
    {
        type            fixedValue;
        value           nonuniform 0();
    }
    outlet
    {
        type            inletOutlet;
        inletValue      uniform (3 0 0);
        value           nonuniform List<vector> 3((3.000374804 0.03542252802 0) (3.001274035 0.01640659083 0) (2.991993052 0.002993028831 0));
    }
    bottom
    {
        type            slip;
    }
    top
    {
        type            slip;
    }
    obstacle
    {
        type            slip;
    }
    defaultFaces
    {
        type            empty;
    }
    procBoundary11to4
    {
        type            processor;
        value           nonuniform List<vector> 2((2.994497787 -0.004286609686 0) (3.008256533 0.07818863515 0));
    }
    procBoundary11to5
    {
        type            processor;
        value           nonuniform List<vector> 3((2.992512866 0.01469578507 0) (3.003331397 0.01044428085 0) (3.003331397 0.01044428085 0));
    }
    procBoundary11to17
    {
        type            processor;
        value           nonuniform List<vector> 2((2.984089332 -0.001064644223 0) (2.975919901 -0.002561593248 0));
    }
}


// ************************************************************************* //
