/*--------------------------------*- C++ -*----------------------------------*\
  =========                 |
  \\      /  F ield         | OpenFOAM: The Open Source CFD Toolbox
   \\    /   O peration     | Website:  https://openfoam.org
    \\  /    A nd           | Version:  7
     \\/     M anipulation  |
\*---------------------------------------------------------------------------*/
FoamFile
{
    version     2.0;
    format      ascii;
    class       volScalarField;
    location    "4.3";
    object      p;
}
// * * * * * * * * * * * * * * * * * * * * * * * * * * * * * * * * * * * * * //

dimensions      [1 -1 -2 0 0 0 0];

internalField   nonuniform List<scalar> 
555
(
0.9955183283
0.9950439914
0.9959329803
0.9975236982
0.9988762594
0.6503297983
0.7264779243
0.8243913457
0.9042028455
0.9410400691
0.9833175007
0.9883914948
0.9931180729
0.9978997506
0.9998564188
0.9983420432
0.997356797
0.9964356726
0.9957791974
0.9959908684
0.9968891434
0.7780943939
0.8701736977
0.9595059768
0.9870222731
0.9808839776
0.9872398568
0.9897398907
0.989606341
0.9912380372
0.9950809374
0.9971540347
0.9978076902
0.9973627682
0.9971169886
0.9970806602
0.9974906033
0.9420714891
0.9658456074
0.9884213195
0.9989216411
0.9971379293
0.9962550259
0.9956172662
0.9935899157
0.9932130079
0.9948155013
0.9961657298
0.9973415094
0.997714413
0.9978781052
0.9983456299
0.9987338829
0.9694677522
0.9777366873
0.9848338166
0.9930990872
0.9970109243
0.9982964688
0.9983981014
0.9984976756
0.9982612925
0.9982462552
0.9978754417
0.9972254714
0.9973254834
0.9979674783
0.9988820323
0.999321192
0.9862850488
0.9908517036
0.9920178376
0.9947355285
0.9962771107
0.9974540394
0.9987154859
0.9993978037
0.9998729759
0.9997738159
0.9990779211
0.998073009
0.9980134163
0.9979259618
0.9984544199
0.999189725
0.9943945352
0.9979867592
0.9993344423
0.998970758
0.9978331381
0.9972704961
0.9973828655
0.9980088505
0.9988243343
0.9993481235
0.9991835546
0.9986836198
0.9985569154
0.9985112078
0.9986399192
0.9990376554
0.9954417185
0.9977587618
0.9986031611
0.9985732979
0.9990361884
0.9984756367
0.9979525455
0.9977482516
0.9978910935
0.9983051023
0.9986001677
0.9988836706
0.9990464459
0.9991036658
0.9992984405
0.9995312431
0.9930308983
0.9939598837
0.9951157698
0.9964684274
0.9980672103
0.9991521394
0.9989702612
0.9986657957
0.998596271
0.9988142247
0.9990152277
0.9991704412
0.9992571026
0.999352776
0.9996929905
1.000065453
0.9930652861
0.9928836434
0.993476477
0.9952048014
0.9975720397
0.9991945119
0.9995677719
0.9996432377
0.9997064433
0.9997784286
0.999659785
0.9991940274
0.999049798
0.9991036667
0.9994902734
1.000224431
0.9950281427
0.9947432988
0.9952160613
0.9965027702
0.9980308099
0.9991438557
0.9993742456
0.999710186
0.9997824376
0.9997344785
0.9994788758
0.9989814008
0.9986496703
0.9986264781
0.9988143993
0.999664557
0.9964673621
0.9969668622
0.9979617374
0.9989164362
0.99912511
0.9988742882
0.9986178385
0.9988036151
0.9991727065
0.9993875171
0.9992868565
0.9989797711
0.9987202094
0.998655582
0.9986410571
0.9989732419
0.996982374
0.9974910406
0.9981973982
0.998607677
0.9983651046
0.9983271322
0.9981936957
0.9980986251
0.9983436788
0.99864076
0.9987657018
0.9988193668
0.9989905094
0.9991360183
0.9991290839
0.9990857148
0.9979600447
0.9979666102
0.9984201409
0.9986927077
0.998425997
0.9982862458
0.9984221449
0.9982495613
0.9981413018
0.9981369431
0.9981645068
0.9982145993
0.9983967545
0.9988479268
0.9991960321
0.9993640423
0.9987664318
0.9990181198
0.9989897393
0.9991190416
0.9990186687
0.998839837
0.9987959139
0.9985776494
0.9982405394
0.9980518604
0.9980074092
0.9980025523
0.9980613769
0.9982828095
0.998541523
0.9987316006
0.9992943206
0.9999515482
1.000734762
1.001369546
1.001349416
1.000750069
0.9999539912
0.9991936562
0.998650032
0.9984855267
0.9985366389
0.9986812809
0.9988340341
0.9989387097
0.9989030402
0.998827181
0.9985404255
0.9994526498
1.000115078
1.000713795
1.000904236
1.000463752
0.9997238213
0.9986833344
0.9977300259
0.9973506365
0.9970305964
0.9964729443
0.9960378875
0.9956347629
0.9953749481
0.9956986266
0.9992200491
1.000337614
1.001207587
1.00170829
1.001709965
1.001404517
1.000812645
0.9995833829
0.9982432716
0.9974035378
0.996649053
0.9953362147
0.9939785831
0.9924554187
0.9908355631
0.9902786597
1.000981229
1.002626958
1.003405314
1.003524204
1.003007631
1.002522959
1.002007887
1.001069473
0.9999927731
0.9989031568
0.9979017329
0.9961134234
0.9937347961
0.9916181516
0.9896604705
0.9894382791
1.002054882
1.004198976
1.004615944
1.004320836
1.003325721
1.002062688
1.001425557
1.001252399
1.001234059
1.000705209
0.9990762804
0.9967488263
0.9944706454
0.9927112175
0.9910673844
0.9907666297
1.003218929
1.004832839
1.005091661
1.004464057
1.003164732
1.000818173
0.9997075302
0.999897479
1.001226743
1.001452949
1.00034007
0.9993828374
0.9982204776
0.9968762407
0.9953320732
0.994836654
1.003497219
1.004326601
1.004125017
1.003796193
1.002520309
0.9998218529
0.9980776144
0.9980961802
0.998890334
1.000128876
1.001073268
1.00144413
1.001130442
1.00104881
1.000807514
1.000353223
1.002597239
1.002825046
1.002803478
1.002726923
1.002001702
0.9997276527
0.9973275136
0.996526552
0.9961483252
0.997001386
0.9990586688
1.001161889
1.002710072
1.003171373
1.00346513
1.004108369
1.000547336
1.000830354
1.001681216
1.002186491
1.001954716
1.000256247
0.9976651009
0.9958730804
0.9945376109
0.9945241524
0.9961567177
0.9989531608
1.001883915
1.003432731
1.004970192
1.005102357
0.9986701824
0.9990630074
1.000672446
1.001859734
1.002303193
1.002227321
0.9997731901
0.995977599
0.99430942
0.9940733094
0.9942724163
0.9962682429
0.9992985266
1.002306838
1.004851128
1.004652489
0.9965768748
0.997568712
0.9995355196
1.001470383
1.002676865
1.003413299
1.003357335
1.000760593
0.9969881164
0.9944262658
0.9943471819
0.9949241919
0.9966698255
0.99893859
1.000762933
1.000440749
0.9951433414
0.9965303743
0.998502008
1.00104864
1.002393564
1.003325452
1.003807221
1.003939851
1.002990856
0.9997269123
0.9956356157
0.9947728616
0.9954500749
0.9958960249
0.9959201414
0.9953786647
0.9945317983
0.9960181998
0.9979931447
1.000011414
1.001404212
1.002417529
1.003612572
1.00490297
1.005628417
1.00543204
1.002361186
0.9966756097
0.9948333165
0.9933984024
0.9916292259
0.9910641103
0.9969085981
0.9967189739
0.9977982662
0.9989338313
0.9997586986
1.001209828
1.002789268
1.005742545
1.007346775
1.007979324
1.007280901
1.003623457
0.9943703192
0.990000904
0.9890277366
0.9896413984
1.000784238
1.001012246
1.0002051
0.9986321678
0.998600084
0.9987227999
0.9998613426
1.002191321
1.004130899
1.007224983
1.008170876
1.007580957
1.00507402
0.9999859944
0.9914666801
0.9880491183
0.989044841
1.002856133
1.003176873
1.003080097
1.00150576
0.998834633
0.9985572865
0.9987248667
1.000021755
1.0023458
1.004540558
1.006086443
1.0059525
1.004212526
1.001137697
0.997129389
0.992164223
0.9907653684
1.004046402
1.004074361
1.003899965
1.003449416
1.001349594
0.9988511196
0.9983649293
0.9989063768
1.000063145
1.000906089
1.001508762
1.001389042
1.00095489
1.000801126
1.000573543
0.9994922163
0.9980715928
1.003182041
1.003362349
1.003545495
1.003506861
1.003186652
1.001323178
0.9984091538
0.9979824766
0.9976879943
0.9972276415
0.9968169778
0.9968790252
0.9979375258
0.9995386472
1.001781514
1.003449212
1.004222781
1.001134887
1.001224731
1.001665412
1.002560331
1.002875391
1.00260331
1.000157223
0.9965657406
0.9948276718
0.993362191
0.9928148737
0.9934108973
0.9956735793
0.9986203433
1.002528831
1.005395874
1.005084677
0.998597439
0.9986302124
0.9992469927
1.000193923
1.001567908
1.0018358
1.001038958
0.9965685056
0.992971121
0.9917380018
0.9912231292
0.9919487082
0.9940568407
0.9990711734
1.00337261
1.004385652
1.004064221
)
;

boundaryField
{
    inlet
    {
        type            fixedValue;
        value           nonuniform 0();
    }
    outlet
    {
        type            zeroGradient;
    }
    bottom
    {
        type            slip;
    }
    top
    {
        type            slip;
    }
    obstacle
    {
        type            zeroGradient;
    }
    defaultFaces
    {
        type            empty;
    }
    procBoundary11to5
    {
        type            processor;
        value           nonuniform List<scalar> 
17
(
0.9929413916
0.9951634757
0.9978934213
0.9994287979
0.9996905539
0.6206999056
0.6335447671
0.6751314589
0.770092363
0.8793584659
0.9584495122
0.9750527152
0.9903164163
0.9988513094
0.9981724757
0.9964539792
0.9964539792
)
;
    }
    procBoundary11to10
    {
        type            processor;
        value           nonuniform List<scalar> 
34
(
0.6205879895
0.6851657247
0.8453899474
0.9262631118
0.9785541825
0.9928475918
0.9924118762
0.9933083007
0.9950102541
0.9959794129
0.9959614537
0.9965100647
0.9977337303
0.9985682548
0.9988967886
0.9976061499
0.997906512
0.9981109414
0.9993689709
1.00085047
1.00181069
1.002237884
1.000409876
0.9990094474
0.9971093571
0.9946282172
0.9938633045
0.9966405807
0.9966405807
1.000381742
1.002073994
1.003166446
1.003018158
1.001245203
)
;
    }
    procBoundary11to16
    {
        type            processor;
        value           uniform 0.9992005055;
    }
    procBoundary11to17
    {
        type            processor;
        value           nonuniform List<scalar> 
17
(
0.9967729606
0.9968438708
0.9974373755
0.9983300294
0.9992553367
1.000112943
1.000124526
0.9982873935
0.9939935822
0.9911495408
0.990658164
0.9914333428
0.9940948575
0.9967686111
0.9995604388
1.001027078
1.000903466
)
;
    }
}


// ************************************************************************* //
