/*--------------------------------*- C++ -*----------------------------------*\
  =========                 |
  \\      /  F ield         | OpenFOAM: The Open Source CFD Toolbox
   \\    /   O peration     | Website:  https://openfoam.org
    \\  /    A nd           | Version:  7
     \\/     M anipulation  |
\*---------------------------------------------------------------------------*/
FoamFile
{
    version     2.0;
    format      ascii;
    class       volScalarField;
    location    "4";
    object      rho;
}
// * * * * * * * * * * * * * * * * * * * * * * * * * * * * * * * * * * * * * //

dimensions      [1 -3 0 0 0 0 0];

internalField   nonuniform List<scalar> 
2222
(
1.213589438
1.214008547
1.215038786
1.215812063
1.215789006
1.214728555
1.212551836
1.211135047
1.212237335
1.214449057
1.21529035
1.214624847
1.211769955
1.242983809
1.238078764
1.234242205
1.232283176
1.232240657
1.233517966
1.234318375
1.234265029
1.233305489
1.232541061
1.231398557
1.23031601
1.230032301
1.230288783
1.230608492
1.230339785
1.228747019
1.226721435
1.224293881
1.223002299
1.22296382
1.223971551
1.225404853
1.226721697
1.227728787
1.228187484
1.227297873
1.225648913
1.224209229
1.224031801
1.224343779
1.224431198
1.223997738
1.22324213
1.221411704
1.220871907
1.221695034
1.222540708
1.222098054
1.266882691
1.261434491
1.258455108
1.257439615
1.257679939
1.258120433
1.257066046
1.255383802
1.254495498
1.253750374
1.253068232
1.252278305
1.251488684
1.250355891
1.249029483
1.247603273
1.246180302
1.244531701
1.24275719
1.241109431
1.240333627
1.240753216
1.242059912
1.243347396
1.244047166
1.243930101
1.242942841
1.241045548
1.238994572
1.237539873
1.236997875
1.237096124
1.237166106
1.236172912
1.23401836
1.23242024
1.23265959
1.233418937
1.233556563
1.296617218
1.290243648
1.28587253
1.284654997
1.285266455
1.286191233
1.284824325
1.281851436
1.279241493
1.277576499
1.276822977
1.276348154
1.275826601
1.274542553
1.272514998
1.270160828
1.268078793
1.266007846
1.264258375
1.263122937
1.262564313
1.2626533
1.263081949
1.263288035
1.263072146
1.262643384
1.261781663
1.26044612
1.259059651
1.257561897
1.255953372
1.254603614
1.253782756
1.25280671
1.251217608
1.24951733
1.248429876
1.247877489
1.248279987
1.323779361
1.316198035
1.311253701
1.309931363
1.310826178
1.311152532
1.309749157
1.306187909
1.303459931
1.301781072
1.301236077
1.30121713
1.301214216
1.300641004
1.298421475
1.29483354
1.291174952
1.288032282
1.286421321
1.285826818
1.285727819
1.28594727
1.286152827
1.2862106
1.285917112
1.285307904
1.284056376
1.282300474
1.280697093
1.279189068
1.277547523
1.27579568
1.273921387
1.27204923
1.270466241
1.269424337
1.268644624
1.267444917
1.26647439
1.347273103
1.34133659
1.337430613
1.334427682
1.333764206
1.332983508
1.331585178
1.32923623
1.328729751
1.328188859
1.327730556
1.326827738
1.325578975
1.323392273
1.32015609
1.31667021
1.313834956
1.312041355
1.311332548
1.310852161
1.310114953
1.30954732
1.309308175
1.309177153
1.308879172
1.308145783
1.306658478
1.304607536
1.30268035
1.301109569
1.299750848
1.298353721
1.296648863
1.294656976
1.29242706
1.290499768
1.289453919
1.288524088
1.287557232
1.364332873
1.361147854
1.356676032
1.354252539
1.353829963
1.354376854
1.353868961
1.351727339
1.349498198
1.347157934
1.345581968
1.34413522
1.342564715
1.340534457
1.338832455
1.338263263
1.337703251
1.336027096
1.333887182
1.331978672
1.330322172
1.329249034
1.328825035
1.328694371
1.3284875
1.328003854
1.327352
1.326460683
1.325441272
1.324026932
1.322147124
1.319964645
1.317738726
1.315603191
1.313281312
1.31118307
1.310288431
1.309771637
1.30932044
1.370028827
1.365223921
1.364264192
1.365348417
1.366648863
1.365705876
1.362280391
1.359033479
1.357248194
1.357227951
1.357407897
1.357531448
1.358341103
1.358853567
1.357212334
1.353573992
1.350003982
1.347563919
1.346166469
1.345271108
1.344952158
1.345347439
1.346126849
1.347032649
1.347923772
1.348143024
1.346731983
1.344188488
1.341435288
1.338905681
1.336890511
1.335199948
1.333923706
1.332843333
1.331999535
1.331407349
1.330474466
1.329251319
1.376280579
1.372378321
1.371476073
1.371986998
1.372024903
1.370876161
1.367859741
1.366315823
1.366996749
1.369934308
1.372476032
1.373644051
1.372918458
1.369838025
1.365161338
1.361423793
1.359465732
1.359028499
1.359825787
1.360696788
1.361674376
1.363110089
1.364310327
1.36463614
1.36395498
1.361668599
1.358456471
1.355421504
1.353385102
1.352206177
1.351798527
1.352125907
1.352175386
1.351359274
1.34968058
1.347536748
1.345760411
1.344594883
1.384805054
1.3824396
1.380586339
1.378568191
1.377274027
1.376779282
1.375407665
1.376213976
1.378188449
1.37974604
1.379780404
1.379429365
1.376977033
1.373154396
1.370270486
1.36936252
1.370762277
1.372529328
1.372922685
1.372797723
1.372710245
1.372759797
1.372958879
1.371749164
1.370107176
1.368219533
1.36631005
1.365293945
1.365491264
1.366658122
1.367034955
1.366263309
1.364470404
1.362225855
1.360223886
1.358685118
1.358119792
1.358674539
1.388914508
1.386250656
1.384130229
1.383867923
1.383960154
1.384195944
1.382668869
1.381273978
1.380316336
1.38120282
1.381367597
1.379764284
1.378108624
1.376541505
1.377078644
1.378753036
1.37841253
1.377572418
1.377195598
1.376524249
1.375997782
1.375673902
1.375044021
1.374672597
1.374249691
1.374235755
1.375045629
1.376196179
1.376169569
1.374602888
1.373462402
1.37157271
1.369926736
1.368960396
1.368688251
1.369365756
1.370914044
1.370790937
1.38936411
1.386417179
1.384291706
1.384466647
1.385233109
1.385255132
1.383346824
1.381571607
1.380579039
1.380356385
1.380503674
1.380460328
1.380898347
1.382737352
1.383135585
1.381365658
1.380042695
1.378221722
1.377483905
1.377188471
1.377032272
1.377024349
1.377269815
1.378329664
1.380346695
1.382506845
1.382880554
1.381047396
1.379260776
1.37736558
1.375177327
1.37440392
1.374387435
1.375706972
1.377651656
1.378126268
1.377249928
1.375820316
1.389031427
1.385373869
1.383415958
1.38401963
1.385343668
1.385372813
1.383165539
1.380242518
1.378968711
1.380000821
1.381588329
1.384124165
1.386115353
1.385710713
1.383733094
1.38168061
1.37948217
1.378786606
1.378801407
1.379092797
1.379340776
1.380015544
1.382005566
1.384717886
1.386192759
1.385695256
1.384116492
1.38224871
1.379354961
1.377612757
1.376899558
1.377947439
1.380395209
1.382243798
1.381929993
1.381209391
1.379347367
1.377876987
1.385703578
1.383732956
1.384153648
1.384367157
1.384067957
1.381817224
1.379905858
1.379557788
1.381987244
1.385715353
1.387190643
1.387120978
1.385812705
1.383164107
1.380912948
1.380122057
1.381205049
1.382885141
1.383718313
1.384276529
1.385159141
1.386400625
1.386947254
1.386793068
1.386079295
1.383965141
1.381495072
1.379814693
1.379311848
1.380785075
1.383011337
1.383777519
1.383471286
1.383140345
1.381737992
1.380570525
1.380234288
1.388642912
1.386556172
1.385234561
1.384691732
1.38447851
1.382538074
1.381484336
1.382736182
1.385200193
1.386804384
1.387358623
1.387184053
1.384999923
1.382925346
1.381987288
1.383280834
1.38445092
1.38499452
1.385194868
1.385576084
1.38605847
1.38675336
1.387088867
1.386757567
1.385154398
1.383610725
1.382194041
1.382258998
1.383540193
1.384064744
1.383928279
1.384035602
1.383552795
1.382746293
1.382484099
1.382653618
1.384187396
1.38428347
1.392925972
1.390747122
1.387948952
1.386511473
1.386953895
1.385866662
1.384965379
1.384119572
1.38544074
1.386936767
1.387274289
1.386168968
1.384855546
1.384123392
1.385100104
1.385139006
1.384732919
1.385107291
1.385322994
1.385741985
1.386228923
1.386632055
1.386429551
1.385835322
1.385288386
1.3848978
1.385655184
1.385931829
1.385026787
1.384281166
1.384009548
1.383385405
1.383117613
1.383333848
1.385002307
1.386066869
1.38566207
1.384942912
1.39386518
1.391559249
1.389888859
1.389891638
1.389955835
1.388166171
1.385646842
1.384319862
1.38525272
1.386226849
1.386214876
1.386237513
1.386108883
1.387001549
1.386265457
1.385304731
1.384710423
1.384702414
1.384725165
1.385122438
1.385405503
1.385696363
1.386060664
1.386365072
1.387287853
1.388546811
1.387978132
1.386481033
1.385212854
1.384076527
1.383132108
1.383319653
1.383849244
1.386029902
1.387468879
1.38689351
1.386053428
1.384710534
1.394292575
1.391936197
1.390244242
1.390636331
1.390537691
1.388548197
1.385769839
1.383610732
1.384088675
1.385413465
1.386428256
1.387623527
1.388807399
1.387905342
1.386603254
1.384917604
1.384122814
1.384517299
1.384979852
1.385395134
1.385677632
1.386078151
1.387076854
1.38893312
1.390172456
1.389611996
1.38825508
1.386608432
1.384580159
1.383648467
1.383315341
1.384321964
1.38667122
1.387859165
1.387642319
1.387082652
1.38606058
1.385088424
1.393670233
1.391237808
1.390327743
1.390823829
1.390634087
1.388382051
1.384749013
1.383357704
1.384092575
1.385918903
1.388268058
1.389822946
1.389577346
1.388323573
1.38599928
1.384770051
1.384676644
1.385339803
1.386129597
1.386549788
1.386988542
1.388029539
1.389810058
1.390656527
1.390713568
1.389961012
1.388017043
1.385807139
1.384760752
1.38429401
1.384962686
1.387150152
1.388059704
1.388066921
1.387574119
1.386884421
1.386441076
1.386396271
1.393546778
1.391378736
1.390453724
1.390345385
1.389739172
1.387567421
1.384762956
1.384335874
1.385443741
1.388289703
1.390037486
1.390424642
1.390005226
1.38780828
1.386154811
1.385788729
1.386343909
1.387259126
1.387792566
1.38815315
1.388836917
1.389790835
1.390671053
1.391077259
1.390784993
1.389350232
1.387298638
1.386215186
1.385894091
1.386582228
1.38750945
1.388077257
1.388325315
1.38801791
1.3874452
1.387482172
1.388199244
1.388870595
1.392410381
1.39121351
1.390433778
1.389922948
1.388226863
1.386180082
1.386207234
1.387194698
1.389481788
1.390493158
1.390620993
1.389647408
1.388276423
1.387580334
1.387905636
1.387986769
1.388163523
1.388343109
1.388669857
1.389376334
1.390202293
1.390706875
1.390783965
1.389922918
1.388847674
1.387842609
1.387809438
1.388286761
1.388302862
1.388110671
1.388448714
1.388250928
1.38794243
1.38807151
1.389336076
1.390189431
1.389603029
1.394867436
1.393007524
1.391165107
1.391234018
1.390284574
1.388196518
1.386909928
1.387355707
1.389208606
1.390015541
1.390128429
1.389898869
1.389656852
1.389708494
1.388990967
1.388546788
1.38874441
1.388774672
1.388889921
1.389314958
1.38974794
1.389995324
1.3899409
1.389842713
1.389546387
1.389740993
1.389792662
1.389132706
1.388729077
1.388408454
1.388091598
1.38813925
1.388596189
1.389862855
1.390752444
1.390606621
1.389961776
1.395678115
1.393765051
1.39299113
1.392609836
1.391391021
1.388921044
1.386759578
1.386485362
1.387823231
1.389269232
1.390496059
1.391114435
1.391130561
1.390559536
1.389614343
1.388754808
1.388583639
1.388392578
1.388483674
1.388639478
1.388833111
1.389523377
1.390261947
1.390793364
1.391714195
1.391397402
1.390399044
1.389316275
1.388567386
1.387833649
1.388003061
1.388638157
1.390202503
1.391044642
1.391198859
1.390653326
1.389598996
1.395854133
1.394365339
1.393742845
1.393203613
1.391656933
1.388395251
1.385625966
1.385672595
1.387439848
1.389693976
1.391074508
1.391794245
1.391661869
1.390711393
1.389103335
1.388430317
1.388484562
1.388518689
1.388569426
1.388747661
1.389171574
1.390092055
1.39148724
1.392724964
1.392811424
1.391749048
1.390180698
1.388636485
1.387845117
1.387884804
1.388420079
1.390018356
1.391016808
1.391353027
1.391050997
1.39018674
1.389832201
1.395180134
1.394103985
1.393660895
1.392813378
1.390846721
1.387072032
1.385659528
1.386251203
1.388307288
1.390566643
1.391679685
1.39175831
1.39117424
1.389773512
1.388843731
1.388925632
1.389286971
1.389536425
1.389354315
1.389487167
1.390249701
1.391607863
1.392726632
1.393283666
1.392922353
1.391217453
1.389191198
1.388338385
1.388160476
1.388435944
1.389718318
1.390470449
1.391026854
1.39096412
1.390612953
1.390465672
1.390634024
1.394508277
1.393437264
1.392990561
1.392150808
1.390654853
1.387428103
1.386815024
1.387291195
1.389250764
1.39097511
1.391369279
1.391080641
1.390328201
1.389531211
1.389308276
1.389462048
1.389860256
1.390187794
1.390153167
1.390249327
1.391058914
1.392423845
1.39307009
1.393007461
1.392034554
1.390495635
1.389526064
1.388997666
1.389163963
1.389579844
1.390285438
1.390585671
1.390495837
1.390506795
1.390971296
1.391355966
1.391583226
1.393599194
1.3933974
1.392942402
1.391904027
1.38899755
1.3879732
1.387923083
1.389395198
1.390205972
1.390415595
1.390709525
1.390556898
1.390301239
1.390123499
1.390138927
1.390403602
1.390514819
1.390526781
1.390907555
1.391647303
1.392283623
1.392301304
1.391859885
1.391535156
1.390850637
1.390533125
1.390270837
1.390203774
1.390230496
1.390169772
1.3900035
1.390290716
1.390954276
1.391995303
1.392152091
1.392068279
1.391258948
1.394783342
1.394635715
1.394365952
1.39325537
1.390276801
1.388420828
1.38726276
1.388045946
1.388941377
1.390518612
1.391237547
1.391263573
1.39106093
1.390524482
1.390017198
1.390060785
1.390057785
1.390203617
1.390621529
1.390937596
1.391045559
1.391395144
1.391920482
1.392281855
1.391897126
1.391541375
1.391112465
1.390552957
1.389886194
1.389378048
1.389710785
1.390771519
1.391993456
1.392692923
1.392559886
1.391867872
1.390712683
1.395733139
1.395477049
1.39511565
1.393722307
1.39046236
1.38754459
1.386010661
1.387042387
1.389463877
1.39127485
1.391831589
1.391627349
1.391004592
1.389962616
1.389230454
1.389325442
1.389580244
1.389737358
1.389904685
1.389986139
1.390743369
1.391962416
1.392829091
1.393239858
1.392859238
1.392197652
1.391029057
1.389878063
1.389116391
1.389332324
1.390319972
1.391605343
1.392689576
1.392951083
1.39239846
1.391456048
1.390995569
1.395701615
1.395216123
1.39481821
1.393285866
1.389589028
1.386574203
1.38629248
1.387806605
1.390414361
1.391623811
1.391562862
1.390963052
1.390132142
1.3894889
1.389466809
1.389769772
1.39006675
1.389988376
1.389965051
1.390354515
1.391593761
1.392883023
1.393604427
1.393689466
1.393023674
1.391660894
1.390036188
1.389402451
1.389412141
1.390180546
1.391284902
1.392332156
1.392767523
1.392482076
1.392188337
1.391943694
1.391851309
1.394620667
1.394341404
1.394323098
1.393332796
1.389615174
1.387374429
1.387367901
1.388796271
1.390722947
1.391027816
1.390635791
1.390433896
1.390182527
1.390042512
1.390217148
1.390498175
1.390665687
1.390497256
1.390504019
1.391134667
1.392422396
1.39328799
1.393483534
1.393158173
1.392131815
1.390742942
1.390068033
1.390021623
1.390369315
1.391045577
1.39185007
1.392252125
1.392123969
1.39224361
1.392853365
1.393017973
1.392712756
1.39431983
1.394513771
1.394928491
1.394276943
1.390652698
1.388588683
1.388139125
1.389068798
1.389928462
1.39009082
1.390636167
1.390904337
1.390795935
1.390674805
1.390627655
1.390744209
1.390718889
1.3907023
1.390899675
1.391572298
1.392368652
1.392594891
1.39246244
1.392503199
1.391936727
1.391145627
1.390872525
1.390903713
1.391047385
1.391344691
1.391548716
1.391509164
1.392086908
1.392957135
1.39376951
1.393732235
1.393270098
1.3948693
1.395204243
1.395910775
1.395434716
1.391976227
1.389733001
1.388215612
1.388258109
1.389017905
1.390408074
1.391281124
1.391437997
1.39118951
1.390749525
1.390402723
1.390383484
1.39018834
1.390399448
1.390746399
1.391155978
1.391329236
1.391690628
1.392425816
1.393059545
1.392686326
1.392118135
1.391632618
1.391320765
1.39095773
1.390792071
1.390805106
1.391607917
1.392846954
1.393691411
1.394282441
1.393893747
1.393001847
1.395786001
1.396485325
1.395983586
1.392789321
1.39000462
1.387440632
1.387636868
1.389274
1.391078816
1.391730079
1.391542804
1.390917838
1.390221618
1.389977537
1.39004586
1.390129375
1.39006055
1.390164538
1.390345417
1.390956784
1.391933303
1.393113119
1.393739746
1.393452871
1.392703572
1.391763801
1.390966167
1.390209271
1.390228503
1.390930779
1.392325553
1.39352275
1.393880474
1.394019522
1.393341965
1.392498146
1.395738166
1.396455358
1.395989224
1.393033359
1.389534063
1.387275353
1.387938098
1.390004985
1.391425549
1.3916159
1.391087385
1.390517573
1.390307873
1.390350883
1.390503424
1.390604617
1.390335543
1.390258793
1.390496421
1.391287173
1.392621012
1.393649382
1.39395665
1.393682538
1.392624327
1.391183886
1.390371568
1.390240064
1.390445807
1.391573812
1.392914658
1.393603233
1.393349454
1.393190989
1.393045181
1.392803019
1.394875028
1.395918197
1.395714052
1.392999019
1.389523175
1.38782153
1.388590209
1.390499647
1.391292712
1.391083854
1.390909717
1.390728305
1.390706781
1.3908947
1.391115155
1.391209115
1.390868047
1.390747588
1.390970667
1.391853191
1.392959392
1.393579188
1.393623558
1.393326104
1.392053765
1.391001104
1.390630693
1.39068275
1.391156444
1.392052652
1.392903345
1.392960566
1.392739286
1.393183659
1.393349155
1.393337608
1.394106019
1.395940727
1.395995092
1.393426507
1.390072459
1.388631671
1.38903671
1.390490539
1.390835249
1.391106489
1.391171601
1.391128535
1.391061975
1.391210613
1.391438468
1.391484898
1.391194202
1.391107898
1.391325072
1.392061789
1.392663092
1.392973234
1.393305977
1.393202687
1.392194757
1.391358146
1.39115345
1.391210194
1.391519802
1.392026488
1.392224259
1.39245148
1.39297888
1.3938096
1.393851191
1.393643634
1.394156206
1.396158697
1.396385018
1.393978355
1.390929487
1.389629173
1.388957466
1.390002088
1.390886785
1.391342123
1.391553122
1.391360156
1.391162239
1.391286312
1.39145917
1.391381046
1.391220386
1.391163979
1.391320991
1.391681619
1.392025405
1.392875474
1.393468308
1.393438787
1.392519398
1.391930887
1.391573792
1.391429267
1.391355696
1.39147762
1.391917244
1.392710793
1.393605526
1.39424665
1.394081223
1.393521511
1.394415408
1.396388732
1.396508351
1.394315945
1.391868706
1.389815158
1.388639813
1.389959438
1.391124807
1.391690605
1.391719738
1.391365391
1.390966557
1.391025073
1.391119504
1.391020576
1.390978214
1.390914593
1.390912018
1.391207031
1.392095464
1.393055585
1.393805207
1.393781042
1.39297263
1.392226701
1.391689922
1.391192035
1.390989719
1.391462798
1.392276321
1.393263437
1.39393541
1.39420954
1.393835698
1.39301966
1.396328548
1.396534084
1.394486304
1.392024017
1.389407556
1.38871948
1.390197486
1.391532921
1.391905293
1.391652387
1.39103933
1.390847734
1.391016177
1.391177791
1.391141304
1.390970549
1.390800074
1.390858507
1.391357438
1.392327131
1.393424441
1.39396014
1.393941038
1.393142996
1.392227198
1.391428531
1.39105545
1.3912149
1.391863678
1.392825396
1.393607238
1.393841899
1.393875361
1.393645456
1.393183302
1.396026472
1.396539913
1.394686431
1.392016015
1.389324955
1.388912399
1.390576211
1.391729065
1.391795072
1.391401916
1.391109315
1.391097707
1.391353756
1.391503805
1.391447094
1.391200963
1.390993759
1.391096605
1.391617721
1.392669952
1.393520401
1.393818646
1.393835747
1.393035122
1.391981351
1.391465173
1.391350777
1.391624785
1.392375026
1.39318789
1.393565016
1.393543732
1.39392305
1.394014419
1.393592413
1.393305569
1.395806076
1.396598042
1.395023863
1.392092455
1.389433945
1.389183296
1.390837335
1.391741443
1.391816934
1.39166143
1.391380702
1.391449707
1.391761944
1.39196111
1.391964127
1.391511755
1.391284005
1.39143119
1.391935883
1.392738035
1.393246915
1.393616038
1.393737292
1.39298388
1.392118106
1.39182803
1.391833975
1.391942286
1.392594528
1.393134336
1.393282248
1.393665521
1.394209746
1.394551655
1.394157868
1.393601327
1.39567007
1.396855621
1.395346362
1.392306709
1.390377112
1.389416432
1.390927651
1.391734481
1.391896419
1.391939618
1.391612309
1.391611994
1.391853459
1.392092836
1.392228302
1.391942628
1.391558653
1.391635831
1.392024291
1.392466922
1.393004191
1.393682526
1.393861757
1.393182917
1.392495419
1.392276053
1.392080401
1.391993611
1.392453334
1.392774933
1.393358723
1.393984837
1.394574466
1.394809961
1.394388925
1.39371275
1.395621456
1.397343624
1.395882281
1.393003969
1.39145357
1.389641825
1.3908889
1.391666799
1.392056198
1.392101117
1.39156311
1.391474283
1.391704469
1.39206119
1.392233097
1.392110299
1.391683781
1.391605951
1.391793058
1.392251014
1.393043659
1.393809287
1.394028623
1.393483644
1.3928919
1.392440071
1.392124242
1.391831099
1.392188027
1.392799262
1.393563247
1.39443304
1.394716421
1.39479771
1.394393288
1.39372438
1.395836316
1.397560609
1.396063168
1.393487515
1.391635058
1.389558005
1.390788328
1.391839434
1.392216294
1.391996779
1.391316403
1.39114172
1.391419513
1.391797274
1.392061294
1.392008192
1.391555876
1.391372779
1.391578855
1.3922606
1.393124631
1.393837389
1.394070702
1.393606982
1.392976389
1.392485799
1.391980588
1.39180711
1.392208543
1.392873353
1.39392904
1.394640128
1.394716386
1.394722911
1.394345391
1.39385344
1.395334518
1.39740028
1.396053341
1.393488183
1.391538112
1.38942312
1.390790403
1.39219859
1.392364127
1.391856955
1.391039249
1.390963819
1.391241992
1.391651314
1.39189666
1.391815476
1.39145849
1.391366312
1.39152677
1.392328308
1.393218468
1.393723701
1.393953832
1.393546456
1.392923337
1.392387298
1.39198912
1.391836591
1.392287817
1.393173374
1.393966892
1.394671566
1.394691938
1.394773586
1.394414409
1.394083643
1.397066304
1.396033306
1.393433325
1.391457663
1.389510843
1.391177502
1.39247689
1.392492388
1.3918625
1.390900832
1.39082151
1.391105823
1.391556204
1.391878144
1.391768453
1.391477731
1.391530126
1.391733068
1.392472983
1.393131274
1.39353017
1.393760476
1.393407836
1.392782081
1.392412618
1.392162589
1.392098993
1.392526304
1.393260187
1.393890749
1.394646097
1.39479411
1.394900884
1.394647145
1.394362975
1.396813409
1.396099021
1.393407084
1.391465609
1.389852522
1.391837697
1.39256287
1.392480579
1.391949455
1.390936576
1.390789981
1.391037343
1.391549496
1.392008291
1.392095254
1.391734813
1.391811951
1.392037491
1.392461311
1.392937614
1.393407901
1.393660765
1.393343655
1.392824849
1.392511417
1.392403773
1.392295905
1.392541346
1.393166007
1.393742651
1.394661744
1.395116774
1.39517434
1.394923539
1.394435337
1.396839382
1.396520155
1.393546887
1.391930882
1.39073822
1.392271984
1.392653244
1.392497733
1.392075279
1.390965422
1.390740883
1.391008046
1.391711083
1.392572489
1.392547627
1.391972856
1.391869587
1.39212081
1.392403543
1.392821964
1.393297119
1.393576196
1.393394443
1.393032343
1.392750499
1.392475942
1.392296449
1.392441468
1.393057269
1.393735272
1.394816887
1.3953557
1.395264121
1.394995401
1.394418726
1.397146848
1.396970194
1.393895978
1.392653907
1.391104233
1.392247034
1.39258124
1.392448816
1.392080656
1.390902776
1.390665454
1.390979561
1.391919118
1.392952152
1.392724724
1.392024077
1.391846773
1.392028928
1.392360563
1.392787446
1.393305405
1.393653085
1.39363031
1.393337103
1.392850091
1.392528601
1.392295267
1.392398236
1.39297649
1.393936204
1.394990153
1.395274656
1.395214654
1.394922393
1.394427707
1.397251049
1.396965118
1.393942826
1.392805515
1.390840621
1.391950083
1.392465387
1.392421883
1.392111804
1.390887328
1.390684106
1.391082148
1.391999507
1.392833816
1.392714237
1.392020198
1.391819796
1.391915965
1.392416881
1.392927446
1.39342934
1.393774411
1.393854176
1.393430136
1.392939231
1.392724581
1.392519004
1.392521236
1.393117332
1.394205938
1.395142113
1.394998364
1.395072104
1.394837661
1.394405401
1.396987572
1.396832072
1.393850482
1.392618885
1.3906314
1.391672995
1.392607982
1.392602288
1.392397436
1.391130765
1.390891222
1.391228809
1.3919238
1.392587817
1.392603748
1.391950957
1.391822049
1.392033266
1.392619114
1.393140922
1.393515797
1.393766045
1.39390168
1.393517443
1.392897445
1.392853388
1.392756883
1.392754111
1.393289664
1.394120408
1.39506934
1.394872797
1.394990111
1.394827544
1.394428741
1.396559327
1.396906788
1.393893034
1.392445192
1.390619398
1.391652965
1.392825344
1.392939947
1.392824777
1.391644204
1.391067557
1.391182737
1.391693618
1.392257783
1.392513311
1.392009811
1.39206832
1.392293252
1.392729149
1.393115104
1.39340765
1.393645092
1.393848167
1.393585851
1.392882736
1.392946999
1.392942307
1.392823867
1.393239907
1.393852937
1.394785268
1.394846477
1.395023403
1.394901626
1.394449125
1.397273725
1.3941672
1.392583593
1.390890105
1.39228379
1.393558201
1.393593009
1.393290075
1.392076571
1.391020599
1.390944392
1.391392755
1.392083049
1.392762986
1.392354712
1.392272311
1.392348478
1.392627116
1.392966843
1.393240854
1.393536988
1.393797393
1.393622349
1.393018112
1.392992929
1.392781211
1.392619295
1.393000999
1.393643222
1.394608552
1.394951499
1.395085522
1.394926574
1.394414961
1.397621349
1.394380969
1.392798394
1.391660334
1.393136696
1.394086528
1.393943053
1.3934535
1.391981424
1.39077376
1.390691125
1.391195985
1.392138901
1.393030104
1.392447469
1.392196599
1.392315333
1.392529688
1.39286649
1.393167875
1.393531722
1.393799002
1.393661588
1.393069191
1.392832434
1.392483639
1.392357659
1.392760412
1.393502963
1.394682375
1.394874686
1.394978423
1.394902729
1.394362324
1.393715802
1.397741879
1.394436504
1.392847912
1.391884734
1.393338233
1.394210293
1.39403125
1.393392709
1.391693706
1.390520723
1.390551668
1.391188188
1.392353477
1.393077184
1.392453692
1.392111386
1.392282456
1.392567747
1.392941709
1.393218221
1.393597013
1.393805049
1.393630741
1.392933862
1.39259065
1.392310085
1.392202516
1.392599298
1.393461744
1.394648351
1.394621744
1.394766662
1.394820362
1.394342252
1.393805917
1.397644096
1.394311762
1.392788345
1.391801145
1.393258672
1.394263471
1.394156935
1.393520798
1.391660011
1.390394716
1.390522982
1.391343194
1.392363801
1.392941548
1.392497453
1.392101505
1.392293879
1.392686625
1.393098217
1.393231752
1.393519166
1.393666938
1.393495288
1.392735188
1.392456938
1.392305213
1.392192359
1.392534754
1.393400936
1.394332968
1.394343427
1.394606302
1.394764976
1.394398375
1.394024518
1.397587647
1.394263456
1.39277147
1.391704771
1.393067972
1.394182709
1.394050604
1.393513224
1.391849004
1.39047012
1.390616149
1.391412403
1.392154797
1.392714235
1.392550013
1.392168683
1.392408427
1.39274268
1.393034138
1.393036286
1.393290196
1.393428692
1.393335183
1.392678845
1.392575273
1.392431659
1.39223297
1.392456964
1.393148027
1.393940863
1.394133061
1.394561534
1.394809031
1.394470762
1.394070961
1.397770724
1.394541512
1.392847496
1.391654556
1.392868142
1.394058359
1.393945519
1.393553067
1.392164515
1.39081629
1.390699633
1.391223876
1.391860035
1.392515271
1.392778652
1.392230527
1.392376266
1.392597442
1.392797984
1.392783092
1.393031762
1.39324448
1.393239556
1.392807095
1.392738797
1.392399263
1.39211364
1.392234059
1.392894452
1.393696134
1.394109238
1.394610981
1.394784503
1.394409824
1.393993916
1.397889973
1.394759241
1.392834494
1.391775073
1.392733136
1.394238843
1.394252796
1.393888853
1.392908567
1.391263978
1.390656764
1.390954747
1.391553638
1.392475756
1.392800313
1.39220074
1.39233171
1.392437961
1.392611277
1.39260935
1.392839186
1.393169565
1.393301764
1.393119606
1.392875445
1.392403945
1.392064678
1.39209081
1.392751474
1.393611463
1.394142216
1.394499898
1.39462029
1.39427659
1.393927266
1.397892944
1.394794573
1.392730885
1.391624241
1.392605757
1.394488881
1.394661795
1.394445241
1.393496504
1.391322928
1.390565797
1.390792776
1.391429571
1.392669838
1.392739678
1.392243162
1.39233031
1.392391896
1.39252925
1.392533486
1.39282028
1.393159361
1.393382657
1.393191565
1.392875475
1.392558803
1.392285213
1.39218551
1.392813968
1.393728215
1.394037459
1.394251383
1.394465769
1.3941587
1.393992066
1.394666766
1.392605853
1.391461641
1.392561751
1.394841231
1.395137549
1.394849805
1.393451278
1.391168337
1.390503804
)
;

boundaryField
{
    inlet
    {
        type            calculated;
        value           nonuniform 0();
    }
    outlet
    {
        type            calculated;
        value           nonuniform 0();
    }
    bottom
    {
        type            calculated;
        value           nonuniform 0();
    }
    top
    {
        type            calculated;
        value           nonuniform 0();
    }
    obstacle
    {
        type            calculated;
        value           nonuniform 0();
    }
    defaultFaces
    {
        type            empty;
    }
    procBoundary22to15
    {
        type            processor;
        value           uniform 1.246579924;
    }
    procBoundary22to16
    {
        type            processor;
        value           nonuniform List<scalar> 
40
(
1.20826527
1.209699285
1.21026779
1.209874446
1.207795743
1.205235966
1.20524482
1.206826416
1.209581558
1.210797803
1.20974771
1.206985681
1.207578311
1.223047969
1.219934917
1.216356724
1.214774514
1.21505308
1.216888419
1.218061449
1.217788528
1.215803
1.213264567
1.212121811
1.213079831
1.215149009
1.216522203
1.216567683
1.215009217
1.211846959
1.209189855
1.209208965
1.210937842
1.212549812
1.213571788
1.214200941
1.214346119
1.213960869
1.213536274
1.213536274
)
;
    }
    procBoundary22to17
    {
        type            processor;
        value           uniform 1.211814906;
    }
    procBoundary22to21
    {
        type            processor;
        value           nonuniform List<scalar> 
70
(
1.27251567
1.27251567
1.301839973
1.329565578
1.352359341
1.366523379
1.374348567
1.374348567
1.382386369
1.389630218
1.391196457
1.39095318
1.391306989
1.389554431
1.389554431
1.392166495
1.395136053
1.395964948
1.396380835
1.396042801
1.396107397
1.394561158
1.394561158
1.396584847
1.397248909
1.397563657
1.396841174
1.395992772
1.395042708
1.395042708
1.396365706
1.397208883
1.397105137
1.395983884
1.395051899
1.395343816
1.395659819
1.395659819
1.396005718
1.395644426
1.394332237
1.393921342
1.394033896
1.394465185
1.394465185
1.394200567
1.393770269
1.393563745
1.393409499
1.393460845
1.393388101
1.394508867
1.394508867
1.393747157
1.393345
1.393201613
1.393057308
1.392682775
1.391916184
1.395997077
1.395997077
1.395797518
1.39569033
1.395464389
1.394964228
1.394294427
1.393770742
1.393498476
1.397768257
1.397768257
)
;
    }
    procBoundary22to23
    {
        type            processor;
        value           nonuniform List<scalar> 
65
(
1.220493436
1.220493436
1.233462025
1.249288143
1.266917744
1.287548702
1.309479791
1.328475612
1.343968247
1.359190389
1.369590186
1.373771015
1.376975481
1.38102273
1.38102273
1.383852161
1.384035024
1.383825499
1.384474161
1.3867366
1.388180827
1.388564794
1.388609212
1.388963833
1.389865248
1.390986716
1.391384039
1.391384039
1.390475488
1.390366062
1.390881332
1.391712203
1.392342707
1.392323057