/*--------------------------------*- C++ -*----------------------------------*\
  =========                 |
  \\      /  F ield         | OpenFOAM: The Open Source CFD Toolbox
   \\    /   O peration     | Website:  https://openfoam.org
    \\  /    A nd           | Version:  7
     \\/     M anipulation  |
\*---------------------------------------------------------------------------*/
FoamFile
{
    version     2.0;
    format      ascii;
    class       volScalarField;
    location    "4";
    object      T;
}
// * * * * * * * * * * * * * * * * * * * * * * * * * * * * * * * * * * * * * //

dimensions      [0 0 0 1 0 0 0];

internalField   nonuniform List<scalar> 
2222
(
0.876286195
0.8737500852
0.8706878126
0.8681235539
0.8658653256
0.8632393173
0.9845503798
0.9757994442
0.970691779
0.9655154792
0.9560307693
0.9490982881
0.9452909795
0.9397948459
0.9313793861
0.9272901873
0.9243554777
0.9187450308
0.9129152695
0.9098668849
0.906975325
0.9016939177
0.8974900623
0.8949859815
0.8924764183
0.8881160693
0.8843420211
0.8816366631
0.8791500999
0.8756802332
0.872622153
0.8701480273
0.8676773853
0.8645947565
0.8620293757
0.8598288182
0.8572662077
0.974416683
0.9659988248
0.9612639963
0.9559571776
0.9463719642
0.9402620129
0.9367650473
0.9311566574
0.9232391228
0.9195398098
0.9166051893
0.9109323171
0.905623636
0.9027591616
0.8998645998
0.8946603798
0.8906958853
0.8882358172
0.8857033975
0.8812974279
0.877783948
0.8753154546
0.8729405027
0.8695038307
0.8664754666
0.8641145742
0.8617469324
0.8587345092
0.856391807
0.8543975343
0.8520322323
0.9646569769
0.9567780479
0.9524593121
0.9469299867
0.9373691039
0.9319356299
0.9285499517
0.9226475332
0.9151444308
0.9116704212
0.9086830345
0.903032467
0.8983062757
0.8956400039
0.8927195305
0.88751188
0.8836883011
0.8812509852
0.8787130598
0.8743728851
0.871172759
0.8689294794
0.8666555486
0.8632198378
0.8601468355
0.8578011218
0.8554846802
0.85264253
0.8504029834
0.8485548791
0.8462526605
0.9540802017
0.9470713938
0.9432420198
0.9376123222
0.9283891677
0.9236186488
0.9203139478
0.9141694287
0.9071574191
0.9039346494
0.9009469169
0.8954638931
0.8912376724
0.8886738976
0.8856758802
0.8804140879
0.8767432652
0.8743692479
0.8718689333
0.8676497258
0.8647424618
0.8626920926
0.8605286183
0.8571190901
0.854134961
0.8519273363
0.8497259511
0.8468706213
0.8447714771
0.8429783816
0.8407488101
0.9438219688
0.9377626507
0.9342165948
0.9282199616
0.9192676847
0.9150207044
0.9117689449
0.9053967993
0.898958446
0.8960327678
0.8930875364
0.8878240472
0.8840206706
0.8815465581
0.8784606135
0.8731885765
0.869743302
0.867486918
0.8650730843
0.8610220417
0.8582947514
0.8563817175
0.8542293227
0.8507570875
0.8477141444
0.8455733976
0.8434753754
0.8408875381
0.8389417179
0.8373477709
0.8352608001
0.9333707804
0.9284709412
0.9251950335
0.9189712768
0.9105698892
0.9067458019
0.9034886613
0.8969864598
0.8911521337
0.888430708
0.8854869107
0.8804390177
0.8769625156
0.8745540329
0.8714038015
0.8661809979
0.8629758339
0.8608246876
0.8584806351
0.8545448549
0.8520334531
0.8502368661
0.8482022479
0.8448304991
0.8420121363
0.8399882215
0.8379117873
0.8353300172
0.8333576222
0.8317077425
0.8294576917
0.9236356448
0.9194302344
0.9161414629
0.9094600066
0.9015733717
0.8981581932
0.894924926
0.8884762365
0.8832985361
0.8807516749
0.8777554907
0.8728624628
0.8696790728
0.8673635848
0.864198825
0.8591438273
0.8561621073
0.8541081645
0.8517942567
0.8479310795
0.8455127709
0.8438026
0.841791951
0.8384325332
0.8356240545
0.8336811641
0.8317580102
0.8291893243
0.8274959427
0.8260600862
0.8242167603
0.9140318256
0.9104251636
0.9071167094
0.9001404227
0.892976233
0.8898872834
0.8866533162
0.8803552618
0.8757147504
0.8732501372
0.8701776859
0.8654819946
0.8625718823
0.8603398172
0.8571850516
0.8522934412
0.8495255686
0.8475506976
0.8452761675
0.8414907602
0.8392861976
0.8377484697
0.8358027198
0.8324942234
0.8298393474
0.8281022429
0.8261831998
0.8238937904
0.822029327
0.8206123101
0.8186170154
0.9042942195
0.9010300991
0.8976744838
0.8905324252
0.8842062505
0.8814510224
0.8782260677
0.8721923716
0.8680285534
0.865629868
0.8624726989
0.8580158953
0.8553663176
0.8532202082
0.8500599063
0.8453163632
0.8426984285
0.8408012431
0.8385338324
0.8348036108
0.8327214185
0.8312135468
0.8294278673
0.8263114355
0.8238114257
0.8220347069
0.8201232437
0.8176495491
0.8162270474
0.8150156664
0.8131059329
0.8950713841
0.8919662207
0.8884974237
0.8813380531
0.8758194458
0.8732716144
0.8700383004
0.8642963896
0.8604937248
0.8581283831
0.8549198781
0.8507506435
0.8483086302
0.8462272498
0.8430644293
0.8384697498
0.8360949397
0.8343366261
0.8321730172
0.8287237528
0.8268350162
0.8254278727
0.8235113483
0.820269233
0.8178325856
0.8162310813
0.8145031738
0.8122976022
0.8109660013
0.8096182574
0.8076701449
0.8853934359
0.8824423704
0.8789082862
0.8719347452
0.8671632701
0.864775395
0.8614922921
0.8560613681
0.8526382981
0.8503739183
0.8471781703
0.8432942968
0.8410256712
0.8390117088
0.8358428362
0.8314009837
0.8292015968
0.8275222903
0.8254018808
0.8219740481
0.8202100494
0.8189552933
0.8172091891
0.814192601
0.8118790607
0.8106029406
0.8087771445
0.8068431354
0.8052304452
0.8035467901
0.8004711249
0.8761810847
0.8732664807
0.8696403214
0.8629428296
0.8587662508
0.8564645505
0.8531526932
0.8480847938
0.8449643493
0.8427632058
0.8395708376
0.835943713
0.8338212141
0.8318880953
0.8287582928
0.8245763831
0.8227373793
0.8212868539
0.8193204639
0.8161912373
0.8145663245
0.8132191306
0.8114623864
0.8083833265
0.8062962973
0.8046360519
0.8028535583
0.8004772948
0.7991059997
0.7973965692
0.7964770384
0.8667669952
0.8639196146
0.8602379158
0.8539032176
0.8501396786
0.8478654233
0.8445216687
0.8398779057
0.8370589548
0.8349352229
0.8317610575
0.8283757937
0.8264011333
0.8245491035
0.821489538
0.817595377
0.8158305346
0.8144062888
0.8124879348
0.8095142152
0.8079425543
0.8068096338
0.8050065093
0.8020335227
0.8003108425
0.7989240251
0.7965679457
0.7942219561
0.7940608755
0.7943674272
0.8019011459
0.8576886434
0.8548701268
0.8511394288
0.8451483312
0.8417128883
0.8394809411
0.8361746704
0.8319649593
0.8293886899
0.8273149263
0.8241109349
0.8209315495
0.819154049
0.8174416819
0.8145511509
0.8110270238
0.8096173359
0.8083266146
0.8063980158
0.8033522185
0.8020380112
0.8010328906
0.799321884
0.7966856025
0.7942195286
0.7923988109
0.7896573227
0.7899333412
0.7936313468
0.8136008588
0.880218183
0.84822746
0.845506052
0.8418102537
0.8362381863
0.8330491291
0.830851515
0.8276186249
0.823877933
0.8215057007
0.8194789902
0.8162680123
0.8133382364
0.8116931849
0.8100709156
0.8072784425
0.8040279482
0.8026269766
0.8014417976
0.7997006689
0.7969581941
0.7957347139
0.7945082559
0.7925487803
0.7892612332
0.7875563269
0.7871727037
0.7881343802
0.8008327357
0.8524893249
0.922519357
0.9698307515
0.8390848441
0.8364489905
0.8327985408
0.8275755397
0.8246011563
0.8224712723
0.8193803571
0.8160382971
0.8138636193
0.8118985149
0.8087583349
0.8061416686
0.8047091543
0.8032227128
0.8005988193
0.7977371293
0.7964653969
0.7952512472
0.793155136
0.7905963228
0.7892599044
0.7880351866
0.7851488138
0.7833570348
0.7839593757
0.791394484
0.8234793196
0.895087405
0.972555079
1.017101209
1.021182785
0.8294802776
0.8269978739
0.8234897224
0.8187071195
0.815941971
0.8139086728
0.8109724945
0.8080419002
0.8060485835
0.8041303769
0.8009827903
0.7984940567
0.797152208
0.7957133873
0.7932257669
0.7904877791
0.7895213755
0.7884536263
0.7867239781
0.7837235075
0.7825168006
0.7811819921
0.7801116998
0.7829002117
0.8035623087
0.8730760989
0.9441521519
0.995813709
1.008411941
1.027954119
1.028846881
0.820255604
0.8179159155
0.8145324522
0.8100867777
0.8075270574
0.8055793669
0.8028028031
0.8002247223
0.7984526058
0.7966861409
0.7937768062
0.7917014952
0.7905147897
0.7892519087
0.7867216342
0.784267506
0.7832412943
0.7819458037
0.7792093638
0.7762365717
0.7768354308
0.7781738561
0.7921899732
0.8463074842
0.9200048646
0.9698670119
1.010164269
1.028333467
1.024116898
1.0269077
1.028923671
0.8105146347
0.808369806
0.8051971493
0.8011879299
0.7988395344
0.7970472142
0.7944709577
0.7922101154
0.7906053262
0.7888401197
0.7859808723
0.7839091847
0.7828099983
0.7815174816
0.779268937
0.7768974533
0.7757662356
0.7744113839
0.771969966
0.7724617825
0.7818106108
0.8191371437
0.8970299239
0.9767365475
1.02049681
1.025355012
1.030358102
1.03478668
1.034362031
1.031894728
1.031586702
0.8011929799
0.7992275922
0.7962392565
0.7925687589
0.7904031902
0.7887093538
0.786250599
0.7844382685
0.783137469
0.7816178829
0.7788733287
0.7771719838
0.7762296575
0.7749960856
0.7721711968
0.7696705057
0.7689223231
0.7690895825
0.7724436783
0.7998059988
0.8763346869
0.9558673741
0.9968387671
1.011086756
1.03273835
1.033489244
1.035411224
1.036174554
1.035728008
1.034798922
1.033803617
0.7914161317
0.7896628335
0.7868995758
0.7835683206
0.7816487647
0.7800946595
0.7778576427
0.776211279
0.775055128
0.7735770328
0.7709290016
0.7693800336
0.7683404236
0.7669011129
0.7632202238
0.7632302017
0.7651849818
0.7857835958
0.8467458132
0.9276860814
0.9804814051
1.02506869
1.034852653
1.029410694
1.032123209
1.033588737
1.034350419
1.034816677
1.035184749
1.035116243
1.035085261
0.7820509393
0.7804903798
0.7778744439
0.7748085724
0.773103617
0.7718091161
0.769903979
0.7687099614
0.7677140312
0.7663032494
0.7637845696
0.762080992
0.7609195399
0.7595970584
0.760005238
0.7726123481
0.8193659505
0.9078689553
0.9873473095
1.027809277
1.030915583
1.034925085
1.039677176
1.039096501
1.037017784
1.036244351
1.035397232
1.034574258
1.034615067
1.03483454
1.035541199
0.7724089775
0.7709936754
0.7684630949
0.76568909
0.764288394
0.7630681263
0.7611191945
0.7601429898
0.75928735
0.7578261852
0.7547327761
0.7539246375
0.7545771356
0.7601019335
0.8004576526
0.8873006848
0.9714853075
1.000673487
1.017864368
1.038408105
1.037789235
1.037203168
1.038465482
1.03936981
1.038868989
1.038502345
1.037939305
1.03721494
1.036684733
1.036373665
1.036692093
0.7632487795
0.7620035782
0.7594217968
0.7568212625
0.7559478165
0.7551447297
0.7537859463
0.7527217415
0.7517760634
0.7492240671
0.7485160897
0.7511389842
0.781773279
0.8564762006
0.9411392418
0.9911874241
1.033702999
1.0387588
1.034820361
1.037363521
1.037257845
1.036086916
1.036504202
1.038024541
1.039465948
1.040603031
1.040606121
1.04038409
1.039601431
1.039031897
1.03872729
0.7536582255
0.7525361086
0.7499609572
0.7478382445
0.7468112584
0.7458082298
0.7443104698
0.7436858474
0.7434282972
0.7448637038
0.7676291789
0.8300369821
0.923144896
1.002027511
1.034422793
1.035553022
1.041279994
1.04583701
1.044990843
1.042749094
1.040443675
1.038570503
1.038501148
1.039212576
1.040648977
1.042179213
1.042563906
1.042539722
1.042387101
1.042007832
1.041602628
0.744366654
0.7434316852
0.7412025707
0.7394605851
0.7388726288
0.7376876659
0.7361561643
0.7376304385
0.7508220161
0.8169841595
0.9106055717
0.9887950193
1.009220534
1.02730492
1.04499038
1.044105826
1.044918069
1.047383162
1.047672477
1.046834159
1.045737033
1.044780398
1.043910829
1.043903454
1.044352431
1.045146289
1.045633872
1.045799983
1.045869099
1.045774255
1.045598504
0.7342522009
0.7336368568
0.7317735862
0.7300300559
0.7285781914
0.7287458215
0.7354836827
0.7963675276
0.8910244526
0.9730053609
1.012328843
1.041386813
1.046306987
1.045121926
1.048581407
1.048706579
1.048663835
1.050160664
1.052377992
1.052832721
1.052493125
1.051960755
1.05150753
1.051026046
1.050846412
1.050632532
1.050489332
1.050483441
1.050515387
1.05076942
1.051099974
0.7245798724
0.7243553339
0.7228686595
0.722996673
0.7246883626
0.7636887416
0.8612796888
0.9589249058
1.026388651
1.041342817
1.044875218
1.05681278
1.06245177
1.060877298
1.058148397
1.056569643
1.056362221
1.057248811
1.059335726
1.060313446
1.06028687
1.060038389
1.059925556
1.059709365
1.05924617
1.058672781
1.057998836
1.057399869
1.057197102
1.057372637
1.057831432
0.7142024996
0.7136241668
0.7134973696
0.7298627355
0.8175904912
0.9405554787
1.026426487
1.045636329
1.060113544
1.06550882
1.06429412
1.066840684
1.070285504
1.069965964
1.06811407
1.067141661
1.067137225
1.067562378
1.068212017
1.068623979
1.068760606
1.068696211
1.068692636
1.068576505
1.06796298
1.067542277
1.067085124
1.066555171
1.066169981
1.0660634
1.066176417
0.7061366313
0.7064897082
0.7846153988
0.9327796721
1.025938708
1.047866768
1.07160925
1.077102664
1.077052945
1.076958099
1.075213139
1.075954802
1.078617896
1.079332827
1.078496583
1.077018733
1.076361156
1.076508599
1.076920044
1.076876851
1.076015192
1.074077246
1.07322507
1.073885417
1.075010836
1.075756067
1.075686759
1.075285273
1.074714182
1.074176504
1.073861278
0.7030582167
0.7030508467
0.7314040138
0.9735696518
1.073937366
1.092192895
1.080921407
1.084147604
1.084466681
1.08414011
1.081642731
1.079945611
1.079935139
1.082185616
1.08266103
1.082009538
1.081001697
1.081210231
1.081129806
1.08095541
1.080529576
1.079258004
1.077187122
1.076585941
1.076635841
1.077881667
1.079168331
1.079777372
1.079610295
1.079062393
1.078552946
1.078236486
0.7026058706
0.7028780004
0.7992809065
1.017636624
1.064134734
1.085387102
1.076331982
1.081631698
1.083128662
1.083024141
1.080685564
1.079075286
1.07892722
1.08124718
1.081764098
1.081219635
1.080633619
1.080890309
1.080829198
1.080650912
1.080181712
1.079073547
1.077311997
1.077114956
1.076907773
1.077854849
1.079067363
1.079639
1.079470156
1.079079028
1.078754422
1.078608874
0.7022125272
0.7046191556
0.8891957316
1.029699634
1.054748761
1.076634068
1.070423108
1.075338033
1.07816728
1.079689429
1.077752278
1.07652004
1.076644257
1.07904595
1.079697541
1.079310709
1.079068254
1.079520845
1.079577029
1.079503164
1.078990392
1.078065586
1.0770956
1.077145552
1.076994072
1.07770993
1.078668091
1.079129882
1.07894698
1.078542663
1.078256769
1.07819958
0.7020471182
0.7316183685
0.9883188077
1.052718553
1.05289309
1.070246994
1.064164136
1.069202475
1.072979744
1.07522117
1.073668413
1.072738895
1.073024639
1.075406403
1.076261735
1.07610197
1.07651528
1.077479472
1.077736022
1.077619848
1.077084063
1.076220127
1.075788591
1.075991859
1.076021762
1.076649343
1.077637349
1.078031341
1.077812422
1.077509893
1.077310008
1.077177977
0.702078846
0.7918914812
1.027879131
1.062057351
1.05495823
1.06763224
1.062107934
1.06619099
1.068903135
1.071192821
1.069790733
1.068853848
1.069315273
1.0715997
1.07261971
1.072626296
1.073306698
1.074556449
1.075159263
1.07505247
1.074654586
1.074131157
1.073822216
1.074001668
1.074135881
1.074745163
1.075712577
1.076336523
1.076197905
1.075881251
1.075720907
1.075568219
0.7049081081
0.8908861975
1.031441015
1.062116425
1.060133373
1.068015131
1.061373929
1.06424073
1.066398708
1.069031013
1.067857165
1.066858519
1.067076149
1.069022802
1.069737608
1.069725877
1.070560753
1.071850657
1.072570092
1.072546054
1.07224327
1.0717108
1.071609099
1.07189519
1.07206733
1.072687958
1.073523
1.074227645
1.074176633
1.073991623
1.073814215
1.073567843
0.7311386137
0.981197728
1.043947923
1.059121778
1.061892836
1.068806861
1.060779359
1.063407443
1.065780372
1.067590126
1.06666417
1.06559147
1.065851682
1.067524356
1.068197338
1.068327872
1.069138798
1.07023715
1.070754924
1.070701991
1.070454658
1.069768557
1.069566711
1.069890078
1.07008077
1.07069472
1.071515496
1.072265657
1.072174791
1.071902829
1.071711364
1.071501719
0.7933050474
1.008217398
1.059908422
1.055323377
1.062105743
1.06899948
1.060432934
1.063465839
1.065986779
1.067093345
1.066059963
1.064864348
1.065050756
1.066294955
1.066980436
1.067417699
1.068299521
1.069359344
1.069895373
1.069630482
1.069137031
1.068402305
1.068188617
1.068514381
1.068639982
1.069158051
1.069930293
1.070677052
1.070582734
1.070236739
1.069976778
1.069694459
0.8904435504
1.026793091
1.064168075
1.056378346
1.062193556
1.069155726
1.060577985
1.063728597
1.0659887
1.067324159
1.066057099
1.064773702
1.064826424
1.065722639
1.06630345
1.066779263
1.067711522
1.068733071
1.069163845
1.068904796
1.068450567
1.067624348
1.067394989
1.067739315
1.067915012
1.068412343
1.068983703
1.069557728
1.069455295
1.069079685
1.068905001
1.068619037
0.7286821785
0.9688720109
1.052553149
1.064526429
1.059253528
1.061920628
1.069023278
1.06104207
1.063913958
1.0660311
1.067640383
1.066545014
1.065147622
1.064926513
1.065489497
1.066100774
1.066564597
1.067487185
1.068458653
1.068709788
1.06852149
1.068276587
1.067426709
1.06709947
1.067430639
1.06778155
1.068185713
1.068543992
1.068970125
1.068827775
1.068516662
1.068402995
1.06823171
0.800333927
1.003030585
1.062759069
1.062258075
1.063307763
1.061304568
1.068233118
1.061698659
1.064062691
1.066071566
1.067777399
1.067032288
1.065448107
1.064903864
1.065334726
1.065978171
1.066600215
1.06756179
1.068500524
1.068587791
1.068405471
1.068101035
1.067470699
1.067084296
1.067340908
1.067644617
1.067826073
1.068126148
1.068553833
1.068523739
1.068309365
1.068160659
1.068151385
0.8920275942
1.038242034
1.063287448
1.057265044
1.064220194
1.061008935
1.066939264
1.06200163
1.064085353
1.066078008
1.067844038
1.067156391
1.065515337
1.064839461
1.065217967
1.065874457
1.066619485
1.067690092
1.068635413
1.06866383
1.068306398
1.067930589
1.067418
1.067061051
1.067172996
1.067334439
1.067494435
1.067798097
1.068168053
1.068137914
1.068029675
1.068006191
1.068157265
0.9536701163
1.061340458
1.061158506
1.057505597
1.06439993
1.061286346
1.06661035
1.06216941
1.063890977
1.065896301
1.06777456
1.067205023
1.065515977
1.064724828
1.065065466
1.065733422
1.066494318
1.067593977
1.06855707
1.06861656
1.068193608
1.067793164
1.06729062
1.067036386
1.067043217
1.067123788
1.067318903
1.067619923
1.06776122
1.067751687
1.067669195
1.067738727
1.067932927
1.004455797
1.063643211
1.05673278
1.060189181
1.064232648
1.061788178
1.06685501
1.062317804
1.063525166
1.065642143
1.067777024
1.067308806
1.065551055
1.064487182
1.064788703
1.065506753
1.066323758
1.067471882
1.068435413
1.068472653
1.06802641
1.067692131
1.067212681
1.067088034
1.06702454
1.067055806
1.067297137
1.067511277
1.067367652
1.067374024
1.067349743
1.067440118
1.0675863
1.049971441
1.06041559
1.056921281
1.065063684
1.063259164
1.062681191
1.067473304
1.062406539
1.062846223
1.06532701
1.067857301
1.067416011
1.065637047
1.064338512
1.064624546
1.065372948
1.066272101
1.067450446
1.068308969
1.068302292
1.067827196
1.067623578
1.067180287
1.067244054
1.067162093
1.067202735
1.06740845
1.067432758
1.067123331
1.066871685
1.066901177
1.06702123
1.067101724
1.058979468
1.054843392
1.059917773
1.066046773
1.062506061
1.063311326
1.068247332
1.062579387
1.062095738
1.064902506
1.067905612
1.067526682
1.065654662
1.064299589
1.064573825
1.065287199
1.066236741
1.067453051
1.068146576
1.068127264
1.067644952
1.067497451
1.067222973
1.067463354
1.067438963
1.06741292
1.06744561
1.067406248
1.067000003
1.066491553
1.066510063
1.066542952
1.066612957
1.058735386
1.056411571
1.063947252
1.065438711
1.062368772
1.063499538
1.068310505
1.062783661
1.061878215
1.064531886
1.067931556
1.067674125
1.06571284
1.064196781
1.064491955
1.065262108
1.06620593
1.067460416
1.068060656
1.06787612
1.067392042
1.067333786
1.067324972
1.067541504
1.067538845
1.067381159
1.067329203
1.06726818
1.066808141
1.066218086
1.066280117
1.066215392
1.04496872
1.052923643
1.060576118
1.064494304
1.062911759
1.062959466
1.063420803
1.067951323
1.063048651
1.061493058
1.064111026
1.067678943
1.067487729
1.065551105
1.064028926
1.064402511
1.06528719
1.066261463
1.067460839
1.067887713
1.067705795
1.067263325
1.067141475
1.067255961
1.067374312
1.067316795
1.067096486
1.067078485
1.067013635
1.06663182
1.06622214
1.0659967
1.065962314
1.048605576
1.054173401
1.064295987
1.063727865
1.06094012
1.064227381
1.063102807
1.067276545
1.06320737
1.060990047
1.063514963
1.067309097
1.067139207
1.065241789
1.063735138
1.064169317
1.065134151
1.066114363
1.067249355
1.067606173
1.067447415
1.067042559
1.066976476
1.067079737
1.067091275
1.066999552
1.066684405
1.066629094
1.06666543
1.066274208
1.065953328
1.066061283
1.066193443
1.047467886
1.060081685
1.064399039
1.0611436
1.060969677
1.064548097
1.062683284
1.066224079
1.063324377
1.060406667
1.062607379
1.066820163
1.066843648
1.064975378
1.063441576
1.063882308
1.064827054
1.065807353
1.066894522
1.067242738
1.067098066
1.066759285
1.066831588
1.066936229
1.066865214
1.066716603
1.066387668
1.066196982
1.06602868
1.065744811
1.065626124
1.065836639
1.066184598
1.053787994
1.064660594
1.063706159
1.059725427
1.062589032
1.064325597
1.06148838
1.065120863
1.063058028
1.059299889
1.061521574
1.066421113
1.066501326
1.064656767
1.063236622
1.063700247
1.064602826
1.065596058
1.066541248
1.066829583
1.066667121
1.066383472
1.066609251
1.066807573
1.066729993
1.066567313
1.066248217
1.065889792
1.065341623
1.064992523
1.06502889
1.065411048
1.065934217
1.0634851
1.064547616
1.060492249
1.059882592
1.064429621
1.063921938
1.060736629
1.064730348
1.062687256
1.058749148
1.061155108
1.066120226
1.066203504
1.064352968
1.063064627
1.063541178
1.064457054
1.065428399
1.066137979
1.066370307
1.066152761
1.065975183
1.066338281
1.066730445
1.066755346
1.066603831
1.066184596
1.065582305
1.064820629
1.064206392
1.064286092
1.064856513
1.06555965
1.064812068
1.063004463
1.059000002
1.061342176
1.064375818
1.062769962
1.06075716
1.065080823
1.063292356
1.058661863
1.060955979
1.065930053
1.065997211
1.064146541
1.063006929
1.063477542
1.064374875
1.065288126
1.065818501
1.065745845
1.065543925
1.065618645
1.066046606
1.066584952
1.066814331
1.066676016
1.066198026
1.065388665
1.064304366
1.063525015
1.063632674
1.064192116
1.065014028
1.063431106
1.058932434
1.059313027
1.062815997
1.063809502
1.061932728
1.061208061
1.065814662
1.064211717
1.058574815
1.06062556
1.065596158
1.065667672
1.06397237
1.063073165
1.063532768
1.064383161
1.06515527
1.065466279
1.065385422
1.065218028
1.065340732
1.065710393
1.066257342
1.066691003
1.06660368
1.066295576
1.065551182
1.063948174
1.063041309
1.063081696
1.063588404
1.064523353
1.060675566
1.057793224
1.061284383
1.062707385
1.062494471
1.062039047
1.061821481
1.065994735
1.064509358
1.058360711
1.060222418
1.065195835
1.065305895
1.063672873
1.063005719
1.063466724
1.064255726
1.064845375
1.065093115
1.064994385
1.064872548
1.06505832
1.065360999
1.065898372
1.06645735
1.066398558
1.0661948
1.065762719
1.064364069
1.062963899
1.062874715
1.063273823
1.064148127
1.062102354
1.056958596
1.058527517
1.062441871
1.062041238
1.061997607
1.062609605
1.06168735
1.06570108
1.064280273
1.058084341
1.059828491
1.064745447
1.064958599
1.063361104
1.062668579
1.063129225
1.063875965
1.064465764
1.06469414
1.064576125
1.064497389
1.064733686
1.065050859
1.065585636
1.066238568
1.066198325
1.066026186
1.065724406
1.064913269
1.063693415
1.063261217
1.063319407
1.06391641
1.056625728
1.056955258
1.061304038
1.062235397
1.060795427
1.062015067
1.062946848
1.061295555
1.065287663
1.063922428
1.057928853
1.059449696
1.06450373
1.064652176
1.063084595
1.062404911
1.062879848
1.063567168
1.064115726
1.064289605
1.064137118
1.06408849
1.064384633
1.064776424
1.065348964
1.066098257
1.066072444
1.065840092
1.065502091
1.065014367
1.064391441
1.064061266
1.063867129
1.064111298
1.05558349
1.059201338
1.062428565
1.061374135
1.060455516
1.062847465
1.062693542
1.060487532
1.064298895
1.063298112
1.057603487
1.059137639
1.06426481
1.064409017
1.062862311
1.062295114
1.062808432
1.063480271
1.06387297
1.063929425
1.063724803
1.063666323
1.063998832
1.064543245
1.065342849
1.066060817
1.065964855
1.065639989
1.065266517
1.064817332
1.064579398
1.064548443
1.064520924
1.064561804
1.057852976
1.062228899
1.062244942
1.060059564
1.060766911
1.063310433
1.062419647
1.059362072
1.063376656
1.062925851
1.057329155
1.058866819
1.064030883
1.064243697
1.062743124
1.062219955
1.062742139
1.063438693
1.063642058
1.063536354
1.063339727
1.063275907
1.063649167
1.064393513
1.065154138
1.065547112
1.065418284
1.065095717
1.064809531
1.064786009
1.064758539
1.064808619
1.064785846
1.064800364
1.062040145
1.062491677
1.060695567
1.05997885
1.061744632
1.063201277
1.061825184
1.059130062
1.063211078
1.062863249
1.057472687
1.058830295
1.063764628
1.064054617
1.062752124
1.062300751
1.062828788
1.063402261
1.063412537
1.063320975
1.063184123
1.063111928
1.063401985
1.064246139
1.064852216
1.06507676
1.064859104
1.064473433
1.064162403
1.064205691
1.064458384
1.064515035
1.064513941
1.064626019
1.062611609
1.061689502
1.059197176
1.060403699
1.062081352
1.06293372
1.061310835
1.059175504
1.063235961
1.063029921
1.057862998
1.058864229
1.063471486
1.063804652
1.062623513
1.062250859
1.062772011
1.063165859
1.063157578
1.063053842
1.062950881
1.063020023
1.06335826
1.064211188
1.064667733
1.064802827
1.064556371
1.064089561
1.063738242
1.063665965
1.063744103
1.064046216
1.064199216
1.064456261
1.062118265
1.059146257
1.059300553
1.061601177
1.062070436
1.062386746
1.061271654
1.059927992
1.063903909
1.063795133
1.058228066
1.05875633
1.063184463
1.063544837
1.062381203
1.061988414
1.062486257
1.062887442
1.06287223
1.062737766
1.062721992
1.062843116
1.063324501
1.064261732
1.064731269
1.064669911
1.064377189
1.06387344
1.063495593
1.063427094
1.063415761
1.063834564
1.06418714
1.064393066
1.05914047
1.058333706
1.060208478
1.061941976
1.061802058
1.062296612
1.061409981
1.060295043
1.064323636
1.0641311
1.058177986
1.05854744
1.062805112
1.063286272
1.062145079
1.061742633
1.062238514
1.062612272
1.062560235
1.062355375
1.062386479
1.062641664
1.063204678
1.06423314
1.064850703
1.064852003
1.06457681
1.063884778
1.06332081
1.063255861
1.063281444
1.063373469
1.063607763
1.058344495
1.057555669
1.058712221
1.061434135
1.061787731
1.061392243
1.062381083
1.061422764
1.060141219
1.064175751
1.063965873
1.058020107
1.058334881
1.062585714
1.063036642
1.061991328
1.061634984
1.062138539
1.062412544
1.062307825
1.062053431
1.061960618
1.062251321
1.063006579
1.064130647
1.064891036
1.065019018
1.064847005
1.0643147
1.063440279
1.063165011
1.063146224
1.063159772
1.063198982
1.056550193
1.057822337
1.060524078
1.061441572
1.061119874
1.061245075
1.062553421
1.061265207
1.059771751
1.063797184
1.06370318
1.057877263
1.058161057
1.062317194
1.062794893
1.061828574
1.061608328
1.062166502
1.062324487
1.062152785
1.061839551
1.061636907
1.06183106
1.062633719
1.063947489
1.06483219
1.065030188
1.064912257
1.064681968
1.063941268
1.063361993
1.063151352
1.063045385
1.063008659
1.057284104
1.059678066
1.06096498
1.061069767
1.06065967
1.061382363
1.062484588
1.06103039
1.058970974
1.063058994
1.063149572
1.057757556
1.058036238
1.062122686
1.062578399
1.061721671
1.061615956
1.062181526
1.062307825
1.062144338
1.061827158
1.061489591
1.061589396
1.062271318
1.063694495
1.064706995
1.064966494
1.06484862
1.064685575
1.064342007
1.06396886
1.063464644
1.063080447
1.062965734
1.059791233
1.06053763
1.060479439
1.059851771
1.06056235
1.061524563
1.062262434
1.060775081
1.058302545
1.062005905
1.062461759
1.057695722
1.058016943
1.061912518
1.062338872
1.061592412
1.061568322
1.062090633
1.062232809
1.062085899
1.061833357
1.061533566
1.061466148
1.062128733
1.063244
1.064413484
1.064848867
1.064745165
1.064575836
1.064331107
1.064276683
1.063968263
1.063353904
1.063105005
1.060863054
1.060356949
1.059429128
1.059300761
1.060705472
1.061348753
1.061972901
1.060688568
1.058196638
1.06175218
1.06227457
1.057926109
1.058256629
1.061707922
1.062050539
1.061356875
1.06138162
1.061905661
1.06213279
1.062005981
1.061772859
1.061601095
1.061475888
1.062051093
1.0629776
1.06382431
1.064451368
1.064530455
1.06436398
1.064365712
1.064390976
1.064172077
1.063753918
1.063423654
1.061049045
1.059595814
1.058655701
1.059409261
1.060985602
1.061056061
1.061632701
1.060677306
1.058353544
1.061822698
1.062283632
1.05828589
1.058429926
1.06160844
1.061838164
1.061144398
1.061148661
1.061666238
1.06193882
1.061819852
1.061687132
1.061570284
1.061555765
1.062080982
1.062900768
1.06337831
1.063687957
1.064004196
1.064099175
1.064332008
)
;

boundaryField
{
    inlet
    {
        type            fixedValue;
        value           nonuniform 0();
    }
    outlet
    {
        type            inletOutlet;
        inletValue      nonuniform 0();
        value           nonuniform 0();
    }
    bottom
    {
        type            slip;
    }
    top
    {
        type            slip;
    }
    obstacle
    {
        type            zeroGradient;
    }
    defaultFaces
    {
        type            empty;
    }
    procBoundary10to4
    {
        type            processor;
        value           nonuniform List<scalar> 
32
(
0.8822222406
0.8795560924
0.8764373098
0.8737918789
0.8713826619
0.8686149181
0.9937381514
0.9843868505
0.9789103132
0.9739721087
0.9649938246
0.9575470449
0.9535904762
0.9483864997
0.9397407114
0.9352300235
0.9323037749
0.9269133868
0.9206721769
0.9173573745
0.9144076374
0.90899439
0.9044108053
0.9017820621
0.8992802683
0.8950037969
0.8910342419
0.8881188692
0.8855042304
0.8819475978
0.8788488812
0.8788488812
)
;
    }
    procBoundary10to5
    {
        type            processor;
        value           uniform 0.8602345532;
    }
    procBoundary10to9
    {
        type            processor;
        value           nonuniform List<scalar> 
55
(
0.992172372
0.9825802902
0.973368595
0.9633537802
0.9536965425
0.943091496
0.9329178425
0.9224190153
0.9117756322
0.9016281805
0.8911207163
0.8812416683
0.8712021055
0.8616719751
0.8517728833
0.8423090752
0.8323982394
0.8229051154
0.8128944508
0.8033145731
0.7932444361
0.7836033501
0.7736996407
0.7642183438
0.7543816743
0.744743267
0.7343540844
0.7244048026
0.714212255
0.706065375
0.706065375
0.7034083414
0.7029675562
0.7024723839
0.7022151322
0.7020580775
0.7022094015
0.7022914681
0.7026165875
0.7059701122
0.7059701122
0.7029582546
0.7036902142
0.706426843
0.7278381228
0.8034307309
0.8817993674
0.9542383247
1.024007444
1.024007444
0.8771385609
0.9808387926
1.027184247
1.028471292
1.041023236
)
;
    }
    procBoundary10to11
    {
        type            processor;
        value           nonuniform List<scalar> 
70
(
0.8543638566
0.8493141527
0.8435903453
0.8382012572
0.8327925687