/*--------------------------------*- C++ -*----------------------------------*\
  =========                 |
  \\      /  F ield         | OpenFOAM: The Open Source CFD Toolbox
   \\    /   O peration     | Website:  https://openfoam.org
    \\  /    A nd           | Version:  7
     \\/     M anipulation  |
\*---------------------------------------------------------------------------*/
FoamFile
{
    version     2.0;
    format      ascii;
    class       volScalarField;
    location    "4.3";
    object      T;
}
// * * * * * * * * * * * * * * * * * * * * * * * * * * * * * * * * * * * * * //

dimensions      [0 0 0 1 0 0 0];

internalField   nonuniform List<scalar> 
2222
(
1.011974144
1.011187809
1.011381174
1.012148177
1.012613774
1.012904906
1.012963535
1.012902695
1.012422579
1.012099876
1.011850943
1.01179292
1.011757581
1.012037819
1.012988218
1.013694494
1.013807354
1.013445929
1.013115096
1.012817035
1.012720137
1.012673725
1.012347866
1.012303674
1.01205975
1.011949447
1.011933144
1.012348308
1.012857232
1.012569496
1.012786568
1.012860178
1.012528461
1.011791441
1.01118726
1.011378024
1.012099863
1.012619776
1.01260241
1.012677475
1.012695431
1.012565641
1.0124922
1.012105978
1.011994416
1.011845037
1.012225542
1.013073855
1.013787216
1.013990767
1.013566907
1.0131655
1.013007948
1.012881715
1.012326749
1.012308083
1.012217135
1.012086236
1.01175776
1.011857911
1.012417751
1.013087731
1.012629966
1.012137087
1.012353874
1.012462262
1.012299829
1.011891157
1.011778785
1.012227489
1.01270249
1.012549623
1.012392913
1.012268764
1.01221881
1.012024727
1.01199521
1.012053566
1.012127408
1.012756542
1.013518432
1.013933366
1.013948364
1.013806236
1.013152754
1.012697247
1.012627196
1.012547899
1.01231201
1.012078491
1.012153036
1.011962924
1.012065829
1.012526592
1.013198787
1.013461517
1.012203232
1.011976544
1.012158452
1.012269204
1.012203089
1.012181331
1.012621459
1.013038917
1.012753147
1.012303508
1.012014988
1.011621985
1.011559874
1.011588514
1.01159049
1.012111316
1.013106772
1.014030971
1.014259457
1.014075252
1.013819209
1.013459976
1.013026789
1.012541895
1.012306482
1.012251172
1.012428727
1.012255156
1.012081675
1.012228933
1.012730305
1.01336686
1.013418341
1.013359719
1.012043099
1.01191749
1.012131825
1.012482044
1.012680128
1.012929443
1.013071406
1.013029785
1.012559033
1.011989347
1.011306786
1.01117383
1.011219436
1.011370617
1.011942242
1.013053238
1.014038897
1.014242352
1.014117749
1.013830884
1.013481621
1.012990281
1.012857259
1.012567958
1.01248461
1.012635459
1.012747814
1.012717721
1.012829983
1.013149668
1.013556743
1.013508238
1.013231071
1.013071931
1.012341017
1.012301693
1.012573355
1.013156933
1.013418149
1.013372805
1.013121703
1.012793872
1.012265673
1.011330818
1.011009413
1.011084553
1.011213103
1.011754437
1.012879815
1.013701169
1.014008813
1.013990104
1.013820065
1.013441156
1.012972351
1.012824605
1.012563876
1.012599755
1.012884367
1.013152651
1.013492091
1.013592817
1.013788871
1.013883629
1.013761481
1.013368445
1.012957234
1.012690412
1.012730664
1.012655335
1.012920782
1.013424612
1.013472816
1.013431909
1.013162188
1.012523627
1.011728424
1.011026288
1.011197101
1.011322346
1.011836746
1.012739836
1.013393318
1.013657144
1.013667755
1.013666572
1.01348456
1.013071516
1.012360183
1.012528338
1.012257845
1.012523107
1.013041454
1.013363394
1.013713515
1.013878331
1.013966613
1.013917334
1.013654557
1.013193861
1.012760846
1.012626797
1.0125945
1.012763934
1.013274546
1.013212739
1.013143078
1.012846489
1.012305674
1.011477785
1.011439352
1.011560322
1.01207827
1.012716466
1.013163285
1.01334399
1.013362942
1.013335648
1.013255594
1.013000332
1.012523161
1.012290265
1.012130953
1.012241561
1.012514117
1.012888106
1.013289954
1.013614498
1.01381206
1.013785513
1.013690263
1.013389277
1.012939573
1.012394523
1.012344605
1.012336916
1.012443463
1.013055824
1.013032949
1.012935785
1.01258376
1.012087506
1.011944851
1.012091255
1.012465631
1.012701214
1.012869014
1.012981952
1.01307046
1.013062731
1.012988097
1.012537947
1.012092518
1.011728749
1.0118593
1.011775591
1.012182977
1.012507374
1.012807593
1.013169805
1.013509068
1.013543628
1.013487008
1.013358086
1.013022331
1.012403052
1.012183495
1.012172325
1.012367037
1.011966662
1.012117004
1.012880059
1.013227409
1.013254695
1.013016044
1.01265488
1.012601921
1.012656815
1.012799742
1.012701643
1.012756576
1.012723572
1.012740372
1.012723073
1.012075948
1.011762514
1.011513357
1.01144077
1.011589189
1.011908273
1.012134768
1.012544381
1.012894994
1.013090498
1.013334036
1.013206122
1.013113959
1.012899268
1.012369043
1.012105639
1.012118872
1.012327516
1.01271371
1.011725777
1.011896064
1.012890881
1.013513487
1.013597703
1.013464185
1.013196922
1.012804008
1.012815676
1.012552033
1.012391855
1.012367494
1.012455466
1.012365062
1.012004569
1.011836926
1.011746847
1.011611311
1.011598746
1.011890676
1.012326501
1.0129148
1.013087769
1.013014687
1.013159965
1.013109581
1.012846691
1.012544214
1.012287537
1.012146725
1.012103096
1.012226311
1.012716409
1.013064738
1.011700095
1.011946812
1.013133441
1.013563851
1.013597801
1.013546868
1.013383074
1.012945667
1.012575613
1.012087608
1.011867999
1.011903433
1.011944798
1.011882877
1.011640208
1.011704136
1.011516824
1.011623705
1.012029555
1.012887034
1.013473719
1.013639061
1.013448354
1.013214601
1.013214153
1.012948691
1.012775934
1.012380531
1.012079095
1.01205381
1.012230549
1.012733827
1.013066363
1.013179561
1.011937092
1.012222458
1.013248372
1.013500229
1.013488136
1.013402413
1.013200356
1.01295035
1.012167743
1.01193124
1.011666675
1.011537705
1.011569123
1.011604626
1.011742808
1.011796544
1.012101351
1.012685975
1.013426471
1.013992091
1.013958369
1.013684446
1.013368427
1.013161403
1.012983093
1.012864955
1.01241395
1.012180643
1.011998556
1.012239616
1.01286188
1.013209884
1.013227213
1.013197419
1.012084365
1.012120503
1.012998582
1.01341365
1.013423635
1.01328195
1.012992511
1.012605677
1.011981078
1.0117777
1.011626103
1.011563055
1.011698185
1.011897544
1.012175647
1.012623756
1.013315552
1.013772886
1.0139644
1.01409094
1.013860345
1.013436718
1.013068381
1.012854373
1.01264947
1.012476361
1.012159292
1.012095878
1.012316979
1.013074963
1.013439343
1.013356225
1.013245921
1.013148747
1.011956263
1.011842043
1.012643466
1.013047629
1.013165118
1.013123842
1.012908796
1.012326335
1.011999846
1.011667592
1.011674387
1.011780126
1.012024728
1.012320181
1.012665782
1.013220431
1.013727475
1.013857047
1.013797302
1.01384249
1.013535415
1.013101459
1.012734784
1.012451279
1.012285837
1.012119238
1.012168098
1.01253449
1.013198094
1.013592531
1.013517725
1.013260169
1.013078107
1.012982772
1.011476211
1.012169372
1.012721549
1.012998012
1.013061126
1.012975538
1.012649092
1.012208555
1.012160584
1.012111849
1.012056954
1.012085035
1.012251631
1.012654925
1.013257832
1.013655752
1.013708648
1.013602232
1.013532225
1.013129872
1.01257147
1.012216853
1.012139058
1.012108695
1.012189703
1.012608355
1.013272632
1.013499231
1.013518005
1.013329582
1.013036486
1.012787956
1.012744242
1.011222945
1.011905529
1.012803791
1.013223233
1.013307055
1.01326325
1.0129686
1.012639103
1.012434417
1.012242352
1.012061941
1.012019015
1.01210089
1.012498546
1.013048834
1.013399789
1.013446725
1.013367467
1.013109485
1.012426655
1.012055456
1.011999895
1.012077706
1.012163459
1.012466588
1.013035454
1.013280571
1.013350181
1.013271467
1.013022965
1.012732048
1.012429507
1.012497325
1.0110752
1.011864272
1.013065191
1.013362691
1.013357674
1.013266438
1.012955339
1.012648517
1.012241567
1.011977092
1.011778275
1.011857563
1.012033848
1.012373472
1.012828315
1.013086485
1.012993725
1.012630132
1.012221326
1.012043278
1.01201856
1.012038266
1.012129168
1.012338186
1.012616785
1.012926905
1.013030159
1.013108128
1.012980069
1.012685117
1.0123521
1.012243898
1.012077325
1.011113476
1.012050831
1.013069517
1.013152999
1.013094125
1.012987494
1.012684421
1.012358706
1.011923981
1.01157304
1.011427469
1.011506751
1.011750183
1.012175603
1.012474985
1.012479531
1.012346018
1.012128956
1.011909344
1.011862041
1.012047009
1.012267697
1.012314895
1.012353305
1.012475529
1.01269405
1.012779822
1.012793814
1.012559493
1.012257274
1.011966646
1.011900348
1.011873005
1.011224938
1.012037429
1.01284591
1.0128805
1.012783503
1.01266757
1.012448139
1.011960604
1.011578378
1.011107931
1.011082271
1.011197629
1.011512681
1.012028992
1.012260709
1.012229408
1.012138766
1.012029702
1.011925695
1.012096637
1.012389883
1.012358374
1.012284515
1.012310351
1.012377286
1.012478815
1.012423883
1.012303172
1.01192237
1.011683535
1.011676425
1.011703411
1.011837921
1.011075861
1.011784467
1.012600004
1.012629586
1.012624411
1.012437218
1.012228479
1.011712097
1.011247445
1.010885039
1.010883253
1.011172539
1.011761865
1.012152294
1.012163907
1.012095885
1.012058234
1.012095187
1.012206966
1.012462972
1.012450326
1.01221719
1.012102339
1.012124232
1.012233201
1.012205449
1.011986406
1.011721478
1.011516881
1.011462667
1.011531298
1.011682517
1.01209171
1.010879286
1.011459559
1.012327319
1.012647932
1.012648789
1.012516215
1.012134355
1.011703342
1.011059935
1.010909148
1.011042091
1.011609704
1.012129052
1.012249369
1.012241142
1.012231526
1.012338234
1.012435357
1.012453358
1.012450014
1.012270147
1.011970684
1.011834613
1.011897655
1.012034439
1.011866899
1.011683678
1.011504209
1.011469487
1.011496908
1.011644889
1.012129116
1.012722765
1.010805512
1.011180678
1.012258417
1.012737287
1.012828948
1.012762846
1.012493679
1.01191848
1.011440495
1.011432664
1.011757802
1.012074684
1.012172495
1.012228399
1.012275831
1.012401154
1.012588125
1.012582758
1.012413962
1.012217301
1.011922347
1.011558069
1.01158624
1.011700647
1.011828566
1.011745601
1.011717861
1.011527126
1.011461002
1.011740762
1.0122764
1.012709078
1.012864012
1.011042959
1.012259285
1.01301513
1.013214193
1.013189962
1.012976676
1.012512601
1.012211369
1.012151646
1.012170172
1.012103906
1.012054203
1.012126288
1.012222647
1.012439655
1.012600226
1.012524913
1.012315785
1.01202403
1.011424594
1.011274601
1.011498829
1.01173553
1.011825503
1.0118245
1.011752223
1.011699976
1.011916969
1.012372236
1.012667343
1.012739228
1.012799732
1.010932657
1.012355651
1.01304056
1.013177383
1.013157008
1.013060645
1.012806563
1.012608852
1.012390522
1.012224303
1.012005856
1.01194234
1.012033516
1.012177881
1.012393291
1.012545268
1.012458361
1.012135926
1.011509925
1.011130015
1.011216295
1.011488247
1.012039521
1.012078932
1.012087658
1.012139745
1.012217261
1.012448297
1.012585319
1.012643433
1.012670981
1.012735858
1.012674279
1.010859903
1.012317243
1.012919548
1.013039545
1.013026872
1.012981626
1.012864352
1.01263227
1.0123471
1.012151779
1.011874811
1.011728405
1.011808438
1.012014716
1.01229441
1.012432633
1.012259302
1.011741173
1.011272277
1.011147219
1.011327375
1.011891186
1.012055077
1.012144263
1.012258516
1.012343018
1.012407001
1.012498433
1.012595573
1.012594678
1.01258734
1.012439018
1.012186274
1.010800412
1.012170479
1.012767494
1.012897878
1.012909277
1.012964444
1.012873871
1.012599894
1.012263114
1.01192915
1.011402677
1.011184314
1.011321509
1.011651545
1.011973212
1.012008731
1.011880053
1.011541849
1.011436791
1.011431711
1.011881615
1.012268865
1.012159783
1.012190931
1.012177834
1.012220873
1.012441145
1.012476673
1.012500764
1.012485702
1.012277758
1.011987021
1.011856968
1.010773258
1.011923985
1.012638099
1.01285751
1.012910906
1.012996928
1.012876565
1.012539281
1.01210128
1.011458355
1.010982568
1.011001769
1.011230071
1.011629075
1.011836214
1.011844474
1.011799445
1.01163719
1.01161985
1.012034037
1.012480788
1.012427733
1.012267559
1.012106196
1.01212025
1.01213621
1.012367258
1.012421802
1.012305478
1.012069544
1.011902805
1.011864721
1.01190476
1.010560574
1.011842232
1.012640814
1.012917057
1.01300243
1.013024929
1.012869294
1.012463189
1.011687758
1.011037637
1.010970638
1.011109803
1.011372599
1.011741604
1.011944157
1.011956366
1.011893754
1.01188113
1.012234465
1.012800375
1.012709257
1.012455852
1.012105973
1.011868558
1.01181498
1.011933603
1.012069469
1.012038351
1.011961088
1.011832227
1.011813911
1.011900308
1.012051859
1.010553237
1.011892188
1.012782769
1.013104318
1.013164622
1.01309641
1.012871665
1.012301097
1.01154084
1.011148639
1.011107852
1.01127646
1.01172811
1.012221978
1.012285397
1.012213673
1.012229513
1.012627601
1.012955466
1.012966226
1.012767416
1.012292519
1.011767595
1.01169886
1.011771446
1.011652719
1.011851731
1.011890591
1.011850243
1.011940844
1.011985331
1.012067724
1.012403571
1.010651188
1.01194982
1.012940211
1.013312564
1.013373852
1.013253697
1.012926663
1.012283448
1.011713311
1.01157388
1.011632957
1.011936778
1.012291928
1.012509176
1.012614817
1.012726194
1.012969803
1.012896687
1.013056501
1.012983754
1.012576886
1.011792517
1.011603626
1.011752769
1.011928513
1.011840278
1.011914144
1.012089713
1.012051509
1.012133446
1.012258341
1.012486424
1.01275993
1.011923683
1.012886298
1.013300782
1.013401587
1.013390411
1.013090024
1.012485299
1.01202013
1.011925548
1.01200038
1.012225908
1.012442909
1.012684249
1.012875966
1.013036823
1.013259111
1.013194855
1.013149575
1.012898253
1.011992196
1.011478462
1.011627742
1.011859089
1.012064908
1.012217045
1.012070132
1.01227065
1.012402847
1.012350999
1.012584351
1.012768391
1.012858702
1.011931756
1.01292452
1.013354478
1.013489655
1.013504688
1.01329415
1.01286115
1.012505825
1.012395619
1.012382703
1.012421492
1.012546112
1.012691562
1.012880184
1.013154945
1.01340139
1.013459336
1.013174665
1.01231403
1.011547506
1.011504369
1.011739754
1.012130276
1.012343605
1.012449372
1.012347688
1.012296349
1.012545036
1.01260965
1.012628847
1.01271842
1.012847964
1.012004752
1.013078133
1.013572301
1.013666895
1.013664518
1.013498074
1.01319794
1.012873686
1.012660455
1.012578069
1.012483004
1.012446693
1.012511474
1.012724538
1.013155088
1.013499927
1.013336978
1.012595486
1.011780251
1.011643614
1.011743798
1.012017362
1.012441523
1.012608591
1.012457144
1.012633421
1.01256773
1.012652154
1.012792425
1.012689139
1.012568341
1.01259593
1.012155593
1.013280844
1.013721131
1.013742078
1.013756732
1.013634263
1.01340568
1.013086993
1.012757213
1.012541612
1.012349478
1.012256769
1.012287137
1.012545715
1.012968054
1.013181347
1.01279115
1.012035709
1.011859071
1.011885528
1.012042582
1.012363604
1.012447337
1.012552653
1.012586351
1.012750012
1.012739258
1.012666418
1.012535435
1.012313611
1.012169318
1.012241629
1.012374608
1.013439852
1.013800382
1.013809713
1.01375567
1.013636324
1.013422727
1.01307117
1.012594688
1.012338408
1.012190157
1.012181579
1.012318137
1.012486663
1.012689705
1.012670576
1.012230195
1.012024714
1.012042822
1.012142469
1.01243988
1.012627554
1.012588099
1.012518669
1.012573069
1.012458666
1.0123321
1.012091153
1.011900993
1.011847958
1.011950705
1.01197698
1.012588926
1.013606071
1.013746283
1.013623483
1.013540481
1.013421822
1.013222834
1.012816148
1.012304968
1.012217105
1.012242047
1.012402812
1.012563752
1.012654787
1.012483656
1.012375597
1.01219246
1.012127135
1.01219921
1.012502387
1.012735717
1.012736608
1.012618667
1.012413147
1.012078658
1.011780756
1.01149697
1.011380218
1.011481753
1.011683898
1.011804069
1.011759912
1.012690045
1.013408732
1.013397664
1.01342651
1.013450472
1.013349746
1.013139563
1.012750098
1.012419178
1.012382605
1.012419661
1.012551984
1.012765129
1.012789506
1.012239537
1.012314212
1.012188389
1.012198941
1.012469509
1.012795251
1.012854537
1.01267766
1.012423014
1.011788368
1.011205718
1.011030967
1.011048172
1.011163736
1.011343192
1.011540973
1.0116475
1.01162903
1.01237078
1.012868188
1.013197457
1.013437857
1.013523205
1.013410929
1.013208959
1.012844724
1.012508853
1.012485284
1.012597512
1.012686046
1.012744599
1.012615316
1.0122632
1.012264125
1.012335361
1.012555748
1.012977794
1.012968603
1.012762178
1.012506058
1.011782061
1.011159954
1.011059269
1.010959796
1.010960843
1.011046404
1.011259577
1.011488767
1.011468966
1.011428568
1.012182489
1.012693852
1.013258901
1.01363966
1.013741746
1.013613632
1.013408076
1.013074352
1.01278077
1.012701534
1.012626288
1.012528211
1.012403526
1.012264345
1.012233867
1.012339761
1.012858464
1.013247275
1.013290314
1.013033381
1.012387093
1.01192086
1.011207245
1.011039064
1.01096916
1.011003726
1.011093178
1.011216594
1.01144152
1.011520937
1.011355687
1.011260996
1.011934422
1.012440074
1.012737535
1.012834002
1.012840383
1.012816467
1.01266421
1.012308666
1.0119929
1.011850603
1.011778299
1.011765721
1.011826686
1.011926438
1.011902033
1.011861881
1.011787276
1.011736373
1.011687662
1.01158139
1.011426831
1.011380059
1.011378921
1.011405867
1.011428057
1.011417056
1.011366714
1.011304695
1.011262244
1.011265372
1.011334986
1.010549999
1.010632225
1.010504054
1.010505407
1.010766937
1.011063999
1.011064876
1.010929683
1.01064785
1.010634301
1.010626014
1.010579087
1.010583105
1.010570172
1.010517695
1.010463155
1.010489609
1.010604453
1.010792258
1.010891969
1.010900144
1.010876778
1.010815486
1.010748642
1.010716055
1.010680465
1.010613395
1.010589671
1.010599467
1.010624509
1.010667198
1.008828814
1.008915398
1.008725202
1.008757635
1.009125687
1.00954785
1.009701998
1.009683934
1.009531992
1.009389851
1.00930433
1.009237518
1.009228981
1.009307451
1.009392845
1.009373954
1.009370493
1.009462156
1.00964439
1.009845891
1.009867528
1.009846731
1.0098103
1.009834923
1.009826192
1.009803956
1.009740801
1.009731225
1.009751065
1.009779981
1.009822467
1.006206445
1.007395793
1.007350568
1.007525355
1.008211145
1.008628012
1.008878217
1.008887908
1.008821977
1.008702933
1.008499313
1.008389319
1.008413511
1.008502833
1.008518373
1.008366167
1.008282602
1.008331111
1.00847805
1.008694796
1.008919385
1.008980972
1.009016085
1.009097801
1.009090148
1.009034247
1.008977695
1.008980561
1.009005118
1.009041734
1.009117991
1.005311853
1.007102972
1.007647419
1.008067866
1.008382655
1.008502696
1.008408432
1.008174105
1.00783992
1.007821127
1.008114757
1.008385515
1.00839941
1.008341029
1.008055293
1.007659404
1.00748965
1.007535397
1.007708753
1.008001986
1.008305713
1.008410144
1.008461035
1.008586355
1.008582095
1.00851665
1.00850585
1.008519099
1.00855435
1.008617261
1.008709655
0.9999686163
1.002088466
1.004961302
1.007642922
1.008138138
1.007722318
1.007826095
1.007482717
1.007286773
1.007440518
1.008105026
1.008408839
1.008368258
1.008169877
1.007850901
1.007533146
1.007294646
1.007319255
1.007469122
1.007742945
1.008021838
1.008103502
1.00814649
1.008261918
1.00825832
1.008252267
1.008271078
1.00830802
1.008359819
1.008400042
1.008395048
0.9493425532
0.9712998612
0.9933399883
1.003297389
1.002624978
1.004819113
1.006530105
1.00674675
1.00713135
1.007997804
1.008567687
1.008545688
1.008446106
1.008269955
1.008043085
1.007677188
1.007466122
1.007540603
1.007704251
1.007773335
1.007884761
1.007869468
1.007855224
1.007950844
1.007987739
1.008018228
1.008085441
1.008171378
1.008244632
1.008250086
1.008226129
0.8785556251
0.9260133488
0.9701114997
0.9896719742
0.9956768485
1.005653682
1.006918672
1.007218983
1.008346776
1.008820899
1.008642864
1.008337989
1.008335685
1.008332374
1.008284146
1.007945656
1.007641834
1.007665429
1.007696536
1.007678029
1.007655517
1.007615537
1.007617358
1.007685099
1.007747993
1.007799002
1.007892579
1.008035473
1.008129698
1.008134852
1.008112739
0.846037388
0.8628676348
0.8963668849
0.9431422264
0.980518371
1.001451139
1.002751474
1.004932794
1.007323668
1.007645346
1.006851817
1.007497866
1.008231451
1.008583909
1.008392572
1.008002947
1.007499301
1.007245892
1.007276198
1.007363161
1.007451075
1.007529229
1.007546123
1.007566393
1.007588201
1.007610109
1.00768341
1.007841105
1.007959015
1.008018372
1.008024536
0.8424247321
0.8436396711
0.8506722174
0.8757668317
0.9154143394
0.9584609429
0.977122843
0.9941521123
1.00309635
1.002039643
1.003993787
1.006792718
1.008751372
1.008576003
1.008239928
1.007478629
1.006809819
1.006767215
1.006964631
1.007255655
1.007405095
1.00754991
1.007653863
1.00765742
1.007653022
1.007652087
1.007680029
1.007781565
1.007949194
1.008040503
1.008032294
0.8419685935
0.8420942441
0.8425057286
0.845190937
0.8580771766
0.8872151855
0.9371184087
0.9766485568
0.994783549
0.9970049581
1.005423139
1.008677975
1.008314771
1.007591066
1.007501905
1.006948894
1.006685533
1.006904851
1.007295867
1.007597467
1.007705711
1.007590283
1.007595685
1.007536419
1.007485947
1.007538619
1.007646725
1.007785539
1.007934316
1.007977366
1.007953291
0.8420388392
0.8421652063
0.8423874972
0.842361093
0.843016742
0.8476534087
0.8694255592
0.9060724276
0.9520691305
0.9836870723
1.002809981
1.005586726
1.003231703
1.005411648
1.006636128
1.007133766
1.007636051
1.008076511
1.008311129
1.008220205
1.00806867
1.007697361
1.007237688
1.007161612
1.007223746
1.007384751
1.007606381
1.007769922
1.007884026
1.00785536
1.007775974
0.8439418851
0.8439758146
0.8437687674
0.8427993636
0.8426011454
0.8427668999
0.8447553817
0.8546911035
0.8820790945
0.9254852292
0.9652635813
0.9822771031
0.9939241047
1.006887136
1.007204497
1.007263535
1.007545739
1.008215187
1.008488042
1.008441869
1.007944097
1.00740153
1.007084738
1.007124137
1.00726483
1.007457215
1.007617221
1.007761145
1.007807367
1.007740635
1.007657103
0.8470737911
0.8465069462
0.846463517
0.8451334607
0.8439382987
0.8439465352
0.8438316357
0.844052644
0.8472613989
0.8643230327
0.8965419149
0.942905334
0.9817613389
1.003486937
1.003397659
1.005067134
1.006171634
1.006480443
1.006866586
1.007707054
1.007733572
1.00752279
1.007623237
1.007781282
1.00787535
1.007771379
1.007699729
1.007733966
1.00772796
1.007756861
1.007761374
0.8495741681
0.8474652887
0.8479208258
0.8469962262
0.8452321296
0.8451667705
0.8451533224
0.8446617361
0.8444661978
0.8454779611
0.8518388878
0.8768558748
0.9163670495
0.9599888121
0.9786081937
0.9954476279
1.000792342
1.001995718
1.004952533
1.006973511
1.007856578
1.007802672
1.007937162
1.007997263
1.007920382
1.007779356
1.007759459
1.007767236
1.007828808
1.007777305
1.007708628
0.8573604511
0.8515737873
0.8502782819
0.8486551391
0.8454425255
0.8452999698
0.8456643086
0.8448658893
0.844309725
0.8447730303
0.8450523223
0.8474489917
0.8601023432
0.8901746363
0.9403425071
0.9821526463
0.9946067269
0.99919037
1.006770352
1.007898378
1.007499078
1.007498816
1.007346819
1.007220646
1.007369903
1.007709284
1.007937701
1.007970711
1.00789336
1.007661124
1.007322843
0.8675043724
0.8611193228
0.8580717511
0.8561199791
0.8510067601
0.8488440802
0.8481904687
0.8463214617
0.8444267191
0.8447597482
0.8448744015
0.8445778912
0.8451374689
0.8502672054
0.872871611
0.9109036515
0.9548631008
0.9859373145
1.004297275
1.004466161
1.004551404
1.005275107
1.004342214
1.005024083
1.006664414
1.007961638
1.008312105
1.00822407
1.007813555
1.007019554
1.006509303
0.8745099591
0.8673097922
0.8639195396
0.8630542461
0.8598674203
0.8560250866
0.8549613219
0.8526422964
0.8483891385
0.8473811028
0.8464561007
0.8448620673
0.8450192433
0.8454940941
0.8476239115
0.8576219258
0.8887171709
0.9275587533
0.9685436532
0.9826612765
0.9971549889
1.003591163
1.002939442
1.004831312
1.007125412
1.008541411
1.008423405
1.008046264
1.007357062
1.006546976
1.006293385
0.8841143416
0.8774183851
0.871597446
0.8697635642
0.8664350089
0.8606740321
0.8595981467
0.8582615564
0.8544931649
0.8525274595
0.8518226358
0.8492420323
0.8474607114
0.8471974538
0.8464915839
0.8464974656
0.8503957594
0.8675759954
0.9004805511
0.9482219564
0.9865879963
0.9997275583
1.002370013
1.007164424
1.008784413
1.008440953
1.007911956
1.007540666
1.007047082
1.006882549
1.006945561
0.8940919395
0.8883981162
0.8810457143
0.8781826835
0.8750308465
0.8681527131
0.864751619
0.8628332952
0.858344817
0.8554173017
0.8552849858
0.8537822413
0.8509469142
0.850311062
0.8493052818
0.8475440691
0.8475218827
0.8487326151
0.855462156
0.8814168756
0.9213960248
0.9616478093
0.9869212973
1.004664819
1.005929945
1.005136694
1.006570017
1.007112394
1.007249413
1.007365002
1.007501902
0.9031605962
0.8985924579
0.8906071448
0.8874356431
0.8847984597
0.8788367209
0.8740227581
0.8715503315
0.8671767754
0.8618664177
0.8599660026
0.8577823138
0.853001016
0.8522446188
0.8517007815
0.8494220124
0.8486373455
0.8491595047
0.8490884991
0.8514585329
0.8647186408
0.9002189402
0.9406970052
0.9763280904
0.9865895629
0.9978392852
1.007863324
1.007558708
1.007133167
1.006965191
1.006919223
0.9130683191
0.9089667619
0.9009113509
0.8959973808
0.8927152193
0.886292753
0.8807845447
0.8791338798
0.8762441648
0.871034865
0.8683065147
0.8660567739
0.8610613617
0.8574878131
0.8556418275
0.8523033265
0.8494388527
0.8496273345
0.8491233033
0.8487815375
0.8494734945
0.8554288164
0.8774065445
0.9123715596
0.9549081167
0.9894221401
1.005165771
1.003464664
1.004408882
1.003731164
1.003761734
0.9216807334
0.917556594
0.9095216081
0.9042173226
0.9015692423
0.8964471993
0.8901867674
0.8873450315
0.8838272161
0.8773841422
0.8747221711
0.873140995
0.8692434632
0.8651543508
0.8633654167
0.860718205
0.8563388499
0.8541957388
0.8519171809
0.8492067862
0.8494117146
0.8499458825
0.8517807135
0.8606958068
0.8909534208
0.9306951004
0.9703862526
0.9851024216
0.998620749
1.00104351
1.002563986
0.9321294264
0.9281946409
0.9204005559
0.9138135321
0.9106374828
0.905608842
0.89841732
0.8950316667
0.8920958884
0.8858828278
0.8816229637
0.8793153091
0.874883537
0.8700153251
0.8688603197
0.8671006692
0.863190067
0.8607262839
0.8590675051
0.8550390966
0.8527710039
0.8516403944
0.8510353297
0.8511728151
0.8554557488
0.8720948243
0.9076946175
0.9551800471
0.9898695686
0.9982344066
1.003271517
0.9412850049
0.9375531939
0.9306318923
0.9230371947
0.9193579341
0.9147004507
0.9066728186
0.9029415221
0.9004528907
0.8950836852
0.890203416
0.8877621111
0.8839567156
0.8779813623
0.8751619536
0.8726548303
0.867472578
0.8649548082
0.8637891595
0.8611009698
0.8578765059
0.8566507889
0.854872428
0.8525435465
0.8527413397
0.853953632
0.8615898159
0.8882912427
0.9279706025
0.9643029934
0.9912410356
0.9503061082
0.946392815
0.9400520188
0.9317726193
0.9283787173
0.9246930446
0.9172499451
0.9120464075
0.908730821
0.90269891
0.8965697284
0.894531632
0.8916694742
0.8860717194
0.8828231015
0.8806723168
0.876067027
0.8717322128
0.8694578805
0.8662869283
0.8613616285
0.8603296671
0.8590682274
0.8557356935
0.8547807312
0.8549771781
0.8546722015
0.8573695531
0.8710140365
0.9076256562
0.9438799683
0.9610527901
0.9564600925
0.9504072959
0.9407544385
0.9361386479
0.9323502606
0.9248282957
0.9193349841
0.9168523195
0.9123402882
0.905763068
0.9025974826
0.8992617168
0.8927330641
0.8892619719
0.8875767035
0.8837962674
0.8790026935
0.8768788835
0.8745132372
0.8698549821
0.8667106028
0.8645199423
0.8603805585
0.8567022489
0.8564011357
0.8553463878
0.8548845783
0.8556259216
0.8627587412
0.8841735981
0.9702424519
0.9654748368
0.9604782682
0.9511621413
0.9453625023
0.9416367707
0.9341579327
0.9273805469
0.9247348821
0.9205598285
0.9134114386
0.9097629403
0.9070630343
0.9011852496
0.8963988403
0.8940377247
0.8899978087
0.8841746928
0.8824223936
0.8807485445
0.8766017446
0.8733236191
0.8717441305
0.868953487
0.8642896867
0.8615857452
0.8587966278
0.8552092228
0.8554327557
0.8561709325
0.8583385019
0.9798021157
0.973913187
0.9694133436
0.9605439622
0.9538561236
0.9505411257
0.9442961937
0.9362449769
0.9325885
0.9284556107
0.9203444394
0.9161933357
0.9140776256
0.909252308
0.9039303144
0.9016887127
0.8985212184
0.8924629686
0.8890673821
0.8867509201
0.8817929205
0.8779003784
0.8768422315
0.8747508636
0.8707361631
0.8681478705
0.8664070128
0.8620137782
0.8587909872
0.8572800874
0.8568060799
0.9909644917
0.983511587
0.978868762
0.970147323
0.9615514487
)
;

boundaryField
{
    inlet
    {
        type            fixedValue;
        value           nonuniform 0();
    }
    outlet
    {
        type            inletOutlet;
        inletValue      nonuniform 0();
        value           nonuniform 0();
    }
    bottom
    {
        type            slip;
    }
    top
    {
        type            slip;
    }
    obstacle
    {
        type            zeroGradient;
    }
    defaultFaces
    {
        type            empty;
    }
    procBoundary28to21
    {
        type            processor;
        value           nonuniform List<scalar> 
19
(
1.013444228
1.013238745
1.012898104
1.01272038
1.013027381
1.013366777
1.012699294
1.012699294
1.012576089
1.012389341
1.012058826
1.011825478
1.011955727
1.012435768
1.012676205
1.011685591
1.011685591
1.011250567
1.011009792
)
;
    }
    procBoundary28to22
    {
        type            processor;
        value           nonuniform List<scalar> 
36
(
1.011942391
1.011324003
1.011017173
1.01141139
1.012120119
1.012786505
1.012966892
1.012900806
1.012730925
1.012522388
1.012018551
1.011832039
1.011541097
1.011657034
1.012045931
1.012975772
1.013661269
1.013604484
1.013149118
1.012970023
1.012956382
1.013012916
1.012700881
1.012443489
1.01241716
1.012068956
1.011911042
1.011911042
1.012983072
1.012834072
1.013058258
1.013162573
1.012992231
1.012252987
1.011516954
1.011516954
)
;
    }
    procBoundary28to23
    {
        type            processor;
        value           nonuniform List<scalar> 3(1.012031374 1.012712769 1.013406888);
    }
    procBoundary28to27
    {
        type            processor;
        value           nonuniform List<scalar> 
55
(
1.010917357
1.011025356
1.011171238
1.011163095
1.011080817
1.010737203
1.010737203
1.010560649
1.010449307
1.010413482
1.010482805
1.010505384
1.010420756
1.010481391
1.010808493
1.010808493
1.010847109
1.011038452
1.011357483
1.011692593
1.011887494
1.011995563
1.011827799
1.011787994
1.011422762
1.011422762
1.010434017
1.009238664
1.004552635
0.993046736
0.9752260407
0.905892272
0.8538057992
0.8431165166
0.8423924853
0.8421813222
0.8426541835
0.8461983484
0.8495265412
0.8531136474
0.8616170628
0.8704085688
0.8773126131
0.8868366292
0.8971086064
0.9062042546
0.9164338341
0.926447878
0.9377516623
0.9479540679
0.9586257544
0.9702484074
0.9803841617
0.9911699468
1.001513303
)
;
    }
    procBoundary28to29
    {