/*--------------------------------*- C++ -*----------------------------------*\
  =========                 |
  \\      /  F ield         | OpenFOAM: The Open Source CFD Toolbox
   \\    /   O peration     | Website:  https://openfoam.org
    \\  /    A nd           | Version:  7
     \\/     M anipulation  |
\*---------------------------------------------------------------------------*/
FoamFile
{
    version     2.0;
    format      ascii;
    class       volScalarField;
    location    "3";
    object      rho;
}
// * * * * * * * * * * * * * * * * * * * * * * * * * * * * * * * * * * * * * //

dimensions      [1 -3 0 0 0 0 0];

internalField   nonuniform List<scalar> 
2222
(
2.343571158
2.312237256
2.29841804
2.294368918
2.295464556
2.281185126
2.2518745
2.225947396
2.201414927
2.187638031
2.179345742
2.166381462
2.150546659
2.138573766
2.122535722
2.102174165
2.078998936
2.051697663
2.024417041
2.00648794
1.995176244
1.986375124
1.981828248
1.970639912
1.957957183
1.956650145
1.952597478
1.935037951
1.924422799
1.915434549
1.89841751
1.890843272
1.887476951
1.870438797
2.335198254
2.307775065
2.297783256
2.298114
2.299257757
2.278897824
2.24777327
2.222633788
2.199535594
2.186902785
2.179314388
2.166759362
2.151806796
2.138430182
2.121670991
2.099296702
2.074334756
2.047140322
2.023098958
2.007178982
1.997994771
1.989832884
1.985411556
1.974600975
1.960951675
1.958127502
1.953438214
1.935675339
1.923869715
1.915541423
1.899476213
1.892747418
1.890986643
1.874060466
2.329684456
2.306259763
2.299549516
2.30361106
2.300906029
2.276066002
2.244509277
2.21964977
2.198740391
2.187112117
2.179891404
2.167703891
2.152804845
2.137809122
2.118754997
2.094770836
2.068824183
2.042781758
2.02138238
2.008262657
2.001302424
1.993369953
1.988924068
1.978029126
1.96324104
1.959551856
1.954631375
1.936665117
1.923444141
1.915737689
1.900333337
1.894321105
1.89400471
1.877472008
2.323203381
2.304884499
2.304940154
2.308621398
2.300212687
2.272496832
2.241350973
2.217570778
2.198458551
2.18775148
2.180686889
2.168306944
2.153060581
2.13680646
2.116058743
2.090845316
2.06360554
2.039538219
2.020838909
2.010207491
2.005453017
1.997992468
1.993350524
1.981449066
1.965623346
1.961181358
1.956452425
1.938087302
1.923148275
1.915951067
1.901080505
1.895836831
1.896474733
1.880246045
2.31235335
2.302383441
2.309089092
2.310473229
2.29720181
2.268379585
2.238251405
2.216314981
2.198587592
2.188745382
2.181354685
2.168372783
2.152940808
2.135770786
2.114160413
2.086865157
2.059732079
2.036460792
2.021086536
2.013096702
2.01027562
2.004130234
1.99919095
1.985397561
1.96850418
1.963043477
1.957553495
1.939929873
1.922966043
1.916258456
1.901917061
1.897436246
1.898349016
1.882391681
2.299840939
2.305073137
2.316414502
2.311321571
2.292971447
2.263673484
2.235739424
2.215413857
2.199054695
2.189801308
2.181476067
2.167989219
2.152653825
2.134323939
2.111284426
2.083418354
2.055955856
2.034517667
2.021842461
2.016334163
2.015937229
2.011376199
2.005762132
1.99018512
1.972043562
1.964960809
1.957348382
1.939874279
1.922854241
1.916793663
1.903148187
1.899112938
1.899821551
1.884177811
2.295647009
2.312855316
2.323680737
2.309667905
2.287626534
2.259412211
2.234192603
2.214898311
2.199857037
2.190817866
2.181260823
2.167955568
2.151652055
2.131833109
2.108040436
2.08014749
2.052536149
2.034239247
2.023085696
2.019609084
2.021940874
2.017469842
2.012409423
1.996165102
1.976138572
1.966736881
1.957434051
1.940151684
1.923027457
1.917853396
1.905190611
1.900816448
1.900740528
1.885219803
2.298210795
2.325279393
2.324350408
2.305313341
2.28288022
2.256605216
2.232947592
2.214612954
2.201204869
2.191928672
2.180862905
2.167216158
2.149410668
2.128204846
2.104277684
2.075760229
2.050488479
2.034540799
2.02464632
2.023244255
2.026569228
2.022551429
2.019199272
2.003047113
1.980550277
1.96865382
1.958088661
1.940834544
1.923633968
1.919684089
1.908092258
1.902467206
1.901119395
1.885766646
2.305119151
2.334195378
2.323061133
2.298775382
2.277622056
2.253671822
2.231067339
2.214467254
2.20329762
2.193314133
2.180736317
2.16588112
2.146009225
2.1239297
2.100172591
2.071350184
2.04960483
2.035766659
2.027227459
2.027902489
2.030508084
2.027963517
2.025151896
2.009751884
1.985680176
1.97132539
1.959530875
1.94212829
1.924967008
1.922195708
1.911211052
1.904061286
1.901341323
1.885893422
2.257996031
2.310416649
2.336342032
2.31645358
2.290265461
2.27018575
2.248912088
2.228515523
2.214944206
2.205870211
2.195169826
2.180957933
2.164734785
2.142807224
2.120389281
2.095215491
2.067603855
2.04923096
2.038272001
2.031631514
2.033688676
2.035691163
2.031896409
2.029186133
2.016085163
1.992828084
1.975677066
1.962248333
1.944591674
1.927541121
1.925147151
1.914256774
1.905783613
1.901643603
1.886103032
2.249329749
2.31391359
2.332687191
2.30696014
2.282129959
2.261782831
2.243286597
2.22721272
2.216400635
2.208715161
2.197252979
2.182133384
2.164213376
2.140240293
2.11625679
2.089963316
2.065753225
2.049757248
2.042492722
2.03839054
2.041076272
2.042304361
2.035810258
2.032713461
2.022014349
2.000969134
1.981554541
1.967079755
1.949068216
1.931726661
1.928742756
1.917747871
1.907820989
1.902254792
1.886590564
2.242115076
2.313567286
2.326587408
2.302386801
2.277147878
2.257360334
2.241026009
2.227589674
2.218661839
2.211654226
2.199388802
2.183377777
2.163765518
2.137493834
2.111946021
2.08665188
2.063922629
2.051132075
2.047403463
2.04495525
2.048144326
2.048874098
2.041079549
2.036840578
2.025946444
2.003468102
1.988187969
1.974101506
1.95623873
1.937875147
1.933473145
1.921973382
1.910266455
1.903521818
1.887776325
2.23686848
2.309892181
2.321330287
2.298255474
2.274666102
2.255617806
2.240009368
2.229959001
2.221769432
2.215094319
2.20158195
2.18414721
2.162415121
2.134579755
2.10906738
2.083423625
2.061659454
2.05198304
2.050772378
2.050176661
2.053901315
2.052889915
2.046659227
2.041345654
2.028113908
2.00395444
1.988831459
1.981467923
1.965588146
1.946255368
1.939254619
1.926573327
1.913192493
1.905729042
1.889971364
2.233623834
2.305394682
2.316090173
2.293366146
2.272469157
2.253635808
2.238388012
2.232032211
2.225969021
2.220207196
2.204994371
2.18448358
2.159455622
2.130687409
2.105558335
2.07973193
2.060699534
2.052343022
2.053002664
2.053212594
2.057405996
2.055422345
2.052249038
2.045557732
2.029844289
2.004406595
1.989145714
1.982759269
1.972484698
1.954346051
1.94498131
1.931657711
1.91707373
1.9091194
1.892673114
2.231847246
2.300828768
2.310925505
2.288617222
2.268675981
2.25045624
2.235990003
2.232193479
2.227939681
2.222173415
2.206057704
2.183057209
2.154933767
2.125993619
2.10101852
2.077442196
2.060577665
2.053099472
2.054867336
2.054046358
2.058176108
2.058524866
2.055718787
2.047683305
2.03105883
2.005853435
1.990226362
1.983255449
1.974404276
1.958435932
1.95021324
1.938595707
1.923045508
1.91343353
1.894788987
2.231654276
2.293805955
2.304782414
2.282946975
2.262841087
2.247623298
2.234849471
2.231229836
2.228227612
2.221701221
2.205504059
2.1809112
2.150606515
2.120705598
2.096624017
2.076553933
2.061841362
2.055319769
2.056363545
2.054251261
2.058171845
2.060257835
2.056609685
2.048576473
2.032195525
2.007670726
1.991519374
1.984075359
1.975554512
1.960788691
1.9556347
1.947387662
1.929859234
1.91693299
1.896305223
2.231786035
2.283445471
2.294492424
2.274855189
2.258197359
2.248097215
2.235442243
2.230923303
2.227774542
2.220847316
2.204410296
2.178749837
2.146556818
2.115190093
2.093762155
2.076666911
2.063425424
2.058147927
2.058076517
2.054276688
2.057916136
2.059771948
2.055745747
2.04844156
2.033074396
2.009832445
1.992867811
1.985263768
1.976914322
1.963460205
1.959874901
1.951666368
1.93230085
1.91876946
1.897899752
2.227412166
2.274025521
2.278801922
2.26466281
2.25790113
2.249643063
2.237141367
2.230995592
2.227065457
2.219953611
2.203091223
2.176990902
2.143255027
2.112297791
2.092362201
2.075739211
2.064253859
2.062526448
2.061841691
2.055590401
2.058442275
2.059292178
2.053484356
2.04707455
2.033499915
2.011280266
1.994271535
1.986749726
1.978787801
1.966464163
1.961506407
1.952835348
1.932861636
1.920148554
1.900190896
2.21969746
2.26359365
2.260442884
2.257870038
2.258684287
2.25070669
2.23915658
2.231813681
2.226566706
2.218466938
2.201202649
2.175403686
2.140962439
2.110298024
2.089572475
2.074073506
2.066470795
2.068435692
2.068158426
2.059733006
2.060170183
2.058914252
2.051307961
2.045151879
2.032767628
2.011618901
1.995439296
1.988297685
1.981146426
1.96858221
1.962590779
1.953409372
1.933486526
1.921898941
1.903761603
2.207666145
2.251324298
2.248071978
2.254322343
2.258619849
2.250079411
2.239485079
2.232436893
2.226930605
2.217042121
2.199225398
2.172934277
2.137971712
2.106442893
2.085460154
2.072713141
2.068413797
2.073076257
2.074011547
2.065394546
2.062989403
2.059611424
2.050811216
2.043956813
2.03174518
2.01137341
1.996347176
1.989553164
1.98289412
1.970206544
1.963428029
1.954742582
1.934586268
1.924651599
1.908137346
2.201515758
2.23712086
2.240574134
2.251188548
2.257322142
2.248056375
2.239173194
2.232308897
2.226761343
2.21536488
2.196035879
2.168423619
2.132808705
2.102008584
2.084034352
2.073864105
2.07163276
2.077758448
2.0798292
2.070776467
2.067596735
2.061576398
2.050955808
2.043111208
2.030596363
2.011167195
1.997002591
1.990436031
1.984338939
1.971539953
1.96433766
1.95700558
1.937373655
1.928188001
1.911597074
2.202477742
2.224615567
2.235979001
2.246703369
2.253337499
2.245784574
2.238227598
2.232031732
2.22563327
2.212649074
2.191214141
2.161652852
2.1270629
2.100590293
2.085091306
2.076602967
2.076912452
2.083050961
2.08361173
2.073283132
2.069604822
2.06403601
2.051061691
2.041636401
2.029386272
2.011650334
1.997624817
1.99110656
1.98541835
1.972370982
1.964995134
1.959886384
1.941795261
1.930599876
1.914421313
2.204936777
2.210542363
2.232430717
2.239778323
2.248228355
2.243128883
2.236535007
2.230872988
2.222795501
2.208269972
2.184280955
2.154627833
2.124419021
2.100474479
2.086989288
2.082100522
2.08348286
2.086042154
2.084785372
2.07275509
2.069333492
2.06432462
2.050685979
2.040171886
2.02933795
2.012865252
1.998399991
1.991736459
1.986076014
1.972869403
1.965315453
1.961444429
1.944201539
1.931944257
1.917306997
1.659800959
2.209060504
2.204933499
2.229204456
2.232253531
2.243845537
2.240556904
2.234693459
2.228842056
2.219220726
2.202688454
2.177337142
2.151198699
2.12291027
2.100515523
2.090237886
2.088568796
2.08781555
2.087990312
2.084571905
2.073264628
2.069424451
2.063877033
2.050006757
2.039789344
2.030234576
2.01434034
1.999598625
1.992817209
1.986639742
1.973830159
1.965627039
1.962017707
1.945502942
1.933260513
1.921042788
1.636149452
2.213985478
2.205796509
2.225420004
2.226125971
2.239314441
2.237876397
2.233288993
2.226704033
2.21587935
2.197842875
2.173701805
2.148454462
2.120793688
2.101693977
2.093720291
2.09318698
2.089625538
2.089464053
2.086046222
2.074853609
2.069936933
2.064001189
2.049519961
2.039448344
2.031540425
2.015354647
2.000559603
1.993955896
1.98761419
1.975418596
1.966189194
1.961856971
1.946230616
1.935122908
1.926519028
1.602986824
2.21595976
2.209779518
2.218925093
2.220293219
2.234161114
2.234683899
2.23161942
2.223850229
2.211248826
2.192750957
2.170609108
2.144832648
2.119986232
2.103851388
2.098461253
2.097426888
2.091232104
2.09154011
2.089160802
2.077337659
2.070452272
2.062392799
2.047371774
2.038441976
2.032114725
2.01714079
2.002782169
1.996722232
1.98939389
1.977368802
1.966955325
1.961973559
1.947466435
1.938608045
1.930734274
1.561867897
2.213193583
2.218086373
2.207550886
2.212716307
2.228013012
2.23026768
2.22772552
2.21864312
2.205649725
2.187277648
2.166121803
2.141517134
2.121583734
2.11030857
2.105303904
2.101534107
2.093018305
2.093966555
2.093640149
2.081091356
2.070653224
2.061426339
2.046438222
2.036732149
2.031690814
2.018165662
2.004411661
1.999890159
1.991095049
1.979413824
1.968049444
1.96297549
1.949253624
1.942026976
1.932046884
1.522072697
2.208354586
2.224574137
2.198383113
2.204121553
2.219784988
2.223648361
2.222644795
2.214002842
2.199806587
2.179826934
2.159513557
2.139912031
2.125436247
2.117038219
2.112146425
2.104899089
2.09429418
2.095750341
2.097381199
2.084888744
2.071659694
2.060688782
2.045187171
2.034336439
2.030050719
2.018450684
2.00663154
2.004104246
1.996935586
1.980339435
1.968808776
1.964413934
1.952721805
1.943302504
1.93272642
1.490113226
2.198912714
2.226807641
2.197224135
2.197600202
2.209327569
2.215808192
2.219602607
2.212085511
2.195341146
2.171600125
2.15444466
2.140055898
2.128967351
2.121262792
2.116296315
2.106999804
2.095499335
2.097352445
2.099445124
2.08771673
2.07267345
2.059927082
2.043618241
2.032701163
2.028740112
2.018534459
2.006925371
2.005178882
1.999891387
1.984476027
1.971884028
1.966059019
1.955122694
1.944540561
1.932790283
1.460905966
2.195064124
2.225881752
2.19871606
2.19082921
2.197739276
2.209142247
2.216765032
2.21023358
2.191955833
2.16785521
2.152845088
2.140539538
2.131196452
2.122031354
2.117126819
2.108903262
2.098507934
2.100405069
2.101787803
2.08945914
2.072922411
2.058841581
2.042876808
2.032385125
2.02831474
2.018418642
2.006853832
2.005339308
2.00177242
1.988308164
1.975905531
1.969361377
1.957594019
1.945617175
1.933872705
1.427176992
2.194790774
2.225780856
2.201077183
2.184255008
2.1894393
2.2040871
2.211713116
2.204855235
2.186332099
2.164686019
2.150901884
2.139953602
2.130499787
2.122507594
2.119413759
2.112407938
2.103468641
2.105487835
2.103168153
2.089365253
2.07253791
2.057784056
2.042856219
2.03262364
2.028943659
2.018356827
2.006689919
2.005231366
2.002990519
1.992230181
1.98130816
1.974746332
1.961880913
1.948942435
1.936255729
1.388829582
2.194537893
2.228716809
2.203404167
2.184654497
2.18783211
2.198988371
2.202857303
2.193994336
2.175688249
2.158143793
2.147037637
2.135337622
2.127289562
2.125767245
2.122798578
2.116683551
2.109624035
2.111280301
2.103891007
2.087868758
2.070806276
2.057543925
2.043534121
2.034031662
2.030407504
2.018733356
2.006453395
2.004665708
2.003435767
1.994719399
1.984876289
1.980058265
1.967690302
1.954324372
1.940310441
1.350608257
2.194998933
2.231697807
2.204544427
2.187965185
2.188023971
2.191855769
2.189764431
2.178754625
2.162221692
2.14905734
2.141283573
2.135431318
2.131280181
2.129105905
2.125051745
2.119866691
2.115771991
2.114643119
2.104356635
2.085055294
2.068191753
2.057697575
2.046082168
2.036853936
2.031692715
2.019489845
2.005833532
2.00328202
2.002731825
1.99567522
1.987827261
1.98521749
1.973777648
1.960675255
1.945644253
1.316665271
2.191978327
2.232325711
2.203480674
2.189645195
2.18572857
2.181160994
2.174115637
2.165266764
2.153497641
2.146149825
2.144156805
2.14191411
2.139200351
2.131175714
2.125669842
2.120853035
2.119201219
2.116307847
2.104180076
2.082068054
2.066576161
2.058472742
2.050231713
2.039732845
2.033001086
2.020310054
2.004498248
2.001294271
2.00083784
1.995412802
1.989683998
1.989223415
1.979608938
1.96671638
1.95027561
1.286661426
2.184295141
2.231723981
2.200769593
2.187891897
2.176579757
2.167030864
2.162702581
2.156941226
2.149295862
2.145947584
2.149777833
2.152546152
2.146927757
2.132872241
2.126572515
2.12144622
2.120210963
2.116558784
2.10296601
2.081468273
2.066176237
2.060323405
2.053166398
2.043486085
2.035536596
2.022089442
2.005087083
2.000963557
1.999056561
1.994550829
1.990661883
1.991405986
1.98309651
1.971280537
1.953860653
1.259927261
2.170527423
2.229775508
2.199743106
2.182321797
2.163898879
2.152833155
2.155879671
2.150893275
2.147041513
2.14762223
2.158019296
2.161157754
2.150815878
2.135013378
2.125573424
2.122388427
2.119977646
2.115433628
2.101694846
2.081626743
2.066941059
2.060421704
2.054709141
2.047448532
2.039021166
2.025314936
2.007230461
2.001753053
1.998574275
1.993827554
1.99069105
1.992338745
1.985341031
1.974106677
1.95662876
1.236577506
2.151701272
2.22864953
2.200988511
2.179451849
2.157553448
2.142351147
2.149178378
2.145018335
2.144764152
2.150152868
2.162703287
2.163460224
2.150927521
2.136386741
2.130528382
2.122486908
2.119390693
2.113533285
2.101081438
2.082491998
2.068621357
2.060342732
2.055536813
2.050513964
2.042402735
2.029267047
2.011343432
2.00295359
1.9990169
1.993646012
1.990447857
1.992095982
1.986039141
1.975598451
1.959418254
1.124301759
1.215280506
2.126726982
2.229385759
2.203843966
2.180611986
2.155285514
2.137043564
2.14109259
2.13875516
2.142324454
2.152578062
2.164614556
2.162277087
2.148635097
2.139693422
2.135839517
2.128127579
2.12092973
2.111988045
2.100338973
2.08427091
2.069975984
2.060700676
2.055872966
2.052632488
2.045789194
2.033613534
2.015853919
2.004686703
1.999636095
1.993469397
1.989895594
1.991432528
1.986113826
1.977579237
1.96268849
1.121456427
1.194597785
2.09651142
2.230685551
2.207310231
2.182532575
2.154853432
2.134980748
2.132038295
2.131072573
2.137716412
2.152541659
2.162790861
2.156703693
2.147695788
2.142799762
2.14083961
2.131343177
2.121789176
2.110086364
2.09882528
2.083994615
2.070798643
2.061603689
2.056356812
2.054449545
2.048881869
2.037285633
2.019528994
2.00760642
2.000565178
1.993036356
1.989023154
1.99110839
1.987065757
1.979753227
1.966172084
1.120060085
1.174855465
2.066716761
2.231529708
2.208134784
2.182652621
2.151520688
2.12816938
2.119337636
2.119301564
2.130289051
2.152875807
2.1594303
2.15362184
2.147056556
2.144274043
2.14306823
2.133072108
2.121712059
2.109288799
2.098033739
2.083958573
2.07147102
2.062593187
2.057328443
2.056555057
2.05174909
2.040140177
2.022582075
2.00969949
2.001461089
1.991632214
1.988937645
1.991660492
1.98830113
1.982762943
1.968184265
1.119011063
1.157995467
2.041086139
2.229922077
2.205228747
2.178251408
2.14104667
2.111941218
2.101782019
2.108301003
2.131133076
2.159172875
2.161377739
2.153332359
2.147069747
2.144741482
2.143878343
2.132269942
2.121927551
2.109489786
2.097995762
2.084983919
2.072663032
2.063986042
2.059121896
2.059475212
2.055248049
2.043577668
2.02615998
2.011874509
2.001417717
1.992265355
1.989834784
1.992733608
1.99082238
1.985538147
1.968816214
1.116747074
1.143869995
2.02009107
2.22397791
2.197414958
2.168088282
2.126498387
2.096943414
2.093877113
2.108251899
2.135913735
2.16653452
2.164206054
2.154862031
2.148255312
2.145177758
2.142861242
2.132116909
2.122582959
2.110306739
2.099342105
2.086280615
2.074179479
2.066333403
2.062682955
2.063230699
2.058475939
2.046138272
2.029057653
2.013204947
2.001838192
1.993164123
1.99116574
1.994305135
1.994275986
1.986004132
1.968723405
1.113554355
1.132399769
1.998748723
2.214298439
2.188246573
2.157350782
2.121288918
2.094662218
2.094451204
2.112819555
2.140234801
2.168471106
2.167354556
2.158467491
2.148122101
2.142673922
2.140511143
2.132518168
2.123786089
2.113152595
2.101054249
2.087552974
2.07626335
2.070315693
2.066611021
2.064808649
2.059048616
2.046137208
2.029662665
2.013339064
2.002419822
1.994833782
1.993487659
1.996955875
1.9958331
1.985466126
1.968370448
1.110950228
1.124245784
1.968992308
2.205590276
2.180942307
2.148810677
2.119232134
2.095015191
2.100374111
2.121160774
2.143069411
2.165612677
2.169235373
2.161774806
2.152756303
2.145515584
2.140988167
2.132021377
2.12369824
2.113834916
2.101568893
2.088969419
2.079324353
2.074884537
2.068111558
2.06433809
2.058327426
2.045328666
2.029310258
2.012711056
2.003749564
1.998212108
1.998427421
2.000485082
1.995936661
1.984001876
1.968574227
1.110100014
1.119565293
1.92483104
2.198056922
2.175357202
2.140808199
2.11879982
2.101024162
2.11364782
2.130894976
2.145326164
2.161123541
2.168323932
2.160465337
2.15280859
2.148691258
2.143590424
2.131836838
2.121786432
2.112714385
2.101623328
2.090612678
2.083207135
2.078418352
2.069603226
2.063413912
2.056355771
2.042965227
2.027704716
2.01307037
2.00657516
2.005397133
2.005668455
2.002921532
1.995423195
1.983287512
1.969423123
1.109929699
1.117041698
1.87209536
2.190112614
2.169424914
2.135847121
2.119554964
2.108623517
2.123874835
2.137843666
2.146080545
2.153613269
2.16129008
2.154971485
2.154642855
2.153978705
2.147314781
2.130542699
2.118841868
2.110498042
2.101598346
2.092685046
2.087152947
2.081564375
2.071325085
2.063229596
2.054145728
2.040150138
2.026994692
2.01480613
2.013500693
2.0159684
2.009196968
2.003584154
1.995368748
1.983423357
1.97075939
1.107725604
1.11447793
1.833491127
2.181142951
2.162538581
2.135356506
2.117100268
2.113394189
2.128336817
2.13644567
2.141533449
2.146073423
2.153159359
2.155143035
2.158956065
2.15911307
2.148375771
2.128226348
2.116344955
2.108963947
2.101852916
2.095259617
2.09109181
2.085095737
2.073628563
2.063705793
2.053837653
2.03908303
2.026682417
2.020753684
2.024300796
2.021427989
2.009728788
2.003883544
1.995582715
1.984070709
1.972635384
1.101526047
1.109426306
1.812007588
2.171078008
2.154297261
2.135320238
2.115177222
2.115478066
2.122999382
2.12896961
2.137674281
2.147231064
2.154494704
2.158212362
2.162891662
2.159822822
2.147634392
2.126369627
2.115994079
2.108933331
2.102897609
2.098332986
2.095585967
2.089832572
2.077406681
2.065272777
2.054327054
2.039169914
2.030471168
2.031445456
2.030184742
2.022013877
2.009502
2.004177351
1.996173332
1.985373825
1.975054419
1.096354192
1.103351541
1.79561254
2.158155939
2.144079007
2.131594789
2.114764937
2.113793335
2.117892151
2.12865935
2.137494756
2.150243662
2.159689399
2.162750549
2.163588881
2.158680815
2.142999525
2.125889602
2.116677738
2.110079934
2.104939182
2.102351045
2.100875984
2.094770392
2.082272814
2.068887251
2.057190959
2.043812165
2.042118478
2.038878605
2.03038782
2.021307435
2.009547586
2.004677641
1.997416569
1.987491923
1.97769327
1.09402528
1.094458534
1.099862677
1.778549744
2.142613791
2.132134558
2.127039977
2.119915811
2.12066616
2.120916774
2.129181967
2.136776473
2.152143293
2.167357212
2.166658963
2.163369232
2.153387513
2.138144427
2.125897359
2.118980197
2.113692241
2.109777057
2.107872022
2.104719227
2.097205742
2.084501771
2.073670507
2.063949693
2.053891197
2.048274927
2.040128854
2.030095056
2.020574495
2.009972687
2.005823293
1.999675664
1.990025065
1.979546636
1.09522378
1.094497449
1.098309252
1.760559651
2.128315177
2.11535163
2.119588631
2.131106365
2.131435174
2.125972342
2.127687654
2.13329708
2.152496914
2.171095638
2.168498999
2.160252318
2.147771886
2.136036213
2.127296132
2.121917093
2.117284417
2.114276613
2.110785644
2.106615083
2.098600695
2.085406312
2.074647801
2.068831041
2.057952737
2.049048267
2.0405729
2.029885315
2.020278947
2.011483515
2.007819417
2.002354025
1.992241166
1.979962812
1.096490375
1.094069343
1.096634901
1.74006272
2.115352912
2.092938253
2.119002279
2.144138535
2.139717009
2.128308002
2.123454101
2.127860118
2.150456187
2.170722461
2.167192759
2.153636983
2.14611596
2.135249012
2.127560616
2.122423108
2.118887967
2.116827001
2.112827442
2.108162682
2.099486347
2.085694968
2.074878765
2.06943782
2.058937321
2.049364254
2.041172502
2.029883634
2.020869071
2.013872381
2.009571169
2.004332708
1.994096578
1.980028825
1.094388223
1.090884949
1.09264266
1.709751328
2.096706279
2.080509485
2.124113659
2.153895099
2.144407205
2.128454385
2.116889502
2.122899519
2.146132208
2.166482482
2.159458333
2.149941023
2.145648299
2.134773109
2.127000673
2.122577201
2.120446014
2.119124068
2.114495434
2.109329103
2.09945778
2.084693944
2.075647865
2.070491619
2.059875625
2.049643342
2.041837971
2.031067791
2.023777542
2.015778397
2.010217387
2.005740649
1.995940421
1.980021002
1.088857927
1.08586747
1.086676896
1.667570381
2.068033945
2.081585616
2.130706711
2.157815578
2.146689432
2.127437777
2.115524277
2.12312975
2.141625053
2.154252692
2.147943281
2.145524653
2.144187356
2.133642941
2.126647728
2.123344395
2.121900866
2.120527614
2.115076321
2.109018591
2.097230227
2.084132747
2.077211647
2.072054549
2.061270341
2.050399333
2.043064335
2.033899771
2.023410515
2.016250485
2.010337824
2.006574008
1.997244641
1.980168372
1.081309564
1.080240285
1.08037453
1.623664906
2.040376254
2.08627964
2.136706363
2.156791529
2.145433439
2.128465112
2.118207352
2.125857266
2.136878843
2.13778971
2.138084346
2.140391695
2.140775527
2.131611266
2.126124483
2.123867257
2.122755507
2.120965433
2.113975184
2.106417731
2.095392567
2.085415597
2.079409716
2.074316655
2.063288229
2.052222693
2.045313289
2.035199622
2.022756559
2.0164027
2.010538397
2.006987671
1.997628398
1.980379668
1.073360225
1.073705761
1.07397887
1.589196175
2.031877575
2.102159234
2.140854021
2.149516937
2.140220762
2.130019845
2.124031822
2.131582147
2.132196719
2.124442487
2.128202706
2.133328939
2.134281907
2.128148487
2.125249348
2.125071118
2.12386656
2.121424963
2.112464835
2.104010153
2.095391281
2.087119427
2.081915522
2.077048165
2.06600922
2.054967834
2.04723056
2.035805546
2.022491191
2.016517363
2.010559254
2.006038875
1.997534006
1.980733355
1.064046843
1.065448489
1.066496902
1.560493476
2.034077989
2.116975726
2.140939394
2.140731927
2.135767377
2.133476729
2.13403934
2.138358119
2.126257444
2.116274224
2.118727131
2.12344884
2.124414886
2.122875385
2.125154712
2.1270263
2.125731409
2.122651344
2.112219007
2.103166838
2.095837594
2.088606264
2.084117058
2.079679048
2.068551492
2.056585057
2.048057554
2.036596626
2.0229905
2.017274154
2.010817807
2.004823738
1.99723067
1.981391066
1.052796696
1.054693464
1.056831741
1.534553036
2.03959252
2.126436617
2.138277523
2.135671982
2.134854248
2.140453699
2.14267866
2.141243975
2.12230182
2.113694424
2.109640225
2.110798422
2.112797036
2.117545507
2.126003029
2.12933789
2.12804707
2.124746545
2.113089035
2.102615529
2.096202017
2.089478106
2.085722584
2.081923974
2.070617409
2.058161496
2.049112821
2.037745229
2.023936408
2.017499541
2.010446164
2.003318614
1.996923101
1.982519687
1.0399269
1.041901206
1.043975584
1.504173141
2.043124041
2.126820753
2.135673821
2.138246657
2.139904775
2.149160232
2.146983392
2.137218016
2.123460827
2.113216174
2.099732486
2.097095306
2.101894869
2.114397374
2.127367247
2.13202257
2.13108894
2.127389521
2.114542682
2.103290251
2.09658161
2.089717779
2.086428956
2.083549828
2.072421366
2.059946895
2.050582506
2.039049661
2.024494715
2.017433597
2.010321317
2.002091783
1.996861821
1.983964856
1.026776862
1.028054437
1.030175434
1.469068686
2.036788748
2.121044435
2.133223776
2.141253322
2.14887346
2.152072352
2.146339827
2.136411875
2.129770321
2.10927314
2.086630556
2.082328094
2.092910119
2.112018972
2.128477912
2.13419163
2.133483721
2.129791711
2.115711601
2.103835012
2.096536173
2.088970807
2.086286717
2.084341397
2.073949198
2.061934222
2.052810398
2.04107844
2.025097581
2.017133501
2.010395923
2.001820555
1.997300641
1.985290427
1.013908624
1.013823669
1.013954054
1.420075316
2.015226546
2.109547694
2.130896455
2.141600604
2.152379873
2.151748191
2.14434011
2.139925497
2.13390011
2.100952043
2.076618315
2.074647698
2.089464721
2.109989225
2.12786231
2.134951355
2.135227825
2.131788942
2.116117384
2.103883581
2.095233017
2.086425863
2.085155133
2.08422809
2.074807458
2.063480187
2.054828875
2.042848639
2.025846741
2.017681496
2.011053708
2.001923102
1.998611231
1.986428217
1.004698621
1.003168658
1.002150037
1.0056017
1.422026439
2.030068267
2.099855858
2.128572237
2.142962602
2.153744444
2.149148802
2.147201078
2.146582128
2.131048258
2.089111584
2.070153556
2.072681278
2.088052203
2.107969608
2.126999888
2.134414323
2.135522343
)
;

boundaryField
{
    inlet
    {
        type            calculated;
        value           nonuniform 0();
    }
    outlet
    {
        type            calculated;
        value           nonuniform List<scalar> 
61
(
1.870539396
1.874169048
1.877568888
1.880338716
1.882466486
1.884242979
1.885290469
1.885837195
1.885938369
1.886112129
1.886552266
1.887671797
1.889823334
1.892588363
1.894812023
1.896352042
1.89790098
1.900097667
1.903594307
1.908090975
1.91170075
1.914518196
1.917271878
1.920766864
1.926107237
1.930625717
1.93204793
1.932793326
1.932885736
1.933874434
1.936259038
1.940280569
1.945676662
1.950398074
1.954005723
1.956723495
1.959411016
1.96255403
1.96605293
1.968217401
1.968883183
1.968821324
1.968399482
1.968514363
1.969305737
1.970569912
1.972372819
1.974736998
1.977404034
1.979423304
1.979929686
1.980030328
1.980028934
1.980179691
1.980383436
1.980714027
1.981327949
1.982411424
1.983847738
1.985202265
1.98639367
)
;
    }
    bottom
    {
        type            calculated;
        value           nonuniform 0();
    }
    top
    {
        type            calculated;
        value           nonuniform 0();
    }
    obstacle
    {
        type            calculated;
        value           nonuniform 0();
    }
    defaultFaces
    {
        type            empty;
    }
    procBoundary17to11
    {
        type            processor;
        value           nonuniform List<scalar> 
34
(
2.355173498
2.319867934
2.30128861
2.291409452
2.289782059
2.281105101
2.256482773
2.230120174
2.20461683
2.189228487
2.17986042
2.1667764
2.149917291
2.137516208
2.122516543
2.104093442
2.082205766
2.055568804
2.026736627
2.006147699
1.99255442
1.982305538
1.97755191
1.966330454
1.953844411
1.954124157
1.95159436
1.934441737
1.925352378
1.915579343
1.897222006
1.888642323
1.883611265
1.866735612
)
;
    }
    procBoundary17to16
    {
        type            processor;
        value           nonuniform List<scalar> 
66
(
2.367746355
2.360224022
2.353512524
2.345586894
2.333747993
2.316851483
2.295682615
2.279260406
2.267997773
2.267997773
1.967628168
1.93539893
1.903032922
1.874935671
1.854799732
1.838296267
1.819647732
1.795211492
1.761526804
1.727413062
1.703173739
1.69441499
1.686552893
1.675958513
1.675958513
1.131120804
1.13077365
1.132154283
1.134066277
1.135053428
1.13470094
1.131117746
1.127566241
1.12593554
1.124949634
1.127164949
1.128116444
1.128640828
1.127611693
1.127611693
1.120027471
1.119898268
1.120581905
1.121281215
1.120360644
1.117376129
1.113627373
1.111353602
1.109914692
1.104545855
1.097761817
1.094669345
1.094669345
1.093893618
1.095269489
1.096748213
1.094801611
1.088599128
1.080460743
1.072280727
1.062999757
1.05175789
1.038988656
1.026150206
1.014525293
1.014525293
)
;
    }
    procBoundary17to22
    {
        type            processor;
        value           uniform 1.006489481;
    }
    procBoundary17to23
    {