/*--------------------------------*- C++ -*----------------------------------*\
  =========                 |
  \\      /  F ield         | OpenFOAM: The Open Source CFD Toolbox
   \\    /   O peration     | Website:  https://openfoam.org
    \\  /    A nd           | Version:  7
     \\/     M anipulation  |
\*---------------------------------------------------------------------------*/
FoamFile
{
    version     2.0;
    format      ascii;
    class       volScalarField;
    location    "2.3";
    object      p;
}
// * * * * * * * * * * * * * * * * * * * * * * * * * * * * * * * * * * * * * //

dimensions      [1 -1 -2 0 0 0 0];

internalField   nonuniform List<scalar> 
2222
(
5.859832748
5.860297333
5.859573919
5.860057607
5.861034327
5.871319703
5.869015763
5.86474546
5.860107396
5.856585444
5.854041348
5.852524664
5.857573296
5.854883353
5.852096673
5.850158761
5.848941272
5.846837579
5.844780366
5.844703337
5.846270626
5.866928586
5.865618321
5.863496815
5.859819262
5.85242999
5.841280167
5.831623563
5.829210108
5.832626732
5.839016986
5.8487245
5.860019305
0.4038988101
0.4042823581
0.4046548885
0.4051110293
0.4064817802
0.4099334271
0.4141406397
0.4151398167
0.4154422693
0.4160056382
0.4164863002
0.4166877769
0.4174538798
0.4188669329
0.4191490611
0.4190142429
0.4182364134
0.4163195015
0.4148469873
0.4142691719
0.4138226003
0.4128148709
0.411279469
0.4102082459
0.409682807
0.409028763
0.4080238379
0.4076047959
0.4075981101
0.4076200568
0.4075649073
0.407293738
0.4070799108
0.4071950437
0.4072973248
0.4072646996
0.4071679587
0.4071933488
0.4072090238
0.4071586397
0.4070301849
0.4069054614
0.4068235622
0.4067717389
0.4067235724
0.4066727467
0.4066122616
0.4065156261
0.4064467534
0.4064137974
0.4063778859
0.4063634383
0.4064340811
0.4065226761
0.4065260955
0.4065218018
0.4065677521
0.4066857374
0.4068929784
0.4069795006
0.4069855892
0.4069993258
0.4070423253
0.4071199315
0.4072115322
0.4072344232
0.407294393
0.3826620244
0.3858826889
0.3888768585
0.3920773925
0.3951393366
0.3983439346
0.4019171117
0.4029936077
0.40317938
0.4035242384
0.4046052779
0.4053178425
0.4058331039
0.4070053585
0.408083016
0.408157175
0.4078383125
0.4073611988
0.4074381772
0.4081638977
0.409287946
0.4097051057
0.4100029758
0.4105348853
0.4113791589
0.411463116
0.4112544551
0.4113821613
0.4117133514
0.4117341873
0.411580819
0.4109732662
0.410275208
0.4099103572
0.409643579
0.4093054387
0.4089566313
0.4086833809
0.40842093
0.4080952853
0.4076714195
0.4074785509
0.4074539723
0.4074727722
0.4074264271
0.4073139722
0.4071985179
0.4071166029
0.4071245948
0.4071609678
0.4071668371
0.4071700291
0.4072368048
0.4072740972
0.4072644488
0.407200717
0.4071912501
0.4072421493
0.4072570672
0.4072465892
0.4072198446
0.4071719995
0.4071126628
0.4070722982
0.4070321308
0.4069644147
0.4069258424
0.3807782457
0.38152046
0.3833324519
0.386363651
0.3871849623
0.3879888196
0.3897870515
0.3901021559
0.3898121866
0.3900773506
0.3917677126
0.3947178039
0.3964572768
0.3974847956
0.3985356572
0.3996689294
0.4007719888
0.4019989463
0.4035366064
0.4056091948
0.4081230074
0.4098466187
0.4103333956
0.4107097666
0.4111941017
0.4114748024
0.4114013873
0.4115729058
0.4119861814
0.4120616959
0.4119012011
0.4112815892
0.410329259
0.410129931
0.410178808
0.4101147608
0.4098321154
0.4094097901
0.4090330045
0.4087485382
0.4083666912
0.4081944547
0.4081884294
0.4082652643
0.4083312566
0.4082797464
0.4080747835
0.407962204
0.4079587794
0.4079828164
0.4080067375
0.4079811048
0.4078903691
0.407775582
0.4076569259
0.4075321573
0.4074057516
0.4072854643
0.4071736112
0.4070659481
0.4069327137
0.4067780924
0.4067054021
0.4066736864
0.406609521
0.4065410665
0.4065062684
0.394130117
0.3902498505
0.3887850198
0.3860831879
0.3822274267
0.3803694971
0.3795214692
0.3773461257
0.376624485
0.3769303238
0.3782986216
0.3799393686
0.3807444961
0.3812278413
0.3819911757
0.3834099563
0.385457114
0.3878537256
0.390089745
0.3925860696
0.3949728316
0.3977310163
0.3998221452
0.4007932073
0.4014070198
0.4027250282
0.4046598481
0.4060144101
0.4067405241
0.4075081749
0.408029999
0.4079807242
0.4078598888
0.4079668714
0.4085293311
0.4092587519
0.4095456762
0.4095740467
0.409641203
0.409865157
0.4101931916
0.4104740566
0.4106496003
0.4107205216
0.4107574736
0.4107154516
0.4103977756
0.4098721741
0.4096563343
0.4095581583
0.4094383132
0.4091980925
0.4088210256
0.4084007503
0.4080435337
0.4077815642
0.4075703284
0.4073879801
0.4072735908
0.4072118905
0.4071261097
0.406924286
0.4068423971
0.4068418037
0.406896198
0.4069744459
0.4069759479
0.4148008992
0.4034843161
0.3981589476
0.3946387352
0.3898139165
0.3855986079
0.3844835825
0.3825312854
0.3804067026
0.3805509749
0.3818861429
0.3822160542
0.3822794672
0.382978054
0.3840857058
0.3853225426
0.3869571179
0.3891093182
0.3900886291
0.3897284232
0.3893086046
0.3894979269
0.3900336825
0.390877156
0.3917105096
0.3927442596
0.3944786761
0.3965312763
0.3978819592
0.3990012446
0.4002292948
0.4016652408
0.403322644
0.4048117718
0.406200196
0.4075979887
0.4087989439
0.4090628732
0.4090382908
0.4091584335
0.4094416964
0.4097429295
0.4098978917
0.4099218784
0.409934621
0.4098993021
0.4096780233
0.4095012682
0.4094962561
0.4095366831
0.4095228619
0.4094413106
0.4092489492
0.4089448773
0.4087780824
0.4087835918
0.4088025449
0.4087651949
0.4086641207
0.4086301245
0.4086004287
0.4084459134
0.4081467842
0.4080556637
0.4080646571
0.4080579896
0.4080071301
0.488746778
0.4734395432
0.4621430483
0.4545445857
0.4446117057
0.433836461
0.4284431237
0.4231897722
0.4144065299
0.4098151754
0.4073020062
0.4035220128
0.3988361977
0.3963696909
0.3937799035
0.3908857048
0.3884576304
0.3877227108
0.3867618623
0.3845713164
0.3835024057
0.3834726694
0.3833265033
0.3832939793
0.3835165819
0.3842901093
0.3851832187
0.3858659654
0.3864814047
0.3871904504
0.3883063917
0.389902236
0.3921535039
0.3945093379
0.3964895702
0.398038659
0.399663876
0.4013903911
0.4025759849
0.4033156315
0.4043606864
0.4058017592
0.4064593153
0.4066837286
0.4069106418
0.4073631905
0.407402148
0.4074186909
0.4076628896
0.4080810793
0.4083159508
0.4085167531
0.4087444561
0.408874048
0.4090163948
0.4092495877
0.4096019072
0.4099042647
0.4099472197
0.4099101831
0.4098535743
0.4097567511
0.409584899
0.4094240478
0.4093172337
0.4092330218
0.4090372098
0.5639350407
0.5440215059
0.5259844043
0.5138505131
0.5016505543
0.4838616769
0.471087542
0.4627387702
0.452867097
0.4405093587
0.4323046338
0.4257594439
0.4172053637
0.4097956823
0.4050110976
0.4006631299
0.3946043511
0.3926772474
0.3917697521
0.3894791065
0.3868791742
0.3868145399
0.3869994418
0.3863017639
0.3861115534
0.3868776276
0.3880999137
0.3881363381
0.3883888949
0.3890425813
0.3899289595
0.3903524938
0.3904941238
0.3909658939
0.391271534
0.3911260674
0.3912212039
0.3918519274
0.3931361366
0.3942822206
0.3952853779
0.3966004647
0.3983443398
0.3995567214
0.4004554585
0.4015146674
0.4027322061
0.4038885552
0.4050833198
0.4062352341
0.4069967266
0.4073964951
0.4078246751
0.4081294403
0.4081581142
0.4082843349
0.408670065
0.4090767334
0.4091145641
0.4090630785
0.4090037888
0.4090513619
0.4090777032
0.4090808373
0.4091314745
0.4091593008
0.4091276828
0.6541318356
0.6330760081
0.6080819468
0.5922972974
0.5795933019
0.5609028126
0.5428997491
0.5310468619
0.5203669282
0.5052134125
0.493808901
0.4852662953
0.4744990088
0.4625587812
0.456279613
0.4507004815
0.4404276182
0.4331407096
0.429205093
0.4240815854
0.4164169195
0.4129413123
0.4102201217
0.4060955963
0.4025436187
0.4008761774
0.3985346024
0.3954755182
0.393531644
0.3925231775
0.3908003171
0.3889551415
0.388055755
0.3881229748
0.3875849988
0.3866855448
0.3866867119
0.3869662319
0.3873235234
0.3876495821
0.3879736754
0.3884451575
0.389209244
0.3901554856
0.3911378232
0.3921518506
0.3936436391
0.3953857503
0.3969762708
0.3986188819
0.4001040119
0.4010825487
0.4019203047
0.4031054653
0.4040975244
0.4046992915
0.405244427
0.4061947767
0.4065838521
0.4065992541
0.4067108067
0.407087733
0.4075041823
0.4076897881
0.4078412648
0.4081088014
0.408376165
0.7449773408
0.7249632822
0.6982468264
0.6768757889
0.6607937841
0.6406048082
0.619701499
0.6045474512
0.5909436678
0.5722141545
0.556539018
0.545455539
0.5334309483
0.5171813766
0.5057362433
0.4974507094
0.4867858751
0.4742339351
0.4657355624
0.4586164244
0.4486827032
0.4399527198
0.4341220049
0.4283301592
0.4204067648
0.4149238958
0.4109506997
0.4064452783
0.400709254
0.3985547459
0.3969641581
0.3944705507
0.3921606529
0.3919595143
0.3913001922
0.3898134377
0.389688221
0.3902071407
0.3901329412
0.3897846165
0.3899517802
0.3907306311
0.3913459385
0.3915472801
0.3920159082
0.3925202179
0.3924177871
0.3921893969
0.3922406555
0.3924935802
0.3930337687
0.3936327308
0.394091277
0.3947122163
0.3958576485
0.397167024
0.3981542678
0.3990886463
0.4001338819
0.4012021777
0.4021190268
0.4029587603
0.4039626771
0.404962081
0.4057032915
0.4062401044
0.4068997328
0.8358844311
0.816337548
0.7890888602
0.7646206983
0.7472990353
0.7266790673
0.7007291688
0.6832584682
0.6694509047
0.6491408939
0.628696718
0.6153544731
0.6032538093
0.5852601762
0.570442434
0.5598849214
0.5486313951
0.5337298326
0.5231353338
0.5148764087
0.5038219209
0.4919487221
0.484768662
0.4785607064
0.4683291413
0.4596332031
0.4544876684
0.449309272
0.4406057289
0.4350061451
0.4312874362
0.4262863582
0.4204231317
0.4171849116
0.4140687528
0.4091869095
0.4062845753
0.4047577018
0.4025576543
0.3993318861
0.3977954204
0.3966508808
0.3949152739
0.3930372084
0.3922653072
0.3918567809
0.3907123681
0.3896915094
0.3896133454
0.3896704232
0.3895208799
0.389501698
0.389624126
0.3899185898
0.390272992
0.390692766
0.3911760078
0.3917262784
0.3924689047
0.3934151483
0.394611248
0.395762163
0.3968846546
0.3980576272
0.3993671165
0.4004283631
0.4017543517
0.9154881805
0.8987570566
0.8766630013
0.8503191442
0.8311339639
0.8129159843
0.786592289
0.7643504027
0.7486488144
0.7290834297
0.7059717432
0.6894083469
0.6757332345
0.6562850698
0.638507375
0.6260555879
0.6135721442
0.5958677698
0.5822540964
0.5724697275
0.5609024929
0.5460443214
0.5355296565
0.5274392273
0.51663877
0.5048667142
0.4964972633
0.4893534941
0.4793959364
0.4703965949
0.464068366
0.4578148824
0.4488763508
0.4420434547
0.4371945306
0.4316533518
0.4244644217
0.4199629306
0.416556333
0.4119768867
0.4071102318
0.404406112
0.402299564
0.3990009568
0.3966726218
0.3961338287
0.3951687972
0.393151203
0.3928017078
0.3928964754
0.3923573704
0.3917629958
0.3919655069
0.3926759698
0.3926451303
0.3925863255
0.3927867153
0.3932703994
0.3935097627
0.3935860452
0.3937389719
0.3939896071
0.3939248327
0.3938272126
0.3939399196
0.3942878837
0.3951054422
0.9706658096
0.9592258658
0.9456910527
0.926005296
0.9071981573
0.8912354491
0.868905093
0.8450375363
0.8279404838
0.8096042542
0.7843717979
0.7653599696
0.7512870444
0.7314561792
0.7096605607
0.6953862268
0.6829100562
0.6636798978
0.6468534048
0.6354457593
0.6237341247
0.6068649915
0.5942188023
0.5848702365
0.5734404057
0.5592643747
0.5496846675
0.5419919665
0.5309625193
0.5195535608
0.5122568756
0.5058630658
0.4957404663
0.4867236701
0.4808326477
0.4753008972
0.4665144232
0.4599035899
0.4553220074
0.4501693194
0.4428078878
0.4381979078
0.4347318624
0.4294727142
0.4241818511
0.421306921
0.4184967406
0.4137147643
0.4107352116
0.4088901663
0.4064124794
0.4030896412
0.4017780556
0.4006470696
0.3988530116
0.3969410403
0.3961659227
0.3952091698
0.3937657895
0.3927219898
0.3926851018
0.3925942737
0.3918598147
0.3914921792
0.3915646043
0.3916210318
0.3916999712
0.9946102014
0.9903638781
0.9847604186
0.975793366
0.963746366
0.9521782529
0.9375829915
0.9174035538
0.9003209904
0.8850269714
0.8624127879
0.8405189021
0.8253965685
0.8076381251
0.7839455266
0.7666182279
0.7533912982
0.7342070703
0.7145536557
0.7012809527
0.689017373
0.6705060947
0.6552840068
0.6447253588
0.6330160458
0.616548748
0.6046178475
0.595875173
0.5847381267
0.5710549704
0.5614318831
0.5538036953
0.5432082566
0.5321593285
0.5242465196
0.5173643315
0.507574909
0.4986899468
0.4922453917
0.4859633051
0.4770537144
0.469811019
0.4646038412
0.4589046842
0.4510942432
0.445467931
0.4413094648
0.436066064
0.4296609771
0.4254738583
0.4221513732
0.4174624442
0.4130635843
0.41041071
0.4080649416
0.4042466356
0.4017654615
0.4004967397
0.3990829871
0.3967427997
0.3961107647
0.395850826
0.3948376972
0.3940862811
0.3942387049
0.3942209681
0.3936629564
0.9995911164
0.9989849218
0.997862263
0.9957788912
0.991963185
0.9867718807
0.9801545833
0.9696857735
0.957034735
0.9454940481
0.9300830831
0.9102059638
0.8945313841
0.879514388
0.8572230237
0.8375867276
0.8238428684
0.8060282102
0.7836597981
0.7684341312
0.7562137792
0.7372646815
0.7188879325
0.7068849481
0.6952673874
0.6773281316
0.6630694846
0.6531936066
0.6418821213
0.6261838227
0.6150438102
0.6066907249
0.5955795161
0.5822774444
0.573491095
0.5663534396
0.5557227858
0.5448015753
0.5376513252
0.5313396769
0.5214657025
0.5126511931
0.5066631426
0.5010081774
0.4922343046
0.4852307448
0.480204326
0.4749381464
0.4671992936
0.4617321286
0.457672365
0.4526290898
0.4461460926
0.4421003046
0.4388868087
0.4339281306
0.4290017783
0.4260132415
0.4231956961
0.4187604949
0.4157977603
0.4136293683
0.4107482923
0.4078405312
0.4061385833
0.4046129877
0.40233697
0.999989837
0.9999633183
0.9998872475
0.999692512
0.9992168229
0.9982438291
0.9966136244
0.9937224117
0.9888435167
0.9828685788
0.9752985816
0.9635538649
0.9508187375
0.939392432
0.9232455521
0.9039640821
0.8897356593
0.8750394873
0.8532339737
0.8353502033
0.8227401859
0.8053304644
0.7845067151
0.7705221957
0.758849066
0.7404683185
0.7235924029
0.7125017575
0.7012175792
0.6838714426
0.6705809417
0.6613536825
0.6503279096
0.6351231323
0.6244558403
0.6165288087
0.6058777859
0.5931561862
0.5843125484
0.5772248022
0.5670164808
0.5565324899
0.5491267912
0.5426734779
0.5331830898
0.5244981161
0.518194771
0.5121573986
0.5035022857
0.4962378262
0.4908953131
0.4852372046
0.4775471141
0.4714767938
0.4669126775
0.4615136985
0.4547943987
0.4498701475
0.4460492946
0.4409411126
0.4354361557
0.4315683905
0.4282132173
0.4235746669
0.4195581204
0.4167942583
0.4130090408
0.9999999308
0.999999623
0.9999982342
0.9999927679
0.9999735202
0.9999149275
0.9997662474
0.9994211262
0.9986466953
0.9972238359
0.9950271876
0.9912575158
0.9853823549
0.9787887829
0.9703680265
0.9576774963
0.9451102806
0.9338246143
0.9172525266
0.898905478
0.8858194418
0.8712741639
0.8501701165
0.8339871942
0.8223058956
0.8051418807
0.785552299
0.7728710094
0.7618590424
0.7440116924
0.7281699902
0.7178466852
0.7070027501
0.6903344562
0.6778390849
0.6691277587
0.6584017053
0.6437579801
0.633700053
0.6261379382
0.615638335
0.6031703151
0.5949395113
0.588262762
0.5782140435
0.5678095841
0.5608661417
0.5547866547
0.5453440375
0.5368138851
0.530910587
0.5252861702
0.5166368849
0.5096629203
0.5045715288
0.4992150946
0.4914919017
0.4857822449
0.4814541638
0.4762886819
0.4697956765
0.4649449905
0.4611340308
0.4561442013
0.4508776087
0.4470883219
0.4420691506
0.9999999999
0.999999999
0.9999999927
0.999999954
0.9999997461
0.9999987814
0.9999949661
0.9999816794
0.9999397774
0.9998255359
0.999565525
0.9990091579
0.9978517388
0.9959249659
0.9931322738
0.9884633442
0.9817366893
0.9746931122
0.9655216422
0.9521768091
0.9400092078
0.9288896734
0.9120646746
0.8946778265
0.8826228903
0.8683633846
0.8480835376
0.8332071965
0.8222593817
0.8055418351
0.7871781237
0.7754331243
0.7649138938
0.7476520213
0.7328169556
0.7231832421
0.7127559004
0.6966464134
0.684765931
0.6765152418
0.6661908558
0.6521023621
0.6423759329
0.6351057571
0.625005776
0.6130704308
0.6048712216
0.5982879351
0.5885781769
0.57860277
0.571619643
0.5655393611
0.5564207178
0.5480432995
0.5419941808
0.5361847088
0.5278449871
0.5208065241
0.5155511269
0.5098038555
0.5024969491
0.4965511216
0.4917132844
0.4860771013
0.4798275898
0.4750118155
0.4687614319
1
1
1
0.9999999999
0.9999999994
0.9999999954
0.9999999709
0.9999998386
0.9999992082
0.9999966163
0.999987512
0.999959109
0.999877894
0.9996773341
0.9992632169
0.9984353587
0.996825559
0.9943731563
0.9909879453
0.9854504225
0.9780339616
0.9706795007
0.9608962923
0.9471939508
0.9354932783
0.9245540922
0.9077112238
0.8913251518
0.8801130916
0.8661167296
0.8466566451
0.8329572407
0.8226778085
0.8064385779
0.7890938986
0.7781614154
0.7681325299
0.7514999265
0.7374672408
0.7283678904
0.7183263897
0.702844927
0.6915771741
0.6837229347
0.6736937668
0.6600335074
0.6507732597
0.6438142364
0.633962264
0.6222999003
0.6145225638
0.6082095282
0.5986868163
0.5888888162
0.5822231344
0.5763439969
0.5672911179
0.5592154515
0.5534818103
0.5478066737
0.5393789542
0.532865744
0.5277671934
0.5220505022
0.5147614341
0.5096167558
0.50287303
1
1
1
1
1
1
1
0.9999999996
0.9999999973
0.9999999825
0.9999999016
0.9999995133
0.9999978592
0.9999917637
0.9999725358
0.9999181741
0.9997755376
0.999453337
0.9988430211
0.9976905973
0.9955814805
0.9926151639
0.9886681662
0.9823304336
0.974402359
0.9668591641
0.9565906166
0.9427416921
0.9315591292
0.9208372035
0.9041254464
0.8886630419
0.8781863752
0.8645477971
0.8459238242
0.8331683747
0.8234406473
0.8077168201
0.7912982346
0.7810570176
0.7714854534
0.7554593818
0.7421312781
0.7335098706
0.7238579152
0.7089534312
0.6981467468
0.6906215706
0.6809397874
0.6678538146
0.6588778164
0.6521219318
0.6425282702
0.6313692003
0.6237330959
0.6175207523
0.6082159572
0.59888585
0.5922915485
0.586343634
0.5775438808
0.5698428113
0.5640289582
0.5580090343
0.5502377984
0.5440233442
0.5367041217
1
1
1
1
1
1
1
1
1
1
0.9999999998
0.9999999985
0.9999999901
0.9999999427
0.9999997115
0.9999987153
0.9999948844
0.9999820998
0.9999455192
0.9998508853
0.9996207029
0.9991406789
0.9982986067
0.9967823006
0.9941527526
0.9907085054
0.9862520828
0.9792108471
0.9709256823
0.9632931915
0.9526791656
0.9388650309
0.9281928885
0.9177059309
0.9012496953
0.886648536
0.8767980796
0.8635331624
0.8457162487
0.8337769108
0.8245442661
0.8093674526
0.7937914789
0.784103255
0.7749085309
0.7594899137
0.7468328543
0.7386181146
0.7292753367
0.714933842
0.7046313068
0.6974025665
0.6879389442
0.6753062568
0.6667298394
0.6602036442
0.6507389968
0.6400473833
0.6327377589
0.6266096093
0.6172809488
0.6085367674
0.6022509351
0.5959588305
0.5875545287
0.5806026689
0.5728975132
1
1
1
1
1
1
1
1
1
1
1
1
1
0.9999999999
0.9999999992
0.9999999947
0.9999999686
0.9999998363
0.9999992544
0.999996985
0.9999890371
0.9999647728
0.9999012068
0.9997493346
0.9994036267
0.9987326649
0.9976333759
0.9957306517
0.9925853706
0.9887197148
0.9838196277
0.9761824716
0.9676813878
0.960039315
0.949191469
0.9355357709
0.925365681
0.9151326878
0.8990153528
0.8852138272
0.8759077095
0.8630202459
0.8459797157
0.8347523842
0.8259411649
0.8112741814
0.7964851113
0.7873089237
0.7784492686
0.7636092262
0.7515645374
0.7436943106
0.7345828953
0.7208413775
0.7109997575
0.7040188105
0.6946640025
0.6826864
0.6744507135
0.6680022148
0.6585301155
0.6485353876
0.641598947
0.635061995
0.6262190597
0.6183173455
0.6100447282
1
1
1
1
1
1
1
1
1
1
1
1
1
1
1
1
0.9999999999
0.9999999996
0.9999999973
0.9999999838
0.9999999128
0.999999585
0.999998276
0.9999936176
0.9999786333
0.9999363984
0.9998343005
0.9996071455
0.9991190128
0.998230937
0.9968617248
0.9945665094
0.9909312834
0.9867117068
0.9814383683
0.9733160701
0.9647202808
0.9571311116
0.9461448708
0.9327491771
0.9230614863
0.9130713319
0.8973474474
0.8842967195
0.8754622097
0.8629210121
0.8466724353
0.8360800769
0.8276059275
0.8133976877
0.7994085617
0.7906779901
0.7820304228
0.7677252664
0.7563568457
0.7488174796
0.7397746125
0.7266265705
0.7173515936
0.7105336852
0.7010792284
0.6898333643
0.6821460591
0.6754326321
0.6660980814
0.6573983402
0.6483855357
1
1
1
1
1
1
1
1
1
1
1
1
1
1
1
1
1
1
1
1
0.9999999998
0.9999999987
0.9999999921
0.9999999563
0.9999997836
0.999999055
0.9999963899
0.9999876714
0.9999616982
0.9998935219
0.9997403491
0.9994204959
0.9987665174
0.997644685
0.9960059586
0.9933267956
0.989245921
0.9847470198
0.9791660659
0.9706635505
0.9620811315
0.9545852599
0.9435208833
0.9304762805
0.9212602379
0.9114779878
0.8961771412
0.8838702624
0.8754438242
0.8631661923
0.8477048876
0.8377271781
0.8295125087
0.8156787685
0.8025280321
0.794224143
0.7856600793
0.7718420733
0.7612430374
0.7539775063
0.744747795
0.7323683942
0.7237321491
0.7169219502
0.7071355662
0.6976599123
0.687782311
1
1
1
1
1
1
1
1
1
1
1
1
1
1
1
1
1
1
1
1
1
1
1
0.9999999999
0.9999999994
0.9999999963
0.9999999791
0.9999998938
0.9999995152
0.9999980435
0.9999930752
0.9999780337
0.999936207
0.9998331711
0.9996167223
0.9991891874
0.9983513798
0.996990454
0.9950939134
0.9920486717
0.987580174
0.9828792386
0.9770437824
0.9682602539
0.9597926862
0.9524118391
0.9413012401
0.9286917432
0.9199367362
0.9102935923
0.8954486915
0.8838907646
0.8758144812
0.8636807112
0.8490839851
0.8397057155
0.8316239151
0.8180355075
0.8058439023
0.7980011514
0.7891940127
0.7760277788
0.7662254131
0.759212282
0.7493145537
0.7389337944
0.7282641112
1
1
1
1
1
1
1
1
1
1
1
1
1
1
1
1
1
1
1
1
1
1
1
1
1
1
1
0.9999999998
0.9999999984
0.9999999906
0.9999999503
0.9999997662
0.9999990102
0.9999962813
0.9999877187
0.9999635738
0.9999003965
0.9997533987
0.9994630719
0.9989164891
0.9978834025
0.9962902222
0.9941562997
0.9907683788
0.9859830348
0.9811536889
0.9750989861
0.9661267112
0.9578727479
0.9505990719
0.9394547911
0.9273703309
0.9190763378
0.9094679902
0.8951074867
0.8843396797
0.8765360217
0.86441298
0.850723196
0.842038313
0.8338272375
0.8205626418
0.8093676434
0.8019224708
0.7924903187
0.7810987757
0.7697087691
1
1
1
1
1
1
1
1
1
1
1
1
1
1
1
1
1
1
1
1
1
1
1
1
1
1
1
1
1
1
0.9999999999
0.9999999994
0.999999996
0.999999978
0.9999998923
0.9999995292
0.9999981395
0.9999934523
0.9999796886
0.9999433256
0.9998531316
0.9996537168
0.9992820346
0.9986086182
0.9973764359
0.9955687995
0.9932229886
0.9895157341
0.9844982672
0.9796055876
0.9733462562
0.9642842792
0.9563226677
0.9491345948
0.9379494427
0.9265054551
0.9186212191
0.9089615027
0.8951167906
0.8851876358
0.8775388819
0.8653626111
0.8527588168
0.8445156324
0.8359579505
0.8241601414
0.8118173798
1
1
1
1
1
1
1
1
1
1
1
1
1
1
1
1
1
1
1
1
1
1
1
1
1
1
1
1
1
1
1
1
1
1
0.9999999998
0.9999999984
0.999999991
0.9999999532
0.999999786
0.9999991248
0.9999967574
0.9999892248
0.9999684722
0.9999166393
0.9997940795
0.999535487
0.9990782916
0.9982750575
0.9968454328
0.9948564199
0.9923153582
0.9883262305
0.9831585575
0.9782568547
0.9717778735
0.9627723197
0.9551402897
0.9479515102
0.936842566
0.9260217926
0.9185154276
0.9086620184
0.8957764394
0.8862700774
0.8783186242
0.8675288793
0.8542789209
1
1
1
1
1
1
1
1
1
1
1
1
1
1
1
1
1
1
1
1
1
1
1
1
1
1
1
1
1
1
1
1
1
1
1
1
1
0.9999999999
0.9999999994
0.9999999965
0.9999999812
0.9999999083
0.9999996071
0.9999984879
0.9999947083
0.9999833582
0.9999536479
0.9998836897
0.9997233161
0.9994026847
0.9988588051
0.9979234349
0.9963142012
0.9941729067
0.99145774
0.987212942
0.9820439192
0.9770562883
0.9704465603
0.9616287864
0.9542780129
0.946881375
0.9363337792
0.926194767
0.9180707894
0.9090857214
0.8962082793
1
1
1
1
1
1
1
1
1
1
1
1
1
1
1
1
1
1
1
1
1
1
1
1
1
1
1
1
1
1
1
1
1
1
1
1
1
1
1
1
1
0.9999999998
0.9999999987
0.9999999929
0.9999999637
0.9999998345
0.9999993257
0.9999975614
0.99999187
0.9999756184
0.9999355652
0.9998439528
0.9996442455
0.9992581437
0.9986345447
0.9975578834
0.995812743
0.9935538547
0.9906152473
0.986277596
0.9811507577
0.9759961858
0.9692249356
0.9612202286
0.9535215592
0.9460150691
0.935184593
1
1
1
1
1
1
1
1
1
1
1
1
1
1
1
1
1
1
1
1
1
1
1
1
1
1
1
1
1
1
1
1
1
1
1
1
1
1
1
1
1
1
1
1
0.9999999999
0.9999999996
0.9999999975
0.9999999867
0.9999999357
0.9999997186
0.9999989273
0.9999962698
0.9999882052
0.9999660893
0.9999142367
0.999799631
0.9995556327
0.9991185635
0.9983972472
0.9972053967
0.9953650371
0.9929973892
0.9898164604
0.985539226
0.9805105219
0.9751194909
0.9674330322
1
1
1
1
1
1
1
1
1
1
1
1
1
1
1
1
1
1
1
1
1
1
1
1
1
1
1
1
1
1
1
1
1
1
1
1
1
1
1
1
1
1
1
1
1
0.9999999999
0.9999999992
0.9999999954
0.9999999767
0.9999998927
0.9999995575
0.9999983735
0.9999946545
0.9999835844
0.9999552358
0.9998904428
0.9997501628
0.9994696011
0.9989749713
0.9981718415
0.9968729608
0.9949804251
0.9925524648
0.9886114669
1
1
1
1
1
1
1
1
1
1
1
1
1
1
1
1
1
1
1
1
1
1
1
1
1
1
1
1
1
1
1
1
1
1
1
0.9999999998
0.9999999985
0.9999999921
0.9999999621
0.9999998328
0.9999993392
0.9999976947
0.9999926057
0.99997846
0.9999431499
0.9998647627
0.999700745
0.9993811591
0.9988656994
0.9977327624
1
1
1
1
1
1
1
1
1
1
1
1
1
1
1
1
1
1
1
1
1
1
1
1
0.9999999999
0.9999999996
0.9999999975
0.9999999875
0.9999999417
0.9999997545
0.999999074
0.9999968571
0.9999903747
0.9999723921
0.9999340865
0.99978264
1
1
1
1
1
1
1
1
1
1
1
1
1
1
0.9999999999
0.9999999993
0.9999999962
0.9999999811
0.9999999165
0.9999996504
0.9999988775
0.9999909687
1
1
1
0.9999999998
0.9999999989
0.9999999952
0.9999998616
)
;

boundaryField
{
    inlet
    {
        type            fixedValue;
        value           nonuniform 0();
    }
    outlet
    {
        type            zeroGradient;
    }
    bottom
    {
        type            slip;
    }
    top
    {
        type            slip;
    }
    obstacle
    {
        type            zeroGradient;
    }
    defaultFaces
    {
        type            empty;
    }
    procBoundary20to13
    {
        type            processor;
        value           nonuniform List<scalar> 8(5.861104991 5.862534003 5.873792756 5.861767823 5.867038826 0.4032388243 0.3785867462 0.380744882);
    }
    procBoundary20to14
    {
        type            processor;
        value           nonuniform List<scalar> 
17
(
5.862712422
5.861047364
5.861047364
5.863799462
5.865133912
5.860751235
5.860751235
5.85853984
5.854364792
5.852038874
5.852038874
5.852275467
5.848372842
5.848372842
5.850993555
5.852911184
5.867826448
)
;
    }
    procBoundary20to19
    {
        type            processor;
        value           nonuniform List<scalar> 
27
(
0.4011441688
0.4241576791
0.4991392125
0.5792462119
0.6703696521
0.7649958305
0.8583319516
0.9354131171
0.9816458428
0.9973763427
0.9998544467
0.9999975436
0.999999989
1
1
1
1
1
1
1
1
1
1
1
1
1
1
)
;
    }
    procBoundary20to26
    {
        type            processor;
        value           nonuniform List<scalar> 
72
(
1
1
1
1
1
1
1
1
1
1
1
1
1
1
1
1
1
1
1
1
1
1
1
1
1
1
1
1
1
1
1
1
1
1
1
1
1
1
1
1
1
1
1
1
1
1
1
1
1
1
1
1
1
1
1
1
1
1
1
1
1
1
1
1
1
1
1
1
1
1
1
0.9999999993
)
;
    }
    procBoundary20to27
    {
        type            processor;
        value           nonuniform List<scalar> 
35
(
0.3989471569
0.4071013189
0.4068160625
0.4072012717
0.4076995653
0.408484269
0.4088630103
0.4084906542
0.407675819
0.4021076896
0.3953330511
0.3919145911
0.3952787266
0.3998171621
0.4093386864
0.4384132128
0.4632168937
0.4980702629
0.529508745
0.5641090348
0.5996294538
0.637740319
0.6776283333
0.7176107338
0.7572292485
0.7971688546
0.8385858648
0.8806915059
0.9202348035
0.9544474587
0.9803989001
0.9946413562
0.9992077981
0.9999453094
0.999998418
)
;
    }
}


// ************************************************************************* //
