/*--------------------------------*- C++ -*----------------------------------*\
  =========                 |
  \\      /  F ield         | OpenFOAM: The Open Source CFD Toolbox
   \\    /   O peration     | Website:  https://openfoam.org
    \\  /    A nd           | Version:  7
     \\/     M anipulation  |
\*---------------------------------------------------------------------------*/
FoamFile
{
    version     2.0;
    format      ascii;
    class       volScalarField;
    location    "1.4";
    object      p;
}
// * * * * * * * * * * * * * * * * * * * * * * * * * * * * * * * * * * * * * //

dimensions      [1 -1 -2 0 0 0 0];

internalField   nonuniform List<scalar> 
2222
(
1.001090896
0.9993388767
0.9972368415
0.9965200896
0.9961980177
0.9963155372
0.9968009124
0.9974696325
0.9978857312
0.9980606507
0.9979206933
0.997391602
0.9970548973
0.9970882532
0.9974645493
0.9980734337
0.9984887075
0.9986403689
0.5817773732
0.5816297866
0.584423644
0.6065251026
0.6745083454
0.777215149
0.8770939213
0.9622321557
0.9889830171
0.9802612255
0.9862533659
0.9907259204
0.9924137958
0.993550016
0.9964028335
0.9977428584
0.997624954
0.9974980905
0.9973204536
0.9972426213
0.997340058
0.9976913928
0.9978638268
0.9979198778
0.9980311692
0.9978205878
0.9975085587
0.9975694572
0.9980113627
0.9985034998
0.9987167352
0.9987316225
0.5783615182
0.5916469796
0.6340450513
0.7315798253
0.85004637
0.9447098107
0.957589069
0.9813687926
0.9980464278
0.9974387005
0.9952854961
0.9950598892
0.9944699738
0.9932273452
0.9940437943
0.995817967
0.9973496534
0.9979836538
0.9981978219
0.9985453036
0.9988056558
0.9988027572
0.9985835643
0.9982862306
0.9981446525
0.997972969
0.9978323036
0.9980262064
0.9985057807
0.9987789585
0.9988252067
0.9986241597
0.6058138229
0.683325694
0.7895088552
0.8838002264
0.929915999
0.9731009637
0.9806767568
0.9868774002
0.9940928562
0.9981026217
0.9984611239
0.9984305789
0.9978192813
0.9967107941
0.9965209439
0.9973250754
0.9977801581
0.9981826553
0.9985274673
0.9990179416
0.9993726287
0.9993317898
0.998974419
0.9985575267
0.9982388317
0.9979967816
0.9977887229
0.9979551282
0.998461099
0.9987085683
0.9987216494
0.9986208078
0.7360056773
0.8534339065
0.9533677141
0.9802041116
0.9810278557
0.9904540323
0.9984894334
0.9978683187
0.9977203986
0.9977008702
0.9978587812
0.9985646746
0.9990242516
0.9996455426
0.9996843197
0.999616505
0.9988084589
0.9978789748
0.9979768386
0.9982808854
0.9988305189
0.9990898207
0.9989131724
0.9986614634
0.9983221529
0.9980274547
0.9977345675
0.9977865185
0.9981582714
0.9984703492
0.9987286357
0.9988021724
0.9089857991
0.9373112017
0.9764437443
0.9945316436
0.993217602
0.9963952965
1.001030149
1.001696652
1.000583665
0.9982637078
0.9973539224
0.9977390216
0.9984245224
0.9991444969
0.9996487756
0.9996542198
0.9990847208
0.9979533988
0.9976106135
0.9976813216
0.9979638966
0.998254026
0.9985239423
0.9985332701
0.9983433244
0.9981065566
0.9978540752
0.9978569483
0.9981372866
0.9984699551
0.9988027447
0.9989995762
0.9896802479
0.985559457
0.988260639
0.9922146175
0.9928364733
0.995118037
0.9973129609
0.999441785
0.9993545945
0.9987636446
0.9979872648
0.9973252084
0.9972066482
0.9975662952
0.9981421477
0.9984822644
0.9984281971
0.9980028492
0.997819687
0.9979187817
0.9982027006
0.9983945349
0.9986130748
0.9986256818
0.9984380959
0.9981729288
0.9979462311
0.9979804741
0.9982167481
0.9985240055
0.9988404136
0.9991128428
0.9980528641
1.00098587
0.999861384
0.9970954065
0.995038711
0.9940401747
0.9940832928
0.9955467509
0.9976030672
0.9982293289
0.9983062997
0.9978609058
0.9973969375
0.9972788145
0.9974666128
0.9978510165
0.9980415478
0.9980453226
0.9980577614
0.9981827942
0.9984687016
0.9986999606
0.9987961766
0.9987530115
0.9985127221
0.9981510847
0.9979893053
0.9980399296
0.9982294077
0.9984863229
0.9987594856
0.9990594108
0.9932038948
1.000663424
1.000637011
0.9994684254
0.9976710155
0.9953320067
0.99487966
0.995623987
0.9972675613
0.9979919374
0.9982354241
0.9981866271
0.997977811
0.9978604894
0.9979307733
0.9982017079
0.998278759
0.9981706356
0.9980584758
0.9980519471
0.9982362403
0.9985984079
0.9987582882
0.9987063352
0.9984457334
0.9981389704
0.9980944893
0.9981402423
0.9982659761
0.9984315225
0.9986338317
0.9989484953
0.9871804123
0.9941052256
0.997999398
0.9985064704
0.9983841879
0.9979817932
0.9976725124
0.9977623633
0.9980927993
0.9981397337
0.998079827
0.9981267392
0.9981664193
0.9983683231
0.9984669413
0.9985270094
0.9984274348
0.9981614211
0.9979035372
0.9977606253
0.9978879338
0.9982482102
0.9985073301
0.9985114518
0.9984241465
0.9982880271
0.9982555619
0.9982800372
0.9983339583
0.9984023117
0.998508735
0.9988351259
0.9919103252
0.9940906804
0.9968108591
0.9974254764
0.997945374
0.9981942371
0.9985362838
0.9987321023
0.9986452129
0.9983676753
0.9979050163
0.9977817303
0.9979868034
0.9983806964
0.9985291781
0.9985241249
0.9984068073
0.9981071793
0.9978443352
0.9977083289
0.9977911714
0.9980373966
0.9983247534
0.9984494388
0.9984850919
0.9984686045
0.9984376079
0.9984093485
0.9984077975
0.998414204
0.9984274169
0.9987092766
0.9975646051
0.9975968725
0.9978153374
0.9977819233
0.9973531172
0.9976534393
0.9980377227
0.998449955
0.9984767261
0.9983360058
0.9979865001
0.9977314239
0.9977657516
0.9980617598
0.9982713363
0.9983003774
0.9982216664
0.99805386
0.9978965372
0.9978150327
0.9978681138
0.9980729612
0.9983205965
0.9984701659
0.9985992379
0.9986148813
0.9985559497
0.9985007326
0.9984489778
0.9984335557
0.9984271623
0.9985949585
0.9980238626
0.9986503387
0.9985422727
0.9982931997
0.9976429412
0.9972123931
0.9971955178
0.9974438773
0.9977790378
0.9978759999
0.9978530687
0.9977928214
0.9978244678
0.9980676439
0.9982947015
0.9983484882
0.9982837951
0.9981638821
0.9981289048
0.998081314
0.9979490722
0.9980807517
0.9982997076
0.9984992892
0.9986353865
0.9986201916
0.9985352424
0.9984729793
0.9984148707
0.9983825039
0.9983830417
0.9984724203
0.9959882244
0.9971066381
0.9979453512
0.9983197761
0.9982208436
0.9978529472
0.9976525949
0.9976864227
0.9978842982
0.9978893212
0.9977785171
0.9977637492
0.9978231703
0.9981026357
0.9984370223
0.9985044645
0.9984559936
0.9983717097
0.9982715335
0.9981167731
0.9980239088
0.9981097869
0.9982841329
0.9984685312
0.9986155422
0.9985906612
0.9984494487
0.9983586573
0.9982995108
0.9982467663
0.9982186966
0.9982631094
0.9951486732
0.9957989815
0.99704946
0.9981067034
0.998565145
0.9985521677
0.9984223691
0.9983098062
0.9982121576
0.9980021544
0.9977712256
0.9976944731
0.9977607841
0.998083986
0.9984563134
0.9984994069
0.9984514205
0.9983600314
0.9982595433
0.9981701163
0.9980917598
0.9981486067
0.998291167
0.9984197096
0.9985383193
0.9985562689
0.9983902818
0.9981742623
0.9980876513
0.9980203238
0.9979803419
0.9980474985
0.996213404
0.9966562168
0.9977305286
0.99857233
0.9987660734
0.9987392067
0.9986692321
0.9985639209
0.9983845394
0.9981058007
0.9977763571
0.9976083269
0.9976639387
0.9979728882
0.9983936258
0.9984592558
0.9984115296
0.9982955631
0.9981946309
0.9981995504
0.9981735859
0.9981978096
0.9983026516
0.9983912753
0.9984613327
0.9985097612
0.9984175595
0.9981734753
0.997919453
0.9978211683
0.9978043858
0.997916751
0.9979964129
0.9983493079
0.9987638572
0.9988953495
0.9988563989
0.9987122135
0.9985615377
0.9984289614
0.9982596276
0.9979909347
0.9977181064
0.997587231
0.9976462418
0.9979511227
0.9983415994
0.9984085226
0.998369746
0.9982678059
0.9981829871
0.9981380493
0.9981734176
0.9982448482
0.9983302896
0.9984020166
0.9984513019
0.9984854834
0.99842261
0.9981990838
0.9979412899
0.9977950288
0.9977608071
0.9978808731
0.9984126982
0.9987455267
0.9989565808
0.9990060281
0.9988309348
0.9984458049
0.9981729296
0.9979981112
0.997857758
0.9977455346
0.9976394321
0.9976044385
0.9977008441
0.9980156325
0.9983617783
0.998419397
0.9983842065
0.9983079499
0.9981885024
0.9981552597
0.9981849473
0.99825221
0.9983397092
0.9984106675
0.9984858209
0.9985019015
0.9984468039
0.998267376
0.9980330577
0.9978646413
0.997793892
0.9978978747
0.9981956569
0.9985393515
0.998759019
0.9987970648
0.9986359656
0.9983844047
0.9981784091
0.9979415061
0.9978071936
0.9977210593
0.9976028735
0.9976225144
0.9977700989
0.9980746857
0.9984010993
0.9984558116
0.9984247448
0.9983732977
0.9982681652
0.9981730531
0.9981784039
0.9982212517
0.9982992642
0.9983752816
0.998491902
0.9985104432
0.9984668883
0.9983406508
0.9981440864
0.9979578262
0.9978790132
0.997963305
0.9977278589
0.9979461177
0.9982141319
0.9983807907
0.9983979449
0.9983391234
0.9982692287
0.9980802957
0.9979585818
0.9978566961
0.9976600604
0.9976609396
0.9977999573
0.9980573493
0.9983800384
0.9984577061
0.9984444494
0.9984139271
0.9983474653
0.9981808067
0.9981290745
0.9981498013
0.9982172945
0.9983108734
0.9984811582
0.9985362149
0.9985112951
0.9984320617
0.9982730227
0.9980581331
0.9979855021
0.9980532345
0.9978324346
0.9979565724
0.9981742226
0.9982941324
0.9983338313
0.9983760835
0.9983515136
0.9981895245
0.9980766269
0.9979504545
0.9977123034
0.9977093281
0.9978167442
0.9980028746
0.9982654399
0.9984244397
0.9984323142
0.9984024722
0.9983608159
0.9981944367
0.9981058764
0.9980972324
0.998146986
0.9982639189
0.9984664213
0.9985486368
0.9985424473
0.9985055713
0.9983848535
0.9981627846
0.9981006624
0.9981539741
0.9980964218
0.9981765583
0.9983263291
0.9983748736
0.998387365
0.9983976759
0.998375537
0.9982896469
0.9982207325
0.9981036658
0.9978803908
0.997854575
0.9979114047
0.9980290396
0.9982107963
0.998338329
0.9983506654
0.9983464486
0.9983171412
0.9981888792
0.99810386
0.9980867966
0.9981260965
0.9982368245
0.9984622932
0.9986197646
0.9986365625
0.9986181802
0.998533302
0.9983373419
0.9982667917
0.9983055088
0.998317801
0.9983673179
0.9984253877
0.9984221691
0.9983914327
0.9984144975
0.9984862496
0.9984693408
0.998421959
0.9983375061
0.9981267904
0.9979987697
0.9980212919
0.9981186163
0.9982930376
0.9984161374
0.9984111204
0.9983361983
0.9982551181
0.9981497856
0.9980709008
0.9980502952
0.9980844465
0.9981908968
0.998440887
0.9986674882
0.9986967716
0.9986783087
0.9986071506
0.9984622056
0.9983953374
0.9984349331
0.9985291272
0.9983681343
0.9983002571
0.9983315725
0.9984982684
0.9986313241
0.9987321854
0.9987674606
0.9987781345
0.9987164174
0.9985170963
0.9982878184
0.9982267679
0.9982846308
0.9983685424
0.9984201099
0.9983826208
0.9982796647
0.9981525285
0.9980507529
0.9979741284
0.997957313
0.9979923255
0.9981080879
0.9983498077
0.9986431141
0.9987157456
0.9987165894
0.9986343663
0.9985273182
0.9984837431
0.9985445701
0.9985186946
0.9984856644
0.9984828702
0.9985503562
0.9986916166
0.9988615945
0.9989714518
0.9990468036
0.9990749086
0.9989964253
0.9987710986
0.998478074
0.9983467557
0.9983621677
0.9984041428
0.9983773768
0.9983047338
0.9981879372
0.9980247947
0.9979154533
0.9978649715
0.9978613629
0.9979035319
0.9980243972
0.9982357362
0.9984980971
0.998616208
0.9986450263
0.9986799053
0.9986435231
0.9985922443
0.9986492888
0.9984781929
0.9985750864
0.9986817991
0.998798457
0.9988893377
0.9989955126
0.9990677282
0.9991183866
0.9991526508
0.9990851414
0.9988875659
0.998595176
0.9984275682
0.9983939583
0.9983818477
0.9983296213
0.9982343485
0.9981211783
0.9979617879
0.9978634878
0.99783856
0.9978441997
0.9978953751
0.9980139092
0.9981936068
0.998398211
0.9985232929
0.9985812335
0.9985775468
0.9985328432
0.9984820593
0.998557311
0.9986372847
0.9988696649
0.9989916679
0.9990465778
0.9990858831
0.9991324345
0.999155319
0.9991509451
0.9991869131
0.9991476116
0.9989833565
0.9986548587
0.998379203
0.9983009972
0.9982686776
0.9982246116
0.9981619352
0.9980791271
0.9979473046
0.9978607592
0.9978528587
0.9978673966
0.9979349204
0.9980593416
0.9982098029
0.9983693174
0.9984827961
0.9985663137
0.9986026574
0.9985638421
0.9984961391
0.9985464219
0.9983528501
0.9986327858
0.9988241513
0.9989598771
0.9990535705
0.9990377705
0.9989884391
0.9989361729
0.9989553624
0.998972213
0.9988846049
0.9986654616
0.9984099645
0.9982819399
0.9982356547
0.9981879998
0.9981117446
0.9980262464
0.9979127719
0.9978475374
0.9978483629
0.9978755949
0.9979473802
0.9980582896
0.998186512
0.9983107252
0.9984111543
0.9985097004
0.9986130963
0.9986067694
0.9985521187
0.9985816542
0.9982343365
0.9984624554
0.9986436132
0.9987671396
0.9988707174
0.9988973424
0.9988626684
0.9988259035
0.9988136372
0.9988703182
0.9988383303
0.9986782927
0.9984660395
0.9983440586
0.998261835
0.9981758594
0.9980807862
0.9979941479
0.9979189296
0.9978771371
0.9978901443
0.9979358727
0.9979902629
0.9980467712
0.9981171072
0.9981942167
0.9982749515
0.9983740064
0.9984990592
0.9985477236
0.9985078082
0.9985018489
0.998235292
0.9984571848
0.9986795371
0.998793013
0.9988354948
0.9988303758
0.9987727652
0.9987138267
0.9986900321
0.9987519222
0.9988040395
0.9987283347
0.9985830545
0.9984901913
0.9984047674
0.9983151104
0.9982401879
0.9981810909
0.99813306
0.9980998667
0.9981002526
0.9981462875
0.9981847439
0.9982092126
0.9982390564
0.9982841131
0.9983264447
0.9983841038
0.9984920515
0.9985800123
0.9985857987
0.9985315524
0.9981397288
0.9984597847
0.9986624508
0.9987696377
0.9987829558
0.9986932651
0.9985799805
0.9984724111
0.998378549
0.9983358649
0.9983621259
0.998332542
0.99825753
0.9982095189
0.9981529459
0.9980921028
0.9980761471
0.9981186578
0.9982075213
0.9983072045
0.9983797932
0.9984109993
0.9984316724
0.9984608295
0.998438906
0.998442117
0.9984238665
0.9984294061
0.9984943699
0.998549127
0.9985518507
0.9985149598
0.9971752994
0.9976476389
0.9980632604
0.9979591339
0.9980249729
0.9986228095
0.9991267656
0.9995965846
0.9998475905
0.9999167739
0.9996114695
0.9988129475
0.9977034773
0.9971467455
0.9970062389
0.9969524332
0.9969040742
0.9968897017
0.9970643337
0.9974962648
0.9981405628
0.9989586381
0.9995817172
0.9996646617
0.9993193651
0.9987548463
0.9986596247
0.9987052822
0.9989853849
0.9990679759
0.9988888288
0.9983239854
0.9978205275
0.9976451516
0.9977706947
0.9973861151
0.9972707332
0.9975438284
0.9978219711
0.9984426256
0.9994253283
1.000071
1.000230479
1.000083746
0.9992562659
0.9979554742
0.9972695631
0.9971131544
0.9970259744
0.996964969
0.9970146701
0.9971300517
0.9973255672
0.9976754719
0.9984549857
0.9991931078
0.9991680826
0.9987057913
0.9984535561
0.9985577589
0.9990931492
0.9994129416
0.9994014082
0.9989014552
0.9994213882
0.9984520222
0.9978144192
0.9974097322
0.9972365421
0.9973227589
0.9973436324
0.9974925773
0.9980219434
0.9991293556
1.00013214
1.000116949
0.9998859283
0.9993395845
0.9986091366
0.9982408441
0.9980176009
0.9976492242
0.9971969376
0.9970545961
0.9971547807
0.9973442144
0.9976123938
0.9981569478
0.9985004089
0.998402318
0.9982063459
0.9981122958
0.9985325946
0.9992609287
0.9994370904
0.9991574674
0.9999053655
0.9996391948
0.9987860384
0.9978395008
0.9974353643
0.9972253826
0.9970877152
0.9970786638
0.9972528268
0.9979137271
0.9989523981
1.000040608
1.000086714
0.9998515382
0.9995580418
0.999251864
0.9990766058
0.9988493626
0.9982531505
0.9974650103
0.9971475166
0.9972624652
0.9974064785
0.9976680981
0.9980827983
0.9983003362
0.9981809522
0.9979903653
0.9980438226
0.9984249353
0.9991307416
0.9991279211
1.000063948
0.9998352278
0.999691498
0.9991785649
0.998319715
0.9974783016
0.9969806287
0.9968378482
0.9970505421
0.9972328722
0.9976955793
0.9988333089
0.9998298941
0.9997912086
0.9994415696
0.9993344246
0.9992930781
0.9993205346
0.9992812185
0.9987687605
0.997867543
0.9972871952
0.9973127859
0.9975200042
0.9978804686
0.9982140343
0.998140871
0.9979250596
0.9978657513
0.9979040241
0.9982885576
0.998896623
0.9990069085
0.9998156819
1.000025669
1.000058252
0.9995561438
0.9988835761
0.9978265734
0.9970400855
0.9968666243
0.9969471207
0.9973423052
0.9977199382
0.9984725224
0.9993129043
0.999460552
0.9994880319
0.999463886
0.9995843255
0.9997461144
0.9997760527
0.9992617775
0.9981338889
0.9973685603
0.9973999266
0.9976916643
0.9981314027
0.9981986054
0.9979545537
0.9976829827
0.9976334881
0.9978072635
0.9983644981
0.9974584311
0.9984614094
0.9993594655
0.9997296278
1.000181032
0.9999876793
0.9994358321
0.9983159411
0.9971292937
0.9968672069
0.9970701594
0.9973486231
0.9976913902
0.9982190046
0.9987840777
0.9991354836
0.9993689425
0.9994309846
0.9995628921
0.9996051731
0.9996627742
0.9993808385
0.9983696312
0.997527142
0.9975919079
0.9980732618
0.9983144156
0.9982390773
0.9977923721
0.997566516
0.9977301801
0.9980599469
0.9969567565
0.9973076581
0.9977150884
0.9990074641
0.999751105
0.9997946117
0.9999322581
0.9996242232
0.9987454905
0.9976608828
0.9970195694
0.997099593
0.9973439721
0.997533025
0.9976603983
0.9978880973
0.9982752012
0.9986866853
0.9989891629
0.9994093318
0.9999188062
1.000001819
0.9996102404
0.9984579831
0.9978208824
0.998026333
0.9983050673
0.9984585896
0.9982629903
0.9978929677
0.9977856015
0.9979813655
0.9966710672
0.996763253
0.9972300895
0.9977443904
0.9986250089
0.9995567721
0.999830346
0.9999036145
1.00002317
0.9993234091
0.9982252543
0.9973181079
0.997085936
0.997141991
0.9971799988
0.9971999184
0.9972258932
0.9975882181
0.9984020281
0.9992850989
0.9997525896
0.9998093304
0.9997742308
0.9994088567
0.9985840065
0.9980780484
0.9982222188
0.9985344693
0.9986873904
0.9984612259
0.9981520936
0.9979636446
0.9966807652
0.9967117041
0.9968122654
0.9969606411
0.9974256388
0.9985906865
0.9996744158
1.000128049
0.9999544072
1.000060026
0.9997804546
0.9986696753
0.9975208438
0.9970255665
0.9969228977
0.9968938784
0.9969468217
0.9970115616
0.9972906337
0.9977704304
0.9986321989
0.9994308091
1.000000249
0.9997056061
0.999309804
0.9983780322
0.9982049817
0.9984911033
0.9987075815
0.9986240843
0.998404528
0.9981038918
0.9978536269
0.9972921374
0.9966952655
0.996565427
0.9968166016
0.9970578775
0.9982270455
0.9997068485
1.000107573
1.000501534
1.000288552
0.9998401967
0.9988558025
0.9976749059
0.9969692654
0.9967443312
0.9966718285
0.9967143454
0.9968840011
0.997125091
0.9975015269
0.998723654
0.9998329849
0.9998465132
0.9995829972
0.9989731678
0.998383433
0.9984776815
0.9987555869
0.9987463955
0.9984951351
0.9981445106
0.9991701818
0.998748831
0.997804612
0.9969461081
0.9965095754
0.9966421618
0.996844719
0.9978757358
0.9998416579
1.000221047
1.000203833
1.000218794
0.9997526499
0.9988945344
0.9978055231
0.9969850244
0.9965839449
0.9965493606
0.996696377
0.9969818429
0.9972935715
0.9975137169
0.9985415221
0.9996475802
0.9995994874
0.9992834505
0.9988030108
0.9986147111
0.9988158492
0.9987391432
0.9984760225
0.9981363646
0.9996469613
0.9998965567
0.9994641722
0.9984089404
0.9970433359
0.9964988738
0.9966125626
0.9967790334
0.9979086767
0.9996202853
1.000277255
1.000077192
0.9997653682
0.999374309
0.9988910724
0.9980799585
0.997299383
0.9968925551
0.9970060717
0.9971968248
0.9972028934
0.9972005317
0.997367379
0.9983659193
0.9993524047
0.9992521229
0.999070693
0.9988330384
0.998727021
0.9986335592
0.9984138619
0.9981685301
0.9994896564
0.9998921514
0.9999155638
0.9995942577
0.9986697362
0.9972741365
0.996612222
0.9967781339
0.9967585279
0.9978722351
0.9996667358
1.000082443
0.9999373092
0.9997281704
0.9994373714
0.9989931192
0.9985054401
0.9978899269
0.9976748528
0.9976749768
0.9974949894
0.997223144
0.9971342022
0.9972024376
0.9981238379
0.9991271938
0.9991704788
0.9989794543
0.9987602533
0.9986676225
0.9985239345
0.9982608673
0.9994841223
1.000065863
1.000314072
1.000117532
0.9997008137
0.9988506732
0.9975332697
0.9966699553
0.996551162
0.9969759808
0.997799902
0.9992446054
0.9998842439
0.9997877049
0.9995141275
0.9992883781
0.9991883337
0.9987958048
0.9983203061
0.99809132
0.9980426922
0.9978172494
0.9972418403
0.9969107837
0.9971706547
0.9980665887
0.9989118912
0.9990324401
0.9988892168
0.9988932216
0.9988744478
0.9986091856
0.9981277217
0.9998543981
1.000451313
1.000333585
0.9999334821
0.9993933428
0.9986992384
0.9974375843
0.9967614979
0.996935136
0.9968712399
0.9975346983
0.9985362479
0.999327616
0.9994653082
0.9994162128
0.9993580802
0.9992398142
0.9989221858
0.9984905266
0.9985131373
0.9984853659
0.9976828692
0.9969501594
0.9970238316
0.9973104599
0.9979225942
0.998648657
0.9989578926
0.9990600591
0.9991546796
0.9990414278
0.9959283762
0.9964519765
0.9977866208
0.9997016422
1.000453212
1.000178018
0.9998496036
0.9993210143
0.9987451169
0.9978051641
0.9970603063
0.9971974158
0.997102854
0.9971870857
0.9977385373
0.9987448418
0.9993972913
0.9995124997
0.9995718371
0.9994394821
0.9988872005
0.9988494857
0.9988157107
0.9983164985
0.9976300613
0.9972524583
0.9975049925
0.9975417977
0.9978706272
0.9985303394
0.999104367
0.9993172333
0.9992553813
0.9962781404
0.9960753535
0.9961577682
0.9971528463
0.9989109007
1.000133069
1.000197537
0.9998535841
0.9994233629
0.9988046859
0.9981409299
0.9974516583
0.9970384095
0.9968416852
0.9968749641
0.9972508574
0.9980775464
0.9992435943
0.999797882
0.9997440688
0.9992777273
0.9991159699
0.9991103585
0.99891245
0.9984824795
0.9979648602
0.9976744746
0.9976266273
0.9977759254
0.9978114755
0.9982587944
0.9989564794
0.9993772944
0.9966286225
0.9961838904
0.9962687612
0.9960985487
0.9965691375
0.9981536793
0.9997681932
1.00020287
0.9998798653
0.9996138848
0.9991932947
0.9981829392
0.9976444325
0.997487971
0.9972503418
0.9969296558
0.9968799575
0.9975540002
0.998892422
0.9997030138
0.9995597138
0.9992412973
0.9994567119
0.9994076299
0.9990754875
0.9984475377
0.9978970645
0.9978619998
0.9978500589
0.997630982
0.9975675507
0.9977175498
0.9986371315
0.9983694994
0.9970195546
0.9963602553
0.9962369937
0.9962499676
0.9963371321
0.9975436827
0.9995222054
1.000144464
1.000236104
0.9998740439
0.9989903651
0.998456
0.9981809537
0.9975849668
0.9968140855
0.9965644108
0.9965559657
0.9970440417
0.9985996011
0.9995183022
0.999417949
0.9996562434
0.9997257085
0.9995006725
0.9988634457
0.9982541806
0.9982409935
0.9982263908
0.9979561005
0.9976762552
0.9972471848
0.9974048873
0.9997805581
0.9986084146
0.9974033065
0.9966120753
0.9964219775
0.9958684449
0.9960966389
0.9973392696
0.9995102884
1.000499606
1.000352025
0.9998186733
0.9992120909
0.9983880737
0.99795916
0.9975469701
0.9971966298
0.996788838
0.996489756
0.9970495183
0.9985159603
0.9993689591
0.9994415401
0.9995634161
0.9995544308
0.9990663724
0.9984998492
0.9985441984
0.9985945471
0.998505888
0.9980543495
0.997408722
0.9972085232
1.000617154
0.9996450583
0.9989121235
0.9978974539
0.9969112254
0.996768732
0.9965108731
0.9962147927
0.9973990343
0.9995497277
1.000460871
1.000409236
0.999712077
0.9989551988
0.9985713237
0.9983978741
0.9980417304
0.997385815
0.9968246406
0.9969922391
0.9972885324
0.9981500373
0.9984834532
0.9987135469
0.9990891123
0.9989567174
0.9984489352
0.9984180762
0.9987117518
0.9988917759
0.9984198308
0.9978769312
0.9973396977
1.001163563
1.000351405
0.999888307
0.9989987077
0.9981300674
0.9978101804
0.9970812493
0.9966442319
0.9962791176
0.9974124861
0.9996947755
1.000551189
1.000126966
0.9997429936
0.9992214083
0.9990225764
0.9987341851
0.9982047086
0.9976496057
0.9969460904
0.9966707955
0.9968905416
0.9974076416
0.9977135158
0.9981516872
0.9986559888
0.9984651402
0.9983223381
0.9984785649
0.9988987188
0.9989077167
0.998682438
0.9980117395
1.001108147
1.000949696
1.000462943
0.9998725038
0.9991208137
0.998109539
0.9971598485
0.9971081706
0.9966092341
0.9967131234
0.997651988
0.9997356156
1.000503372
1.000286962
0.9997208482
0.9993374202
0.9990982003
0.9989521123
0.9984369865
0.9977458402
0.9973829313
0.9973490003
0.997415912
0.9973130561
0.997554036
0.9982044678
0.9986366975
0.9984795549
0.9983316103
0.998825699
0.9993249421
0.9992607899
0.9987780833
0.9995325227
1.001130023
1.000919332
1.000596437
0.9998172815
0.9988722798
0.9982773618
0.9972770048
0.9972300184
0.9964748744
0.9962961279
0.9978124233
0.9995411743
0.9998717281
0.9994278291
0.9993097527
0.9994544185
0.9995755323
0.9992134481
0.9987748224
0.998251101
0.9980475498
0.9976786778
0.9974916547
0.9973455138
0.9978755609
0.99872743
0.9987403357
0.9985014758
0.9985842275
0.9991278799
0.9994785763
0.9992771532
0.997286503
0.999350583
1.000602203
1.000865955
1.000416479
0.9997462772
0.9991685182
0.9982967972
0.9974793751
0.9970490684
0.9970802398
0.9966687929
0.9975003418
0.9984190602
0.9985344422
0.9988070729
0.9991898158
0.9996046695
0.9998310838
0.999548753
0.9986736788
0.9979398029
0.9977950513
0.9979880875
0.9978861174
0.9978943833
0.9984238343
0.9988110216
0.9986825437
0.9981721468
0.9982687837
0.998908608
0.9991732886
0.9962253626
0.9971914757
0.9984674443
0.9998706571
1.000456172
1.000363677
0.9998325278
0.9992951051
0.998602503
0.9982159909
0.9980974879
0.9972348029
0.9970465632
0.9973667928
0.9975941184
0.9976440258
0.9977715739
0.9985834647
0.9997147104
0.9998070103
0.999018035
0.9986440658
0.9987531828
0.9988464935
0.9987116802
0.9981724079
0.9980584442
0.9983771943
0.9983812562
0.9978556122
0.9974590841
0.9977723411
0.9986089987
0.99707304
0.9963567906
0.9965665352
0.9975691418
0.9991456336
1.000082743
0.9999599357
1.000129282
0.9996776286
0.9991968479
0.9980217384
0.998004173
0.996952401
0.9966636356
0.996611943
0.9964393093
0.9966308517
0.9970568335
0.9982604131
0.9993347799
0.99964598
0.9994535425
0.9994428985
0.9994721646
0.9993166995
0.998699777
0.9981672021
0.9979817501
0.9979352953
0.9976381535
0.9973511185
0.9973536518
0.9979997584
0.9981240343
0.9971284973
0.9968687895
0.9964326309
0.9970017557
0.9984980381
0.9998104225
1.000100126
1.000415757
1.00001356
0.9990938095
0.9979321101
0.9974636758
0.9972563966
0.9971950811
0.9971495135
0.9970513265
0.9966845442
0.99683623
0.9981308224
0.9998028176
0.9999957259
0.9995773985
0.9993499664
0.999292143
0.9992705323
0.9986245148
0.9980757564
0.9978837036
0.9977984908
0.9976572384
0.9975571387
0.9976756406
0.9982612939
0.9982180542
0.9972430557
0.9965506094
0.9964588789
0.9969480298
0.9983432561
0.9995836874
1.000523896
1.000679475
1.000168448
0.9990258028
0.9985039715
0.9981885947
0.9980527805
0.9980806661
0.9977021723
0.9966502925
0.9964159594
0.9969217394
0.9981187299
0.9992576805
0.9992364773
0.9990354741
0.9992042637
0.9994741767
0.9990970833
0.9985843977
0.9983401014
0.9982506002
0.998068305
0.9978355201
0.9974180674
0.9989978215
0.998728582
0.9974039167
0.9969128935
0.9960842942
0.9958907703
0.9963597322
0.9977992244
0.9997076187
1.00071014
1.000884138
1.000191978
0.9993666537
0.9981215411
0.9981433537
0.9981410583
0.9978163599
0.997432928
0.9969624659
0.9964358811
0.9965356699
0.9975897973
0.998458473
0.998337722
0.9983819868
0.9985450468
0.999010156
0.9991038058
0.9990235439
0.9988258812
0.9983353039
0.9978894905
0.9977476498
0.9999262648
0.9993489207
0.9986009223
0.9975381773
0.9969803924
0.9965696697
0.9963330733
0.9960392705
0.997542596
0.999492353
1.000490857
1.000969444
1.000156449
0.999118824
0.9983924241
0.9982514001
0.9984351973
0.9984890839
0.9979438954
0.9972753487
0.9971859636
0.9972721181
0.9975143508
0.9974241006
0.9973273267
0.997377347
0.9978306337
0.9987492892
0.9992495575
0.9991391612
0.9985958089
0.9981434841
0.9980563488
0.9996874217
1.000257747
1.000089946
0.9996860001
0.9988656345
0.9981667589
0.9975185483
0.996549638
0.9963214509
0.9963760483
0.9971767313
0.9991703438
1.000680597
1.000801967
1.000114158
0.9993445223
0.9988984809
0.999124429
0.9993244089
0.9986523223
0.9983140693
0.9980174189
0.9972668162
0.9968755229
0.9975247386
0.9976007954
0.997399004
0.9971452078
0.9974583228
0.9982530639
0.9987003152
0.9986099996
0.9981848781
0.9976401959
0.9988193156
0.9997610955
1.000354869
1.000264653
0.9999539366
0.9987450564
0.9973982593
0.9968671772
0.9968377181
0.9958028612
0.9957369271
0.9971861552
0.9992049606
1.000746258
1.000719204
1.00016466
0.999451112
0.9991780921
0.999089161
0.9991548551
0.9988596605
0.9978483754
0.9974825407
0.997489117
0.9979772235
0.9982016647
0.9978954569
0.9972567677
0.9969490413
0.9971700315
0.9977918849
0.9982602831
0.9979161423
0.9973178487
0.9974357388
0.9985093434
0.9996286399
1.000044189
1.000115883
0.9988877117
0.9983165401
0.9978746636
0.9969067105
0.9967608608
0.9966900547
0.9958920244
0.9970939289
0.9988815663
1.000150994
0.9999312121
0.9991955389
0.998866334
0.9990202695
0.9993908158
0.9986909639
0.9984256437
0.9986086254
0.9984958622
0.9985462858
0.9986276289
0.9983480981
0.9977869809
0.9972813861
0.9969928832
0.9971777664
0.9978232084
0.9980988322
0.9978879748
0.9975424202
0.9976744339
0.9985196572
0.9995874345
0.9996896058
0.9995106915
0.9993972553
0.9988003658
0.9978990803
0.9980107227
0.9977961961
0.9967512604
0.9962125417
0.9968100073
0.998207968
0.9987826065
0.9988245361
0.9988327798
0.999221099
0.9992803422
0.9991347652
0.9993055642
0.999430861
0.9992484517
0.9991159053
0.9991452913
0.9991297279
0.9988943465
0.9979302437
0.9974480954
0.9974303737
0.9978694448
0.9986398797
0.998752949
0.9977852872
0.9978491212
0.9978601869
0.9982811153
0.9989816223
0.9999918146
1.00011035
0.9993625824
0.9991612453
0.9988824815
0.9975649189
0.9978763033
0.9967973296
0.9963821366
0.9968165776
0.9974796447
0.9980765531
0.9984066002
0.9987764045
0.9990424246
0.9995999063
0.9998121606
0.9994219047
0.9995299127
0.9994204986
0.9994699076
0.9997394137
0.9995601531
0.9988241925
0.998282249
0.9980129022
0.9982083043
0.9989545448
0.9992229077
0.9980517609
0.9980299069
0.9972303627
0.9974301716
0.9976365767
0.9988066301
0.9997699577
0.9999125417
1.000011371
0.9989223379
0.998320804
0.9977966608
0.9977104637
0.9967477691
0.9959623544
0.9966986929
0.9971684671
0.9974920259
0.9978518231
0.9985556159
0.9991276055
0.9993235384
0.9993033973
0.9995580432
0.9992021472
0.9990480026
0.9991594355
0.9993714211
0.9992951408
0.9988652643
0.9988469676
0.9982256026
0.9979452655
0.9971020231
)
;

boundaryField
{
    inlet
    {
        type            fixedValue;
        value           nonuniform 0();
    }
    outlet
    {
        type            zeroGradient;
    }
    bottom
    {
        type            slip;
    }
    top
    {
        type            slip;
    }
    obstacle
    {
        type            zeroGradient;
    }
    defaultFaces
    {
        type            empty;
    }
    procBoundary11to5
    {
        type            processor;
        value           nonuniform List<scalar> 
33
(
0.9988742006
0.9946751727
0.9952824406
0.9956403255
0.9965092581
0.9977512991
0.9990240606
0.9994036263
0.9990956309
0.9984688042
0.997628801
0.9970099138
0.996975998
0.9971793301
0.997631763
0.9981047482
0.9983677462