/*--------------------------------*- C++ -*----------------------------------*\
  =========                 |
  \\      /  F ield         | OpenFOAM: The Open Source CFD Toolbox
   \\    /   O peration     | Website:  https://openfoam.org
    \\  /    A nd           | Version:  7
     \\/     M anipulation  |
\*---------------------------------------------------------------------------*/
FoamFile
{
    version     2.0;
    format      ascii;
    class       volScalarField;
    location    "1.5";
    object      p;
}
// * * * * * * * * * * * * * * * * * * * * * * * * * * * * * * * * * * * * * //

dimensions      [1 -1 -2 0 0 0 0];

internalField   nonuniform List<scalar> 
2222
(
1
1
1
1
1
1
1
1
1
1
1
1
1
1
1
1
1
1
1
1
1
1
1
1
1
1
1
1
1
1
1
1
1
1
1
1
1
1
1
1
1
1
1
1
1
1
1
1
1
1
1
1
1
1
1
1
1
1
1
1
1
1
1
1
1
1
1
1
1
1
1
1
1
1
1
1
1
1
1
1
1
1
1
1
1
1
1
1
1
1
1
1
1
1
1
1
1
1
1
1
1
1
1
1
1
1
1
1
1
1
1
1
1
1
1
1
1
1
1
1
1
1
1
1
1
1
1
1
1
1
1
1
1
1
1
1
1
1
1
1
1
1
1
1
1
1
1
1
1
1
1
1
1
1
1
1
1
1
1
1
1
1
1
1
1
1
1
1
1
1
1
1
1
1
1
1
1
1
1
1
1
1
1
1
1
1
1
1
1
1
1
1
1
1
1
1
1
1
1
1
1
1
1
1
1
1
1
1
1
1
1
1
1
1
1
1
1
1
1
1
1
1
1
1
1
1
1
1
1
1
1
1
1
1
1
1
1
1
1
1
1
1
1
1
1
1
1
1
1
1
1
1
1
1
1
1
1
1
1
1
1
1
1
1
1
1
1
1
1
1
1
1
1
1
1
1
1
1
1
1
1
1
1
1
1
1
1
1
1
1
1
1
1
1
1
1
1
1
1
1
1
1
1
1
1
1
1
1
1
1
1
1
1
1
1
1
1
1
1
1
1
1
1
1
1
1
1
1
1
1
1
1
1
1
1
1
1
1
1
1
1
1
1
1
1
1
1
1
1
1
1
1
1
1
1
1
1
1
1
1
1
1
1
1
1
1
1
1
1
1
1
1
1
1
1
1
1
1
1
1
1
1
1
1
1
1
1
1
1
1
1
1
1
1
1
1
1
1
1
1
1
1
1
1
1
1
1
1
1
1
1
1
1
1
1
1
1
1
1
1
1
1
1
1
1
1
1
1
1
1
1
1
1
1
1
1
1
1
1
1
1
1
1
1
1
0.9999999999
1
1
1
1
1
1
1
1
1
1
1
1
1
1
1
1
1
1
1
1
1
1
1
1
1
1
1
1
1
1
1
1
1
1
1
1
1
1
1
1
1
1
1
1
1
1
1
1
1
1
1
1
1
1
1
1
1
1
1
1
1
1
1
1
1
1
0.9999999985
1
1
1
1
1
1
1
1
1
1
1
1
1
1
1
1
1
1
1
1
1
1
1
1
1
1
1
1
1
1
1
1
1
1
1
1
1
1
1
1
1
1
1
1
1
1
1
1
1
1
1
1
1
1
1
1
1
1
1
1
1
1
1
1.000000002
1.000000009
1.000000292
0.9999999677
1
1
1
1
1
1
1
1
1
1
1
1
1
1
1
1
1
1
1
1
1
1
1
1
1
1
1
1
1
1
1
1
1
1
1
1
1
1
1
1
1
1
1
1
1
1
1
1
1
1
1
1
1
1
1
1
1
1
1
1.000000003
1.00000002
1.00000011
1.000000556
1.000002339
1.000008941
1.000056052
1.000020922
1
1
1
1
1
1
1
1
1
1
1
1
1
1
1
1
1
1
1
1
1
1
1
1
1
1
1
1
1
1
1
1
1
1
1
1
1
1
1
1
1
1
1
1
1
1
1
1
1
1
1
1
1
1
1.000000001
1.000000006
1.000000038
1.000000199
1.000000932
1.000003918
1.000014816
1.000049891
1.00015496
1.000429606
1.001100005
1.002757549
1.004343256
1
1
1
1
1
1
1
1
1
1
1
1
1
1
1
1
1
1
1
1
1
1
1
1
1
1
1
1
1
1
1
1
1
1
1
1
1
1
1
1
1
1
1
1
1
1
1
1
1
1
1.000000002
1.000000012
1.000000072
1.000000361
1.000001617
1.000006445
1.000023604
1.000076234
1.000227524
1.00061289
1.001537097
1.003380572
1.007245596
1.013686853
1.024776818
1.041200752
1.060131968
1
1
1
1
1
1
1
1
1
1
1
1
1
1
1
1
1
1
1
1
1
1
1
1
1
1
1
1
1
1
1
1
1
1
1
1
1
1
1
1
1
1
1
1
1
1.000000001
1.000000004
1.000000025
1.000000135
1.000000654
1.0000028
1.000010816
1.00003721
1.000118146
1.000333694
1.000880795
1.002088654
1.004579065
1.0092585
1.017169061
1.030374803
1.048369229
1.073497531
1.10494671
1.144595758
1.184834501
1.219699846
1
1
1
1
1
1
1
1
1
1
1
1
1
1
1
1
1
1
1
1
1
1
1
1
1
1
1
1
1
1
1
1
1
1
1
1
1
1
1
1
1
1.000000001
1.000000009
1.000000051
1.000000259
1.000001181
1.000004822
1.000018017
1.000058762
1.000181147
1.000496679
1.001250072
1.002849417
1.006170427
1.011766617
1.021797243
1.036748618
1.057195353
1.085823691
1.120352771
1.157543432
1.198700195
1.243444864
1.286065772
1.318286757
1.348089957
1.375230093
1
1
1
1
1
1
1
1
1
1
1
1
1
1
1
1
1
1
1
1
1
1
1
1
1
1
1
1
1
1
1
1
1
1
1
1
1
1.000000003
1.000000018
1.0000001
1.000000492
1.000002152
1.000008364
1.000029793
1.000094661
1.000275134
1.000730376
1.001779357
1.003901742
1.00816438
1.015264213
1.027033904
1.044556428
1.067591962
1.097899772
1.13799013
1.174118767
1.213350264
1.259864294
1.29715649
1.328540353
1.360087285
1.378669217
1.393674937
1.407934218
1.421313917
1.425517114
1
1
1
1
1
1
1
1
1
1
1
1
1
1
1
1
1
1
1
1
1
1
1
1
1
1
1
1
1
1
1
1
1.000000001
1.000000006
1.000000038
1.000000201
1.000000926
1.000003891
1.000014549
1.000048708
1.000151725
1.000422137
1.001059854
1.002539773
1.005344934
1.010638494
1.019884501
1.03320791
1.053651526
1.081391541
1.112030592
1.151860472
1.1943143
1.234051746
1.27867704
1.314377477
1.342089093
1.377402518
1.400384168
1.415930551
1.430700742
1.442679646
1.444885365
1.4482512
1.454372048
1.457067703
1.456535329
1
1
1
1
1
1
1
1
1
1
1
1
1
1
1
1
1
1
1
1
1
1
1
1
1
1
1
1
1.000000002
1.000000014
1.000000079
1.000000398
1.000001762
1.000006941
1.000025061
1.000081072
1.000236452
1.000644166
1.001560387
1.003520418
1.007425251
1.013922702
1.025030138
1.04177713
1.063175637
1.095292159
1.131160619
1.166404736
1.212287448
1.253648578
1.292181452
1.32897917
1.352440828
1.376513529
1.400850526
1.407362565
1.415846228
1.428629464
1.430894341
1.433329877
1.440175438
1.44735549
1.451094112
1.454040245
1.45895778
1.462216261
1.461654931
1
1
1
1
1
1
1
1
1
1
1
1
1
1
1
1
1
1
1
1
1
1
1
1.000000001
1.000000005
1.000000031
1.000000164
1.000000773
1.000003298
1.000012424
1.000042221
1.000134088
1.000374065
1.000958205
1.00230325
1.004903272
1.009925319
1.018476146
1.031160998
1.051800405
1.077461751
1.107728863
1.14895426
1.189101793
1.231241223
1.275152205
1.308793599
1.344619535
1.376634719
1.396744019
1.417370812
1.433439616
1.439392109
1.446797234
1.455263499
1.455946509
1.456165627
1.457804627
1.457598036
1.455644158
1.453342743
1.451772285
1.451314523
1.45155209
1.452662357
1.454114508
1.454373668
1
1
1
1
1
1
1
1
1
1
1
1
1
1
1
1
1
1
1
1.000000002
1.000000011
1.000000066
1.000000339
1.000001511
1.000006066
1.000022196
1.000072015
1.000213949
1.000588805
1.001430486
1.003280304
1.006952481
1.013159383
1.023977159
1.039769187
1.061528164
1.093295194
1.12608919
1.164156356
1.211269881
1.249696838
1.292063551
1.327343467
1.350356879
1.381001988
1.399515317
1.407904115
1.420643218
1.428678754
1.431314169
1.435622813
1.441357039
1.446458256
1.451313873
1.457343352
1.461246766
1.462076665
1.46262039
1.462218953
1.461594623
1.460854066
1.459561343
1.45783923
1.456146989
1.454250933
1.452977919
1.451868442
1
1
1
1
1
1
1
1
1
1
1
1
1
1
1.000000001
1.000000004
1.000000026
1.000000141
1.000000678
1.000002908
1.000011039
1.000038426
1.000123007
1.000342999
1.000898007
1.002178883
1.004613824
1.009510911
1.017864351
1.030117532
1.050415187
1.075691791
1.10635379
1.147184403
1.18728153
1.230937086
1.273354889
1.307782693
1.348497948
1.376760338
1.397160118
1.420408628
1.434031758
1.441219378
1.452354852
1.457902113
1.457296339
1.458008099
1.459713575
1.459284839
1.457521058
1.455197297
1.452601821
1.4521788
1.452828318
1.454172541
1.454708327
1.454940343
1.454948413
1.455120542
1.455561942
1.455910404
1.455664304
1.45502661
1.45441758
1.453753211
1.452994224
1
1
1
1
1
1
1
1
1
1
1.000000001
1.00000001
1.000000059
1.0000003
1.000001354
1.000005542
1.000020371
1.000066606
1.00020174
1.000552738
1.001352366
1.003166395
1.006689562
1.012719984
1.023539046
1.039073169
1.06070524
1.092487489
1.124929813
1.164085425
1.212482492
1.250662568
1.291616813
1.326948414
1.353120638
1.385132045
1.400562206
1.411129593
1.424819559
1.429411863
1.433710683
1.438604827
1.443287855
1.448709999
1.454368311
1.461093239
1.462908874
1.46394326
1.46437608
1.463900466
1.463217685
1.46232858
1.460966194
1.459101095
1.457201939
1.45495376
1.453059815
1.451628833
1.451184708
1.451230326
1.451500467
1.451950412
1.452377914
1.452551477
1.452693375
1.452831309
1.45298632
1
1
1
1
1
1.000000001
1.000000004
1.000000024
1.000000129
1.000000625
1.000002689
1.000010287
1.000036525
1.000115524
1.000325168
1.000873941
1.002079903
1.004510217
1.009456344
1.01731348
1.030024003
1.050436513
1.074546116
1.107182927
1.148358254
1.186994805
1.232385369
1.275390625
1.311035279
1.353033173
1.379854052
1.399478458
1.423758047
1.438468892
1.445633913
1.455639566
1.460517156
1.460252715
1.46124279
1.462306536
1.461919526
1.460247308
1.457427939
1.454519253
1.453880263
1.45451801
1.455725142
1.455715125
1.455456528
1.455657234
1.455917484
1.455880406
1.455985207
1.455727132
1.454990323
1.454229454
1.45339389
1.452480254
1.451973341
1.451738683
1.451640622
1.45173176
1.451804862
1.451805045
1.451754377
1.451847253
1.452176926
1
1.000000001
1.000000009
1.000000054
1.00000028
1.00000128
1.000005282
1.000019405
1.000064072
1.000196072
1.000532697
1.001332556
1.003151316
1.006521446
1.012729962
1.023500657
1.038530342
1.062076547
1.09277322
1.124593839
1.168918428
1.214161991
1.251930456
1.297088241
1.329939806
1.358323601
1.391589776
1.403196406
1.414429157
1.429623288
1.432924161
1.437410425
1.443085898
1.447733622
1.452179536
1.457056952
1.462836852
1.465515896
1.466790005
1.466799885
1.466259133
1.465616502
1.464532615
1.462614417
1.459965213
1.457754989
1.455284901
1.453188988
1.45154164
1.451238593
1.45113915
1.451154424
1.451290676
1.451650236
1.451805841
1.451966677
1.452227958
1.452473141
1.452738836
1.452875214
1.452794236
1.452777661
1.452812853
1.452757889
1.452682095
1.452748105
1.453024284
1.000000605
1.000002604
1.00001005
1.000035859
1.00011256
1.000322527
1.000869368
1.002043308
1.004553532
1.009440523
1.017147401
1.030858652
1.050857986
1.074934753
1.110258054
1.149404929
1.189892652
1.237839667
1.27803813
1.318801955
1.358259821
1.383185159
1.407066756
1.432059463
1.442260618
1.450978879
1.462218747
1.463143664
1.463177642
1.46581222
1.46601506
1.465402917
1.463529004
1.46040387
1.456506875
1.455330669
1.455919346
1.457222239
1.45712753
1.456510791
1.456520831
1.456739061
1.456363925
1.456070875
1.455485897
1.454538421
1.453827546
1.453195833
1.452439957
1.452000329
1.451593836
1.45112501
1.451127426
1.45116573
1.451198048
1.451298505
1.451523359
1.451934709
1.452366971
1.452652922
1.453029968
1.453433668
1.453582297
1.453635494
1.453694629
1.453810237
1.453900903
1.000196343
1.000534796
1.001361147
1.003176629
1.006562785
1.013062038
1.023682058
1.039197129
1.064261405
1.093217348
1.126872106
1.174626589
1.216496591
1.259067949
1.303754537
1.333952526
1.369258306
1.395058773
1.407172979
1.423436353
1.434368367
1.437582077
1.443250852
1.447953608
1.451523681
1.456965777
1.462804268
1.466888302
1.468350029
1.469965493
1.470305077
1.469614645
1.468498529
1.466768396
1.463916301
1.460608194
1.458264145
1.455653163
1.453201134
1.451600713
1.45129329
1.450912232
1.45056068
1.450604053
1.450736789
1.45090484
1.451241739
1.451828508
1.452444119
1.452761308
1.452702181
1.452521555
1.452417793
1.452348229
1.452374355
1.452547523
1.452859314
1.453279586
1.453488676
1.453522037
1.453548898
1.453560725
1.453591873
1.453661079
1.453784543
1.453937009
1.454020677
1.009568249
1.017700474
1.03217364
1.05160924
1.077090263
1.114105235
1.15256458
1.196436638
1.244245514
1.283020588
1.328854705
1.365482881
1.390190814
1.418387358
1.43840635
1.448418068
1.461249944
1.46856556
1.467608957
1.468506047
1.470595994
1.47022809
1.469485474
1.467037939
1.463387405
1.459301625
1.458355866
1.4593104
1.459267928
1.458543679
1.457472761
1.456975812
1.457407388
1.457480509
1.456346994
1.454788774
1.45390583
1.453205273
1.45267519
1.452164592
1.451662953
1.451059196
1.450432233
1.450212408
1.450274676
1.450412684
1.450630916
1.45103489
1.451705763
1.452262548
1.452735309
1.453142718
1.453371536
1.453469423
1.453571706
1.453767039
1.454084143
1.454329952
1.454342387
1.454281319
1.45412639
1.45388839
1.453732292
1.453716552
1.453761554
1.453925443
1.454074236
1.095134883
1.13230869
1.181118887
1.2223011
1.267655357
1.30951929
1.34173232
1.381858302
1.402879201
1.415939249
1.433667672
1.439055371
1.443476813
1.449163728
1.453055756
1.45754651
1.464305894
1.470223811
1.470980326
1.471559816
1.472839218
1.473475002
1.472911023
1.471673962
1.469610453
1.466097212
1.462388687
1.458304273
1.455092307
1.451961982
1.450353295
1.450491186
1.450688663
1.45061577
1.450331489
1.450074466
1.450039996
1.450235468
1.450757612
1.45164931
1.452399246
1.452643749
1.452599915
1.452410989
1.452236383
1.452257212
1.452400061
1.452671452
1.453136628
1.453502997
1.453611026
1.45365801
1.453627213
1.453578604
1.453596742
1.453680729
1.453865622
1.45406807
1.454115025
1.454092643
1.45402492
1.453936374
1.453909472
1.453925471
1.453998447
1.454123465
1.454182967
1.292862471
1.341323999
1.374647212
1.399236743
1.427477925
1.447374144
1.459416302
1.473060063
1.476403374
1.475555647
1.47688538
1.476923256
1.47587356
1.474460509
1.471733301
1.467986231
1.464469747
1.462883437
1.46179246
1.461258684
1.460106973
1.459265899
1.459108033
1.458948226
1.457903021
1.455704041
1.453949633
1.452964657
1.452146835
1.451032056
1.450281976
1.450105434
1.449955732
1.449650207
1.449306105
1.449189103
1.44937149
1.449797151
1.45052098
1.451570362
1.452672487
1.45341574
1.453685791
1.453784996
1.453847498
1.453906233
1.453990183
1.454174089
1.454383738
1.454414514
1.454380611
1.454216652
1.453934027
1.453697714
1.453634233
1.453643843
1.453685219
1.453752461
1.45378414
1.453792445
1.453780204
1.453763324
1.453789745
1.453853086
1.453979662
1.454123027
1.454157524
1.424557179
1.44108341
1.446474216
1.45235147
1.457590615
1.460957086
1.465662116
1.472132928
1.475653458
1.475954375
1.476638406
1.477724236
1.477369624
1.476492782
1.475192733
1.472964407
1.469383034
1.465078506
1.460797231
1.456221871
1.451753106
1.449621628
1.449536375
1.449420272
1.449173999
1.449029788
1.448944972
1.449057518
1.449400629
1.450080818
1.450932588
1.451881696
1.452410746
1.452489772
1.452361908
1.452124125
1.452170669
1.452292873
1.45242429
1.452740961
1.453216375
1.453350746
1.453390388
1.453443998
1.453550431
1.453704214
1.453897804
1.454134221
1.454237116
1.454252823
1.454245689
1.454192097
1.454151955
1.454145036
1.454129372
1.454111889
1.454104853
1.45411955
1.454101884
1.454038902
1.45390638
1.453835376
1.453876067
1.453905401
1.453949416
1.453994667
1.454006382
1.485099267
1.48644687
1.485993162
1.484856383
1.4823004
1.476970159
1.470169368
1.466533662
1.463871494
1.464053288
1.463755519
1.46249896
1.461002017
1.460382233
1.45894453
1.456523953
1.454385618
1.45249491
1.450404792
1.449028319
1.44768361
1.447398479
1.447395713
1.447332222
1.447386873
1.447731451
1.448590571
1.449706435
1.450634356
1.451210326
1.451758678
1.452453614
1.452875193
1.453041171
1.45321866
1.453425853
1.453565488
1.453595556
1.453626824
1.453739685
1.453798221
1.453786951
1.453752173
1.45369471
1.453655015
1.453686105
1.453788698
1.453930668
1.454018499
1.454051475
1.454068255
1.45405683
1.454091407
1.454159347
1.454234341
1.454267936
1.454270388
1.454235971
1.45417657
1.454114818
1.454092865
1.454068798
1.453980724
1.453894578
1.453851884
1.453809932
1.453795212
1.486809725
1.486987089
1.486411524
1.484823913
1.482138646
1.478778344
1.474364022
1.468703863
1.463945853
1.459844846
1.45584945
1.452051127
1.45054999
1.449619783
1.448047787
1.446703836
1.446412572
1.446731283
1.448053529
1.449395705
1.449881172
1.450289698
1.450400287
1.450430167
1.450894001
1.451348483
1.451914652
1.452645304
1.452829766
1.45282172
1.452931512
1.453229865
1.45346582
1.453625661
1.453846851
1.454099083
1.454196767
1.454190346
1.454162204
1.454104031
1.454017674
1.453914825
1.453822072
1.453766534
1.45374155
1.453735226
1.453758346
1.453798406
1.453826828
1.453830328
1.453783676
1.453785824
1.453832048
1.45390606
1.454020839
1.454113025
1.454147659
1.454163406
1.454130982
1.454055356
1.453998324
1.453986313
1.45399598
1.454000872
1.453976899
1.453928111
1.453892128
1.468707286
1.46619647
1.463934565
1.461395624
1.458809178
1.456554452
1.454265437
1.451272949
1.449744555
1.448186165
1.446502679
1.445246449
1.444422159
1.443311916
1.442454694
1.442646358
1.443391829
1.445244516
1.448304901
1.451385544
1.453393475
1.454233329
1.454586656
1.454703468
1.454529632
1.454370365
1.454420525
1.454556568
1.454470819
1.454187631
1.453821488
1.453409338
1.453104003
1.453053169
1.453096695
1.453315186
1.453648625
1.453815168
1.45388778
1.453929712
1.453901171
1.453837059
1.453832879
1.453861405
1.453947124
1.454072786
1.454117504
1.454135302
1.454114999
1.453995201
1.45384507
1.453792676
1.453789162
1.453801983
1.453870408
1.453936942
1.453956098
1.453956245
1.453924154
1.453906954
1.453912804
1.45391983
1.453958359
1.454006567
1.454016011
1.45400884
1.4539855
1.44905559
1.449884106
1.450367218
1.450239129
1.450099234
1.450000475
1.449632226
1.449142679
1.448726259
1.44887035
1.44973963
1.451233023
1.452139352
1.45210539
1.452098675
1.452248303
1.452579313
1.452870166
1.453219712
1.453884611
1.454629613
1.454842764
1.454814037
1.454625284
1.454180707
1.45380785
1.453726681
1.453740136
1.453938079
1.454150081
1.454170126
1.454113723
1.453911205
1.453687068
1.453637298
1.453644755
1.45377982
1.454038003
1.454163355
1.454159194
1.454110557
1.453968025
1.453789747
1.453739429
1.453741926
1.453839139
1.453945923
1.453932645
1.45388137
1.453802698
1.453700737
1.453656419
1.453648619
1.453679181
1.453786473
1.453903955
1.453931389
1.453914566
1.453880489
1.453867889
1.453956971
1.454165372
1.454193778
1.45414261
1.454006229
1.453856356
1.453816689
1.453890383
1.454241959
1.454666072
1.454726264
1.454615666
1.454370108
1.454083953
1.45396955
1.453924027
1.453971565
1.454272591
1.454430055
1.454357143
1.454165544
1.453910262
1.453761538
1.453723903
1.453719463
1.453850863
1.454113317
1.454144442
1.454041855
1.453863549
1.453690113
1.453626439
1.453602477
1.453610398
1.45373912
1.45389153
1.453878773
1.453814645
1.453724984
1.453678071
1.453672231
)
;

boundaryField
{
    inlet
    {
        type            fixedValue;
        value           nonuniform 0();
    }
    outlet
    {
        type            zeroGradient;
    }
    bottom
    {
        type            slip;
    }
    top
    {
        type            slip;
    }
    obstacle
    {
        type            zeroGradient;
    }
    defaultFaces
    {
        type            empty;
    }
    procBoundary14to7
    {
        type            processor;
        value           nonuniform List<scalar> 2(1 1);
    }
    procBoundary14to8
    {
        type            processor;
        value           nonuniform List<scalar> 
70
(
1
1
1
1
1
1
1
1
1
1
1
1
1
1
1
1
1
1
1
1
1
1
1
1
1
1
1
1
1
1
1
1
1
1
1
1
1
1
1
1
1
1
1
1
1
1
1
1
1
1
1
1
1
1
1
1
1
1
1
1
1
1
1
1
1
1
1
1
1
1
)
;
    }
    procBoundary14to9
    {
        type            processor;
        value           nonuniform List<scalar> 
32
(
1
1
1
1.000000001
1.00000007
1.000004408
1.000173386
1.003541872
1.036925958
1.165923358
1.348073484
1.435438027
1.438487529
1.453397751
1.459588939
1.455118558
1.451802869
1.45204179
1.453144
1.453416231
1.453471154
1.453842707
1.453961398
1.45403037
1.454113912
1.45409192
1.453995876
1.453710159
1.453216395
1.446623221
1.385168143
1.088930669
)
;
    }
    procBoundary14to13
    {
        type            processor;
        value           nonuniform List<scalar> 
31
(
1
1
1
1
1
1
1
1
1
1
1
1
1
1
1
1
1
1
1
1
1
1
1.000000124
1.000063954
1.004682358
1.066449158
1.25168903
1.411936021
1.485146085
1.486187322
1.469352757
)
;
    }
    procBoundary14to20
    {
        type            processor;
        value           nonuniform List<scalar> 
28
(
1.453777021
1.450331007
1.450106854
1.450572973
1.45021812
1.449230818
1.44888212
1.44888212
1.441117087
1.444035252
1.447130456
1.449570166
1.451503177
1.453856082
1.456013787
1.456836295
1.457250675
1.457433456
1.457369576
1.457126854
1.456347603
1.455382924
1.454237937
1.453746974
1.453647818
1.453614434
1.453711059
1.453711059
)
;
    }
}


// ************************************************************************* //
