/*--------------------------------*- C++ -*----------------------------------*\
  =========                 |
  \\      /  F ield         | OpenFOAM: The Open Source CFD Toolbox
   \\    /   O peration     | Website:  https://openfoam.org
    \\  /    A nd           | Version:  7
     \\/     M anipulation  |
\*---------------------------------------------------------------------------*/
FoamFile
{
    version     2.0;
    format      ascii;
    class       volScalarField;
    location    "1.6";
    object      p;
}
// * * * * * * * * * * * * * * * * * * * * * * * * * * * * * * * * * * * * * //

dimensions      [1 -1 -2 0 0 0 0];

internalField   nonuniform List<scalar> 
22
(
0.9822142725
0.9883737015
0.9933716402
0.9967788463
0.9800591616
0.9859394926
0.9911272511
0.9957411289
0.9789905007
0.9830748604
0.9907580672
0.9950174418
0.9750776926
0.9861072775
0.991267163
0.9966105765
0.9755972767
0.9894236703
0.9942583253
0.9965213406
0.9758838502
0.9894287248
)
;

boundaryField
{
    inlet
    {
        type            fixedValue;
        value           nonuniform 0();
    }
    outlet
    {
        type            zeroGradient;
    }
    bottom
    {
        type            slip;
    }
    top
    {
        type            slip;
    }
    obstacle
    {
        type            zeroGradient;
    }
    defaultFaces
    {
        type            empty;
    }
    procBoundary17to11
    {
        type            processor;
        value           nonuniform List<scalar> 4(0.9880577606 0.9919576613 0.9979731969 0.9999521763);
    }
    procBoundary17to16
    {
        type            processor;
        value           nonuniform List<scalar> 5(1.017309606 1.015171568 1.016439355 1.013150626 1.014701348);
    }
    procBoundary17to22
    {
        type            processor;
        value           uniform 1.017302217;
    }
    procBoundary17to23
    {
        type            processor;
        value           nonuniform List<scalar> 5(0.9976388266 0.9960316806 0.9759642413 0.9976388266 0.9908183397);
    }
}


// ************************************************************************* //
