/*--------------------------------*- C++ -*----------------------------------*\
  =========                 |
  \\      /  F ield         | OpenFOAM: The Open Source CFD Toolbox
   \\    /   O peration     | Website:  https://openfoam.org
    \\  /    A nd           | Version:  7
     \\/     M anipulation  |
\*---------------------------------------------------------------------------*/
FoamFile
{
    version     2.0;
    format      ascii;
    class       volVectorField;
    location    "1.6";
    object      U;
}
// * * * * * * * * * * * * * * * * * * * * * * * * * * * * * * * * * * * * * //

dimensions      [0 1 -1 0 0 0 0];

internalField   nonuniform List<vector> 
2222
(
(3 -8.134974113e-15 0)
(3 -9.49895018e-15 0)
(3 -1.189200579e-14 0)
(3 -1.424817474e-14 0)
(3 -1.502243501e-14 0)
(3 -1.491219004e-14 0)
(3 -1.482635135e-14 0)
(3 -1.692714516e-14 0)
(3 -1.776435918e-14 0)
(3 -1.504328875e-14 0)
(3 -1.20400407e-14 0)
(3 -8.397726752e-15 0)
(3 -5.009066941e-15 0)
(3 -2.532261794e-15 0)
(3 -3.046983581e-15 0)
(3 -3.8630053e-15 0)
(3 -2.782904497e-15 0)
(3 -1.148920008e-15 0)
(3 -1.440780126e-15 0)
(3 -4.273500801e-16 0)
(3 3.87141489e-15 0)
(3 6.849410237e-15 0)
(3 1.034131672e-14 0)
(3 1.941425444e-15 0)
(3 3.83492591e-15 0)
(3 2.922957033e-15 0)
(3 4.998764896e-16 0)
(3 -2.544355149e-15 0)
(3 -3.840494173e-15 0)
(3 -3.877877203e-15 0)
(3 -6.607124002e-15 0)
(3 -6.809436914e-15 0)
(3 -7.973431651e-15 0)
(3 -8.411353002e-15 0)
(3 -8.606637588e-15 0)
(3 -9.712781002e-15 0)
(3 -1.08926949e-14 0)
(3 -1.253609745e-14 0)
(3 -1.470060216e-14 0)
(3 -1.445656568e-14 0)
(3 -1.249042604e-14 0)
(3 -7.515033547e-15 0)
(3 -3.952158286e-15 0)
(3 -1.489267971e-15 0)
(3 -4.045052564e-16 0)
(3 -3.914521219e-16 0)
(3 2.277447189e-15 0)
(3 6.721575122e-15 0)
(3 7.365014538e-15 0)
(3 1.108139286e-14 0)
(3 1.272595398e-14 0)
(3 1.597056591e-14 0)
(3 1.850495069e-14 0)
(3 1.903699909e-14 0)
(3 2.058388316e-14 0)
(3 2.16948201e-14 0)
(3 2.178101285e-14 0)
(3 -9.304657109e-15 0)
(3 -9.488521595e-15 0)
(3 -9.321295341e-15 0)
(3 -1.045547458e-14 0)
(3 -1.179873219e-14 0)
(3 -1.251360446e-14 0)
(3 -1.339723431e-14 0)
(3 -1.432201028e-14 0)
(3 -1.544790042e-14 0)
(3 -2.123119724e-14 0)
(3 -2.385471107e-14 0)
(3 -2.348903391e-14 0)
(3 -2.190310694e-14 0)
(3 -1.977108799e-14 0)
(3 -1.998635541e-14 0)
(3 -1.718727227e-14 0)
(3 -1.665317719e-14 0)
(3 -1.551558233e-14 0)
(3 -1.25452979e-14 0)
(3 -9.292026681e-15 0)
(3 -5.41348722e-15 0)
(3 -4.201568648e-15 0)
(3 -7.334569639e-16 0)
(3 4.245075403e-15 0)
(3 8.250295164e-15 0)
(3 1.014312166e-14 0)
(3 1.258306036e-14 0)
(3 1.548050553e-14 0)
(3 1.990714275e-14 0)
(3 2.260946775e-14 0)
(3 2.089017261e-14 0)
(3 2.135822836e-14 0)
(3 2.216654996e-14 0)
(3 2.221990707e-14 0)
(3 -1.359752546e-14 0)
(3 -1.554813766e-14 0)
(3 -1.46095062e-14 0)
(3 -1.286921192e-14 0)
(3 -1.174879824e-14 0)
(3 -1.22536435e-14 0)
(3 -1.304849168e-14 0)
(3 -1.306245319e-14 0)
(3 -1.266036118e-14 0)
(3 -1.700111085e-14 0)
(3 -2.053333784e-14 0)
(3 -1.822888945e-14 0)
(3 -1.705586501e-14 0)
(3 -1.68425381e-14 0)
(3 -1.478849505e-14 0)
(3 -1.296484194e-14 0)
(3 -1.276034436e-14 0)
(3 -1.124702269e-14 0)
(3 -8.568145686e-15 0)
(3 -5.27955953e-15 0)
(3 -2.172071495e-15 0)
(3 1.094142347e-16 0)
(3 1.215415825e-15 0)
(3 4.5544309e-15 0)
(3 7.702564919e-15 0)
(3 1.127006314e-14 0)
(3 1.58391036e-14 0)
(3 1.745710075e-14 0)
(3 1.698725184e-14 0)
(3 1.59730169e-14 0)
(3 1.376569222e-14 0)
(3 1.223316123e-14 0)
(3 1.208717767e-14 0)
(3 1.385930698e-14 0)
(3 -1.397372823e-14 0)
(3 -1.499960763e-14 0)
(3 -1.724256091e-14 0)
(3 -2.012760743e-14 0)
(3 -1.883929305e-14 0)
(3 -1.689331313e-14 0)
(3 -1.707193006e-14 0)
(3 -1.531075428e-14 0)
(3 -1.516355651e-14 0)
(3 -1.421370387e-14 0)
(3 -1.291050681e-14 0)
(3 -1.222952504e-14 0)
(3 -1.085684894e-14 0)
(3 -8.358521797e-15 0)
(3 -6.198079209e-15 0)
(3 -3.868756153e-15 0)
(3 -1.677813062e-15 0)
(3 1.669391303e-15 0)
(3 4.171207876e-15 0)
(3 6.567303011e-15 0)
(3 7.578344128e-15 0)
(3 7.401764501e-15 0)
(3 7.877385255e-15 0)
(3 9.56815463e-15 0)
(3 1.132125486e-14 0)
(3 1.34087831e-14 0)
(3 1.445338458e-14 0)
(3 1.425080556e-14 0)
(3 1.198961479e-14 0)
(3 9.14735529e-15 0)
(3 8.040707848e-15 0)
(3 6.542121297e-15 0)
(3 6.125011601e-15 0)
(3 7.968488933e-15 0)
(3 -6.997431229e-15 0)
(3 -8.988620008e-15 0)
(3 -1.166758749e-14 0)
(3 -1.320721972e-14 0)
(3 -1.344065855e-14 0)
(3 -1.173732277e-14 0)
(3 -1.07249713e-14 0)
(3 -8.010050933e-15 0)
(3 -7.082237301e-15 0)
(3 -5.431863657e-15 0)
(3 -1.783920197e-15 0)
(3 -7.83305888e-16 0)
(3 -1.051070484e-15 0)
(3 9.03192764e-16 0)
(3 3.334653486e-15 0)
(3 6.894571667e-15 0)
(3 1.100060353e-14 0)
(3 1.31808393e-14 0)
(3 1.423100855e-14 0)
(3 1.316538176e-14 0)
(3 1.344001265e-14 0)
(3 1.380186191e-14 0)
(3 1.467522637e-14 0)
(3 1.311991889e-14 0)
(3 1.013691041e-14 0)
(3 8.361294778e-15 0)
(3 9.516536131e-15 0)
(3 7.530386318e-15 0)
(3 6.907492883e-15 0)
(3 6.785310147e-15 0)
(3 6.767652933e-15 0)
(3 6.552826734e-15 0)
(3 6.00298161e-15 0)
(3 5.848153603e-15 0)
(3 1.136109595e-15 0)
(3 5.42930293e-16 0)
(3 1.841782883e-15 0)
(3 3.52625283e-15 0)
(3 3.737955791e-15 0)
(3 3.193031435e-15 0)
(3 5.086281948e-15 0)
(3 5.696736573e-15 0)
(3 5.446835787e-15 0)
(3 5.655489226e-15 0)
(3 6.37825368e-15 0)
(3 9.63681963e-15 0)
(3 1.052571183e-14 0)
(3 1.154932573e-14 0)
(3 1.290676825e-14 0)
(3 1.619951402e-14 0)
(3 2.000723373e-14 0)
(3 2.102378746e-14 0)
(3 2.055838528e-14 0)
(3 1.965140674e-14 0)
(3 1.955672548e-14 0)
(3 1.78544224e-14 0)
(3 1.409780977e-14 0)
(3 9.767676365e-15 0)
(3 6.553892845e-15 0)
(3 4.998514282e-15 0)
(3 3.056666374e-15 0)
(3 2.042300568e-15 0)
(3 2.529319331e-15 0)
(3 2.405718254e-15 0)
(3 5.73052078e-15 0)
(3 6.500380501e-15 0)
(3 6.69617709e-15 0)
(3 7.618239114e-15 0)
(3 7.956585991e-15 0)
(3 9.085121722e-15 0)
(3 1.092178442e-14 0)
(3 1.332614284e-14 0)
(3 1.448306309e-14 0)
(3 1.524413522e-14 0)
(3 1.502643861e-14 0)
(3 1.503742274e-14 0)
(3 1.454197317e-14 0)
(3 1.410674135e-14 0)
(3 1.408376235e-14 0)
(3 1.498146382e-14 0)
(3 1.674365584e-14 0)
(3 1.790184418e-14 0)
(3 1.825116765e-14 0)
(3 1.942226985e-14 0)
(3 2.023954645e-14 0)
(3 2.007932592e-14 0)
(3 2.065510319e-14 0)
(3 2.083421028e-14 0)
(3 1.791142167e-14 0)
(3 1.425018223e-14 0)
(3 9.385099537e-15 0)
(3 7.917373384e-15 0)
(3 5.71848313e-15 0)
(3 2.315605336e-15 0)
(3 7.031053492e-17 0)
(3 -4.368849734e-16 0)
(3 -2.062787115e-16 0)
(3 8.953692023e-16 0)
(3 2.230834533e-15 0)
(3 3.750581159e-15 0)
(3 4.578704361e-15 0)
(3 6.637682755e-15 0)
(3 1.896713142e-14 0)
(3 1.946838308e-14 0)
(3 1.958038087e-14 0)
(3 1.920209558e-14 0)
(3 1.92442168e-14 0)
(3 1.663129733e-14 0)
(3 1.421094012e-14 0)
(3 1.321989158e-14 0)
(3 1.253394996e-14 0)
(3 1.295707283e-14 0)
(3 1.414008507e-14 0)
(3 1.585564124e-14 0)
(3 1.596460975e-14 0)
(3 1.558234699e-14 0)
(3 1.487739562e-14 0)
(3 1.473127883e-14 0)
(3 1.425668747e-14 0)
(3 1.43538626e-14 0)
(3 1.430770599e-14 0)
(3 1.394912518e-14 0)
(3 1.185255729e-14 0)
(3 1.076865901e-14 0)
(3 9.028788753e-15 0)
(3 6.881231501e-15 0)
(3 5.147713419e-15 0)
(3 3.457973091e-15 0)
(3 3.938342352e-15 0)
(3 2.225448415e-15 0)
(3 2.182704909e-15 0)
(3 3.268122007e-15 0)
(3 2.439578171e-15 0)
(3 3.469989425e-15 0)
(3 4.914784941e-15 0)
(3 6.46231186e-15 0)
(3 2.518200542e-14 0)
(3 2.42202862e-14 0)
(3 2.324279206e-14 0)
(3 2.016492111e-14 0)
(3 1.583818001e-14 0)
(3 1.444460447e-14 0)
(3 1.515526216e-14 0)
(3 1.53228219e-14 0)
(3 1.370345689e-14 0)
(3 1.213848075e-14 0)
(3 1.048499473e-14 0)
(3 9.23681351e-15 0)
(3 8.491780162e-15 0)
(3 9.820359344e-15 0)
(3 9.537907943e-15 0)
(3 9.016102258e-15 0)
(3 8.782567417e-15 0)
(3 9.329966469e-15 0)
(3 9.517791098e-15 0)
(3 9.040968405e-15 0)
(3 7.784575564e-15 0)
(3 5.486097103e-15 0)
(3 4.513595436e-15 0)
(3 3.606507054e-15 0)
(3 1.903880734e-15 0)
(3 3.09263448e-15 0)
(3 4.464669397e-15 0)
(3 7.765378572e-15 0)
(3 7.986040513e-15 0)
(3 8.041412992e-15 0)
(3 9.16246614e-15 0)
(3 9.250216527e-15 0)
(3 8.956761345e-15 0)
(3 9.049116862e-15 0)
(3 1.581491563e-14 0)
(3 1.472843723e-14 0)
(3 1.498269138e-14 0)
(3 1.48945089e-14 0)
(3 1.492394119e-14 0)
(3 1.447827037e-14 0)
(3 1.481091452e-14 0)
(3 1.52164669e-14 0)
(3 1.49413916e-14 0)
(3 1.487246463e-14 0)
(3 1.43976149e-14 0)
(3 7.942108893e-15 0)
(3 3.445224947e-15 0)
(3 3.246112187e-15 0)
(3 2.919967157e-15 0)
(3 -5.479476708e-16 0)
(3 -1.839411255e-15 0)
(3 -3.957778918e-15 0)
(3 -3.754513308e-15 0)
(3 -3.753647476e-15 0)
(3 -2.950426241e-15 0)
(3 -3.602377416e-15 0)
(3 -3.948493497e-15 0)
(3 5.687682951e-16 0)
(3 1.63200847e-15 0)
(3 2.466865254e-15 0)
(3 6.396406846e-15 0)
(3 1.154111228e-14 0)
(3 1.502097392e-14 0)
(3 1.610512125e-14 0)
(3 1.581423284e-14 0)
(3 1.434559172e-14 0)
(3 8.6496079e-15 0)
(3 5.717753917e-15 0)
(3 9.573242466e-15 0)
(3 1.037777998e-14 0)
(3 1.133873064e-14 0)
(3 1.262431756e-14 0)
(3 1.285992261e-14 0)
(3 1.312863655e-14 0)
(3 1.255593072e-14 0)
(3 1.155583846e-14 0)
(3 1.417138852e-14 0)
(3 1.554673983e-14 0)
(3 1.619464486e-14 0)
(3 1.167964577e-14 0)
(3 2.646213654e-15 0)
(3 -7.365060488e-15 0)
(3 -8.993870288e-15 0)
(3 -1.355613634e-14 0)
(3 -1.691234651e-14 0)
(3 -1.748001244e-14 0)
(3 -1.705740604e-14 0)
(3 -1.63675355e-14 0)
(3 -1.194994163e-14 0)
(3 -7.421173292e-15 0)
(3 -5.813315564e-15 0)
(3 -2.101882702e-15 0)
(3 4.680071107e-15 0)
(3 6.15161607e-15 0)
(3 7.650769233e-15 0)
(3 9.998932437e-15 0)
(3 1.152022101e-14 0)
(3 1.420606674e-14 0)
(3 1.396200433e-14 0)
(3 1.022865159e-14 0)
(3 7.283697661e-15 0)
(3 4.918708423e-15 0)
(3 1.215674271e-14 0)
(3 1.479907906e-14 0)
(3 1.509582331e-14 0)
(3 1.505059704e-14 0)
(3 1.510808826e-14 0)
(3 1.446639353e-14 0)
(3 1.315100894e-14 0)
(3 1.110008436e-14 0)
(3 1.11775577e-14 0)
(3 1.058950317e-14 0)
(3 8.893041906e-15 0)
(3 3.108481527e-15 0)
(3 -5.384432174e-15 0)
(3 -1.42206363e-14 0)
(3 -2.051793474e-14 0)
(3 -2.199527931e-14 0)
(3 -2.146579504e-14 0)
(3 -2.089371005e-14 0)
(3 -1.856365138e-14 0)
(3 -1.543760169e-14 0)
(3 -9.745274104e-15 0)
(3 -3.017329569e-15 0)
(3 -1.790428278e-15 0)
(3 -1.839032901e-15 0)
(3 -3.508326049e-15 0)
(3 -2.615106403e-15 0)
(3 -2.596293347e-15 0)
(3 -2.007247004e-15 0)
(3 -2.558903352e-15 0)
(3 -1.853675038e-15 0)
(3 -4.290803288e-16 0)
(3 1.804699466e-15 0)
(3 2.440535282e-15 0)
(3 2.325362846e-15 0)
(3 1.074581064e-14 0)
(3 1.156068443e-14 0)
(3 1.166423547e-14 0)
(3 1.182846584e-14 0)
(3 1.160894364e-14 0)
(3 1.05573246e-14 0)
(3 1.020322177e-14 0)
(3 8.051097773e-15 0)
(3 5.472297036e-15 0)
(3 3.653676503e-15 0)
(3 3.524043184e-16 0)
(3 1.06631586e-15 0)
(3 -1.869105811e-15 0)
(3 -8.569668614e-15 0)
(3 -1.111518877e-14 0)
(3 -1.337384124e-14 0)
(3 -1.419194083e-14 0)
(3 -1.500093044e-14 0)
(3 -1.424320405e-14 0)
(3 -1.268737682e-14 0)
(3 -8.409044661e-15 0)
(3 -4.585961882e-15 0)
(3 -6.416536287e-16 0)
(3 7.884440372e-16 0)
(3 1.340841027e-15 0)
(3 1.508454248e-15 0)
(3 1.382935005e-15 0)
(3 1.149142959e-15 0)
(3 4.74566466e-16 0)
(3 -1.247685498e-15 0)
(3 -5.274342274e-16 0)
(3 -3.916298824e-16 0)
(3 -6.503796486e-16 0)
(3 -1.606714133e-15 0)
(3 7.881840813e-15 0)
(3 6.64153408e-15 0)
(3 5.483228738e-15 0)
(3 5.474808945e-15 0)
(3 3.112782644e-15 0)
(3 2.440577389e-15 0)
(3 1.753631681e-15 0)
(3 1.652333489e-16 0)
(3 -1.464877864e-15 0)
(3 -4.602666849e-15 0)
(3 -6.049509612e-15 0)
(3 -8.221755515e-15 0)
(3 -9.078258765e-15 0)
(3 -8.693269092e-15 0)
(3 -7.955859818e-15 0)
(3 -8.047543701e-15 0)
(3 -9.410195881e-15 0)
(3 -9.829658685e-15 0)
(3 -1.125711945e-14 0)
(3 -1.03468757e-14 0)
(3 -9.436328663e-15 0)
(3 -7.759056997e-15 0)
(3 -6.291251486e-15 0)
(3 -5.260227631e-15 0)
(3 -3.993780302e-15 0)
(3 -1.821946135e-15 0)
(3 -1.309566786e-15 0)
(3 -2.407869079e-15 0)
(3 -3.501914091e-15 0)
(3 -4.142599579e-15 0)
(3 -4.077306034e-15 0)
(3 -2.695203725e-15 0)
(3 -1.907568931e-15 0)
(3 -1.637900224e-15 0)
(3 1.153438318e-14 0)
(3 1.091131125e-14 0)
(3 1.027003966e-14 0)
(3 8.259240723e-15 0)
(3 6.484207953e-15 0)
(3 3.317541544e-15 0)
(3 2.134994452e-15 0)
(3 -2.141165296e-15 0)
(3 -5.711344432e-15 0)
(3 -1.030110821e-14 0)
(3 -1.138515364e-14 0)
(3 -1.380004459e-14 0)
(3 -1.197226069e-14 0)
(3 -7.5468617e-15 0)
(3 -6.056164567e-15 0)
(3 -5.783637992e-15 0)
(3 -5.721866195e-15 0)
(3 -7.002440949e-15 0)
(3 -8.291714983e-15 0)
(3 -1.117086156e-14 0)
(3 -1.162690933e-14 0)
(3 -1.143314912e-14 0)
(3 -1.158276493e-14 0)
(3 -1.201058738e-14 0)
(3 -1.115479336e-14 0)
(3 -9.457091738e-15 0)
(3 -1.058864589e-14 0)
(3 -1.067031071e-14 0)
(3 -1.021336456e-14 0)
(3 -1.044669406e-14 0)
(3 -1.052234306e-14 0)
(3 -9.635816577e-15 0)
(3 -8.052834219e-15 0)
(3 -4.928324073e-15 0)
(3 1.522175193e-14 0)
(3 1.332383781e-14 0)
(3 1.107227096e-14 0)
(3 8.1756344e-15 0)
(3 6.073248303e-15 0)
(3 2.397391903e-15 0)
(3 4.931653952e-16 0)
(3 -2.741675824e-15 0)
(3 -7.909172851e-15 0)
(3 -1.030468429e-14 0)
(3 -9.94774003e-15 0)
(3 -9.722580355e-15 0)
(3 -8.108763914e-15 0)
(3 -8.270427865e-15 0)
(3 -6.94297802e-15 0)
(3 -6.123630579e-15 0)
(3 -6.452752781e-15 0)
(3 -7.043297252e-15 0)
(3 -8.858995376e-15 0)
(3 -8.709537636e-15 0)
(3 -9.451669559e-15 0)
(3 -8.796424959e-15 0)
(3 -7.187121483e-15 0)
(3 -6.91133989e-15 0)
(3 -7.959998116e-15 0)
(3 -8.223335254e-15 0)
(3 -8.03340549e-15 0)
(3 -7.520156441e-15 0)
(3 -7.47633696e-15 0)
(3 -6.381461289e-15 0)
(3 -3.540688283e-15 0)
(3 -2.483325626e-15 0)
(3 -2.280254571e-15 0)
(3 1.59576774e-15 0)
(3 6.620321501e-15 0)
(3 2.810344231e-15 0)
(3 -5.789082703e-16 0)
(3 -1.357486294e-15 0)
(3 -2.274744103e-15 0)
(3 -4.724523938e-15 0)
(3 -6.188025765e-15 0)
(3 -6.377990962e-15 0)
(3 -6.544064928e-15 0)
(3 -6.415831764e-15 0)
(3 -3.901992459e-15 0)
(3 -3.293497491e-15 0)
(3 -4.483016424e-15 0)
(3 -6.034240331e-15 0)
(3 -8.064311045e-15 0)
(3 -9.453648839e-15 0)
(3 -1.092507858e-14 0)
(3 -1.229890433e-14 0)
(3 -1.238833533e-14 0)
(3 -9.252734562e-15 0)
(3 -8.661640954e-15 0)
(3 -8.058901364e-15 0)
(3 -7.551371203e-15 0)
(3 -5.432993358e-15 0)
(3 -2.138063295e-15 0)
(3 -2.395052477e-15 0)
(3 -3.50382678e-15 0)
(3 -9.340330406e-15 0)
(3 -1.273469294e-14 0)
(3 -1.567241125e-14 0)
(3 -1.427956813e-14 0)
(3 -1.062724439e-14 0)
(3 -1.025097065e-14 0)
(3 -8.155181993e-15 0)
(3 -8.891469292e-15 0)
(3 -8.539913275e-15 0)
(3 -8.486983839e-15 0)
(3 -9.452315447e-15 0)
(3 -9.82984889e-15 0)
(3 -1.000630112e-14 0)
(3 -1.072917674e-14 0)
(3 -1.08805258e-14 0)
(3 -1.004772969e-14 0)
(3 -8.380922001e-15 0)
(3 -6.752858902e-15 0)
(3 -4.424965553e-15 0)
(3 -3.517380391e-15 0)
(3 -3.31008786e-15 0)
(3 -4.236628792e-15 0)
(3 -6.58425423e-15 0)
(3 -9.701713389e-15 0)
(3 -1.035524829e-14 0)
(3 -8.018748944e-15 0)
(3 -9.571940507e-15 0)
(3 -9.337870994e-15 0)
(3 -6.693977714e-15 0)
(3 -4.860142914e-15 0)
(3 -4.007026654e-15 0)
(3 -3.779285809e-15 0)
(3 -3.653740127e-15 0)
(3 -4.148088589e-15 0)
(3 -3.632420547e-15 0)
(3 -2.635632011e-15 0)
(3 -4.143502845e-15 0)
(3 -5.75820374e-15 0)
(3 -7.817458064e-15 0)
(3 -1.050780652e-14 0)
(3 -1.207399151e-14 0)
(3 -1.379826907e-14 0)
(3 -1.243095114e-14 0)
(3 -1.185010805e-14 0)
(3 -1.10366531e-14 0)
(3 -9.52637451e-15 0)
(3 -8.813141698e-15 0)
(3 -8.861598404e-15 0)
(3 -9.409478221e-15 0)
(3 -1.107583962e-14 0)
(3 -1.127452508e-14 0)
(3 -1.068103403e-14 0)
(3 -6.18021108e-15 0)
(3 -4.398523863e-15 0)
(3 -3.527995835e-15 0)
(3 -3.597209836e-15 0)
(3 -4.482793456e-15 0)
(3 -7.386944187e-15 0)
(3 -9.485892459e-15 0)
(3 -7.658125248e-15 0)
(3 -4.129799387e-15 0)
(3 -3.817475176e-15 0)
(3 -2.828332785e-15 0)
(3 -2.863381062e-15 0)
(3 -4.248345044e-15 0)
(3 -6.440871157e-15 0)
(3 -7.097749417e-15 0)
(3 -7.12652199e-15 0)
(3 -6.018828271e-15 0)
(3 -5.678297215e-15 0)
(3 -6.592764738e-15 0)
(3 -6.528651207e-15 0)
(3 -7.021349046e-15 0)
(3 -9.998479798e-15 0)
(3 -1.377194608e-14 0)
(3 -1.824823724e-14 0)
(3 -1.724875526e-14 0)
(3 -1.595594361e-14 0)
(3 -1.468767388e-14 0)
(3 -1.266835512e-14 0)
(3 -1.086801617e-14 0)
(3 -1.069453395e-14 0)
(3 -1.172075794e-14 0)
(3 -1.130631577e-14 0)
(3 -1.111052445e-14 0)
(3 -9.891885342e-15 0)
(3 -7.855142812e-15 0)
(3 -6.344523915e-15 0)
(3 -5.013759504e-15 0)
(3 -2.844189171e-15 0)
(3 -2.794055107e-16 0)
(3 -7.92024991e-16 0)
(3 -1.301376063e-15 0)
(3 9.302163285e-17 0)
(3 9.565619103e-16 0)
(3 5.472474234e-16 0)
(3 -6.871583948e-16 0)
(3 -2.669802919e-15 0)
(3 -3.930427695e-15 0)
(3 -4.598619675e-15 0)
(3 -6.107497222e-15 0)
(3 -5.386469149e-15 0)
(3 -3.52552215e-15 0)
(3 -5.03187862e-15 0)
(3 -5.879862374e-15 0)
(3 -6.556288716e-15 0)
(3 -8.159604399e-15 0)
(3 -9.837428185e-15 0)
(3 -1.181310515e-14 0)
(3 -2.606038176e-14 0)
(3 -2.609855703e-14 0)
(3 -2.577724001e-14 0)
(3 -2.31513349e-14 0)
(3 -2.046647324e-14 0)
(3 -1.844941672e-14 0)
(3 -1.532095783e-14 0)
(3 -1.249007477e-14 0)
(3 -6.78350752e-15 0)
(3 -4.570355587e-15 0)
(3 -4.197331337e-15 0)
(3 -4.136169312e-15 0)
(3 -3.92593983e-15 0)
(3 -2.462664476e-15 0)
(3 -7.833902305e-16 0)
(3 4.089528225e-15 0)
(3 9.302933598e-15 0)
(3 1.09038517e-14 0)
(3 1.015629583e-14 0)
(3 4.872925047e-15 0)
(3 2.403754977e-15 0)
(3 2.203244967e-16 0)
(3 -3.253941336e-15 0)
(3 -6.206119787e-15 0)
(3 -8.02307778e-15 0)
(3 -8.454125636e-15 0)
(3 -9.643148258e-15 0)
(3 -8.648935543e-15 0)
(3 -8.311955911e-15 0)
(3 -6.665632955e-15 0)
(3 -5.684618565e-15 0)
(3 -5.409040235e-15 0)
(3 -5.649978813e-15 0)
(3 -1.00832888e-14 0)
(3 -2.319246947e-14 0)
(3 -2.527667359e-14 0)
(3 -2.526851697e-14 0)
(3 -2.506003252e-14 0)
(3 -2.368403739e-14 0)
(3 -2.228815829e-14 0)
(3 -1.314585483e-14 0)
(3 -4.695092432e-15 0)
(3 -3.96576346e-15 0)
(3 -4.241586642e-15 0)
(3 -4.122516196e-15 0)
(3 -7.420780588e-16 0)
(3 7.408852462e-16 0)
(3 3.859116185e-15 0)
(3 7.955924703e-15 0)
(3 1.219411691e-14 0)
(3 1.623075572e-14 0)
(3 1.860349446e-14 0)
(3 1.581540756e-14 0)
(3 1.381911817e-14 0)
(3 1.150078507e-14 0)
(3 9.614696597e-15 0)
(3 5.921571827e-15 0)
(3 5.406270171e-15 0)
(3 2.211242864e-15 0)
(3 1.350500136e-15 0)
(3 -2.946343352e-15 0)
(3 -9.161253683e-15 0)
(3 -1.07305074e-14 0)
(3 -1.01851208e-14 0)
(3 -9.865511429e-15 0)
(3 -9.781495576e-15 0)
(3 -1.129009474e-14 0)
(3 -1.298730117e-14 0)
(3 -1.93088418e-14 0)
(3 -1.651753224e-14 0)
(3 -1.76011275e-14 0)
(3 -1.484069251e-14 0)
(3 -1.149832061e-14 0)
(3 -9.243661131e-15 0)
(3 -2.859042369e-15 0)
(3 2.6186432e-15 0)
(3 4.193754135e-15 0)
(3 4.218495814e-15 0)
(3 4.16046374e-15 0)
(3 6.464559992e-15 0)
(3 9.487934058e-15 0)
(3 1.151571667e-14 0)
(3 1.384547522e-14 0)
(3 1.629565987e-14 0)
(3 1.833738455e-14 0)
(3 2.359798642e-14 0)
(3 2.698028462e-14 0)
(3 2.804115082e-14 0)
(3 1.870752819e-14 0)
(3 1.410290137e-14 0)
(3 6.61048555e-15 0)
(3 4.540122195e-15 0)
(3 1.964091546e-15 0)
(3 1.801139723e-15 0)
(3 2.686099336e-15 0)
(3 2.554896511e-15 0)
(3 5.234383635e-16 0)
(3 -8.549714531e-16 0)
(3 -3.325048248e-15 0)
(3 -6.376954006e-15 0)
(3 -6.871877445e-15 0)
(3 -6.581832757e-15 0)
(3 -1.310086272e-14 0)
(3 -7.501715321e-15 0)
(3 -5.784667906e-15 0)
(3 -3.3990416e-15 0)
(3 2.319131669e-15 0)
(3 4.49693699e-15 0)
(3 6.214415214e-15 0)
(3 7.283068907e-15 0)
(3 7.867122879e-15 0)
(3 1.155426278e-14 0)
(3 1.410522969e-14 0)
(3 1.666574473e-14 0)
(3 1.967640319e-14 0)
(3 2.102695192e-14 0)
(3 2.049204367e-14 0)
(3 1.975912035e-14 0)
(3 2.033406776e-14 0)
(3 2.100720177e-14 0)
(3 2.468646275e-14 0)
(3 2.969172734e-14 0)
(3 2.418217151e-14 0)
(3 2.176381383e-14 0)
(3 1.961656718e-14 0)
(3 1.534884074e-14 0)
(3 1.212796428e-14 0)
(3 1.123081888e-14 0)
(3 1.03561751e-14 0)
(3 8.2019226e-15 0)
(3 6.310938398e-15 0)
(3 2.270722844e-15 0)
(3 2.12733794e-15 0)
(3 2.372071913e-15 0)
(3 3.987702786e-15 0)
(3 4.186044502e-15 0)
(3 -4.393794426e-15 0)
(3 -1.675400011e-15 0)
(3 2.272990273e-16 0)
(3 1.947908455e-15 0)
(3 5.11810641e-15 0)
(3 7.840302706e-15 0)
(3 7.084051355e-15 0)
(3 5.701768125e-15 0)
(3 6.289367127e-15 0)
(3 1.015280467e-14 0)
(3 1.677396443e-14 0)
(3 2.236003134e-14 0)
(3 2.193532521e-14 0)
(3 2.205911369e-14 0)
(3 2.09077622e-14 0)
(3 1.991581205e-14 0)
(3 1.762699121e-14 0)
(3 1.568235186e-14 0)
(3 1.63420965e-14 0)
(3 2.146907673e-14 0)
(3 2.333546341e-14 0)
(3 2.302894289e-14 0)
(3 2.273068255e-14 0)
(3 2.150016631e-14 0)
(3 2.080833438e-14 0)
(3 2.047486243e-14 0)
(3 2.046369916e-14 0)
(3 2.021220435e-14 0)
(3 1.830545282e-14 0)
(3 1.715084659e-14 0)
(3 1.709850508e-14 0)
(3 1.536834942e-14 0)
(3 1.243417792e-14 0)
(3 1.121944631e-14 0)
(3 7.699412915e-15 0)
(3 6.338403865e-15 0)
(3 6.293136231e-15 0)
(3 7.232000316e-15 0)
(3 8.071925582e-15 0)
(3 1.000254417e-14 0)
(3 1.070928849e-14 0)
(3 1.407037152e-14 0)
(3 1.470045094e-14 0)
(3 1.403006456e-14 0)
(3 1.599180073e-14 0)
(3 1.807276696e-14 0)
(3 1.741647395e-14 0)
(3 1.812053075e-14 0)
(3 2.022858993e-14 0)
(3 2.096211699e-14 0)
(3 2.065313991e-14 0)
(3 2.017935019e-14 0)
(3 1.864445879e-14 0)
(3 1.754130247e-14 0)
(3 1.772530025e-14 0)
(3 1.781915871e-14 0)
(3 1.970429705e-14 0)
(3 2.210007487e-14 0)
(3 2.539528418e-14 0)
(3 2.752569308e-14 0)
(3 2.762269387e-14 0)
(3 2.744048216e-14 0)
(3 2.694010684e-14 0)
(3 2.641977448e-14 0)
(3 2.494258121e-14 0)
(3 1.904552937e-14 0)
(3 1.542607156e-14 0)
(3 1.390138562e-14 0)
(3 1.78011884e-14 0)
(3 1.684622687e-14 0)
(3 1.677146219e-14 0)
(3 1.603217508e-14 0)
(3 1.500442575e-14 0)
(3 1.176673198e-14 0)
(3 1.146920926e-14 0)
(3 1.366367984e-14 0)
(3 1.599575142e-14 0)
(3 1.645568468e-14 0)
(3 1.5014557e-14 0)
(3 1.31428852e-14 0)
(3 1.065270132e-14 0)
(3 1.172883211e-14 0)
(3 1.490318521e-14 0)
(3 1.585243464e-14 0)
(3 1.610961984e-14 0)
(3 1.727385869e-14 0)
(3 1.742167708e-14 0)
(3 1.655156047e-14 0)
(3 1.484532342e-14 0)
(3 1.393702545e-14 0)
(3 1.421601268e-14 0)
(3 1.638673778e-14 0)
(3 1.748844435e-14 0)
(3 1.955152081e-14 0)
(3 2.037344293e-14 0)
(3 2.113798687e-14 0)
(3 2.194541816e-14 0)
(3 2.325494765e-14 0)
(3 2.153615309e-14 0)
(3 1.908103737e-14 0)
(3 1.781302405e-14 0)
(3 1.668047862e-14 0)
(3 2.025088839e-14 0)
(3 2.087625122e-14 0)
(3 2.250056797e-14 0)
(3 2.266754535e-14 0)
(3 1.844219397e-14 0)
(3 1.540709868e-14 0)
(3 1.358500692e-14 0)
(3 1.248586959e-14 0)
(3 1.195959439e-14 0)
(3 1.123200329e-14 0)
(3 7.90853115e-15 0)
(3 3.397432844e-15 0)
(3 2.076931619e-15 0)
(3 4.100215955e-15 0)
(3 5.070854787e-15 0)
(3 7.509530462e-15 0)
(3 9.415097602e-15 0)
(3 9.474170478e-15 0)
(3 1.020721032e-14 0)
(3 9.152890135e-15 0)
(3 9.066833808e-15 0)
(3 1.036060764e-14 0)
(3 1.127848955e-14 0)
(3 1.207786324e-14 0)
(3 1.266686938e-14 0)
(3 1.329677419e-14 0)
(3 1.53677393e-14 0)
(3 1.696642633e-14 0)
(3 1.770245409e-14 0)
(3 1.809164764e-14 0)
(3 1.791520003e-14 0)
(3 1.824569598e-14 0)
(3 1.910940322e-14 0)
(3 2.144703938e-14 0)
(3 1.614938398e-14 0)
(3 1.597588043e-14 0)
(3 1.516338366e-14 0)
(3 1.333342989e-14 0)
(3 1.224706354e-14 0)
(3 1.163548854e-14 0)
(3 1.11087194e-14 0)
(3 1.102666199e-14 0)
(3 6.919753292e-15 0)
(3 2.632097545e-15 0)
(3 4.464615661e-16 0)
(3 9.271334753e-16 0)
(3 9.342790116e-16 0)
(3 2.611921309e-16 0)
(3 -4.782318448e-16 0)
(3 2.711093896e-16 0)
(3 2.156366326e-15 0)
(3 2.182891965e-15 0)
(3 2.995709292e-15 0)
(3 2.905048434e-15 0)
(3 3.916108874e-15 0)
(3 5.853525952e-15 0)
(3 1.035906733e-14 0)
(3 1.204781183e-14 0)
(3 1.266182418e-14 0)
(3 1.249892136e-14 0)
(3 1.396793562e-14 0)
(3 1.503549929e-14 0)
(3 1.49954452e-14 0)
(3 1.521132208e-14 0)
(3 1.627423132e-14 0)
(3 1.797512997e-14 0)
(3 2.188270553e-14 0)
(3 2.486318637e-14 0)
(3 9.604955859e-15 0)
(3 7.109019767e-15 0)
(3 3.597564007e-15 0)
(3 2.897310289e-15 0)
(3 4.452545185e-15 0)
(3 6.362340467e-15 0)
(3 5.219879843e-15 0)
(3 4.914167135e-15 0)
(3 5.844527369e-15 0)
(3 6.893032463e-15 0)
(3 8.748279208e-15 0)
(3 9.792699762e-15 0)
(3 9.561186056e-15 0)
(3 7.789502083e-15 0)
(3 6.175776105e-15 0)
(3 4.736330865e-15 0)
(3 2.219206225e-15 0)
(3 3.350568659e-15 0)
(3 3.084083314e-15 0)
(3 3.70207669e-15 0)
(3 7.179926116e-15 0)
(3 9.530269803e-15 0)
(3 1.198655319e-14 0)
(3 1.076192593e-14 0)
(3 9.498270572e-15 0)
(3 1.120986914e-14 0)
(3 1.073107122e-14 0)
(3 1.124051959e-14 0)
(3 1.389848267e-14 0)
(3 1.582317392e-14 0)
(3 1.603823601e-14 0)
(3 1.720560836e-14 0)
(3 1.945888175e-14 0)
(3 2.092161163e-14 0)
(3 7.475273576e-15 0)
(3 7.097902406e-15 0)
(3 4.227412299e-15 0)
(3 1.761020923e-15 0)
(3 1.19071956e-17 0)
(3 2.164896722e-15 0)
(3 1.532959057e-15 0)
(3 -1.431248916e-15 0)
(3 -3.283307486e-15 0)
(3 -2.460962464e-15 0)
(3 -1.338439702e-15 0)
(3 -2.365766266e-16 0)
(3 8.976783505e-16 0)
(3 1.133518555e-15 0)
(3 5.439396268e-16 0)
(3 -1.571700314e-15 0)
(3 -3.26395985e-15 0)
(3 -5.019840868e-15 0)
(3 -4.318185075e-15 0)
(3 -1.977653597e-15 0)
(3 2.766657835e-15 0)
(3 4.992130499e-15 0)
(3 3.788314754e-15 0)
(3 4.130616145e-15 0)
(3 5.291859927e-15 0)
(3 6.494341876e-15 0)
(3 6.203208381e-15 0)
(3 7.276955075e-15 0)
(3 1.119585944e-14 0)
(3 1.65670407e-14 0)
(3 1.620936447e-14 0)
(3 1.61331098e-14 0)
(3 1.677391581e-14 0)
(3 1.61059096e-14 0)
(3 6.767802545e-15 0)
(3 9.554027229e-15 0)
(3 1.090422325e-14 0)
(3 1.123279579e-14 0)
(3 1.101304527e-14 0)
(3 9.931357886e-15 0)
(3 9.246550249e-15 0)
(3 1.033117897e-14 0)
(3 1.035440836e-14 0)
(3 8.205592266e-15 0)
(3 6.932691508e-15 0)
(3 7.04312216e-15 0)
(3 6.239269947e-15 0)
(3 5.496594729e-15 0)
(3 2.868849606e-15 0)
(3 1.446204702e-15 0)
(3 1.08913231e-15 0)
(3 2.802452617e-15 0)
(3 3.210174034e-15 0)
(3 2.886249646e-15 0)
(3 3.263165354e-15 0)
(3 2.088495233e-15 0)
(3 -1.232899948e-15 0)
(3 -2.601814966e-17 0)
(3 2.371706658e-15 0)
(3 4.669734894e-15 0)
(3 6.230728019e-15 0)
(3 8.783185278e-15 0)
(3 1.056268844e-14 0)
(3 1.026654495e-14 0)
(3 9.192558339e-15 0)
(3 8.246112755e-15 0)
(3 6.417930278e-15 0)
(3 9.105676288e-15 0)
(3 8.483520493e-15 0)
(3 1.370071566e-14 0)
(3 1.805294484e-14 0)
(3 2.072741822e-14 0)
(3 2.242502788e-14 0)
(3 2.21226059e-14 0)
(3 2.241264724e-14 0)
(3 2.350172113e-14 0)
(3 2.387697087e-14 0)
(3 2.260881553e-14 0)
(3 2.061282942e-14 0)
(3 1.928794274e-14 0)
(3 1.576953815e-14 0)
(3 1.448976136e-14 0)
(3 1.292045792e-14 0)
(3 1.250112355e-14 0)
(3 1.138831687e-14 0)
(3 1.053655144e-14 0)
(3 9.252597478e-15 0)
(3 6.555757434e-15 0)
(3 4.693027514e-15 0)
(3 1.075075874e-15 0)
(3 -9.056237396e-15 0)
(3 -9.452499843e-15 0)
(3 -1.049346406e-14 0)
(3 -1.139584508e-14 0)
(3 -1.182391235e-14 0)
(3 -1.739904309e-14 0)
(3 -2.410011487e-14 0)
(3 -2.36104948e-14 0)
(3 -2.492586877e-14 0)
(3 -2.128080995e-14 0)
(3 -2.022052726e-14 0)
(3 -1.521285775e-14 0)
(3 -7.625213053e-15 0)
(3 -6.098303707e-15 0)
(3 -4.020026079e-15 0)
(3 -5.147328916e-16 0)
(3 4.049990812e-15 0)
(3 6.264174136e-15 0)
(3 7.999640444e-15 0)
(3 7.681361121e-15 0)
(3 8.986233331e-15 0)
(3 8.334149068e-15 0)
(3 8.182648091e-15 0)
(3 7.937145832e-15 0)
(3 7.300554182e-15 0)
(3 8.546002311e-15 0)
(3 8.952252597e-15 0)
(3 7.650934358e-15 0)
(3 7.924688791e-15 0)
(3 4.2320998e-15 0)
(3 -2.87444038e-15 0)
(3 -3.172851717e-15 0)
(3 -1.209977225e-15 0)
(3 -1.274377825e-14 0)
(3 -1.511381132e-14 0)
(3 -1.501643576e-14 0)
(3 -1.251026054e-14 0)
(3 -1.208014341e-14 0)
(3 -1.256245676e-14 0)
(3 -1.427351315e-14 0)
(3 -1.252107195e-14 0)
(3 -1.32834873e-14 0)
(3 -1.483797885e-14 0)
(3 -1.399685235e-14 0)
(3 -1.225372927e-14 0)
(3 -7.856462037e-15 0)
(3 9.788669157e-16 0)
(3 6.232865873e-15 0)
(3 1.017313518e-14 0)
(3 1.05310605e-14 0)
(3 1.386623875e-14 0)
(3 1.775916027e-14 0)
(3 1.950515063e-14 0)
(3 1.981783011e-14 0)
(3 1.984525669e-14 0)
(3 1.795883586e-14 0)
(3 1.576996097e-14 0)
(3 1.131439516e-14 0)
(3 5.336356271e-15 0)
(3 3.64627571e-15 0)
(3 1.724731444e-15 0)
(3 1.562165292e-15 0)
(3 5.72030029e-16 0)
(3 -4.445613866e-15 0)
(3 -5.004208561e-15 0)
(3 -8.449513903e-15 0)
(3 -1.708685898e-14 0)
(3 -1.244215149e-14 0)
(3 -1.146915458e-14 0)
(3 -1.201136039e-14 0)
(3 -1.400108582e-14 0)
(3 -1.395801481e-14 0)
(3 -1.368836897e-14 0)
(3 -1.419795832e-14 0)
(3 -1.039238233e-14 0)
(3 -4.598893154e-15 0)
(3 -2.230292312e-15 0)
(3 -1.630997836e-15 0)
(3 -2.530855687e-15 0)
(3 -7.154509109e-16 0)
(3 1.806278606e-15 0)
(3 4.483996622e-15 0)
(3 8.348074087e-15 0)
(3 1.33754945e-14 0)
(3 1.714520835e-14 0)
(3 1.771685415e-14 0)
(3 1.519199786e-14 0)
(3 1.505578521e-14 0)
(3 1.338552283e-14 0)
(3 1.097295661e-14 0)
(3 9.602331305e-15 0)
(3 5.437070715e-15 0)
(3 3.674722641e-15 0)
(3 3.565797574e-15 0)
(3 2.739341505e-15 0)
(3 2.508200393e-15 0)
(3 -1.853497848e-16 0)
(3 -3.455384514e-15 0)
(3 -9.817033645e-15 0)
(3 -1.854084549e-14 0)
(3 -1.500636482e-14 0)
(3 -1.349869034e-14 0)
(3 -1.681144028e-14 0)
(3 -1.655406669e-14 0)
(3 -1.708366598e-14 0)
(3 -1.20897805e-14 0)
(3 -9.603968965e-15 0)
(3 -1.902777423e-15 0)
(3 3.588055217e-15 0)
(3 5.791929509e-15 0)
(3 5.198272135e-15 0)
(3 6.292296942e-15 0)
(3 2.931600531e-15 0)
(3 1.408745919e-15 0)
(3 2.186399211e-15 0)
(3 6.41216836e-15 0)
(3 9.192932941e-15 0)
(3 8.018122621e-15 0)
(3 7.761487272e-15 0)
(3 1.014773348e-14 0)
(3 1.037493173e-14 0)
(3 1.138184055e-14 0)
(3 1.000084089e-14 0)
(3 8.826477325e-15 0)
(3 8.159640322e-15 0)
(3 7.279325539e-15 0)
(3 5.376852309e-15 0)
(3 5.296572045e-15 0)
(3 2.413687462e-15 0)
(3 4.083342306e-16 0)
(3 -2.081997802e-15 0)
(3 -8.06997137e-15 0)
(3 -1.593368247e-14 0)
(3 -1.579456051e-14 0)
(3 -1.58193302e-14 0)
(3 -1.717826546e-14 0)
(3 -1.458263948e-14 0)
(3 -1.215119134e-14 0)
(3 -1.012976253e-14 0)
(3 -6.278323022e-15 0)
(3 -7.394879996e-16 0)
(3 2.310284258e-15 0)
(3 5.880554004e-15 0)
(3 8.234863228e-15 0)
(3 1.043491383e-14 0)
(3 1.047530595e-14 0)
(3 1.058372037e-14 0)
(3 5.013505231e-15 0)
(3 -5.347302533e-16 0)
(3 -2.000857961e-15 0)
(3 -3.079038396e-15 0)
(3 -1.974801687e-15 0)
(3 -1.838247797e-16 0)
(3 -6.137590988e-16 0)
(3 1.392198775e-15 0)
(3 7.227334981e-15 0)
(3 1.181859675e-14 0)
(3 1.332317493e-14 0)
(3 1.166409214e-14 0)
(3 7.813069993e-15 0)
(3 4.751544559e-15 0)
(3 -3.429734837e-16 0)
(3 -2.754897391e-15 0)
(3 -1.601807063e-15 0)
(3 -4.981693277e-15 0)
(3 -1.550033921e-14 0)
(3 -1.586250832e-14 0)
(3 -1.720444192e-14 0)
(3 -1.638369695e-14 0)
(3 -1.435462182e-14 0)
(3 -8.997558659e-15 0)
(3 -1.01421789e-14 0)
(3 -9.655687841e-15 0)
(3 -3.66543549e-15 0)
(3 8.102149672e-16 0)
(3 1.075240741e-14 0)
(3 1.555691687e-14 0)
(3 1.084348762e-14 0)
(3 7.97608426e-15 0)
(3 6.743981374e-15 0)