/*--------------------------------*- C++ -*----------------------------------*\
  =========                 |
  \\      /  F ield         | OpenFOAM: The Open Source CFD Toolbox
   \\    /   O peration     | Website:  https://openfoam.org
    \\  /    A nd           | Version:  7
     \\/     M anipulation  |
\*---------------------------------------------------------------------------*/
FoamFile
{
    version     2.0;
    format      ascii;
    class       volScalarField;
    location    "0.6";
    object      rho;
}
// * * * * * * * * * * * * * * * * * * * * * * * * * * * * * * * * * * * * * //

dimensions      [1 -3 0 0 0 0 0];

internalField   nonuniform List<scalar> 
2222
(
1.379980253
1.377757715
1.378363213
1.379111839
1.380046645
1.380288844
1.380159972
1.379611111
1.378241011
1.37712401
1.376517752
1.376085992
1.375742856
1.376938418
1.376637268
1.378162481
1.379318725
1.381237431
1.382068851
1.381117133
1.379813871
1.379463894
1.379207653
1.379609445
1.379322944
1.379954638
1.381174084
1.382376209
1.37321282
1.373789609
1.374798544
1.376061599
1.377392637
1.378593524
1.379382729
1.379803431
1.380395468
1.380975577
1.381165918
1.380699717
1.38022466
1.37950857
1.377853879
1.376569377
1.376172473
1.376321824
1.376467016
1.377327743
1.379301244
1.381395976
1.382956379
1.383844917
1.383151167
1.381747868
1.380742737
1.380494896
1.381056158
1.381183491
1.381540392
1.382146035
1.382903482
1.383444176
1.374546637
1.376061834
1.377428209
1.377836087
1.378803517
1.379725428
1.379772315
1.379725413
1.380046768
1.380414959
1.380486172
1.380342999
1.379531802
1.378530406
1.37739524
1.376608412
1.376562372
1.377204818
1.378873919
1.381355732
1.383513017
1.384588916
1.385114749
1.384252404
1.382699363
1.381733082
1.381342257
1.381637662
1.382038669
1.382225591
1.382537357
1.382933631
1.38267465
1.382813654
1.375523798
1.376858349
1.37784051
1.378158518
1.379182471
1.379235772
1.37915494
1.379029155
1.379034268
1.379176043
1.379252107
1.379272581
1.378452896
1.377389642
1.377109496
1.377474052
1.378872107
1.380635632
1.382636178
1.38412302
1.384678704
1.384977818
1.384734924
1.383413576
1.381810196
1.381160388
1.381091984
1.381719658
1.38165805
1.382315989
1.381902474
1.382185052
1.382069033
1.381960178
1.375253211
1.376438039
1.37724526
1.378058362
1.378457553
1.37819461
1.377963342
1.377897163
1.377787935
1.377767819
1.377844752
1.377632503
1.376877461
1.376466667
1.376589631
1.377918495
1.380334988
1.382302205
1.383520097
1.384083551
1.384121572
1.384242937
1.383818926
1.382370291
1.38102549
1.380563351
1.380708077
1.380835137
1.381110288
1.381391406
1.381043972
1.381160273
1.381407066
1.381026286
1.375125835
1.376264811
1.376746235
1.376921449
1.377254474
1.37674872
1.376349794
1.375902954
1.375549995
1.375874166
1.375914141
1.375859623
1.375503933
1.375884105
1.376371095
1.378264731
1.380333986
1.382102389
1.383156559
1.383187407
1.383643423
1.383384287
1.382885822
1.381260944
1.380034831
1.379835069
1.379827726
1.379524667
1.380247695
1.379760226
1.380073491
1.380067131
1.380323431
1.380900234
1.374506962
1.375790059
1.376606828
1.37613168
1.376620564
1.376573485
1.376143237
1.374761182
1.374636847
1.375282935
1.375663229
1.376105708
1.375991418
1.376157699
1.376851689
1.378262769
1.379920772
1.381610362
1.382229135
1.382315684
1.382515346
1.382330033
1.381184796
1.37927904
1.378559624
1.378556839
1.378276451
1.378291329
1.378601351
1.37847463
1.379334932
1.379827219
1.379342541
1.379941223
1.375810714
1.377298825
1.377869985
1.377655799
1.376893697
1.376196569
1.375306754
1.374711906
1.374874513
1.375748496
1.376089515
1.376148581
1.376043984
1.376819994
1.378096175
1.37966408
1.380852852
1.38113755
1.381192858
1.380381002
1.379089003
1.377623991
1.377686458
1.3774446
1.377522957
1.377107734
1.378217914
1.377405343
1.378637402
1.378173394
1.37857091
1.379061344
1.37928355
1.377598006
1.379158143
1.379268303
1.378716453
1.377900612
1.377052057
1.376548702
1.375950653
1.376375401
1.376570367
1.376340132
1.376501573
1.376920687
1.377592589
1.37886894
1.379811589
1.379927433
1.379588678
1.378202682
1.376999106
1.376285813
1.376377982
1.376904868
1.377244638
1.376899992
1.377025337
1.37710954
1.377153343
1.377598329
1.377143626
1.377600947
1.379006626
1.379632124
1.379687631
1.37799359
1.379346766
1.379231857
1.379158356
1.379049697
1.378634473
1.378283716
1.378342768
1.378748752
1.379126156
1.379206858
1.379271043
1.379474195
1.380000828
1.380375854
1.37987648
1.378802882
1.376843559
1.37559126
1.376082465
1.376442558
1.376966228
1.377354232
1.377385061
1.377083469
1.376972729
1.376166863
1.377103611
1.376511402
1.37772896
1.378559188
1.379362309
1.380423228
1.38077698
1.377311216
1.378667361
1.378693883
1.378834444
1.379188091
1.379189225
1.378681221
1.378891993
1.379512654
1.380434116
1.381168124
1.381089854
1.381016992
1.380944272
1.380532985
1.379561182
1.377828818
1.375851286
1.375495665
1.375198277
1.376533361
1.377917307
1.37843386
1.378109414
1.377964826
1.377331795
1.377337764
1.377274559
1.378047368
1.379261412
1.380756918
1.382064895
1.382655481
1.3828025
1.376206124
1.377638183
1.377774492
1.378383194
1.378664483
1.378916722
1.378147926
1.378288012
1.378926841
1.380121007
1.381079844
1.380995069
1.380788549
1.38062033
1.380055853
1.37878159
1.376740665
1.375575342
1.375109982
1.376700418
1.379757987
1.381568498
1.381620891
1.381153924
1.380914365
1.380261382
1.37996857
1.380442308
1.381406581
1.38252788
1.383147737
1.383534546
1.383623665
1.383473004
1.374830638
1.376612941
1.37693333
1.377626738
1.378090727
1.378347912
1.377454644
1.377433428
1.37807237
1.379481452
1.380655755
1.380450726
1.380147598
1.379796487
1.379243274
1.377697082
1.376109074
1.37550715
1.376788639
1.380512771
1.383024182
1.383567463
1.382905957
1.382494099
1.382470853
1.382387157
1.382703034
1.38322315
1.383445865
1.383606784
1.383576746
1.383112916
1.383138049
1.383084703
1.374176412
1.376218825
1.376485263
1.377185851
1.378107853
1.37785347
1.376970472
1.376572075
1.37727989
1.378744333
1.379903978
1.379646368
1.379222203
1.378598552
1.377755256
1.376482863
1.375799303
1.376893194
1.380521323
1.383013646
1.383458619
1.383424251
1.382571052
1.382169073
1.382421406
1.382613554
1.383168555
1.383416503
1.383365259
1.38344045
1.383095072
1.38247292
1.382412375
1.38233864
1.373676753
1.376064385
1.37759376
1.378420282
1.378769886
1.377748445
1.376741175
1.376501863
1.377012541
1.37844423
1.378809555
1.3784155
1.377678912
1.37676933
1.376017711
1.376065706
1.37649627
1.379835327
1.382347787
1.383121517
1.383330717
1.382763676
1.381901365
1.381537207
1.382022817
1.382292091
1.382850992
1.382943279
1.382993723
1.382713437
1.382231734
1.381986021
1.38186604
1.381375068
1.377788602
1.379272701
1.379738029
1.379485987
1.378060464
1.376893162
1.376658197
1.377534612
1.377955946
1.377887585
1.376972473
1.375820113
1.375322987
1.375423386
1.376067568
1.378785686
1.381464958
1.382341337
1.382539551
1.382623532
1.381975234
1.381069639
1.380482436
1.381138322
1.381855433
1.382257339
1.382366481
1.382213561
1.381660603
1.380952833
1.380967692
1.381056246
1.381073099
1.379396463
1.379682372
1.379728122
1.379449943
1.378215234
1.377592013
1.37760521
1.378161958
1.377662508
1.376864748
1.375904347
1.375471201
1.37506476
1.375535245
1.377647003
1.380563652
1.381621899
1.381769471
1.381774001
1.381323352
1.380416407
1.379537021
1.38021106
1.38088479
1.381651289
1.381642076
1.381503299
1.380663278
1.380054347
1.3791996
1.37937787
1.379812342
1.380189348
1.379526128
1.379826597
1.379579817
1.379356664
1.378756147
1.378573829
1.378300726
1.37778302
1.377385629
1.376850118
1.37609051
1.375752971
1.376032773
1.377498565
1.379870677
1.380829287
1.381172688
1.380989712
1.380671049
1.379047691
1.378881047
1.379517094
1.380210057
1.381194651
1.381369845
1.380777618
1.379329243
1.378219699
1.377503384
1.378444924
1.378686094
1.379153273
1.379509299
1.379111226
1.379471075
1.379499136
1.379489063
1.379235141
1.378727183
1.3779905
1.377159335
1.37671991
1.376626949
1.376557014
1.377041525
1.378684805
1.380481238
1.380660718
1.38058366
1.380351589
1.379646984
1.377747793
1.378128617
1.378573775
1.379890804
1.381295245
1.381734857
1.380824165
1.378835211
1.377099518
1.37696513
1.376883144
1.377835171
1.379112156
1.379749867
1.380438339
1.378470097
1.378769694
1.378655508
1.378949794
1.378817858
1.378255959
1.377341872
1.376466989
1.376266646
1.376609882
1.377843356
1.379697303
1.380857532
1.380985611
1.380548623
1.380066754
1.378636202
1.377436947
1.376969545
1.37764328
1.379567799
1.381658929
1.382860084
1.38169626
1.38001758
1.377495892
1.376909107
1.376456818
1.377613392
1.379016798
1.380416617
1.381502165
1.382459101
1.377823845
1.378226726
1.378128339
1.378522797
1.378487405
1.377853944
1.377008639
1.376335543
1.376195582
1.377449951
1.379765096
1.380360207
1.380649668
1.380624476
1.379925375
1.378329156
1.37745435
1.376872439
1.377845058
1.379297683
1.381920519
1.383471263
1.383067494
1.381330971
1.379136724
1.37743075
1.376379244
1.377692277
1.380027375
1.382027853
1.382859894
1.383461605
1.383538177
1.377569444
1.378398913
1.378848903
1.37967961
1.379600161
1.378806674
1.37733351
1.376614676
1.37729863
1.379084822
1.380075023
1.380005666
1.379856662
1.379546814
1.378433614
1.377427722
1.376947109
1.377853226
1.379609242
1.382504721
1.383766175
1.383736568
1.382698611
1.380845944
1.378673489
1.376949261
1.378138737
1.381062242
1.383138327
1.383751907
1.38357754
1.383708016
1.383467433
1.377766561
1.379556504
1.380662418
1.381689378
1.381657302
1.380550088
1.37861906
1.378578424
1.379152083
1.379682933
1.379573632
1.379200115
1.378342984
1.377908085
1.377570615
1.377414427
1.377746671
1.379901568
1.382968686
1.383850505
1.384106633
1.383484204
1.382074846
1.379765635
1.378201577
1.378618226
1.381523298
1.383495491
1.383615172
1.383597714
1.383696017
1.383572584
1.383248778
1.380687353
1.381834527
1.382636377
1.382688024
1.382117084
1.380776341
1.380184003
1.379662084
1.379450962
1.379023726
1.378210328
1.376747412
1.376654319
1.377375738
1.377773389
1.379934644
1.382065486
1.383624072
1.383908571
1.383763928
1.382991013
1.38105579
1.3792211
1.378978861
1.381659487
1.383340991
1.383350206
1.383596049
1.383221493
1.383369788
1.383194555
1.382884095
1.380967884
1.381907373
1.382660274
1.382674007
1.38220488
1.381118655
1.380140712
1.379519078
1.379154686
1.378401528
1.377077167
1.376306266
1.376453345
1.377971407
1.379180463
1.381125584
1.382341644
1.383304708
1.383529582
1.382976695
1.381485695
1.379567435
1.379214256
1.381017986
1.383412572
1.38337761
1.383260251
1.383314383
1.383011597
1.382244569
1.381910463
1.381818938
1.38177736
1.381146124
1.381842403
1.382530872
1.382558114
1.381970448
1.380878155
1.379875672
1.379251468
1.378572197
1.377654123
1.376779984
1.376285624
1.376937556
1.379032785
1.379875795
1.380721283
1.38196824
1.382204244
1.382564141
1.381553813
1.379580902
1.379268711
1.380326838
1.383082125
1.383283326
1.383239146
1.38308318
1.382301472
1.381437902
1.380344584
1.380180616
1.380605567
1.380946355
1.381051269
1.38156247
1.382247352
1.382369943
1.38158265
1.380432171
1.379277546
1.378253115
1.377771531
1.377715953
1.377207609
1.377325438
1.378035419
1.378926743
1.379633985
1.37995672
1.380779327
1.380936004
1.380159077
1.379268607
1.379453537
1.380040066
1.382487432
1.383346905
1.383009242
1.382965043
1.382132555
1.380468196
1.379024686
1.379152592
1.37968873
1.380391994
1.380795858
1.380532547
1.380160292
1.380956734
1.381267587
1.380852188
1.37976485
1.378455547
1.377687302
1.377521482
1.377693927
1.378095195
1.378413327
1.378470627
1.378994698
1.379122096
1.379242654
1.378887443
1.378109488
1.377753689
1.378501748
1.379172445
1.381893825
1.383271745
1.383248072
1.383099872
1.382054326
1.380042632
1.378512724
1.378507651
1.379127572
1.379797521
1.380518084
1.380877473
1.379141909
1.379011192
1.379947364
1.380392873
1.380340751
1.379637385
1.37855731
1.377966375
1.377929363
1.378514883
1.379037113
1.378915482
1.378724593
1.378787278
1.378167181
1.377168191
1.376834812
1.37652251
1.377456117
1.37818972
1.380818616
1.383411422
1.383326943
1.383145594
1.382265594
1.380068137
1.378150243
1.37800365
1.378730788
1.379280264
1.380305522
1.381022374
1.381396228
1.378260784
1.378786056
1.379643407
1.380170592
1.380119178
1.379539288
1.378705282
1.378673982
1.379248572
1.379356679
1.379291253
1.379195993
1.378652452
1.377752035
1.376712345
1.376345183
1.376384966
1.376724604
1.377508799
1.379414223
1.382838062
1.383218116
1.383649026
1.382281594
1.380010536
1.377922241
1.377736791
1.378264546
1.379017395
1.380629411
1.382081226
1.382298009
1.382282258
1.378206078
1.378649109
1.379849841
1.380604206
1.380631263
1.38047894
1.380122137
1.380011954
1.379729809
1.379559071
1.379046578
1.378549111
1.377641331
1.376706317
1.376143267
1.376597304
1.376381875
1.377631929
1.379105377
1.382056438
1.383005026
1.383302172
1.382278248
1.379975696
1.377691936
1.377251757
1.377682057
1.378735077
1.380550944
1.382732129
1.383155371
1.383141319
1.383028034
1.378895738
1.380521669
1.381368534
1.381063692
1.380728584
1.380354411
1.379849189
1.379399275
1.379035305
1.37821364
1.377056899
1.376706907
1.376103432
1.37686605
1.37674698
1.377568999
1.380099288
1.38211514
1.382896691
1.383015398
1.38261184
1.380131111
1.377511128
1.377204491
1.377543763
1.378205211
1.380033952
1.382449322
1.382933112
1.383200674
1.383453752
1.383371204
1.378931221
1.380576762
1.381719739
1.381634528
1.381051514
1.380653452
1.379854793
1.37882574
1.377839937
1.37663939
1.375854137
1.376158627
1.376546469
1.377694834
1.377901022
1.380081149
1.38074499
1.382897357
1.383142841
1.383050403
1.380736086
1.3779363
1.377203045
1.377519132
1.37810008
1.379362742
1.381527931
1.382779269
1.382881042
1.383042164
1.38321405
1.383065482
1.378332943
1.379631884
1.38093389
1.381252649
1.380978735
1.380454278
1.37934151
1.377672346
1.376535677
1.375787706
1.375702077
1.376376172
1.377647511
1.37799398
1.379866058
1.380691706
1.381832874
1.382667901
1.382975826
1.381281747
1.378511184
1.377871201
1.37781458
1.378168158
1.379133028
1.381452177
1.382436289
1.382696036
1.38299092
1.382924208
1.382616669
1.382326269
1.377840736
1.378889412
1.380254215
1.380576972
1.380376338
1.379840872
1.378516434
1.377022499
1.37641802
1.375977611
1.376162427
1.37696273
1.377553917
1.379322186
1.380482182
1.381026204
1.382550465
1.382480003
1.381098522
1.378729668
1.378233036
1.378462097
1.378837162
1.379647696
1.381144507
1.381829637
1.382604739
1.382462573
1.382049558
1.380874963
1.380458877
1.380274556
1.377030807
1.378123668
1.379445241
1.37988144
1.379682578
1.379165657
1.378107971
1.376911746
1.376794728
1.376980017
1.377447461
1.378083591
1.378481218
1.380163355
1.380272566
1.380993704
1.380680898
1.379700251
1.377905497
1.378019185
1.378725931
1.379349137
1.380440002
1.381899895
1.382493065
1.382421162
1.382269262
1.381840413
1.37962248
1.378693775
1.37903192
1.379416545
1.376711311
1.37769141
1.378922424
1.379446539
1.379357027
1.378975769
1.377909259
1.377514223
1.377755053
1.378181978
1.378832863
1.379080286
1.379141677
1.379805665
1.379499526
1.378581973
1.377362662
1.376771088
1.377252144
1.378328056
1.379433978
1.381092934
1.382572743
1.382907664
1.382945985
1.382815351
1.382126078
1.379579738
1.378154899
1.378542091
1.379005941
1.379523178
1.37667079
1.377952184
1.379094892
1.379527215
1.379197386
1.378622054
1.378288409
1.378287352
1.378647018
1.379529598
1.379728165
1.379695443
1.378133539
1.377935914
1.376977819
1.376185647
1.376198253
1.376686338
1.377576062
1.378788159
1.380944773
1.38279818
1.383371045
1.383176528
1.382887433
1.382528686
1.380162965
1.378212359
1.378208079
1.378744165
1.379204238
1.379787536
1.377225061
1.378307498
1.379253909
1.379319951
1.378726305
1.378406673
1.378616581
1.379115954
1.379550273
1.379985509
1.379980861
1.37833547
1.37662068
1.376075637
1.37611803
1.37614769
1.376361071
1.376934736
1.378148827
1.3802648
1.38265134
1.383319688
1.383501008
1.383366453
1.382768325
1.380665836
1.378289331
1.378164419
1.378619697
1.379121097
1.379996654
1.380586303
1.377412328
1.377823973
1.378391973
1.378505429
1.378468814
1.378437477
1.378920049
1.379441133
1.379332327
1.379222404
1.378220893
1.377232869
1.376853199
1.376236039
1.376328824
1.376739752
1.377329829
1.378473669
1.380306601
1.382182664
1.382880099
1.383032198
1.382499245
1.381536077
1.379879157
1.378264171
1.378151143
1.378649328
1.379624759
1.380822864
1.38190103
1.3826851
1.377472462
1.378161663
1.379010906
1.379717297
1.380107441
1.380092128
1.379550027
1.378904556
1.378612264
1.378463891
1.378532976
1.37859339
1.378431979
1.37847004
1.378687438
1.379093557
1.37958021
1.380040601
1.380404356
1.380546547
1.380578285
1.380685894
1.380802913
1.380783212
1.380840217
1.381058828
1.381326
1.381602714
1.381888977
1.382226281
1.38252669
1.378500918
1.379196841
1.380120294
1.381580497
1.382839074
1.382964281
1.382207033
1.381296162
1.380748963
1.380448895
1.380139474
1.379968782
1.379986047
1.380098712
1.38039155
1.380855782
1.381473364
1.382134212
1.382800306
1.383102862
1.38325675
1.3833026
1.383167615
1.382883804
1.382584746
1.382420793
1.382443523
1.382509025
1.382627997
1.382913292
1.383357338
1.382626211
1.381931679
1.382358066
1.384182816
1.385374703
1.385085836
1.384371469
1.383925803
1.384021672
1.383779814
1.383001558
1.382093356
1.38137291
1.381289213
1.381306097
1.38170739
1.38244489
1.383286265
1.384143077
1.384701246
1.38479518
1.384729774
1.384420694
1.384030268
1.383704221
1.38348504
1.383524413
1.383620064
1.383735682
1.383961155
1.384330499
1.382260766
1.381816763
1.383832884
1.385667208
1.385676394
1.385156095
1.384782281
1.385415411
1.3863068
1.386076575
1.385193001
1.384115871
1.382944868
1.382013155
1.381803544
1.382017808
1.382513346
1.383207304
1.383978975
1.384474222
1.384445312
1.384357095
1.384327531
1.384439444
1.384467574
1.384437426
1.384510394
1.384573339
1.384583447
1.384691612
1.38484439
1.37312606
1.378623442
1.383856633
1.385594146
1.384879407
1.384819288
1.385239426
1.38636993
1.387183046
1.386395442
1.384782346
1.383800963
1.383895852
1.383781107
1.383499223
1.38328875
1.383398319
1.383753897
1.384306112
1.38461629
1.384537952
1.384437899
1.384718748
1.385060172
1.385264569
1.385358263
1.385416715
1.38540054
1.38519569
1.38512446
1.385134687
1.313229637
1.360990233
1.375520045
1.374475173
1.379513933
1.383423053
1.385457989
1.385917328
1.385557442
1.384427534
1.38390607
1.383906073
1.384463903
1.38530262
1.385655154
1.385437734
1.385181154
1.385218498
1.385336106
1.38539951
1.385144133
1.384876166
1.385066463
1.385801433
1.386220442
1.386311629
1.386279373
1.386152011
1.385846329
1.385661354
1.385644952
1.207526257
1.32251862
1.339849347
1.357116523
1.383205332
1.385237624
1.38388078
1.382583565
1.383271582
1.383991387
1.385195389
1.386268723
1.387166291
1.387336378
1.386692658
1.385913365
1.385342366
1.385103706
1.385638193
1.386215001
1.385997947
1.385681811
1.385603262
1.38588303
1.386339828
1.38648901
1.386597079
1.386552903
1.386335582
1.386212089
1.386211332
1.008061661
1.123876003
1.245661629
1.327058727
1.376297891
1.375912983
1.37488667
1.378611367
1.382328863
1.385639362
1.38854214
1.389542621
1.389388714
1.388522836
1.386600538
1.384748219
1.384370349
1.38474318
1.38572072
1.38647506
1.386445343
1.386160032
1.38582161
1.385849802
1.386083138
1.386393679
1.386533207
1.38650045
1.386409922
1.386378954
1.386477627
0.9164190922
0.9545940673
1.055022493
1.169150671
1.286813067
1.320191258
1.36062148
1.384277649
1.382513917
1.383969921
1.387492869
1.388249325
1.388319397
1.386811434
1.385154323
1.384150037
1.38428232
1.385330519
1.386484451
1.386663451
1.386525043
1.385774867
1.385572069
1.385743148
1.385896421
1.386306177
1.38649534
1.386431778
1.386279489
1.386218822
1.386343792
0.9056256796
0.9082693799
0.9263426978
0.9873296221
1.093897429
1.224752028
1.335311368
1.370923096
1.365763058
1.37373781
1.377116415
1.377844831
1.383205898
1.384883892
1.38509722
1.385915927
1.387007547
1.388266161
1.388128258
1.387333828
1.386446106
1.385320009
1.385236483
1.385469764
1.386412462
1.387038337
1.386979044
1.386617659
1.386095888
1.385957731
1.386216496
0.9072021201
0.9056203821
0.906003905
0.912557331
0.9421165526
1.031788406
1.155289563
1.263866947
1.312765075
1.359387876
1.364111059
1.370462947
1.380841924
1.385832151
1.385747948
1.386441954
1.387975161
1.388399645
1.388107844
1.387446452
1.386253751
1.385942268
1.385963538
1.386082062
1.386503166
1.38672876
1.386607301
1.386147013
1.385654123
1.385787541
1.38627496
0.9095074907
0.9072557199
0.9069182471
0.9070649305
0.9086185114
0.9232112407
0.9720798648
1.083950118
1.221288203
1.329562423
1.353881434
1.375888274
1.388221058
1.385953339
1.384241693
1.384137968
1.383686664
1.384689663
1.38685729
1.387470964
1.387121743
1.386605697
1.386059365
1.38576296
1.385551306
1.385551687
1.385424571
1.385150905
1.385305875
1.385769585
1.386589848
0.9107534095
0.9086060459
0.9079027098
0.9083296717
0.9078177201
0.9076450973
0.9118785512
0.9383060971
1.013496675
1.129330778
1.247045865
1.343524169
1.378280596
1.367303343
1.372884498
1.373355849
1.374580998
1.380140615
1.387322013
1.389027218
1.388743338
1.387589505
1.386016183
1.384969816
1.384548496
1.38452616
1.384454642
1.384526249
1.384953228
1.385673488
1.38652783
0.9186841193
0.9134798631
0.9084436296
0.9087883242
0.9093698058
0.9086643254
0.9084357511
0.9096953607
0.9195650223
0.9593949961
1.061567252
1.179072825
1.288076172
1.32535521
1.366611709
1.37033951
1.374072647
1.382752477
1.390215642
1.389405681
1.388378001
1.386455815
1.385433936
1.385018521
1.385230516
1.385245821
1.38513492
1.384829762
1.384815319
1.385277796
1.386013267
0.9306929215
0.9278328662
0.9173537121
0.9137479842
0.9142894504
0.9126389968
0.9102422418
0.9105573051
0.9099895696
0.911973439
0.9312949394
0.9927463517
1.108396519
1.24839336
1.342383433
1.358848578
1.375370415
1.390749481
1.390473708
1.385534368
1.384824351
1.385211626
1.38633049
1.387760299
1.388453255
1.38823773
1.387334708
1.385508494
1.384699591
1.384819524
1.385309128
0.9431048735
0.9418896245
0.9326377667
0.9246254408
0.9233734924
0.9201766727
0.9124202677
0.9109414281
0.9110500279
0.9106215544
0.9112497256
0.9184312457
0.9518198098
1.040670188
1.163375197
1.264753552
1.342427325
1.38491099
1.374686383
1.375621544
1.380665732
1.385387414
1.387604459
1.389225798
1.389477024
1.389063623
1.387850066
1.385375547
1.384606879
1.384759846
1.38543994
0.9655227781
0.9605499158
0.9522312982
0.935103361
0.9319346435
0.9312273263
0.9234247932
0.9163354799
0.9154004619
0.9126852074
0.9111929191
0.9119427944
0.9143155454
0.9295642871
0.9794443923
1.097059524
1.208028952
1.307027687
1.334593006
1.371499304
1.385874709
1.385025621
1.386172813
1.386918856
1.385282202
1.38447069
1.385116958
1.384898182
1.38522414
1.386047983
1.387374639
0.9813514373
0.97710676
0.9746620293
0.9609435981
0.9486668053
0.9470486331
0.9403630636
0.9291470646
0.9253128972
0.9221513138
0.9149401795
0.9130870654
0.9137503272
0.9143430747
0.9182444213
0.9449519865
1.017078451
1.134105665
1.259963821
1.35477373
1.373254977
1.368894612
1.376709295
1.376914719
1.377086413
1.380679196
1.38439843
1.385635262
1.38646556
1.387286752
1.388550375
1.015445035
1.000314267
0.9967153286
0.9859384643
0.9667845452
0.9603118886
0.9556179451
0.9404997096
0.9346324144
0.935281307
0.9307617268
0.9240985436
0.9207986483
0.9174229838
0.9156851383
0.916356204
0.9257823505
0.9659327326
1.06652927
1.19748424
1.279027368
1.328771063
1.374707238
1.373409184
1.375781507
1.382274463
1.386799349
1.386215514
1.386333135
1.387004302
1.386377365
1.050230617
1.024391886
1.017275046
1.010325089
0.9897945306
0.9771164363
0.975266096
0.9654211027
0.9521077535
0.9488777294
0.9437563286
0.9332608066
0.9302860591
0.9268794607
0.9224449667
0.9185683746
0.9188760297
0.921604644
0.9427688628
1.00067072
1.123572175
1.253883861
1.348803987
1.363484939
1.382142902
1.389763947
1.386794838
1.384545898
1.384491107
1.383987014
1.383278438
1.081087143
1.054118079
1.042741173
1.039316148
1.024445153
1.002399098
0.995147523
0.9872741705
0.9696277894
0.9615943829
0.9587163969
0.9476203446
0.9382304674
0.9341449331
0.9292222742
0.924297822
0.9215358462
0.9200987006
0.9205738166
0.9260672814
0.963619412
1.046517554
1.169569657
1.269406135
1.361946849
1.380270455
1.370357269
1.375972019
1.380716538
1.382082169
1.383576377
1.113534987
1.0906145
1.065162694
1.058617033
1.048280937
1.024809226
1.014034494
1.010302753
0.9962498436
0.9816097943
0.9790517187
0.9715085435
0.9575198237
0.9525878136
0.9470705999
0.9385842496
0.9292149782
0.9262521228
0.9241482728
0.9231650905
0.9248142553
0.93972688
0.9937633792
1.111123431
1.230269493
1.304574246
1.337519901
1.379990935
1.383474217
1.386414835
1.390572456
1.139078047
1.123852251
1.093201998
1.080894181
1.07481549
1.056377256
1.037878428
1.034060331
1.024264625
1.004248864
0.9950073004
0.9881301278
0.9725800319
0.9670461565
0.9649221176
0.9564559869
0.9464217408
0.9398388556
0.935888053
0.9292079411
0.9252804948
0.9260647602
0.9314098163
0.9634352011
1.034371041
1.158292861
1.282638441
1.360400241
1.368406266
1.379970609
1.390186065
1.165636828
1.157231033
1.132127621
1.108186034
1.100195569
1.085602317
1.059282836
1.050592255
1.044548662
1.026898006
1.014270178
1.010418869
0.9989140443
0.9847044346
0.9787195212
0.9704020744
0.9592107487
0.9531762471
0.9482279897
0.9407264186
0.9283082869
0.9270888731
0.9291382233
0.9312557333
0.9410164832
0.9878128244
1.083999696
1.205832909
1.278934488
1.345033891
1.379082625
1.191237219
1.182902774
1.16341719
1.132543966
1.122467477
1.114283552
1.091711232
1.074814302
1.069328353
1.055082721
1.036359539
1.030711413
1.021880102
1.00566807
0.9983489782
0.9929987232
0.9798714123
0.9722760042
0.9668768903
0.9593425522
0.947889364
0.941425839
0.9382655602
0.9327297434
0.9310259312
0.9340699158
0.9562291248
1.017252311
1.144772793
1.263132522
1.330436927
1.220923395
1.208103619
1.194924685
1.164138634
1.146913827
1.140962207
1.123806193
1.099202423
1.090232107
1.079525985
1.05820282
1.048027576
1.040760644
1.024204662
1.016148136
1.01225095
1.001817733
0.9881469786
0.9809320899
0.9731972186
0.9624729332
0.9546018052
0.9502171528
0.9445289888
0.9343085157
0.9342133872
0.9368535401
0.9447951066
0.984616546
1.067819107
1.193485315
1.257183973
1.235435942
1.225857751
1.201733974
1.172002134
1.162628408
1.149741316
1.122773055
1.111196354
1.105154747
1.08845764
1.073026822
1.065278001
1.050930861
1.035584715
1.028159568
1.018378889
1.005193585
0.999688079
0.994891554
0.9829314747
0.9708205559
0.9633590636
0.9574229961
0.9471462327
0.9425985833
0.9419768498
0.9396865533
0.9411600117
0.9568937934
1.01483075
1.295750604
1.261320389
1.250721839
1.234915037
1.202785979
1.187448678
1.178535677
1.155378657
1.13459902
1.127195899
1.11207852
1.091623535
1.083552297
1.07404173
1.059167989
1.049736042
1.039857559
1.024788206
1.017122644
1.011991999
1.002128466
0.9898596539
0.9840477262
0.977304156
0.9666207011
0.9556994549
0.9501614872
0.9444936067
0.9414482959
0.9426287536
0.9488399473
1.334857929
1.295132078
1.275898555
1.264209983
1.236476164
1.211615766
1.20337598
1.186558645
1.159500838
1.148809601
1.137693108
1.115414343
1.10437601
1.096959432
1.083056963
1.070637275
1.060992769
1.047067563
1.035831515
1.027977593
1.01600812
1.000960004
0.9972016073
0.9939776545
0.9853949729
0.9754488643
0.9687864641
0.9631435231
0.9515673426
0.9464808395
0.9486616153
1.36843776
1.334939812
1.303494146
1.291606016
1.270587116
)
;

boundaryField
{
    inlet
    {
        type            calculated;
        value           nonuniform 0();
    }
    outlet
    {
        type            calculated;
        value           nonuniform 0();
    }
    bottom
    {
        type            calculated;
        value           nonuniform 0();
    }
    top
    {
        type            calculated;
        value           nonuniform 0();
    }
    obstacle
    {
        type            calculated;
        value           nonuniform 0();
    }
    defaultFaces
    {
        type            empty;
    }
    procBoundary28to21
    {
        type            processor;
        value           nonuniform List<scalar> 
19
(
1.373702301
1.374289427
1.375502701
1.375908165
1.37540697
1.374599766
1.374297823
1.374297823
1.375846732
1.376342936
1.37578455
1.374834657
1.37361498
1.373065408
1.372764678
1.374891289
1.374891289
1.376457706
1.376325327
)
;
    }
    procBoundary28to22
    {
        type            processor;
        value           nonuniform List<scalar> 
36
(
1.379268884
1.375515261
1.375718028
1.376317082
1.377234143
1.37798015
1.378564578
1.379024636
1.379228463
1.378578788
1.378238848
1.377602155
1.377354978
1.37695246
1.377745397
1.378021716
1.378564053
1.378921647
1.380020827
1.380331924
1.379947091
1.378734639
1.37901293
1.378286903
1.378504679
1.379024274
1.379269826
1.379269826
1.373291649
1.37297565
1.373107306
1.37391578
1.375249408
1.376142644
1.377034627
1.377034627
)
;
    }
    procBoundary28to23
    {
        type            processor;
        value           nonuniform List<scalar> 3(1.381413418 1.383596165 1.383826138);
    }
    procBoundary28to27
    {
        type            processor;
        value           nonuniform List<scalar> 
55
(
1.375838391
1.374993374
1.374570994
1.374508841
1.374763539
1.378257837
1.378257837
1.378371311
1.378342438
1.378188599
1.377923598
1.377348211
1.376288109
1.375475526
1.378159137
1.378159137
1.378319398
1.377985088
1.377640521
1.376896943
1.375996812
1.374991514
1.375830371
1.376750739
1.377150686
1.377150686
1.377490686
1.378637963
1.380281655
1.375036805
1.268693638
1.067753051
0.9317839942
0.9058714771
0.9053400091
0.9078382766
0.9099018821
0.910591724
0.9199296515
0.9325385479
0.9485546379
0.981651346
1.005835892
1.040492205
1.069972971
1.091925456
1.121513905
1.147753972
1.176623649
1.216421394
1.257992936
1.294200552
1.326659539
1.356590678
1.384200403
)
;
    }
    procBoundary28to29
    {
        type            processor;
        value           nonuniform List<scalar> 
69
(
1.38303423
1.381943921
1.381194012
1.381119155
1.380088556
1.379322778
1.379322778