/*--------------------------------*- C++ -*----------------------------------*\
  =========                 |
  \\      /  F ield         | OpenFOAM: The Open Source CFD Toolbox
   \\    /   O peration     | Website:  https://openfoam.org
    \\  /    A nd           | Version:  7
     \\/     M anipulation  |
\*---------------------------------------------------------------------------*/
FoamFile
{
    version     2.0;
    format      ascii;
    class       volScalarField;
    location    "0.1";
    object      p;
}
// * * * * * * * * * * * * * * * * * * * * * * * * * * * * * * * * * * * * * //

dimensions      [1 -1 -2 0 0 0 0];

internalField   nonuniform List<scalar> 
22
(
1
1.055752033
1.121611497
1.192724052
1.003439978
1.011478052
1.026380023
1.000023259
1.000155394
1.000677718
1
1
1
1
1
1
1
1
1
1
1
1
)
;

boundaryField
{
    inlet
    {
        type            fixedValue;
        value           nonuniform 0();
    }
    outlet
    {
        type            zeroGradient;
    }
    bottom
    {
        type            slip;
    }
    top
    {
        type            slip;
    }
    obstacle
    {
        type            zeroGradient;
    }
    defaultFaces
    {
        type            empty;
    }
    procBoundary19to13
    {
        type            processor;
        value           nonuniform List<scalar> 5(1 1 1 1 1.055752033);
    }
    procBoundary19to18
    {
        type            processor;
        value           nonuniform List<scalar> 3(1 1 1);
    }
    procBoundary19to20
    {
        type            processor;
        value           nonuniform List<scalar> 3(1.262126396 1.047707199 1.002103735);
    }
    procBoundary19to24
    {
        type            processor;
        value           uniform 1;
    }
    procBoundary19to25
    {
        type            processor;
        value           nonuniform List<scalar> 7(0.9999999957 1.000000078 1.00000153 0.9999999957 1 1 1);
    }
}


// ************************************************************************* //
