/*--------------------------------*- C++ -*----------------------------------*\
  =========                 |
  \\      /  F ield         | OpenFOAM: The Open Source CFD Toolbox
   \\    /   O peration     | Website:  https://openfoam.org
    \\  /    A nd           | Version:  7
     \\/     M anipulation  |
\*---------------------------------------------------------------------------*/
FoamFile
{
    version     2.0;
    format      ascii;
    class       volVectorField;
    location    "1.9";
    object      U;
}
// * * * * * * * * * * * * * * * * * * * * * * * * * * * * * * * * * * * * * //

dimensions      [0 1 -1 0 0 0 0];

internalField   nonuniform List<vector> 5((2.95883109 -0.02051563955 0) (2.947687106 -0.02624073171 0) (2.92865963 -0.05355941692 0) (2.958831089 0.02051558018 0) (2.947687098 0.02624078727 0));

boundaryField
{
    inlet
    {
        type            fixedValue;
        value           nonuniform 0();
    }
    outlet
    {
        type            inletOutlet;
        inletValue      nonuniform 0();
        value           nonuniform 0();
    }
    bottom
    {
        type            slip;
    }
    top
    {
        type            slip;
    }
    obstacle
    {
        type            slip;
    }
    defaultFaces
    {
        type            empty;
    }
    procBoundary20to9
    {
        type            processor;
        value           uniform (2.960630845 -0.01294216263 0);
    }
    procBoundary20to13
    {
        type            processor;
        value           uniform (2.973872396 -0.004539716944 0);
    }
    procBoundary20to14
    {
        type            processor;
        value           nonuniform List<vector> 3((2.989086593 -0.02030735451 0) (2.982778442 -0.03450057637 0) (2.966723219 -0.07474728669 0));
    }
    procBoundary20to19
    {
        type            processor;
        value           uniform (2.973872388 0.004539769521 0);
    }
    procBoundary20to26
    {
        type            processor;
        value           nonuniform List<vector> 3((2.989086587 0.02030737078 0) (2.928659605 0.05355933789 0) (2.982778449 0.03450055218 0));
    }
}


// ************************************************************************* //
