/*--------------------------------*- C++ -*----------------------------------*\
  =========                 |
  \\      /  F ield         | OpenFOAM: The Open Source CFD Toolbox
   \\    /   O peration     | Website:  https://openfoam.org
    \\  /    A nd           | Version:  7
     \\/     M anipulation  |
\*---------------------------------------------------------------------------*/
FoamFile
{
    version     2.0;
    format      ascii;
    class       volScalarField;
    location    "3";
    object      p;
}
// * * * * * * * * * * * * * * * * * * * * * * * * * * * * * * * * * * * * * //

dimensions      [1 -1 -2 0 0 0 0];

internalField   nonuniform List<scalar> 
22
(
0.9651426182
0.9892373596
0.9867043913
0.9907277861
0.9969781132
0.997494679
0.9968085491
0.9966471755
0.9879732152
0.9885735931
0.9921273953
0.9905444341
0.991940456
0.9924604053
0.9880923621
0.9933480215
0.9961053248
0.9972702222
0.9891571903
0.9929616091
0.9987076224
1.000452057
)
;

boundaryField
{
    inlet
    {
        type            fixedValue;
        value           nonuniform 0();
    }
    outlet
    {
        type            zeroGradient;
    }
    bottom
    {
        type            slip;
    }
    top
    {
        type            slip;
    }
    obstacle
    {
        type            zeroGradient;
    }
    defaultFaces
    {
        type            empty;
    }
    procBoundary11to5
    {
        type            processor;
        value           nonuniform List<scalar> 4(0.9247685838 0.9707308617 0.9270060808 0.9270060808);
    }
    procBoundary11to10
    {
        type            processor;
        value           nonuniform List<scalar> 6(0.9518973842 0.9881401852 0.9845951046 0.9857519172 0.9857519172 1.018568037);
    }
    procBoundary11to16
    {
        type            processor;
        value           uniform 1.022354546;
    }
    procBoundary11to17
    {
        type            processor;
        value           nonuniform List<scalar> 4(0.983367685 0.9886038226 0.9933870731 0.9963427304);
    }
}


// ************************************************************************* //
