/*--------------------------------*- C++ -*----------------------------------*\
  =========                 |
  \\      /  F ield         | OpenFOAM: The Open Source CFD Toolbox
   \\    /   O peration     | Website:  https://openfoam.org
    \\  /    A nd           | Version:  7
     \\/     M anipulation  |
\*---------------------------------------------------------------------------*/
FoamFile
{
    version     2.0;
    format      ascii;
    class       volVectorField;
    location    "3.5";
    object      U;
}
// * * * * * * * * * * * * * * * * * * * * * * * * * * * * * * * * * * * * * //

dimensions      [0 1 -1 0 0 0 0];

internalField   nonuniform List<vector> 
80000
(
(3 2.26179722e-16 0)
(3 5.708983222e-16 0)
(3 6.476526231e-16 0)
(3 1.724972697e-16 0)
(3 -1.754380465e-16 0)
(3 2.149078839e-16 0)
(3 1.80163469e-15 0)
(3 2.137532197e-15 0)
(3 1.523892596e-15 0)
(3 5.065675703e-16 0)
(3 -2.418065461e-16 0)
(3 3.41869576e-16 0)
(3 1.452978211e-15 0)
(3 -1.127103081e-15 0)
(3 -6.998709788e-16 0)
(3 -1.453629302e-15 0)
(3 -1.345679448e-15 0)
(3 -9.623857366e-16 0)
(3 -4.160623294e-16 0)
(3 -4.196334184e-16 0)
(3 -5.001969894e-17 0)
(3 1.317143303e-15 0)
(3 1.664123697e-15 0)
(3 2.791122292e-15 0)
(3 1.049025823e-15 0)
(3 -1.968292743e-16 0)
(3 -3.650386124e-16 0)
(3 -3.275819076e-16 0)
(3 -4.309594486e-17 0)
(3 -2.562233444e-16 0)
(3 -9.336882676e-16 0)
(3 -3.582532034e-16 0)
(3 -1.641986053e-17 0)
(3 -4.066270214e-16 0)
(3 -1.826309977e-15 0)
(3 -1.066794329e-15 0)
(3 9.418754627e-17 0)
(3 1.148227046e-16 0)
(3 7.184474899e-16 0)
(3 2.227227193e-16 0)
(3 -7.0241119e-16 0)
(3 2.321002604e-16 0)
(3 9.801786994e-16 0)
(3 1.318228817e-15 0)
(3 1.143283753e-15 0)
(3 4.652143089e-16 0)
(3 6.960130067e-16 0)
(3 1.737604385e-15 0)
(3 2.299622048e-15 0)
(3 3.672271411e-15 0)
(3 3.34304325e-15 0)
(3 2.411338772e-15 0)
(3 1.424535737e-15 0)
(3 1.28190771e-15 0)
(3 5.982118153e-16 0)
(3 -6.48671997e-17 0)
(3 -1.549271506e-15 0)
(3 -3.689465022e-15 0)
(3 -2.031108415e-15 0)
(3 -1.917820345e-15 0)
(3 -1.316937852e-15 0)
(3 6.978584015e-16 0)
(3 5.605547162e-16 0)
(3 9.488041526e-16 0)
(3 -3.734112113e-16 0)
(3 -8.316025216e-16 0)
(3 -1.686528992e-15 0)
(3 -1.025024362e-15 0)
(3 7.423158283e-16 0)
(3 6.083301589e-17 0)
(3 -1.883350935e-15 0)
(3 -1.432792383e-15 0)
(3 6.021986523e-16 0)
(3 2.718542524e-15 0)
(3 2.785931172e-15 0)
(3 9.797820308e-16 0)
(3 1.281423666e-15 0)
(3 4.519879453e-16 0)
(3 4.817549074e-16 0)
(3 4.491390842e-16 0)
(3 -8.682209995e-16 0)
(3 7.016047213e-16 0)
(3 6.791870601e-16 0)
(3 1.508810681e-15 0)
(3 1.742548173e-15 0)
(3 1.678065252e-15 0)
(3 8.633208366e-16 0)
(3 3.062991486e-16 0)
(3 -5.140407299e-16 0)
(3 -4.230128649e-16 0)
(3 6.055070162e-16 0)
(3 1.055073483e-15 0)
(3 1.542086523e-15 0)
(3 2.470333099e-15 0)
(3 1.360568193e-15 0)
(3 3.202482657e-15 0)
(3 4.55848062e-15 0)
(3 3.572440481e-15 0)
(3 2.953037019e-15 0)
(3 1.930016105e-15 0)
(3 1.088456331e-15 0)
(3 1.032179794e-15 0)
(3 1.027135668e-15 0)
(3 4.32254494e-16 0)
(3 7.648267474e-16 0)
(3 2.317957259e-15 0)
(3 1.506297522e-15 0)
(3 1.092881235e-15 0)
(3 -4.683675258e-17 0)
(3 -9.13655795e-16 0)
(3 -1.148796643e-15 0)
(3 -4.966278742e-16 0)
(3 1.843101191e-15 0)
(3 8.218538014e-16 0)
(3 -3.769598235e-16 0)
(3 9.167106102e-17 0)
(3 8.403453971e-16 0)
(3 1.9883554e-15 0)
(3 1.756314467e-15 0)
(3 1.509076369e-15 0)
(3 1.726311607e-15 0)
(3 2.495729895e-15 0)
(3 2.097292559e-15 0)
(3 1.796882085e-15 0)
(3 -1.516769099e-15 0)
(3 -2.659336397e-15 0)
(3 -2.166890674e-15 0)
(3 -2.395356631e-15 0)
(3 -2.458040062e-15 0)
(3 -2.61709471e-15 0)
(3 -2.836784062e-15 0)
(3 -7.771717001e-16 0)
(3 -3.45456582e-16 0)
(3 -9.5974713e-16 0)
(3 -6.388408782e-16 0)
(3 -5.277223772e-16 0)
(3 7.663762983e-16 0)
(3 1.489289415e-15 0)
(3 1.455219829e-15 0)
(3 7.185792827e-16 0)
(3 -9.077541927e-16 0)
(3 5.565616891e-16 0)
(3 1.722668947e-15 0)
(3 1.995232789e-15 0)
(3 1.232553542e-15 0)
(3 -5.531839921e-16 0)
(3 -1.207925286e-15 0)
(3 4.365898382e-16 0)
(3 1.013866262e-15 0)
(3 3.051260676e-15 0)
(3 2.983452623e-15 0)
(3 1.623786439e-15 0)
(3 5.2522182e-16 0)
(3 7.522490194e-16 0)
(3 4.710846142e-17 0)
(3 -7.781685684e-16 0)
(3 -1.745547463e-15 0)
(3 -4.086599669e-15 0)
(3 -3.557517877e-15 0)
(3 -5.307136103e-15 0)
(3 -4.275208382e-15 0)
(3 -1.186106575e-16 0)
(3 1.293558607e-15 0)
(3 1.278815359e-15 0)
(3 3.264438513e-17 0)
(3 -1.238000778e-15 0)
(3 -3.570532256e-15 0)
(3 -3.273277735e-15 0)
(3 -1.311240347e-15 0)
(3 -1.190087954e-15 0)
(3 -2.251777873e-15 0)
(3 -1.115307045e-15 0)
(3 -1.281897606e-16 0)
(3 4.575954485e-16 0)
(3 -1.040631937e-17 0)
(3 -2.042652453e-17 0)
(3 3.241907083e-16 0)
(3 -1.297279535e-15 0)
(3 -3.297410175e-15 0)
(3 -2.377228479e-15 0)
(3 -2.652807375e-15 0)
(3 -2.307218434e-15 0)
(3 -1.24801751e-15 0)
(3 8.042335383e-16 0)
(3 1.42210645e-15 0)
(3 1.319352966e-15 0)
(3 1.08134807e-15 0)
(3 -8.279949038e-17 0)
(3 -1.779370239e-15 0)
(3 -1.629416726e-15 0)
(3 -2.876562892e-17 0)
(3 1.547671776e-16 0)
(3 2.150993463e-15 0)
(3 5.682614875e-15 0)
(3 4.696540393e-15 0)
(3 4.369285378e-15 0)
(3 3.991543849e-15 0)
(3 2.887866171e-15 0)
(3 1.992751152e-15 0)
(3 -1.538319178e-16 0)
(3 2.766664022e-17 0)
(3 4.737698239e-16 0)
(3 5.380727726e-16 0)
(3 5.290061074e-16 0)
(3 2.394695127e-15 0)
(3 3.294220746e-15 0)
(3 1.728898591e-15 0)
(3 8.873113813e-16 0)
(3 8.698060051e-17 0)
(3 -4.194461572e-16 0)
(3 -7.48804671e-16 0)
(3 -9.304786251e-16 0)
(3 5.604814368e-16 0)
(3 2.234255636e-15 0)
(3 2.347508797e-15 0)
(3 1.622488551e-15 0)
(3 1.245269043e-15 0)
(3 1.968037476e-15 0)
(3 1.548345919e-15 0)
(3 2.336509563e-15 0)
(3 1.689349501e-15 0)
(3 1.437520553e-15 0)
(3 9.869631294e-16 0)
(3 -1.801805169e-17 0)
(3 -6.954989598e-16 0)
(3 -6.981924452e-16 0)
(3 -7.279746971e-16 0)
(3 2.848554059e-16 0)
(3 -1.653061249e-15 0)
(3 -1.659717476e-15 0)
(3 -1.014410803e-15 0)
(3 -1.345513973e-15 0)
(3 -1.597089544e-15 0)
(3 -5.619352254e-16 0)
(3 2.022681471e-15 0)
(3 1.540781099e-15 0)
(3 7.867337973e-16 0)
(3 5.829610049e-17 0)
(3 -3.08940199e-16 0)
(3 -9.887343539e-16 0)
(3 -1.191808837e-15 0)
(3 1.255652863e-15 0)
(3 2.857805825e-15 0)
(3 4.337617685e-15 0)
(3 3.854649146e-15 0)
(3 3.206878503e-15 0)
(3 3.284596526e-15 0)
(3 1.979637605e-15 0)
(3 1.395159128e-15 0)
(3 1.648330078e-15 0)
(3 3.07250428e-15 0)
(3 2.867107556e-15 0)
(3 2.196388518e-15 0)
(3 1.794522864e-15 0)
(3 1.620221506e-15 0)
(3 1.36872279e-15 0)
(3 3.677729107e-16 0)
(3 -1.845628267e-15 0)
(3 -3.177874733e-15 0)
(3 -2.532728743e-15 0)
(3 -3.693173183e-15 0)
(3 -3.360210355e-15 0)
(3 -3.381952101e-16 0)
(3 9.493581672e-16 0)
(3 2.649360612e-15 0)
(3 1.847067068e-15 0)
(3 2.014277697e-16 0)
(3 -2.331883062e-15 0)
(3 -1.949394458e-15 0)
(3 -8.605038702e-16 0)
(3 3.491951954e-16 0)
(3 2.953724893e-15 0)
(3 -4.188951239e-16 0)
(3 -1.978382848e-15 0)
(3 -3.019263821e-15 0)
(3 -2.789483353e-15 0)
(3 -2.751229431e-15 0)
(3 -1.487317946e-16 0)
(3 7.124215822e-16 0)
(3 -1.024218635e-15 0)
(3 -1.47993108e-15 0)
(3 -2.68770682e-15 0)
(3 -3.977036328e-15 0)
(3 -3.213126984e-15 0)
(3 -2.256280725e-15 0)
(3 -9.976831403e-16 0)
(3 1.04580597e-16 0)
(3 -6.183982258e-16 0)
(3 -1.714206625e-15 0)
(3 -1.491128728e-15 0)
(3 -1.933888383e-15 0)
(3 -9.484952649e-16 0)
(3 -6.415447483e-16 0)
(3 6.039826471e-16 0)
(3 2.90949699e-15 0)
(3 3.306903865e-15 0)
(3 2.215439182e-15 0)
(3 1.144605377e-15 0)
(3 2.865626727e-16 0)
(3 -2.291788296e-16 0)
(3 -6.572373511e-16 0)
(3 -4.984226174e-17 0)
(3 5.098281465e-16 0)
(3 -7.802516526e-16 0)
(3 -5.686408338e-16 0)
(3 -5.804069727e-16 0)
(3 -5.464664082e-16 0)
(3 4.082325019e-16 0)
(3 1.147356432e-15 0)
(3 1.998292986e-15 0)
(3 1.10055988e-15 0)
(3 1.668359996e-16 0)
(3 4.835281077e-17 0)
(3 9.260287643e-16 0)
(3 1.82025282e-15 0)
(3 1.020374888e-15 0)
(3 1.407375067e-15 0)
(3 1.131138486e-15 0)
(3 5.150754906e-16 0)
(3 1.214381616e-15 0)
(3 1.870657642e-15 0)
(3 1.628719495e-15 0)
(3 1.002794171e-15 0)
(3 -1.045094197e-16 0)
(3 -1.852594979e-17 0)
(3 7.34851949e-16 0)
(3 3.461143559e-16 0)
(3 1.09185036e-15 0)
(3 1.111352251e-15 0)
(3 7.660722149e-16 0)
(3 1.679504038e-15 0)
(3 2.097020644e-15 0)
(3 -2.842775717e-16 0)
(3 -5.438310302e-16 0)
(3 -1.183783395e-15 0)
(3 -8.404136552e-16 0)
(3 4.874835936e-16 0)
(3 -2.887928937e-16 0)
(3 -1.813301022e-15 0)
(3 -1.445214611e-15 0)
(3 -1.684501607e-16 0)
(3 1.770127522e-15 0)
(3 3.105620613e-15 0)
(3 5.144779046e-15 0)
(3 6.725777277e-15 0)
(3 6.110514945e-15 0)
(3 4.429026215e-15 0)
(3 4.106817029e-15 0)
(3 2.687575717e-15 0)
(3 1.467841096e-15 0)
(3 2.166809464e-15 0)
(3 3.015392413e-15 0)
(3 2.908610525e-15 0)
(3 2.405920498e-15 0)
(3 2.126565208e-15 0)
(3 7.265646448e-16 0)
(3 -1.186808882e-15 0)
(3 -1.432047834e-15 0)
(3 -1.586310906e-15 0)
(3 1.872821152e-16 0)
(3 -8.51647013e-16 0)
(3 -4.680417363e-15 0)
(3 -5.996591707e-15 0)
(3 -1.648422145e-15 0)
(3 4.726792302e-15 0)
(3 4.340091868e-15 0)
(3 2.868522366e-15 0)
(3 1.542390625e-15 0)
(3 -2.01565448e-16 0)
(3 -3.133442717e-16 0)
(3 1.416339865e-15 0)
(3 3.436964829e-15 0)
(3 2.765329764e-15 0)
(3 8.625524624e-16 0)
(3 -7.061197858e-16 0)
(3 -2.058582964e-15 0)
(3 -2.460625437e-15 0)
(3 -1.177827945e-15 0)
(3 -3.626667834e-17 0)
(3 -3.391098018e-15 0)
(3 -3.259514729e-15 0)
(3 -4.110477965e-15 0)
(3 -5.914139165e-15 0)
(3 -4.398768343e-15 0)
(3 -2.850325415e-15 0)
(3 -3.606207755e-16 0)
(3 5.401796612e-16 0)
(3 9.501124876e-16 0)
(3 1.709675976e-15 0)
(3 1.394645319e-17 0)
(3 -8.502492715e-16 0)
(3 -2.583649785e-16 0)
(3 -1.71320701e-16 0)
(3 7.439652086e-16 0)
(3 1.226776742e-15 0)
(3 1.597948657e-15 0)
(3 1.242731137e-15 0)
(3 1.509986724e-15 0)
(3 1.538902294e-15 0)
(3 4.395570892e-16 0)
(3 8.733938355e-16 0)
(3 6.327477725e-16 0)
(3 -1.301710536e-15 0)
(3 -1.880652404e-15 0)
(3 -3.10557351e-15 0)
(3 -2.249410781e-15 0)
(3 -1.700474641e-15 0)
(3 -1.325998835e-15 0)
(3 2.816506372e-16 0)
(3 3.311780517e-15 0)
(3 4.00076354e-15 0)
(3 4.089368324e-15 0)
(3 2.001782929e-15 0)
(3 8.934589618e-16 0)
(3 8.304727845e-16 0)
(3 3.211854429e-15 0)
(3 5.217345687e-15 0)
(3 4.990898966e-15 0)
(3 2.629011016e-15 0)
(3 2.236475321e-16 0)
(3 7.672033954e-16 0)
(3 8.664987751e-16 0)
(3 -1.097560831e-16 0)
(3 -4.79350475e-16 0)
(3 -1.058691937e-15 0)
(3 -1.313787793e-15 0)
(3 -9.444643944e-16 0)
(3 -5.662218374e-16 0)
(3 1.102622074e-15 0)
(3 7.236906951e-16 0)
(3 7.816214906e-16 0)
(3 1.465839477e-15 0)
(3 1.31667917e-15 0)
(3 -9.245048621e-16 0)
(3 -8.18173395e-16 0)
(3 1.142150983e-15 0)
(3 1.678602712e-15 0)
(3 1.935916785e-15 0)
(3 -2.746680216e-16 0)
(3 2.756320616e-16 0)
(3 9.562697623e-16 0)
(3 2.199186368e-15 0)
(3 4.377177095e-15 0)
(3 6.242087613e-15 0)
(3 6.562640504e-15 0)
(3 4.451929182e-15 0)
(3 3.713608856e-15 0)
(3 4.012450231e-15 0)
(3 3.511398396e-15 0)
(3 2.815191705e-15 0)
(3 2.462243194e-15 0)
(3 8.330967435e-16 0)
(3 7.820077467e-16 0)
(3 1.698626002e-15 0)
(3 1.715848133e-15 0)
(3 1.482637013e-15 0)
(3 1.302852301e-16 0)
(3 1.343662198e-16 0)
(3 -6.696644085e-16 0)
(3 -1.212117103e-15 0)
(3 -4.686583612e-16 0)
(3 -2.066433243e-15 0)
(3 -3.271286933e-15 0)
(3 -3.00332854e-15 0)
(3 -2.341663063e-15 0)
(3 4.488640667e-16 0)
(3 1.231472223e-15 0)
(3 2.328847234e-15 0)
(3 8.736985479e-16 0)
(3 -3.617582605e-16 0)
(3 -7.926729513e-16 0)
(3 -5.260364317e-16 0)
(3 -4.895311516e-16 0)
(3 3.626284512e-16 0)
(3 9.334385714e-16 0)
(3 1.967376977e-17 0)
(3 -1.565599157e-15 0)
(3 -2.841607179e-15 0)
(3 -3.123929193e-15 0)
(3 -2.536979849e-15 0)
(3 -2.892187023e-15 0)
(3 -1.834597802e-15 0)
(3 -5.872512955e-16 0)
(3 6.309271462e-17 0)
(3 3.850162559e-16 0)
(3 8.226738886e-16 0)
(3 1.70933173e-15 0)
(3 3.409181472e-15 0)
(3 4.006907951e-15 0)
(3 2.743330732e-15 0)
(3 6.372844696e-16 0)
(3 1.637224561e-16 0)
(3 -6.449460428e-16 0)
(3 -4.627497152e-17 0)
(3 2.694871852e-16 0)
(3 -8.004356079e-16 0)
(3 -6.363993853e-16 0)
(3 1.037834725e-16 0)
(3 8.732704568e-16 0)
(3 2.587451256e-16 0)
(3 -5.096907336e-17 0)
(3 -1.247616624e-15 0)
(3 -1.925843556e-15 0)
(3 -2.027740278e-15 0)
(3 -1.383931636e-15 0)
(3 -1.118342122e-15 0)
(3 -9.603541547e-16 0)
(3 -1.713492569e-15 0)
(3 -1.329080025e-15 0)
(3 1.127025418e-16 0)
(3 6.884339738e-16 0)
(3 2.292456702e-15 0)
(3 1.578521494e-15 0)
(3 9.886295954e-17 0)
(3 1.601476365e-15 0)
(3 2.909464758e-15 0)
(3 3.091922111e-15 0)
(3 2.658331721e-15 0)
(3 1.587776371e-15 0)
(3 1.465431559e-15 0)
(3 1.783089084e-15 0)
(3 1.433015331e-15 0)
(3 1.770006396e-15 0)
(3 2.622840619e-15 0)
(3 2.435248319e-15 0)
(3 1.384900888e-15 0)
(3 7.342358051e-16 0)
(3 2.860827743e-15 0)
(3 3.733591571e-15 0)
(3 3.768019681e-15 0)
(3 1.756668787e-15 0)
(3 5.290599933e-16 0)
(3 2.692684257e-15 0)
(3 2.050752693e-15 0)
(3 3.050962631e-15 0)
(3 3.594679312e-15 0)
(3 2.451684498e-15 0)
(3 5.303111661e-16 0)
(3 4.082151251e-16 0)
(3 3.417641032e-16 0)
(3 3.160631106e-16 0)
(3 1.606388032e-15 0)
(3 3.40908899e-15 0)
(3 4.01005958e-15 0)
(3 3.624853729e-15 0)
(3 4.805917929e-15 0)
(3 6.116911741e-15 0)
(3 6.165584074e-15 0)
(3 5.459030062e-15 0)
(3 4.431259446e-15 0)
(3 9.396792885e-16 0)
(3 -1.192366747e-15 0)
(3 -1.757315668e-15 0)
(3 -2.336667484e-15 0)
(3 -1.7494298e-15 0)
(3 -1.472569707e-15 0)
(3 -1.008680302e-15 0)
(3 -9.21648315e-16 0)
(3 -5.74442549e-16 0)
(3 -1.979406106e-15 0)
(3 -2.414741355e-15 0)
(3 -1.295288898e-15 0)
(3 -2.900641375e-16 0)
(3 -1.207012945e-15 0)
(3 -3.140290137e-15 0)
(3 -2.503275192e-15 0)
(3 -4.731415793e-16 0)
(3 4.432824962e-16 0)
(3 -2.109427027e-16 0)
(3 -3.919802441e-16 0)
(3 -2.469933564e-15 0)
(3 -3.951184608e-15 0)
(3 -3.980796088e-15 0)
(3 -3.464237499e-15 0)
(3 -2.957916328e-15 0)
(3 -4.331694614e-15 0)
(3 -5.080619362e-15 0)
(3 -4.794208205e-15 0)
(3 -5.306620859e-15 0)
(3 -5.36127422e-15 0)
(3 -3.589952711e-15 0)
(3 -3.266287624e-16 0)
(3 3.462537073e-15 0)
(3 4.222571896e-15 0)
(3 4.768070673e-15 0)
(3 4.03949571e-15 0)
(3 3.791655685e-15 0)
(3 4.266459271e-15 0)
(3 2.598705056e-15 0)
(3 4.051971078e-15 0)
(3 2.897689649e-15 0)
(3 1.036294304e-15 0)
(3 3.006081144e-16 0)
(3 -1.315833993e-15 0)
(3 -1.390521488e-15 0)
(3 -9.195473048e-16 0)
(3 -5.607937169e-16 0)
(3 2.195540687e-18 0)
(3 -2.391311444e-16 0)
(3 -1.138803141e-15 0)
(3 -8.845427311e-16 0)
(3 -7.981216384e-16 0)
(3 -2.589109707e-16 0)
(3 -6.920529756e-16 0)
(3 -8.969586315e-16 0)
(3 -1.92522302e-15 0)
(3 -2.593362069e-15 0)
(3 -1.645702232e-15 0)
(3 -1.322377361e-15 0)
(3 -1.986098462e-15 0)
(3 -1.550079666e-15 0)
(3 -1.701344616e-15 0)
(3 -1.40467343e-15 0)
(3 -2.114819874e-15 0)
(3 -1.151712382e-15 0)
(3 -5.897949661e-16 0)
(3 -8.537906312e-16 0)
(3 -4.262574553e-16 0)
(3 1.493982253e-16 0)
(3 6.607222398e-16 0)
(3 1.142990098e-16 0)
(3 -5.38842491e-16 0)
(3 1.12025192e-15 0)
(3 2.251041693e-15 0)
(3 2.511163686e-15 0)
(3 2.139858677e-15 0)
(3 1.612122176e-15 0)
(3 5.56425056e-16 0)
(3 5.934479314e-16 0)
(3 1.365820165e-15 0)
(3 -9.222526159e-17 0)
(3 -2.637374958e-16 0)
(3 1.231792901e-15 0)
(3 9.963057466e-16 0)
(3 1.590792778e-15 0)
(3 2.257445446e-15 0)
(3 1.88757633e-15 0)
(3 2.676294865e-15 0)
(3 3.31243896e-15 0)
(3 1.461173298e-15 0)
(3 1.367329911e-15 0)
(3 1.712279885e-15 0)
(3 1.946338312e-15 0)
(3 2.37960193e-15 0)
(3 3.154805333e-15 0)
(3 5.771171402e-15 0)
(3 5.994618337e-15 0)
(3 4.942244836e-15 0)
(3 2.711725013e-15 0)
(3 1.825739177e-15 0)
(3 6.572487612e-16 0)
(3 -5.003454773e-16 0)
(3 -7.005621273e-16 0)
(3 -2.621539211e-15 0)
(3 -2.75010731e-15 0)
(3 -2.786443283e-15 0)
(3 -1.610107328e-15 0)
(3 -1.48368426e-15 0)
(3 -9.388332525e-16 0)
(3 -1.920483983e-15 0)
(3 -3.172123833e-15 0)
(3 -1.594987708e-15 0)
(3 -2.254274841e-15 0)
(3 -2.296805578e-15 0)
(3 -2.586869891e-15 0)
(3 -2.639975487e-15 0)
(3 -1.458059203e-15 0)
(3 -8.284323633e-16 0)
(3 -1.46888535e-15 0)
(3 -1.626391646e-15 0)
(3 -1.330144735e-15 0)
(3 -1.175251208e-15 0)
(3 -6.998562542e-16 0)
(3 -1.600440715e-15 0)
(3 -2.672686272e-15 0)
(3 -5.953079716e-15 0)
(3 -6.604830872e-15 0)
(3 -5.795133843e-15 0)
(3 -5.57504856e-15 0)
(3 -5.22662327e-15 0)
(3 -3.457796929e-15 0)
(3 2.067241357e-15 0)
(3 5.105156027e-15 0)
(3 8.113338986e-15 0)
(3 1.037844981e-14 0)
(3 9.464060583e-15 0)
(3 5.802104984e-15 0)
(3 4.510546977e-15 0)
(3 3.498820477e-15 0)
(3 2.058307605e-15 0)
(3 3.272617581e-15 0)
(3 2.656084454e-15 0)
(3 2.598716793e-15 0)
(3 1.498521955e-15 0)
(3 4.206910374e-16 0)
(3 1.710737471e-15 0)
(3 1.98631879e-15 0)
(3 2.083463414e-15 0)
(3 1.348792699e-15 0)
(3 3.644232191e-16 0)
(3 4.473552778e-16 0)
(3 3.383950878e-16 0)
(3 -8.038908474e-16 0)
(3 -8.267552409e-16 0)
(3 -8.249641976e-16 0)
(3 -2.018534996e-15 0)
(3 -1.781005736e-15 0)
(3 -1.396342966e-15 0)
(3 -2.256370361e-15 0)
(3 -2.042869006e-15 0)
(3 -2.610667556e-15 0)
(3 -3.260022138e-15 0)
(3 -3.51331697e-15 0)
(3 -3.243787065e-15 0)
(3 -2.992927191e-15 0)
(3 -2.566985366e-15 0)
(3 -1.805577199e-15 0)
(3 -3.19931063e-15 0)
(3 -2.985370431e-15 0)
(3 -2.833785423e-15 0)
(3 -3.729509105e-15 0)
(3 -2.015116333e-15 0)
(3 -2.594016976e-16 0)
(3 7.292376073e-16 0)
(3 -6.312086244e-16 0)
(3 2.167837318e-16 0)
(3 1.730735651e-15 0)
(3 6.829161962e-16 0)
(3 6.49074819e-16 0)
(3 3.550526678e-16 0)
(3 1.11215959e-15 0)
(3 6.082205768e-16 0)
(3 -9.148764218e-16 0)
(3 -1.855214543e-16 0)
(3 4.632408032e-16 0)
(3 9.029275035e-16 0)
(3 1.098256266e-15 0)
(3 2.439306279e-15 0)
(3 4.132567978e-15 0)
(3 2.804123866e-15 0)
(3 3.278308596e-15 0)
(3 3.321613616e-15 0)
(3 2.523850309e-15 0)
(3 1.830093163e-15 0)
(3 2.520377498e-15 0)
(3 3.446871679e-15 0)
(3 2.699556104e-15 0)
(3 5.933340519e-16 0)
(3 -3.64057092e-16 0)
(3 -3.859391827e-16 0)
(3 1.925409664e-15 0)
(3 2.572709552e-15 0)
(3 3.079869603e-15 0)
(3 1.533840906e-15 0)
(3 -8.097120486e-16 0)
(3 -1.106413231e-15 0)
(3 -2.169138476e-15 0)
(3 -2.847587993e-15 0)
(3 -4.80923436e-15 0)
(3 -5.98352173e-15 0)
(3 -3.616953677e-15 0)
(3 -3.109358911e-15 0)
(3 -2.95174825e-15 0)
(3 -1.182642686e-15 0)
(3 -1.164790622e-15 0)
(3 -2.068930685e-15 0)
(3 -2.858908885e-15 0)
(3 -3.108761596e-15 0)
(3 -1.682547688e-15 0)
(3 -2.66008445e-15 0)
(3 -8.941321929e-16 0)
(3 -2.924041724e-16 0)
(3 1.600896097e-15 0)
(3 4.146989424e-15 0)
(3 2.821854643e-15 0)
(3 6.429147991e-16 0)
(3 -9.714897092e-16 0)
(3 -3.796132097e-15 0)
(3 -4.214348129e-15 0)
(3 -4.078687758e-15 0)
(3 -3.885774637e-15 0)
(3 4.904386077e-16 0)
(3 5.412717398e-15 0)
(3 6.455873561e-15 0)
(3 7.366507672e-15 0)
(3 7.252051564e-15 0)
(3 3.814045876e-15 0)
(3 2.427022173e-15 0)
(3 -1.22044505e-15 0)
(3 -2.268986073e-15 0)
(3 -1.064948033e-15 0)
(3 3.403969274e-16 0)
(3 4.323651058e-16 0)
(3 -3.627958948e-16 0)
(3 1.019686004e-15 0)
(3 2.401454399e-15 0)
(3 2.667434206e-15 0)
(3 1.581606768e-15 0)
(3 -4.678509258e-16 0)
(3 -5.662621562e-17 0)
(3 4.81507365e-16 0)
(3 3.065182573e-16 0)
(3 6.287529248e-16 0)
(3 6.317072279e-16 0)
(3 8.78288833e-16 0)
(3 7.299838052e-17 0)
(3 -2.002494052e-16 0)
(3 -4.438116163e-16 0)
(3 -3.175709865e-15 0)
(3 -3.96646129e-15 0)
(3 -2.873248837e-15 0)
(3 -2.904055188e-15 0)
(3 -1.855743022e-15 0)
(3 -2.405152251e-16 0)
(3 6.112793182e-17 0)
(3 -4.197841487e-16 0)
(3 -1.744952297e-18 0)
(3 2.09189498e-16 0)
(3 -1.470386989e-16 0)
(3 -2.00579377e-15 0)
(3 -2.835054025e-15 0)
(3 -9.853610766e-16 0)
(3 -1.192803327e-15 0)
(3 -6.290172764e-16 0)
(3 -1.002923345e-15 0)
(3 4.35899304e-16 0)
(3 6.971395027e-16 0)
(3 1.097682707e-15 0)
(3 1.328445567e-15 0)
(3 1.197144878e-15 0)
(3 1.947819492e-15 0)
(3 2.343636902e-15 0)
(3 3.014784159e-15 0)
(3 4.137103903e-15 0)
(3 3.521133477e-15 0)
(3 2.70331187e-15 0)
(3 2.63503483e-15 0)
(3 1.91427744e-15 0)
(3 2.161249852e-15 0)
(3 2.381762497e-15 0)
(3 2.718333827e-15 0)
(3 1.163160639e-15 0)
(3 -1.233540792e-17 0)
(3 -3.067365859e-16 0)
(3 4.070493673e-16 0)
(3 -1.738691276e-16 0)
(3 -2.205399067e-15 0)
(3 -1.209098027e-15 0)
(3 7.741891508e-16 0)
(3 2.276650153e-15 0)
(3 4.004418458e-15 0)
(3 4.22089624e-15 0)
(3 3.397106517e-15 0)
(3 2.127138495e-15 0)
(3 2.997723547e-16 0)
(3 -8.690854893e-16 0)
(3 -2.627988969e-15 0)
(3 -3.246464009e-15 0)
(3 -3.418789202e-15 0)
(3 -4.211483385e-15 0)
(3 -4.215019648e-15 0)
(3 -5.902885121e-15 0)
(3 -4.250937914e-15 0)
(3 -1.994055063e-15 0)
(3 7.655082939e-17 0)
(3 -4.546550494e-16 0)
(3 -1.94333284e-15 0)
(3 -3.284942532e-15 0)
(3 -1.548302911e-15 0)
(3 2.539928087e-16 0)
(3 7.994461566e-16 0)
(3 1.609960466e-17 0)
(3 -3.474562743e-16 0)
(3 3.983465084e-16 0)
(3 1.988847677e-15 0)
(3 3.503562732e-15 0)
(3 2.531998531e-15 0)
(3 1.062842089e-15 0)
(3 -1.118743314e-15 0)
(3 -1.496252973e-15 0)
(3 -1.475022378e-15 0)
(3 2.429865767e-16 0)
(3 1.912903357e-15 0)
(3 2.042733013e-15 0)
(3 2.404721423e-15 0)
(3 2.622819615e-15 0)
(3 6.058811486e-16 0)
(3 -1.990259862e-15 0)
(3 -4.299269355e-15 0)
(3 -5.629470354e-15 0)
(3 -4.515349812e-15 0)
(3 -1.065368557e-15 0)
(3 1.337906499e-15 0)
(3 1.530324999e-15 0)
(3 1.777826342e-15 0)
(3 2.167726392e-15 0)
(3 2.0244226e-15 0)
(3 1.795433287e-16 0)
(3 2.243004282e-16 0)
(3 -3.282707426e-16 0)
(3 -2.796209553e-18 0)
(3 2.06939188e-16 0)
(3 2.677344329e-16 0)
(3 6.158923437e-16 0)
(3 2.697956001e-16 0)
(3 -1.291504248e-17 0)
(3 -6.547848594e-16 0)
(3 -4.2297312e-16 0)
(3 -1.140432007e-15 0)
(3 -2.416795136e-15 0)
(3 -1.980009135e-15 0)
(3 -1.323853202e-15 0)
(3 -4.210218537e-16 0)
(3 1.887886981e-15 0)
(3 3.562068238e-15 0)
(3 1.698866173e-15 0)
(3 5.832544948e-17 0)
(3 2.113851557e-15 0)
(3 1.193258851e-15 0)
(3 -3.924809629e-16 0)
(3 -1.367517213e-15 0)
(3 -1.412722718e-15 0)
(3 -2.640253676e-15 0)
(3 -3.627893413e-15 0)
(3 -1.860192507e-15 0)
(3 -2.298503966e-15 0)
(3 -3.696340642e-15 0)
(3 -2.179422127e-15 0)
(3 -2.836348023e-15 0)
(3 -2.139890129e-15 0)
(3 -8.833295135e-16 0)
(3 1.279065807e-15 0)
(3 4.62450158e-15 0)
(3 5.355645544e-15 0)
(3 4.511631604e-15 0)
(3 3.692748479e-15 0)
(3 1.495592067e-15 0)
(3 6.934924147e-16 0)
(3 -6.301348782e-17 0)
(3 2.445687699e-15 0)
(3 4.120939215e-15 0)
(3 2.889462649e-15 0)
(3 2.398026656e-15 0)
(3 4.389705519e-16 0)
(3 6.968378779e-16 0)
(3 -8.342005486e-16 0)
(3 -3.745533333e-16 0)
(3 3.5527244e-16 0)
(3 1.545055625e-15 0)
(3 2.760978223e-15 0)
(3 1.924721929e-15 0)
(3 7.050936382e-16 0)
(3 -7.761970425e-16 0)
(3 -7.852600557e-16 0)
(3 -7.325842069e-16 0)
(3 -3.123069424e-15 0)
(3 -2.850467047e-15 0)
(3 -2.556909973e-15 0)
(3 -3.796749523e-15 0)
(3 -3.663802799e-15 0)
(3 -3.609479087e-15 0)
(3 -3.144787014e-15 0)
(3 -3.250560457e-15 0)
(3 -2.256197294e-15 0)
(3 -5.971030662e-16 0)
(3 -1.203806832e-15 0)
(3 -9.413462506e-16 0)
(3 3.480123368e-16 0)
(3 2.316875485e-15 0)
(3 4.366199026e-15 0)
(3 4.083352433e-15 0)
(3 2.870608699e-15 0)
(3 7.997438103e-16 0)
(3 -1.736155521e-15 0)
(3 -8.131295828e-16 0)
(3 2.206072236e-15 0)
(3 2.097598128e-15 0)
(3 2.391760413e-15 0)
(3 2.666625405e-15 0)
(3 2.914398987e-15 0)
(3 3.114777829e-15 0)
(3 7.294543432e-16 0)
(3 -4.905975209e-16 0)
(3 -4.013319421e-16 0)
(3 -7.503355558e-16 0)
(3 -1.503413543e-15 0)
(3 -1.597762511e-15 0)
(3 -2.489607139e-15 0)
(3 -5.50435548e-16 0)
(3 -4.678301227e-16 0)
(3 -6.848899773e-16 0)
(3 3.64494327e-16 0)
(3 2.134032244e-15 0)
(3 4.132391385e-15 0)
(3 3.106138732e-15 0)
(3 2.753858573e-15 0)
(3 9.580690013e-16 0)
(3 1.145030765e-15 0)
(3 1.335308269e-15 0)
(3 1.123488434e-15 0)
(3 -4.722171389e-16 0)
(3 -2.699707966e-16 0)
(3 -1.022599031e-15 0)
(3 -1.452106392e-15 0)
(3 -1.914268835e-16 0)
(3 -2.880806156e-16 0)
(3 -9.490523597e-16 0)
(3 -1.302260853e-15 0)
(3 -9.178791781e-16 0)
(3 -1.719386664e-16 0)
(3 -1.363042379e-15 0)
(3 -6.405017592e-16 0)
(3 -7.316292533e-17 0)
(3 1.041993444e-15 0)
(3 1.148461492e-15 0)
(3 1.506333908e-15 0)
(3 -5.230199084e-16 0)
(3 -1.032475137e-15 0)
(3 -1.217317284e-15 0)
(3 -1.424125549e-15 0)
(3 -1.550718595e-15 0)
(3 -2.297225596e-15 0)
(3 -1.971752749e-15 0)
(3 -2.51009548e-15 0)
(3 -2.080206375e-15 0)
(3 -2.808258356e-15 0)
(3 -3.156314042e-15 0)
(3 -1.71251556e-15 0)
(3 -1.805081917e-15 0)
(3 -2.124588725e-15 0)
(3 -1.054780704e-15 0)
(3 1.489729036e-15 0)
(3 2.126114741e-15 0)
(3 2.384206581e-15 0)
(3 5.118969223e-16 0)
(3 -7.486014576e-16 0)
(3 -1.637389339e-15 0)
(3 1.5380829e-16 0)
(3 2.103264581e-15 0)
(3 2.727252963e-15 0)
(3 3.639041314e-15 0)
(3 5.524994474e-15 0)
(3 4.665420395e-15 0)
(3 2.070740471e-15 0)
(3 3.339037909e-16 0)
(3 4.325585586e-16 0)
(3 2.583220179e-15 0)
(3 3.735453619e-15 0)
(3 2.958794858e-15 0)
(3 3.637169134e-15 0)
(3 2.930906435e-15 0)
(3 1.748158139e-15 0)
(3 2.9810068e-16 0)
(3 -7.443132311e-17 0)
(3 3.310062673e-16 0)
(3 -8.257467236e-16 0)
(3 -9.176306416e-16 0)
(3 -9.823707812e-16 0)
(3 -1.312252516e-15 0)
(3 -1.756129547e-15 0)
(3 -1.377961466e-15 0)
(3 -3.032598958e-16 0)
(3 7.355348414e-16 0)
(3 6.805798487e-16 0)
(3 -7.406141748e-16 0)
(3 -7.313210257e-16 0)
(3 -5.270422799e-17 0)
(3 4.211713304e-15 0)
(3 7.552969213e-15 0)
(3 7.959919193e-15 0)
(3 5.046399416e-15 0)
(3 4.78572847e-15 0)
(3 4.460614744e-15 0)
(3 6.468183004e-16 0)
(3 1.580857581e-16 0)
(3 4.456870803e-16 0)
(3 1.011253334e-15 0)
(3 2.162846074e-15 0)
(3 3.346936192e-15 0)
(3 4.167143026e-15 0)
(3 5.642908097e-15 0)
(3 1.770683428e-15 0)
(3 -2.829758534e-15 0)
(3 -2.965588989e-15 0)
(3 -3.793427184e-15 0)
(3 -5.429292361e-15 0)
(3 -4.861865756e-15 0)
(3 -3.160150437e-15 0)
(3 -2.729001666e-15 0)
(3 -1.364042535e-15 0)
(3 -1.997088937e-15 0)
(3 -1.747832351e-15 0)
(3 -2.831370265e-16 0)
(3 9.412640501e-16 0)
(3 1.881757526e-15 0)
(3 1.203532128e-15 0)
(3 1.535124067e-15 0)
(3 2.749954909e-15 0)
(3 2.312249726e-15 0)
(3 1.349335092e-15 0)
(3 -2.598236573e-16 0)
(3 -2.532864099e-16 0)
(3 7.730929504e-16 0)
(3 1.238612231e-15 0)
(3 1.311424338e-15 0)
(3 2.991926029e-15 0)
(3 2.056796821e-15 0)
(3 8.507399792e-16 0)
(3 1.251963904e-15 0)
(3 1.001511428e-15 0)
(3 5.155843282e-16 0)
(3 1.283926344e-15 0)
(3 2.012672535e-15 0)
(3 -2.265161953e-16 0)
(3 -9.143047143e-16 0)
(3 -4.912704554e-16 0)
(3 -1.000577392e-15 0)
(3 -2.157778401e-15 0)
(3 -3.836651856e-15 0)
(3 -2.429574263e-15 0)
(3 -2.94894101e-15 0)
(3 -3.441522128e-15 0)
(3 -3.052878418e-15 0)
(3 -1.907867701e-15 0)
(3 -1.239426455e-15 0)
(3 4.551115009e-16 0)
(3 -8.941713491e-16 0)
(3 -2.031135587e-15 0)
(3 -2.440598085e-15 0)
(3 -2.784804675e-15 0)
(3 -3.722158148e-15 0)
(3 -1.025412609e-15 0)
(3 -2.186284304e-16 0)
(3 -9.001225999e-17 0)
(3 1.870488822e-16 0)
(3 -1.250592926e-16 0)
(3 8.38598483e-17 0)
(3 1.790440856e-15 0)
(3 4.165239052e-15 0)
(3 3.694523098e-15 0)
(3 3.126329936e-15 0)
(3 1.759742966e-15 0)
(3 1.697389108e-15 0)
(3 2.543625468e-16 0)
(3 -1.6158297e-15 0)
(3 -1.010001141e-15 0)
(3 2.894444493e-16 0)
(3 4.251586331e-16 0)
(3 2.600972395e-16 0)
(3 6.764176757e-16 0)
(3 1.206376654e-15 0)
(3 1.503380788e-15 0)
(3 2.407359141e-15 0)
(3 2.651760168e-15 0)
(3 1.209759294e-15 0)
(3 1.436515035e-15 0)
(3 2.02842092e-15 0)
(3 3.275394997e-16 0)
(3 7.32032112e-16 0)
(3 1.725784181e-15 0)
(3 1.409628447e-15 0)
(3 1.002318439e-15 0)
(3 1.473296415e-15 0)
(3 3.723775675e-16 0)
(3 -1.084248348e-15 0)
(3 -1.258590601e-15 0)
(3 3.927754052e-16 0)
(3 1.560685215e-15 0)
(3 7.392110467e-16 0)
(3 1.579482168e-15 0)
(3 2.61763511e-15 0)
(3 5.652590013e-15 0)
(3 8.235695438e-15 0)
(3 6.45141102e-15 0)
(3 4.744141973e-15 0)
(3 4.625437385e-15 0)
(3 4.967698331e-15 0)
(3 3.891993912e-15 0)
(3 2.976739851e-15 0)
(3 4.668103286e-15 0)
(3 5.149975129e-15 0)
(3 -1.71392887e-16 0)
(3 -1.705893188e-15 0)
(3 -3.737684941e-15 0)
(3 -6.633822798e-15 0)
(3 -7.91950765e-15 0)
(3 -5.470468603e-15 0)
(3 -3.918034186e-15 0)
(3 -3.750950726e-15 0)
(3 -5.262051209e-15 0)
(3 -5.639772079e-15 0)
(3 -4.86469508e-15 0)
(3 -2.901660444e-15 0)
(3 -1.567551547e-15 0)
(3 4.941489743e-16 0)
(3 1.450416714e-15 0)
(3 1.784881258e-15 0)
(3 1.682990746e-15 0)
(3 2.22481954e-15 0)
(3 3.039404253e-15 0)
(3 1.997618029e-17 0)
(3 7.939137114e-17 0)
(3 1.914444496e-15 0)
(3 2.53337152e-15 0)
(3 2.256880694e-15 0)
(3 2.177406336e-15 0)
(3 2.268650955e-15 0)
(3 1.698244417e-15 0)
(3 2.420164454e-15 0)
(3 3.243312257e-15 0)
(3 3.769622149e-15 0)
(3 3.358187878e-15 0)
(3 1.794043882e-15 0)
(3 1.306932607e-16 0)
(3 1.047848882e-16 0)
(3 -1.972690458e-16 0)
(3 2.632764157e-16 0)
(3 4.069436861e-16 0)
(3 -3.401587528e-16 0)
(3 -5.033783552e-16 0)
(3 -5.763832202e-16 0)
(3 -1.044912734e-15 0)
(3 -1.399225935e-15 0)
(3 -7.499853041e-16 0)
(3 2.675056409e-16 0)
(3 -4.498200893e-16 0)
(3 -7.07128339e-16 0)
(3 -2.575954007e-15 0)
(3 -2.53751456e-15 0)
(3 -1.583247009e-15 0)
(3 -3.460527326e-16 0)
(3 4.866937066e-16 0)
(3 7.721409145e-16 0)
(3 2.859194765e-16 0)
(3 2.256858357e-15 0)
(3 1.287858479e-15 0)
(3 3.647006691e-16 0)
(3 1.221553273e-15 0)
(3 2.002441446e-15 0)
(3 2.997633461e-15 0)
(3 3.575184423e-15 0)
(3 1.132363255e-15 0)
(3 1.711608278e-15 0)
(3 1.516260688e-15 0)
(3 7.080857185e-16 0)
(3 -1.213592564e-16 0)
(3 -1.355604375e-15 0)
(3 -2.621253925e-15 0)
(3 -1.724443527e-15 0)
(3 -1.594321971e-15 0)
(3 -1.383233385e-15 0)
(3 -7.842594399e-16 0)
(3 1.944086486e-15 0)
(3 2.03160184e-15 0)
(3 9.586537625e-16 0)
(3 6.277616386e-16 0)
(3 -8.75134636e-17 0)
(3 -9.413189033e-16 0)
(3 -3.113502647e-16 0)
(3 1.873715396e-15 0)
(3 1.400002797e-15 0)
(3 1.61749222e-15 0)
(3 1.134285178e-15 0)
(3 -5.420952223e-16 0)
(3 -1.032503117e-15 0)
(3 -6.7361256e-16 0)
(3 -7.02636139e-16 0)
(3 -4.544502193e-16 0)
(3 -1.026149906e-15 0)
(3 -1.43095621e-15 0)
(3 -8.730343933e-16 0)
(3 8.313387653e-16 0)
(3 3.051169867e-15 0)
(3 6.277846234e-15 0)
(3 7.363912469e-15 0)
(3 8.936179758e-15 0)
(3 7.74045065e-15 0)
(3 6.624716405e-15 0)
(3 7.824067028e-15 0)
(3 6.996974401e-15 0)
(3 3.756677679e-15 0)
(3 -8.991928572e-17 0)
(3 -2.817984199e-15 0)
(3 -5.528912942e-15 0)
(3 -6.925282549e-15 0)
(3 -5.562590843e-15 0)
(3 -5.818958053e-15 0)
(3 -5.050795571e-15 0)
(3 -5.126077628e-15 0)
(3 -5.564024859e-15 0)
(3 -4.293502655e-15 0)
(3 -3.611285511e-15 0)
(3 -3.041755492e-15 0)
(3 -1.132441275e-15 0)
(3 -1.076597298e-15 0)
(3 1.905099241e-15 0)
(3 2.770056743e-15 0)
(3 1.650325339e-15 0)
(3 1.777291422e-15 0)
(3 1.940313503e-15 0)
(3 7.850719006e-17 0)
(3 7.209241291e-16 0)
(3 5.357540346e-16 0)
(3 2.476450108e-16 0)
(3 -3.963647761e-16 0)
(3 -1.07114819e-15 0)
(3 1.792400718e-15 0)
(3 2.803826562e-15 0)
(3 1.772007027e-15 0)
(3 9.374285048e-16 0)
(3 1.470876773e-15 0)