/*--------------------------------*- C++ -*----------------------------------*\
  =========                 |
  \\      /  F ield         | OpenFOAM: The Open Source CFD Toolbox
   \\    /   O peration     | Website:  https://openfoam.org
    \\  /    A nd           | Version:  7
     \\/     M anipulation  |
\*---------------------------------------------------------------------------*/
FoamFile
{
    version     2.0;
    format      ascii;
    class       volScalarField;
    location    "3.9";
    object      T;
}
// * * * * * * * * * * * * * * * * * * * * * * * * * * * * * * * * * * * * * //

dimensions      [0 0 0 1 0 0 0];

internalField   nonuniform List<scalar> 
22
(
1.000272872
1.00245528
1.012212232
1.029602984
1.00216152
1.009847625
1.023663786
1.034036393
1.025905187
1.032758434
1.035190904
1.03920109
1.038244118
1.03259803
1.040364935
1.033858447
1.015567052
1.034932434
1.011471065
0.9874959967
1.006774263
0.9793333792
)
;

boundaryField
{
    inlet
    {
        type            fixedValue;
        value           nonuniform 0();
    }
    outlet
    {
        type            inletOutlet;
        inletValue      nonuniform 0();
        value           nonuniform 0();
    }
    bottom
    {
        type            slip;
    }
    top
    {
        type            slip;
    }
    obstacle
    {
        type            zeroGradient;
    }
    defaultFaces
    {
        type            empty;
    }
    procBoundary4to3
    {
        type            processor;
        value           nonuniform List<scalar> 6(1.000010365 1.000158912 1.00974135 1.00974135 1.025268199 1.04039236);
    }
    procBoundary4to5
    {
        type            processor;
        value           nonuniform List<scalar> 6(1.048065688 1.043074608 1.032355416 1.018171466 0.9945191021 0.9802094312);
    }
    procBoundary4to9
    {
        type            processor;
        value           nonuniform List<scalar> 2(1.04742013 1.038798281);
    }
    procBoundary4to10
    {
        type            processor;
        value           nonuniform List<scalar> 4(0.970895962 0.9774912743 0.970895962 0.9743900118);
    }
}


// ************************************************************************* //
