/*--------------------------------*- C++ -*----------------------------------*\
  =========                 |
  \\      /  F ield         | OpenFOAM: The Open Source CFD Toolbox
   \\    /   O peration     | Website:  https://openfoam.org
    \\  /    A nd           | Version:  7
     \\/     M anipulation  |
\*---------------------------------------------------------------------------*/
FoamFile
{
    version     2.0;
    format      ascii;
    class       volScalarField;
    location    "4.6";
    object      T;
}
// * * * * * * * * * * * * * * * * * * * * * * * * * * * * * * * * * * * * * //

dimensions      [0 0 0 1 0 0 0];

internalField   nonuniform List<scalar> 
22
(
1.040587493
1.04448893
1.045740487
1.034279768
1.040635914
1.041424499
1.033011379
1.027554522
1.038037627
1.038085708
1.029842669
1.016451631
1.035259654
1.036368221
1.02788439
0.9980575771
1.016872129
1.022607449
0.9654362812
0.9793971178
1.002179256
0.9774902021
)
;

boundaryField
{
    inlet
    {
        type            fixedValue;
        value           nonuniform 0();
    }
    outlet
    {
        type            inletOutlet;
        inletValue      nonuniform 0();
        value           nonuniform 0();
    }
    bottom
    {
        type            slip;
    }
    top
    {
        type            slip;
    }
    obstacle
    {
        type            zeroGradient;
    }
    defaultFaces
    {
        type            empty;
    }
    procBoundary28to21
    {
        type            processor;
        value           nonuniform List<scalar> 2(1.015186282 0.9985879939);
    }
    procBoundary28to22
    {
        type            processor;
        value           nonuniform List<scalar> 3(1.047119023 1.047753296 1.048630124);
    }
    procBoundary28to27
    {
        type            processor;
        value           nonuniform List<scalar> 6(0.9806515249 0.9586008813 0.9690407006 0.9690407006 0.960354041 0.999337091);
    }
    procBoundary28to29
    {
        type            processor;
        value           nonuniform List<scalar> 7(1.036983288 1.036983288 1.032901099 1.027968015 1.024687184 1.025280758 1.013395674);
    }
    procBoundary28to34
    {
        type            processor;
        value           nonuniform List<scalar> 4(0.9743926907 0.9769732963 0.9743926907 1.006775763);
    }
}


// ************************************************************************* //
