/*--------------------------------*- C++ -*----------------------------------*\
  =========                 |
  \\      /  F ield         | OpenFOAM: The Open Source CFD Toolbox
   \\    /   O peration     | Website:  https://openfoam.org
    \\  /    A nd           | Version:  7
     \\/     M anipulation  |
\*---------------------------------------------------------------------------*/
FoamFile
{
    version     2.0;
    format      ascii;
    class       volScalarField;
    location    "2.7";
    object      T;
}
// * * * * * * * * * * * * * * * * * * * * * * * * * * * * * * * * * * * * * //

dimensions      [0 0 0 1 0 0 0];

internalField   nonuniform List<scalar> 
2222
(
1.369662041
1.357970349
1.346819926
1.336404339
1.32659459
1.317206396
1.308169525
1.299374889
1.290693428
1.281984801
1.273103777
1.263921107
1.254463767
1.245034335
1.236077339
1.22769116
1.220075197
1.213334689
1.206904263
1.20026378
1.193349317
1.18604122
1.178433321
1.170814455
1.163331304
1.15575064
1.148274204
1.141377129
1.135159054
1.128988605
1.123862813
1.115610258
1.37241635
1.361245778
1.349940286
1.33922397
1.329292213
1.319987751
1.311108484
1.30245428
1.293837158
1.285096913
1.276125745
1.266875858
1.25740038
1.247913325
1.238893692
1.230570153
1.222872835
1.215929215
1.209490011
1.20289246
1.196058661
1.188908579
1.18143185
1.17372756
1.166041506
1.158533793
1.151036261
1.144005623
1.137809741
1.131749102
1.126651596
1.118248131
1.370048815
1.358339111
1.346830263
1.335962781
1.326009666
1.316792405
1.308038338
1.299546891
1.291124719
1.282518615
1.273563775
1.264301023
1.254917698
1.245490838
1.236409534
1.228283304
1.220781882
1.213559198
1.207096717
1.200512388
1.193614675
1.186686199
1.17953033
1.171928369
1.163926808
1.156464621
1.1492661
1.141919468
1.13574853
1.129763346
1.124696121
1.116322013
1.371128826
1.359407613
1.347843068
1.336774748
1.326532593
1.317127554
1.308354886
1.299917597
1.29158054
1.283104128
1.274254103
1.264965353
1.255431142
1.245940355
1.236742357
1.228351146
1.2210641
1.214074764
1.20730624
1.201044579
1.194347291
1.187514553
1.180458828
1.173038158
1.165066656
1.156926614
1.149719972
1.142372151
1.135880477
1.130417714
1.125450258
1.117044983
1.373525189
1.361639641
1.349700892
1.338104355
1.327456961
1.318037231
1.309587306
1.30151053
1.293298266
1.284687254
1.275587744
1.266048353
1.256285846
1.24677237
1.237918013
1.22966855
1.222128142
1.214983504
1.20764331
1.201661255
1.196281127
1.189820804
1.182888885
1.175691994
1.167929591
1.15925149
1.151073245
1.143962914
1.136843551
1.131488247
1.127434146
1.119250934
1.376524432
1.364300631
1.352129233
1.340414825
1.329730233
1.320250909
1.311619052
1.303315178
1.294971477
1.286343786
1.277292061
1.267887006
1.258311225
1.24874852
1.239529852
1.23094562
1.222994952
1.215820554
1.209079519
1.201798674
1.194373932
1.187387935
1.180350885
1.173285148
1.166241093
1.158911564
1.15137898
1.145567219
1.139305205
1.131825551
1.125861685
1.117068139
1.380271891
1.36789642
1.355644085
1.343838007
1.33288534
1.323098714
1.314335947
1.306032842
1.29769491
1.289049969
1.279919507
1.270302449
1.260481565
1.250817345
1.241539608
1.232841195
1.224824444
1.217350334
1.21029044
1.20314457
1.195936111
1.188614152
1.181216164
1.173895085
1.1667424
1.160017295
1.153180752
1.145349885
1.138336042
1.131982547
1.126413199
1.117487718
1.384218138
1.371635446
1.359371818
1.347707711
1.336828558
1.327001469
1.318126292
1.309575411
1.300867959
1.291868733
1.282556744
1.272912823
1.263126025
1.253544354
1.244322585
1.235589109
1.227447354
1.219836639
1.212483795
1.205072725
1.197602541
1.190124965
1.182914068
1.175831415
1.168433857
1.1611278
1.154028642
1.146575551
1.139457202
1.132828647
1.127599282
1.11886439
1.387728914
1.375179502
1.363142265
1.351790573
1.340996976
1.330855187
1.32163925
1.31294162
1.304138879
1.295027186
1.285746701
1.276338619
1.266678059
1.256931923
1.247485771
1.238596114
1.230268559
1.222333082
1.214614634
1.207201003
1.200159692
1.193055144
1.185449017
1.177655327
1.169913374
1.162464204
1.155489128
1.148691992
1.141849809
1.135140703
1.12949498
1.120031105
1.390872051
1.378377785
1.366459519
1.355248204
1.344559747
1.33440053
1.325093008
1.316325728
1.307403628
1.298184593
1.288787933
1.279335012
1.269733611
1.260038898
1.250657499
1.241844466
1.233413601
1.225281177
1.217604965
1.210271225
1.202939923
1.195430142
1.187602691
1.179732511
1.172415222
1.165281684
1.157938533
1.150845616
1.144094175
1.13732439
1.131474134
1.12179229
1.393221664
1.380984297
1.369232072
1.358161446
1.347679012
1.337616155
1.328022737
1.319081656
1.310185102
1.300976987
1.291515694
1.282153001
1.273037831
1.263939989
1.254741968
1.245665176
1.236983067
1.228732148
1.220838309
1.213108387
1.205403992
1.1979173
1.190672687
1.183287965
1.175461348
1.167613797
1.160132105
1.153315643
1.146995269
1.140349572
1.134421851
1.124381914
1.394862092
1.383459125
1.372092666
1.361205401
1.350876455
1.340914201
1.331192058
1.321884408
1.312615412
1.303221281
1.293882966
1.284495551
1.275207313
1.266416998
1.257933164
1.249425427
1.240967456
1.2327908
1.224708686
1.21655414
1.208458271
1.200705917
1.193104116
1.185444583
1.177642185
1.170026655
1.162987796
1.156407559
1.150035531
1.143569389
1.137690941
1.127203054
1.395106065
1.385392835
1.375388079
1.364898068
1.354718585
1.344872557
1.334897048
1.324308863
1.314211285
1.304845247
1.29543477
1.28566621
1.276121398
1.267507901
1.259733218
1.252323458
1.244642327
1.236636231
1.22842734
1.219733917
1.211191614
1.203090335
1.195117135
1.187276291
1.179819446
1.172709109
1.165586076
1.158585152
1.152021745
1.145949765
1.14061165
1.130147472
1.395424127
1.383958709
1.372712884
1.362142496
1.352071933
1.342389852
1.332698338
1.323213683
1.314283653
1.30534821
1.295933886
1.286433146
1.277114902
1.267995088
1.259106498
1.25062393
1.242618087
1.234871655
1.227236062
1.219886118
1.21252756
1.204834939
1.196891031
1.189008336
1.181380135
1.174007541
1.166893071
1.160304212
1.154289984
1.14774692
1.141679244
1.131637051
1.395062067
1.384260954
1.373402119
1.362944713
1.3528767
1.343194784
1.333596912
1.324119596
1.315001178
1.305996217
1.296699655
1.28734677
1.277916724
1.268611073
1.259798383
1.251566222
1.243761807
1.236170749
1.228789884
1.221725094
1.214519801
1.2068229
1.198814329
1.19083086
1.183105061
1.175722012
1.168826105
1.162489863
1.156296506
1.149759307
1.143994984
1.134219856
1.394346265
1.384596769
1.375622708
1.3656308
1.355547277
1.345788141
1.336255736
1.326590143
1.316592123
1.306872359
1.298055783
1.289053057
1.279602055
1.270419059
1.261878587
1.253969776
1.24644192
1.239057982
1.231817318
1.22465996
1.217217877
1.209352559
1.201250674
1.193201201
1.18547879
1.178233485
1.171500383
1.165035763
1.158289494
1.151715496
1.146416821
1.136921346
1.394497462
1.383404444
1.372867202
1.362708865
1.352643694
1.342777919
1.333180055
1.323725888
1.314230557
1.304685742
1.294882431
1.285551624
1.276548629
1.267483535
1.259003452
1.251239365
1.243950346
1.236734198
1.229510699
1.222318952
1.214892012
1.207040903
1.198953149
1.190915766
1.183230528
1.176031286
1.169258478
1.162793357
1.15659378
1.15030788
1.144743958
1.134971332
1.392967378
1.382503437
1.37215607
1.362121324
1.352205184
1.342433668
1.33285785
1.323577673
1.314094875
1.304058069
1.294036723
1.284834946
1.276349321
1.267853286
1.259518818
1.251759315
1.244532498
1.237395593
1.230145199
1.222858368
1.215407831
1.207538756
1.199445484
1.191445322
1.183834666
1.176716034
1.169997192
1.163586184
1.157383058
1.151057444
1.145469393
1.135677962
1.392223644
1.38361256
1.373898772
1.363980207
1.354070057
1.344226397
1.334541919
1.325234117
1.315720334
1.30447452
1.293947219
1.284317455
1.275768648
1.268912294
1.261469224
1.253817572
1.246632123
1.23963027
1.232330177
1.224859731
1.217362009
1.209507135
1.201446768
1.193558051
1.186009408
1.178837301
1.172015555
1.165544222
1.159311234
1.153005367
1.147437057
1.137644057
1.389637318
1.379642509
1.369663911
1.359875008
1.350075396
1.340243851
1.33051621
1.32095289
1.311970324
1.303378695
1.293790038
1.284109942
1.275740759
1.267192065
1.258921883
1.250978021
1.243426833
1.236455668
1.229268397
1.221818666
1.2143478
1.206780065
1.198899409
1.191075074
1.18355371
1.176418053
1.169641135
1.16321441
1.157009771
1.150755514
1.145241045
1.135521682
1.387327042
1.377526576
1.367657487
1.358055261
1.348384667
1.33866836
1.32911522
1.319781089
1.310528752
1.302886602
1.295040872
1.285876738
1.276022169
1.266551198
1.258476866
1.250609237
1.242877562
1.235548864
1.228710836
1.221481478
1.213765032
1.206306263
1.198933456
1.191406284
1.183956397
1.176838803
1.170078031
1.163645004
1.157424509
1.151165952
1.145661451
1.135994903
1.385148842
1.376175609
1.368204328
1.359137593
1.349578412
1.339906754
1.330334384
1.320898432
1.311198964
1.301192421
1.291713169
1.282407285
1.273591501
1.267439755
1.260371088
1.25240556
1.243407431
1.234934906
1.228792529
1.222574771
1.214377916
1.206112974
1.199820916
1.193013275
1.185679344
1.178570599
1.171829917
1.165386286
1.159159401
1.152899056
1.147392785
1.137766798
1.383247486
1.373229395
1.363484322
1.35445801
1.345250635
1.335446113
1.325785494
1.316434513
1.308363217
1.299595289
1.290195598
1.281034079
1.27280548
1.265001353
1.257430419
1.249664358
1.242016996
1.23456817
1.226697638
1.218953416
1.212210393
1.205257309
1.197633032
1.190281783
1.183017216
1.175881612
1.169196893
1.162838128
1.156688044
1.150463402
1.144915716
1.135301894
1.381415401
1.37064569
1.360765779
1.351760083
1.342978292
1.333520094
1.324085379
1.314898537
1.306414166
1.299062037
1.291192931
1.282667839
1.273739947
1.263906906
1.25568874
1.248241497
1.240861139
1.233477067
1.225408371
1.217362167
1.210988736
1.204853781
1.196547409
1.188831639
1.182120135
1.175321712
1.168814168
1.162532734
1.156465822
1.150335182
1.144851789
1.135383355
1.379575889
1.369086793
1.359243095
1.34949775
1.340801195
1.333569198
1.325043057
1.315579853
1.305769229
1.296755284
1.287533472
1.278823891
1.270198037
1.261462626
1.253595167
1.247139684
1.24010482
1.232633254
1.22485412
1.217125183
1.209742412
1.202323796
1.195357645
1.187838761
1.181549938
1.176186617
1.170114682
1.16388484
1.157818234
1.151666131
1.146132013
1.136618835
1.378938536
1.369788693
1.358787839
1.348266062
1.3391798
1.330152667
1.321073542
1.311948822
1.302972326
1.294396646
1.285789792
1.277211922
1.268840809
1.260611008
1.252704881
1.24589659
1.24042046
1.233586706
1.226161937
1.218220452
1.208886689
1.20064606
1.194767192
1.188339202
1.180635385
1.173606946
1.167315331
1.161135655
1.155056936
1.148838744
1.14329654
1.133821721
1.375080888
1.365343794
1.3556099
1.345939271
1.336825015
1.328249892
1.319540421
1.310584915
1.301517025
1.292204693
1.285220212
1.278043953
1.270029655
1.261951139
1.253796618
1.245815679
1.237874513
1.230042905
1.222385434
1.21524589
1.207697414
1.199866349
1.192495812
1.185992142
1.179472878
1.172721365
1.166434402
1.160317326
1.154293271
1.148040549
1.142500285
1.133118085
1.372863989
1.363321533
1.354271817
1.344969689
1.335401203
1.326337975
1.318350522
1.310081177
1.300616802
1.291305432
1.282755203
1.274580186
1.266408208
1.25843974
1.250451944
1.243126346
1.236118016
1.228622241
1.220950065
1.213390614
1.206770814
1.199018634
1.190861743
1.184496569
1.179460513
1.173664526
1.16754984
1.161494784
1.155512705
1.149207794
1.143597866
1.134164908
1.371610978
1.361895155
1.352791753
1.34458723
1.335446915
1.325783398
1.316201311
1.306703102
1.297751682
1.289307002
1.280857031
1.272890698
1.264955278
1.257016922
1.249229832
1.24139208
1.234775339
1.229089912
1.221743902
1.212850396
1.204742601
1.197441294
1.189950834
1.18373587
1.17719947
1.170477267
1.164227161
1.158237938
1.152506232
1.146359078
1.140456601
1.130936665
1.369969943
1.360527827
1.351790735
1.342343266
1.332731492
1.323483944
1.31433144
1.305010974
1.296090413
1.287844202
1.279360596
1.271088888
1.264576938
1.257833695
1.250250866
1.241854259
1.233150744
1.225065986
1.218123849
1.211177795
1.203181561
1.196280471
1.190532463
1.183479067
1.176007007
1.169252334
1.163043025
1.157009139
1.151288626
1.145317451
1.139340562
1.129491253
1.370385221
1.360337292
1.350363854
1.340480744
1.33101705
1.32201298
1.313172165
1.304315498
1.295388359
1.286457105
1.277531964
1.269687073
1.261937594
1.253929509
1.246169473
1.238724805
1.231249644
1.223197862
1.215757556
1.210297711
1.203560134
1.195169422
1.187491403
1.180589542
1.175246769
1.170070397
1.164095245
1.157945452
1.152103331
1.146259308
1.140197057
1.12907658
1.369258372
1.359397113
1.349355404
1.339749761
1.330561197
1.320971901
1.311241554
1.30282539
1.29489674
1.285920667
1.276995458
1.268542552
1.260393505
1.252518169
1.244673774
1.237051563
1.229413741
1.221975224
1.21470054
1.207279333
1.200708669
1.193667202
1.186101986
1.179631602
1.173763756
1.167589777
1.161386937
1.154930896
1.148685729
1.142610094
1.137520997
1.128201732
1.367791686
1.358348071
1.34882517
1.33902037
1.328994265
1.319049863
1.310108399
1.301175718
1.291609353
1.282849867
1.274893624
1.266658543
1.258431161
1.251061178
1.243964842
1.236184681
1.228433019
1.221308795
1.2138598
1.205848072
1.198764453
1.19323568
1.186895308
1.180123143
1.172791903
1.166519964
1.160356142
1.153865921
1.147597629
1.141130435
1.136048299
1.128412944
1.368375894
1.358344403
1.348641296
1.338967049
1.32899517
1.319075413
1.309457673
1.299865556
1.290173779
1.281035035
1.272954025
1.265441691
1.257803839
1.249947515
1.24228847
1.234707527
1.226969934
1.2195403
1.212625544
1.205136924
1.197918673
1.190478462
1.183503217
1.177027894
1.172622692
1.167620117
1.161608487
1.154998544
1.147793676
1.14038096
1.135257422
1.125990792
1.367865156
1.357678405
1.347832959
1.338041623
1.327988146
1.317666183
1.307306407
1.297861548
1.289536383
1.281197278
1.272572436
1.264122225
1.256032659
1.248099629
1.240497461
1.233346995
1.226224267
1.218691519
1.211012386
1.20361829
1.19621799
1.188934711
1.18204688
1.175957152
1.170281665
1.164341823
1.158454188
1.152139513
1.145566483
1.138751095
1.133510945
1.124749902
1.367943327
1.35777943
1.347586349
1.337361623
1.327169245
1.317166849
1.307298052
1.297652093
1.288392137
1.279489568
1.270672479
1.262286889
1.254679255
1.247320342
1.239928205
1.232680307
1.22550094
1.217743324
1.209573847
1.202009501
1.19456886
1.188718269
1.182761933
1.176293965
1.168791396
1.162392392
1.156802434
1.150868592
1.144798513
1.138255861
1.132401315
1.124278436
1.367613388
1.357192958
1.346790546
1.336559586
1.32649581
1.316468962
1.306454561
1.296445624
1.286872568
1.278241307
1.270174302
1.262219402
1.254460654
1.246807558
1.239107276
1.231262355
1.223842317
1.217055049
1.209653867
1.201292432
1.193187494
1.18582046
1.179242227
1.173113774
1.167189409
1.161142001
1.155668839
1.151291344
1.14573243
1.139082333
1.132515931
1.122497003
1.366612421
1.356476485
1.346431699
1.335940084
1.32516957
1.314790447
1.305221118
1.296307651
1.287367115
1.278465414
1.26972255
1.261231117
1.252978146
1.245358744
1.238354079
1.231203027
1.223572759
1.215503427
1.207771327
1.199927538
1.191875096
1.184155449
1.177376426
1.171421984
1.165814346
1.160112005
1.154560127
1.148790169
1.142946289
1.136419343
1.130657692
1.121041923
1.367735199
1.357150697
1.346266979
1.335390941
1.325113479
1.315174164
1.305370379
1.295801256
1.286458416
1.277394046
1.268900334
1.260958518
1.253055331
1.24531982
1.237710522
1.230220849
1.22246892
1.214243309
1.206137088
1.199003116
1.19183969
1.184198647
1.177071885
1.17020321
1.163861257
1.158801103
1.153460324
1.147484374
1.141630297
1.135392499
1.12970965
1.119979756
1.36668147
1.355945693
1.345119903
1.334889268
1.324646741
1.314117029
1.3038312
1.294249266
1.285937595
1.277739119
1.269297758
1.260901039
1.252810272
1.244866182
1.236914846
1.228929266
1.221069292
1.213695964
1.206159167
1.198123802
1.190399443
1.182973865
1.175931274
1.169312965
1.16321151
1.157475101
1.151780922
1.14588058
1.140005373
1.135361938
1.130070557
1.119540143
1.367158562
1.356736505
1.346010557
1.334855282
1.323820072
1.313643501
1.304070289
1.29481123
1.285466
1.276312046
1.267781767
1.260012839
1.252685307
1.245065844
1.23718537
1.229312477
1.221447471
1.213336245
1.205037899
1.19668437
1.18919542
1.182748643
1.176202065
1.169719941
1.163351494
1.157031783
1.150880239
1.144610555
1.138635342
1.132579386
1.127025612
1.117404662
1.366668371
1.355860485
1.344846922
1.33415142
1.323915774
1.31366735
1.303438477
1.293440586
1.284057099
1.275890717
1.268072203
1.260070852
1.252017251
1.244121843
1.236347756
1.228519268
1.220433665
1.211906432
1.2034979
1.196100122
1.189004765
1.181636486
1.174404531
1.16870001
1.164145806
1.157786711
1.150568804
1.144165794
1.137952061
1.131220136
1.125484657
1.116298461
1.365840359
1.355512945
1.345021942
1.33407969
1.322901777
1.312125598
1.301852421
1.292289667
1.28355935
1.275138953
1.266850281
1.258667102
1.250618437
1.242975354
1.235677375
1.228280731
1.220311801
1.211978867
1.203796511
1.19569447
1.187793515
1.180645582
1.174303754
1.168229836
1.161703479
1.155467036
1.149210865
1.142942432
1.136626892
1.129682696
1.123914241
1.115319192
1.366549672
1.355928653
1.344849616
1.333610699
1.322895928
1.312630719
1.302630174
1.292966245
1.283711523
1.275056599
1.266863102
1.258913348
1.251229836
1.243675128
1.23593911
1.227921783
1.219630992
1.211234171
1.202929942
1.194735463
1.187077412
1.180151624
1.173642319
1.167073725
1.16042616
1.154372288
1.148788102
1.142695988
1.136320363
1.129736073
1.123506916
1.114204652
1.365295066
1.354393779
1.343488782
1.332931909
1.322296106
1.311640536
1.301471139
1.292026412
1.283128437
1.274576915
1.26629935
1.258222912
1.250340654
1.242502252
1.234491995
1.226351032
1.218412583
1.210686436
1.202768956
1.194754278
1.187137788
1.180106361
1.173536251
1.167029553
1.160697963
1.154490571
1.148166687
1.141644754
1.135003132
1.128021652
1.121898645
1.112963661
1.365531674
1.354877767
1.343875344
1.332538376
1.321451318
1.31104086
1.301228573
1.291862511
1.282836337
1.274257009
1.266138523
1.258255923
1.250442805
1.242605086
1.234703926
1.226810497
1.218777845
1.210448404
1.202068246
1.193964061
1.18647346
1.179515068
1.172814529
1.166210532
1.159779285
1.153403311
1.146955768
1.140711969
1.134451348
1.127513335
1.121614575
1.112603449
1.364936786
1.354348482
1.343400324
1.332265688
1.321362906
1.31082325
1.300890146
1.291630004
1.28282859
1.274371055
1.266126306
1.257958326
1.24983413
1.241742267
1.233631627
1.2255013
1.217249556
1.208889562
1.200892539
1.193392377
1.186145092
1.179112111
1.172377969
1.165979463
1.159773859
1.153555076
1.147292023
1.14075836
1.134025783
1.127176353
1.121245485
1.111709976
1.363156394
1.352730148
1.341900206
1.330682706
1.319643926
1.309119242
1.29933
1.290223627
1.281562217
1.273203696
1.265075119
1.257124391
1.249352092
1.241557512
1.233562172
1.225475747
1.217362799
1.209349556
1.201430607
1.193484912
1.185836169
1.178650037
1.171854446
1.165347149
1.158922798
1.152488628
1.146078997
1.139484373
1.133071921
1.127021934
1.121450794
1.111860919
1.36206676
1.351925846
1.3413228
1.33055621
1.319974025
1.309769672
1.300080264
1.290953848
1.282293964
1.27400172
1.265895422
1.257731713
1.249487441
1.241228086
1.232929569
1.224628203
1.216344555
1.208168194
1.200140035
1.192340268
1.1850609
1.178137148
1.171407956
1.164972366
1.158702236
1.152447269
1.146179119
1.139776089
1.133159834
1.126209494
1.120028701
1.110591257
1.359163122
1.349577049
1.339544839
1.329301145
1.318949794
1.308768476
1.299076139
1.289964027
1.28123311
1.272775493
1.264496425
1.25625301
1.248108801
1.240103363
1.232181104
1.224250567
1.216280126
1.208333639
1.200553431
1.192918105
1.185373856
1.178051694
1.171168248
1.16465704
1.158308384
1.151920593
1.145404098
1.138648881
1.131846568
1.125122856
1.119441429
1.110344687
1.355683611
1.346751388
1.33743538
1.327856709
1.318098498
1.308426253
1.299076734
1.290111575
1.281464357
1.273106786
1.264992846
1.256932547
1.248823916
1.240545154
1.232128873
1.223815722
1.215577908
1.20734676
1.199334211
1.19156405
1.18415936
1.177240005
1.170748508
1.164404384
1.158118454
1.151832918
1.145444215
1.138810715
1.132202296
1.125401635
1.119313734
1.109788572
1.35242355
1.344028016
1.335151324
1.325970396
1.31671284
1.30753869
1.29850367
1.289643132
1.280949054
1.272403362
1.263997139
1.255601142
1.247218452
1.238867071
1.230666166
1.222796776
1.214986223
1.20712826
1.199431733
1.191959529
1.184789437
1.177750278
1.170909957
1.16436428
1.157958929
1.151463363
1.144768986
1.137871434
1.131120871
1.124221694
1.118198957
1.109091864
1.347641638
1.339712196
1.331372105
1.322970361
1.314619445
1.306154845
1.29757274
1.289008013
1.280496861
1.272139544
1.263961022
1.255759821
1.247612164
1.239523863
1.231343808
1.223012144
1.214636688
1.206446424
1.198449326
1.190739221
1.183448604
1.176509287
1.169959308
1.163747508
1.15763199
1.151307958
1.144691694
1.137877358
1.13123835
1.124484835
1.118716314
1.109287185
1.343602443
1.33622682
1.32854517
1.320612612
1.312575705
1.304523951
1.296434073
1.288275374
1.280013714
1.271747976
1.263493245
1.25505826
1.246585921
1.238146466
1.229688531
1.221375042
1.213444184
1.205830745
1.198259803
1.190889903
1.183880702
1.177156255
1.170653498
1.164189834
1.157603713
1.150901823
1.144069227
1.137131836
1.130366696
1.12355501
1.117682405
1.108161573
1.337540568
1.330655485
1.323529274
1.316275225
1.309015444
1.301662121
1.294115198
1.286400012
1.278572438
1.270714396
1.262781232
1.254634067
1.246467778
1.238284371
1.230135793
1.222116756
1.213921858
1.205631663
1.197653523
1.190012041
1.18281331
1.175972635
1.16940154
1.162950862
1.156469487
1.150060363
1.143580523
1.13691401
1.130300294
1.123598206
1.117797352
1.108407314
1.332496239
1.325951224
1.319451445
1.31293679
1.306327514
1.299520269
1.292477627
1.285212336
1.27768409
1.269929694
1.262017472
1.253928368
1.245791597
1.237441988
1.2289613
1.22058705
1.212282982
1.204406217
1.197120051
1.189951783
1.183003349
1.176361861
1.169946855
1.163651739
1.157229859
1.150506094
1.14350217
1.136505992
1.129683025
1.122753899
1.116755004
1.10730567
1.326403619
1.32016407
1.314013724
1.307857169
1.301652076
1.295299327
1.288738603
1.281927382
1.274767331
1.267338152
1.259817981
1.252300039
1.244763306
1.236911002
1.228895463
1.220876634
1.212966336
1.205018794
1.197047686
1.189425426
1.182256682
1.175503316
1.168974899
1.162526161
1.155924622
1.149103145
1.142180711
1.135431814
1.128889033
1.122314901
1.116614576
1.107309481
1.321242676
1.315290702
1.309382022
1.303408979
1.297478078
1.291565483
1.285573422
1.279360169
1.272754375
1.265862094
1.258835879
1.251494959
1.243797071
1.23591452
1.227931839
1.219681523
1.211446244
1.203390218
1.19581741
1.188895443
1.182183709
1.175605196
1.169193262
1.162857633
1.156370421
1.14970242
1.142908691
1.135995646
1.129142878
1.122243427
1.116242687
1.106692353
1.31552907
1.309316884
1.303557712
1.298088172
1.292758371
1.287344882
1.281752242
1.275922078
1.269697001
1.263105538
1.256172315
1.24878459
1.241264248
1.234100446
1.226883769
1.219252965
1.211582612
1.204007
1.196568207
1.189059663
1.181868113
1.175048779
1.168432287
1.161877614
1.155157362
1.148246179
1.141333639
1.13440836
1.127593291
1.120719364
1.114949246
1.10621223
1.310789862
1.304554888
1.298880743
1.293609891
1.288553807
1.283420171
1.278141755
1.272706001
1.266921747
1.260721722
1.25411324
1.247210902
1.240289139
1.233090058
1.225587686
1.218106878
1.210528101
1.202694005
1.195089146
1.187755918
1.180953137
1.174605669
1.168252271
1.161827469
1.15521721
1.14842216
1.141632234
1.134755846
1.127995504
1.121245944
1.115506361
1.106141688
1.30633048
1.299658272
1.293757118
1.288408784
1.283410413
1.278460079
1.273403486
1.268112164
1.262399178
1.2563338
1.250017261
1.243572052
1.237066568
1.230251176
1.223302338
1.216714733
1.209907689
1.202585321
1.195388889
1.188477953
1.181719885
1.175044767
1.16829717
1.161492622
1.154519896
1.147426526
1.140483705
1.133550044
1.126714334
1.11977553
1.113935189
1.104888209
1.302695745
1.295765697
1.289534546
1.284030607
1.27902356
1.274113204
1.269133701
1.263926795
1.258328253
1.252508435
1.24659716
1.240666765
1.234738667
1.228758173
1.222554591
1.215540175
1.208060897
1.20071923
1.193692516
1.186939336
1.180434189
1.174018437
1.16735854
1.160757518
1.154248965
1.147428455
1.140522813
1.133575813
1.126754462
1.119887609
1.114266812
1.105525722
1.299262983
1.292026233
1.285627694
1.27969344
1.274165431
1.2689676
1.263941227
1.258878957
1.253603481
1.248195166
1.242666715
1.237069591
1.231331069
1.225346945
1.219013151
1.212142653
1.205463262
1.199118634
1.192863411
1.186673404
1.180597674
1.174555807
1.1681941
1.161538865
1.154507528
1.147259661
1.140041766
1.132955108
1.126056183
1.119027772
1.113284675
1.104566816
1.296354802
1.288337579
1.280893458
1.274580456
1.26937359
1.264574903
1.259569804
1.254168975
1.248583511
1.24330206
1.238306126
1.233472218
1.228371666
1.222680862
1.216596111
1.210351414
1.204027951
1.197486114
1.191153818
1.184931706
1.178604926
1.172450587
1.166178894
1.159926345
1.153532926
1.146920628
1.1398949
1.132317537
1.125262561
1.118647153
1.113426311
1.105224998
1.293285589
1.285388374
1.278883536
1.27270988
1.266667162
1.260517699
1.254787757
1.249677807
1.24478981
1.239980142
1.235264825
1.230164745
1.224562693
1.218805969
1.212921247
1.206946338
1.200880422
1.194737588
1.189152959
1.183552082
1.177441432
1.171547624
1.165858671
1.160225442
1.154377167
1.14792094
1.140635019
1.132880121
1.125675641
1.118319049
1.112280643
1.103879651
1.291319201
1.283537335
1.275445754
1.267760884
1.261030409
1.255030911
1.24954011
1.2441335
1.238924448
1.234076329
1.229394757
1.224682786
1.219981806
1.215079118
1.209651276
1.20412586
1.198708615
1.193385794
1.187801177
1.181910591
1.175860626
1.169920789
1.164352145
1.158734168
1.152692821
1.146140387
1.139095478
1.131314164
1.123852299
1.116688987
1.111374531
1.104011926
1.288883564
1.28014432
1.272208612
1.26560551
1.259314947
1.252902877
1.246426405
1.240448071
1.235171936
1.23034784
1.225689058
1.221294373
1.216941547
1.211782939
1.206687836
1.201458704
1.195836489
1.190344948
1.184864149
1.179637053
1.17418444
1.168557697
1.163329719
1.158181483
1.15266579
1.146290136
1.139132648
1.131322902
1.124021128
1.117529178
1.111375824
1.102438518
1.287295924
1.279300349
1.271483784
1.26336643
1.254923828
1.247387342
1.240956998
1.235521338
1.230317691
1.225209683
1.220267026
1.215455314
1.210793146
1.20722358
1.204128031
1.199110441
1.193334455
1.187944575
1.182445798
1.177290145
1.172391353
1.16758622
1.162892929
1.157922799
1.152118439
1.145271886
1.137970075
1.130436723
1.122873674
1.116490852
1.110687702
1.101848285
1.284795913
1.276457871
1.268337104
1.260208027
1.253193223
1.246178278
1.23931957
1.233240834
1.227436626
1.22173298
1.216603766
1.211655607
1.20703773
1.203012285
1.198262129
1.19495159
1.191355232
1.185876546
1.179557631
1.174003154
1.169876388
1.166789052
1.163132703
1.157950317
1.151819592
1.14495489
1.137808963
1.130606106
1.123072737
1.117018274
1.11166759
1.102239672
1.281792593
1.274612392
1.266691238
1.258571352
1.25057954
1.242901751
1.23579876
1.22945981
1.22344361
1.218090731
1.212689466
1.207155938
1.2030203
1.198966455
)
;

boundaryField
{
    inlet
    {
        type            fixedValue;
        value           nonuniform 0();
    }
    outlet
    {
        type            inletOutlet;
        inletValue      uniform 1;
        value           nonuniform List<scalar> 
69
(
1.115644249
1.118277497
1.116348557
1.11707256
1.11927833
1.117096914
1.117512953
1.118892841
1.12004237
1.121803783
1.124383201
1.127189799
1.1301299
1.131641219
1.134227153
1.136927494
1.134972554
1.135677295
1.137642555
1.135520323
1.135994881
1.137767562
1.135300716
1.13538137
1.136613948
1.133815887
1.13311307
1.134158772
1.130932133
1.129474051
1.129038287
1.128188219
1.128442376
1.125978131
1.124744124
1.124312374
1.122473943
1.121025651
1.119960648
1.119497147
1.117381274
1.116289182
1.115335708
1.114207411
1.112967393
1.112609891
1.111706941
1.111851086
1.110584469
1.110346699
1.109779088
1.109115245
1.109274132
1.108150865
1.108413677
1.10730587
1.107313971
1.106685189
1.106250609
1.106137711
1.104903341
1.105544107
1.10458058
1.105258229
1.103907406
1.104071084
1.102447187
1.101899409
1.102232283
)
;
    }
    bottom
    {
        type            slip;
    }
    top
    {
        type            slip;
    }
    obstacle
    {
        type            zeroGradient;
    }
    defaultFaces
    {
        type            empty;
    }
    procBoundary5to4
    {
        type            processor;
        value           nonuniform List<scalar> 
69
(
1.381590928
1.382449917
1.381959536
1.383018818
1.38538499
1.388675713
1.392550741
1.396728029
1.400304604
1.403246772
1.40517088
1.406289733
1.406417622
1.406286634
1.405868736
1.405600216
1.406518796
1.40248876
1.400302887
1.39912403
1.397656552
1.396110362
1.393737804
1.391985512
1.389590412
1.386892086
1.3853551
1.382960345
1.381698102
1.380548663
1.38018892
1.379170491
1.377716169
1.378409479
1.378072841
1.377866207
1.378155476
1.37713186
1.378114572
1.377193628
1.377429284
1.377182121
1.376294088
1.376850521
1.375834313
1.375914597
1.375080177
1.373155284
1.371521627
1.368218936
1.364127369
1.360371332
1.35506049
1.350623385
1.344160264
1.339046389
1.332825275
1.327510175
1.32230068
1.317678786
1.313829226
1.310245465
1.307334112
1.304516493
1.301974924
1.29972788
1.297732583
1.295445009
1.293254977
)
;
    }
    procBoundary5to10
    {
        type            processor;
        value           uniform 1.288951007;
    }
    procBoundary5to11
    {
        type            processor;
        value           nonuniform List<scalar> 
33
(
1.1942763
1.189902089
1.184839068
1.179828681
1.175496854
1.17187756
1.167821482
1.162818442
1.158293294
1.153907951
1.149160561
1.143535537
1.13718829
1.130643691
1.123475444
1.116806588
1.111042754
1.101454612
1.280790886
1.272778461
1.264680594
1.256845642
1.249484266
1.24224913
1.234685175
1.227269423
1.220347085
1.213401657
1.207461383
1.203306133
1.200553045
1.1942763
1.196806406
)
;
    }
}

