/*--------------------------------*- C++ -*----------------------------------*\
  =========                 |
  \\      /  F ield         | OpenFOAM: The Open Source CFD Toolbox
   \\    /   O peration     | Website:  https://openfoam.org
    \\  /    A nd           | Version:  7
     \\/     M anipulation  |
\*---------------------------------------------------------------------------*/
FoamFile
{
    version     2.0;
    format      ascii;
    class       volVectorField;
    location    "1";
    object      U;
}
// * * * * * * * * * * * * * * * * * * * * * * * * * * * * * * * * * * * * * //

dimensions      [0 1 -1 0 0 0 0];

internalField   nonuniform List<vector> 8((2.995852534 0.003932021977 0) (2.999169006 -0.01556213072 0) (2.997635952 0.01634240798 0) (2.996967909 -0.008966991434 0) (2.988797777 0.02797058714 0) (2.990659067 0.007193901125 0) (2.98655853 0.01643460524 0) (2.983678101 0.00907465671 0));

boundaryField
{
    inlet
    {
        type            fixedValue;
        value           nonuniform 0();
    }
    outlet
    {
        type            inletOutlet;
        inletValue      nonuniform 0();
        value           nonuniform 0();
    }
    bottom
    {
        type            slip;
    }
    top
    {
        type            slip;
    }
    obstacle
    {
        type            slip;
    }
    defaultFaces
    {
        type            empty;
    }
    procBoundary34to28
    {
        type            processor;
        value           nonuniform List<vector> 2((3.008327037 -0.07884353444 0) (2.996273514 -0.0291338162 0));
    }
    procBoundary34to33
    {
        type            processor;
        value           nonuniform List<vector> 4((2.979934462 0.04221452812 0) (2.992985648 0.03692863992 0) (2.996196498 0.03599096004 0) (2.994796503 0.007730002652 0));
    }
    procBoundary34to35
    {
        type            processor;
        value           nonuniform List<vector> 4((3.001616071 -0.0164222669 0) (3.002565443 -0.03613770029 0) (2.992549871 -0.01395638036 0) (2.988650626 0.000756820241 0));
    }
}


// ************************************************************************* //
