/*--------------------------------*- C++ -*----------------------------------*\
  =========                 |
  \\      /  F ield         | OpenFOAM: The Open Source CFD Toolbox
   \\    /   O peration     | Website:  https://openfoam.org
    \\  /    A nd           | Version:  7
     \\/     M anipulation  |
\*---------------------------------------------------------------------------*/
FoamFile
{
    version     2.0;
    format      ascii;
    class       volVectorField;
    location    "1.4";
    object      U;
}
// * * * * * * * * * * * * * * * * * * * * * * * * * * * * * * * * * * * * * //

dimensions      [0 1 -1 0 0 0 0];

internalField   nonuniform List<vector> 
200
(
(3 5.910679374e-16 0)
(3 -1.283533525e-15 0)
(3 -1.77560375e-15 0)
(3 -1.156554648e-15 0)
(3 -8.178674603e-16 0)
(3 3.750347914e-16 0)
(3 5.010878716e-17 0)
(3 -8.520674063e-16 0)
(3 1.964719103e-16 0)
(3 9.388433751e-16 0)
(3 5.251241108e-17 0)
(3 2.330717706e-15 0)
(3 3.093675414e-15 0)
(3 4.50806973e-15 0)
(3 6.114777077e-15 0)
(3 2.526713102e-18 0)
(3 6.527005588e-16 0)
(3 2.029270662e-15 0)
(3 1.945365495e-15 0)
(3 2.7907905e-15 0)
(3 1.08991991e-15 0)
(3 6.616511194e-16 0)
(3 3.503764985e-16 0)
(3 2.155578342e-16 0)
(3 -4.581410852e-16 0)
(3 -1.086049816e-11 0)
(3.000000014 5.095806959e-09 0)
(3.000000017 3.087001811e-09 0)
(3.000000017 -7.137459023e-09 0)
(2.999999975 -6.066697356e-08 0)
(2.999999984 -2.934179809e-08 0)
(3.000000281 3.201555198e-07 0)
(2.999999227 -1.844146274e-06 0)
(2.999997488 -1.14906565e-05 0)
(2.999988535 -2.856548388e-05 0)
(2.999989882 -1.767159926e-05 0)
(2.999949057 -8.60167253e-05 0)
(2.999724523 -0.0005310271427 0)
(2.999339876 -0.001322591789 0)
(2.998204391 -0.003813911375 0)
(2.998496486 -0.002428996877 0)
(2.995417032 -0.007831942359 0)
(2.989086608 -0.02030732358 0)
(2.982778427 -0.03450067354 0)
(2.966723133 -0.07474694238 0)
(2.987330673 -0.003718817965 0)
(2.973872435 -0.004539464949 0)
(2.958831099 -0.02051590382 0)
(2.94768715 -0.02624048088 0)
(2.928659755 -0.05355977513 0)
(2.99949941 -0.0007722480048 0)
(2.994605106 -0.007677232668 0)
(2.98703806 -0.01662539439 0)
(2.984094651 -0.00893278018 0)
(2.987887527 -0.0003090299564 0)
(2.998280522 -0.008355732738 0)
(2.995936658 -0.03546432169 0)
(2.989341052 -0.02773712365 0)
(2.992372794 -0.007158564092 0)
(2.992473437 0.0148127967 0)
(2.993943742 -0.03392475767 0)
(2.993021659 -0.03661350532 0)
(2.997775439 -0.01687239861 0)
(3.003539009 0.01099555573 0)
(3.000572879 0.03546512687 0)
(2.965747255 -0.07859353471 0)
(2.979902769 -0.04199183417 0)
(2.996518054 -0.004710477106 0)
(3.002006106 0.01544927167 0)
(3.000742485 0.01655907651 0)
(2.960572922 -0.01301586919 0)
(3.010201723 0.1129545755 0)
(3.008331415 0.07817185406 0)
(2.997378828 0.02781707037 0)
(2.991883748 0.00331279224 0)
(2.924935535 0.2363517951 0)
(3.003520617 0.1089112107 0)
(3.001782608 0.03326187263 0)
(2.984869275 -0.0008441451905 0)
(2.976004171 -0.002288076376 0)
(2.866679136 0.208111417 0)
(2.968749545 0.07877545304 0)
(2.977191256 0.01654847653 0)
(2.968558955 -0.004330993366 0)
(2.966451846 0.000119614824 0)
(2.833167177 0.1430436155 0)
(2.901500033 0.05319895248 0)
(2.929846871 0.01118419667 0)
(2.936649853 -0.002176628185 0)
(2.947174312 -0.0007452438591 0)
(2.752224175 0.09505763698 0)
(2.837577154 0.03925482273 0)
(2.891608828 0.006371660536 0)
(2.905334267 -0.00119734778 0)
(2.929636403 -0.0002321670092 0)
(2.688346696 0.03165678534 0)
(2.796483655 0.0223800514 0)
(2.882179401 0.004944005139 0)
(2.892662602 -0.001931694248 0)
(2.922677397 -0.0005654400922 0)
(2.691737404 -0.03239550565 0)
(2.799698629 -0.02756874115 0)
(2.875473841 -0.002152026893 0)
(2.892431806 0.001917627457 0)
(2.922957253 0.0004732414102 0)
(2.75186929 -0.09540788503 0)
(2.834574799 -0.02939470212 0)
(2.891840552 -0.008944415676 0)
(2.906853551 0.001028897207 0)
(2.930517058 1.395886823e-07 0)
(2.832898943 -0.1438354312 0)
(2.905057888 -0.05131046737 0)
(2.938638935 -0.008455663503 0)
(2.940647164 0.001977542808 0)
(2.948605853 0.00111961527 0)
(2.865463635 -0.2072838749 0)
(2.970239065 -0.08179114323 0)
(2.983336426 -0.01841517028 0)
(2.971597399 0.004600251859 0)
(2.967654418 -0.000186146003 0)
(2.924345926 -0.2357010761 0)
(3.001462267 -0.1107419939 0)
(3.002946567 -0.03366662768 0)
(2.9861956 0.001472313398 0)
(2.976823607 0.002444983551 0)
(2.960614206 0.01299826795 0)
(3.010316822 -0.1128915023 0)
(3.008704142 -0.07817590843 0)
(2.997941378 -0.02777420643 0)
(2.992495052 -0.003279145359 0)
(2.965748299 0.07857929045 0)
(2.979877044 0.0419780747 0)
(2.996495299 0.004481497749 0)
(3.002134103 -0.01540492436 0)
(3.001021731 -0.01650679177 0)
(2.993945537 0.03392947929 0)
(2.993021963 0.03661311301 0)
(2.99772686 0.01684882824 0)
(3.003500771 -0.01105560588 0)
(3.000648146 -0.03544843757 0)
(2.998280586 0.008357467528 0)
(2.995941685 0.03547034446 0)
(2.989336846 0.02773591715 0)
(2.992358223 0.007164054381 0)
(2.992465101 -0.01481532736 0)
(2.999499248 0.0007724946418 0)
(2.994604787 0.00767908547 0)
(2.987042254 0.01662426008 0)
(2.984097346 0.008930883191 0)
(2.987883033 0.0003001832896 0)
(2.987330673 0.003718791623 0)
(2.973872427 0.004539522937 0)
(2.958831099 0.02051582902 0)
(2.947687139 0.02624055647 0)
(2.928659727 0.05355966339 0)
(2.998496486 0.002428997425 0)
(2.995417035 0.007831934916 0)
(2.9890866 0.0203073458 0)
(2.982778437 0.03450063671 0)
(2.966723175 0.07474704973 0)
(2.999989882 1.76709452e-05 0)
(2.999949056 8.601903841e-05 0)
(2.999724526 0.0005310171963 0)
(2.999339866 0.0013226146 0)
(2.9982044 0.003813825762 0)
(2.999999984 2.934093563e-08 0)
(3.000000281 -3.202016171e-07 0)
(2.999999227 1.844837377e-06 0)
(2.999997491 1.148425649e-05 0)
(2.999988535 2.85681147e-05 0)
(3 1.08615071e-11 0)
(3.000000014 -5.095693105e-09 0)
(3.000000017 -3.086467483e-09 0)
(3.000000017 7.128207257e-09 0)
(2.999999975 6.066541581e-08 0)
(3 3.871564384e-17 0)
(3 -3.409327385e-17 0)
(3 -3.613260209e-16 0)
(3 -6.613974786e-16 0)
(3 -1.243673992e-15 0)
(3 -9.376121889e-16 0)
(3 -1.155591433e-15 0)
(3 -3.200141274e-15 0)
(3 -3.356308779e-15 0)
(3 -4.819818468e-15 0)
(3 -1.766820006e-16 0)
(3 -2.531146438e-15 0)
(3 -3.608875849e-15 0)
(3 -2.999447929e-15 0)
(3 -3.084335882e-15 0)
(3 -3.35199502e-16 0)
(3 -2.664577212e-16 0)
(3 1.931212498e-15 0)
(3 1.573469544e-15 0)
(3 2.464757036e-15 0)
(3 -5.153670454e-16 0)
(3 6.92105162e-16 0)
(3 2.074762997e-15 0)
(3 1.773502624e-15 0)
(3 2.742095337e-15 0)
)
;

boundaryField
{
    inlet
    {
        type            fixedValue;
        value           uniform (3 0 0);
    }
    outlet
    {
        type            inletOutlet;
        inletValue      uniform (3 0 0);
        value           nonuniform List<vector> 
20
(
(2.992495052 -0.003279145359 0)
(3.001021731 -0.01650679177 0)
(3.000648146 -0.03544843757 0)
(2.992465101 -0.01481532736 0)
(2.987883033 0.0003001832896 0)
(2.922957253 0.0004732414102 0)
(2.930517058 1.395886823e-07 0)
(2.948605853 0.00111961527 0)
(2.967654418 -0.000186146003 0)
(2.976823607 0.002444983551 0)
(2.976004171 -0.002288076376 0)
(2.966451846 0.000119614824 0)
(2.947174312 -0.0007452438591 0)
(2.929636403 -0.0002321670092 0)
(2.922677397 -0.0005654400922 0)
(2.987887527 -0.0003090299564 0)
(2.992473437 0.0148127967 0)
(3.000572879 0.03546512687 0)
(3.000742485 0.01655907651 0)
(2.991883748 0.00331279224 0)
)
;
    }
    bottom
    {
        type            slip;
    }
    top
    {
        type            slip;
    }
    obstacle
    {
        type            slip;
    }
    defaultFaces
    {
        type            empty;
    }
}


// ************************************************************************* //
