/*--------------------------------*- C++ -*----------------------------------*\
  =========                 |
  \\      /  F ield         | OpenFOAM: The Open Source CFD Toolbox
   \\    /   O peration     | Website:  https://openfoam.org
    \\  /    A nd           | Version:  7
     \\/     M anipulation  |
\*---------------------------------------------------------------------------*/
FoamFile
{
    version     2.0;
    format      ascii;
    class       volScalarField;
    location    "1.6";
    object      p;
}
// * * * * * * * * * * * * * * * * * * * * * * * * * * * * * * * * * * * * * //

dimensions      [1 -1 -2 0 0 0 0];

internalField   nonuniform List<scalar> 
22
(
0.729911829
1.015388056
0.7298411562
0.957688361
0.7165891172
0.9248784523
0.7048801049
0.8786422173
1.025467767
0.6945628635
0.8255456944
1.001092166
0.6858694554
0.7805870081
0.9683997082
0.6779442527
0.7479511323
0.9321416309
0.6699428592
0.722512652
0.8925496302
0.6562254276
)
;

boundaryField
{
    inlet
    {
        type            fixedValue;
        value           nonuniform 0();
    }
    outlet
    {
        type            zeroGradient;
    }
    bottom
    {
        type            slip;
    }
    top
    {
        type            slip;
    }
    obstacle
    {
        type            zeroGradient;
    }
    defaultFaces
    {
        type            empty;
    }
    procBoundary21to15
    {
        type            processor;
        value           nonuniform List<scalar> 2(0.7292090301 1.039801928);
    }
    procBoundary21to22
    {
        type            processor;
        value           nonuniform List<scalar> 7(1.046821973 1.046030009 1.038235328 1.038235328 1.019196222 1.01773209 1.019649681);
    }
    procBoundary21to27
    {
        type            processor;
        value           nonuniform List<scalar> 4(0.6976135761 0.8497453972 0.6976135761 0.6825075219);
    }
    procBoundary21to28
    {
        type            processor;
        value           nonuniform List<scalar> 2(1.012115018 1.001528242);
    }
}


// ************************************************************************* //
