/*--------------------------------*- C++ -*----------------------------------*\
  =========                 |
  \\      /  F ield         | OpenFOAM: The Open Source CFD Toolbox
   \\    /   O peration     | Website:  https://openfoam.org
    \\  /    A nd           | Version:  7
     \\/     M anipulation  |
\*---------------------------------------------------------------------------*/
FoamFile
{
    version     2.0;
    format      ascii;
    class       volVectorField;
    location    "4.9";
    object      U;
}
// * * * * * * * * * * * * * * * * * * * * * * * * * * * * * * * * * * * * * //

dimensions      [0 1 -1 0 0 0 0];

internalField   nonuniform List<vector> 
555
(
(3 5.168748068e-16 0)
(3 -3.395027949e-15 0)
(3 -3.428943517e-15 0)
(3 -4.318273051e-15 0)
(3 -7.780689109e-15 0)
(3 -1.076862066e-14 0)
(3 -1.088304964e-14 0)
(3 -8.583469222e-15 0)
(3 -7.77414146e-15 0)
(3 -3.968689343e-15 0)
(3 -1.283264067e-15 0)
(3 -1.494756108e-15 0)
(3 -1.862343601e-15 0)
(3 -9.920899642e-16 0)
(3 4.476986307e-16 0)
(3 7.870424129e-16 0)
(3 7.729871519e-16 0)
(3 -6.964783778e-15 0)
(3 -8.628895507e-15 0)
(3 -1.090641088e-14 0)
(3 -1.317275633e-14 0)
(3 -2.116388316e-14 0)
(3 -2.597430431e-14 0)
(3 -2.803766063e-14 0)
(3 -2.149836775e-14 0)
(3 -1.686297106e-14 0)
(3 -1.039959934e-14 0)
(3 -6.301745583e-16 0)
(3 2.755045642e-15 0)
(3 1.699115632e-15 0)
(3 3.300251937e-15 0)
(3 3.573845238e-15 0)
(3 5.146759464e-15 0)
(3 6.015945894e-15 0)
(3 -6.316395529e-15 0)
(3 -6.220364251e-15 0)
(3 -9.295512647e-15 0)
(3 -1.0307745e-14 0)
(3 -1.630000411e-14 0)
(3 -2.194192633e-14 0)
(3 -2.278259174e-14 0)
(3 -1.927608189e-14 0)
(3 -1.663807257e-14 0)
(3 -1.300349451e-14 0)
(3 -7.903286517e-15 0)
(3 -8.748614695e-16 0)
(3 9.440123997e-16 0)
(3 -1.649433801e-15 0)
(3 -3.127874575e-15 0)
(3 -3.021356682e-15 0)
(3 2.941311643e-16 0)
(3 7.866968856e-15 0)
(3 6.210692112e-15 0)
(3 1.101328774e-15 0)
(3 -1.325144139e-15 0)
(3 -3.943498385e-15 0)
(3 -8.992195486e-15 0)
(3 -1.108347423e-14 0)
(3 -1.165719279e-14 0)
(3 -1.385672399e-14 0)
(3 -1.377747244e-14 0)
(3 -9.745761932e-15 0)
(3 -6.619945044e-15 0)
(3 -4.261350408e-15 0)
(3 -5.834877757e-15 0)
(3 -4.407297833e-15 0)
(3 -2.592623238e-15 0)
(3 1.925830234e-16 0)
(3 1.495145625e-14 0)
(3 1.730483668e-14 0)
(3 1.486505335e-14 0)
(3 1.09835521e-14 0)
(3 8.496374887e-15 0)
(3 7.018044794e-15 0)
(3 3.875719802e-15 0)
(3 1.030635859e-15 0)
(3 -5.646279076e-16 0)
(3 -1.954842129e-15 0)
(3 -4.666548959e-15 0)
(3 -5.99919329e-15 0)
(3 -7.019319752e-15 0)
(3 -6.977741686e-15 0)
(3 -3.957791338e-15 0)
(3 -2.262756883e-15 0)
(3 -1.14632438e-15 0)
(3 8.107985629e-15 0)
(3 1.373982358e-14 0)
(3 1.442217046e-14 0)
(3 1.367302652e-14 0)
(3 1.169059364e-14 0)
(3 1.276906754e-14 0)
(3 1.219354972e-14 0)
(3 1.211751436e-14 0)
(3 1.220079366e-14 0)
(3 1.065686743e-14 0)
(3 2.210240721e-15 0)
(3 -4.741181911e-15 0)
(3 -5.457943849e-15 0)
(3 -6.805852456e-15 0)
(3 -7.356061172e-15 0)
(3 -5.511694693e-15 0)
(3 -1.642022519e-15 0)
(3 1.451154288e-15 0)
(3 3.59535768e-15 0)
(3 6.408652674e-15 0)
(3 9.21068623e-15 0)
(3 1.009449999e-14 0)
(3 1.136255265e-14 0)
(3 1.135714677e-14 0)
(3 1.177006307e-14 0)
(3 1.226307044e-14 0)
(3 1.230650967e-14 0)
(3 8.472123044e-15 0)
(3 2.6261715e-15 0)
(3 -4.249642833e-15 0)
(3 -6.995066586e-15 0)
(3 -1.231971754e-14 0)
(3 -1.125799296e-14 0)
(3 -1.297506029e-14 0)
(3 -4.742796465e-15 0)
(3 -3.536945853e-15 0)
(3 8.770257209e-16 0)
(3 6.399068484e-15 0)
(3 9.522169039e-15 0)
(3 1.27954885e-14 0)
(3 1.278918248e-14 0)
(3 1.28464073e-14 0)
(3 1.275645668e-14 0)
(3 9.219006954e-15 0)
(3 7.551137904e-15 0)
(3 3.142113707e-15 0)
(3 -2.719156933e-15 0)
(3 -8.559373342e-15 0)
(3 -1.297667457e-14 0)
(3 -2.01715186e-14 0)
(3 -2.375139946e-14 0)
(3 -9.201707177e-15 0)
(3 -8.673142064e-15 0)
(3 -9.035741736e-15 0)
(3 -5.080551481e-15 0)
(3 8.447955455e-16 0)
(3 5.851180106e-15 0)
(3 7.583490886e-15 0)
(3 6.799293675e-15 0)
(3 4.816526921e-15 0)
(3 2.22360084e-15 0)
(3 9.543511199e-16 0)
(3 6.151028573e-16 0)
(3 6.318353525e-16 0)
(3 -2.247489995e-15 0)
(3 -7.801016511e-15 0)
(3 -1.646771438e-14 0)
(3 -1.879750695e-14 0)
(3 -9.568653705e-15 0)
(3 -7.49315815e-15 0)
(3 -7.938228609e-15 0)
(3 -6.881388189e-15 0)
(3 -6.49276643e-15 0)
(3 -4.421844914e-15 0)
(3 -1.698221186e-15 0)
(3 -1.19360848e-15 0)
(3 -2.622568225e-15 0)
(3 -3.542776653e-15 0)
(3 -4.315551581e-15 0)
(3 -3.273901725e-15 0)
(3 -3.343718779e-15 0)
(3 -6.352382523e-15 0)
(3 -1.22345242e-14 0)
(3 -1.483625798e-14 0)
(3 -1.82404043e-14 0)
(3 -7.308355049e-16 0)
(3 -3.169268232e-16 0)
(3 -7.449296372e-16 0)
(3 -3.497718235e-15 0)
(3 -5.264052821e-15 0)
(3 -4.638386535e-15 0)
(3 -1.828898479e-15 0)
(3 -3.393600818e-16 0)
(3 -1.647211421e-15 0)
(3 -2.149292061e-15 0)
(3 -1.472843115e-15 0)
(3 -4.566558667e-15 0)
(3 -8.062724506e-15 0)
(3 -1.429629064e-14 0)
(3 -1.904729965e-14 0)
(3 -2.036205226e-14 0)
(3 -2.229663652e-14 0)
(3 5.6920968e-15 0)
(3 4.089511622e-15 0)
(3 3.250906767e-15 0)
(3 2.614408136e-15 0)
(3 1.470263113e-15 0)
(3 -9.044758592e-17 0)
(3 -7.733906773e-16 0)
(3 -4.564867768e-15 0)
(3 -5.472065429e-15 0)
(3 -1.080442751e-14 0)
(3 -1.188224452e-14 0)
(3 -1.359355723e-14 0)
(3 -1.656875793e-14 0)
(3 -1.806162234e-14 0)
(3 -1.933299901e-14 0)
(3 -1.870785363e-14 0)
(3 -1.709473083e-14 0)
(3 1.552522522e-14 0)
(3 1.366815608e-14 0)
(3 1.234227163e-14 0)
(3 1.084877086e-14 0)
(3 5.97753846e-15 0)
(3 -1.368472496e-15 0)
(3 -7.545063954e-15 0)
(3 -1.297804434e-14 0)
(3 -1.756873385e-14 0)
(3 -2.358341843e-14 0)
(3 -2.783490818e-14 0)
(3 -2.726056159e-14 0)
(3 -1.9973824e-14 0)
(3 -1.551419063e-14 0)
(3 -1.937945688e-14 0)
(3 -2.148594402e-14 0)
(3 -2.315795599e-14 0)
(3 1.955540514e-14 0)
(3 1.496476992e-14 0)
(3 1.06533211e-14 0)
(3 4.072041496e-15 0)
(3 -5.180375733e-15 0)
(3 -1.644383424e-14 0)
(3 -2.053158778e-14 0)
(3 -2.004890547e-14 0)
(3 -2.191441889e-14 0)
(3 -2.351153852e-14 0)
(3 -2.464307006e-14 0)
(3 -2.610331571e-14 0)
(3 -2.484765461e-14 0)
(3 -2.342326397e-14 0)
(3 -2.10664492e-14 0)
(3 -2.253143787e-14 0)
(3 -2.136675112e-14 0)
(3 1.607861655e-14 0)
(3 1.407430698e-14 0)
(3 6.776363706e-15 0)
(3 2.980894346e-15 0)
(3 -8.148602149e-16 0)
(3 -6.687287946e-15 0)
(3 -9.669154472e-15 0)
(3 -1.550786871e-14 0)
(3 -1.902727946e-14 0)
(3 -1.94502142e-14 0)
(3 -1.671299264e-14 0)
(3 -1.773125048e-14 0)
(3 -2.468004029e-14 0)
(3 -2.609492311e-14 0)
(3 -2.143364473e-14 0)
(3 -1.717554121e-14 0)
(3 -9.19816369e-15 0)
(3 -7.170348557e-15 0)
(3 -1.025797197e-14 0)
(3 -9.009823154e-15 0)
(3 -6.971928988e-15 0)
(3 -5.041036937e-15 0)
(3 -3.648695744e-15 0)
(3 -2.734940669e-15 0)
(3 -7.825780895e-15 0)
(3 -1.002175977e-14 0)
(3 -1.106333067e-14 0)
(3 -1.112024039e-14 0)
(3 -1.412050954e-14 0)
(3 -1.845450779e-14 0)
(3 -1.849949109e-14 0)
(3 -1.484774254e-14 0)
(3 -4.561989802e-15 0)
(3 4.275996053e-15 0)
(3 -2.247993227e-14 0)
(3 -2.175137287e-14 0)
(3 -2.068819275e-14 0)
(3 -1.824815832e-14 0)
(3 -1.334695016e-14 0)
(3 -2.673261577e-15 0)
(3 1.188157495e-15 0)
(3 2.080858083e-15 0)
(3 2.187181896e-15 0)
(3 7.56959083e-16 0)
(3 -2.138874991e-15 0)
(3 1.848948883e-15 0)
(3 1.590996412e-15 0)
(3 1.845358568e-15 0)
(3 2.20700298e-15 0)
(3 1.866196625e-15 0)
(3 4.00194486e-15 0)
(3 5.34000957e-15 0)
(3 6.399133576e-15 0)
(3 6.123848525e-15 0)
(3 5.454478605e-15 0)
(3 5.543499935e-15 0)
(3 6.163218461e-15 0)
(3 6.252705851e-15 0)
(3 6.157017215e-15 0)
(3 5.194087436e-15 0)
(3 4.672227642e-15 0)
(3 6.749954916e-15 0)
(3 6.864560763e-15 0)
(3 5.9723206e-15 0)
(3 5.280902373e-15 0)
(3 5.515551645e-15 0)
(3 6.633157328e-15 0)
(3 8.697770357e-15 0)
(3 9.590760586e-15 0)
(3 1.068379903e-14 0)
(3 1.029259124e-14 0)
(3 1.258528844e-14 0)
(3 1.673664697e-14 0)
(3 1.563959452e-14 0)
(3 1.387999397e-14 0)
(3 1.192058231e-14 0)
(3 1.241580815e-14 0)
(3 3.945314729e-15 0)
(3 6.939088891e-15 0)
(3 8.297999756e-15 0)
(3 1.078384667e-14 0)
(3 1.0384869e-14 0)
(3 1.114542912e-14 0)
(3 1.21841729e-14 0)
(3 1.400969399e-14 0)
(3 1.737974621e-14 0)
(3 2.291333599e-14 0)
(3 2.550703392e-14 0)
(3 2.467839419e-14 0)
(3 2.330351515e-14 0)
(3 2.28634536e-14 0)
(3 2.268731523e-14 0)
(3 2.141288354e-14 0)
(3 4.479557074e-15 0)
(3 7.757841243e-15 0)
(3 9.464456178e-15 0)
(3 1.280124233e-14 0)
(3 1.353586061e-14 0)
(3 1.404519719e-14 0)
(3 1.499276173e-14 0)
(3 1.478498459e-14 0)
(3 1.332757125e-14 0)
(3 1.18915694e-14 0)
(3 1.315607416e-14 0)
(3 1.385036789e-14 0)
(3 1.294472528e-14 0)
(3 1.4060175e-14 0)
(3 1.368186952e-14 0)
(3 1.177502319e-14 0)
(3 2.237890749e-15 0)
(3 2.824224158e-15 0)
(3 3.550981264e-15 0)
(3 7.4615269e-15 0)
(3 7.750088719e-15 0)
(3 8.032185267e-15 0)
(3 8.025219933e-15 0)
(3 5.628500748e-15 0)
(3 3.57221382e-15 0)
(3 3.415083248e-15 0)
(3 1.874224305e-15 0)
(3 1.201158197e-15 0)
(3 1.965710923e-15 0)
(3 1.959717522e-15 0)
(3 2.855278296e-15 0)
(3 3.532434383e-15 0)
(3 -2.671537565e-15 0)
(3 -4.240138484e-15 0)
(3 -5.838840281e-15 0)
(3 -4.493632353e-15 0)
(3 -1.015066734e-15 0)
(3 -1.080314378e-15 0)
(3 -1.799202743e-15 0)
(3 -5.787834677e-15 0)
(3 -6.935067596e-15 0)
(3 -7.195360774e-15 0)
(3 -6.85592724e-15 0)
(3 -6.326274666e-15 0)
(3 -6.000070173e-15 0)
(3 -6.820707168e-15 0)
(3 -6.442965348e-15 0)
(3 -6.615107369e-15 0)
(3 -1.422745923e-14 0)
(3 -1.682336058e-14 0)
(3 -1.8223314e-14 0)
(3 -1.878509211e-14 0)
(3 -1.858309746e-14 0)
(3 -2.045743219e-14 0)
(3 -2.025592864e-14 0)
(3 -1.976674243e-14 0)
(3 -1.902912551e-14 0)
(3 -1.839194611e-14 0)
(3 -1.752139208e-14 0)
(3 -1.617880493e-14 0)
(3 -1.660286551e-14 0)
(3 -1.643008066e-14 0)
(3 -1.563992991e-14 0)
(3 -1.692550804e-14 0)
(3 -2.655855946e-14 0)
(3 -2.562206631e-14 0)
(3 -2.61889575e-14 0)
(3 -2.68882469e-14 0)
(3 -2.759282846e-14 0)
(3 -2.761827651e-14 0)
(3 -2.677998801e-14 0)
(3 -2.532180717e-14 0)
(3 -2.333117138e-14 0)
(3 -2.127447922e-14 0)
(3 -2.016923838e-14 0)
(3 -2.051633573e-14 0)
(3 -2.104632172e-14 0)
(3 -2.101459432e-14 0)
(3 -1.96090126e-14 0)
(3 -1.637860903e-14 0)
(3 -2.101626704e-14 0)
(3 -2.138405809e-14 0)
(3 -2.14348805e-14 0)
(3 -2.156746182e-14 0)
(3 -2.161283269e-14 0)
(3 -2.106777507e-14 0)
(3 -2.034519065e-14 0)
(3 -1.944475752e-14 0)
(3 -1.874999108e-14 0)
(3 -1.887415522e-14 0)
(3 -1.650009286e-14 0)
(3 -1.500040076e-14 0)
(3 -1.457180502e-14 0)
(3 -1.272400807e-14 0)
(3 -1.102191024e-14 0)
(3 -9.036397191e-15 0)
(3 -1.909977676e-14 0)
(3 -2.029098467e-14 0)
(3 -2.023545149e-14 0)
(3 -1.952250412e-14 0)
(3 -1.930576522e-14 0)
(3 -1.906341413e-14 0)
(3 -1.901723728e-14 0)
(3 -1.82237435e-14 0)
(3 -1.673685446e-14 0)
(3 -1.570474268e-14 0)
(3 -1.361828462e-14 0)
(3 -1.0378512e-14 0)
(3 -8.356231816e-15 0)
(3 -6.677873895e-15 0)
(3 -5.071143293e-15 0)
(3 -3.136865233e-15 0)
(3 -2.310197353e-14 0)
(3 -2.324881305e-14 0)
(3 -2.254621251e-14 0)
(3 -2.136155438e-14 0)
(3 -1.875268519e-14 0)
(3 -1.923016487e-14 0)
(3 -1.834095332e-14 0)
(3 -1.564485083e-14 0)
(3 -1.434411523e-14 0)
(3 -1.037135842e-14 0)
(3 -8.096122047e-15 0)
(3 -5.01875343e-15 0)
(3 -4.300013339e-15 0)
(3 -3.209177183e-15 0)
(3 -2.034642046e-15 0)
(3 -9.98248122e-16 0)
(3 -1.585533697e-14 0)
(3 -1.578398634e-14 0)
(3 -1.415524873e-14 0)
(3 -1.195627381e-14 0)
(3 -8.808401809e-15 0)
(3 -3.643498891e-15 0)
(3 6.769546625e-16 0)
(3 2.589544479e-15 0)
(3 3.372302427e-15 0)
(3 5.248610364e-15 0)
(3 5.624934167e-15 0)
(3 6.731091477e-15 0)
(3 6.502537089e-15 0)
(3 6.187570872e-15 0)
(3 6.322388573e-15 0)
(3 5.729621135e-15 0)
(3 -2.229093753e-14 0)
(3 -2.031631004e-14 0)
(3 -1.773986071e-14 0)
(3 -1.326266186e-14 0)
(3 -1.093991844e-14 0)
(3 -5.715308184e-15 0)
(3 -1.364582551e-15 0)
(3 9.620567861e-16 0)
(3 3.857208573e-15 0)
(3 5.467245234e-15 0)
(3 5.334215279e-15 0)
(3 5.890516801e-15 0)
(3 7.203612442e-15 0)
(3 9.193226443e-15 0)
(3 9.427434394e-15 0)
(3 9.114768949e-15 0)
(3 -1.804982612e-14 0)
(3 -1.74363362e-14 0)
(3 -1.380076046e-14 0)
(3 -9.424138342e-15 0)
(3 -3.866574449e-15 0)
(3 -1.307783577e-15 0)
(3 4.151651431e-16 0)
(3 2.347006689e-15 0)
(3 4.835801756e-15 0)
(3 5.654721483e-15 0)
(3 5.669334818e-15 0)
(3 5.915827346e-15 0)
(3 7.718538179e-15 0)
(3 8.387314629e-15 0)
(3 8.212703216e-15 0)
(3 9.432995602e-15 0)
(3 -3.170128922e-15 0)
(3 -2.751660004e-15 0)
(3 -1.020998774e-15 0)
(3 1.33704145e-15 0)
(3 3.834262566e-15 0)
(3 5.364410437e-15 0)
(3 6.89514594e-15 0)
(3 8.159548537e-15 0)
(3 7.513872988e-15 0)
(3 7.426552984e-15 0)
(3 8.987220252e-15 0)
(3 1.105676036e-14 0)
(3 1.291790087e-14 0)
(3 1.282000371e-14 0)
(3 1.172700906e-14 0)
(3 1.066472461e-14 0)
(3 6.033341003e-15 0)
(3 5.820287128e-15 0)
(3 4.536358946e-15 0)
(3 2.551156781e-15 0)
(3 9.110361465e-16 0)
(3 4.508825404e-16 0)
(3 -1.19747946e-15 0)
(3 -2.721803725e-15 0)
(3 -3.236091077e-15 0)
(3 -3.145767756e-15 0)
(3 -2.12142031e-15 0)
(3 -2.069331301e-15 0)
(3 -1.952419151e-15 0)
(3 -3.52156553e-16 0)
(3 2.641564786e-15 0)
(3 4.409446925e-15 0)
(3 1.14457359e-14 0)
(3 9.797229338e-15 0)
(3 9.871823254e-15 0)
(3 1.173753758e-14 0)
(3 1.120262571e-14 0)
(3 7.453709881e-15 0)
(3 6.994288478e-15 0)
(3 5.806611146e-15 0)
(3 5.273371954e-15 0)
(3 5.032369488e-15 0)
(3 3.565109147e-15 0)
(3 -4.579928474e-17 0)
(3 -3.672564569e-15 0)
(3 -5.973359401e-15 0)
(3 -6.097812158e-15 0)
(3 -2.696368762e-15 0)
)
;

boundaryField
{
    inlet
    {
        type            fixedValue;
        value           nonuniform 0();
    }
    outlet
    {
        type            inletOutlet;
        inletValue      nonuniform 0();
        value           nonuniform 0();
    }
    bottom
    {
        type            slip;
    }
    top
    {
        type            slip;
    }
    obstacle
    {
        type            slip;
    }
    defaultFaces
    {
        type            empty;
    }
    procBoundary1to0
    {
        type            processor;
        value           nonuniform List<vector> 
16
(
(3 1.955549064e-15 0)
(3 -1.855610129e-15 0)
(3 -4.986434879e-15 0)
(3 5.695187878e-15 0)
(3 8.313603715e-15 0)
(3 4.801128368e-15 0)
(3 2.839015311e-15 0)
(3 -3.711709389e-15 0)
(3 -9.373237315e-15 0)
(3 -8.628896994e-15 0)
(3 -2.299286672e-15 0)
(3 4.803362475e-15 0)
(3 1.719980681e-14 0)
(3 2.275113315e-14 0)
(3 1.353923635e-14 0)
(3 -6.124328886e-15 0)
)
;
    }
    procBoundary1to2
    {
        type            processor;
        value           nonuniform List<vector> 
16
(
(3 4.338014133e-15 0)
(3 1.097412646e-14 0)
(3 2.062296514e-14 0)
(3 9.554422537e-15 0)
(3 3.226203549e-15 0)
(3 -6.573297229e-15 0)
(3 -1.556694602e-14 0)
(3 -1.581738732e-14 0)
(3 -6.680483149e-15 0)
(3 1.612214652e-16 0)
(3 2.74807359e-15 0)
(3 5.040934057e-15 0)
(3 9.966482348e-15 0)
(3 1.124079893e-14 0)
(3 8.88665578e-15 0)
(3 4.525038338e-15 0)
)
;
    }
    procBoundary1to6
    {
        type            processor;
        value           uniform (3 -1.897210459e-14 0);
    }
    procBoundary1to7
    {
        type            processor;
        value           nonuniform List<vector> 
35
(
(3 -3.129666593e-15 0)
(3 -2.644462565e-15 0)
(3 -1.121255121e-15 0)
(3 5.710786693e-15 0)
(3 7.532811417e-15 0)
(3 1.020761567e-14 0)
(3 -1.534032087e-14 0)
(3 -1.929623771e-14 0)
(3 -1.647300928e-14 0)
(3 -1.158500611e-14 0)
(3 -3.961649874e-15 0)
(3 3.466032448e-15 0)
(3 3.963999604e-15 0)
(3 7.623135334e-15 0)
(3 1.271580776e-14 0)
(3 1.049490909e-14 0)
(3 -3.129666593e-15 0)
(3 6.946553827e-15 0)
(3 1.020761567e-14 0)
(3 2.017279738e-15 0)
(3 1.25889436e-15 0)
(3 -9.295689487e-16 0)
(3 -3.379449187e-15 0)
(3 -4.203822913e-15 0)
(3 -5.808951451e-15 0)
(3 -5.733494074e-15 0)
(3 -4.552943254e-15 0)
(3 -3.396242905e-15 0)
(3 -4.191415999e-16 0)
(3 1.114827794e-15 0)
(3 2.733927131e-15 0)
(3 3.334821872e-15 0)
(3 4.799430607e-15 0)
(3 3.167837987e-15 0)
(3 2.021208769e-16 0)
)
;
    }
    procBoundary1to8
    {
        type            processor;
        value           uniform (3 -1.490798198e-15 0);
    }
}


// ************************************************************************* //
