/*--------------------------------*- C++ -*----------------------------------*\
  =========                 |
  \\      /  F ield         | OpenFOAM: The Open Source CFD Toolbox
   \\    /   O peration     | Website:  https://openfoam.org
    \\  /    A nd           | Version:  7
     \\/     M anipulation  |
\*---------------------------------------------------------------------------*/
FoamFile
{
    version     2.0;
    format      ascii;
    class       volScalarField;
    location    "0.1";
    object      rho;
}
// * * * * * * * * * * * * * * * * * * * * * * * * * * * * * * * * * * * * * //

dimensions      [1 -3 0 0 0 0 0];

internalField   nonuniform List<scalar> 
555
(
1.399432326
1.456952639
1.475881446
1.47181506
1.449266831
1.435754121
1.418642821
1.401483424
1.386049886
0.9434761509
1.281186055
1.34157862
1.394772123
1.451029904
1.471544197
1.466421328
1.448548468
1.43516118
1.422660096
1.402984267
1.386817196
0.9596315293
1.267459927
1.353349171
1.400764229
1.449831584
1.471299857
1.467143796
1.450043181
1.43617663
1.425079214
1.403656851
1.387683771
0.9426526739
1.229111083
1.34827769
1.400768116
1.447976681
1.475207177
1.476005564
1.461636704
1.447075299
1.431115164
1.408033306
1.39178704
0.9147761941
1.154117463
1.308721071
1.388131271
1.445051485
1.487780808
1.494945011
1.479365717
1.459048136
1.439152688
1.4165025
1.399289338
0.87789572
1.074702613
1.254106928
1.368485488
1.443140963
1.497327464
1.506364032
1.492372923
1.468883086
1.446645565
1.425466108
1.40883934
0.8614331839
0.9995307143
1.189079205
1.334970014
1.43701303
1.493753599
1.503769633
1.48967159
1.468538891
1.448263226
1.432170829
1.416257263
1.403113695
0.8427653034
0.9390349199
1.123137907
1.308088139
1.418968416
1.48156943
1.494054273
1.48379932
1.46692195
1.448937675
1.436412908
1.418952575
1.40462772
0.8262929723
0.9058528776
1.057632611
1.26545678
1.392997184
1.455524648
1.481248184
1.478923149
1.467918632
1.451462071
1.438860906
1.420030122
1.404690917
0.8186336322
0.8836644243
0.9999592273
1.203877924
1.34736016
1.432352418
1.473175168
1.478222478
1.472416919
1.457300962
1.442508482
1.424341926
1.411571454
0.8088212675
0.8613980484
0.9646978494
1.134631834
1.296581597
1.40862587
1.476431471
1.486199243
1.481610808
1.465668898
1.449355901
1.435389059
1.422351348
0.7983232927
0.8424132158
0.9279616437
1.086198439
1.258117178
1.398700254
1.482764534
1.494485442
1.487043329
1.471698957
1.455434087
1.44575354
1.427945586
0.7903515468
0.8311768497
0.8883982352
1.041519507
1.22779503
1.381123197
1.475905755
1.49048938
1.486005711
1.472923993
1.459580336
1.44908078
1.428734697
1.407274076
0.7876985866
0.8229481358
0.8704987756
0.9862972099
1.18748951
1.35771848
1.465426132
1.483802336
1.481626968
1.472948686
1.460999945
1.447864122
1.427300033
1.405815708
0.7826556491
0.8161760053
0.8611037411
0.9496675007
1.130771281
1.322978103
1.442293074
1.47126344
1.475592483
1.47277194
1.461758755
1.445681894
1.427053715
1.407596382
0.7766118967
0.8101071402
0.8479830389
0.9266036907
1.081356997
1.262336069
1.400110687
1.456455909
1.470110414
1.471826386
1.462354085
1.448800511
1.430342062
1.413003974
0.7740605703
0.8051544199
0.8341636362
0.8994211618
1.049302561
1.225227418
1.3699292
1.444916775
1.464885709
1.468046604
1.460099718
1.450324165
1.43720431
1.418137486
0.7746089855
0.8025781349
0.8293009349
0.8798329914
1.00990508
1.199607016
1.355610032
1.443604497
1.462225915
1.464235395
1.457926997
1.450940337
1.441203614
1.419401258
0.7729038754
0.8005438718
0.8278875498
0.8703160825
0.9644514218
1.155066902
1.341683442
1.442550792
1.463571356
1.463735519
1.458917289
1.452195538
1.442410011
1.42024656
0.767838722
0.7960326645
0.825955625
0.8627545173
0.9369585225
1.0940132
1.308483926
1.442304851
1.465284981
1.465976588
1.46114125
1.45473197
1.446613006
1.427237045
1.409849777
0.7637995732
0.7925254167
0.8216503487
0.8548396133
0.9180627354
1.057290305
1.259478896
1.42263179
1.468123019
1.46809537
1.46547657
1.458863636
1.453237715
1.440589487
1.420361729
0.7630743426
0.7908610917
0.8188302733
0.847910863
0.9012815121
1.031271001
1.225239888
1.395321899
1.46384201
1.471036534
1.466125616
1.46017563
1.457630715
1.450154587
1.424232135
0.7629703172
0.7888831305
0.8179921859
0.8455440363
0.8894231265
0.9850842498
1.185543324
1.376928225
1.45895796
1.472318559
1.466310539
1.459664071
1.458287828
1.451437728
1.424699041
0.7615260016
0.7851465423
0.8175782522
0.8444059264
0.8803185266
0.9490240065
1.128144913
1.35199987
1.457236836
1.473516125
1.466576499
1.459815114
1.458589305
1.451139881
1.425403555
0.7599666612
0.7807047419
0.8155687922
0.8428987467
0.8742921381
0.9325418777
1.068760729
1.300735302
1.454954034
1.475445546
1.468708715
1.462456761
1.461427276
1.453588679
1.431620973
0.7589709274
0.7771383639
0.8127594833
0.8398932482
0.870721948
0.9202133603
1.03081034
1.242418927
1.432522944
1.478022432
1.475657469
1.467479686
1.467903154
1.462337506
1.43960981
0.7573586922
0.7742608167
0.8113310658
0.8384816569
0.8643914552
0.9026733908
1.002448874
1.201692932
1.39836955
1.477942405
1.481442001
1.472938389
1.471913303
1.461426603
1.439680798
1.398115595
0.7559660547
0.7711301548
0.8088345339
0.8377052946
0.8599401618
0.8908300626
0.9692854278
1.158030845
1.373518935
1.473544393
1.484544499
1.47345697
1.470209801
1.459450182
1.436469139
1.397619832
0.7556404964
0.7677195181
0.8058444115
0.8369245501
0.8584667963
0.8847906235
0.9417764734
1.097272676
1.331932614
1.463511996
1.484516905
1.470869486
1.468460011
1.456743912
1.432592617
1.396154194
0.7557277492
0.7646779731
0.8044711084
0.8364235828
0.8563035307
0.8811855273
0.9248473024
1.046011811
1.259950009
1.440216179
1.478181372
1.470015178
1.468190982
1.456786338
1.431875342
1.39585742
0.7555997026
0.7621121913
0.803612223
0.838030784
0.855660474
0.8766255768
0.9133468151
1.01131742
1.202777829
1.400337742
1.47170715
1.469866167
1.469595487
1.458608016
1.432732299
1.398358108
0.7550026204
0.760366468
0.8049609032
0.8445071522
0.8565108271
0.8751864859
0.9026519802
0.9808583207
1.166697699
1.363573379
1.467080601
1.473537866
1.473176284
1.463915285
1.439255489
1.406390743
0.7549170069
0.7592476152
0.80689301
0.8478792976
0.8567443612
0.8745054399
0.894989562
0.9534979661
1.116220546
1.337556221
1.466607366
1.472948707
1.474553901
1.469406395
1.447868335
1.415617768
0.7554542992
0.7584687499
0.8073525563
0.8496225346
0.8572646966
0.8724181788
0.8904397068
0.9337172464
1.056586863
1.281120462
1.451031116
1.470783941
1.473280557
1.469337891
1.451632173
1.423687973
0.756286635
0.7575340888
0.8074064269
0.8509811183
0.8583830958
0.8712131906
0.8863460274
0.920360603
1.017705045
1.206729868
1.404180037
1.459401965
1.46878498
1.468156546
1.454315727
1.430185684
1.388956347
0.7570099305
0.7557010325
0.8049959755
0.8520589288
0.8597857063
0.8701397726
0.8823281658
0.9086665129
0.9903279994
1.1647986
1.365415045
1.446053847
1.464361506
1.466056888
1.454891658
1.4297355
1.389718138
0.7578054786
0.7524858173
0.7997101373
0.8521239929
0.8601339715
0.8686858607
0.8790266489
0.8995861149
0.9601739462
1.12939418
1.344383935
1.436855193
1.464217253
1.466132137
1.455618374
1.42868437
1.390126696
0.7603688859
0.7502320824
0.7953157551
0.8501512141
0.8617790734
0.8677717999
0.8765956258
0.8944292067
0.9370438418
1.071701074
1.314188842
1.436721092
1.467889578
1.467638869
1.457799792
1.429223381
1.392097145
0.7625894532
0.7488800704
0.7912005914
0.8497530273
0.8648917857
0.8676190025
0.8749170604
0.8901628034
0.9228153864
)
;

boundaryField
{
    inlet
    {
        type            calculated;
        value           nonuniform 0();
    }
    outlet
    {
        type            calculated;
        value           nonuniform 0();
    }
    bottom
    {
        type            calculated;
        value           nonuniform 0();
    }
    top
    {
        type            calculated;
        value           nonuniform 0();
    }
    obstacle
    {
        type            calculated;
        value           nonuniform List<scalar> 
38
(
0.9434761509
0.9596315293
0.9426526739
0.9147761941
0.87789572
0.8614331839
0.8427653034
0.8262929723
0.8186336322
0.8088212675
0.7983232927
0.7903515468
0.7876985866
0.7826556491
0.7766118967
0.7740605703
0.7746089855
0.7729038754
0.767838722
0.7637995732
0.7630743426
0.7629703172
0.7615260016
0.7599666612
0.7589709274
0.7573586922
0.7559660547
0.7556404964
0.7557277492
0.7555997026
0.7550026204
0.7549170069
0.7554542992
0.756286635
0.7570099305
0.7578054786
0.7603688859
0.7625894532
)
;
    }
    defaultFaces
    {
        type            empty;
    }
    procBoundary21to15
    {
        type            processor;
        value           nonuniform List<scalar> 
13
(
1.392305914
1.457377073
1.478070749
1.473270172
1.453484225
1.436575902
1.416615258
1.39676477
1.384167077
0.96402985
1.340667894
1.32848731
1.32848731
)
;
    }
    procBoundary21to22
    {
        type            processor;
        value           nonuniform List<scalar> 
35
(
1.374964661
1.377141101
1.380142387
1.386170496
1.393716009
1.399794022
1.399794022
1.396799431
1.400312925
1.402853857
1.409369793
1.411033606
1.409785973
1.409785973
1.387349884
1.384739359
1.387567133
1.38912263
1.390914525
1.393496887
1.399229572
1.399229572
1.379699034
1.379329176
1.377588374
1.377515515
1.379741408
1.38744239
1.395718378
1.395718378
1.366219843
1.366344928
1.365914375
1.365943966
1.367275506
)
;
    }
    procBoundary21to27
    {
        type            processor;
        value           nonuniform List<scalar> 
18
(
1.026494307
1.248622435
1.42001904
1.469267434
1.472307117
1.461517523
1.433746585
1.396943218
0.7654546228
0.7481989223
0.7869112294
0.8497165594
0.8726758119
0.8682661313
0.874195426
0.88487196
1.026494307
0.911820128
)
;
    }
    procBoundary21to28
    {
        type            processor;
        value           nonuniform List<scalar> 8(1.372799247 1.379873253 1.384389145 1.384389145 1.367953109 1.368824312 1.370316228 1.371945692);
    }
}


// ************************************************************************* //
