/*--------------------------------*- C++ -*----------------------------------*\
  =========                 |
  \\      /  F ield         | OpenFOAM: The Open Source CFD Toolbox
   \\    /   O peration     | Website:  https://openfoam.org
    \\  /    A nd           | Version:  7
     \\/     M anipulation  |
\*---------------------------------------------------------------------------*/
FoamFile
{
    version     2.0;
    format      ascii;
    class       volScalarField;
    location    "1.4";
    object      T;
}
// * * * * * * * * * * * * * * * * * * * * * * * * * * * * * * * * * * * * * //

dimensions      [0 0 0 1 0 0 0];

internalField   nonuniform List<scalar> 
555
(
1.007456844
1.006006495
1.001311667
0.9149970572
0.9036054995
0.892069646
0.8690560227
0.8367212685
0.8213085438
0.8200053365
0.8240903562
0.8394905663
0.8747792341
0.9369345679
0.986335415
1.00015862
1.003873319
1.006861759
1.004364522
1.00041636
0.9134435725
0.9038916314
0.8930544916
0.86921923
0.8369897878
0.8219892264
0.8212985867
0.826884258
0.8437867765
0.8892980995
0.9547045773
0.9900728081
0.9992845819
1.00227418
1.005161082
1.002355636
0.9988913476
0.9121196734
0.9038533076
0.8934650425
0.8692638258
0.8369867865
0.8227159465
0.8222301626
0.8290285705
0.8527166456
0.9035763167
0.9591926363
0.9884975952
0.9969930465
1.00005004
1.002872503
0.9999038339
0.9968105245
0.910369227
0.9036301353
0.8935411915
0.8691497883
0.8373820057
0.8239588477
0.823592082
0.8310232359
0.8599553339
0.9097896027
0.9613177642
0.9861915272
0.9934205537
0.997453303
1.000135736
0.9971723334
0.9943533396
0.9089570806
0.9032430836
0.8935699172
0.8689881333
0.8380208038
0.8258844216
0.8256684373
0.8346248298
0.8647148084
0.9192469014
0.9688116347
0.9864191047
0.9908069141
0.9944656701
0.9968900968
0.9943563478
0.9073320525
0.90293551
0.8936690151
0.8686469466
0.8385117867
0.8275750159
0.8280836209
0.8397501539
0.8756757386
0.938544203
0.9786064854
0.987463391
0.9888693965
0.9917714904
0.9939420263
0.9915000024
0.9059647971
0.902912237
0.8941936082
0.8680755283
0.8390432095
0.8288884963
0.8303970407
0.8463625674
0.8942774601
0.9530165157
0.9814309639
0.9864396398
0.987784394
0.9892060288
0.9911170721
0.9884762812
0.9049011939
0.9030726639
0.8950239053
0.8678419658
0.8408210845
0.8314059758
0.8334512288
0.8555801573
0.906352402
0.9563979856
0.9789679314
0.9838375183
0.9862757071
0.987491797
0.9886425455
0.985643118
0.9043243534
0.9031649055
0.8949276246
0.8672541158
0.8430675175
0.8344228324
0.8390094245
0.8644067714
0.913589833
0.9598600019
0.9772792662
0.9809244067
0.9841688421
0.9860330673
0.9867868299
0.9835253798
0.9039142677
0.9033631435
0.8947250976
0.8679401898
0.844692399
0.8372295786
0.8448395062
0.8736677918
0.9272161831
0.9663492903
0.9778040266
0.9791197111
0.9819480815
0.9844668116
0.9851900355
0.9823894752
0.9034385728
0.9040587264
0.8951419684
0.868391112
0.8465395928
0.8405759485
0.8505014635
0.8894147136
0.9432840182
0.9707817145
0.9785471991
0.9789961266
0.9809211739
0.9834465817
0.9840752826
0.982053008
0.9032901262
0.9051119898
0.8956253011
0.8699905186
0.8495867304
0.8445331294
0.8601883164
0.90676196
0.9523246821
0.9720856515
0.9784628544
0.9796866037
0.9805357351
0.9831774336
0.9836103554
0.9819970831
0.9033603458
0.9058304474
0.8957140103
0.8715004572
0.8535616557
0.8518987839
0.8732824083
0.9191538016
0.9591781052
0.9728795867
0.9783355423
0.9800842423
0.9810437442
0.9829767678
0.983175539
0.9035085305
0.9062926074
0.8953761678
0.8726720105
0.8578131839
0.8611273383
0.883964485
0.9318424359
0.9694042403
0.9755948108
0.9783829208
0.9804498471
0.9822897154
0.9833268453
0.9830490435
0.903900677
0.9068631232
0.8956197328
0.8744118858
0.8627212492
0.8676847849
0.8971546622
0.9486364825
0.9754467404
0.9791820418
0.9794902385
0.9810506514
0.9835971935
0.9841774449
0.9834342793
0.9047616763
0.9077301551
0.8961922171
0.8773262817
0.8672643623
0.8764651967
0.9158650542
0.9597102404
0.9777563878
0.9818783873
0.9819807062
0.9823808647
0.984925417
0.9856421017
0.9848244365
0.9061162709
0.9092611491
0.8975646581
0.8804914275
0.874214124
0.8918765023
0.9311598124
0.9658952487
0.9806101999
0.9847089826
0.9855579892
0.984909235
0.9867515911
0.9878319334
0.9873159218
0.9081798831
0.9104680542
0.8981701557
0.8841905313
0.885171057
0.9066716546
0.9447802032
0.9762696701
0.9859404071
0.9881616217
0.9900526808
0.9890330143
0.9896481818
0.9909265002
0.9907146889
0.9093872945
0.9112600964
0.8996514125
0.8896238399
0.893719465
0.9190225496
0.9613003807
0.9901396287
0.9925032758
0.9927815477
0.9946567828
0.9948352204
0.9941198995
0.9950951586
0.9947870421
0.909804435
0.9124677139
0.902936521
0.8945592252
0.9022598187
0.9371726529
0.9772543331
0.9973197382
0.9992275619
0.9986248984
0.9995641579
1.000849531
1.000255251
1.000360453
0.9108721887
0.9144490187
0.9062251789
0.90019977
0.9175515617
0.9564037415
0.9869937203
1.002724839
1.005009716
1.005017244
1.004913602
1.006076836
1.006877808
1.006627023
0.9139373623
0.9163458946
0.9096797268
0.9115094183
0.9359600855
0.96930062
0.994592138
1.008075069
1.010592477
1.011566395
1.010969638
1.011432398
1.012828692
1.013279888
0.9165806492
0.9186476274
0.9149836295
0.9235857899
0.9494756632
0.9842672709
1.006764882
1.01611599
1.017161686
1.01850345
1.01796934
1.017375078
1.019090753
1.019847944
0.9182872534
0.9221958769
0.9221240775
0.9333326527
0.967091325
1.004467266
1.021146156
1.025383325
1.025197092
1.026174197
1.02585264
1.02436658
1.025445151
1.026623871
0.9213369858
0.9263828258
0.9286864224
0.9489297304
0.9940977341
1.023265545
1.032452105
1.035532518
1.034268814
1.034060213
1.034104091
1.032655064
1.032841924
1.033867827
0.9245249541
0.9312459538
0.9383647605
0.9732617829
1.013242745
1.03465912
1.041085933
1.043898418
1.042587154
1.041716257
1.04151909
1.041282999
1.040803735
1.04126251
0.9277761784
0.9378207388
0.9535977239
0.989984969
1.021578581
1.040976415
1.048776109
1.051327542
1.049986361
1.048871167
1.048365685
1.048592025
1.048933012
0.9321397454
0.9440694467
0.966557717
1.001121547
1.033423696
1.049610225
1.054445105
1.056829176
1.055980948
1.055058896
1.053908333
1.055103675
1.056133491
0.9350286212
0.9505193854
0.9797922121
1.020979631
1.050891583
1.059648341
1.060822841
1.061816944
1.061376742
1.060397072
1.059719759
1.060825978
1.063069283
0.9377440098
0.9610377962
1.004456369
1.046320333
1.064649462
1.069034931
1.068081041
1.068187406
1.067720775
1.067015121
1.066574271
1.067069137
1.069955789
0.9439032686
0.976650469
1.027843141
1.058954637
1.071482658
1.075759219
1.076568544
1.075190857
1.07468318
1.074421733
1.074481808
1.075027272
1.077547784
0.9483857731
0.9894762417
1.033933232
1.061041688
1.076869776
1.0821397
1.083852247
1.083283247
1.082435293
1.082683054
1.083078733
1.083937016
1.086046069
0.9476211519
0.9995705244
1.039049579
1.069684519
1.08338502
1.088038809
1.090668172
1.091242346
1.090569892
1.091069399
1.091617405
1.092980281
0.9511767576
1.018140617
1.057210657
1.083982882
1.092686837
1.09431806
1.097171645
1.098754169
1.097849399
1.097788616
1.098736317
1.100636474
0.9591474693
1.051387897
1.080706209
1.099105401
1.105758065
1.104430334
1.104296471
1.103989013
1.102965528
1.103006094
1.104117343
1.107008291
0.9780881447
1.081559778
1.104480557
1.115958695
1.119211906
1.115302189
1.111484969
1.108390926
1.107261562
1.107615737
1.10845345
1.111087866
0.9982654061
1.115302054
1.123260246
1.129429951
1.128187297
1.122949407
1.116126647
1.112272406
1.110679265
1.111038601
1.111832349
1.113806148
1.022958778
1.15162912
1.129306657
1.132538956
1.130519144
1.125191143
1.119103289
1.115350996
1.113662325
1.113946711
1.114561512
1.116062607
1.021681243
1.146880147
1.128525112
)
;

boundaryField
{
    inlet
    {
        type            fixedValue;
        value           nonuniform 0();
    }
    outlet
    {
        type            inletOutlet;
        inletValue      nonuniform 0();
        value           nonuniform 0();
    }
    bottom
    {
        type            slip;
    }
    top
    {
        type            slip;
    }
    obstacle
    {
        type            zeroGradient;
    }
    defaultFaces
    {
        type            empty;
    }
    procBoundary15to9
    {
        type            processor;
        value           nonuniform List<scalar> 
18
(
1.007758542
1.007237698
1.002141492
0.9166708433
0.9031312399
0.8908180873
0.8684255977
0.8371041912
0.8200857232
0.8185743663
0.822817784
0.8375477682
0.8677685324
0.918279038
0.9719569626
0.9972306067
1.004020806
1.004020806
)
;
    }
    procBoundary15to10
    {
        type            processor;
        value           nonuniform List<scalar> 9(1.004314074 1.003633263 1.002438693 1.000431309 0.9978665079 0.9919141867 0.9919141867 0.9894723471 0.986981287);
    }
    procBoundary15to16
    {
        type            processor;
        value           nonuniform List<scalar> 
35
(
0.9846741658
0.9829004439
0.9821999272
0.9822570019
0.9823857182
0.9818107899
0.9818107899
0.9816532384
0.98192999
0.9833351735
0.9860536276
0.9898189054
0.9943380998
0.9996052472
0.9996052472
1.005328257
1.011988642
1.019204165
1.026546492
1.033846385
1.040961238
1.048798077
1.048798077
1.056141425
1.06358007
1.071346106
1.079063734
1.086377425
1.094389873
1.094389873
1.101823857
1.108113772
1.112187845
1.11386674
1.115316144
)
;
    }
    procBoundary15to21
    {
        type            processor;
        value           nonuniform List<scalar> 
13
(
1.130103342
1.127289453
1.122983251
1.119947277
1.117685975
1.11520361
1.115011485
1.115535086
1.116806249
0.9949322759
1.109116986
1.130103342
1.12168616
)
;
    }
}


// ************************************************************************* //
