/*--------------------------------*- C++ -*----------------------------------*\
  =========                 |
  \\      /  F ield         | OpenFOAM: The Open Source CFD Toolbox
   \\    /   O peration     | Website:  https://openfoam.org
    \\  /    A nd           | Version:  7
     \\/     M anipulation  |
\*---------------------------------------------------------------------------*/
FoamFile
{
    version     2.0;
    format      ascii;
    class       volScalarField;
    location    "2";
    object      rho;
}
// * * * * * * * * * * * * * * * * * * * * * * * * * * * * * * * * * * * * * //

dimensions      [1 -3 0 0 0 0 0];

internalField   nonuniform List<scalar> 
555
(
1.414554768
1.412323694
1.410306215
1.41010243
1.411086118
1.411595949
1.411595112
1.410512623
1.40876245
1.407579891
1.406580341
1.405920953
1.405521789
1.405606382
1.406345187
1.407648184
1.409573795
1.419771979
1.418605514
1.416009316
1.412900137
1.412499893
1.412663382
1.412341581
1.411651988
1.410469919
1.409273911
1.408591947
1.408248808
1.407928232
1.40769435
1.407717311
1.408193537
1.40941145
1.422039305
1.42206043
1.421097281
1.417744051
1.41397149
1.413179459
1.413007182
1.412892981
1.412257002
1.411860432
1.412438814
1.413398002
1.41369871
1.413055669
1.411832168
1.410021343
1.408836816
1.421554356
1.421983279
1.422096216
1.421442832
1.418505308
1.415337785
1.414353515
1.414612908
1.414225466
1.414322602
1.415610571
1.417127578
1.418140559
1.418330455
1.417671491
1.415084332
1.4094389
1.419840994
1.421000772
1.421647178
1.422100356
1.421581398
1.419839638
1.418181151
1.417373357
1.416689186
1.416576231
1.417194867
1.418412937
1.4188061
1.419235856
1.418920365
1.417869531
1.413564321
1.417343919
1.418226414
1.419250252
1.420499357
1.421668233
1.421654721
1.420476874
1.419580253
1.419062966
1.418565299
1.417887412
1.417432286
1.417231718
1.41741511
1.417393796
1.417084965
1.415163569
1.414241456
1.415103805
1.416015824
1.417208115
1.419694795
1.420253584
1.420331384
1.419716297
1.419585289
1.419305031
1.418004368
1.41557412
1.414390285
1.414227501
1.413849325
1.413942344
1.413723878
1.41134543
1.411755414
1.412314658
1.414164848
1.415953902
1.417349861
1.41779001
1.417058969
1.417113612
1.417309737
1.416747878
1.413932966
1.411165884
1.410280109
1.409908104
1.409931715
1.412028641
1.410692555
1.409565849
1.409642083
1.411301853
1.412567468
1.413479903
1.413538977
1.412941943
1.412888936
1.413512978
1.413611244
1.411621068
1.408569124
1.406575001
1.406221835
1.408036579
1.411871484
1.413953531
1.41259851
1.41112312
1.409991435
1.408997465
1.409128823
1.409548257
1.410309282
1.410463601
1.41017462
1.409914299
1.408865212
1.408256751
1.406136859
1.403567076
1.403347642
1.406008532
1.408303408
1.412421487
1.412493843
1.412726495
1.411445981
1.408034737
1.405614671
1.405539117
1.405975668
1.405819943
1.404760751
1.404046428
1.404114035
1.404229608
1.404169891
1.402993272
1.402446686
1.402465728
1.403369827
1.408508914
1.40922763
1.410317277
1.409897085
1.407165275
1.403339761
1.401305211
1.400559214
1.399779739
1.398155305
1.397437639
1.398450513
1.399492956
1.40104466
1.401992066
1.402100311
1.39926382
1.398078678
1.401824874
1.403785687
1.40458886
1.404466696
1.40374292
1.401557817
1.398925348
1.397448283
1.395848715
1.393405095
1.391477352
1.392347227
1.393841368
1.396673628
1.398696619
1.399058557
1.396961515
1.393895567
1.393274808
1.395117053
1.39553467
1.396530036
1.397153004
1.396564931
1.39564959
1.394660694
1.393432433
1.391273879
1.388184597
1.386401187
1.387121448
1.389930698
1.391295261
1.391374827
1.391056336
1.388892062
1.382193499
1.383565247
1.384744993
1.386421703
1.388201211
1.389117786
1.389464486
1.389014012
1.388213579
1.38713785
1.385995881
1.382474463
1.38015963
1.380751344
1.381661323
1.382075532
1.381922012
1.381188873
1.371390887
1.372274149
1.373278553
1.375056404
1.377602711
1.379406907
1.37994962
1.379745399
1.379327992
1.379557502
1.379672649
1.377500291
1.373527996
1.370690337
1.370200133
1.370481558
1.3712013
1.371310364
1.360581568
1.360964699
1.361899338
1.36306884
1.366320759
1.368556859
1.368931018
1.368667996
1.368789108
1.370233253
1.370737219
1.369400547
1.365956114
1.360632438
1.358277388
1.357341509
1.357742966
1.360408937
1.352138717
1.351597286
1.350940397
1.351728322
1.35353892
1.356348114
1.356948625
1.357012109
1.357605545
1.360328393
1.361102152
1.359818892
1.356718713
1.351433407
1.346880618
1.344421405
1.344097155
1.347179613
1.343081407
1.341983673
1.341347095
1.341305078
1.341540775
1.341676525
1.342112681
1.343193277
1.345191708
1.345919708
1.347518231
1.348389566
1.345792981
1.342397066
1.336486537
1.332823853
1.332271079
1.335100624
1.334022912
1.332547891
1.332036411
1.331454414
1.331208886
1.330263698
1.330203779
1.330261398
1.330459572
1.330490233
1.330905269
1.332645703
1.333789925
1.331548098
1.327561801
1.323136746
1.321908215
1.325078831
1.324001229
1.323672823
1.323331587
1.323009223
1.321019696
1.319562059
1.319336646
1.319701551
1.318994597
1.317817353
1.316646102
1.316270132
1.319258696
1.32005082
1.318055945
1.316199228
1.314810395
1.314957902
1.31174856
1.312319613
1.312388598
1.312418035
1.311248517
1.310231502
1.31002444
1.30962397
1.308162617
1.306330829
1.30391301
1.302745629
1.304114478
1.307618773
1.307968364
1.308246603
1.307900619
1.305964472
1.299741294
1.300011653
1.300906457
1.301743685
1.301967982
1.301429731
1.300505437
1.300296555
1.299456118
1.297913073
1.29519569
1.292151827
1.291768529
1.29257747
1.29498355
1.29836038
1.300311636
1.300438602
1.298307037
1.28949418
1.290390453
1.291017142
1.291856631
1.29225317
1.291876747
1.292518866
1.292288706
1.291209183
1.289145694
1.286031801
1.282615582
1.282724719
1.283421835
1.285517097
1.290051367
1.29198566
1.292043949
1.289862119
1.281359671
1.282361861
1.282796595
1.283582763
1.284861244
1.285196023
1.285049489
1.284609917
1.283596161
1.281199491
1.277770555
1.277370422
1.276917839
1.277089922
1.278083739
1.280572147
1.283571421
1.284056444
1.281965594
1.275604841
1.276682061
1.277194687
1.278527573
1.278948477
1.278954964
1.278291066
1.277562648
1.276117926
1.274966478
1.274695797
1.275248856
1.274207732
1.272990431
1.273072125
1.273876034
1.275012365
1.275609865
1.274559353
1.272510372
1.273011918
1.273259376
1.27398364
1.274479919
1.273941964
1.271843646
1.270660368
1.269526195
1.269548239
1.270845009
1.272977198
1.272996074
1.271037503
1.269270312
1.26900849
1.268381432
1.267848703
1.268629722
1.269681981
1.270081283
1.270337493
1.269920853
1.269701181
1.26849977
1.26791672
1.267329596
1.266652257
1.266613362
1.26832349
1.270236689
1.270577749
1.269149373
1.266772658
1.26459651
1.2623354
1.261644494
1.26506204
1.267646343
1.267463661
1.267313058
1.266325148
1.266011978
1.264978805
1.264379315
1.264118682
1.264506664
1.265432417
1.267311946
1.268401838
1.268071331
1.26759753
1.263657316
1.25964933
1.258675157
1.259393257
1.262837503
1.265445693
1.265000893
1.264329499
1.263595864
1.26329689
1.262998216
1.262419267
1.262084583
1.262847443
1.265357268
1.267736645
1.267414844
1.26612985
1.264872949
1.263282842
1.259316412
1.258032376
1.258771556
1.262123525
1.262869674
1.262535987
1.261654949
1.261252374
1.261333312
1.26184522
1.261814565
1.262607339
1.264467412
1.266479832
1.266410422
1.266001448
1.264929204
1.263082446
1.261866725
1.260141786
)
;

boundaryField
{
    inlet
    {
        type            calculated;
        value           nonuniform 0();
    }
    outlet
    {
        type            calculated;
        value           nonuniform List<scalar> 
30
(
1.409373491
1.409362781
1.408877067
1.40992765
1.414109193
1.415342092
1.413608976
1.411639414
1.411532826
1.408153357
1.403287957
1.398194175
1.394351554
1.389333141
1.381381591
1.371235106
1.360222484
1.346753346
1.334524554
1.324795645
1.314986737
1.306287878
1.298682384
1.290162777
1.282264632
1.27467877
1.268664047
1.264829473
1.2624226
1.261905
)
;
    }
    bottom
    {
        type            calculated;
        value           nonuniform 0();
    }
    top
    {
        type            calculated;
        value           nonuniform 0();
    }
    obstacle
    {
        type            calculated;
        value           nonuniform 0();
    }
    defaultFaces
    {
        type            empty;
    }
    procBoundary17to11
    {
        type            processor;
        value           nonuniform List<scalar> 
17
(
1.408861294
1.407714677
1.407316741
1.407939527
1.408861424
1.40984486
1.410098461
1.408825907
1.407677043
1.406815142
1.406014133
1.40534812
1.404808355
1.404624616
1.405176435
1.407015963
1.409665024
)
;
    }
    procBoundary17to16
    {
        type            processor;
        value           nonuniform List<scalar> 
32
(
1.416182333
1.420329135
1.422118756
1.421034
1.418375922
1.416071695
1.413222699
1.411386493
1.412700189
1.412700189
1.414402787
1.412165107
1.407814445
1.400673064
1.3916152
1.380780923
1.370065639
1.360948965
1.352366105
1.343749104
1.33490065
1.324613066
1.312046392
1.312046392
1.29968628
1.289358991
1.281212939
1.275529859
1.272054497
1.269491974
1.26761352
1.264805431
)
;
    }
    procBoundary17to22
    {
        type            processor;
        value           uniform 1.261655302;
    }
    procBoundary17to23
    {
        type            processor;
        value           nonuniform List<scalar> 
20
(
1.258704318
1.259448933
1.262245547
1.260963333
1.260439761
1.259950445
1.260104801
1.261302585
1.261706597
1.261506975
1.261498062
1.262455603
1.263133871
1.263287349
1.263225316
1.263664681
1.262613773
1.261839352
1.258704318
1.261262632
)
;
    }
}


// ************************************************************************* //
