/*--------------------------------*- C++ -*----------------------------------*\
  =========                 |
  \\      /  F ield         | OpenFOAM: The Open Source CFD Toolbox
   \\    /   O peration     | Website:  https://openfoam.org
    \\  /    A nd           | Version:  7
     \\/     M anipulation  |
\*---------------------------------------------------------------------------*/
FoamFile
{
    version     2.0;
    format      ascii;
    class       volScalarField;
    location    "2.6";
    object      p;
}
// * * * * * * * * * * * * * * * * * * * * * * * * * * * * * * * * * * * * * //

dimensions      [1 -1 -2 0 0 0 0];

internalField   nonuniform List<scalar> 
2225
(
0.3758922519
0.3765931414
0.3848913966
0.430981013
0.5496911753
0.67868309
0.8090482087
1.023308911
1.533241775
2.39954676
2.556666569
2.628585974
2.661579337
2.634464046
2.571785821
2.496589175
0.4053162171
0.4029834734
0.4003023985
0.3998623758
0.3993223315
0.3972118983
0.394731499
0.3942947094
0.3938183645
0.3919488986
0.3894862649
0.3889220981
0.3885236597
0.3867956393
0.3843478557
0.3836274324
0.3829427043
0.3808246612
0.3801788458
0.3811115651
0.3893160896
0.4251781892
0.4942074308
0.6134855451
0.8615825998
1.6887135
2.23133428
2.506760315
2.629226352
2.607830985
2.538132828
2.46901001
0.413752392
0.4125184938
0.4092706509
0.4074921867
0.4072189989
0.4061596317
0.403251969
0.4016121086
0.4013981546
0.4005085742
0.3979980288
0.3962134518
0.3958978307
0.3951848911
0.3929357051
0.3909259393
0.3906982455
0.3898720206
0.3873056274
0.3852364561
0.3856618245
0.3864063291
0.389431122
0.4040792695
0.447874528
0.7782824676
1.735120155
2.343670238
2.589906604
2.57771238
2.536707787
2.475745104
0.42216903
0.4215809236
0.4194138978
0.4160013915
0.4150844952
0.414612313
0.4127212529
0.4095073536
0.4085964598
0.4082228813
0.4066249999
0.4037050256
0.4028751048
0.4026235167
0.4014375288
0.3988947032
0.3976838924
0.3974792014
0.3964612376
0.3937062134
0.3919733258
0.3913531891
0.3901285236
0.3898994349
0.3907205903
0.4134256803
0.8220382858
1.648193583
2.404793753
2.629698578
2.604376185
2.521660839
0.4303242866
0.4299663197
0.4290543272
0.4259680703
0.4232927047
0.4229029145
0.4220815058
0.419332488
0.4166668806
0.4162220017
0.4155351548
0.4131528186
0.4105132863
0.4099528223
0.4093698337
0.4073923265
0.4047127094
0.4041658696
0.4038694054
0.4023786194
0.3997801009
0.3988067016
0.3980187201
0.396113707
0.394000177
0.3943405859
0.4152857997
0.7408238064
1.610576687
2.445296799
2.492910624
2.492852219
0.4405689583
0.4386912929
0.4380886515
0.4362429452
0.4324476101
0.4307135968
0.4302641795
0.4287388494
0.4252933805
0.4235425013
0.4232008101
0.4220078038
0.4189418421
0.4170791567
0.4167986568
0.415897899
0.4133363564
0.4111675891
0.4107631049
0.4101150752
0.4078894568
0.4055743693
0.4051896297
0.4044444688
0.4020432413
0.3993247428
0.3998000826
0.4114444066
0.6504999475
1.719552029
2.448935303
2.572131348
0.4508436749
0.4469777746
0.4462313244
0.4455322948
0.4428879721
0.439292411
0.4384298503
0.4377672858
0.4354381552
0.431961609
0.4309704257
0.430445124
0.4285665782
0.4252763238
0.4240571144
0.4236304134
0.4221454786
0.4191170042
0.4176492903
0.417332528
0.4163043449
0.4135947955
0.4119748014
0.4117369826
0.4106410701
0.4081378257
0.4060463027
0.4059096695
0.4130391468
0.7309523082
1.86845652
2.480842742
0.4618684778
0.457730431
0.4547966246
0.4542143084
0.4528307975
0.4491060171
0.4462793591
0.4457652914
0.4446713096
0.441523056
0.438680261
0.4381157782
0.4372678
0.4346437857
0.43163097
0.4309549913
0.4303547194
0.4282827982
0.4253194605
0.4244395721
0.423946036
0.4222599833
0.4193581646
0.4184162464
0.41799794
0.4162947428
0.4140610018
0.4122998895
0.4122262923
0.4290053043
0.9006365731
2.091561182
0.4716116823
0.4690238187
0.4644575855
0.462576449
0.4618724964
0.4596900599
0.4554313982
0.453555434
0.4530082457
0.4512601412
0.447445129
0.4453920834
0.4449526935
0.4436534355
0.4403705035
0.4379615268
0.4375216504
0.4365657573
0.4337569779
0.4310977378
0.4306324302
0.4299226994
0.4275000652
0.4249428529
0.4245639681
0.4237561881
0.4213999507
0.4197490423
0.417820833
0.4179645956
0.4478816988
1.354223831
0.48015439
0.4790928703
0.4756169638
0.4715797104
0.4706596776
0.469672767
0.4665961956
0.4626344896
0.4614571894
0.4606175865
0.4581085451
0.4542658478
0.4528302977
0.4521724682
0.4502412473
0.4466131828
0.4448998206
0.4444374008
0.4430212223
0.439757407
0.4378376828
0.4374300534
0.4362237261
0.4331362619
0.4313507851
0.4309942368
0.4294794924
0.4268709489
0.4257288562
0.4237427367
0.423416106
0.6991778736
0.4895311149
0.4885963193
0.4865795762
0.4819213582
0.4786016804
0.4778110413
0.4762546835
0.4723083966
0.4690712898
0.4684414457
0.4673289872
0.4641086872
0.4606497377
0.4597904799
0.4589134034
0.4562898772
0.4527438263
0.4516633375
0.4510092041
0.448890492
0.4454431011
0.4442741009
0.4437643882
0.4418936595
0.4387200226
0.437880284
0.4373050113
0.4350537547
0.4331058044
0.4322174846
0.4296245349
0.4562061474
0.4993921306
0.4972652846
0.4963255032
0.4936196077
0.4887360814
0.4865784575
0.4857620676
0.4834923816
0.4790157521
0.476455456
0.4756739901
0.4739137134
0.4699710394
0.4670861404
0.4664459548
0.4652175999
0.4619183032
0.4587951656
0.4581497972
0.4572336617
0.4543702182
0.451274721
0.4506919032
0.449894316
0.4471156455
0.4445076865
0.4440024402
0.4427991484
0.4399348606
0.438729492
0.4368071062
0.4371468986
0.5114682406
0.5066933391
0.5054682572
0.5041109636
0.5003206344
0.4956688828
0.4941569919
0.4930095482
0.4899711453
0.4855010049
0.4838085213
0.4830061946
0.4807301346
0.4765177675
0.4744161544
0.4737417158
0.4719757616
0.4681502474
0.4658061359
0.4652220047
0.4637702369
0.4602578587
0.4579643385
0.4574112293
0.4559611577
0.4525514713
0.4509816127
0.4504025387
0.4483611145
0.445916094
0.4447729644
0.4422792403
0.5237995591
0.5183715229
0.5143320567
0.513083117
0.5110605246
0.5064430086
0.5024499998
0.5014618973
0.5000281589
0.4962551225
0.4921001962
0.4908875427
0.4897306971
0.4866000278
0.4823658403
0.4809825145
0.4801385987
0.4776260579
0.4735710057
0.4720991815
0.471442106
0.4692800255
0.4655113519
0.4642901963
0.463700535
0.4614131864
0.4582193759
0.4574479961
0.4564167208
0.4537048819
0.4521215523
0.4499271387
0.5334913135
0.5302285965
0.5245750223
0.5219883068
0.5210100412
0.5184415717
0.5133885739
0.5101598624
0.5090389408
0.5069239657
0.5024241811
0.4988427885
0.4979115045
0.496453337
0.4926945115
0.4889420281
0.4880295099
0.4868937169
0.4836159318
0.4798835155
0.4790017492
0.4780307982
0.4749573249
0.4715894446
0.4708454153
0.4697452931
0.4664577155
0.4641393801
0.4634770914
0.461694084
0.4592855476
0.4567442882
0.5436555727
0.5420260774
0.5377346143
0.5321408682
0.5298684241
0.5283010124
0.5247565703
0.5194311123
0.5171271754
0.5161234416
0.5135590931
0.5087304722
0.5061051479
0.505229422
0.503130923
0.4986994057
0.4958104279
0.4950143996
0.4933005736
0.4892781324
0.486445348
0.4857704584
0.4842357155
0.4804060578
0.4780780944
0.4774643837
0.4755888063
0.47209741
0.4708035176
0.4697244244
0.4676274726
0.4643238376
0.552987195
0.5511866258
0.5487456231
0.5435916541
0.5386504683
0.537239655
0.5356501118
0.53156002
0.5265174968
0.5247437924
0.5233311329
0.5198133303
0.5148048274
0.5128390612
0.5117590718
0.5089274948
0.5041854163
0.5022690004
0.5014673008
0.4990630153
0.4946269614
0.4928336162
0.49212442
0.4897604893
0.4857187338
0.4844150994
0.4835391535
0.4806189009
0.4777896402
0.4767932066
0.4753703913
0.4720076496
0.5643361178
0.5605424196
0.55920536
0.5564612753
0.5508130828
0.54661784
0.5451293536
0.5427154728
0.5376203833
0.5330791693
0.5317586298
0.5300967998
0.5259481871
0.5215113812
0.5202868436
0.5189412284
0.5152622254
0.510864045
0.5095292882
0.5083185007
0.5049455459
0.5007986701
0.4996870758
0.4985904302
0.4951851724
0.4917572135
0.4909603703
0.4894501209
0.4859376504
0.4839610072
0.4828871866
0.4797514092
0.5786014097
0.5720618251
0.568756887
0.5667762352
0.5628624999
0.5566923102
0.5533334288
0.5520257789
0.5492911263
0.5438186164
0.5403383079
0.5392269751
0.5369029631
0.5318883463
0.5281559361
0.5270250936
0.5250539059
0.5205217525
0.5169737711
0.5161307557
0.5145241497
0.5103325803
0.5071495365
0.5064074291
0.5046764229
0.5005377261
0.4982990878
0.497428398
0.4950207147
0.4917543208
0.4904067975
0.4876896731
0.5897823498
0.584376832
0.5782407661
0.5759789948
0.5741758358
0.5699059854
0.5639262131
0.5614930843
0.5599001944
0.5560816685
0.5502405091
0.5474506433
0.5460830968
0.542995163
0.5376168637
0.5350264566
0.5340274783
0.5314180524
0.5264154189
0.5238532045
0.5228856999
0.5203699275
0.515593772
0.5134702955
0.5126215695
0.5099089961
0.5058064181
0.5045695167
0.5032964698
0.5001773652
0.4978707821
0.495121515
0.6009471621
0.5979588033
0.5918736243
0.5863748754
0.5841882377
0.5814838268
0.5759482972
0.5702681391
0.5682437677
0.5663003927
0.5617981727
0.5563662387
0.554689631
0.5532373617
0.5493179366
0.5441116256
0.5422233476
0.5407909694
0.5371466944
0.532206503
0.5305946976
0.5294533568
0.5260785804
0.521611198
0.5203830134
0.5191152251
0.5153304451
0.5120667358
0.510979073
0.5088803355
0.5059935799
0.5024866171
0.6106744448
0.6083886773
0.6043859887
0.5976242578
0.5929473589
0.591131253
0.5882398841
0.5823381744
0.5776790071
0.5762091101
0.5737853406
0.5683550833
0.5635574072
0.5619127261
0.5596707546
0.5546716839
0.5500869873
0.5488512756
0.5471188691
0.5426526528
0.5385075141
0.5374278043
0.5357100588
0.5313010771
0.5277927113
0.5268495678
0.5248223758
0.5206079991
0.5184818932
0.5171001598
0.5147658261
0.5106104962
0.6221316666
0.6184227378
0.6161861413
0.6116581021
0.6048104618
0.6012014249
0.5992111682
0.595187866
0.5886130613
0.5846861385
0.5829070916
0.579575449
0.5735315598
0.5699552414
0.5687696077
0.566137895
0.5606631232
0.5572448161
0.5560390483
0.5534295623
0.5481702155
0.5449590502
0.5438912333
0.5414134872
0.5365053605
0.5342079994
0.5331592084
0.5302349291
0.526445357
0.5246599654
0.5229764429
0.5189165173
0.6361494629
0.6290662916
0.6261168919
0.6233775077
0.6177503503
0.610956414
0.6079486925
0.6057148283
0.6011447648
0.5947450825
0.5920605486
0.5904176156
0.5864129559
0.5803056649
0.5775980046
0.5759361553
0.5720472913
0.5662324668
0.5637698441
0.5624123183
0.5590348443
0.5537987815
0.5518060407
0.5505823205
0.547153553
0.5425455588
0.5408422488
0.5391477799
0.5354943669
0.5322361647
0.5305137847
0.5268252305
0.6500958191
0.6430084532
0.636527666
0.6339106791
0.6307487026
0.6244155772
0.6183019777
0.6160193931
0.6133771388
0.6076977079
0.6016784652
0.5993351704
0.596904788
0.591629662
0.5859318709
0.5840612689
0.5821852972
0.5775897638
0.5724503846
0.5708311026
0.5690866129
0.5647411938
0.5599466883
0.5583082211
0.5565038341
0.5522824325
0.5485368323
0.5471097182
0.5449207831
0.5412908646
0.5388314426
0.5351607914
0.6614231033
0.6567393835
0.6489972092
0.6435609294
0.6411633844
0.6372890356
0.6302675974
0.6249826412
0.6227621074
0.6194285976
0.6130631437
0.607998613
0.6062940023
0.6036025051
0.5977194745
0.5931751287
0.5916499153
0.5889777881
0.5834477518
0.579082953
0.5774296236
0.5749665013
0.5699954251
0.5660791861
0.5647175935
0.5623942687
0.5579265302
0.554836923
0.5530509969
0.5501627404
0.5470525366
0.5428680775
0.6719796726
0.6690023193
0.6637769454
0.655914475
0.6513101529
0.6488008139
0.6441885526
0.6367492573
0.6325122623
0.6304723488
0.6264178639
0.6195571781
0.6156271648
0.6136775039
0.6096992631
0.6031946616
0.5996058327
0.597810831
0.5943699114
0.5887471145
0.5854422442
0.5839207447
0.5810382199
0.5759744997
0.5726794036
0.5709883178
0.567933098
0.5635694874
0.5607901683
0.558541289
0.5558674654
0.5512326395
0.6841467652
0.6799726947
0.6763735735
0.6699553088
0.6621740104
0.6584290403
0.655627773
0.6500301989
0.6426872937
0.6393893796
0.6369601535
0.631820462
0.6249992765
0.6221012711
0.6200074749
0.615403435
0.6094083209
0.6068487778
0.6048549354
0.6007702738
0.5953258117
0.5922349769
0.590179537
0.5865671979
0.5814961715
0.5786288393
0.5767698682
0.5735168872
0.5696508535
0.5669550592
0.5646899492
0.5600379168
0.6976930833
0.6904614994
0.687005128
0.6832318523
0.6763638601
0.6691316761
0.6660385444
0.6628923755
0.6564452383
0.649585717
0.6469880587
0.6441706883
0.6380765469
0.632074991
0.629793057
0.6269500832
0.6212965005
0.615914558
0.6132684117
0.6105206496
0.6059898323
0.6008709089
0.5980836844
0.5960251698
0.5923488167
0.5875994344
0.5849058044
0.5825725257
0.579005962
0.5751823143
0.5725742028
0.5681546866
0.7135102813
0.7050078354
0.6985288737
0.695113338
0.6903640039
0.6824161313
0.6760201643
0.6731705485
0.6691821468
0.6617617558
0.6560164871
0.6537314571
0.650060899
0.6432254944
0.6383174762
0.6360258574
0.6325164822
0.6268952298
0.6222896601
0.6197055013
0.6169021718
0.6124393295
0.6075014425
0.6046823708
0.6022009931
0.5980612005
0.593459694
0.5907481453
0.5881621207
0.5845639539
0.5815039185
0.5768738508
0.7253370656
0.7190552734
0.7102357389
0.7047736215
0.7015512841
0.6963832948
0.6883082997
0.6830495163
0.6803906988
0.6757600198
0.6680039146
0.6633985263
0.6610402143
0.6564945732
0.6495951058
0.6456558709
0.6430866061
0.6389315968
0.6333790698
0.6288854452
0.6258545336
0.622591706
0.6178176809
0.6128812126
0.6101732678
0.6076047448
0.6035091471
0.5994101669
0.5967051569
0.5937764826
0.5905701649
0.5853988196
0.7367511131
0.7330650212
0.7262279791
0.7175217164
0.7130257742
0.7095510119
0.703132196
0.6948164547
0.6904694318
0.6873522483
0.6814126657
0.6737606399
0.6701367467
0.6672902983
0.6617953345
0.6554338526
0.6518468859
0.6487137421
0.6443466981
0.6391124359
0.6346293939
0.6317282895
0.6286838753
0.6239897806
0.6193826441
0.6167086204
0.6137395953
0.6093766171
0.6054295706
0.6022646836
0.5993271653
0.5940752845
0.748573474
0.7440313593
0.7396125502
0.7315299256
0.7231683867
0.7192669509
0.7153639745
0.7082743546
0.7007018992
0.6972622932
0.6938477701
0.6873106548
0.6804472443
0.6772887059
0.6739079612
0.6680744028
0.6622962994
0.6586214895
0.6552283852
0.6508777975
0.6455562074
0.6409911779
0.6379988086
0.6344739708
0.6293562427
0.6249890654
0.6221176561
0.6188390286
0.6147813001
0.6111221057
0.608328509
0.6031756675
0.7639771942
0.7552489828
0.7512651312
0.7465830303
0.7379496738
0.7305163864
0.7272704937
0.7228319085
0.7147973622
0.7080637613
0.7047600267
0.7003367991
0.6929721998
0.6869737991
0.683699169
0.6795700417
0.6736223787
0.6681464342
0.6642350039
0.6607142645
0.6563283831
0.6509249084
0.6465889631
0.6436979516
0.6401104492
0.6352025949
0.6312997109
0.6282919463
0.6247221633
0.6206842793
0.6173680389
0.611937736
0.7799919367
0.7701406555
0.7623867584
0.7585476678
0.7528152338
0.743368293
0.736859297
0.733443707
0.7279953693
0.7196692931
0.7141093055
0.7108714986
0.7059834986
0.6989360985
0.6936009315
0.6900929796
0.6858063257
0.6801577096
0.6746551334
0.6706380695
0.6672225425
0.6626676503
0.6570875872
0.6530787716
0.6499626127
0.6457987744
0.6409261856
0.6370384596
0.6336361503
0.6296861471
0.6262267739
0.6207176854
0.7924908106
0.7858786565
0.7758765658
0.7691050642
0.7652907567
0.7589905605
0.7495123572
0.7441462853
0.740803073
0.734679261
0.7265145565
0.7217075422
0.7180148369
0.7122740053
0.7052717345
0.7000559353
0.6961142743
0.6915721717
0.6857790552
0.6801048583
0.6762325969
0.6727108817
0.6678137056
0.6623769363
0.6586478617
0.6553495115
0.6510346793
0.6466413378
0.6430127892
0.6393620658
0.6359643514
0.6301934621
0.8043618568
0.7997385675
0.792275269
0.7821744947
0.776404673
0.7722926164
0.7648099869
0.7555208353
0.7508073517
0.7467355465
0.7395901311
0.7319005971
0.7274372053
0.7233313369
0.7176161742
0.7111648444
0.7059842415
0.7020339052
0.6977105842
0.6919655217
0.686260202
0.6826581324
0.6790666387
0.6738364514
0.6687029124
0.6650547971
0.66135765
0.6567954219
0.6524874333
0.6485705876
0.6449821003
0.6389080372
0.817287139
0.8110092631
0.8059576043
0.7977269585
0.7880860714
0.7829660197
0.7784331803
0.7704245936
0.7618428145
0.7576367279
0.7532451071
0.7459184961
0.7388870586
0.734538212
0.7301131484
0.7242153661
0.717632712
0.7122291391
0.7082329312
0.703606842
0.697363363
0.6918249473
0.6882997227
0.684317345
0.6788078109
0.6740366404
0.6704380783
0.6664390466
0.6620473205
0.6578928641
0.6544677678
0.6484507184
0.8336745307
0.8236699869
0.8180305189
0.8126429344
0.8036782773
0.7946914332
0.7900657819
0.7849328058
0.7761742028
0.768363289
0.764141973
0.7589293322
0.7512728207
0.7444952346
0.7398476183
0.7351870579
0.7294030782
0.7229331682
0.7177024263
0.7139422744
0.7093872378
0.7030812757
0.6979455662
0.6945328793
0.6902971823
0.6848457218
0.6803313381
0.6765966218
0.6723472935
0.6678223542
0.6641046684
0.6578037101
0.8490248479
0.839292966
0.8299016055
0.8244857838
0.818431623
0.8090354003
0.8008414368
0.7962380593
0.7905024715
0.7817762929
0.7746256787
0.7702865339
0.7648925323
0.7575491351
0.750994457
0.7463490782
0.7418676699
0.7360041689
0.7292172019
0.7241517773
0.7203030699
0.7151715521
0.7085685826
0.703727405
0.7001252322
0.6953544391
0.6899344514
0.6855588859
0.6816474636
0.6771963986
0.6732679748
0.6669425437
0.8551260745
0.8450593433
0.8363608899
0.8311086119
0.8245380342
0.8149307649
0.8074908185
0.8028795051
0.7965833775
0.7878149175
0.7810801176
0.7764483096
0.7706979902
0.7632143195
0.7564857377
0.7516927584
0.7470295748
0.740927127
0.7341084331
0.7294296237
0.7256805768
0.7204270178
0.7141222186
0.7096241292
0.7059363826
0.7011020281
0.695946836
0.691727663
0.6875221422
0.6835442973
0.6768271552
0.8683732899
0.8609190843
0.8507123677
0.8426531278
0.8372233929
0.8300140222
0.8205296174
0.8135602324
0.8085794407
0.8019492608
0.7935189339
0.7869231886
0.7820937285
0.7764712936
0.7692075162
0.7624010395
0.7578884701
0.7534488598
0.7471563756
0.7403916598
0.7359779052
0.7320043155
0.7261651857
0.7198965231
0.7154855401
0.7113709814
0.7062194352
0.7011350024
0.6966648327
0.6927569437
0.6859335631
0.8809878715
0.8745386626
0.8666287477
0.8565189791
0.8489647657
0.8433634842
0.835777194
0.826529913
0.8198932957
0.8147227757
0.8079354966
0.7996088445
0.793006481
0.7881480664
0.7823948042
0.7748204181
0.7679397885
0.7634495141
0.7586909358
0.7519139989
0.7453034409
0.7410834223
0.7369211819
0.7311064007
0.7252755236
0.7210136716
0.7167684213
0.7118180312
0.7068564323
0.7029092775
0.6960921668
0.8956928726
0.8870945457
0.8804854859
0.8721710316
0.8622952363
0.8550623248
0.8490925081
0.8412262744
0.8322712012
0.8256451636
0.8201643878
0.8133222151
0.8051705589
0.7984766833
0.7936053774
0.787967324
0.7803758815
0.7736199046
0.7693613784
0.7646637005
0.7577928606
0.7515078845
0.7474682158
0.7430220375
0.736961673
0.7312478585
0.7268102205
0.7222090368
0.7169849097
0.712525025
0.7053604254
0.9114634322
0.901361384
0.8930770524
0.88625181
0.8776978873
0.8681297491
0.8610488782
0.8548318896
0.8469017978
0.8381881858
0.8315360865
0.8260470591
0.8192304248
0.8109957816
0.8043620466
0.7996064749
0.7938093021
0.7858723695
0.7792964693
0.7750400909
0.769875981
0.7626915083
0.7565835306
0.7524112689
0.7476416806
0.7417258165
0.7363336373
0.7319135662
0.7271750674
0.722728654
0.7154036059
0.9255385458
0.916841457
0.9069730387
0.8989171932
0.8918362643
0.8831615922
0.8739008464
0.8667959392
0.8603435724
0.8523996134
0.8438046874
0.8370479747
0.8314245004
0.8245820688
0.8163080947
0.8097210186
0.8049489458
0.7990788568
0.7911835827
0.7848209256
0.7806185088
0.775383323
0.7683521529
0.7625635165
0.7584093839
0.7535115924
0.7476524603
0.742367334
0.7375661142
0.7331434797
0.7253915403
0.9386936287
0.9308613653
0.9221171618
0.9125431236
0.9045752891
0.8973012756
0.8886207468
0.8796156555
0.8724253473
0.8658696978
0.8580080107
0.8494358084
0.8426874649
0.8371386369
0.8302670319
0.8218896079
0.8154920928
0.8108144174
0.8046952434
0.7966742315
0.7905518795
0.7862314848
0.7805717082
0.7734695094
0.7677497906
0.7632563796
0.7580589353
0.7523422454
0.7470247979
0.7427335754
0.7352118075
0.9523088584
0.9438604415
0.9360128694
0.9273079652
0.9180181839
0.9100684416
0.9026411713
0.8940462287
0.8851820433
0.877909876
0.871271139
0.8634423237
0.8548458104
0.8480949948
0.8424766581
0.8354652945
0.8270972501
0.8207995082
0.8159934041
0.8097043708
0.801874082
0.7959225363
0.7914561823
0.7857637712
0.7789597038
0.7734178774
0.7688262664
0.7637061134
0.758043477
0.753379867
0.7456364245
0.9652643602
0.9570131777
0.948817321
0.9410043272
0.9324021023
0.9233832056
0.9154075724
0.9078962211
0.8994275245
0.8906381787
0.8833082932
0.8766698007
0.8688627314
0.8602592848
0.853579527
0.8480005784
0.8408727961
0.832546653
0.8264372447
0.821610541
0.8151192215
0.8073653495
0.8015683567
0.796899053
0.7909555177
0.784217467
0.7786174247
0.7737122315
0.7682328526
0.7631860055
0.7551128681
0.9762750449
0.969340867
0.9615167854
0.9535754668
0.9458246458
0.9374119755
0.928589506
0.9206160538
0.9130638461
0.904725617
0.8959687124
0.8886120184
0.881969047
0.8741183398
0.8655393474
0.8589086537
0.8532184148
0.8459310146
0.8377213899
0.8316732209
0.8265988041
0.8199933306
0.8125052153
0.8067434421
0.8018340957
0.7959391016
0.7894901501
0.7840013895
0.7788228077
0.7740623142
0.7658312454
0.9853632384
0.979689912
0.9731904328
0.9657865502
0.9581283882
0.9504885136
0.9422941067
0.9336649167
0.925683772
0.9181641039
0.9099144189
0.901212785
0.893845243
0.8872141318
0.879324338
0.870812463
0.864255317
0.8585031443
0.8511330825
0.8430772778
0.8371180652
0.8319328347
0.8252535035
0.8179395202
0.8122206388
0.8070961485
0.801121442
0.7947965462
0.7890559585
0.7842492114
0.7757877365
0.9921965537
0.9879661629
0.9828185328
0.9767716214
0.9698253522
0.9624625275
0.9549918831
0.947041565
0.9385827019
0.9306401626
0.9231684731
0.9149990161
0.9063496021
0.899008686
0.8923421238
0.8844131936
0.8759974805
0.8694670378
0.8635534288
0.856104036
0.8482230566
0.8422340929
0.8367645577
0.8300740152
0.8229827389
0.8172118776
0.8118449901
0.8059553029
0.7997242205
0.7946366842
0.7862203477
0.9965025414
0.9939004698
0.9902631924
0.9856302823
0.9800970063
0.9736051433
0.966576122
0.9593336678
0.9516175399
0.9433676691
0.935471888
0.928077455
0.9199680777
0.9114132246
0.9040920433
0.8973862652
0.8894460415
0.8811634963
0.8746425603
0.8686016826
0.8611704041
0.8534562828
0.8474707259
0.8418501759
0.8351987104
0.8283055806
0.8224773817
0.8170147941
0.8109372416
0.8054781877
0.7966016432
0.9987463494
0.9974407812
0.9953286399
0.9922364378
0.9881599358
0.9831203034
0.9771390733
0.9704559464
0.9634928941
0.9560355799
0.9479812225
0.9402050662
0.9328605583
0.9248369465
0.9163849451
0.9090942384
0.9023139449
0.8944006587
0.8862427281
0.8797047419
0.8734792501
0.8660807938
0.8585324546
0.8524359165
0.8465943513
0.8399557373
0.8332336464
0.8273378564
0.8215351188
0.8161704302
0.8070707103
0.9996615394
0.9991552067
0.9981726708
0.9964922492
0.9939238127
0.9903746941
0.9858766859
0.9803808485
0.9741153834
0.9674531943
0.9602643493
0.9524624323
0.944795822
0.9375345532
0.929589122
0.9212801537
0.9140090676
0.907146522
0.8993008172
0.8912828409
0.8846960997
0.878341728
0.8710105238
0.8636447122
0.8574562532
0.8515101818
0.8449335544
0.8384102534
0.8322981306
0.8270753259
0.8179020835
0.999934618
0.9997934003
0.9994474826
0.9987271597
0.9974264013
0.9953265162
0.9923114819
0.9883226035
0.9833663775
0.9775155854
0.9712096868
0.9643121206
0.9567613325
0.9492829769
0.9420566062
0.934259824
0.9260669708
0.918832379
0.911884076
0.9041182325
0.896250396
0.8895782525
0.8830973436
0.8758259574
0.8686053254
0.8622960924
0.856173431
0.8496755685
0.8430649391
0.8375755605
0.828327215
0.9999914981
0.9999645181
0.9998782284
0.9996494809
0.9991379228
0.9981538127
0.996482622
0.9939538731
0.9905004862
0.9860442099
0.9806885074
0.9747267336
0.9681665939
0.9609068738
0.9536059066
0.9464709752
0.9387935833
0.9307900288
0.9235388378
0.9165497926
0.9088620869
0.9011507049
0.8943911106
0.88781797
0.8806355973
0.8735478906
0.8671493412
0.8609772067
0.8543734572
0.8485972466
0.8391054857
0.9999992972
0.9999959671
0.9999815081
0.9999307919
0.9997848646
0.9994324317
0.9987099175
0.9974062364
0.9953411507
0.9923795372
0.9884608438
0.983577951
0.9780267732
0.9718107825
0.9648658808
0.9577942914
0.9507351425
0.9432341401
0.9353894666
0.928157177
0.9211236974
0.9135392582
0.9059547791
0.8991208922
0.8924530863
0.8853557844
0.8783507195
0.8719115718
0.8654394656
0.8596008217
0.8497731763
0.9999999648
0.9999997135
0.9999981729
0.9999907574
0.9999621636
0.9998723441
0.9996380088
0.9991211348
0.998135066
0.9964735547
0.9940044494
0.9905734788
0.9862244749
0.981067456
0.9752416634
0.9686544981
0.9617914766
0.9548965773
0.9475229191
0.9399064523
0.9326609846
0.9256235151
0.9181377118
0.9106786189
0.9037831386
0.8970484542
0.89002693
0.8831543556
0.8764799459
0.8706888286
0.8607475377
0.999999999
0.9999999879
0.9999998889
0.9999992107
0.9999955777
0.9999801297
0.9999269603
0.9997763901
0.9994187537
0.9986899026
0.9973940743
0.9953553964
0.992440099
0.9885651769
0.9838917731
0.9784306662
0.9722370467
0.9656432627
0.9588814476
0.9517294014
0.9442633186
0.9370937392
0.9300248304
0.9226636911
0.915302064
0.9083740595
0.9015671441
0.8946606799
0.8876573419
0.8816973791
0.8716112128
1
0.9999999997
0.999999996
0.9999999591
0.9999996753
0.9999979781
0.9999899939
0.9999597617
0.9998665764
0.9996267953
0.9991049807
0.9981146875
0.9964816682
0.9940202194
0.9906676837
0.9864269288
0.9814133007
0.9756027271
0.9692971254
0.9627528641
0.9557600454
0.948538106
0.9413929802
0.9343664917
0.9270925035
0.9198459582
0.9128823493
0.9060866594
0.8990425229
0.8928835141
0.882587756
1
1
0.9999999999
0.9999999988
0.9999999857
0.999999873
0.9999991184
0.9999951738
0.9999787131
0.9999231272
0.9997682813
0.9994044361
0.9986727892
0.9973826908
0.9953715363
0.9924733612
0.9887411414
0.9841275042
0.9787559791
0.9727775477
0.9664306599
0.959704988
0.9526252289
0.9456287062
0.9385966222
0.931453832
0.9242748341
0.9173644302
0.9103490023
0.9041400388
0.8936233775
1
1
1
1
0.9999999996
0.9999999953
0.9999999528
0.999999634
0.9999977749
0.9999891965
0.9999573729
0.9998607813
0.999616113
0.9990875009
0.9981039454
0.9964714942
0.9940560167
0.9907549165
0.9866384798
0.9816572876
0.9760493448
0.969980424
0.9634443655
0.9566411408
0.9496951599
0.9427821538
0.9356903889
0.9286726037
0.9215683497
0.9153542297
0.9047236642
1
1
1
1
1
0.9999999999
0.9999999985
0.9999999834
0.9999998555
0.9999990211
0.9999947504
0.9999772703
0.9999193602
0.9997599318
0.9993914707
0.9986548411
0.9973780865
0.9953652902
0.9925590299
0.9888537406
0.9843574089
0.9791062531
0.9733222521
0.9670921375
0.9604374053
0.9537154913
0.9468113047
0.9399159569
0.9327560175
0.9265028233
0.9157883969
1
1
1
1
1
1
1
0.9999999996
0.9999999944
0.9999999458
0.9999995898
0.9999975604
0.9999883797
0.9999549559
0.9998551093
0.999604939
0.9990740512
0.9980851517
0.9964766975
0.9940728038
0.9908750325
0.9867717232
0.9819607185
0.9765029298
0.9705090968
0.9641769062
0.9575128058
0.9508556401
0.9438011873
0.9375724921
0.9267890662
1
1
1
1
1
1
1
1
0.9999999999
0.9999999982
0.9999999807
0.9999998366
0.999998918
0.9999943075
0.9999758323
0.9999154452
0.9997522049
0.9993773785
0.9986429777
0.9973576917
0.9953966769
0.9925913592
0.9890030522
0.9845560511
0.9794722386
0.9738205842
0.9676500683
0.9613313476
0.9545015007
0.9484267077
0.9376280129
1
1
1
1
1
1
1
1
1
1
0.9999999995
0.9999999935
0.9999999381
0.9999995427
0.9999973348
0.9999875439
0.9999525415
0.9998492271
0.9995953582
0.9990567606
0.9980778714
0.996460303
0.9941332452
0.9909210288
0.9869731365
0.9822344666
0.9768804869
0.9711106352
0.9646697615
0.9588520479
0.9480867559
1
1
1
1
1
1
1
1
1
1
1
0.9999999999
0.9999999979
0.9999999778
0.9999998162
0.9999988083
0.999993856
0.9999743352
0.9999117062
0.999743868
0.99936669
0.9986218619
0.9973629255
0.9953838239
0.992682513
0.9890830033
0.9847881396
0.9797981789
0.9740021672
0.9685330318
0.9578115719
1
1
1
1
1
1
1
1
1
1
1
1
1
0.9999999994
0.9999999924
0.9999999298
0.9999994924
0.9999970997
0.9999867045
0.9999500354
0.9998440706
0.9995842147
0.9990481199
0.998054767
0.996486743
0.9941121246
0.9910028505
0.9869660683
0.9820077501
0.9769230839
0.9661387714
1
1
1
1
1
1
1
1
1
1
1
1
1
1
0.9999999998
0.9999999976
0.9999999745
0.9999997933
0.9999986856
0.9999933271
0.9999725422
0.9999062105
0.999731348
0.9993323055
0.9985632031
0.9971955264
0.9951179138
0.9920312616
0.9878966653
0.9831702656
0.9723966359
1
1
1
1
1
1
1
1
1
1
1
1
1
1
1
1
0.9999999993
0.9999999916
0.9999999226
0.9999994447
0.9999968363
0.9999853787
0.9999445617
0.9998222071
0.999517386
0.9988414242
0.9975840013
0.9953687074
0.9920052339
0.9876395521
0.9768827215
)
;

boundaryField
{
    inlet
    {
        type            fixedValue;
        value           nonuniform 0();
    }
    outlet
    {
        type            zeroGradient;
    }
    bottom
    {
        type            slip;
    }
    top
    {
        type            slip;
    }
    obstacle
    {
        type            zeroGradient;
    }
    defaultFaces
    {
        type            empty;
    }
    procBoundary35to29
    {
        type            processor;
        value           nonuniform List<scalar> 
33
(
0.3852457528
0.4411285637
0.5564509321
0.7280557523
0.8985430142
0.9768896078
1.113115761
1.453669684
2.13421896
2.619019612
2.632186833
2.621538373
2.619607262
2.607918058
2.556080067
2.484951437
0.3962485126
0.3931792017
0.3920289831
0.3917108058
0.3903419565
0.3874979463
0.3864390739
0.3861768771
0.3850474042
0.3824604078
0.3813481117
0.3812677542
0.3804060707
0.3779391184
0.3766960704
0.3763307679
0.3763307679
)
;
    }
    procBoundary35to34
    {
        type            processor;
        value           nonuniform List<scalar> 
71
(
0.4059232739
0.4140869846
0.4231672986
0.4332112857
0.4446404113
0.4539530785
0.4633767373
0.472496883
0.4810534445
0.4928929419
0.5048160941
0.515748779
0.5263008607
0.5348534055
0.5453993775
0.5580399011
0.570706974
0.5832415047
0.592508853
0.6029523599
0.6152329607
0.629733667
0.642520288
0.6538276485
0.6644393019
0.6766373767
0.6922463158
0.7055612564
0.7186922349
0.7291184626
0.7418601941
0.7580170543
0.7729905398
0.7858845419
0.7971202162
0.8113023522
0.8277074026
0.8428407365
0.855505132
0.8620492367
0.8620492367
0.8747836414
0.8900190251
0.9059873386
0.920034168