/*--------------------------------*- C++ -*----------------------------------*\
  =========                 |
  \\      /  F ield         | OpenFOAM: The Open Source CFD Toolbox
   \\    /   O peration     | Website:  https://openfoam.org
    \\  /    A nd           | Version:  7
     \\/     M anipulation  |
\*---------------------------------------------------------------------------*/
FoamFile
{
    version     2.0;
    format      ascii;
    class       volScalarField;
    location    "3";
    object      rho;
}
// * * * * * * * * * * * * * * * * * * * * * * * * * * * * * * * * * * * * * //

dimensions      [1 -3 0 0 0 0 0];

internalField   nonuniform List<scalar> 
2222
(
1.32771941
1.320460709
1.311380751
1.317352598
1.324059864
1.322441467
1.317982078
1.314314216
1.313751202
1.315059772
1.314561095
1.314775367
1.315927866
1.316241602
1.315753937
1.315779542
1.316110045
1.316513516
1.316595378
1.316584861
1.316724871
1.317935678
1.318781086
1.319297338
1.312407151
1.313860266
1.314644353
1.313302194
1.31269859
1.312450703
1.315932326
1.319462479
1.310175909
1.310089032
1.326921625
1.31930555
1.310856445
1.317829495
1.325196496
1.323456795
1.318877027
1.315558032
1.314628767
1.31561709
1.315079591
1.315095881
1.315963162
1.316265722
1.315685564
1.315777693
1.316235059
1.317010785
1.317194054
1.316672486
1.31666806
1.317539502
1.318417755
1.319217488
1.311313075
1.311538295
1.310818263
1.311200535
1.312655163
1.314081838
1.317460615
1.320269938
1.310092987
1.309675317
1.32656263
1.31880945
1.310595096
1.318229394
1.325355429
1.323607344
1.319240863
1.315965731
1.314948773
1.315765648
1.315632716
1.31543103
1.316005636
1.316406198
1.315934016
1.316142828
1.316743345
1.317487932
1.317538016
1.31666279
1.31668383
1.317515128
1.318443679
1.319439644
1.315420299
1.310904956
1.309028921
1.30938892
1.311531342
1.314568962
1.31842509
1.320995117
1.311165093
1.311068477
1.327624474
1.318624949
1.310365226
1.31815483
1.325243799
1.323419706
1.319186814
1.316101979
1.315055638
1.315892704
1.316292017
1.315999859
1.316375205
1.316748348
1.316484046
1.316685893
1.317226024
1.31779339
1.317682548
1.31678172
1.316867572
1.317636781
1.318733263
1.320109268
1.318811406
1.316444265
1.312194435
1.309836681
1.311103346
1.314024448
1.318267099
1.320934674
1.311685118
1.311969059
1.329098143
1.319216282
1.310202586
1.318137827
1.325096676
1.323198464
1.319091239
1.316321997
1.315383646
1.316427655
1.317374337
1.317164833
1.317427115
1.316991643
1.316838203
1.316904707
1.317493233
1.318076737
1.317888195
1.317140328
1.317362001
1.31834037
1.319398374
1.320478801
1.318425512
1.318886832
1.317900831
1.313658593
1.311769856
1.313528778
1.316988146
1.319868263
1.311696454
1.312141748
1.329692262
1.319335194
1.31062215
1.318081669
1.325001932
1.323067316
1.319479014
1.317218071
1.316507528
1.31768383
1.318729586
1.318468272
1.318275465
1.317075391
1.316855182
1.316875784
1.317597817
1.318400465
1.318282652
1.317773822
1.318123878
1.319037142
1.319742875
1.320501604
1.313653789
1.318183867
1.318034911
1.317464816
1.314771498
1.313614521
1.316386914
1.317671169
1.310804128
1.311828958
1.329686849
1.319228702
1.311190626
1.319029114
1.325262832
1.323572916
1.320206622
1.318558008
1.317829379
1.318815344
1.319312023
1.319073907
1.318507275
1.31698623
1.316732269
1.316747833
1.317654058
1.318800491
1.318918056
1.3186065
1.318753656
1.319344844
1.3198118
1.320420171
1.30838334
1.314652055
1.317810114
1.317327926
1.315177574
1.316433248
1.317246313
1.307545513
1.30891296
1.32907482
1.318436684
1.311384388
1.319995103
1.325664964
1.323323905
1.319866854
1.319038059
1.318253218
1.319043775
1.319380822
1.319073563
1.318538259
1.316784584
1.31637956
1.316518652
1.31762218
1.319188908
1.319561348
1.319311502
1.318871563
1.31929542
1.319637954
1.320069688
1.301350156
1.307244613
1.314435884
1.318332558
1.317719664
1.318570453
1.317258894
1.305627679
1.306678335
1.328355569
1.317450444
1.311425226
1.320646914
1.325691395
1.322992328
1.319399652
1.318694724
1.318147185
1.318892024
1.319136042
1.31901058
1.31862964
1.31688412
1.315829236
1.316057528
1.317490061
1.319176513
1.319606653
1.319364372
1.318889263
1.319134761
1.319291732
1.319515516
1.32106663
1.301228933
1.305743549
1.310559527
1.316225188
1.318163782
1.31990512
1.318654441
1.304928901
1.306018561
1.328115852
1.317005132
1.311388349
1.320817993
1.325716103
1.322721551
1.318850221
1.318286409
1.31808923
1.318966678
1.31900124
1.319352328
1.318915713
1.316762306
1.315389086
1.315568606
1.317188364
1.319083905
1.319535533
1.319275286
1.318752882
1.318959911
1.318932428
1.319314255
1.321190851
1.308971709
1.307405871
1.309454818
1.312949318
1.317140335
1.320035463
1.319718709
1.305778199
1.306431403
1.328240457
1.316881827
1.311447349
1.320621545
1.325501407
1.322460219
1.31857207
1.318184488
1.318185686
1.319534807
1.319312579
1.319956706
1.319138247
1.316618918
1.315053391
1.315113697
1.316720077
1.318845201
1.319299426
1.319114182
1.318761272
1.318958676
1.318901344
1.319352129
1.321520573
1.316711804
1.317407156
1.314121724
1.312420108
1.314828193
1.317837842
1.319485794
1.307237651
1.308813054
1.329702475
1.317546514
1.311948042
1.320521811
1.325135673
1.322058243
1.318496297
1.318226937
1.319220043
1.320662939
1.320338494
1.320283428
1.319072613
1.316708658
1.314629117
1.314542123
1.3162378
1.318628404
1.319097065
1.319038468
1.318933649
1.319206689
1.319158076
1.319771925
1.321701199
1.31983384
1.323054246
1.321797137
1.31658204
1.314216246
1.314630958
1.317742016
1.30787743
1.310896617
1.331773334
1.318369426
1.312801105
1.321249941
1.325172687
1.321948529
1.318818556
1.318840604
1.321269691
1.322121377
1.321139099
1.319969346
1.3187572
1.3166347
1.314012548
1.313856625
1.315767011
1.318528119
1.318932659
1.319238955
1.319352357
1.319822928
1.319786475
1.320235237
1.321749627
1.31490867
1.3218829
1.323219479
1.321880953
1.316788621
1.313822034
1.31396147
1.307954687
1.311390153
1.332694647
1.318656809
1.313730696
1.322380705
1.325639558
1.321761631
1.31890413
1.319705518
1.32292397
1.322999065
1.321609739
1.319581357
1.318294162
1.316497448
1.315009196
1.314114474
1.315942323
1.318608304
1.318908602
1.319085768
1.319814065
1.320205448
1.320042982
1.320237581
1.321753623
1.29269666
1.308786585
1.319946934
1.321454494
1.319428957
1.316220144
1.31305781
1.30524721
1.311429566
1.333359945
1.318839435
1.314359544
1.323294115
1.325875704
1.32173369
1.318986568
1.320155957
1.323564614
1.323388303
1.321942028
1.319577716
1.318198948
1.316835038
1.316033552
1.314914821
1.316087883
1.318542804
1.318788272
1.318896089
1.319676201
1.320019952
1.319809416
1.320031218
1.32169135
1.294727507
1.305772535
1.318094353
1.320070623
1.319607167
1.312758922
1.301732251
1.309534438
1.33336321
1.31873554
1.314386888
1.323178961
1.325905487
1.321601134
1.31901518
1.320278066
1.323675769
1.323600645
1.322197706
1.319708717
1.31835412
1.317345179
1.317060965
1.316187449
1.316575091
1.318287418
1.318479467
1.318652237
1.319547844
1.319773787
1.319492564
1.319673524
1.321538681
1.291757998
1.299648903
1.30884489
1.318773765
1.319733088
1.315016765
1.300888618
1.30776497
1.332839671
1.31829912
1.314299725
1.322972616
1.32586518
1.321384784
1.31840728
1.319983987
1.323638256
1.323895989
1.322801985
1.32043654
1.318854992
1.3176237
1.317807065
1.317348286
1.317425809
1.317855289
1.318203217
1.318595221
1.319561093
1.319648896
1.319321055
1.319536657
1.321484517
1.306611714
1.302222765
1.305620267
1.311942616
1.317613167
1.316436379
1.301084932
1.306968496
1.331906743
1.317678478
1.314139734
1.322634311
1.325534304
1.320601668
1.317413751
1.318966846
1.323400519
1.324261123
1.323509804
1.321271898
1.319150127
1.317712411
1.318145864
1.318233635
1.318171112
1.317516781
1.318100069
1.318755679
1.31980632
1.319649313
1.319301105
1.319540651
1.321531411
1.32110115
1.317824878
1.309179849
1.308255936
1.310423395
1.316478
1.301776181
1.306893121
1.331433076
1.317118012
1.313914648
1.322516597
1.324949351
1.31935436
1.316658867
1.318287627
1.323019954
1.324465444
1.323769783
1.32149019
1.319117199
1.317397788
1.318243862
1.318832108
1.318877609
1.317751998
1.31831857
1.319059127
1.319972892
1.319793391
1.319439003
1.319779221
1.321740634
1.319897823
1.325131348
1.320807771
1.311679194
1.307862804
1.315100278
1.301622336
1.311050011
1.331300254
1.316399464
1.314158256
1.322537959
1.3248252
1.318923457
1.316117453
1.317803632
1.322830016
1.324521622
1.323784066
1.321540833
1.31887582
1.316936162
1.318095104
1.319411883
1.319591254
1.318102379
1.318534192
1.319212732
1.320022451
1.319869602
1.319594553
1.320037728
1.321914182
1.304953408
1.324196293
1.324505664
1.321694934
1.307450413
1.310037274
1.301247325
1.313673629
1.330767361
1.315025866
1.314159069
1.323166796
1.324986781
1.31892083
1.315784966
1.317513527
1.322726435
1.32439471
1.32359723
1.321366995
1.318796816
1.316991472
1.31823702
1.320228771
1.320265918
1.318457277
1.318692205
1.319308325
1.320118341
1.320283616
1.320078917
1.320455916
1.321816868
1.245242789
1.309591952
1.322905563
1.321607926
1.315561866
1.305330027
1.29994496
1.313736918
1.329536414
1.313375973
1.313951948
1.323736383
1.325344216
1.319056383
1.315404744
1.317022918
1.322307482
1.323997741
1.323303582
1.321318744
1.318949627
1.317225514
1.318635316
1.321218947
1.321082761
1.31894265
1.318798258
1.319561499
1.320508004
1.320758861
1.320303621
1.320342856
1.321380226
1.203864231
1.276286015
1.304512838
1.319280976
1.318757261
1.304626734
1.297530248
1.313390512
1.328607544
1.312829667
1.31385294
1.324100035
1.325239261
1.319589074
1.314687532
1.315902878
1.321123976
1.323490052
1.323174168
1.321443574
1.319502578
1.318084718
1.319299751
1.32182739
1.321647486
1.319658001
1.319064881
1.320005411
1.3211309
1.320999133
1.320354251
1.320326711
1.321119464
1.266266144
1.289047196
1.305217007
1.318254
1.304086725
1.294735468
1.312477374
1.328451879
1.312895195
1.314038728
1.324139163
1.324947423
1.319750891
1.314185974
1.315090823
1.320061584
1.323300748
1.323185588
1.322010379
1.320237065
1.319187904
1.319813217
1.322056628
1.321941459
1.320482499
1.319782935
1.320734085
1.321715514
1.321442049
1.320629521
1.320395783
1.321102198
1.28466277
1.289210087
1.294914834
1.306353666
1.307845494
1.293367004
1.310691639
1.328066625
1.313238014
1.314748419
1.323573825
1.32378927
1.319657799
1.313847308
1.314557541
1.319451225
1.323325358
1.323895084
1.322719631
1.320912482
1.319616663
1.319877489
1.322263865
1.322433912
1.32132253
1.320666015
1.321271795
1.321996702
1.321853094
1.321219067
1.320854493
1.321510842
1.323142311
1.265080152
1.311744315
1.294161215
1.294884065
1.309581548
1.293093119
1.309726936
1.326771786
1.313385639
1.317181363
1.323196046
1.322619154
1.319246543
1.313999317
1.314389627
1.31902141
1.323268008
1.324094135
1.323107531
1.321275316
1.319715025
1.32000712
1.322732849
1.323177524
1.322092766
1.321421184
1.32158166
1.322035495
1.322020829
1.321543514
1.321124251
1.321894147
1.32337736
1.168684851
1.320492122
1.312834566
1.294771713
1.310120527
1.292762763
1.30920928
1.324951545
1.313094762
1.318976444
1.3234508
1.321909553
1.318673237
1.31348372
1.313746785
1.318328708
1.323314784
1.324063971
1.323207562
1.321356206
1.319973617
1.320751911
1.323351231
1.32366965
1.322680934
1.321934242
1.321651062
1.321965185
1.322076114
1.321725419
1.321287904
1.322208215
1.323522301
1.004447228
1.308999497
1.315554778
1.306116212
1.308909558
1.29206168
1.312493357
1.324163885
1.310368998
1.319497348
1.322912877
1.321066285
1.317199222
1.313658033
1.313608297
1.31795276
1.32290984
1.323932062
1.323364646
1.321687957
1.321030193
1.322031074
1.323468706
1.32386817
1.323013451
1.322054445
1.321556751
1.321599076
1.321935273
1.321927692
1.321485312
1.321826723
1.322904418
0.8976731555
1.216427877
1.314631068
1.315747882
1.302804297
1.291656418
1.317390517
1.323688356
1.306837143
1.319826003
1.322270167
1.319897075
1.31677933
1.313390334
1.313202496
1.317040541
1.321740177
1.323927411
1.323991473
1.322553391
1.322478667
1.322978442
1.323468425
1.323985
1.323213152
1.322044734
1.321066253
1.320925416
1.321488488
1.321709989
1.321138118
1.321304681
1.322011219
0.706559804
1.100491704
1.291935248
1.318590754
1.293784036
1.291182657
1.318411538
1.324167852
1.304914276
1.320323307
1.321739033
1.319221707
1.316316229
1.313477768
1.312756921
1.316252914
1.321321779
1.324322676
1.324954544
1.32389273
1.323355519
1.323226749
1.323468315
1.324059769
1.323370153
1.322010687
1.320384742
1.320373627
1.321098616
1.321465666
1.321140197
1.3210771
1.32126681
0.5673522366
1.03449577
1.235170025
1.314973858
1.291646584
1.290242632
1.318515572
1.325040941
1.303898767
1.321475451
1.321049362
1.31848692
1.315937087
1.313662937
1.312840092
1.316165341
1.321564078
1.325015926
1.325677623
1.324774344
1.323652159
1.323213934
1.323286415
1.324066203
1.323391626
1.321682212
1.320082415
1.320078773
1.320828824
1.321312356
1.321434316
1.320939266
1.320620146
0.9012189334
1.200761083
1.282335982
1.2941579
1.288740295
1.318419339
1.325352855
1.30352874
1.323256084
1.32062999
1.317058498
1.314799588
1.313915066
1.313903172
1.316996355
1.322173546
1.325607035
1.325897875
1.324605743
1.32322515
1.322374631
1.322756266
1.323792203
1.322881394
1.321163717
1.319909241
1.319502244
1.32003631
1.320593372
1.320666939
1.319806614
1.319717329
0.6701817435
1.187599514
1.256628959
1.306141359
1.287474711
1.316163321
1.325129156
1.30291818
1.325143066
1.321114046
1.316615307
1.313572033
1.314086235
1.314909938
1.317923103
1.322634098
1.325730276
1.325105293
1.324205909
1.322469903
1.321707866
1.322123157
1.322789637
1.32198084
1.320529747
1.318792491
1.318165124
1.318444271
1.318671897
1.318559731
1.317699019
1.317992638
0.5655024315
1.044282052
1.248627691
1.311390507
1.283771929
1.313176101
1.323336628
1.298986642
1.32662605
1.322900566
1.317397736
1.313505011
1.313890726
1.315669774
1.318562838
1.321667081
1.323936286
1.324082258
1.323992047
1.322247437
1.321496109
1.321631194
1.321521644
1.3206438
1.318804124
1.317028146
1.316690361
1.316593542
1.316320558
1.316057986
1.315527589
1.316114241
0.5527791391
0.8181689733
1.244757625
1.311261415
1.279846631
1.312845489
1.320848737
1.293588195
1.327174091
1.32391726
1.318233765
1.313772715
1.312136932
1.314035449
1.316839587
1.320166251
1.322581211
1.323455376
1.322995606
1.32129168
1.320123547
1.319980261
1.319706778
1.31834491
1.316583607
1.31515805
1.314368714
1.313751071
1.313319152
1.31329036
1.313259638
1.314268706
0.5525764878
0.6563551839
1.151019944
1.287021187
1.275102291
1.315187372
1.320194545
1.289331425
1.324209027
1.319516183
1.313868372
1.310148631
1.308857414
1.311488815
1.31505614
1.318777091
1.32099491
1.320956194
1.320012228
1.318472167
1.317293606
1.317444911
1.317256784
1.315719642
1.314076222
1.312373352
1.31109559
1.310394933
1.310290104
1.310637295
1.311065007
1.312136644
0.5534216731
0.5644772416
0.9772920447
1.238998519
1.277551388
1.316938284
1.318448132
1.284275296
1.320639226
1.314597497
1.308534683
1.304535199
1.304978065
1.308475626
1.312179018
1.315226471
1.316956482
1.317013081
1.316466188
1.314996785
1.31360098
1.313940151
1.313823163
1.312280785
1.310809299
1.309138191
1.307596433
1.307528133
1.30794579
1.308526408
1.30889692
1.309860213
0.5549473385
0.5568412753
0.8491530515
1.200473434
1.276696163
1.308583643
1.3073221
1.273034544
1.313827473
1.308273766
1.302763489
1.298853446
1.29900806
1.302944172
1.307413587
1.310284262
1.312142429
1.312875337
1.312482331
1.311502451
1.310511985
1.311231212
1.310830762
1.309848719
1.308763612
1.307108958
1.305349306
1.305346352
1.305718213
1.306535806
1.307482586
1.308665214
0.5569345809
0.5576969753
0.6782038298
1.122493798
1.264292489
1.292320261
1.295292338
1.263227319
1.309261892
1.303033275
1.29706703
1.294015984
1.294856932
1.299498842
1.304902634
1.307757215
1.309545159
1.310218417
1.309927861
1.309165874
1.308050927
1.308946844
1.308552866
1.308296109
1.307197614
1.305428606
1.303629489
1.303506606
1.304327828
1.305681277
1.306912772
1.308003127
0.5580665183
0.5582619254
0.5772167641
0.9427942059
1.214780889
1.284382621
1.296225642
1.254363607
1.305137009
1.300663004
1.295296339
1.291932973
1.292620073
1.297379612
1.3033501
1.306189144
1.308070007
1.309091072
1.308903289
1.307925414
1.307762969
1.308282582
1.307441993
1.308217304
1.30682809
1.304871027
1.30307191
1.302936339
1.303848069
1.305260813
1.306597414
1.307031867
0.5656739617
0.5654372026
0.6353798509
0.8834583722
1.161439107
1.218561238
1.255661236
1.312577736
1.302502936
1.299167345
1.300639756
1.299598185
1.302807185
1.308768856
1.310370298
1.310819214
1.312261199
1.312450608
1.311196997
1.308615605
1.306191629
1.306072989
1.307443802
1.309153461
1.307901607
1.305666727
1.305317795
1.30578242
1.307237234
1.308748261
1.309087738
0.5847205178
0.5841715002
0.5829286804
0.5972498079
0.7015608491
0.9275466046
1.149537592
1.268762328
1.285650753
1.31156932
1.320883768
1.315022963
1.317253748
1.32081921
1.319778016
1.31863721
1.319903275
1.320985156
1.320984404
1.320136208
1.317652245
1.315268789
1.315546036
1.315733398
1.31442443
1.312619485
1.311964552
1.312440388
1.313503009
1.31505803
1.316724509
0.608318871
0.6084476149
0.6073762952
0.6050340333
0.6066556896
0.6391847266
0.7609270464
0.9658336371
1.144011985
1.281842884
1.302942237
1.307764502
1.330240055
1.339478176
1.333587853
1.331651253
1.330735762
1.329406052
1.329756055
1.330466817
1.330168549
1.328150442
1.326858334
1.327325388
1.327526732
1.32699892
1.325708634
1.324745799
1.324336851
1.324702681
1.325666214
0.6317191684
0.6295516792
0.6289133409
0.6263229048
0.6215594852
0.6213480198
0.624520981
0.6540230827
0.7929205004
1.001320627
1.164851382
1.25956054
1.329923296
1.3338495
1.334694675
1.343597241
1.342229899
1.341158679
1.342593139
1.345096987
1.346210867
1.346469938
1.346868924
1.347977811
1.347790505
1.346690144
1.343553427
1.339804729
1.337409037
1.336046888
1.335443642
0.6587300009
0.6522931507
0.6520135615
0.6512099793
0.6459896984
0.6435480969
0.6426529804
0.6413866733
0.6457169634
0.6794414463
0.8164707237
1.010890262
1.216571051
1.266037563
1.318196488
1.357934757
1.349064703
1.351800596
1.357126202
1.358545418
1.359695826
1.360977975
1.361553323
1.362088113
1.361362519
1.359138766
1.354208436
1.349332965
1.346289177
1.344005794
1.342593377
0.683922699
0.676994334
0.6730883041
0.6725121947
0.6693672285
0.6634713178
0.6616327479
0.6593392247
0.653663953
0.6536423464
0.6599869707
0.7056088976
0.8235196794
1.029513157
1.224448461
1.333989502
1.342897276
1.364254826
1.368525225
1.365690874
1.367960148
1.369614731
1.368801222
1.369122286
1.367620775
1.364055803
1.35989844
1.35536326
1.352548767
1.350870829
1.35032104
0.7093131919
0.7044588536
0.6960386372
0.6949107116
0.6935361645
0.6868963882
0.6831457524
0.6830795819
0.6797720863
0.6729708262
0.6710251828
0.6716023002
0.6759477654
0.7276890019
0.8523271541
1.042633199
1.210674918
1.340544479
1.351219542
1.354281829
1.364529286
1.369578198
1.366204775
1.363418587
1.362147465
1.360525822
1.35863134
1.356975181
1.356788078
1.357778744
1.359535677
0.7326605424
0.7300752519
0.721415575
0.7161733781
0.7151325564
0.7108976261
0.7032697268
0.7011147241
0.6996594353
0.6934152426
0.688412565
0.6872037204
0.6833597166
0.6826156887
0.6893935123
0.7403212881
0.8810413189
1.080200785
1.200929293
1.2832278
1.349502944
1.348413714
1.350733292
1.358156648
1.360806697
1.363323789
1.364229501
1.364812982
1.36582068
1.36741819
1.369355552
0.7563780165
0.7551258241
0.7494820646
0.7392344909
0.7370810128
0.7350256792
0.7269742253
0.7214369391
0.7210291586
0.7180649931
0.7104993581
0.7084055272
0.7064459533
0.6998337829
0.6953983489
0.696844824
0.7069304562
0.7554170449
0.9158445088
1.103296217
1.287112342
1.310771327
1.349376571
1.370875615
1.370443699
1.377056559
1.378137596
1.376832203
1.372481666
1.371127956
1.371024507
0.7812722788
0.7782035394
0.7750481359
0.7650264351
0.7582265615
0.7567375262
0.7516483307
0.7422712562
0.7396219616
0.737772341
0.7311009879
0.7247083548
0.7240495318
0.7211842599
0.7130959944
0.7094716015
0.7093535597
0.7096394844
0.723077467
0.7857472566
0.9312628437
1.126221689
1.298144681
1.346378294
1.357242158
1.375954446
1.381867978
1.380127742
1.373268175
1.366686249
1.364554382
0.8113882001
0.8017638432
0.7997083443
0.7933420532
0.7812755724
0.778198992
0.7758229335
0.7668474132
0.7595139055
0.7585088804
0.754960443
0.7461589499
0.7432847102
0.7422556491
0.7368564289
0.7293767012
0.7268750093
0.7225086818
0.7199439498
0.7213527062
0.7358568332
0.8184252981
0.9651302577
1.138383527
1.249091375
1.354622058
1.362433848
1.358492243
1.364240566
1.361664976
1.360548904
0.8423821306
0.8276750245
0.8229168301
0.8190811549
0.8077498364
0.7990180349
0.7972123901
0.7918828156
0.7811185404
0.777509406
0.7752435248
0.7676990811
0.7597718265
0.7584171704
0.755836168
0.7475236555
0.7441169734
0.7425680258
0.7368943795
0.7295034823
0.7303602137
0.7337896029
0.7514277979
0.8379392105
1.001335835
1.196902091
1.265027878
1.317292534
1.369793578
1.366446979
1.369296161
0.871849492
0.8586548705
0.8466156456
0.8435546053
0.8366724314
0.8226957005
0.8181845402
0.815608262
0.8063941752
0.797132881
0.7954276005
0.7914830539
0.7812761065
0.7772839965
0.7761053118
0.7708572351
0.7624536675
0.7604378603
0.7583977808
0.7503248928
0.7436033054
0.7424340829
0.7410038057
0.7432681937
0.7707453018
0.8574082573
1.040529622
1.22019733
1.336712169
1.355965456
1.381411696
0.8980764019
0.889302453
0.8730045316
0.8663387799
0.8622489857
0.8506445002
0.839557488
0.8368459947
0.8311783264
0.8190701717
0.8142479564
0.8119603151
0.8042069759
0.7946916158
0.7925018492
0.7895296673
0.7807326149
0.7754351731
0.7747953807
0.7713210351
0.7623394371
0.7582597082
0.7561112431
0.7500543003
0.7492638925
0.7536978441
0.7956694137
0.8976651509
1.063896304
1.220766816
1.352784065
0.9240835817
0.9182230967
0.9047975558
0.8899551872
0.8859233449
0.8793883848
0.8647363208
0.8577408252
0.8545153339
0.8449817531
0.8337045734
0.8314756462
0.8277234274
0.8167624876
0.8107854204
0.809419914
0.8042468335
0.7945201338
0.7914362941
0.7898413406
0.7836394341
0.7757824009
0.7741259558
0.770730424
0.7619240139
0.7580920425
0.7600234317
0.7671065303
0.8112337708
0.9396684465
1.117240909
0.9515571466
0.9440788765
0.9353974073
0.9183037864
0.908688669
0.9040495603
0.8926553463
0.8794430669
0.8756734902
0.8700426824
0.856993237
0.8501272404
0.8476749066
0.840249113
0.8292182631
0.8260011602
0.8229157759
0.8138879857
0.8063537709
0.8050948323
0.8020990269
0.7934802508
0.7883436803
0.7875850936
0.7832946426
0.7735513048
0.7701031596
0.7696612288
0.7698170352
0.7802499788
0.8282846633
0.9850062816
0.9699439587
0.9631182278
0.9508006843
0.9338322772
0.9272804268
0.9204408858
0.9054228689
0.8962648456
0.8928572986
0.8838561129
0.8704580103
0.8666211039
0.8628484173
0.8520080735
0.8437479847
0.8420834255
0.8372495729
0.8262918015
0.822068307
0.820424191
0.8146491469
0.8055272171
0.8029373341
0.8012843394
0.7947993253
0.7859496231
0.783557327
0.7802898048
0.7767948673
0.7776888045
1.019196095
0.9991044785
0.988481911
0.9798011676
0.9632016222
0.9504092879
0.9448336487
0.933950595
0.9187283829
0.9133673592
0.9079486962
0.8949839369
0.8856246242
0.8826339189
0.875549741
0.8630521168
0.8585753256
0.8558532452
0.8474236836
0.8374704638
0.8352087199
0.832260597
0.8236230844
0.8166611827
0.8156732677
0.8129162277
0.8044289244
0.7991199981
0.7970179827
0.7916727257
0.7836382468
1.051057538
1.033703007
1.015639772
1.006471323
0.9946809486
0.9767916625
0.9677948026
0.9610247229
0.946508828
0.9340432806
0.9296361052
0.9213987303
0.9071541117
0.9014047645
0.8975505144
0.886949961
0.875935126
0.8737717824
0.8698178546
0.8587222077
0.852017916
0.8502948472
0.8451169137
0.8348294357
0.8306181818
0.829071757
0.8239413583
0.8146795199
0.8118664387
0.8102954048
0.8031825325
1.080910147
1.066611191
1.046529779
1.032161091
1.022639562
1.006928268
0.9913310092
0.9843991494
0.97443578
0.9582485777
0.9502461658
0.9446912583
0.9322304562
0.9204145527
0.9167601967
0.9104572756
0.8973158142
0.8904122544
0.8876860713
0.8802303387
0.8685549644
0.8648244852
0.8622519794
0.8541230827
0.8447344744
0.8430028415
0.8406623182
0.833163049
0.8257656493
0.8244015779
0.8219544156
1.110578714
1.096424526
1.079943694
1.06052053
1.048767922
1.037470493
1.019699651
1.007189872
0.9997438773
0.9865365822
0.9719487051
0.9659911271
0.9581805551
0.9431681588
0.9349493785
0.9312552951
0.9221441386
0.9090533811
0.9048273107
0.9010316184
0.890567543
0.8811505692
0.8793908472
0.8754281497
0.8648372893
0.8580738083
0.8564785986
0.8521279367
0.8424270149
0.8372725399
0.8362284287
1.145133965
1.126989245
1.111962652
1.092709325
1.075318002
1.064258802
1.049716862
1.032220612
1.022755272
1.013232269
0.997196148
0.9864506726
0.9806206944
0.9692196253
0.9550429145
0.9498424514
0.9441870478
0.9315529573
0.9219020361
0.9187983985
0.9123949091
0.8997566524
0.8936422598
0.8913155352
0.8846222275
0.8733742615
0.8698096167
0.8677844183
0.8613121641
0.8519817884
0.8493331344
1.177581894
1.156677366
1.140319825
1.124251177
1.104776119
1.089871989
1.078099419
1.061536751
1.046446649
1.037666824
1.025399812
1.009142291
1.001094664
0.9939505223
0.9798962758
0.9684321705
0.9638269491
0.9556698478
0.9416494628
0.935454148
0.9320631095
0.9229674973
0.9104067129
0.9072973253
0.9043815396
0.8952165298
0.8855389126
0.8832017143
0.8797000799
0.8704222639
0.8627577601
1.21193701
1.191059081
1.171391918
1.155260943
1.137127826
1.118113539
1.104642277
1.090676072
1.072809911
1.060548952
1.050915179
1.03567642
1.022010957
1.015231719
1.005188342
0.9899867209
0.9823349085
0.97691841
0.9652264832
0.9528176491
0.9489419025
0.9437484629
0.9316743461
0.9222840626
0.9195483912
0.9141341177
0.9024763873
0.8960784543
0.8943007223
0.8892220283
0.8786335887
1.241392083
1.221525138
1.200710529
1.182494234
1.16607173
1.147419433
1.130444924
1.117387312
1.101758441
1.084982888
1.074314889
1.062982138
1.046700641
1.035714237
1.028263828
1.015381856
1.00154175
0.995874226
0.988868313
0.9747549147
0.965083572
0.9615789475
0.9544425072
0.9411982366
0.9349886235
0.9322003826
0.9246063766
0.9126541937
0.9090620922
0.9066714087
0.8989925536
1.272194355
1.252968181
1.233243826
1.213373655
1.196133498
1.178763884
1.159743445
1.144133866
1.130062946
1.11267892
1.097796728
1.087252292
1.073237169
1.057698859
1.049039317
1.039779748
1.024530276
1.014044146
1.008708577
0.9987568883
0.9843358593
0.9781280288
0.9736038519
0.9631034985
0.9510307161
0.9471807356
0.9429123036
0.9322839443
0.9221811465
0.9197813967
0.9160994601
1.301322353
1.281448268
1.262108199
1.242037647
1.222928668
1.205765857
1.187750884
1.169862727
1.155277897
1.140255178
1.123196425
1.110226379
1.098830573
1.083240683
1.069856316
1.061781721
1.05032555
1.034725973
1.026668043
1.020409491
1.008037285
0.9953183181
0.9905462407
0.9844679021
0.9716156277
0.9621170901
0.9593450491
0.953749705
0.9412214824
0.9339759051
0.932027789
1.328716204
1.309633138
1.290712321
1.271801937
1.252431509
1.234504997
1.217456373
1.19920044
1.182316578
1.167611254
1.151100937
1.134814417
1.122720259
1.10939074
1.09305371
1.082114228
1.073292914
1.059152225
1.045573375
1.039165035
1.030778234
1.016246124
1.006974777
1.002562464
0.9938502791
0.9800521289
0.9738617981
0.9704416743
0.9619692823
0.949454648
0.9447725578
1.352353449
1.335482411
1.317309427
1.298940584
1.28002441
1.261048281
1.243353937
1.22572112
1.207786532
1.191919238
1.176799687
1.160089604
1.145488147
1.133530191
1.118847056
1.103609568
1.094017324
1.083731905
1.068339295
1.057307531
1.050898426
1.040151331
1.02534324
1.018659551
1.01368801
1.00273228
0.989655634
0.9852648064
0.9809779925
0.970504379
0.9595100761
1.371350011
1.357719262
1.34182064
1.324613169
1.306879724
1.288508462
1.270458252
1.253328185
1.235848161
)
;

boundaryField
{
    inlet
    {
        type            calculated;
        value           nonuniform 0();
    }
    outlet
    {
        type            calculated;
        value           nonuniform 0();
    }
    bottom
    {
        type            calculated;
        value           nonuniform 0();
    }
    top
    {
        type            calculated;
        value           nonuniform 0();
    }
    obstacle
    {
        type            calculated;
        value           nonuniform 0();
    }
    defaultFaces
    {
        type            empty;
    }
    procBoundary28to21
    {
        type            processor;
        value           nonuniform List<scalar> 
19
(
1.30592795
1.307005474
1.31629205
1.319501648
1.317704119
1.305332886
1.300551901
1.300551901
1.295819218
1.300143469
1.313575294
1.315743974
1.316440988
1.29596908
1.266678772
1.282165142
1.282165142
1.290542776
1.307974911
)
;
    }
    procBoundary28to22
    {
        type            processor;
        value           nonuniform List<scalar> 
35
(
1.328653332
1.322105404
1.311981838
1.317152503
1.322712075
1.320869907
1.316109216
1.312089755
1.312156796
1.313690306
1.313908946
1.314525545
1.315894122
1.316255164
1.315880608
1.315891558
1.316182113
1.31632267
1.316203444
1.316380471
1.31676783
1.318105599
1.319407689
1.320031205
1.318157815
1.319694474
1.317608441
1.313727337
1.31164826
1.311732014
1.3156075
1.318931622
1.310441807
1.310956675
1.310956675
)
;
    }
    procBoundary28to23
    {
        type            processor;
        value           uniform 1.320350717;
    }
    procBoundary28to27
    {
        type            processor;
        value           nonuniform List<scalar> 
55
(
1.300349481
1.240967407
1.120460857
1.044323625
0.9457234688
1.184779251
1.184779251
1.075428445
0.8772431359
0.7105411239
0.5794152028
0.5525680407
0.5510469224
0.5496548921
0.5516755653
0.5516755653
0.549567442
0.5504857444
0.5521912364
0.5528689583
0.5534661109
0.5544827562
0.5570040856
0.5583825384
0.565403012
0.565403012
0.58531138
0.6120200558
0.63660347
0.6623457227
0.685901332
0.7102490907
0.7346897351
0.7634513366
0.7941342161
0.8244529963
0.8508635731
0.8766499089
0.9034035174
0.9355760519
0.9700004631
1.003776432
1.03369385
1.062957066
1.096089608
1.130637934
1.167200717
1.19790739
1.231041018
1.261571658
1.292846672