/*--------------------------------*- C++ -*----------------------------------*\
  =========                 |
  \\      /  F ield         | OpenFOAM: The Open Source CFD Toolbox
   \\    /   O peration     | Website:  https://openfoam.org
    \\  /    A nd           | Version:  7
     \\/     M anipulation  |
\*---------------------------------------------------------------------------*/
FoamFile
{
    version     2.0;
    format      ascii;
    class       volVectorField;
    location    "2.6";
    object      U;
}
// * * * * * * * * * * * * * * * * * * * * * * * * * * * * * * * * * * * * * //

dimensions      [0 1 -1 0 0 0 0];

internalField   nonuniform List<vector> 
22
(
(2.999661286 -0.0003946084253 0)
(2.997027947 -0.003066040482 0)
(2.985749449 -0.01532667146 0)
(2.967034514 -0.02596858766 0)
(2.998193397 -0.004452299116 0)
(2.990753089 -0.02419707528 0)
(2.983559949 -0.05353928806 0)
(2.976658142 -0.06220662633 0)
(2.979676979 -0.04890042534 0)
(2.973331078 -0.08912257635 0)
(2.966603532 -0.08176258857 0)
(2.96837137 -0.07925703227 0)
(2.968650719 -0.08207745093 0)
(2.973398387 -0.07254365123 0)
(2.963755054 -0.09804665842 0)
(2.969860576 -0.07956718803 0)
(2.988074793 -0.03366090562 0)
(2.972098089 -0.07857708442 0)
(2.992781306 -0.004175027133 0)
(3.009778785 0.03572864726 0)
(2.989782828 -0.004142353296 0)
(2.994238582 0.0241850258 0)
)
;

boundaryField
{
    inlet
    {
        type            fixedValue;
        value           nonuniform 0();
    }
    outlet
    {
        type            inletOutlet;
        inletValue      nonuniform 0();
        value           nonuniform 0();
    }
    bottom
    {
        type            slip;
    }
    top
    {
        type            slip;
    }
    obstacle
    {
        type            slip;
    }
    defaultFaces
    {
        type            empty;
    }
    procBoundary4to3
    {
        type            processor;
        value           nonuniform List<vector> 6((2.999986929 -1.387461049e-05 0) (2.999845789 -0.000399236809 0) (2.990277542 -0.02420344677 0) (2.990277542 -0.02420344677 0) (2.976182234 -0.0629142126 0) (2.962249474 -0.1028073491 0));
    }
    procBoundary4to5
    {
        type            processor;
        value           nonuniform List<vector> 6((2.956285416 -0.03536636556 0) (2.972191951 -0.06481030264 0) (2.970554959 -0.06931875637 0) (2.989170809 -0.03323198891 0) (3.000308143 0.01572136261 0) (3.004888194 0.08624485314 0));
    }
    procBoundary4to9
    {
        type            processor;
        value           nonuniform List<vector> 2((2.961876425 -0.09652970553 0) (2.965925282 -0.08442335905 0));
    }
    procBoundary4to10
    {
        type            processor;
        value           nonuniform List<vector> 4((3.01177302 0.06214778786 0) (3.006290116 0.1303573237 0) (3.01177302 0.06214778786 0) (3.017695929 0.1084778708 0));
    }
}


// ************************************************************************* //
