/*--------------------------------*- C++ -*----------------------------------*\
  =========                 |
  \\      /  F ield         | OpenFOAM: The Open Source CFD Toolbox
   \\    /   O peration     | Website:  https://openfoam.org
    \\  /    A nd           | Version:  7
     \\/     M anipulation  |
\*---------------------------------------------------------------------------*/
FoamFile
{
    version     2.0;
    format      ascii;
    class       volScalarField;
    location    "4.3";
    object      p;
}
// * * * * * * * * * * * * * * * * * * * * * * * * * * * * * * * * * * * * * //

dimensions      [1 -1 -2 0 0 0 0];

internalField   nonuniform List<scalar> 
2222
(
0.771603283
0.9126491758
0.9596451909
0.9741419532
0.9863213622
1.013071583
1.056089436
1.091773489
1.6711025
0.4307804059
0.4314466947
0.4154615521
0.4095575628
0.4087505344
0.407801092
0.4043107591
0.4017689902
0.4015061999
0.4013960288
0.3986211124
0.3963802108
0.3957848976
0.3960437763
0.3948047789
0.3942478061
0.3936701054
0.3929969223
0.3916198815
0.3907363394
0.3898700607
0.3887328858
0.3916335001
0.4354714296
0.6015302922
0.7852160273
0.9176948226
0.9610378827
0.9739889962
0.9877735857
1.015472068
1.051954477
1.169147591
2.146345947
0.4304719882
0.4305593803
0.4142153206
0.4088669275
0.4078232923
0.4064841155
0.4027201434
0.400804194
0.4012303182
0.4006140347
0.3975951023
0.3953245231
0.3950885075
0.395157997
0.3938980354
0.3935574575
0.3932099975
0.392617515
0.3911504509
0.3902205001
0.3893076791
0.3879995301
0.3921608822
0.4448610743
0.6194764216
0.7978899399
0.9218247744
0.9626600508
0.9743503467
0.9892769223
1.017959317
1.055601436
1.702625586
2.306072684
0.4302347217
0.4293833437
0.4129865819
0.4071565639
0.4061311061
0.4048279454
0.4008304609
0.3992527232
0.4007468048
0.4002742599
0.3972924828
0.3942900256
0.3938224185
0.393818785
0.392514137
0.3921169496
0.3921367116
0.3917518418
0.3903980006
0.389660692
0.3887883193
0.3874941199
0.3931179544
0.4553859934
0.6377384343
0.810355472
0.9251982141
0.9627879247
0.9751615833
0.9910647563
1.01525603
1.168983541
2.061283884
0.4306077854
0.427325573
0.4121803264
0.4049600631
0.4048156466
0.4037354494
0.3999015375
0.3977590856
0.3993030384
0.3992932543
0.3968172665
0.3938513416
0.393168157
0.393284127
0.3919486179
0.3912175474
0.3909902045
0.3905726269
0.3897248592
0.3892154005
0.3884083314
0.3871886102
0.394512425
0.4670982411
0.6557383733
0.8215536875
0.9283204665
0.9633640199
0.9755475131
0.9925684677
1.02237196
1.696044267
2.404231521
0.4325700743
0.4244475722
0.4118238954
0.4045912053
0.4045520512
0.4030621538
0.3993332543
0.396988679
0.3976119878
0.3974367806
0.3958670094
0.3935944188
0.3930567004
0.3932256721
0.391893512
0.3909856166
0.3906559444
0.3901119279
0.389399712
0.3889429571
0.3881897739
0.387133013
0.396361421
0.4799777822
0.673793365
0.8327316997
0.9309956898
0.9643349908
0.9758114349
0.9914451001
1.231417808
2.224011645
2.516736198
0.4389502233
0.4212335389
0.4113648453
0.4044242108
0.4042844557
0.4023348331
0.3985016278
0.3960863932
0.3971142002
0.3964398211
0.3948875292
0.3932116464
0.3929365038
0.3931224829
0.3918846554
0.3909631146
0.3906045347
0.3899968512
0.3892918005
0.3888225268
0.3878603775
0.3869063478
0.3988201989
0.4942556377
0.69095227
0.8435974835
0.9347535676
0.9652508469
0.9748784712
1.009434386
1.902074274
2.423743481
2.525936265
0.4416298836
0.4179697462
0.4099251295
0.403683204
0.4032555229
0.4009575421
0.396804474
0.3945694652
0.3964677647
0.3958098853
0.3940719215
0.3924108598
0.3924120318
0.3924315468
0.3913280382
0.3906006605
0.3903582226
0.3897607457
0.388951478
0.388430639
0.3872849981
0.3864635172
0.4020989168
0.5097876649
0.7082908047
0.8532624678
0.9379619564
0.9666391713
0.9784822104
1.429088219
2.253262519
2.432343961
2.506568024
0.439638605
0.4135762919
0.406563326
0.4031239966
0.4013752473
0.3986350803
0.3949932815
0.3935965188
0.3952659721
0.3948309672
0.3932054645
0.391283436
0.3915495274
0.3911140096
0.3900749431
0.3896868624
0.3897132777
0.3891362776
0.3882599405
0.3876645093
0.3863453531
0.3861984395
0.406348877
0.5265382329
0.7239626413
0.862154096
0.9393340455
0.9629690235
1.064616184
1.940930673
2.259934733
2.366804261
2.434642145
0.4371186806
0.4097777437
0.4039512913
0.4030599072
0.4003431433
0.3973670818
0.3944777401
0.3933627852
0.3943455622
0.3937754739
0.3925813535
0.3908451231
0.3911422001
0.3902635296
0.3891049519
0.3887738422
0.3889698232
0.3884774003
0.3878177624
0.3872061731
0.3857281406
0.3862479819
0.4116189979
0.5445197206
0.7408628134
0.8699314066
0.9384041453
0.967917765
1.559769609
2.131832265
2.266804956
2.334734691
2.399570737
0.4347328092
0.4084837034
0.4033183074
0.4032714395
0.4000736678
0.3969301648
0.3942201985
0.3933693862
0.3940223741
0.3932274507
0.3922912701
0.3907097485
0.3909733039
0.3899153379
0.3887967728
0.3885412779
0.3887833229
0.3882952672
0.38768854
0.3871019277
0.3856091199
0.3864546297
0.4179610069
0.5628916603
0.7551237453
0.8800476151
0.9270648698
1.108692607
1.936478368
2.296723554
2.317841118
2.346538085
2.402607495
0.4309814565
0.4077032444
0.4026396078
0.4027357358
0.399552606
0.3962512446
0.3937589031
0.393217377
0.3940389825
0.3929876955
0.3921035811
0.3908544281
0.391090837
0.3899568968
0.388822286
0.3886081674
0.3888282127
0.3883417066
0.3877868491
0.3871471503
0.3856890283
0.3869314501
0.42521188
0.5839469421
0.7677415284
0.8873623474
0.9354107538
1.606821027
2.26384354
2.382960498
2.41149708
2.421083362
0.422592305
0.4067607113
0.4010469996
0.4010234778
0.3982394092
0.3946412535
0.3925633754
0.3925847884
0.3938670973
0.3930719688
0.3918275643
0.3907235211
0.3910140337
0.3899332679
0.3889091043
0.3886823554
0.3889484319
0.3884034438
0.3878336042
0.3869265934
0.3854103777
0.3877802639
0.4341841182
0.6013052263
0.7801961066
0.8752539753
1.112077825
2.08713709
2.330470559
2.395403417
2.435005612
2.486781953
0.4112521527
0.4057535502
0.398726293
0.3986849437
0.3961558929
0.3927855437
0.3909787126
0.391198381
0.3930950921
0.3928558732
0.3913997756
0.3901483441
0.3903514753
0.3893147092
0.3885397048
0.3884120992
0.3887332966
0.3881029775
0.3874851593
0.3863325178
0.3849729422
0.389065756
0.444259697
0.6207185619
0.7971459601
0.8853920386
1.670238902
2.249985064
2.333415243
2.393553943
2.435610383
2.49168638
0.4073958137
0.4051065585
0.397727306
0.3975801798
0.3948167309
0.392253771
0.3905479711
0.3904256354
0.3917072668
0.3921783045
0.3908108554
0.3891585325
0.3890983189
0.387959731
0.3875578137
0.3876477865
0.388033979
0.3873831883
0.3867671885
0.3857108576
0.384802532
0.3908411379
0.4543769412
0.6360653974
0.7798467889
1.061910296
1.944238173
2.219662508
2.291579161
2.368076067
2.420782637
2.484453277
0.407197871
0.4045183322
0.3974104931
0.3973517727
0.3943597355
0.3921099228
0.3905663945
0.3902665843
0.3908570163
0.3908961954
0.3900563391
0.3888053676
0.3885845914
0.3872375986
0.3866771222
0.3870719654
0.3874352662
0.3869148187
0.3863424136
0.3855398843
0.3848149226
0.3927007955
0.4676485131
0.6563495698
0.7840391621
1.555161034
2.056917537
2.176241244
2.224541232
2.302188261
2.365414696
2.439833809
0.4070449888
0.4036316012
0.3967818832
0.3972304286
0.3940441394
0.3918654567
0.3907315649
0.3904195923
0.3905604759
0.3900479526
0.3895041583
0.3887497188
0.3884720046
0.3870801382
0.3864914274
0.3869961633
0.3873047156
0.38679242
0.3862222614
0.3856129671
0.3850671308
0.3954067866
0.4848539866
0.6234852548
1.043722406
1.876244404
2.164713956
2.190973024
2.218926674
2.281619626
2.332071687
2.390806901
0.4070344478
0.4023112547
0.3952142172
0.3964985118
0.3933562257
0.3910853648
0.3905390074
0.3906815475
0.3906921105
0.3897886661
0.3891545587
0.3887854255
0.3885817147
0.3872182603
0.3864466522
0.3869921014
0.3872871436
0.3868438969
0.3863294627
0.3856226753
0.3851278147
0.3992185148
0.481679582
0.7364665875
1.564245564
2.166007349
2.276963081
2.267154317
2.242971439
2.284288259
2.333292087
2.386670054
0.407227075
0.4013572578
0.3932787571
0.3948079455
0.3918623559
0.3894690361
0.3895721386
0.3902673537
0.3905850957
0.3895773069
0.3886466288
0.3885280589
0.3882978847
0.3871799561
0.3866132887
0.3871512161
0.387466771
0.3869661775
0.38629533
0.3853547784
0.3847473139
0.3989431552
0.5126550108
1.153966566
1.921294919
2.23609592
2.301179369
2.325324889
2.322242175
2.318064603
2.344274631
0.4073851752
0.4008578643
0.3924690265
0.3925605951
0.390378717
0.3885141904
0.388254233
0.3891737413
0.3898752614
0.3892203124
0.3877361647
0.3876428267
0.3874073104
0.3867529008
0.386495761
0.3871422912
0.3872986868
0.3867351544
0.3858839585
0.3846406969
0.384459353
0.4015922799
0.690339056
1.440169502
2.007230142
2.246672797
2.302559178
2.329351452
2.359831103
2.39162009
2.402617772
0.4068001844
0.4001885116
0.392277025
0.3917599899
0.3900864316
0.3884444958
0.3880479328
0.3886547409
0.3890643966
0.3886640403
0.3873444657
0.3867551487
0.3861864584
0.3858521213
0.3861390626
0.3869092595
0.3867930461
0.3861259303
0.3852396808
0.384186656
0.3844344545
0.4237127255
0.8445436341
1.502244288
2.002146259
2.220044063
2.291286879
2.326456692
2.359038724
2.409103442
2.456401932
0.4057968475
0.3989832499
0.392609466
0.3916902117
0.3902028818
0.3886151468
0.3880952007
0.3885049546
0.388758587
0.3884362041
0.3873328547
0.3866468878
0.3858247686
0.3851442015
0.3855313857
0.3865186996
0.3863804875
0.3857462665
0.3849661311
0.3839816997
0.385015691
0.4853635293
1.003599342
1.573240357
1.978023077
2.153699707
2.236264461
2.297908401
2.344349906
2.403422895
2.457529537
0.4045370926
0.3970347297
0.3938476565
0.3917870504
0.3898661643
0.3884123115
0.388007911
0.3882416257
0.3886300597
0.3883745053
0.3875757109
0.3868657381
0.3858703818
0.3849791926
0.3852382189
0.3863030771
0.3861758094
0.3855325427
0.3847518784
0.3838792807
0.3902456685
0.6346044932
1.259527874
1.701937966
2.010364251
2.14932489
2.199416107
2.243789924
2.292787923
2.365001928
2.439126097
0.40347183
0.3941499815
0.3937729439
0.3913697787
0.3888387151
0.3876726719
0.3875380797
0.387708705
0.3883451898
0.3882639719
0.3876935841
0.3871037537
0.3860652358
0.3849488586
0.3851748348
0.3861619857
0.3860505349
0.3853782569
0.3845740472
0.3840561951
0.4079137511
0.7740771962
1.443487486
1.88817417
2.109831603
2.176343939
2.202528147
2.234979577
2.261707391
2.318429483
2.385160972
0.4027377436
0.3913171574
0.3930756388
0.3904426239
0.3874677344
0.3863749335
0.3865228976
0.3869581878
0.3878308557
0.3880188184
0.3874732892
0.3869184818
0.3859897783
0.3849836716
0.3850842155
0.3860267045
0.3860084276
0.3852961895
0.3845806547
0.3846047306
0.4550515753
0.8813763531
1.495212804
1.958254651
2.19761559
2.253843971
2.237918614
2.241484155
2.260021057
2.312451273
2.362171388
0.4022889779
0.3900425384
0.3914196924
0.3898226253
0.3869434403
0.3858463877
0.3857673681
0.3862759733
0.3870565593
0.3874162708
0.3867407648
0.3862108021
0.385546984
0.3849003338
0.3850612272
0.385919614
0.3857624559
0.3850021491
0.3844858891
0.3888523049
0.5842050128
1.022603808
1.484752819
1.973538658
2.208677044
2.287319202
2.306861211
2.284974944
2.270591381
2.312256292
2.360036415
0.4015711484
0.3895996145
0.3905178907
0.3896216229
0.3867987214
0.3857198558
0.3855639663
0.3859141235
0.3864680467
0.3866674682
0.3857690594
0.3851053917
0.38468113
0.3846106257
0.3849795823
0.3857078389
0.385427356
0.3846308029
0.3844422897
0.4108092327
0.7289176282
1.161654921
1.492516252
1.956631604
2.210854493
2.288115126
2.328498902
2.348991209
2.326434468
2.325032491
0.4002668731
0.3894150268
0.3903918446
0.3894929559
0.3867613596
0.3857744998
0.385583343
0.3858445838
0.386371075
0.3864458336
0.3855099084
0.3845624559
0.3838761087
0.3840209428
0.3847352713
0.385379892
0.3849553013
0.3842228759
0.3847319645
0.4693636278
0.8281691599
1.23269073
1.535637129
1.908386861
2.184155685
2.281739666
2.327098584
2.358461533
2.376368792
2.383146633
0.398257573
0.3895331921
0.3902661352
0.3889446898
0.3864275537
0.3857161997
0.3856808673
0.3861548295
0.386513268
0.3866091594
0.3856984378
0.3845930232
0.3835829566
0.3833468592
0.3842903143
0.3847439153
0.3841626167
0.3835624455
0.3911292816
0.5858181098
0.9643073966
1.264945062
1.636973115
1.904172427
2.127475109
2.23968414
2.306145686
2.34911401
2.375138482
2.415373857
0.3966582286
0.389937509
0.3898444829
0.3880297898
0.3857666342
0.3854343001
0.3854474306
0.3862791303
0.386870744
0.3869209526
0.3860794384
0.3847844881
0.383654774
0.3830027651
0.3839120367
0.3841103362
0.3833035522
0.3833695112
0.4242974527
0.7630612166
1.060249436
1.290111307
1.746304009
1.928059543
2.121782774
2.200915431
2.256516269
2.306403099
2.357349429
2.409916554
0.3955877318
0.3896675538
0.3889884881
0.387341826
0.3851418406
0.384992915
0.3850591509
0.3860045689
0.3870848425
0.387075546
0.3862013311
0.3849523732
0.3837705124
0.3829380063
0.3836532523
0.3838008092
0.3830128683
0.3858080562
0.515869506
0.8704234753
1.076766774
1.30977564
1.783923273
2.019094388
2.140543144
2.200350961
2.243178654
2.273679812
2.305196845
2.382437097
0.3942264953
0.3891605692
0.3883151826
0.3870159572
0.3850128712
0.3849227586
0.384865292
0.3854854684
0.3869297134
0.3866944399
0.3857913385
0.3849135473
0.383795902
0.3828370672
0.3836206134
0.3835443504
0.3832562263
0.3985877831
0.6270816155
0.9360442736
1.081722122
1.330473737
1.780417353
2.11116175
2.203868436
2.216047592
2.242901091
2.2694646
2.279364934
2.338339393
0.3916717157
0.388106665
0.3879613831
0.3868185365
0.3850658489
0.385083922
0.3849205404
0.3852090875
0.3861011735
0.3854340384
0.3844361091
0.3843351368
0.38361459
0.3828539406
0.3838000905
0.3833299972
0.3835811744
0.4448889821
0.7876082839
1.021356056
1.10106409
1.35498841
1.764511264
2.126859693
2.257951246
2.272251026
2.258352369
2.269362054
2.275980103
2.326835828
0.3896070517
0.386999764
0.3875256386
0.3866424485
0.3850588197
0.3853424952
0.3852102374
0.3852641405
0.3852586086
0.3845225209
0.3834654996
0.3831081974
0.3827407257
0.3826792122
0.3838642156
0.3829000482
0.3883964065
0.5656817661
0.9299586041
1.062017148
1.132951696
1.384747186
1.757603496
2.126851045
2.266375192
2.311200752
2.312081302
2.28494813
2.278019433
0.3893082806
0.3865585956
0.386858414
0.3864002034
0.3849136974
0.385320819
0.3856467041
0.3854725697
0.3853351972
0.3843881262
0.3832854345
0.3824792641
0.3818613336
0.3829363092
0.3833267945
0.3823418953
0.4128059204
0.703676419
0.9763475313
1.066274743
1.153634653
1.427417716
1.760739526
2.093989678
2.260314999
2.312618476
2.33928935
2.337322405
2.309569783
0.3892863996
0.3863607577
0.386105589
0.3860657031
0.384530142
0.3848872455
0.385672747
0.3858948041
0.3856183345
0.3842864901
0.383181276
0.3822338002
0.3815951326
0.3833339635
0.3819656164
0.3832238046
0.4765696656
0.8065849307
0.9984938061
1.056405701
1.156800073
1.487939247
1.785277249
2.057742373
2.217454025
2.29533208
2.33365618
2.35307148
2.366217955
0.3895819268
0.3864747088
0.3854980354
0.3856162294
0.3840915716
0.3842551702
0.3854719302
0.3860674088
0.3857056954
0.3842546417
0.3832461377
0.3820403341
0.3819998608
0.3834464977
0.3815326655
0.3914315546
0.5945824091
0.9384613273
1.036363982
1.049930391
1.156927179
1.536837435
1.866273431
2.064854458
2.183939988
2.251179109
2.302858998
2.341440222
2.37365879
0.3900490802
0.3868437351
0.3850921128
0.3850910627
0.3841435814
0.3841850734
0.385065503
0.3860417247
0.3856496091
0.3841419246
0.3834186462
0.3821183175
0.3829506566
0.3823862702
0.3816065991
0.4310247429
0.7803866262
1.031605338
1.063164655
1.058089503
1.16005848
1.541775338
1.958220511
2.095526057
2.18402644
2.236628348
2.261920593
2.297122711
2.362618976
0.389713979
0.3865871748
0.3849757304
0.3845848687
0.384423173
0.3843243153
0.3845411249
0.3857542227
0.3854730105
0.3839272587
0.3833061055
0.3821554615
0.3833555879
0.3815783896
0.3846907915
0.5367129622
0.8932691306
1.05035963
1.067076056
1.075648115
1.173010998
1.547543576
1.989661484
2.168752404
2.195447839
2.23597625
2.253358895
2.252087821
2.326912935
0.38905103
0.3858112775
0.3850035821
0.384125718
0.3846248567
0.3845747993
0.3841889676
0.3849000188
0.3849494908
0.3835201103
0.383032069
0.3825047468
0.383239118
0.3810418048
0.4022578966
0.6494787074
0.9430411623
1.037233956
1.065373807
1.084766967
1.198947044
1.55807425
1.993895871
2.218432132
2.240847024
2.239836325
2.252157651
2.244431769
2.294691417
0.3887793315
0.3847522893
0.3849655204
0.3835128404
0.3845181733
0.3846161488
0.3840702005
0.3839551307
0.3839406921
0.3830478588
0.3824803035
0.3826895199
0.381373211
0.3800938743
0.4565098055
0.7961459877
1.009653209
1.035858696
1.052588298
1.08608814
1.242504057
1.578081697
1.987570547
2.225001372
2.289937383
2.268433737
2.257628064
2.24317227
0.3886467519
0.3844571798
0.3848438532
0.3825022469
0.3836875232
0.3844274835
0.384090964
0.3840959236
0.3840548789
0.382911594
0.3819995201
0.3824970354
0.379177012
0.3875552064
0.5865184256
0.9433242577
1.051553152
1.045796684
1.046582561
1.081072025
1.289488825
1.617898568
1.974659876
2.22057907
2.291937046
2.307534698
2.28838553
2.255388029
0.3887951182
0.3843059139
0.3848273849
0.381894079
0.3831294413
0.3841036818
0.3842063331
0.3846600612
0.3842337001
0.3822849081
0.3820764103
0.3808880344
0.3788312965
0.4234659604
0.7443243735
1.002231909
1.058590522
1.059002078
1.048621368
1.077988188
1.313191161
1.680276293
1.979119358
2.185660036
2.275922653
2.305706247
2.318015246
2.299242203
0.3896356045
0.3842067438
0.384973479
0.3820399565
0.3829764015
0.3836911731
0.3844691747
0.3850573938
0.3838135736
0.3818704398
0.3823356587
0.3795754652
0.3815796114
0.5117728801
0.8438263938
1.014314564
1.056394754
1.063149202
1.060263034
1.081541987
1.325920283
1.755976464
1.998562999
2.156130904
2.234711459
2.282573487
2.312259478
2.329540954
0.3897558812
0.384257317
0.3851401419
0.3822072911
0.3828184281
0.3833988299
0.3846694824
0.3851772223
0.3832421388
0.3821023675
0.3825033367
0.3791107037
0.3987163916
0.6342952187
0.9518198826
1.038626589
1.048311885
1.063377884
1.068949533
1.094114949
1.336270964
1.806557363
2.054300541
2.154140589
2.216799913
2.240526239
2.283501347
2.327576529
0.3892506913
0.3844018197
0.3852379175
0.3824194618
0.3827708013
0.383467638
0.3843880529
0.3844317912
0.3827292973
0.3828791263
0.3819081864
0.3804865863
0.4561112985
0.8067624111
1.032644376
1.06228719
1.051164177
1.057896502
1.072393127
1.114053036
1.349920742
1.822832693
2.125773919
2.163174906
2.212592511
2.22689354
2.240269141
2.310201684
0.3880088549
0.3844509489
0.3851859662
0.3825532466
0.3828943273
0.3836477738
0.3834173052
0.3826300561
0.3820746951
0.3838238598
0.3816565872
0.3896562909
0.57976951
0.9189985269
1.049760578
1.066715634
1.059240334
1.057755759
1.070409683
1.132343879
1.375024163
1.831101933
2.158212934
2.20569207
2.212870556
2.224458157
2.229061881
0.3843391784
0.384508604
0.3850256446
0.3824392343
0.3832310177
0.3837976677
0.3822351209
0.3814147277
0.3831929108
0.3841904844
0.3817527801
0.4223561937
0.7007869766
0.9528200926
1.044580578
1.058276517
1.055971153
1.056340351
1.065965626
1.145410556
1.417803498
1.83916953
2.164863828
2.253796664
2.231541923
2.227100424
2.227707898
0.3808138946
0.3843992982
0.3846307432
0.3823158909
0.3835955003
0.3836885042
0.3817880331
0.3818936439
0.3847661361
0.3831692984
0.3846751154
0.4983475927
0.8240133777
0.9986690496
1.034293378
1.049691142
1.056210887
1.054207207
1.063462099
1.155000598
1.472389509
1.847856251
2.159778933
2.256232986
2.267706198
2.244102347
2.233246641
0.380404309
0.3831434796
0.3837735933
0.3823323795
0.3839496042
0.3832158795
0.3817499283
0.3842756577
0.3854139971
0.3821135156
0.4002044272
0.6396654048
0.9727834257
1.048314012
1.041636236
1.046105651
1.056065464
1.058391893
1.066146427
1.164966135
1.527167899
1.867031786
2.131075266
2.241359188
2.266763546
2.270400839
2.258093044
0.3804408424
0.3821678965
0.3833711167
0.3823325144
0.3836380329
0.3825824437
0.3831523026
0.3867366764
0.3839464022
0.3822139424
0.4597392923
0.8141504602
1.034894038
1.067784426
1.060670329
1.054525077
1.05447547
1.063564878
1.072914815
1.176891228
1.572291269
1.914501096
2.11643248
2.203252891
2.246684554
2.271313517
2.296412154
0.3806740616
0.3821390725
0.3832874128
0.3822961663
0.3827204174
0.3814383671
0.3850623999
0.3870820781
0.38227331
0.390309173
0.575055605
0.895823432
1.045344989
1.073953533
1.073779927
1.064750023
1.061891009
1.065490697
1.079333911
1.192587453
1.602631155
1.977260494
2.11536082
2.183561741
2.210797784
2.259782282
2.306917033
0.381256398
0.3821419285
0.3832463891
0.3822787298
0.381756167
0.3815222266
0.3868347305
0.3847454782
0.3812620857
0.4204990543
0.6760031377
0.9394584336
1.032005453
1.061334468
1.075053753
1.073047899
1.069335365
1.066437183
1.082264767
1.213379242
1.617850521
2.027012526
2.125926033
2.179027555
2.198052702
2.228828538
2.310228787
0.3824589363
0.3822130702
0.3832677939
0.3823307278
0.3816100287
0.3828242268
0.386941694
0.3807080645
0.381513349
0.487201398
0.80903074
1.001194319
1.031345835
1.042342624
1.05792271
1.06885454
1.072565487
1.070119922
1.084782905
1.239777122
1.630082821
2.049897064
2.16404354
2.18046431
2.196849847
2.212650405
0.3841104928
0.3826424612
0.3833796942
0.38243804
0.3819126214
0.3847838337
0.3837715014
0.3769861935
0.3965215875
0.6307633065
0.9610143262
1.042133758
1.040327472
1.039837379
1.045105031
1.05895552
1.068764529
1.072558752
1.090995376
1.271913502
1.647308539
2.054878764
2.199125586
2.194833127
2.201488471
2.215501148
0.3855049525
0.3838492761
0.3838296668
0.3828711727
0.3827466118
0.3859820359
0.3793240191
0.3770970161
0.4542397221
0.8058277074
1.024692478
1.056031955
1.056278668
1.047555165
1.04684975
1.052906411
1.065422532
1.073979616
1.099758546
1.309665957
1.677245009
2.044552708
2.196521522
2.226197597
2.219316281
2.225899361
0.3859882245
0.3855105749
0.3850849794
0.3833127698
0.3846805962
0.3854649882
0.3766152806
0.3854885778
0.5693256713
0.886557155
1.02591209
1.062572272
1.067684831
1.063534686
1.055930547
1.054538346
1.061242048
1.072976284
1.10706012
1.349645779
1.725584219
2.030227041
2.17709087
2.228402361
2.248776059
2.258159229
0.3859367794
0.3855645593
0.3859413662
0.3836962584
0.3863053927
0.3808899745
0.3748760791
0.4196379945
0.678576005
0.9514314769
1.036532472
1.057920729
1.073251854
1.073281319
1.068929033
1.062168109
1.060524844
1.067759805
1.111071476
1.387529743
1.783596043
2.030252832
2.141048491
2.216590554
2.26076849
2.307363302
0.3858548182
0.3849208286
0.3859243023
0.3840916783
0.3862662528
0.376297447
0.377571728
0.49037009
0.8145171595
1.013379772
1.05354995
1.053764406
1.063714787
1.077076324
1.077065737
1.071435303
1.0654004
1.064419025
1.115535133
1.415839004
1.837915835
2.03835549
2.128321205
2.190909248
2.265947663
2.328184255
0.3858246919
0.3840859467
0.3854021461
0.384417572
0.3839973392
0.3737428731
0.3981754867
0.6234442709
0.9298013162
1.03341897
1.046995737
1.049248711
1.051995215
1.063760768
1.075509691
1.076256992
1.069671441
1.06580863
1.124594803
1.43808197
1.883509141
2.064965595
2.129103275
2.180212861
2.258882291
0.3858745669
0.3837952875
0.3841455164
0.3842834135
0.379421659
0.3739997864
0.4552002747
0.7670989955
0.9846158175
1.039413752
1.045910641
1.043082806
1.04477661
1.051769009
1.064760021
1.073785943
1.071393028
1.0713301
1.138925803
1.460144031
1.89718563
2.109273342
2.137641421
2.183786239
2.235142694
0.3859230284
0.3837769161
0.3841814649
0.3836698284
0.3757524765
0.3883568356
0.5642179045
0.8621125749
1.00468407
1.037494166
1.049769412
1.050192602
1.050419622
1.050202778
1.055790594
1.067728172
1.071765274
1.076730652
1.160037497
1.490041027
1.901121664
2.130249639
2.161755687
2.194812856
2.23663417
0.3858112785
0.3839426931
0.3842889765
0.3819467321
0.3754619301
0.4299304672
0.6818126203
0.9532924274
1.030866235
1.036039312
1.048132546
1.059453637
1.060497084
1.060194613
1.060160039
1.065283137
1.068998913
1.079285514
1.186210262
1.528940579
1.9042216
2.12870724
2.19997879
2.218860986
2.252670759
0.3855033596
0.385514076
0.3849471011
0.3798848877
0.3848873902
0.5028900416
0.8244421743
1.021183335
1.056381715
1.048844488
1.053333147
1.059906001
1.069362455
1.071474622
1.068436527
1.068114214
1.068293459
1.077804424
1.213614116
1.573328034
1.910950075
2.113889171
2.214518852
2.263219498
2.28915957
0.3846112848
0.3870241677
0.3855268899
0.3801871524
0.4114437826
0.6228191009
0.9181376501
1.041317404
1.06794493
1.062739968
1.061371337
1.059734595
1.069723532
1.075442117
1.072957546
1.06854548
1.065262142
1.075690052
1.23932667
1.619512267
1.921151066
2.095245394
2.217739959
2.288684053
2.342039322
0.3838673852
0.3887767424
0.386876367
0.3881317385
0.4673280637
0.7442067511
0.9513380328
1.035879487
1.057025369
1.060313332
1.06130443
1.059736655
1.062450937
1.068480206
1.070127203
1.066363889
1.062857386
1.077457836
1.265670219
1.669494175
1.942456903
2.092814668
2.21273783
2.297665808
2.361597438
0.3847439153
0.3906788259
0.3891612662
0.4075847572
0.5633991712
0.8244187185
0.9775063021
1.017904166
1.036337176
1.044407377
1.050378211
1.052463402
1.054475586
1.058299441
1.063827972
1.06477123
1.06389683
1.085647485
1.29217392
1.720399585
1.985231628
2.101754033
2.202806181
2.300381078
0.3872399001
0.3932103195
0.39568704
0.4476624495
0.6699448207
0.913647991
1.003224772
1.010788884
1.021185028
1.035557409
1.04867144
1.054940019
1.058522605
1.060215995
1.062484061
1.063572912
1.06451192
1.09508666
1.320126374
1.750880466
2.036014185
2.119970085
2.204855494
2.28379378
0.3895645986
0.3980507685
0.4112038146
0.5219487693
0.7979884833
1.00272916
1.026005984
1.022029082
1.019347444
1.03000518
1.048973647
1.06170842
1.06809535
1.068928079
1.067097603
1.06397334
1.064293251
1.10543439
1.352038137
1.767867571
2.067677587
2.160243876
2.219821815
2.270432306
0.3970686842
0.406012738
0.4405780272
0.6102348841
0.920632819
1.036911227
1.050212697
1.043328196
1.036665541
1.032941347
1.04750258
1.064747036
1.07428392
1.075252993
1.071471887
1.065905226
1.064961877
1.119248682
1.389823282
1.784876097
2.082348861
2.212809749
2.24873582
2.280577307
0.4061212023
0.4199355517
0.4848263852
0.7258000066
0.9745183878
1.049399431
1.061884754
1.058179059
1.054248755
1.049112441
1.049396907
1.05790299
1.068805285
1.072914376
1.072559022
1.067341167
1.06694454
1.135447773
1.433235833
1.806079884
2.091457
2.238242295
2.299075684
2.312420628
0.4173730945
0.4425958828
0.5588282847
0.8333220147
0.9852446939
1.037002347
1.05958954
1.064421829
1.063485634
1.059889457
1.054784269
1.051011976
1.057868401
1.06628749
1.069883192
1.066118414
1.069629317
1.153792979
1.480857997
1.834310513
2.092753107
2.250693807
2.324485197
2.359825433
0.4358552306
0.4757443994
0.6681394817
0.8970311426
1.001104781
1.015719457
1.032144115
1.043590411
1.054173268
1.057567169
1.054460564
1.052528225
1.05277447
1.05768865
1.062902975
1.062617982
1.072125289
1.175168278
1.532632255
1.875163032
2.098176465
2.255126441
2.333255083
0.4534041214
0.5238282599
0.7787340186
0.9608537905
1.009854739
1.010041429
1.013392722
1.019202631
1.035909694
1.051977071
1.058749607
1.05869108
1.057469252
1.055852578
1.054423588
1.056728703
1.072204144
1.199573183
1.586453549
1.931492353
2.115314165
2.246848586
2.335194996
0.4726106555
0.5923652573
0.8892530047
1.018105301
1.018814794
1.011586548
1.012096603
1.015943185
1.025041133
1.042980541
1.061344169
1.066582015
1.066155264
1.059163076
1.055908276
1.054549223
1.075693976
1.225701336
1.628305031
1.989674771
2.140181749
2.239334046
2.319945002
0.4928891452
0.7017258986
0.9794487267
1.033775172
1.025989255
1.013988119
1.014969293
1.017244478
1.024747662
1.039837025
1.057811911
1.071023525
1.073383692
1.067227062
1.062654493
1.059599181
1.080087813
1.260540031
1.671831061
2.03156207
2.185237151
2.250380196
2.29756596
0.5016566653
0.8443141817
1.014088972
1.040204743
1.034403086
1.018971896
1.022220517
1.033187554
1.043269488
1.054698902
1.064670627
1.070797039
1.075364269
1.076106339
1.071856301
1.063086229
1.084885061
1.285917968
1.696294065
2.055940586
2.225139529
2.267528171
2.299571901
0.5478857154
0.9708814923
1.021484619
1.054955714
1.051644049
1.045051728
1.051713546
1.05907277
1.06208276
1.058888085
1.057488768
1.062098838
1.070499969
1.077113421
1.070571746
1.065841446
1.111418096
1.361944699
1.778246663
2.113452783
2.270466353
2.309696226
0.5078261086
1.025857367
1.013715733
1.037544273
1.039943224
1.04211102
1.04464235
1.046591299
1.048174362
1.045507309
1.043332357
1.050586008
1.063441265
1.066972487
1.056514191
1.057329785
1.091162191
1.298728367
1.705500726
2.050980426
2.241653944
2.325004703
0.5296845787
0.8770146486
0.9951508569
1.011542861
1.031992874
)
;

boundaryField
{
    inlet
    {
        type            fixedValue;
        value           nonuniform 0();
    }
    outlet
    {
        type            zeroGradient;
    }
    bottom
    {
        type            slip;
    }
    top
    {
        type            slip;
    }
    obstacle
    {
        type            zeroGradient;
    }
    defaultFaces
    {
        type            empty;
    }
    procBoundary15to9
    {
        type            processor;
        value           nonuniform List<scalar> 
35
(
0.7573551801
0.9075614077
0.9587520412
0.9743871374
0.984952175
1.011578398
1.053361757
1.091041633
1.135743317
0.4312896061
0.4327483176
0.4168422835
0.4099589616
0.409362452
0.4086343972
0.4051542033
0.4025544042
0.4027758553
0.4036724243
0.4010039374
0.3974850828
0.3960326855
0.3963480343
0.3950340056
0.3943973695
0.3937951687
0.3930818797
0.3918167641
0.3910898042
0.3902325594
0.3892317102
0.3914870312
0.4272497932
0.5837247205
0.5837247205
)
;
    }
    procBoundary15to10
    {
        type            processor;
        value           nonuniform List<scalar> 
19
(
2.472681106
2.456856322
2.445962824
2.444612188
2.444612188
2.554996224
2.57909467
2.576954152
2.563508835
2.504276481
2.457742526
2.455817302
2.444346218
2.444346218
2.527731418
2.546319567
2.542562613
2.51058113
2.451073316
)
;
    }
    procBoundary15to16
    {
        type            processor;
        value           nonuniform List<scalar> 
71
(
2.436978627
2.389670698
2.389670698
2.422859747
2.489287974
2.501667678
2.493591004
2.453144827
2.406267323
2.399267076
2.363500482
2.363500482
2.399833604
2.45106727
2.453234839