/*--------------------------------*- C++ -*----------------------------------*\
  =========                 |
  \\      /  F ield         | OpenFOAM: The Open Source CFD Toolbox
   \\    /   O peration     | Website:  https://openfoam.org
    \\  /    A nd           | Version:  7
     \\/     M anipulation  |
\*---------------------------------------------------------------------------*/
FoamFile
{
    version     2.0;
    format      ascii;
    class       volVectorField;
    location    "1.7";
    object      U;
}
// * * * * * * * * * * * * * * * * * * * * * * * * * * * * * * * * * * * * * //

dimensions      [0 1 -1 0 0 0 0];

internalField   nonuniform List<vector> 
140
(
(3.005146442 0.0004789845052 0)
(3.000389722 -0.004597706471 0)
(2.999474189 -0.005744973355 0)
(2.999772606 -0.004064199833 0)
(3.066194241 -0.2378520371 0)
(3.058996376 -0.2114649643 0)
(3.054011847 -0.1523795407 0)
(3.026087246 -0.06572426194 0)
(3.015752467 -0.05171824891 0)
(3.021597874 -0.03424561743 0)
(3.008102252 -0.01299693116 0)
(2.999869223 -0.003756977051 0)
(3.068265218 -0.2420635691 0)
(3.070613144 -0.2314675156 0)
(3.065441384 -0.2225030528 0)
(3.051586915 -0.1870971909 0)
(3.031095509 -0.1159088672 0)
(3.029535066 -0.06150191127 0)
(3.013081192 0.004480981767 0)
(2.999654223 0.0008735742306 0)
(3.048795134 -0.1776139371 0)
(3.059387889 -0.2115408631 0)
(3.060558886 -0.2214770706 0)
(3.060120987 -0.2174173426 0)
(3.055128017 -0.1957428993 0)
(3.041672266 -0.1400823392 0)
(3.033952299 -0.09943398805 0)
(3.020233125 -0.04893352252 0)
(3.04667447 -0.1675509489 0)
(3.052715115 -0.2010874095 0)
(3.057587014 -0.2357653323 0)
(3.065824243 -0.2240299463 0)
(3.064500357 -0.2177644308 0)
(3.058928336 -0.205878568 0)
(3.048855078 -0.173387294 0)
(3.026722153 -0.08033336528 0)
(3.01980151 -0.07019645882 0)
(3.035691061 -0.1298308478 0)
(3.042225009 -0.1535993067 0)
(3.042556775 -0.1735652174 0)
(3.056704556 -0.2032488842 0)
(3.058536602 -0.20915411 0)
(3.058651708 -0.2083911125 0)
(3.047052712 -0.1615071263 0)
(3.004967737 -0.0275462873 0)
(3.02477657 -0.09214775057 0)
(3.034481293 -0.1179431671 0)
(3.044044736 -0.1758225245 0)
(3.051792969 -0.1999270025 0)
(3.056113712 -0.22163493 0)
(3.062133139 -0.2109243607 0)
(3.058425801 -0.1988568243 0)
(2.989046811 0.02452911335 0)
(3.00635655 -0.02639043128 0)
(3.01720168 -0.05552947447 0)
(3.027068102 -0.09880842836 0)
(3.035332142 -0.1259880829 0)
(3.037037345 -0.1481521751 0)
(3.049006733 -0.1825737563 0)
(3.05271333 -0.1913566555 0)
(2.968259815 0.07895911555 0)
(2.990540601 0.02155367462 0)
(2.99678714 -0.0008130967015 0)
(3.016288916 -0.0654072291 0)
(3.022826771 -0.08087168463 0)
(3.036459844 -0.1395281544 0)
(3.045864042 -0.1716468164 0)
(3.053890552 -0.199474543 0)
(2.952745696 0.1186315336 0)
(2.968495661 0.08175375517 0)
(2.982689316 0.03792022258 0)
(2.999454366 -0.00927346628 0)
(3.006136547 -0.0289989285 0)
(3.020392466 -0.08130883649 0)
(3.027355172 -0.09485833869 0)
(3.03839219 -0.1419498515 0)
(2.936116811 0.1597406891 0)
(2.950611754 0.1246358424 0)
(2.965787164 0.08335257666 0)
(2.984004366 0.04022559193 0)
(2.990261485 0.01387516759 0)
(3.010709787 -0.04495256625 0)
(3.009891993 -0.05018952613 0)
(3.030216136 -0.1315995625 0)
(2.925194158 0.1822912914 0)
(2.934170512 0.1624990265 0)
(2.950794363 0.1232543705 0)
(2.963342801 0.09312424124 0)
(2.978130696 0.04835625927 0)
(3.00157028 0.004019504175 0)
(2.987942452 -0.00944246925 0)
(3.007966212 -0.09402721203 0)
(2.922765091 0.1876260205 0)
(2.926535568 0.1807494008 0)
(2.935809505 0.1591474049 0)
(2.946677548 0.1303581848 0)
(2.965676506 0.08143176273 0)
(2.978575257 0.06317155147 0)
(2.973666568 0.004330486417 0)
(2.977944052 -0.09407567199 0)
(2.924897973 0.192203788 0)
(2.922885265 0.188794473 0)
(2.924766372 0.1815607094 0)
(2.935648441 0.1564901306 0)
(2.941431398 0.1351866386 0)
(2.956402143 0.08252029443 0)
(2.946983997 0.01055725474 0)
(2.951343352 -0.0974751503 0)
(2.934448067 0.1710978604 0)
(2.925655834 0.1833750718 0)
(2.925267141 0.1831858016 0)
(2.92653041 0.174152699 0)
(2.930568085 0.1438035015 0)
(2.918548722 0.07324184287 0)
(2.93136767 -0.003705030876 0)
(2.924050415 -0.1037083652 0)
(2.952490053 0.1290036594 0)
(2.931100683 0.1765707775 0)
(2.930707393 0.1839231696 0)
(2.919747916 0.1552824348 0)
(2.911752422 0.1185177567 0)
(2.902224353 0.06537309528 0)
(2.899478176 -0.0150258041 0)
(2.898473566 -0.06194748866 0)
(2.968236466 0.08708456388 0)
(2.95007935 0.1351354307 0)
(2.928474816 0.1437777672 0)
(2.911932 0.1325168591 0)
(2.886502402 0.05987447056 0)
(2.871252239 0.0009025963673 0)
(2.874417878 -0.04760268136 0)
(2.878532859 -0.06390481589 0)
(2.978912428 0.02065431883 0)
(2.944793209 0.0446713094 0)
(2.910719285 0.07263502141 0)
(2.888700408 0.04686780363 0)
(2.881081588 0.06974865394 0)
(2.857422405 0.02586343886 0)
(2.861232923 0.00500030552 0)
(2.876006181 -0.0120095994 0)
)
;

boundaryField
{
    inlet
    {
        type            fixedValue;
        value           nonuniform 0();
    }
    outlet
    {
        type            inletOutlet;
        inletValue      uniform (3 0 0);
        value           nonuniform List<vector> 
18
(
(2.999772606 -0.004064199833 0)
(2.999869223 -0.003756977051 0)
(2.999654223 0.0008735742306 0)
(3.020233125 -0.04893352252 0)
(3.026722153 -0.08033336528 0)
(3.047052712 -0.1615071263 0)
(3.058425801 -0.1988568243 0)
(3.05271333 -0.1913566555 0)
(3.053890552 -0.199474543 0)
(3.03839219 -0.1419498515 0)
(3.030216136 -0.1315995625 0)
(3.007966212 -0.09402721203 0)
(2.977944052 -0.09407567199 0)
(2.951343352 -0.0974751503 0)
(2.924050415 -0.1037083652 0)
(2.898473566 -0.06194748866 0)
(2.878532859 -0.06390481589 0)
(2.876006181 -0.0120095994 0)
)
;
    }
    bottom
    {
        type            slip;
    }
    top
    {
        type            slip;
    }
    obstacle
    {
        type            slip;
    }
    defaultFaces
    {
        type            empty;
    }
    procBoundary35to29
    {
        type            processor;
        value           nonuniform List<vector> 9((3.007573257 0.004648784128 0) (3.004761283 0.0008086776768 0) (3.002941405 -0.004205154639 0) (3.002784558 -0.00412703728 0) (3.056768768 -0.1978170866 0) (3.036901423 -0.1218549759 0) (3.045296821 -0.103540006 0) (3.01440044 -0.04177350287 0) (3.01440044 -0.04177350287 0));
    }
    procBoundary35to34
    {
        type            processor;
        value           nonuniform List<vector> 
17
(
(3.065807773 -0.2365670176 0)
(3.064436805 -0.2400803512 0)
(3.045089209 -0.1646470375 0)
(3.034481128 -0.117977873 0)
(3.015216304 -0.05570676384 0)
(2.99377125 0.009858301875 0)
(2.974141143 0.06480814623 0)
(2.954218414 0.1159241085 0)
(2.934616473 0.1624591659 0)
(2.925646622 0.1832756689 0)
(2.920649935 0.1916365234 0)
(2.923168298 0.1857795735 0)
(2.929602999 0.1757742353 0)
(2.937944718 0.1659092031 0)
(2.965230959 0.08922249001 0)
(2.986902448 0.03341806569 0)
(2.994901364 0.005400829188 0)
)
;
    }
}


// ************************************************************************* //
