/*--------------------------------*- C++ -*----------------------------------*\
  =========                 |
  \\      /  F ield         | OpenFOAM: The Open Source CFD Toolbox
   \\    /   O peration     | Website:  https://openfoam.org
    \\  /    A nd           | Version:  7
     \\/     M anipulation  |
\*---------------------------------------------------------------------------*/
FoamFile
{
    version     2.0;
    format      ascii;
    class       volScalarField;
    location    "4.9";
    object      rho;
}
// * * * * * * * * * * * * * * * * * * * * * * * * * * * * * * * * * * * * * //

dimensions      [1 -3 0 0 0 0 0];

internalField   nonuniform List<scalar> 
2222
(
1.392273586
1.391622791
1.39009136
1.387656441
1.386798333
1.387161328
1.38781371
1.38876122
1.389150289
1.388924689
1.388280595
1.387608823
1.387488961
1.387613553
1.388028214
1.388701039
1.389250331
1.389479882
0.9513096429
0.949916237
0.9533603596
0.9785839691
1.055050199
1.166715575
1.264010134
1.343088149
1.384004911
1.374644592
1.377983654
1.382126377
1.386694916
1.389618745
1.390661074
1.390722417
1.389827945
1.388285427
1.387078004
1.386823359
1.386932776
1.387324818
1.387768336
1.387928486
1.387846904
1.387637691
1.387483319
1.387529445
1.387806449
1.38834171
1.388832196
1.389246386
0.9488417664
0.9608010403
1.008487441
1.108526309
1.240015237
1.336716465
1.357833189
1.377087352
1.390772649
1.38975175
1.386364897
1.385648392
1.385818619
1.385784627
1.386006686
1.386841248
1.387767448
1.387828796
1.387646787
1.387416441
1.387375224
1.387537331
1.387855004
1.387934818
1.387827099
1.387766138
1.387637525
1.38761503
1.387834567
1.388331407
1.38879267
1.389101642
0.9773627031
1.062614173
1.169462995
1.281900206
1.321798788
1.361802222
1.369158762
1.375166288
1.383414119
1.38945735
1.388733785
1.387854999
1.386515323
1.385509646
1.38510079
1.385482716
1.386531975
1.387390029
1.387789387
1.387984519
1.388179299
1.388361157
1.388495747
1.388412547
1.388154092
1.387886972
1.38778239
1.38778438
1.387938966
1.388406616
1.388832936
1.38890482
1.123904645
1.240896908
1.331948716
1.376589657
1.370562923
1.374869064
1.377153675
1.377739008
1.382916134
1.387340105
1.387844053
1.387722954
1.387426304
1.387084579
1.386600271
1.386520194
1.386991121
1.387356639
1.387581449
1.387810691
1.388135632
1.388498308
1.388656044
1.38860543
1.388364516
1.388023806
1.387759681
1.387740036
1.387864813
1.38831215
1.388682566
1.388608066
1.315026041
1.335117992
1.360425494
1.386552311
1.385182862
1.384780743
1.385610414
1.386044158
1.386766337
1.38705915
1.386802977
1.386756679
1.387114485
1.387441862
1.388053955
1.388157474
1.38817161
1.387872431
1.387257666
1.38720931
1.387444322
1.38794881
1.388238055
1.388338876
1.388228387
1.387998009
1.387771869
1.387673619
1.387730095
1.387976422
1.388286419
1.388219619
1.362192469
1.371592378
1.375372374
1.381736778
1.384092232
1.385125422
1.386576237
1.387767572
1.387749757
1.387274135
1.386765153
1.386300776
1.386448844
1.386890884
1.387626545
1.387983678
1.387935019
1.387680628
1.387113791
1.386889884
1.386978783
1.387265885
1.387584337
1.387831683
1.387953654
1.387879098
1.387781483
1.387727145
1.387704556
1.387792737
1.38795447
1.387942064
1.380017219
1.388094493
1.388672336
1.387461429
1.385970655
1.384198622
1.384895962
1.385973367
1.386680256
1.386874281
1.386533528
1.386220218
1.38603815
1.386146401
1.386438605
1.386817433
1.386928707
1.386960166
1.386888304
1.38681298
1.386911075
1.387143232
1.387417814
1.387705086
1.387832407
1.387817237
1.387784409
1.387733326
1.387644544
1.387665235
1.387751021
1.387754739
1.384092489
1.389096967
1.389923748
1.389586146
1.387849364
1.384829378
1.383293701
1.383423144
1.384088798
1.385291151
1.386073788
1.386259319
1.386249342
1.38631778
1.386406671
1.386423867
1.386480439
1.386666183
1.386881732
1.386951824
1.387038146
1.387264197
1.3875524
1.387756014
1.387809977
1.387829881
1.387781364
1.387596085
1.387420433
1.387425234
1.387503439
1.387527749
1.3805832
1.383309567
1.386496569
1.387596597
1.387060682
1.386017462
1.384186749
1.383785023
1.384180085
1.385240962
1.386135327
1.386451284
1.386601272
1.386796418
1.386911124
1.386832806
1.386814507
1.386969861
1.387120112
1.387065505
1.387103682
1.387312726
1.387589419
1.387715074
1.3877459
1.387751968
1.387679599
1.387418343
1.387141629
1.387109711
1.387152598
1.387220147
1.381570057
1.381463546
1.383186409
1.38531714
1.385989498
1.386092537
1.385799053
1.385563438
1.385734148
1.38606607
1.38645472
1.386648324
1.38679044
1.387024587
1.387299579
1.387315815
1.387292084
1.387350059
1.387340986
1.387135137
1.387125744
1.387257652
1.387475118
1.387571785
1.387599115
1.387589656
1.387550892
1.38737787
1.387098998
1.386999355
1.387008046
1.387082913
1.384423123
1.383590159
1.384304283
1.385443968
1.385728495
1.385973883
1.386040105
1.386239695
1.386639229
1.386779201
1.386803006
1.386810669
1.386878587
1.38704675
1.38731723
1.387465597
1.38749057
1.387503717
1.387461047
1.387211223
1.387157234
1.387236354
1.387353124
1.387416517
1.387465774
1.387492063
1.387476984
1.387364533
1.387097098
1.386972037
1.386978158
1.387061584
1.386337884
1.386413243
1.386585776
1.386567693
1.386377433
1.385996062
1.385822948
1.386039563
1.386525624
1.38679773
1.386850682
1.386856315
1.386907485
1.387051345
1.387279257
1.387410898
1.387407325
1.387460426
1.387498431
1.387310148
1.38720826
1.387238292
1.387272009
1.38732619
1.387373509
1.387417346
1.387419016
1.387360867
1.387197451
1.387046338
1.386990788
1.387053692
1.385995158
1.386422801
1.386885074
1.386874814
1.386818622
1.386515172
1.386142394
1.38604788
1.386276559
1.386645984
1.386840482
1.386962372
1.387078282
1.387186897
1.387353306
1.38744945
1.387478472
1.387573341
1.387567232
1.387397598
1.387258787
1.387215959
1.387221937
1.387265626
1.387264719
1.387303398
1.387377378
1.387360216
1.387294207
1.387195341
1.387060761
1.387064188
1.38507461
1.385379032
1.386084057
1.386538512
1.386991138
1.386995396
1.386748889
1.386518845
1.386563476
1.38673794
1.386959146
1.387182686
1.387268388
1.387340738
1.387508405
1.387633731
1.387662714
1.387681716
1.387615358
1.387451658
1.387248129
1.387118306
1.387125835
1.387130357
1.387112506
1.387188509
1.387349473
1.387353747
1.387324694
1.387266598
1.387151568
1.387075395
1.38503707
1.385108162
1.385539013
1.386401687
1.387097233
1.387261666
1.387256639
1.387202322
1.387146683
1.387095293
1.387069202
1.387118172
1.387184968
1.387278447
1.387479522
1.387687604
1.387750002
1.387707962
1.387598867
1.387381655
1.387066931
1.386892579
1.386886301
1.386898922
1.386955581
1.387118182
1.387319072
1.387336757
1.387315712
1.387251889
1.387150951
1.387080185
1.385780418
1.385759142
1.386061569
1.386811542
1.3873353
1.387366453
1.387328786
1.387290812
1.387234239
1.387109397
1.387002725
1.387007103
1.387054354
1.387187966
1.38745433
1.387668945
1.387713629
1.387648454
1.387479673
1.387164418
1.386762287
1.386632117
1.386623438
1.386674398
1.386814046
1.387061357
1.387303599
1.387334057
1.387318421
1.387251377
1.387165216
1.387119295
1.386604592
1.386776582
1.387034568
1.38738558
1.387494546
1.387416656
1.387213245
1.387095426
1.387055816
1.386958836
1.386850178
1.386866121
1.386979311
1.387129965
1.387360541
1.387523258
1.387562852
1.387483885
1.387228438
1.386826353
1.386484199
1.386434901
1.38644031
1.386525245
1.386716115
1.387003278
1.387266802
1.387311021
1.387299168
1.387228095
1.387098925
1.387042671
1.386434527
1.386830214
1.387168517
1.387401717
1.387466895
1.387316214
1.387005709
1.386817335
1.38676626
1.386721217
1.38667299
1.386699731
1.386772119
1.386954413
1.387195499
1.387314236
1.387346971
1.387271763
1.386997093
1.386618692
1.386363856
1.386332152
1.386348621
1.386446467
1.386652755
1.386962865
1.387243667
1.38729448
1.387288571
1.387237695
1.387097307
1.387022955
1.386044671
1.386339166
1.386671988
1.386895417
1.387029734
1.38698721
1.386833775
1.386694413
1.386601087
1.386577956
1.386571922
1.386577516
1.386609257
1.386756017
1.386943081
1.387067655
1.387107298
1.387058074
1.386850307
1.386532449
1.386285792
1.386243848
1.38625888
1.386355497
1.386570934
1.386923428
1.387247378
1.387297837
1.387294715
1.38725108
1.38711672
1.386977362
1.386033478
1.386041384
1.386141969
1.386330534
1.386538272
1.386686
1.386703929
1.38669196
1.386622192
1.386585452
1.386550097
1.386472259
1.38648375
1.386586909
1.386720949
1.38684459
1.386897182
1.386869619
1.386721281
1.386473659
1.386233113
1.386176039
1.386184463
1.386266147
1.386472339
1.386868954
1.387239418
1.387298401
1.387298723
1.387265432
1.387146215
1.386929123
1.386182562
1.386112896
1.386132946
1.386284803
1.386515024
1.386644639
1.3866844
1.386681879
1.386608046
1.386562267
1.386482048
1.38634714
1.386331819
1.386379678
1.386436921
1.386567081
1.386671169
1.386667547
1.386572458
1.38642609
1.386242053
1.386166321
1.386165006
1.386219528
1.386405007
1.38683203
1.387225378
1.387286986
1.387289454
1.387268242
1.38715801
1.386877987
1.386485007
1.386324151
1.386259049
1.386336561
1.386532278
1.386613408
1.386633022
1.386599604
1.38650566
1.386451547
1.386345252
1.386209813
1.386192364
1.386196602
1.38623295
1.386383851
1.38650736
1.386495624
1.386450501
1.386393442
1.386236623
1.386145275
1.386145095
1.386194892
1.386339795
1.386735512
1.387127133
1.387193734
1.387199981
1.387195879
1.387105687
1.386805073
1.386455692
1.386393286
1.386353149
1.386399296
1.386427678
1.386436473
1.386457013
1.386487137
1.386468995
1.386428459
1.386318011
1.386168023
1.386125
1.386112571
1.386153088
1.386325842
1.38647723
1.386478715
1.386455235
1.386405071
1.386262143
1.386139659
1.386128286
1.386146004
1.386253377
1.386559539
1.386878153
1.386935685
1.386934235
1.386936268
1.386888716
1.386635372
1.386162128
1.386186152
1.386235106
1.38628344
1.386321091
1.386354686
1.386377811
1.386365305
1.386348181
1.386307816
1.386182366
1.3860447
1.385990169
1.385974383
1.386030966
1.386231543
1.386361332
1.386379372
1.386382261
1.386347916
1.386222909
1.386092442
1.386078582
1.386099609
1.386147207
1.386334339
1.386583623
1.386617108
1.386600698
1.386561988
1.386498028
1.386302302
1.385844195
1.385889237
1.385974173
1.386025913
1.386069455
1.386107322
1.386114196
1.386082157
1.38605896
1.386011685
1.385890839
1.385781654
1.385729324
1.385731674
1.385812813
1.386027559
1.386169609
1.386192576
1.386195897
1.386160141
1.386045001
1.385918743
1.385904606
1.385931495
1.385986087
1.386135789
1.386306506
1.386315862
1.386289647
1.386207142
1.386089793
1.385894697
1.385214588
1.385406682
1.385436898
1.38541329
1.385414328
1.38547847
1.38551973
1.385447467
1.385382471
1.385321645
1.385256726
1.385235932
1.385214968
1.385216738
1.385301012
1.385506524
1.385636375
1.385649468
1.38566171
1.385639187
1.385562664
1.385496329
1.385519092
1.385590423
1.385667878
1.38574433
1.385827284
1.385834645
1.38582308
1.385740191
1.385607352
1.385408465
1.38471068
1.384618009
1.384676193
1.384692214
1.384606757
1.38460226
1.384568905
1.384466593
1.384336602
1.384304595
1.384314433
1.384402167
1.384461755
1.384507366
1.384612056
1.384802349
1.384921654
1.384927659
1.384917063
1.384914549
1.384841161
1.384753295
1.384743584
1.384771704
1.384824777
1.38485938
1.384871004
1.384882905
1.384895848
1.384876142
1.384819135
1.384698668
1.383750712
1.383692264
1.383665029
1.383712482
1.383655917
1.383559642
1.383470632
1.383353222
1.383223937
1.383195143
1.38324253
1.383351974
1.38348724
1.383599562
1.383727362
1.383898642
1.383996294
1.383993975
1.383982545
1.38399468
1.38396861
1.383897215
1.383864698
1.383868267
1.383875998
1.383862711
1.383812526
1.383812107
1.383847686
1.383841342
1.383799228
1.383763394
1.382573655
1.382540627
1.382582598
1.382668832
1.382649268
1.382536232
1.382393995
1.382266778
1.382187089
1.382192304
1.38228694
1.382505737
1.382704604
1.382797421
1.382922085
1.383050236
1.383149171
1.383142365
1.383106423
1.383114009
1.383127932
1.383092409
1.383068132
1.38308172
1.383084555
1.383062812
1.383015821
1.382993083
1.38302231
1.383060913
1.383080999
1.383035061
1.381611948
1.381449473
1.381403723
1.381385302
1.381380991
1.381392551
1.381398462
1.381387183
1.381377424
1.381384411
1.381435366
1.381558496
1.381708084
1.381861418
1.381993287
1.382078134
1.382095953
1.382044483
1.382058279
1.382163249
1.3822392
1.38227761
1.382321835
1.382391182
1.382425957
1.382378899
1.382289947
1.382217947
1.382186491
1.382203063
1.382283087
1.382248666
1.381232063
1.382204925
1.381910662
1.380931787
1.37985295
1.379560228
1.379627924
1.380114313
1.381036397
1.382090084
1.3826394
1.382872002
1.382812565
1.382605812
1.382298601
1.382041567
1.381796749
1.381467141
1.381106096
1.380710289
1.38052144
1.380499814
1.38077601
1.381289807
1.381984554
1.382818318
1.383226249
1.383248351
1.382904637
1.382226194
1.381515552
1.381502906
1.381257147
1.382553991
1.382936754
1.382684312
1.381547296
1.379881223
1.37952712
1.379732506
1.380183714
1.381121853
1.382081061
1.382757925
1.382916457
1.383035586
1.383050811
1.382938948
1.382836861
1.38266608
1.382409142
1.381727999
1.380748322
1.38045227
1.380552411
1.380786684
1.381019042
1.381536692
1.382598255
1.383195963
1.383196778
1.382986286
1.382380355
1.381931627
1.380696192
1.382417737
1.382851815
1.382960798
1.382675735
1.381465477
1.379836204
1.379467633
1.37978432
1.380323819
1.380978892
1.381660759
1.382226808
1.382742989
1.382869044
1.382992055
1.382986849
1.383008684
1.382969176
1.382873716
1.382178916
1.38104147
1.380602833
1.38060288
1.380716466
1.380842206
1.381242625
1.38220608
1.382943984
1.382942742
1.382717154
1.382242714
1.37992928
1.381415553
1.382479308
1.382718556
1.38248823
1.382216351
1.381033145
1.37950723
1.379532605
1.379870651
1.380214806
1.380585822
1.380962886
1.381575504
1.382246797
1.382711632
1.382794894
1.382833171
1.383066898
1.383205232
1.383049598
1.382177871
1.381230003
1.380747801
1.38055399
1.380551858
1.380587821
1.380937243
1.381905517
1.382710598
1.382518773
1.382151973
1.379486994
1.379977748
1.380983452
1.382002791
1.382407692
1.382249728
1.381744327
1.380424374
1.379403677
1.379506127
1.379719243
1.379960425
1.380217871
1.380563086
1.380983731
1.381461213
1.38181989
1.382288589
1.382884486
1.383022004
1.382786054
1.382556248
1.381984591
1.381355789
1.380781858
1.380393744
1.380253208
1.38035385
1.380771064
1.381689537
1.382323082
1.382023619
1.37913894
1.379019774
1.379644645
1.380298835
1.381362836
1.381864572
1.381505629
1.381187893
1.379995596
1.379246293
1.379335446
1.379509477
1.379667581
1.379922103
1.380183999
1.380456803
1.380578767
1.3808785
1.381703158
1.382463336
1.382659855
1.382634852
1.382290075
1.381844629
1.381367507
1.380718204
1.380095051
1.380094354
1.380281709
1.380643133
1.381602196
1.381725562
1.379139896
1.378521033
1.378785172
1.379097196
1.379563318
1.380479942
1.381419697
1.381339254
1.380798506
1.379730206
1.379181721
1.379181358
1.37927115
1.379500308
1.379780262
1.379960151
1.379909339
1.379925821
1.380236468
1.38140213
1.382550416
1.382412356
1.382068804
1.381691013
1.381531464
1.381280395
1.380585301
1.380021958
1.380013672
1.380233617
1.38058492
1.380966444
1.380670668
1.378337197
1.378359919
1.378629281
1.378943156
1.379426476
1.380328958
1.380999333
1.381144233
1.380715166
1.379955057
1.379511013
1.379293108
1.379414763
1.379585272
1.379669373
1.379592647
1.379627158
1.379756784
1.38005661
1.381200165
1.381993034
1.381847461
1.381699129
1.381668983
1.381614197
1.381271599
1.380489291
1.379978875
1.379954252
1.379988317
1.380180395
1.38267523
1.379895194
1.378456488
1.378425423
1.378569755
1.378866121
1.379310989
1.380063307
1.38073531
1.380858681
1.380808359
1.380538874
1.38014784
1.380055227
1.379939158
1.379806089
1.379597249
1.379478941
1.379503352
1.379450146
1.379702975
1.381399381
1.38196743
1.381778753
1.381559968
1.381456581
1.38134549
1.381152904
1.380557518
1.379916641
1.379768023
1.37994359
1.383293008
1.382176654
1.380131354
1.378679282
1.378373809
1.37848452
1.378857335
1.379550134
1.380045195
1.380904381
1.381366121
1.38123411
1.380976907
1.380881199
1.380706188
1.380574894
1.380268764
1.37988159
1.379447714
1.37925689
1.379441909
1.379960805
1.381551648
1.381633587
1.381411115
1.381304297
1.381514015
1.38156474
1.381225062
1.380557319
1.379804711
1.37981771
1.383362151
1.383003736
1.38213511
1.380371025
1.379030986
1.378623002
1.378747529
1.379085713
1.379714552
1.380481986
1.380929333
1.381019456
1.381033976
1.38118638
1.381108006
1.381042249
1.380877963
1.380701433
1.38030252
1.379586762
1.379259599
1.379341734
1.38023498
1.381443906
1.381413602
1.38141129
1.381507244
1.381488324
1.381459152
1.381188652
1.380224116
1.379817632
1.383116047
1.383199283
1.382739361
1.382015734
1.380882263
1.379793761
1.379151705
1.378950152
1.379435316
1.379970146
1.380431822
1.380981122
1.381302771
1.381458978
1.381196057
1.380952792
1.380916452
1.381161923
1.38112072
1.380524705
1.379422411
1.379259808
1.379447324
1.380384471
1.381222101
1.381354122
1.381391668
1.38143554
1.381510235
1.381305245
1.380879461
1.380170447
1.381408949
1.382988099
1.383094398
1.382758357
1.382096103
1.38118545
1.380391174
1.379676516
1.379399966
1.379720574
1.380552696
1.381121953
1.38136133
1.381342168
1.381016224
1.380856705
1.380906006
1.381054119
1.381211132
1.38112717
1.380566192
1.379479413
1.379201247
1.379476014
1.380197134
1.380843356
1.381293002
1.381559535
1.381545585
1.381510457
1.381390877
1.380881314
1.378856369
1.381876389
1.382901199
1.382562836
1.382031263
1.381848858
1.381264949
1.38084708
1.380283622
1.380128308
1.380525627
1.380907185
1.381315727
1.381267322
1.380944153
1.380790387
1.380733877
1.381058137
1.381408577
1.381594216
1.38131569
1.380273997
1.379292321
1.379281465
1.379406888
1.379811139
1.380436987
1.381157528
1.381526273
1.381577784
1.381559155
1.381347106
1.378034084
1.379360555
1.381799566
1.382404662
1.382229497
1.381759704
1.381544915
1.381274701
1.381126148
1.380832911
1.380576124
1.380755077
1.381344733
1.381383561
1.381184245
1.380760393
1.380452046
1.380777228
1.381484121
1.381736786
1.38158464
1.381192562
1.380128692
1.379231341
1.37920825
1.379370671
1.379566892
1.379946034
1.380864709
1.381540814
1.381652829
1.381550438
1.377905323
1.378360902
1.379386541
1.381346219
1.382156992
1.381826907
1.38155878
1.381351682
1.381246104
1.381105895
1.380886689
1.38094617
1.381423107
1.381553042
1.381607565
1.381166095
1.380442085
1.380459421
1.381008689
1.381677802
1.381789872
1.381563411
1.380990297
1.380014076
1.37944966
1.37945833
1.379359262
1.379397042
1.379841413
1.380856172
1.381729299
1.381705555
1.379731423
1.377964694
1.378162856
1.37859675
1.379125823
1.380336145
1.381108248
1.381168325
1.381194121
1.3812553
1.381211854
1.381094547
1.381159676
1.381529454
1.381686128
1.381872091
1.381785573
1.381118226
1.380391697
1.380346529
1.381172121
1.381936672
1.381819717
1.381585952
1.381255284
1.38049133
1.379657578
1.379362797
1.379360653
1.379483026
1.379876752
1.381057676
1.38168971
1.381525572
1.37934898
1.378384997
1.378215582
1.378359738
1.378502267
1.378994168
1.379282666
1.379609721
1.380211971
1.380894136
1.381144204
1.381244876
1.381473145
1.381694727
1.382046707
1.382072285
1.381867877
1.380876358
1.380199125
1.380263406
1.381343512
1.381989645
1.381940451
1.381672279
1.381273411
1.380712107
1.380074927
1.379587115
1.379590259
1.379501176
1.379791329
1.380597339
1.382352522
1.381044622
1.379620109
1.378712515
1.378280958
1.378079224
1.377858568
1.377932349
1.378074932
1.378497748
1.379113528
1.379900538
1.380238665
1.380330504
1.380748274
1.38185991
1.38229406
1.382154901
1.381669707
1.380544651
1.379968889
1.380015203
1.381372286
1.38201896
1.381947895
1.381752025
1.381413304
1.381025244
1.380462295
1.379786532
1.379642701
1.379327253
1.379423726
1.382912687
1.382152566
1.381074341
1.379692657
1.378854432
1.378734319
1.378364293
1.37833752
1.378229157
1.377780704
1.378230705
1.378642849
1.379037081
1.378887838
1.37896179
1.3800253
1.381762477
1.382326061
1.382097366
1.381242176
1.379856732
1.379546632
1.379861419
1.381233385
1.382064093
1.382080582
1.381828384
1.381443561
1.381094943
1.380584394
1.379950711
1.379358296
1.379351519
1.383281017
1.382715628
1.381872822
1.380536562
1.379832776
1.379494922
1.379077059
1.378897987
1.378544669
1.378229571
1.378272836
1.378656366
1.379023789
1.378842586
1.378484974
1.378521684
1.379663806
1.381847246
1.382364163
1.381622259
1.380442103
1.379583914
1.379009529
1.379541974
1.380846616
1.381714707
1.381903523
1.381690727
1.381502972
1.381166906
1.380638205
1.379753816
1.379636074
1.382785922
1.38292447
1.38239424
1.381472586
1.380738434
1.379554214
1.379114279
1.378598363
1.378404778
1.378987523
1.378727856
1.378902179
1.379435639
1.378915978
1.378456277
1.378149651
1.378537174
1.379915549
1.381990141
1.381939874
1.381159532
1.380173597
1.379568731
1.379149475
1.37908679
1.379825471
1.38090676
1.381540245
1.381746362
1.381611894
1.381134302
1.380590781
1.37985171
1.380078382
1.382535279
1.382765379
1.382215495
1.381415345
1.380474558
1.380040212
1.379488803
1.379317161
1.379500835
1.37984089
1.379914848
1.379748715
1.379822923
1.379512058
1.378751107
1.378282669
1.378797955
1.38034233
1.381950035
1.3816735
1.38092947
1.380322174
1.378973642
1.3783377
1.378570147
1.379059332
1.380014383
1.381040023
1.381538596
1.381523035
1.381111266
1.380591742
1.377617846
1.379955429
1.382384245
1.382686813
1.382079388
1.381446902
1.380793562
1.380583097
1.380484283
1.380142554
1.380468038
1.380735328
1.380868092
1.380930771
1.381019067
1.380519248
1.379024058
1.378626157
1.379119537
1.381168883
1.38172894
1.38150801
1.380287851
1.379466146
1.378995567
1.378457557
1.378256549
1.378609895
1.379307632
1.380227752
1.381009133
1.381081718
1.381104216
1.377519317
1.377881679
1.379692404
1.382079763
1.382534977
1.382030858
1.381425404
1.381312801
1.381170242
1.380979551
1.381037276
1.381372891
1.381565805
1.381798548
1.381919715
1.381689444
1.380888703
1.379298713
1.378949085
1.37969912
1.381457576
1.38139611
1.380665226
1.380354927
1.37983459
1.378837882
1.378698866
1.378537089
1.378501007
1.378963146
1.379765693
1.380805625
1.381298006
1.377282804
1.377043226
1.377482731
1.379610171
1.381782576
1.381788688
1.381570733
1.381477092
1.381374399
1.381540585
1.381371229
1.38154821
1.381859197
1.382289277
1.382562992
1.382420391
1.381819449
1.380708465
1.379243921
1.379003962
1.380516559
1.381272896
1.381285044
1.38096553
1.380192867
1.379635934
1.379478528
1.378981866
1.379046914
1.379267352
1.379431331
1.380079745
1.380789983
1.378095796
1.37789208
1.377926987
1.377816222
1.379287053
1.380909633
1.381476896
1.381557529
1.381546537
1.381458088
1.381116191
1.380885063
1.381203
1.382026929
1.382769995
1.382926584
1.382538016
1.381435635
1.379676452
1.378948486
1.379164475
1.380836282
1.381663336
1.381262711
1.380387071
1.380243083
1.379795751
1.379414683
1.379876831
1.379743931
1.379319956
1.379380348
1.379892382
1.379491833
1.379098682
1.378416347
1.37731943
1.377638478
1.378844569
1.380147549
1.380852341
1.381066025
1.380719236
1.380229831
1.379746351
1.379707581
1.380403829
1.381690942
1.382894103
1.383023993
1.382098755
1.380666708
1.379032267
1.378624577
1.37964271
1.381146328
1.381231074
1.380973469
1.38060449
1.380235005
1.380334363
1.380248131
1.37976743
1.37966893
1.379656367
1.37950331
1.380523071
1.379499718
1.378450843
1.377897502
1.377773654
1.377566116
1.377920497
1.378629776
1.379264687
1.379594164
1.379405439
1.379192606
1.378855894
1.378856121
1.379424884
1.381154251
1.382781458
1.382640001
1.38148664
1.379466934
1.378730252
1.378569581
1.379962319
1.381381502
1.381407801
1.381018936
1.380821555
1.380991291
1.380479155
1.380415506
1.380463973
1.380209218
1.379814803
1.381261761
1.380249365
1.379558935
1.379087453
1.378035109
1.377052043
1.377021157
1.377120394
1.377574542
1.378393355
1.378919135
1.378811982
1.37833726
1.37806731
1.378266091
1.378942104
1.380765422
1.382650111
1.381936193
1.380678348
1.379365785
1.378886535
1.379213944
1.380911948
1.381196482
1.381203748
1.381070262
1.380918688
1.380819269
1.381023402
1.381025935
1.380671323
1.380360639
1.381596671
1.381416561
1.380908784
1.380090917
1.378686968
1.378086985
1.377787112
1.37749396
1.3773258
1.377832014
1.37886508
1.379051923
1.378954231
1.37897427
1.37873513
1.378134142
1.378781183
1.380886688
1.382153542
1.381562642
1.380399084
1.379395129
1.378487302
1.379603435
1.3808832
1.381167592
1.380862269
1.380678078
1.38085946
1.380903663
1.380826822
1.380922404
1.380769741
1.381741274
1.382214842
1.381797907
1.380943859
1.379889536
1.379219926
1.378863857
1.378128664
1.377290433
1.377567362
1.378531584
1.379444567
1.379847003
1.379925641
1.379431262
1.378749123
1.378192486
1.378839662
1.381269077
1.381716232
1.381116234
1.37950639
1.378911579
1.37883813
1.380361187
1.381027448
1.380836937
1.380725065
1.38062071
1.380537319
1.380470629
1.380733618
1.380879556
1.379165848
1.380704012
1.381863893
1.382023374
1.381779483
1.381163075
1.379960607
1.378610963
1.378027943
1.377706389
1.377949804
1.378412858
1.379360434
1.380040798
1.380157316
1.379558624
1.379611127
1.378884279
1.37895987
1.379681687
1.381417655
1.381255078
1.38054228
1.379678071
1.379023389
1.379092928
1.380095815
1.380681973
1.380684042
1.380530286
1.380595538
1.380510958
1.380438447
1.380614362
1.377673028
1.379431959
1.380624013
1.382173158
1.382449824
1.381933015
1.380834004
1.37980808
1.379221709
1.378921664
1.378780422
1.378792235
1.379437949
1.380091383
1.380233375
1.380187916
1.379585618
1.37984096
1.379186705
1.379335841
1.380626924
1.381364815
1.381325809
1.380068155
1.379319925
1.378090479
1.378607456
1.37944978
1.37995923
1.380181776
1.380475881
1.380545275
1.380367463
1.380407667
1.378249493
1.378774208
1.379824909
1.381222581
1.382413106
1.382242819
1.381700867
1.381103425
1.380523996
1.380087368
1.379441109
1.379555815
1.379920882
1.380633063
1.381074674
1.381152233
1.380542
1.379826864
1.379321131
1.379441527
1.379986536
1.381007408
1.381398918
1.380858693
1.379574739
1.379057783
1.378292795
1.378232742
1.37875552
1.379216495
1.379727158
1.380320306
1.380530128
1.380337702
1.378596788
1.379207135
1.379153077
1.379826347
1.381092243
1.382171365
1.382199175
1.382012074
1.381574516
1.380934059
1.380665017
1.380631182
1.380608813
1.381227301
1.381855789
1.381835604
1.381447348
1.38082053
1.380546369
1.379963047
1.379872051
1.380329617
1.381125041
1.381585953
1.3806813
1.380102566
1.378670979
1.378330649
1.378211111
1.378402639
1.37886648
1.379647301
1.380558861
1.380614591
1.378388344
1.379132335
1.37924473
1.379235937
1.379358885
1.380445647
1.381171645
1.381575485
1.38152157
1.381648466
1.381591302
1.381220943
1.381072294
1.38116047
1.381478916
1.381636272
1.382004352
1.381709355
1.38151472
1.381068565
1.380478174
1.38044893
1.38105696
1.381761479
1.381544374
1.380226914
1.379137012
1.37882889
1.378824599
1.379056164
1.379124094
1.379157222
1.37983932
1.380784586
1.37860965
1.378593001
1.379179747
1.37897878
1.378597241
1.378439477
1.379186106
1.380084503
1.380992041
1.381736465
1.381603794
1.381180361
1.381046864
1.38086135
1.380885203
1.38141988
1.381747365
1.382033793
1.381829684
1.38181224
1.381413914
1.380876607
1.381041205
1.381488227
1.381720598
1.380738376
1.380370316
1.379323109
1.379876053
1.380103498
1.379194199
1.378666185
1.378775895
1.378493071
)
;

boundaryField
{
    inlet
    {
        type            calculated;
        value           nonuniform 0();
    }
    outlet
    {
        type            calculated;
        value           nonuniform List<scalar> 
68
(
1.381514703
1.381987143
1.382276338
1.382165802
1.382028296
1.38169521
1.380886792
1.380130311
1.379934397
1.379813861
1.379832945
1.380232641
1.38094622
1.381392734
1.381578137
1.381721922
1.381657437
1.380445553
1.379353581
1.379364672
1.379686745
1.379900516
1.380637821
1.381140417
1.381322042
1.380713214
1.379800423
1.37948835
1.379848817
1.380429224
1.380820661
1.380877484
1.380562428
1.380392843
1.380364508
1.380618434
1.38073924
1.389479406
1.389244789
1.389100398
1.388905368
1.388609948
1.388221228
1.387942733
1.387754996
1.387528372
1.387220977
1.38708271
1.387061054
1.387053045
1.387063769
1.387075962
1.387080893
1.387119595
1.387042628
1.387022753
1.386977357
1.386929352
1.38687847
1.386805587
1.386635622
1.386302383
1.385895399
1.385409553
1.384699081
1.383763591
1.383035394
1.382244226
)
;
    }
    bottom
    {
        type            calculated;
        value           nonuniform 0();
    }
    top
    {
        type            calculated;
        value           nonuniform 0();
    }
    obstacle
    {
        type            calculated;
        value           nonuniform 0();
    }
    defaultFaces
    {
        type            empty;
    }
    procBoundary11to5
    {
        type            processor;
        value           nonuniform List<scalar> 
33
(
1.386064856
1.384098317
1.386100663
1.387174396
1.387960777
1.388651975
1.389406889
1.390113013
1.390055245
1.389506637
1.388333119
1.387770417
1.387967503
1.388284849
1.388771369
1.389416006
1.389774178
1.389732316
0.9592427168
0.9510920378
0.9511585596
0.9538377075
0.9659172943
1.006993542
1.110223804
1.212317669
1.306118157
1.335734868
1.373774745
1.384045258
1.386762221
1.390394535
1.390394535
)
;
    }
    procBoundary11to10
    {
        type            processor;
        value           nonuniform List<scalar> 
70
(
0.9526732835
0.948393989
0.9476555342
1.018868215
1.201705526
1.307521052
1.37118594
1.382622329
1.380223535
1.383558108
1.386718321
1.386634402
1.385950702
1.385126892
1.385404602
1.386310786
1.3865236
1.386155849
1.385843966
1.386045192
1.386347582
1.38661363
1.386465103
1.386093592
1.385759958
1.385205872
1.384836128
1.383811355
1.382684211
1.3815289
1.380711836
1.380235293
1.379974808
1.379705797
1.379802312
1.380297239
1.381692622
1.383014119
1.383399944
1.383376546
1.383045636
1.380482628
1.378253266
1.377697055
1.377430332
1.377697429
1.377697429
1.381732453
1.382670257
1.383227293
1.383545253
1.383224114
1.380550759
1.377640107
1.376540166
1.377451009
1.378578869
1.37851305
1.379677474
1.38095645
1.381831657
1.381822912
1.380857753
1.380857753
1.376758724
1.377236497
1.377569668
1.377632762
1.378558818