/*--------------------------------*- C++ -*----------------------------------*\
  =========                 |
  \\      /  F ield         | OpenFOAM: The Open Source CFD Toolbox
   \\    /   O peration     | Website:  https://openfoam.org
    \\  /    A nd           | Version:  7
     \\/     M anipulation  |
\*---------------------------------------------------------------------------*/
FoamFile
{
    version     2.0;
    format      ascii;
    class       volScalarField;
    location    "4.7";
    object      T;
}
// * * * * * * * * * * * * * * * * * * * * * * * * * * * * * * * * * * * * * //

dimensions      [0 0 0 1 0 0 0];

internalField   nonuniform List<scalar> 
2222
(
1
2.25708375
2.66970559
2.654620533
2.645464639
2.635024944
2.624311384
2.612827428
2.600681544
2.587775708
2.574107737
2.559680372
2.544535422
2.528683158
2.512117067
2.494809755
2.476894597
2.458528933
2.439791746
2.420761599
2.401355795
2.380951253
2.360074251
2.339734816
2.31954218
2.299421357
2.278939024
2.257939467
2.236473143
2.215032394
2.194143009
2.173913429
2.154064777
2.134215535
2.114093068
2.093696141
2.073317741
2.257855029
2.669713603
2.654568873
2.645431395
2.634999341
2.62429297
2.612810287
2.600662905
2.587752549
2.574090801
2.559654614
2.544482688
2.528586923
2.512005406
2.494750956
2.47686046
2.458452447
2.439666542
2.420588551
2.401161255
2.380800365
2.35977655
2.339582763
2.319423729
2.299260769
2.278770416
2.25780193
2.236399028
2.21499778
2.194077086
2.173787761
2.153903254
2.134064605
2.113991613
2.093656275
2.073330017
2.259802516
2.669724589
2.654553475
2.645441553
2.635012164
2.624311982
2.612827231
2.600669926
2.587743196
2.574082059
2.559643735
2.544461312
2.528531627
2.511909632
2.494688486
2.476847962
2.458421282
2.439583012
2.420489395
2.401129663
2.380993342
2.35991942
2.339522209
2.319265632
2.299015211
2.278523641
2.257611408
2.236310001
2.214970205
2.19401196
2.173615176
2.153649375
2.133799113
2.113786119
2.093548065
2.073315193
2.262988629
2.669767695
2.654545243
2.645466926
2.635046306
2.624360627
2.61287808
2.60071286
2.587764258
2.574089626
2.55964317
2.544461019
2.528528919
2.511884548
2.494666964
2.476863101
2.458421956
2.439511603
2.420330075
2.401008389
2.381089294
2.359926367
2.339402698
2.319044389
2.29868079
2.278178084
2.257339318
2.236189028
2.214970705
2.194016537
2.173508301
2.153411213
2.133487409
2.11350034
2.09337917
2.073282519
2.267173279
2.669913703
2.65461488
2.645571503
2.635157929
2.624488849
2.613013743
2.600850639
2.58788383
2.574179536
2.55970813
2.544522252
2.528619754
2.511987801
2.494723695
2.476914431
2.458484803
2.439507838
2.420178518
2.400851361
2.381267953
2.360331516
2.339442326
2.3188351
2.298322418
2.277803297
2.257057251
2.236080464
2.215014478
2.194078727
2.173456382
2.153182504
2.133128879
2.113123808
2.093107684
2.073170124
2.272260651
2.670121709
2.654765674
2.645783911
2.635386388
2.62473852
2.613275312
2.601124197
2.588158071
2.574430409
2.55992601
2.544713153
2.52882724
2.51223069
2.494911847
2.477042936
2.458619697
2.439571023
2.420090451
2.400715626
2.381406531
2.360756653
2.339580063
2.318683972
2.297998687
2.277458637
2.256810252
2.236012633
2.215109434
2.19421055
2.173473679
2.152997017
2.132762328
2.112695116
2.092765327
2.072999853
2.278242372
2.670390621
2.655010615
2.646142672
2.635788371
2.62517174
2.61371821
2.601573463
2.58861568
2.574879806
2.56034472
2.545068614
2.529129256
2.512557098
2.495220415
2.477262383
2.458814168
2.439716008
2.420084467
2.4005986
2.381461131
2.36109339
2.339842105
2.318619795
2.29774144
2.277180448
2.256636377
2.236004804
2.215246788
2.194374762
2.173511487
2.152824136
2.132404093
2.112272937
2.092415519
2.072794785
2.285185049
2.67080154
2.65542064
2.646700078
2.636401782
2.625812779
2.614348788
2.602177847
2.58920054
2.575450679
2.560886325
2.545522503
2.529447468
2.5128226
2.495503868
2.477508309
2.459015009
2.439872179
2.42010298
2.40045881
2.381443395
2.361305669
2.339955925
2.318525629
2.297519156
2.276960715
2.256524858
2.236023873
2.215352194
2.194477469
2.173506896
2.152637473
2.1320652
2.111884502
2.092084084
2.07256958
2.293279453
2.671482157
2.656082973
2.647465948
2.637175219
2.626574019
2.615060684
2.602818143
2.589766863
2.575963769
2.561355274
2.545912928
2.52968738
2.512921286
2.495628997
2.47768724
2.459145084
2.439939832
2.420091849
2.400294899
2.381244398
2.36128435
2.339956975
2.318426278
2.297315139
2.276742374
2.256387571
2.235995621
2.215384593
2.194492289
2.173419437
2.152410135
2.131733398
2.11153119
2.091783479
2.072340551
2.302653696
2.672350266
2.656886039
2.648273568
2.637903264
2.627240804
2.615655277
2.603329294
2.590169301
2.576255838
2.561573395
2.54609647
2.529818787
2.512892401
2.495564046
2.477729133
2.45922282
2.439932734
2.419906223
2.399986653
2.380907085
2.361176469
2.339744913
2.318281698
2.297093685
2.276464329
2.256132918
2.235800601
2.215235208
2.194339229
2.173206863
2.152122436
2.131393797
2.111193641
2.091484642
2.072075579
2.312811088
2.673219331
2.657585904
2.648877754
2.638376815
2.627637586
2.61599657
2.60361977
2.590357222
2.576307734
2.561521895
2.546014547
2.529742688
2.51266665
2.495217933
2.477428407
2.459013127
2.439768893
2.419685031
2.399576744
2.380366564
2.360831706
2.339682788
2.318116461
2.29679606
2.276049823
2.255666064
2.235339305
2.214816199
2.193960532
2.172844505
2.151746458
2.131004422
2.110814148
2.091128403
2.071731401
2.322723736
2.673718703
2.657716748
2.648991519
2.638457581
2.627699364
2.616067621
2.60372222
2.590464103
2.576376333
2.561503653
2.545917457
2.52969313
2.512641273
2.495035815
2.477140373
2.458733233
2.439424359
2.419147551
2.398714555
2.379486023
2.360201588
2.339296331
2.317745515
2.296353438
2.275460376
2.254965572
2.234600765
2.214110792
2.193333386
2.172295487
2.151245488
2.130526989
2.110350423
2.090671346
2.071268211
2.332445803
2.674194345
2.657822473
2.649096875
2.638526542
2.627698776
2.615962455
2.603532087
2.590209801
2.576079879
2.561124835
2.545449981
2.529214472
2.512199744
2.494411542
2.476366117
2.458068279
2.439059748
2.41883996
2.398169557
2.378536841
2.359392794
2.338648775
2.317170873
2.295737075
2.274703965
2.254063552
2.233621462
2.213141088
2.192450476
2.171535666
2.150593505
2.129936752
2.1097757
2.090081557
2.070651169
2.34299105
2.674100675
2.657453673
2.648850102
2.638359646
2.62757748
2.615812163
2.603361563
2.59006901
2.576031462
2.561085835
2.545316225
2.528849449
2.511833557
2.493946396
2.475572696
2.457262787
2.43849095
2.418265987
2.397239021
2.37713903
2.358143846
2.337642629
2.316329332
2.294937915
2.273807262
2.253012089
2.232462673
2.211961914
2.191345598
2.170573994
2.149781598
2.129218548
2.109074909
2.089344249
2.069864817
2.353720563
2.673960597
2.656998948
2.648539949
2.638162472
2.627456088
2.615689136
2.60316962
2.589784748
2.575720651
2.560748331
2.544936691
2.528281295
2.511196255
2.493247935
2.474657779
2.45629834
2.43774546
2.417607183
2.396354889
2.376092075
2.356789635
2.336372154
2.315225039
2.293968909
2.272786219
2.251845475
2.231172622
2.210629529
2.190071798
2.169441988
2.148813697
2.128362602
2.108238213
2.088449853
2.068895072
2.365061862
2.673935256
2.656754898
2.648384183
2.638067219
2.62740632
2.615656335
2.603097689
2.589599232
2.575381658
2.560354926
2.544577279
2.527848669
2.510553913
2.49256561
2.473843987
2.455267824
2.436822503
2.41684512
2.395383438
2.374745808
2.355259119
2.334912838
2.313953767
2.292857368
2.271644622
2.25056372
2.229761718
2.209170368
2.188664775
2.168166017
2.147691967
2.127348231
2.107236024
2.087376503
2.067736017
2.377807636
2.674145439
2.65681568
2.648503656
2.638191484
2.627529421
2.615795357
2.603222206
2.589603857
2.575162754
2.559990698
2.544209149
2.527517784
2.509985291
2.491921184
2.473065742
2.454139098
2.435676235
2.415894156
2.394362034
2.373360533
2.353670604
2.333384742
2.31260225
2.291627285
2.270372505
2.249154172
2.22822261
2.207581783
2.187121302
2.166734888
2.146392461
2.126139644
2.106028667
2.086091026
2.06636659
2.39289559
2.674822876
2.657311268
2.648954508
2.638557462
2.627819515
2.616053826
2.603453065
2.589730772
2.57507904
2.559682835
2.543761948
2.527115265
2.509441968
2.491217549
2.472208893
2.452882745
2.434277091
2.414754253
2.393246745
2.371917702
2.352007969
2.331793743
2.311174273
2.290274227
2.268954534
2.247592657
2.226531791
2.205842176
2.185418263
2.165122954
2.144885231
2.124701464
2.104583477
2.084577055
2.064792107
2.409589316
2.67575139
2.658066891
2.649580471
2.639043169
2.628176299
2.616291048
2.603609463
2.589877549
2.575163325
2.559557344
2.543336139
2.526576708
2.508871061
2.490339652
2.471078587
2.451389276
2.432577795
2.413431346
2.392025883
2.370395929
2.350134599
2.330078641
2.30963254
2.288779098
2.267394923
2.245897879
2.224706139
2.203945561
2.183521274
2.163279558
2.143118752
2.122987771
2.102864848
2.082817478
2.063017542
2.426047615
2.676125803
2.658410973
2.649920296
2.639353971
2.628416722
2.616366049
2.603527856
2.589729574
2.574984195
2.559202567
2.542667412
2.525637376
2.508016522
2.489297642
2.469825484
2.450121337
2.431119857
2.41203829
2.390718704
2.368835244
2.348304613
2.32818422
2.307879563
2.287077274
2.265671476
2.244085073
2.222781096
2.201940181
2.181492774
2.161280225
2.141176052
2.12108378
2.100954507
2.080883998
2.061098605
2.441591038
2.676342079
2.658742453
2.650384592
2.639873336
2.628895812
2.616657777
2.603561599
2.58953147
2.574672072
2.558743397
2.54193534
2.524496037
2.506827827
2.487998717
2.468249603
2.448454247
2.429263416
2.410328392
2.389244376
2.367187172
2.346298014
2.32608824
2.305860089
2.285131849
2.263787773
2.242214443
2.220856034
2.199932787
2.179427599
2.15920331
2.139121983
2.119047357
2.09891437
2.078852891
2.059127461
2.456774026
2.676126475
2.658802956
2.650664637
2.640234992
2.629228135
2.616846514
2.603520329
2.589145282
2.574045333
2.557935773
2.540934317
2.523144292
2.505218869
2.486468326
2.466504148
2.446484493
2.427131388
2.408303424
2.387550163
2.365542671
2.344335234
2.323934096
2.303578974
2.282923186
2.261762575
2.240329421
2.218998136
2.198029736
2.177466094
2.157206153
2.137117155
2.11703529
2.096893211
2.076855373
2.057202806
2.472258529
2.676014363
2.659018128
2.650932448
2.640409768
2.629315841
2.616851234
2.603313525
2.588539158
2.57305076
2.556666683
2.539536872
2.521613796
2.503326224
2.48478791
2.464805223
2.444270244
2.424745056
2.406060987
2.385684062
2.363873713
2.342465655
2.321765387
2.301363625
2.280767672
2.259750468
2.238487983
2.217264667
2.196309562
2.175695767
2.155375449
2.135241434
2.115122886
2.094969522
2.074973352
2.055402875
2.488636114
2.676120258
2.659427792
2.651164092
2.640431226
2.629142101
2.616537819
2.602815478
2.587741962
2.571838969
2.555085822
2.537803685
2.519939187
2.501409533
2.483015676
2.463281525
2.442103235
2.422310913
2.403813062
2.383795373
2.362170967
2.340631169
2.319813936
2.299336471
2.278707826
2.257774396
2.236672551
2.215596484
2.194695546
2.174043827
2.153657845
2.133468412
2.11331357
2.093168969
2.073241063
2.053761245
2.505853876
2.676338752
2.659841478
2.651262643
2.640230953
2.628599366
2.61572304
2.601895761
2.586763455
2.570631229
2.553542043
2.536025365
2.518205694
2.499715808
2.481239433
2.461907963
2.440379772
2.420022559
2.401578835
2.381816373
2.36034003
2.338743172
2.317803946
2.297197141
2.276514119
2.255637696
2.234667456
2.213738441
2.192913959
2.172262337
2.151853693
2.131642442
2.111483455
2.091386566
2.071562984
2.052187752
2.523316847
2.676422815
2.660025814
2.651175799
2.639822069
2.627818865
2.614605307
2.600656164
2.585624503
2.569531724
2.552300533
2.534515588
2.516533896
2.498244992
2.479552064
2.460437327
2.439071754
2.418044051
2.399184658
2.379509902
2.357961563
2.336180742
2.315081605
2.294353986
2.273609492
2.252771482
2.231943016
2.211161659
2.1904303
2.169851693
2.149521014
2.129383423
2.109306628
2.08934984
2.069718046
2.050498408
2.539929056
2.675109957
2.65942532
2.650622785
2.639243702
2.62708875
2.613612214
2.599396798
2.584408263
2.568517876
2.551395773
2.533425247
2.515036129
2.496768273
2.477867299
2.458561059
2.437096006
2.415184916
2.395042166
2.375665441
2.354061921
2.331895422
2.310452573
2.289620991
2.268889607
2.248162565
2.227526121
2.206911446
2.186327709
2.16596536
2.145906183
2.126044249
2.106240692
2.086611442
2.067316014
2.04833182
2.554943842
2.673576339
2.658498482
2.649858152
2.638714007
2.626684359
2.613130251
2.598528096
2.583342789
2.5675526
2.550642681
2.532607736
2.513653123
2.494877811
2.475728703
2.455620693
2.434190532
2.411066076
2.389748618
2.368973153
2.346773555
2.324156234
2.302369802
2.281285807
2.26051552
2.239979193
2.219616906
2.199354767
2.179282766
2.159509677
2.140022783
2.12067059
2.101358863
2.082307349
2.063590641
2.045084587
2.568041277
2.672193576
2.657554295
2.649180784
2.638353298
2.626541597
2.613072951
2.598224734
2.582624405
2.566585838
2.5497189
2.531492862
2.511435759
2.491583514
2.471117987
2.449189745
2.426963491
2.402550134
2.379358168
2.35747414
2.334551885
2.311676339
2.289483703
2.268061627
2.247340864
2.22728709
2.207579429
2.18803333
2.168697178
2.149632617
2.1308054
2.112092114
2.093598408
2.075484588
2.057647073
2.039856904
2.580412813
2.671259051
2.657115487
2.648806365
2.638069474
2.626370719
2.613105459
2.598268056
2.582292902
2.565611358
2.548267311
2.529557764
2.508287099
2.485306633
2.462942022
2.44012611
2.413674685
2.387191442
2.362025252
2.339031345
2.315358975
2.29172006
2.269036489
2.247447475
2.227030773
2.207870454
2.189598614
2.17157329
2.153449536
2.135344761
2.117402037
2.099721691
2.082515796
2.06569093
2.048923729
2.031964537
2.59244517
2.670829601
2.657203737
2.648771149
2.637934494
2.626105123
2.612912793
2.598188331
2.581892097
2.564511474
2.545223439
2.524145767
2.500712868
2.474235235
2.447510884
2.420808628
2.391427359
2.360921741
2.332349592
2.306681911
2.281578397
2.257578812
2.235394677
2.21471657
2.195514444
2.177834539
2.161277251
2.145315299
2.129620442
2.114017786
2.09846186
2.082947427
2.067449844
2.05203946
2.03652857
2.020844387
2.604226748
2.670824863
2.657797361
2.649252296
2.63817755
2.626016688
2.612465919
2.597608069
2.580455421
2.560996303
2.539428286
2.514116502
2.48546839
2.453876638
2.419985433
2.386634885
2.353772635
2.318930134
2.287571864
2.260710124
2.235593942
2.212014332
2.190602501
2.171053193
2.153401664
2.137663297
2.123308264
2.109759331
2.096660105
2.083712157
2.070723517
2.057625135
2.044627345
2.031796811
2.018852957
2.005569182
2.61573583
2.670904195
2.658814924
2.650376125
2.639105636
2.626289388
2.611992251
2.59577669
2.576780328
2.553949797
2.526549057
2.493684926
2.455888572
2.41476922
2.373465776
2.335059661
2.298437333
2.262219225
2.229295472
2.201845285
2.176892501
2.154120361
2.134092575
2.116092712
2.100224149
2.086480151
2.074487813
2.063596289
2.053511136
2.043656518
2.033787246
2.024070437
2.014635469
2.005092454
1.994924449
1.983983187
2.626937274
2.670967534
2.659838181
2.651586582
2.640326767
2.626932279
2.611078723
2.592429174
2.568411268
2.537442291
2.499602915
2.456113963
2.407906129
2.358499383
2.311550809
2.270352025
2.233511069
2.196820194
2.164646245
2.139209349
2.116621048
2.095682787
2.077252892
2.060897491
2.04641306
2.033918117
2.02334005
2.014228287
2.006113545
1.998407091
1.990995461
1.98390838
1.977162687
1.97037406
1.963116117
1.955330568
2.636973321
2.670806992
2.660534729
2.652175311
2.640991216
2.627088563
2.608910266
2.584248367
2.549887308
2.505361194
2.452772797
2.397334201
2.341650684
2.287990889
2.240370296
2.200459116
2.166920966
2.134674564
2.105492228
2.082047921
2.060996901
2.041482472
2.024108571
2.008491859
1.9944818
1.982353739
1.972246444
1.963514313
1.956233231
1.949744195
1.943784729
1.938624253
1.934167409
1.929941098
1.925535238
1.920657283
2.645949345
2.670761938
2.660991561
2.652092886
2.64042789
2.624396402
2.600120866
2.5639556
2.513402763
2.452441001
2.38773139
2.326408276
2.269819169
2.218526827
2.175124492
2.140794749
2.11113024
2.081264321
2.05605355
2.036458409
2.017485447
1.999160687
1.982507407
1.966863036
1.952787233
1.940525109
1.929477393
1.920301473
1.912065616
1.904694254
1.898438402
1.893803852
1.890187338
1.886968176
1.883922766
1.880901152
2.653355333
2.67115365
2.661707319
2.652179189
2.638208226
2.615122897
2.577317407
2.522621342
2.453849248
2.380610102
2.310442854
2.251123751
2.201909881
2.158277674
2.12144801
2.093011944
2.070530073
2.045233645
2.020092555
2.00116153
1.983246788
1.965727983
1.949188505
1.933395411
1.918780205
1.905543119
1.893268732
1.883165373
1.873693708
1.865332714
1.858201958
1.852639508
1.848273829
1.844831628
1.842153779
1.839917515
2.65871041
2.671411596
2.662438819
2.650648468
2.63033623
2.593277685
2.534018891
2.459649106
2.379935102
2.305330489
2.241734377
2.192041489
2.150951427
2.11544526
2.084955133
2.061063081
2.040176723
2.016646309
1.995841753
1.977621196
1.959313909
1.941775101
1.925502107
1.909884133
1.894690602
1.880223094
1.868357769
1.855107533
1.843397231
1.833331624
1.824430532
1.817420722
1.811985985
1.807574523
1.803924567
1.800840339
2.665709367
2.67197175
2.663081097
2.645453399
2.610585198
2.55006085
2.468600458
2.38002535
2.301225552
2.234626834
2.183800125
2.146883871
2.116577922
2.084940998
2.057956459
2.038560232
2.019229098
1.995911756
1.975450044
1.957744846
1.939756664
1.922448542
1.905616107
1.889149855
1.873262091
1.858823992
1.845087731
1.832121247
1.820184532
1.810111435
1.802165488
1.792323372
1.783331282
1.776510035
1.771026712
1.766300061
2.672699925
2.67180636
2.660049631
2.628162862
2.568407527
2.482934798
2.388755527
2.305479072
2.240735792
2.188700832
2.14907674
2.118364808
2.092464384
2.064642525
2.040143527
2.022939992
2.004193269
1.981681474
1.962768537
1.945718527
1.92814134
1.911126735
1.894089488
1.87716283
1.860775151
1.845569044
1.830612782
1.817053936
1.803921882
1.791598251
1.780589908
1.770426158
1.760771489
1.752034373
1.744323311
1.737268582
2.678327518
2.66984912
2.645364769
2.587784
2.499597108
2.398318868
2.309370264
2.241296755
2.194309266
2.155891192
2.124606563
2.09983692
2.07733251
2.051815735
2.029644214
2.014318858
1.995627295
1.972589546
1.954177091
1.937514424
1.920444416
1.903881072
1.887096516
1.869539826
1.853330857
1.837563562
1.82172293
1.80818436
1.793478787
1.778842201
1.765120646
1.755187223
1.745898889
1.736359304
1.727284215
1.719251575
2.679517622
2.657136802
2.607981804
2.518908615
2.413976291
2.323024579
2.25417559
2.206251762
2.169497769
2.136284039
2.109418448
2.088152511
2.06653396
2.041361697
2.020651794
2.004796384
1.985238845
1.963322446
1.945361066
1.92832078
1.911176267
1.894478027
1.877220603
1.860197064
1.843639592
1.827431448
1.811868213
1.796911629
1.781948673
1.767313494
1.752848337
1.739597389
1.727702297
1.717123163
1.707303993
1.698813995
2.673029379
2.624619886
2.538868048
2.428998864
2.332167365
2.263641938
2.215506863
2.182803951
2.154209224
2.125054719
2.100492698
2.08121878
2.058927265
2.032674945
2.013268615
1.997643191
1.976761997
1.954812133
1.93771246
1.92062105
1.903487637
1.886850276
1.869685423
1.853324691
1.836678429
1.820306758
1.805397565
1.790045311
1.774581941
1.759361013
1.744129801
1.729812749
1.716722615
1.704826047
1.69405205
1.684551773
2.651019875
2.552585939
2.442874327
2.346756246
2.280800882
2.235167555
2.199599162
2.171079867
2.145062607
2.117446505
2.092537188
2.072646146
2.049540261
2.023377152
2.00404706
1.988851963
1.967255701
1.945645241
1.929149747
1.912281158
1.895302209
1.878537674
1.862000194
1.845724857
1.829197228
1.813778099
1.799065102
1.783510709
1.768477871
1.753495391
1.738269112
1.723672291
1.709975843
1.696574423
1.684607839
1.673953129
2.578823971
2.449204683
2.350383191
2.288922262
2.249346148
2.219688546
2.191596097
2.164815459
2.139163993
2.110354201
2.085600975
2.064941146
2.040284478
2.013173804
1.99484585
1.979212531
1.956594071
1.935446186
1.919568837
1.902981013
1.885995869
1.869479187
1.853652502
1.836994256
1.821232709
1.806683145
1.791978043
1.776961587
1.76236174
1.747413653
1.73220919
1.71737871
1.703181555
1.689515467
1.676751892
1.664164201
2.465336844
2.352445404
2.298356409
2.266315753
2.241574756
2.214615169
2.187096319
2.160094894
2.132034829
2.102166043
2.076733791
2.055658437
2.029788904
2.002389508
1.985034874
1.968698382
1.945143988
1.924808696
1.909610188
1.892850263
1.87578643
1.860256215
1.844468649
1.827527
1.812998406
1.798867302
1.784292849
1.769996943
1.755896833
1.741266257
1.726430825
1.71184233
1.697770361
1.684198793
1.670878155
1.657613327
2.344378185
2.300772219
2.273273524
2.25797452
2.239036113
2.212793514
2.183951024
2.154955258
2.124907145
2.09352676
2.067632124
2.045742495
2.018593316
1.991292429
1.974900898
1.95768266
1.933189333
1.914069269
1.899351814
1.881831508
1.865327926
1.850577921
1.833968955
1.818017783
1.804494764
1.790124976
1.776097723
1.762387758
1.748752008
1.734523382
1.720132056
1.705843942
1.691991011
1.678654128
1.665376345
1.651903405
2.235260328
2.285507005
2.271377093
2.257976676
2.238751882
2.211215979
2.17992175
2.148927411
2.117005679
2.08438363
2.058203046
2.03543101
2.007003171
1.980156377
1.964552813
1.946207664
1.921035255
1.903434442
1.888514111
1.870541338
1.855157986
1.840118121
1.82300011
1.808970163
1.795242348
1.780708161
1.767686175
1.754288857
1.740970489
1.727136569
1.713230446
1.699386206
1.685886949
1.67295456
1.659933895
1.646809829
2.116208978
2.273861705
2.272608241
2.261580889
2.239477981
2.209608434
2.176116331
2.142769071
2.108929929
2.075246261
2.04874962
2.024916418
1.995182389
1.969031807
1.953957507
1.934223295
1.908735166
1.892463569
1.877089524
1.859553573
1.844625358
1.828648765
1.812744773
1.799744028
1.785004967
1.771438055
1.759174863
1.745727008
1.732508167
1.719058397
1.705656712
1.692385498
1.679326
1.666770765
1.654141364
1.641459239
1.987113453
2.229984359
2.274746428
2.26528601
2.239812277
2.206338039
2.171018719
2.136383875
2.100947594
2.06642558
2.039499383
2.014298044
1.983238848
1.95796752
1.943082317
1.921785922
1.896247648
1.881057602
1.865653553
1.848563014
1.833156731
1.817339329
1.803236092
1.78941626
1.774538784
1.762632347
1.750347908
1.736770209
1.723704969
1.710652951
1.697778961
1.68506302
1.672420094
1.660182632
1.648032049
1.635851542
1.926711017
2.127771133
2.265287341
2.264967815
2.239778023
2.204047418
2.166699751
2.130062902
2.092998895
2.057671639
2.030178038
2.003440331
1.971095068
1.946768026
1.931773243
1.908848447
1.883427756
1.869387768
1.85429724
1.836624504
1.82099849
1.80697181
1.793208895
1.778038265
1.764885578
1.753893509
1.740797214
1.727552618
1.714765083
1.701955731
1.689493063
1.677213032
1.665098692
1.653339038
1.641727852
1.629952908
1.920177024
2.003806177
2.21549712
2.260011272
2.240391818
2.202488086
2.162786285
2.123899927
2.08519571
2.049036416
2.020839874
1.992401916
1.958855851
1.935476572
1.920054459
1.895416196
1.870529597
1.857890942
1.842586606
1.823544913
1.809191897
1.796862657
1.781689266
1.766871833
1.756034104
1.744483771
1.730836834
1.718420245
1.705744624
1.692960501
1.680969011
1.669234871
1.657717304
1.646319424
1.63498
1.62352574
1.921128921
1.936259737
2.112564938
2.243268735
2.237877851
2.201617956
2.159464827
2.117903417
2.077456748
2.040323289
2.011198687
1.98105596
1.946558548
1.924048623
1.907834737
1.881530604
1.857871176
1.846355799
1.829742441
1.81020051
1.798323443
1.78569092
1.768881108
1.756949204
1.746869268
1.734091711
1.720896828
1.709060359
1.696329419
1.683825703
1.672436859
1.661142093
1.650030752
1.638935809
1.62793556
1.61695853
1.920703532
1.921460595
1.994075573
2.189529574
2.229688141
2.201343916
2.156629971
2.112239216
2.069820263
2.031578265
2.001389205
1.969503272
1.934344634
1.912639989
1.895246459
1.867454491
1.84560954
1.834526962
1.81611813
1.797608051
1.787296274
1.772659754
1.756650798
1.74776491
1.736666948
1.723254547
1.711023791
1.699456976
1.686961078
1.674897762
1.663813887
1.652793763
1.642103321
1.631455662
1.620831325
1.610226424
1.920389387
1.920501186
1.933607088
2.086387793
2.208004835
2.198311624
2.153840853
2.106859906
2.062337552
2.022843658
1.991424615
1.957813735
1.922254381
1.901105569
1.882309964
1.853400299
1.83335236
1.821935593
1.802395332
1.785688547
1.775177822
1.759084882
1.746135784
1.737816042
1.72490027
1.712308416
1.701198412
1.6896509
1.67748877
1.665693303
1.654876454
1.644382664
1.634272101
1.624057346
1.6136391
1.603170487
1.921031757
1.92065781
1.92076345
1.973768853
2.142344753
2.185684102
2.151425245
2.102006287
2.055162846
2.014233258
1.981505259
1.946120759
1.91031403
1.889609761
1.869244423
1.839383083
1.820909437
1.80919214
1.789007009
1.77305293
1.761789562
1.746714161
1.736402634
1.72620525
1.712488428
1.701997489
1.691428004
1.679674652
1.667692458
1.656273103
1.646013199
1.6362105
1.626475485
1.616381245
1.606042253
1.595809624
1.921308029
1.920610832
1.918424719
1.923117433
2.034011857
2.15382717
2.144848621
2.097703051
2.048960754
2.006138203
1.971540984
1.934295335
1.898505476
1.877966914
1.855865574
1.825142479
1.808070646
1.79643613
1.775278576
1.759452537
1.748994448
1.735811812
1.725387813
1.712740629
1.70119556
1.692070858
1.680753279
1.669024211
1.657691332
1.647039855
1.637328307
1.627863696
1.618359523
1.608543912
1.598558083
1.588593846
1.578661042
1.920916014
1.920535405
1.918257531
1.910144757
1.934167469
2.071056161
2.123144771
2.093575314
2.043372152
1.99843285
1.96194388
1.922586827
1.88680715
1.866308513
1.84235625
1.810813175
1.795224394
1.783449177
1.760571529
1.745562376
1.737296719
1.724478142
1.712197423
1.699743893
1.691468072
1.681512424
1.669027205
1.658455832
1.648005653
1.637891523
1.628343215
1.619228927
1.610206595
1.600755155
1.590937774
1.580964188
1.571128905
1.92079245
1.920590889
1.918214654
1.907677301
1.894689534
1.95900991
2.074902859
2.081428339
2.038384214
1.991153049
1.952301774
1.911082119
1.875589052
1.854459531
1.828215072
1.796400148
1.782495962
1.769867195
1.745123985
1.732433644
1.725767254
1.710986952
1.697557288
1.688833726
1.681525058
1.669030087
1.657272366
1.648423215
1.638077026
1.628291356
1.619288007
1.610705842
1.602035813
1.592724644
1.582974073
1.573166493
1.56372308
1.920998994
1.920516435
1.917483938
1.906943397
1.880142834
1.879050211
1.97477232
2.048236726
2.032579363
1.984641948
1.943240665
1.899429776
1.86419609
1.842564303
1.814047698
1.782165865
1.769372899
1.755025363
1.729659372
1.720269339
1.71344826
1.695602111
1.684207996
1.67902794
1.669841109
1.655606456
1.646588248
1.638347186
1.627616292
1.618820804
1.610547794
1.601983365
1.593228109
1.584096466
1.574812186
1.56556659
1.556600302
1.921009975
1.920283072
1.91669719
1.905591385
1.879020512
1.843084828
1.867517036
1.975829889
2.011886841
1.9773941
1.935749169
1.888303808
1.852882452
1.829946787
1.79923286
1.768200055
1.756321385
1.739711296
1.714683934
1.707876789
1.699077838
1.679945869
1.672667031
1.668001985
1.655561348
1.643141344
1.636294754
1.627473144
1.617380276
1.609661962
1.601354017
1.592677778
1.584249743
1.575781718
1.567087804
1.558139326
1.549245393
1.920799411
1.920047559
1.915909104
1.903009433
1.879143976
1.836512824
1.806311287
1.862859892
1.963480074
1.963965074
1.928184554
1.877899269
1.842577535
1.817303066
1.783802545
1.753702837
1.742252074
1.723557016
1.700242168
1.695041884
)
;

boundaryField
{
    inlet
    {
        type            fixedValue;
        value           nonuniform 0();
    }
    outlet
    {
        type            inletOutlet;
        inletValue      nonuniform 0();
        value           nonuniform 0();
    }
    bottom
    {
        type            slip;
    }
    top
    {
        type            slip;
    }
    obstacle
    {
        type            zeroGradient;
    }
    defaultFaces
    {
        type            empty;
    }
    procBoundary3to2
    {
        type            processor;
        value           nonuniform List<scalar> 
39
(
1
1
1
1
1
1
1
1
1.000000174
1.000031324
1.002148641
1.020252946
1.041060791
1.059078912
1.075626672
1.093553472
1.114269401
1.137968172
1.16683679
1.200510815
1.236940543
1.275311397
1.318394332
1.36694092
1.424636916
1.493695916
1.566966463
1.633856905
1.69481078
1.755092241
1.821347756
1.893325692
1.96955524
2.049398712
2.131630842
2.212284746
2.288311721
2.348517808
2.396205852
)
;
    }
    procBoundary3to4
    {
        type            processor;
        value           nonuniform List<scalar> 
62
(
2.053362533
2.053403577
2.053440463
2.053485377
2.053475762
2.053446203
2.053357899
2.053211883
2.053019377
2.052757844
2.05240316
2.051922886
2.05128513
2.050474964
2.049475003
2.048291459
2.046912007
2.045352542
2.043633525
2.041790629
2.039927055
2.038102541
2.036389898
2.034811916
2.03328431
2.031644439
2.029577779
2.026696233
2.022063082
2.014944815
2.005070923
1.991719128
1.972294884
1.946822599
1.914903849
1.877334031
1.837800062
1.798358195
1.763083833
1.732656118
1.710155345
1.690988421
1.676232368
1.664870132
1.65265758
1.645179895
1.638544226
1.633541927
1.628569899
1.623432689
1.617842304
1.61180078
1.605697849
1.599306375
1.592553652
1.585699043
1.585699043
1.568682952
1.561480737
1.554572468
1.547654015
1.540302775
)
;
    }
    procBoundary3to8
    {
        type            processor;
        value           nonuniform List<scalar> 
24
(
2.444068971
2.494698378
2.538924843
2.5728931
2.602309595
2.62591144
2.610058234
2.511875672
2.246067756
2.007385022
1.930180997
1.927224456
1.920759851
1.917686357
1.921807389
1.923510992
1.921148823
1.920319539
1.921460625
1.921503087
1.920777031
1.920811661
1.921229536
1.921154272
)
;
    }
    procBoundary3to9
    {
        type            processor;
        value           nonuniform List<scalar> 
38
(
1.683627922
1.666229971
1.662009914
1.65463302
1.640729998
1.63206937
1.625580917
1.616514465
1.607510066
1.59964056
1.591421089
1.583527891
1.575702125
1.567516101
1.558996447
1.550157733
1.541496626
1.920717413
1.919855548
1.915041132
1.900159982
1.874195511
1.834889069
1.781364508
1.777970111
1.867935079
1.936513703
1.91141965
1.866165503
1.832196899
1.804526495
1.768401497
1.73997746
1.728361347
1.707466811
1.685894314
1.683627922
1.680653224
)
;
    }
}

