/*--------------------------------*- C++ -*----------------------------------*\
  =========                 |
  \\      /  F ield         | OpenFOAM: The Open Source CFD Toolbox
   \\    /   O peration     | Website:  https://openfoam.org
    \\  /    A nd           | Version:  7
     \\/     M anipulation  |
\*---------------------------------------------------------------------------*/
FoamFile
{
    version     2.0;
    format      ascii;
    class       volScalarField;
    location    "4";
    object      T;
}
// * * * * * * * * * * * * * * * * * * * * * * * * * * * * * * * * * * * * * //

dimensions      [0 0 0 1 0 0 0];

internalField   nonuniform List<scalar> 
2222
(
1.089262449
1.089221652
1.089149953
1.089052618
1.088908315
1.088669305
1.088495472
1.088479709
1.088539286
1.088729497
1.088834754
1.088712272
1.088547465
1.088366566
1.088204158
1.090540017
1.090339383
1.090008369
1.08983483
1.089828185
1.089803178
1.089713094
1.089659559
1.089566405
1.08955977
1.089605254
1.089637938
1.089655163
1.089516469
1.089318181
1.089279093
1.089240056
1.089243353
1.08922444
1.089188881
1.089157983
1.089175387
1.089223761
1.089232132
1.089217356
1.089145273
1.089074866
1.089021782
1.088885245
1.088624597
1.088499432
1.088490777
1.088584491
1.088654358
1.08860712
1.088478622
1.088400827
1.088255248
1.090525202
1.090404441
1.090130356
1.089865594
1.08972848
1.089600773
1.08942319
1.089304898
1.089202785
1.089229435
1.089346236
1.089386986
1.089415351
1.089479314
1.089356638
1.089213298
1.089199713
1.089160337
1.089096088
1.089093455
1.089076377
1.089077017
1.089082506
1.089102504
1.089084715
1.089034652
1.089000317
1.088922162
1.088832866
1.088669192
1.088364215
1.088307857
1.08823939
1.088264269
1.088299932
1.088337508
1.088316905
1.088216041
1.090198382
1.090067456
1.090083151
1.089867828
1.089645331
1.089189784
1.08891727
1.088790758
1.088770312
1.088828324
1.088939383
1.088993281
1.089034622
1.08917248
1.089200686
1.089049753
1.088948908
1.088874912
1.088794141
1.088813074
1.088843527
1.088814136
1.088814242
1.088838619
1.088800174
1.088733433
1.088688509
1.088648758
1.088586322
1.088449765
1.088317143
1.087956886
1.087825342
1.087814118
1.087864373
1.088009254
1.088099244
1.088045077
1.089397737
1.08932648
1.089410481
1.089282027
1.088995756
1.088729576
1.088443193
1.088181897
1.088128981
1.0881732
1.088263943
1.088312869
1.08834599
1.088469813
1.088612967
1.088526169
1.088350233
1.088243318
1.088180825
1.088243957
1.088288156
1.088254438
1.088249411
1.088247267
1.088196555
1.088132909
1.088085429
1.088026862
1.087957605
1.087910179
1.087779943
1.087592787
1.087367451
1.087270693
1.087310625
1.087434829
1.087610543
1.08752613
1.088009582
1.088002168
1.088097417
1.088036502
1.087781234
1.087591856
1.08745037
1.087260744
1.087168206
1.087112683
1.08711807
1.08714448
1.087159442
1.087285367
1.087478176
1.087475987
1.087331263
1.087215585
1.087166522
1.087197519
1.087218241
1.08720283
1.087176183
1.087157246
1.087114561
1.087058459
1.087017481
1.086923188
1.086837909
1.086799119
1.086741279
1.086645384
1.086523388
1.086368169
1.086373356
1.086477801
1.086501781
1.086494514
1.08589107
1.085985186
1.086011098
1.086017213
1.085811962
1.085727619
1.085685765
1.085589026
1.085523425
1.085453616
1.085388983
1.085373519
1.085323292
1.085442286
1.085707476
1.085734739
1.085630194
1.085550909
1.085536104
1.085480494
1.085438912
1.085465101
1.085451928
1.085421253
1.085392149
1.085340529
1.085321953
1.085222438
1.085098376
1.085051943
1.085027958
1.085025634
1.084984498
1.084938995
1.084927659
1.084842368
1.084799032
1.084779431
1.08292408
1.083121088
1.083022549
1.083050018
1.083023627
1.083084096
1.083109903
1.083063132
1.083018221
1.082942372
1.082843744
1.082811701
1.082765938
1.0828129
1.082924329
1.083100842
1.083036853
1.082994612
1.0830001
1.082970198
1.082892396
1.082903993
1.082924457
1.082920958
1.082899064
1.082878161
1.082846633
1.082751392
1.082636604
1.082588372
1.082612098
1.082730817
1.08270819
1.082724827
1.082640451
1.082493815
1.082344546
1.082327843
1.07909967
1.079323365
1.079270728
1.079330545
1.079419722
1.07963826
1.079726406
1.079670342
1.079656837
1.079554624
1.079433012
1.079380346
1.079338671
1.079257449
1.079314877
1.079478836
1.079526688
1.079510991
1.079528808
1.079528505
1.079527123
1.07947134
1.079511417
1.079553824
1.079574603
1.079586528
1.079527793
1.079443267
1.079371928
1.079334592
1.079319666
1.079344528
1.07948497
1.079459616
1.079357624
1.079239102
1.079105563
1.079064677
1.07455223
1.074752266
1.074836495
1.074908876
1.075034677
1.07517158
1.075263222
1.075329166
1.075310742
1.075181417
1.075055506
1.074995412
1.074992721
1.07487057
1.074862233
1.074946726
1.075091479
1.075132356
1.075163257
1.075198677
1.075238626
1.075241316
1.07526192
1.075326931
1.07541104
1.075394668
1.075307685
1.075253319
1.075257425
1.075218081
1.075176635
1.075160072
1.075188113
1.075213527
1.075152662
1.075057347
1.075006939
1.074982173
1.069389753
1.069645229
1.069815521
1.069771872
1.069851925
1.069949866
1.070015581
1.070004646
1.070013027
1.069940918
1.069844187
1.069787468
1.06981131
1.069773833
1.069634702
1.06969502
1.069827939
1.069889408
1.069939454
1.070026134
1.070138608
1.070207027
1.070260123
1.070344793
1.070418525
1.070369292
1.070250173
1.070217733
1.070252723
1.070232038
1.07019155
1.070145919
1.070069565
1.069995734
1.069988336
1.070025069
1.070028638
1.070056946
1.06363081
1.06396735
1.064119578
1.064059951
1.064105963
1.064123989
1.064117114
1.064066018
1.064032361
1.063970699
1.063943614
1.063905633
1.063963673
1.063982322
1.063881235
1.063845819
1.063957158
1.064016561
1.064076185
1.064198135
1.064344095
1.064501846
1.064598846
1.064674005
1.064689722
1.064636021
1.064467746
1.064443427
1.064494717
1.064506551
1.064465276
1.064347767
1.064241004
1.064101883
1.064093917
1.06420749
1.064304769
1.064383037
1.057351308
1.057650285
1.057832117
1.057835404
1.057854806
1.057851187
1.057749023
1.057664453
1.05759089
1.057550497
1.057542414
1.057529593
1.057610025
1.057667844
1.057626456
1.057544475
1.057629672
1.057694167
1.057762619
1.057860688
1.058095085
1.058291132
1.058379571
1.058393353
1.058398904
1.058320808
1.058235153
1.058152318
1.058129525
1.058121535
1.058057143
1.057984447
1.05783915
1.057769963
1.057770265
1.057808479
1.057936153
1.058097374
1.051059547
1.051238789
1.051257166
1.051253988
1.051270164
1.051073138
1.050965212
1.05087715
1.050875503
1.050884568
1.050884542
1.050915884
1.051035023
1.051028224
1.050980086
1.05099802
1.051066692
1.051150242
1.051247379
1.051373804
1.051539194
1.051681259
1.051722926
1.05168526
1.051634697
1.051630322
1.051562583
1.051458761
1.051345311
1.05126989
1.051280439
1.05123422
1.051215323
1.051169768
1.051136006
1.051185283
1.051353301
1.044304484
1.044492016
1.044544065
1.044536488
1.04455997
1.04441062
1.044305291
1.044186454
1.04417443
1.044151183
1.044156123
1.044096886
1.044194608
1.04430208
1.044293463
1.044275946
1.044326718
1.044392153
1.044458677
1.044548471
1.044643847
1.044768187
1.044829347
1.044758915
1.044774164
1.044855043
1.044819994
1.044667615
1.044502773
1.044433894
1.044418327
1.04446575
1.044495697
1.044449018
1.04435789
1.044343907
1.044460621
1.037465421
1.037610233
1.037799673
1.037844433
1.037872247
1.037779588
1.037685263
1.037559211
1.037515163
1.037475151
1.037468772
1.037366896
1.037395164
1.037567189
1.037618227
1.037596157
1.03761132
1.037645064
1.037686899
1.037751806
1.037819156
1.037906671
1.037932778
1.037899739
1.03794079
1.038048132
1.038071619
1.037938628
1.037779619
1.03767969
1.037629157
1.037699417
1.037747959
1.037724811
1.037648575
1.037593381
1.037663329
1.030915824
1.030960928
1.031097131
1.031220465
1.031268089
1.031364826
1.031295099
1.031154617
1.03105874
1.030952513
1.030917798
1.030882986
1.030871733
1.030990611
1.031131154
1.031122451
1.031119786
1.031091189
1.031097436
1.031132583
1.031186127
1.031208809
1.031238864
1.031291241
1.03135132
1.03140452
1.031475116
1.031404731
1.031272513
1.03117895
1.031092322
1.031072091
1.031098392
1.031140049
1.031134965
1.03109217
1.031127625
1.024788106
1.024776031
1.024831538
1.024931148
1.024971146
1.025189284
1.025177663
1.025062432
1.024911687
1.024776569
1.024729214
1.024773521
1.024742559
1.024772796
1.024872382
1.024960058
1.024940767
1.024896242
1.024889601
1.024880994
1.024888915
1.024898007
1.024984964
1.025091429
1.025140224
1.025132699
1.025134937
1.02514092
1.025128695
1.025055981
1.024946936
1.024866589
1.024830591
1.024842552
1.02489667
1.024928652
1.024983037
1.019124595
1.019081016
1.019105669
1.019138283
1.019202165
1.019364531
1.019387151
1.019369602
1.01925095
1.019141198
1.01909073
1.019136543
1.019112558
1.019067597
1.019090745
1.01916367
1.019172554
1.019177579
1.019189128
1.01915259
1.019146401
1.019194133
1.019304102
1.019416862
1.019428875
1.019373417
1.019314763
1.019321428
1.019354997
1.019344919
1.019280324
1.019172408
1.019108465
1.019106791
1.019167898
1.01923968
1.019321023
1.013933262
1.013874983
1.013906163
1.013908211
1.014035994
1.014134543
1.014175726
1.01420614
1.014149493
1.014099015
1.01405696
1.014075093
1.014049196
1.01396319
1.013935891
1.013972717
1.013996525
1.014033703
1.014078517
1.014067998
1.014087496
1.014163265
1.014268724
1.014356054
1.014346577
1.01424614
1.01415741
1.014160119
1.014194419
1.014207582
1.014175773
1.014065514
1.014008436
1.014020368
1.014082556
1.01415495
1.014239733
1.009242609
1.009221334
1.009304886
1.009400075
1.009596634
1.009649897
1.009682353
1.009710166
1.009690927
1.009687845
1.009670341
1.009643752
1.009607833
1.0095224
1.009502234
1.009531613
1.009558502
1.009578283
1.00963374
1.009684692
1.00974143
1.0098345
1.009925536
1.00997421
1.009959652
1.009854577
1.009742044
1.009710307
1.009718056
1.009731556
1.009723981
1.009660523
1.009630876
1.009647493
1.009697018
1.009743666
1.009816437
1.00514644
1.005250252
1.005402149
1.005661553
1.005882638
1.005888101
1.005900124
1.005913563
1.005926696
1.005952816
1.005943986
1.005872736
1.005829058
1.005803465
1.005823471
1.005845222
1.005869835
1.005865233
1.005909434
1.006018686
1.006129351
1.006226581
1.006292464
1.006293178
1.006269438
1.00620492
1.00611547
1.006057157
1.006031907
1.00602873
1.006025235
1.006014607
1.006015743
1.006035524
1.006073115
1.00610018
1.006161683
1.001943634
1.002196225
1.002386669
1.002689206
1.002848134
1.002860016
1.002851764
1.002813865
1.002820197
1.002843087
1.002859203
1.002807437
1.002793762
1.002835903
1.002854836
1.002842831
1.002878419
1.002907283
1.002955466
1.003091125
1.003231869
1.003306543
1.003327475
1.003295104
1.003282126
1.003277643
1.003236039
1.003158562
1.003112217
1.003100267
1.003106411
1.003142538
1.00317417
1.003194016
1.003214501
1.003230855
1.003289339
0.9995882842
0.9999299741
1.000175329
1.000459989
1.000528092
1.000546521
1.000501958
1.000379713
1.000339907
1.000334878
1.000403663
1.000438432
1.000474271
1.000549839
1.000557493
1.000551688
1.000603173
1.000672531
1.000713229
1.000822438
1.000942661
1.00099289
1.001001567
1.001014704
1.001031369
1.001048126
1.001035917
1.000979613
1.000936623
1.00093312
1.000960922
1.001013942
1.001039544
1.001031805
1.001016011
1.001032751
1.001110944
0.9981634139
0.9984995883
0.9987735605
0.9989327778
0.9988889607
0.9988182632
0.9987228993
0.9985911844
0.9985829316
0.9985977157
0.9986920384
0.9987735488
0.9988290727
0.9989233962
0.9989652291
0.9989671098
0.9989772937
0.9990203537
0.9990706426
0.9991606373
0.99925369
0.9993023138
0.9993438342
0.9994044445
0.9994136637
0.9994009334
0.9993998019
0.9994011637
0.9993983665
0.9994086294
0.9994530035
0.9994944114
0.9994993142
0.9994694548
0.9994438686
0.9994702597
0.9995785329
0.9974382098
0.9977788119
0.9979789713
0.9979441526
0.9977213252
0.997550182
0.9974909339
0.9974722876
0.9974873177
0.9975138304
0.9975918886
0.9976700944
0.9977511668
0.9978736444
0.9978945516
0.9978296506
0.9977753392
0.997848015
0.9979961685
0.9981075871
0.9981508992
0.9981703582
0.9982252051
0.9982836824
0.9982760839
0.9982605651
0.9982740658
0.9983389649
0.9983607179
0.998362449
0.9984040041
0.9984575222
0.9984832494
0.9984784042
0.9984704955
0.99851281
0.9986192407
0.9973001096
0.9973909699
0.997163133
0.9968286189
0.9967736126
0.996835389
0.996915405
0.9969127625
0.9969738914
0.9970570147
0.9971127422
0.9971424071
0.9971459488
0.9970564586
0.9969761519
0.9970655416
0.997251726
0.9973870002
0.9974314009
0.9974048859
0.9974013754
0.9974751199
0.9975688627
0.9976271016
0.9976446629
0.9976503457
0.9976890703
0.9976863316
0.9976763372
0.9977187895
0.9978098941
0.9978607461
0.9978740103
0.9978946239
0.9979603349
0.9980252001
0.9968990442
0.9967916509
0.9964032759
0.9962065286
0.9963545485
0.9965476908
0.9966711188
0.9966955117
0.9967700387
0.9968104673
0.9968291062
0.9967708432
0.9966110244
0.9965695899
0.9966795838
0.9968446295
0.9969656034
0.9969623093
0.9968794111
0.9968780165
0.996991171
0.9971408121
0.9972678677
0.9973599994
0.9973877264
0.9973409309
0.997277153
0.9972664518
0.9973156544
0.9973775005
0.9974325005
0.9974536235
0.9974920326
0.9975738704
0.997657019
0.9976578471
0.9962697271
0.9960783803
0.9958889952
0.9959803037
0.9962282975
0.9964150215
0.9965650592
0.996611469
0.9966552607
0.9965904875
0.996566686
0.9964772095
0.9963823626
0.9964949921
0.9966996839
0.9967912851
0.9967454486
0.9966413346
0.9966065309
0.9967412533
0.996948262
0.9970996217
0.9971950323
0.9972399598
0.9972293228
0.997130404
0.9970228023
0.997040705
0.9971294082
0.9971777287
0.9971745601
0.9971931396
0.9972932059
0.9974233394
0.997484656
0.997447199
0.9955746775
0.9955375582
0.9957150022
0.995985687
0.9961843252
0.996307149
0.9964423535
0.9965059876
0.9965093669
0.9963613703
0.9963225983
0.9963259736
0.9963998822
0.9965867675
0.9967409532
0.9967209915
0.9965877217
0.9965593719
0.9966493362
0.9968149191
0.9970015117
0.9971187649
0.9971547556
0.9971390076
0.9970721092
0.9969709591
0.9969087765
0.9969334388
0.9969850931
0.9970015371
0.997007404
0.997080581
0.9972111452
0.9973244952
0.9973552084
0.9973255134
0.995356558
0.9955060695
0.9958165856
0.996089456
0.9961865983
0.9962567777
0.9963105895
0.9963340749
0.9962640536
0.996225932
0.9962321709
0.9963519826
0.9965272461
0.9966753567
0.9967047464
0.9966207434
0.9965580126
0.996616027
0.9967599895
0.9969044934
0.997032183
0.9970963426
0.9971019997
0.9970648382
0.9969915565
0.9969014785
0.9968678396
0.996880988
0.9968916417
0.9969028588
0.9969584177
0.9970648357
0.9971747042
0.9972334414
0.9972346321
0.997250314
0.9956351987
0.9958550894
0.9960898789
0.996266221
0.9962946623
0.9963198542
0.9962782592
0.996215342
0.9961309685
0.9962403542
0.9963060827
0.9965004269
0.9966594643
0.9966780979
0.9966251259
0.9965877422
0.9966084267
0.9966989621
0.9968126001
0.9969269367
0.9970125675
0.9970464632
0.9970861465
0.9970833102
0.9969937633
0.9969030255
0.9968724713
0.9968547712
0.9968563917
0.9968937558
0.9969721807
0.9970678196
0.9971240814
0.9971191074
0.9970965902
0.9971736565
0.9960705996
0.9963992553
0.9964752954
0.9964933225
0.9964633642
0.9964212368
0.9963062127
0.9962337985
0.9962703035
0.996491102
0.996590291
0.9966941057
0.9967452923
0.9966887226
0.9966344938
0.9966508216
0.9966897335
0.9967403221
0.9968250123
0.9969188213
0.9970054355
0.9970847264
0.9971506513
0.9971550679
0.9970523747
0.996934682
0.9968894854
0.9968985867
0.9969210071
0.9969477567
0.9969945988
0.9970304856
0.9970100505
0.9969980905
0.997032618
0.997213574
0.9966732047
0.9967523158
0.9968246307
0.9967403469
0.9966229809
0.9965087148
0.9964059307
0.9964209041
0.9965757848
0.9967800845
0.9968578468
0.9968802254
0.9968559397
0.9967904342
0.9967633175
0.9967802856
0.9967802603
0.9967971131
0.9968750891
0.9969720464
0.9970916581
0.9972081428
0.9972492559
0.9972123049
0.9971134076
0.9970363093
0.9970409622
0.997042807
0.9970520227
0.9970507516
0.9970467155
0.9970378913
0.9970502206
0.9971091187
0.9972199887
0.9973931075
0.9972239667
0.9971591944
0.9970722102
0.9968469285
0.9966030576
0.9965263378
0.996606918
0.9967734142
0.9969720467
0.9971287183
0.9971533973
0.9971514473
0.9970700104
0.9969868241
0.9969183205
0.996888302
0.9968802701
0.9969768632
0.9970980337
0.9972013019
0.9973081475
0.9973671439
0.9973098823
0.9972166578
0.9972453297
0.997329954
0.9973068138
0.9972765639
0.9972459229
0.9972178301
0.9972004103
0.9972676318
0.9973843212
0.9974686083
0.9975657156
0.9976531192
0.9977476411
0.9975892804
0.9973165808
0.996864688
0.9967435435
0.9968117693
0.9969970409
0.9972278954
0.9974242013
0.9975721771
0.9975827437
0.9975103392
0.997372592
0.9972026323
0.9970574091
0.9970602205
0.9971781751
0.9973786144
0.9975025566
0.9975656721
0.9975914017
0.9975229774
0.9974469798
0.9974861693
0.9976057779
0.9977395209
0.9977160589
0.9976195155
0.9975309583
0.9974769144
0.9975654036
0.9976924175
0.9978291829
0.9979310139
0.9979892867
0.9979723348
0.9982393018
0.9978362083
0.9974118853
0.997217887
0.9973900897
0.9975493677
0.9976585791
0.9977970479
0.9979068813
0.9979743268
0.9979713464
0.9978438041
0.9976685761
0.9974478572
0.9974589723
0.9976173148
0.9977902668
0.9979476745
0.9980226282
0.9980092082
0.9979269826
0.9979073823
0.99801192
0.9981065796
0.9982029292
0.9982365201
0.9982413786
0.9980924957
0.9979722675
0.9979809067
0.9980881706
0.9982771979
0.9983898967
0.9984521796
0.9984632289
0.998379314
0.9984695758
0.9980613767
0.9979364719
0.9981586005
0.9983514587
0.9985143782
0.9985751558
0.9986177353
0.998551235
0.9984635757
0.9983508362
0.9982091357
0.9981563979
0.998183484
0.9983196858
0.99848188
0.998629076
0.9986611383
0.9986479576
0.9986041308
0.9986216508
0.9987084804
0.9988195323
0.9989574485
0.9990114214
0.9989838389
0.9988751163
0.9987201349
0.9986811835
0.9987079296
0.9988262405
0.9989502894
0.9990257901
0.9990588866
0.99901694
0.9988680104
0.9989478647
0.9989959854
0.9991008003
0.9993446611
0.9995351754
0.9996807112
0.999700539
0.9997083792
0.9995800822
0.9993479573
0.9991797084
0.9991525004
0.9992067284
0.9992765091
0.9994419039
0.99962652
0.999677681
0.9996004637
0.9995703224
0.999597829
0.9996488712
0.9997275375
0.9998780359
1.000056872
1.000049547
0.999892287
0.9996754806
0.999565189
0.9996045954
0.9996765612
0.9997070211
0.9997668947
0.9997678051
0.9997263
0.9996659976
0.9996508337
1.0002983
1.000410997
1.000475337
1.000756199
1.000908406
1.000950976
1.000971537
1.000936823
1.00084063
1.000613067
1.000458591
1.00042479
1.000475941
1.00062383
1.000832479
1.000985474
1.000964787
1.000845656
1.000795526
1.000814699
1.000865986
1.000992748
1.001207918
1.001265884
1.001151441
1.000886961
1.000567611
1.000612692
1.000704869
1.000768825
1.000749813
1.000666553
1.000602864
1.000600517
1.000653162
1.000728508
1.001917589
1.00203757
1.002259847
1.002345019
1.002302227
1.002345231
1.002293357
1.002236983
1.002019888
1.001875531
1.001863746
1.001909769
1.00213938
1.002366029
1.002434301
1.002377514
1.002291028
1.002238077
1.002220701
1.002290387
1.002452409
1.002514824
1.002461921
1.002253028
1.00182881
1.001807508
1.001863418
1.001911533
1.00193294
1.001824953
1.001757436
1.00176795
1.001802531
1.001866269
1.001949307
1.003492128
1.003626569
1.003733193
1.003752987
1.003706687
1.003729753
1.003695056
1.003638539
1.003506697
1.003430738
1.00343049
1.003504482
1.003759089
1.003885756
1.003832898
1.003732382
1.003715408
1.003700539
1.003700702
1.003756757
1.003773449
1.003717353
1.003528939
1.003156912
1.003105925
1.003128582
1.003153334
1.003159535
1.003110547
1.003131609
1.003105229
1.003121077
1.003157881
1.003220143
1.003300154
1.005067769
1.005111055
1.005093331
1.005038192
1.004973057
1.004980273
1.004960909
1.004881258
1.004910632
1.004986534
1.005058515
1.005184737
1.005317473
1.005244565
1.00507801
1.004983321
1.004981148
1.004976563
1.004973354
1.0049873
1.004953819
1.004717113
1.004356553
1.004296622
1.004362768
1.004424398
1.004408466
1.004378505
1.004358184
1.0044193
1.004474923
1.004546107
1.004625061
1.004623655
1.004557035
1.006398179
1.006314476
1.006231514
1.006117194
1.006103755
1.005989477
1.005956618
1.006030566
1.006181201
1.00645631
1.00661847
1.006667632
1.006588912
1.006406258
1.006187566
1.006065782
1.00606107
1.006100248
1.006103899
1.006066124
1.005821826
1.005486608
1.005386243
1.005460176
1.005599911
1.005674459
1.00560775
1.005560744
1.005588846
1.005674153
1.005789011
1.005868547
1.005902405
1.005865362
1.005709557
1.007343635
1.007230357
1.007136101
1.006990203
1.006897891
1.006810294
1.006856958
1.007053523
1.007322654
1.007629894
1.007764765
1.007740025
1.007590731
1.007339017
1.006983524
1.006915681
1.006970397
1.0070055
1.006963507
1.006816387
1.006572734
1.006451579
1.006448385
1.006582704
1.006830304
1.006849607
1.006762289
1.006721114
1.006778674
1.00686033
1.006942061
1.006980306
1.006977717
1.006920421
1.006802778
1.008064992
1.007946621
1.007731544
1.007582741
1.007610434
1.007655659
1.007728604
1.007968619
1.008255671
1.008446061
1.00853601
1.008510647
1.00831001
1.007833902
1.007646254
1.007748719
1.007862338
1.007870684
1.007796716
1.007643258
1.007478403
1.007389336
1.007487407
1.007758776
1.007902247
1.007844454
1.00778743
1.007778859
1.007815364
1.00783352
1.007883897
1.007909776
1.007893028
1.007852424
1.007773773
1.008449059
1.008301078
1.008163853
1.008220244
1.008279877
1.008403168
1.008575166
1.008706902
1.008852917
1.009014122
1.009061677
1.008902439
1.008464169
1.008256965
1.008389041
1.008545106
1.008653656
1.008647597
1.008600473
1.008478907
1.008341261
1.008326919
1.008591822
1.008774841
1.008690347
1.00861379
1.00860887
1.008610382
1.008628616
1.008657299
1.008685501
1.008693597
1.008682366
1.008672199
1.008664006
1.008835956
1.008762384
1.008712766
1.008786459
1.008917227
1.009108755
1.009183299
1.009177737
1.009257051
1.009161177
1.009000855
1.008733045
1.008711743
1.008878445
1.009114976
1.009358746
1.009450818
1.009424122
1.00936219
1.009273856
1.009236302
1.009377107
1.009496107
1.009441106
1.009323528
1.009243846
1.009237804
1.009248633
1.00927597
1.009332245
1.009367677
1.009362513
1.009368321
1.009399715
1.009418233
1.009258547
1.00925245
1.009323015
1.00947602
1.009644571
1.009647231
1.009559306
1.009448555
1.009168334
1.009010096
1.00901665
1.009074421
1.009281607
1.009575196
1.00997643
1.010189956
1.010177794
1.010097974
1.010046472
1.010035642
1.010111984
1.010147172
1.010066769
1.009935738
1.009824516
1.009757004
1.009729341
1.009749488
1.009794482
1.00987385
1.009920806
1.009934238
1.009946725
1.009987832
1.009966871
1.009793472
1.009941408
1.010100664
1.010294644
1.01025303
1.010048843
1.009830452
1.009648865
1.009388223
1.009387166
1.009506006
1.009664751
1.00991627
1.010361956
1.010653555
1.010723343
1.010666461
1.010591867
1.010610648
1.010687194
1.010723479
1.010594519
1.010422879
1.010271156
1.010174455
1.010156309
1.010147687
1.010175448
1.010225796
1.01029868
1.010362468
1.010427222
1.010463596
1.010464326
1.010410539
1.010643283
1.010774659
1.010862373
1.010811676
1.010591466
1.010360307
1.010117853
1.009917262
1.00980805
1.009876868
1.010047983
1.010365081
1.010651481
1.010908478
1.010980196
1.011002368
1.010997299
1.010994691
1.011077049
1.011144379
1.01110658
1.010919693
1.010674877
1.010509415
1.010464132
1.010499292
1.010559025
1.010601849
1.010629537
1.010660353
1.01074734
1.010867501
1.010930221
1.010880149
1.010794935
1.011332802
1.011399559
1.011253898
1.010996928
1.010781948
1.010618289
1.010482186
1.010343257
1.010414342
1.010443635
1.010656133
1.011013928
1.011191899
1.011187832
1.011176705
1.011194559
1.011268617
1.011371955
1.011461918
1.011457752
1.011377481
1.011163156
1.010906528
1.010778625
1.010790786
1.010907855
1.011028783
1.011044196
1.011028038
1.011027263
1.011143558
1.011298268
1.011353647
1.011266291
1.011166638
1.011623097
1.011591637
1.011348727
1.011078237
1.010958949
1.010894729
1.010900887
1.01092221
1.01095702
1.011031926
1.011244983
1.011398502
1.011423477
1.011328661
1.01133811
1.011401558
1.011559205
1.011722055
1.011744465
1.011682556
1.011565211
1.011364254
1.011174779
1.011145319
1.011259207
1.011402581
1.011457672
1.011426804
1.011387522
1.011437342
1.011574633
1.011679024
1.011669399
1.011605232
1.01154928
1.011774698
1.011582485
1.011353623
1.011247493
1.011240662
1.011259176
1.011213916
1.01128908
1.011290936
1.011453599
1.011582155
1.011551201
1.011512441
1.011451877
1.011508627
1.011666297
1.011862667
1.011965839
1.011931035
1.011834488
1.011685171
1.011555741
1.011526847
1.011598607
1.011746033
1.011780689
1.011727834
1.011687836
1.01169533
1.011829268
1.011934196
1.011923828
1.011841029
1.011826665
1.011830764
1.01153323
1.011466683
1.011565213
1.01168452
1.011711672
1.0114936
1.011485055
1.011486673
1.011601124
1.011692384
1.01161469
1.011578695
1.011641391
1.011755826
1.011935146
1.01204435
1.012059872
1.012003684
1.011885612
1.011768255
1.011759722
1.01189044
1.01197883
1.012013859
1.011929039
1.011835608
1.011838354
1.011922417
1.012031871
1.012046208
1.01196704
1.011909121
1.011933735
1.011947435
1.011599549
1.01180151
1.011967183
1.012053415
1.011958097
1.011699971
1.011577748
1.01160994
1.011597956
1.011616079
1.011681715
1.01174373
1.011899995
1.012004055
1.012078254
1.012091222
1.012059841
1.011998187
1.011902793
1.01187829
1.012011174
1.012167067
1.01213546
1.012017795
1.011918191
1.011866278
1.011928108
1.012055839
1.012081277
1.012011606
1.011914825
1.011905297
1.011954927
1.011961078
1.011969892
1.012253505
1.012402213
1.01227899
1.012047748
1.011880216
1.011723146
1.01168628
1.011605597
1.011584509
1.011768351
1.011977043
1.012114033
1.01214545
1.012079862
1.012073601
1.012039448
1.011978324
1.011946537
1.012040803
1.012223502
1.012264778
1.012137842
1.011946017
1.011879329
1.011904618
1.01200093
1.012089416
1.012008718
1.011893212
1.011843086
1.011891716
1.011957921
1.011934815
1.012424742
1.012545792
1.012587231
1.012291695
1.011998358
1.011909546
1.011825936
1.011758488
1.011798784
1.011896771
1.01201171
1.012196007
1.012263731
1.012221732
1.012093063
1.01210166
1.012084998
1.01204052
1.012060903
1.012227797
1.012342643
1.012280987
1.012116872
1.011972652
1.011936382
1.012026651
1.012080877
1.012070471
1.011923895
1.011839519
1.011910551
1.012004797
1.012033693
1.011966703
1.012609258
1.012663724
1.012450546
1.012239061
1.011977589
1.011911382
1.011922059
1.012047937
1.012247464
1.012411914
1.012474126
1.012462796
1.012397563
1.01232302
1.012250929
1.012245399
1.01221744
1.012212418
1.012305669
1.012439876
1.012466766
1.012350624
1.012215266
1.012198327
1.012186435
1.012233411
1.012192833
1.012060377
1.011982523
1.012071689
1.012251986
1.012291971
1.012199459
1.012131331
1.012710401
1.012530203
1.012144828
1.012089517
1.01205844
1.012175055
1.012405407
1.012623123
1.012625509
1.012663944
1.012859902
1.012766121
1.012610102
1.012470846
1.012542627
1.012553732
1.012469642
1.012507901
1.012703508
1.012749601
1.012719468
1.012585164
1.01249851
1.012494203
1.012541948
1.012485646
1.012330996
1.012152703
1.012190392
1.012411543
1.012571214
1.01256619
1.012420128
1.012414382
1.012484583
1.012195959
1.011922016
1.01197041
1.012193034
1.012601904
1.01294701
1.01287246
1.012740698
1.01268154
1.012814308
1.012777432
1.012727364
1.012661856
1.012746641
1.012707829
1.012707835
1.01281851
1.012967097
1.013012161
1.012978403
1.012876432
1.012795403
1.012687391
1.012680503
1.012520245
1.012377235
1.012344674
1.012461816
1.012550698
1.012586063
1.012630333
1.012682634
1.012765019
1.012160799
1.01202185
1.012101379
1.012304345
1.012697319
1.012895109
1.012919545
1.012742509
1.012811821
1.012756181
1.012597515
1.012578094
1.012616061
1.012728629
1.012702841
1.012707197
1.012799859
1.012961765
1.012979229
1.013067763
1.012970955
1.012915418
1.01284774
1.012743438
1.012598696
1.012442029
1.012363219
1.012480589
1.012555108
1.012569959
1.012572735
1.012650585
1.011995512
1.012085949
1.012476173
1.012932046
1.013114694
1.01299648
)
;

boundaryField
{
    inlet
    {
        type            fixedValue;
        value           nonuniform 0();
    }
    outlet
    {
        type            inletOutlet;
        inletValue      uniform 1;
        value           nonuniform List<scalar> 
61
(
1.088252665
1.088224321
1.088049981
1.087521775
1.086498077
1.084791949
1.082332272
1.079062892
1.074961666
1.070046447
1.064369084
1.058105544
1.051383878
1.04448138
1.037670658
1.031123705
1.024972149
1.019305086
1.014222178
1.009808748
1.0061673
1.003297835
1.001119572
0.9995984626
0.9986382283
0.9980259041
0.9976423341
0.9974261828
0.9973060194
0.9972395166
0.9971774673
0.9972424474
0.9974279329
0.9976707903
0.9979685661
0.9983427799
0.998826413
0.9996655735
1.000739562
1.001986666
1.003310502
1.004549659
1.005679887
1.006785201
1.007780287
1.008695565
1.009430736
1.009958992
1.010392321
1.010783913
1.011177203
1.011565646
1.011826307
1.011924208
1.011934412
1.011921405
1.011979572
1.01216934
1.012470016
1.012796351
1.08819829
)
;
    }
    bottom
    {
        type            slip;
    }
    top
    {
        type            slip;
    }
    obstacle
    {
        type            zeroGradient;
    }
    defaultFaces
    {
        type            empty;
    }
    procBoundary23to17
    {
        type            processor;
        value           nonuniform List<scalar> 
39
(
1.089183396
1.089102355
1.088998174
1.088828083
1.088613022
1.0884351
1.088356304
1.088336599
1.088533785
1.088769724
1.088744173
1.088613025
1.088435612
1.088241024
1.088112542
1.090400976
1.090254265
1.089965965
1.08979957
1.089788369
1.089790673
1.08972935
1.089748638
1.089739666
1.089736935
1.089713171
1.089748545
1.089768775
1.089607925
1.089374142
1.089345194
1.089271994
1.089296517
1.089289015
1.089168316
1.089150536
1.089210149
1.089281516
1.089281516
)
;
    }
    procBoundary23to22
    {
        type            processor;
        value           nonuniform List<scalar> 
63
(
1.09045923
1.090401934
1.090151127
1.089445962
1.08805881
1.085889025
1.082794643
1.078945847
1.074302664
1.06900115
1.063160002
1.056908458
1.050779487
1.050779487
1.043998509
1.037223814
1.030751217
1.024654587
1.019015218
1.013904812
1.009295391
1.00521398
1.001886643
0.9994189603
0.9978236618
0.9970123326
0.9971025321
0.9971025321
0.9968566505
0.9963711725
0.9957438964
0.9953187501