/*--------------------------------*- C++ -*----------------------------------*\
  =========                 |
  \\      /  F ield         | OpenFOAM: The Open Source CFD Toolbox
   \\    /   O peration     | Website:  https://openfoam.org
    \\  /    A nd           | Version:  7
     \\/     M anipulation  |
\*---------------------------------------------------------------------------*/
FoamFile
{
    version     2.0;
    format      ascii;
    class       volVectorField;
    location    "3.7";
    object      U;
}
// * * * * * * * * * * * * * * * * * * * * * * * * * * * * * * * * * * * * * //

dimensions      [0 1 -1 0 0 0 0];

internalField   nonuniform List<vector> 
22
(
(2.999995492 -8.125495369e-06 0)
(2.999982349 -3.098588098e-05 0)
(2.999925178 -0.0001480980669 0)
(2.999809757 -0.000377594319 0)
(2.999341876 -0.001284869144 0)
(2.998498417 -0.00316732113 0)
(2.996993559 -0.006736786694 0)
(2.994758322 -0.01254592185 0)
(2.991598308 -0.02130956611 0)
(2.987486441 -0.03335054838 0)
(2.983709666 -0.04710130862 0)
(2.98244473 -0.03478946513 0)
(2.973587311 -0.05658852363 0)
(2.963216856 -0.08278486152 0)
(2.953342542 -0.1111198639 0)
(2.940836701 -0.1447038987 0)
(2.931972983 -0.1720487674 0)
(2.914078034 -0.2224952098 0)
(2.917043485 -0.07268861068 0)
(2.904773383 -0.09799996463 0)
(2.900471506 -0.1075295015 0)
(2.887004478 -0.137262301 0)
)
;

boundaryField
{
    inlet
    {
        type            fixedValue;
        value           nonuniform 0();
    }
    outlet
    {
        type            inletOutlet;
        inletValue      nonuniform 0();
        value           nonuniform 0();
    }
    bottom
    {
        type            slip;
    }
    top
    {
        type            slip;
    }
    obstacle
    {
        type            slip;
    }
    defaultFaces
    {
        type            empty;
    }
    procBoundary14to7
    {
        type            processor;
        value           uniform (2.99999956 -5.961050232e-07 0);
    }
    procBoundary14to8
    {
        type            processor;
        value           nonuniform List<vector> 8((3.000000015 1.291226455e-08 0) (2.999999987 -3.263065743e-08 0) (2.999999862 -1.640944181e-07 0) (2.999998956 -1.729767626e-06 0) (2.99944435 -0.001204401148 0) (2.99944435 -0.001204401148 0) (2.99887453 -0.002553076697 0) (2.997978284 -0.004628290498 0));
    }
    procBoundary14to9
    {
        type            processor;
        value           nonuniform List<vector> 3((2.948111686 -0.1226560454 0) (2.917981085 -0.2056443561 0) (2.947091162 -0.06570967699 0));
    }
    procBoundary14to13
    {
        type            processor;
        value           nonuniform List<vector> 2((2.999781343 -0.0004004280569 0) (2.989855404 -0.01881328728 0));
    }
    procBoundary14to20
    {
        type            processor;
        value           nonuniform List<vector> 4((2.946388575 -0.03522019153 0) (2.936932928 -0.03938574734 0) (2.923741019 -0.06514894864 0) (2.923741019 -0.06514894864 0));
    }
}


// ************************************************************************* //
