/*--------------------------------*- C++ -*----------------------------------*\
  =========                 |
  \\      /  F ield         | OpenFOAM: The Open Source CFD Toolbox
   \\    /   O peration     | Website:  https://openfoam.org
    \\  /    A nd           | Version:  7
     \\/     M anipulation  |
\*---------------------------------------------------------------------------*/
FoamFile
{
    version     2.0;
    format      ascii;
    class       volScalarField;
    location    "3.7";
    object      p;
}
// * * * * * * * * * * * * * * * * * * * * * * * * * * * * * * * * * * * * * //

dimensions      [1 -1 -2 0 0 0 0];

internalField   nonuniform List<scalar> 
555
(
1.001892897
1.003261185
1.003657962
1.00348166
1.002064482
0.9972001289
0.9936793236
0.9921945395
0.9916345431
0.991622101
0.9934554476
0.9956036339
0.9977751069
0.9982081142
0.9979139544
0.9985021076
1.001494974
1.000400952
1.001197546
1.002271857
1.002518376
1.002032728
1.000347906
0.9968719505
0.993486315
0.9913635545
0.9908528069
0.992097502
0.9944335826
0.9967862157
0.9989556961
1.000318313
1.00105675
1.000983499
0.9990892094
0.9987938024
0.9994158376
1.000234592
1.000979535
1.001211489
1.000637808
0.9990180585
0.9964059623
0.9930878312
0.9917221802
0.9939773256
0.9981254395
1.000709162
1.001722792
1.001007091
0.9994607564
0.997434448
0.9968189292
0.997051943
0.9982514958
0.9995588235
1.00091041
1.001958819
1.002284289
1.001587497
0.9999367932
0.9966016828
0.9967997632
0.9994464276
1.001157825
1.001154042
1.000068039
0.9982501075
0.9968472993
0.9955862539
0.9954014173
0.9962751508
0.9986570389
1.000492584
1.00224776
1.003120168
1.004292966
1.004675526
1.002985448
1.000238049
0.9996394602
1.000425599
1.000852077
0.9998512979
0.9972474741
0.9975766228
0.9963243998
0.9952568061
0.995626684
0.9980480764
0.9999279371
1.001539005
1.002835216
1.004682293
1.006147114
1.00634801
1.003535813
1.000587914
1.000225694
1.000270188
0.9997344015
0.9973908429
0.9985215385
0.9984824992
0.998040978
0.9977780985
0.9977141436
0.9991598619
1.000713646
1.002281146
1.00360662
1.004963025
1.0050184
1.00423927
1.001160383
0.9996232599
0.9992753444
0.9990293224
0.9981918209
0.9990834152
0.9998350326
0.9999178362
0.9995454986
0.9982493215
0.9982121523
0.9983234284
0.99917759
1.000596318
1.002246152
1.003073052
1.00283943
1.000955695
0.9984462462
0.9976095796
0.9977157225
0.9984575214
0.9996086468
1.000161206
1.000216015
0.9997451588
0.9986110627
0.9969821864
0.9962428636
0.9965267535
0.9977607421
0.9993010818
1.000437911
1.000371916
0.9990145881
0.9971563591
0.9961382134
0.9967457494
0.9988039404
0.9980833139
0.9989180012
0.9992685142
0.9996760567
0.9995173192
0.9984592653
0.99660851
0.995580631
0.9951271304
0.9954548872
0.996378743
0.9976828822
0.9978623399
0.9971586714
0.9962613144
0.9959657471
0.9968907901
0.9990806259
0.9964956511
0.9970314593
0.9979942389
0.9992040997
0.9995495569
0.9985685718
0.9969047615
0.9957632425
0.9948707152
0.9941327614
0.9942354147
0.9956487048
0.996513955
0.9969395312
0.9968357585
0.9971473436
0.9979512504
0.9995599729
0.9952634971
0.9952012555
0.9967021131
0.9984279085
0.9989824452
0.9986018443
0.99781154
0.9965698161
0.9953267383
0.9945156453
0.9938230397
0.994656925
0.9962867088
0.9979742199
0.9996661524
1.000549054
0.9993130943
0.9986728217
0.9964016794
0.9952678128
0.996255596
0.9978375728
0.9984069919
0.9983783929
0.9983413949
0.9977033377
0.9969289719
0.9962343481
0.9956412536
0.9969399024
0.9992436985
1.00205813
1.004152326
1.004262762
1.002020703
0.998298653
0.9988758715
0.9977036963
0.9976611736
0.9981214863
0.9983253158
0.998315232
0.9985765282
0.998825446
0.9989802755
0.9988999821
0.9992567768
1.00031638
1.002714657
1.005252129
1.005627634
1.004447247
1.003369323
0.9994974272
1.001387147
1.000996959
1.000093658
0.9987377216
0.9984858114
0.9985235969
0.9990505759
0.9997154076
1.000342804
1.000942677
1.002367228
1.003247241
1.004115013
1.0045012
1.004307854
1.002998343
1.002261755
1.000388722
1.002929348
1.002884994
1.001461557
0.9990118648
0.9981825536
0.998324438
0.999235731
0.9999982785
1.001287963
1.002517615
1.003256958
1.002919094
1.002899905
1.002766178
1.002230112
1.001075635
1.000610956
0.9995770563
1.003516394
1.002696797
1.000939091
0.9989443917
0.9978897909
0.9981939915
0.9993648617
1.000308871
1.001951433
1.002515949
1.002482759
1.001690749
1.000737089
0.9993982764
0.9987314268
0.9980576503
0.9977384039
0.9979727641
1.001444207
1.001479066
0.999978176
0.9985586447
0.9979897624
0.9984008938
0.9998640068
1.001088019
1.001598285
1.001751005
1.001111841
0.9992368989
0.9977081959
0.9960763954
0.9948062436
0.9943933074
0.9947766997
0.996487906
0.9974985529
0.9975005411
0.9983448071
0.9981979139
0.998208497
0.9995024357
0.9993180898
0.999516726
0.9998483414
0.9998178673
0.9990186854
0.9970907322
0.9949819731
0.9937241195
0.993062772
0.993122228
0.9937765072
0.9966645096
0.9953186787
0.9956264466
0.9967039781
0.9990456702
0.9994566971
0.9985806701
0.9982897219
0.9981418468
0.9979144514
0.9978936886
0.9969500136
0.9956857561
0.9941374322
0.9935150772
0.993282207
0.9936138689
0.994682028
0.9978554388
0.9950680652
0.9957104108
0.9969191246
0.9981149301
0.9986301206
0.9980452017
0.99750102
0.9970577901
0.9966360591
0.9965526438
0.9961670716
0.995875024
0.9953105641
0.9955968301
0.997179266
0.9986528343
0.9988996406
0.998441045
0.9963468875
0.9970885791
0.9977295808
0.9982995526
0.9982683748
0.9975126169
0.9966386226
0.9959392272
0.9959273496
0.9966417732
0.9968234258
0.9977862821
0.9987836448
1.000483717
1.002320136
1.003206727
1.002330063
0.9995104912
0.9987391366
0.9990455628
0.9990699543
0.9990882377
0.9987053811
0.9981944853
0.9969673907
0.995721436
0.9953783876
0.9964607501
0.9975795272
0.9992708269
1.001193755
1.003422392
1.005719947
1.006213774
1.005650918
1.00451068
1.001590188
1.001334377
1.001311228
1.000624754
0.9999424494
0.9992854499
0.9981665894
0.9959609763
0.9957459235
0.9966693688
0.997947448
0.9993747765
1.002496439
1.005619358
1.00687444
1.007376252
1.007213988
1.006284696
1.005002981
1.001793455
1.002747365
1.002256846
1.00134692
1.000314499
0.9986254667
0.9970116511
0.9972361036
0.9976566205
0.9984936141
0.9998672319
1.001523138
1.004764315
1.007032012
1.007499842
1.007557578
1.007063024
1.005853911
1.004231113
1.00081223
1.003376758
1.002317555
1.001052068
0.9992198955
0.9978234257
0.9975028648
0.9978569222
0.9991800928
1.000570526
1.00168044
1.002758825
1.004720828
1.006718545
1.006484421
1.005328302
1.00408837
1.002671088
1.001274559
0.9989828789
1.001232558
1.000402929
0.9996886157
0.9985639984
0.9975668483
0.9978266917
0.9985753266
1.000661592
1.001797495
1.002324708
1.002820271
1.002950459
1.003287251
1.002915128
1.001222005
0.9995045339
0.9982506276
0.9974672488
0.9964574154
0.9978069422
0.9977306666
0.99777099
0.9980346964
0.9978703592
0.9980059873
0.9998591614
1.000036887
1.000936182
1.00120649
1.001495933
1.000469314
0.9992012695
0.9983619047
0.9966514563
0.9951403497
0.9943072136
0.9940252013
0.9941876955
0.9962329023
0.9966552029
0.9966624785
0.9969500714
0.9974353939
0.9988010224
0.9987695929
0.9987759255
0.9988697451
0.9989452243
0.9984147948
0.9966660825
0.9951683199
0.9941686783
0.9928651707
0.9920401373
0.9919555508
0.9923683092
0.9934375868
0.9964270587
0.9968874746
0.9969240632
0.9971368883
0.9972097485
0.9973651231
0.9978105057
0.9973021423
0.9966671279
0.9958782417
0.9948262676
0.9936475515
0.9929366329
0.9926488903
0.9922142851
0.9917584714
0.9918764091
0.9924535329
0.9936676182
0.9974029972
0.997659322
0.9979065147
0.997934854
0.9978148779
0.9971623734
0.9966241472
0.9952714502
0.9941421186
0.9941979375
0.9942198381
0.9935137177
0.9930102487
0.9927826754
0.9926143335
0.9926472951
)
;

boundaryField
{
    inlet
    {
        type            fixedValue;
        value           nonuniform 0();
    }
    outlet
    {
        type            zeroGradient;
    }
    bottom
    {
        type            slip;
    }
    top
    {
        type            slip;
    }
    obstacle
    {
        type            zeroGradient;
    }
    defaultFaces
    {
        type            empty;
    }
    procBoundary17to11
    {
        type            processor;
        value           nonuniform List<scalar> 
17
(
1.001288654
1.002955931
1.003822307
1.003426618
0.9999901232
0.9967478353
0.9951804087
0.9944665865
0.9943857183
0.9947115824
0.9966694554
0.9979894858
0.9987528222
0.9976356959
0.9962701937
0.9966088428
0.9995242182
)
;
    }
    procBoundary17to16
    {
        type            processor;
        value           nonuniform List<scalar> 
32
(
1.000130806
1.000736095
1.000184906
0.9992014408
0.9986994874
0.9984839985
0.9984270354
0.9984366251
0.9985957417
0.9985957417
0.9973744796
0.9966605008
0.99622172
0.997441514
0.9996228369
1.001640215
1.002731533
1.003543861
1.00140821
0.9981521962
0.9963349989
0.9951161173
0.9960241876
0.9960241876
0.9980163025
1.000414608
1.002181113
1.003057458
1.001239808
0.9982981537
0.9960191963
0.9957054152
)
;
    }
    procBoundary17to22
    {
        type            processor;
        value           uniform 0.9959124935;
    }
    procBoundary17to23
    {
        type            processor;
        value           nonuniform List<scalar> 
20
(
0.993296022
0.9943761617
0.9956544188
0.9978331774
0.9980937197
0.9984951533
0.9983263983
0.9975948261
0.996503954
0.9945918254
0.9934171458
0.9936123237
0.9942312996
0.9946195734
0.9952978151
0.9954414963
0.9955798216
0.9959227576
0.993296022
0.996293008
)
;
    }
}


// ************************************************************************* //
