/*--------------------------------*- C++ -*----------------------------------*\
  =========                 |
  \\      /  F ield         | OpenFOAM: The Open Source CFD Toolbox
   \\    /   O peration     | Website:  https://openfoam.org
    \\  /    A nd           | Version:  7
     \\/     M anipulation  |
\*---------------------------------------------------------------------------*/
FoamFile
{
    version     2.0;
    format      ascii;
    class       volScalarField;
    location    "0.2";
    object      T;
}
// * * * * * * * * * * * * * * * * * * * * * * * * * * * * * * * * * * * * * //

dimensions      [0 0 0 1 0 0 0];

internalField   nonuniform List<scalar> 
800
(
1
1
1
1
1
1
1
1
1
1
1
1
1
1
1
1
1
1
1
1
1
1
1
1
1
1
1
1
1
1
1
1
1
1
1
1
1
1
1
1
1
1
1
1
1
1
1
1
1
1
1
1
1
1
1
1
1
1
1
1
1
1
1
1
1
1
1
1
1
1
1
1
1
1
1
1
1
1
1
1
1
1
1
1
1
1
1
1
1
1
1
1
1
1
1
1
1
1
1
1
1
1
1
1
1
1
1
1
1
1
1
1
1
1
1
1
1
1
1
1
1
1
1
1
1
1
1
1
1
0.9999999995
1
1
1
1
1
0.9999999999
0.9999999999
0.9999999997
1
0.9999999986
1
1
1
0.9999999998
0.9999999998
0.9999999997
1.000000001
0.999999999
1.000000195
1.000000022
1
1
1
0.9999999993
1.000000009
1.000000094
1.000000851
1.000003249
1.000032364
1.000025386
1.000000001
1.000000022
1.000000424
1.000003299
1.000016459
1.00006132
1.00019337
1.000482833
1.001287145
1.001931064
1.000007157
1.000045439
1.000193432
1.00061857
1.001503589
1.003252253
1.006052634
1.01027445
1.0161236
1.023402202
1.00103847
1.0033212
1.007648918
1.013908856
1.021049731
1.030776027
1.039476231
1.049406133
1.058425004
1.073167576
1.015725204
1.033628772
1.052234054
1.069341446
1.085971636
1.099344319
1.112080973
1.123334729
1.131868353
1.142057323
0.9999999999
0.9999999998
0.9999999998
1
1.00000001
1.000000184
1.000000618
1.000000599
1.000000254
1.000000028
0.9999999999
1.000000001
1.00000002
1.000000285
1.000002691
1.000011845
1.000013471
1.000005632
1.000000886
1.000000044
1.000000006
1.000000775
1.000008773
1.000043024
1.000120667
1.000144875
1.000056498
1.00001125
1.000000957
0.9999999656
1.000002761
1.000105037
1.000532103
1.001053228
1.00111394
1.00045974
1.000056096
0.9999462439
0.9999600365
0.9999899752
1.000205113
1.002604867
1.006065921
1.005916811
1.002939237
0.9999423115
0.9984695467
0.9985263792
0.9991344597
0.9998267521
1.004052339
1.01651943
1.019570661
1.012156403
1.001897583
0.9920971044
0.9902584191
0.9921868529
0.996104518
0.9992503909
1.025375028
1.038578157
1.029244139
1.011949938
0.9884292322
0.9769497475
0.9789665388
0.9856747993
0.993129652
0.9985058678
1.061676632
1.052481034
1.027494556
0.9900196357
0.9698833245
0.9719242924
0.9773526484
0.9856511345
0.9925785571
0.9979520543
1.07115109
1.040057829
0.9857645542
0.9570374848
0.9632649464
0.9760853103
0.9889302711
0.9927908763
0.9940808156
0.9975014102
1.067479406
0.9682675618
0.9420579013
0.9642066173
0.9981080248
1.012876036
1.010103378
1.00147124
0.9967714178
0.9973997019
0.926577966
0.9225636774
0.9498802328
1.01413179
1.034133284
1.031136062
1.017188933
1.003937374
0.9975069366
0.9976580681
0.9161106554
0.9264070378
0.9695019304
1.029992041
1.037249206
1.03252321
1.016091631
1.003052102
0.9974024439
0.99775773
0.920480442
0.9325531874
0.9845051465
1.039592623
1.039807884
1.033427224
1.015231783
1.002226503
0.9973226671
0.9978364283
0.9228162759
0.9386546079
1.002292158
1.045830623
1.041216483
1.03294287
1.013836982
1.001561515
0.9972689872
0.9979460482
0.9255251958
0.9469842979
1.0184545
1.04839262
1.041657022
1.032116659
1.012692122
1.00104221
0.9973211321
0.9980814034
0.9283244381
0.9574516764
1.031218905
1.049172287
1.041698678
1.031114071
1.011768917
1.000785571
0.9975016806
0.9982061964
0.9325758031
0.9699531313
1.041863505
1.049114241
1.04070989
1.030176729
1.011003109
1.000839424
0.9978722393
0.9983598885
0.940783455
0.9852836744
1.049309765
1.049767987
1.039133236
1.02884905
1.010272019
1.000966784
0.9982552492
0.9985334814
0.9499088812
1.001578603
1.052246657
1.050432659
1.037682008
1.027808468
1.009664327
1.001350912
0.998631776
0.9986978655
0.9468872709
1.023465331
1.059273641
1.050787373
1.036175632
1.026512204
1.008694514
1.001899432
0.9988407711
0.9988015132
0.9472778527
1.027680782
1.062296238
1.050944125
1.036199055
1.026517525
1.008741023
1.001402457
0.9988841561
0.9988204023
0.9496610136
1.005609518
1.0560165
1.050289733
1.037478889
1.027950443
1.009866056
1.001468809
0.9986054623
0.9987022889
0.9409493654
0.9864987781
1.050068372
1.049142763
1.039057052
1.029152607
1.010628514
1.001039466
0.9983161504
0.9985400043
0.9325992884
0.9690274912
1.039177289
1.04863095
1.040312564
1.030507197
1.011313135
1.000857413
0.997868801
0.9983569528
0.9279665607
0.9549413428
1.023718142
1.048209672
1.041148182
1.031510812
1.011930589
1.000745911
0.9974979097
0.9982044539
0.9250806295
0.9458073798
1.009299207
1.04836495
1.042130895
1.032474621
1.012700633
1.000950546
0.9972963601
0.9980836442
0.9226956934
0.9375002196
0.9964605782
1.046688857
1.0412414
1.032780404
1.013620568
1.001452419
0.9972371197
0.9979546422
0.9202758987
0.9309442483
0.9812854219
1.042021091
1.039526609
1.03273151
1.014830409
1.00214246
0.9973018151
0.9978463937
0.9157779183
0.9259314065
0.9666674351
1.032555345
1.036992192
1.03187284
1.015890398
1.003083663
0.9973979586
0.997757914
0.9263383577
0.9217087538
0.9467038296
1.014691838
1.03411644
1.03079534
1.017119066
1.003959753
0.9975437101
0.997667719
1.067460135
0.9679943595
0.9433077861
0.9640977828
0.9978173118
1.012803852
1.010059788
1.00150789
0.9967921695
0.9973995331
1.071150686
1.040111991
0.9860674781
0.9569433156
0.9632437088
0.9761162017
0.9889178212
0.9927815156
0.9940731213
0.9974975637
1.061676298
1.052482837
1.027525523
0.990044493
0.9699201833
0.9719719415
0.9773757768
0.9856507473
0.9925722191
0.9979483897
1.02537575
1.038578425
1.029244587
1.011965049
0.9884508042
0.9769581648
0.9789689001
0.9856709591
0.993125552
0.9985047947
1.004053111
1.01651865
1.019571297
1.01216016
1.001902746
0.992097956
0.9902584473
0.992186598
0.9961044927
0.999250689
1.000205201
1.002604467
1.006066775
1.005917166
1.002939661
0.9999427706
0.9984698968
0.9985268853
0.9991351452
0.999827069
1.000002763
1.000105012
1.000532205
1.00105338
1.001114287
1.00045989
1.00005615
0.9999463235
0.9999601267
0.9999900145
1.000000006
1.000000775
1.000008775
1.000043042
1.000120711
1.000144916
1.000056522
1.000011255
1.000000959
0.9999999661
0.9999999999
1.000000001
1.00000002
1.000000286
1.000002691
1.000011847
1.000013471
1.000005633
1.000000887
1.000000044
0.9999999999
0.9999999998
0.9999999998
1
1.00000001
1.000000184
1.000000618
1.000000599
1.000000254
1.000000028
1.015725204
1.033628773
1.052234052
1.069341447
1.085971635
1.099344319
1.112080973
1.12333473
1.131868353
1.142057322
1.00103847
1.003321199
1.007648919
1.013908855
1.021049731
1.030776029
1.039476228
1.049406138
1.058425001
1.073167572
1.000007157
1.000045439
1.000193432
1.00061857
1.00150359
1.003252251
1.006052637
1.010274448
1.016123593
1.023402227
1.000000001
1.000000022
1.000000424
1.000003299
1.000016459
1.00006132
1.000193371
1.000482831
1.001287154
1.001931063
1
1
1
0.9999999993
1.000000009
1.000000094
1.000000851
1.000003249
1.000032365
1.000025386
1
1
1
0.9999999998
0.9999999998
0.9999999997
1.000000001
0.999999999
1.000000195
1.000000022
1
1
1
1
1
0.9999999999
0.9999999999
0.9999999997
1
0.9999999986
1
1
1
1
1
1
1
1
1
0.9999999995
1
1
1
1
1
1
1
1
1
1
1
1
1
1
1
1
1
1
1
1
1
1
1
1
1
1
1
1
1
1
1
1
1
1
1
1
1
1
1
1
1
1
1
1
1
1
1
1
1
1
1
1
1
1
1
1
1
1
1
1
1
1
1
1
1
1
1
1
1
1
1
1
1
1
1
1
1
1
1
1
1
1
1
1
1
1
1
1
1
1
1
1
1
1
1
1
1
1
1
1
1
1
1
1
1
1
1
1
1
1
1
1
1
1
1
1
1
1
1
1
)
;

boundaryField
{
    inlet
    {
        type            fixedValue;
        value           uniform 1;
    }
    outlet
    {
        type            inletOutlet;
        inletValue      uniform 1;
        value           nonuniform List<scalar> 
40
(
0.997436152
0.9975540608
0.9980103258
0.9985619968
0.9992879065
0.9998387663
0.9999909444
0.999999972
1.000000041
1.000000026
0.9988368192
0.998720993
0.9985564772
0.9983756858
0.9982250813
0.9981093715
0.9979856637
0.9978768188
0.9977873223
0.9976996047
0.9976886895
0.9977842758
0.9978678122
0.9979770979
0.9981089503
0.9982282842
0.9983771793
0.9985515093
0.9987150612
0.998817117
1.000000026
1.000000041
0.9999999716
0.9999909079
0.9998384606
0.9992875975
0.9985630019
0.9980138965
0.9975579794
0.997436794
)
;
    }
    bottom
    {
        type            slip;
    }
    top
    {
        type            slip;
    }
    obstacle
    {
        type            zeroGradient;
    }
    defaultFaces
    {
        type            empty;
    }
}


// ************************************************************************* //
