/*--------------------------------*- C++ -*----------------------------------*\
  =========                 |
  \\      /  F ield         | OpenFOAM: The Open Source CFD Toolbox
   \\    /   O peration     | Website:  https://openfoam.org
    \\  /    A nd           | Version:  7
     \\/     M anipulation  |
\*---------------------------------------------------------------------------*/
FoamFile
{
    version     2.0;
    format      ascii;
    class       volScalarField;
    location    "0.5";
    object      p;
}
// * * * * * * * * * * * * * * * * * * * * * * * * * * * * * * * * * * * * * //

dimensions      [1 -1 -2 0 0 0 0];

internalField   nonuniform List<scalar> 
138
(
1
1
1
1
1
1
1
1
1
1
1
1
1
1
1
1
1
1
1
1
1
1
1
1
1
1
1
1
1
1
1
1
1
1
1
1
1
1
1
1
1
1
1
1
1
1
1
1
1
1
1
1
1
1
1
1
1
1
1
1
1
1
1
1
1
1
1
1
1
1
1
1
1
1
1
1
1
1
1
1
1
1
1
1
1
1
1
1
1
1
1
1
1
1
1
1
1
1
0.9999999998
1
1
1
1
1
1
1
1
1
1
1
1
1
1
1
1
0.9999999821
1
1
1
1
1
1
1
1
1
1
1
1
1
1
0.9999999999
1.000000005
0.9999996183
1.000000003
1.000000022
1.000000125
1.000002734
0.9999982436
)
;

boundaryField
{
    inlet
    {
        type            fixedValue;
        value           nonuniform 0();
    }
    outlet
    {
        type            zeroGradient;
    }
    bottom
    {
        type            slip;
    }
    top
    {
        type            slip;
    }
    obstacle
    {
        type            zeroGradient;
    }
    defaultFaces
    {
        type            empty;
    }
    procBoundary8to1
    {
        type            processor;
        value           uniform 1;
    }
    procBoundary8to2
    {
        type            processor;
        value           nonuniform List<scalar> 
18
(
1
1
1
1
1
1
1
1
1
1
1
1
1
1
1
1
1
1
)
;
    }
    procBoundary8to3
    {
        type            processor;
        value           nonuniform List<scalar> 7(1 1 1 1 1 1.000000114 1.000013384);
    }
    procBoundary8to7
    {
        type            processor;
        value           nonuniform List<scalar> 7(1 1 1 1 1 1 1);
    }
    procBoundary8to9
    {
        type            processor;
        value           uniform 1.000590513;
    }
    procBoundary8to14
    {
        type            processor;
        value           nonuniform List<scalar> 
18
(
1
1
1
1
1
1
1
1
1
1
1
1
1
1.000005578
1.000020955
1.000072359
1.000345249
1.000374255
)
;
    }
}


// ************************************************************************* //
