/*--------------------------------*- C++ -*----------------------------------*\
  =========                 |
  \\      /  F ield         | OpenFOAM: The Open Source CFD Toolbox
   \\    /   O peration     | Website:  https://openfoam.org
    \\  /    A nd           | Version:  7
     \\/     M anipulation  |
\*---------------------------------------------------------------------------*/
FoamFile
{
    version     2.0;
    format      ascii;
    class       volScalarField;
    location    "1.7";
    object      p;
}
// * * * * * * * * * * * * * * * * * * * * * * * * * * * * * * * * * * * * * //

dimensions      [1 -1 -2 0 0 0 0];

internalField   nonuniform List<scalar> 
138
(
1
1
1
1
1
1
1
1
1
1
1
1
1
1
1
1
1
1
1
1
1
1
1
1
1
1
1
1
1
1
1
1
1
1
1
1
1.000000007
1
1
1
1
1
1
1
1.000000006
1.000000314
1
1
1
1
1
1
1.000000003
1.000000221
1.000008666
1
1
1
1
1
1.000000003
1.000000153
1.000005812
1.000152124
1
1
1
1
1.000000001
1.000000132
1.000004677
1.000102953
1.00171794
1
1
1
1.000000001
1.000000058
1.00000387
1.000093602
1.001231645
1.012028402
1
1
1
1.000000049
1.00000202
1.000078169
1.001213588
1.009507297
1.054010753
1
1
1.000000014
1.000001951
1.000048252
1.00106146
1.009756646
1.047973536
1.146444905
1
1.000000009
1.000000638
1.000049298
1.000730523
1.009351019
1.04738347
1.149598272
1.265027372
1
1.000000457
1.000018631
1.000773539
1.006858203
1.04942684
1.145043979
1.279924571
1.335888568
1
1.000014049
1.000348275
1.007277844
1.040449166
1.148960493
1.285444536
1.368389059
1.365795148
1.000000115
1.00028237
1.004087228
1.041351321
1.145414853
1.271348971
1.369437023
1.387121957
1.378670832
1.000013464
1.00353133
)
;

boundaryField
{
    inlet
    {
        type            fixedValue;
        value           nonuniform 0();
    }
    outlet
    {
        type            zeroGradient;
    }
    bottom
    {
        type            slip;
    }
    top
    {
        type            slip;
    }
    obstacle
    {
        type            zeroGradient;
    }
    defaultFaces
    {
        type            empty;
    }
    procBoundary3to2
    {
        type            processor;
        value           nonuniform List<scalar> 10(1 1 1 1 1 1 1 1 1 1);
    }
    procBoundary3to4
    {
        type            processor;
        value           nonuniform List<scalar> 
15
(
1
1
1.00000001
1.00000033
1.000007925
1.000131042
1.001459737
1.010676852
1.051044049
1.151010378
1.286521307
1.358375101
1.366720491
1.363794961
1.332058408
)
;
    }
    procBoundary3to8
    {
        type            processor;
        value           nonuniform List<scalar> 7(1 1 1 1 0.9999999998 0.9999999829 0.9999996261);
    }
    procBoundary3to9
    {
        type            processor;
        value           nonuniform List<scalar> 10(1.030082864 1.136820618 1.313110795 1.361769114 1.382191613 1.381695866 1.340603571 1.000591382 1.030082864 1.027061777);
    }
}


// ************************************************************************* //
