/*--------------------------------*- C++ -*----------------------------------*\
  =========                 |
  \\      /  F ield         | OpenFOAM: The Open Source CFD Toolbox
   \\    /   O peration     | Website:  https://openfoam.org
    \\  /    A nd           | Version:  7
     \\/     M anipulation  |
\*---------------------------------------------------------------------------*/
FoamFile
{
    version     2.0;
    format      ascii;
    class       volScalarField;
    location    "0.3";
    object      p;
}
// * * * * * * * * * * * * * * * * * * * * * * * * * * * * * * * * * * * * * //

dimensions      [1 -1 -2 0 0 0 0];

internalField   nonuniform List<scalar> 
22
(
0.8196436542
0.666418288
0.7143212406
0.8522714899
0.6749570608
0.7429964035
0.8884070729
0.683174521
0.7793599852
0.9320317032
0.6921885071
0.8192474597
0.9700216532
0.7029737576
0.8671907779
1.000413237
0.7163729106
0.9140148499
0.7315746049
0.946848988
0.7301712726
0.9996559312
)
;

boundaryField
{
    inlet
    {
        type            fixedValue;
        value           nonuniform 0();
    }
    outlet
    {
        type            zeroGradient;
    }
    bottom
    {
        type            slip;
    }
    top
    {
        type            slip;
    }
    obstacle
    {
        type            zeroGradient;
    }
    defaultFaces
    {
        type            empty;
    }
    procBoundary15to9
    {
        type            processor;
        value           nonuniform List<scalar> 4(0.767274665 0.6516683651 0.6936070885 0.6936070885);
    }
    procBoundary15to10
    {
        type            processor;
        value           nonuniform List<scalar> 3(0.9543115828 0.9729633682 0.9875702295);
    }
    procBoundary15to16
    {
        type            processor;
        value           nonuniform List<scalar> 7(0.9990403117 1.002212221 1.005637594 1.016604641 1.016604641 1.023097808 1.019412991);
    }
    procBoundary15to21
    {
        type            processor;
        value           nonuniform List<scalar> 2(0.7275663449 1.015091753);
    }
}


// ************************************************************************* //
