/*--------------------------------*- C++ -*----------------------------------*\
  =========                 |
  \\      /  F ield         | OpenFOAM: The Open Source CFD Toolbox
   \\    /   O peration     | Website:  https://openfoam.org
    \\  /    A nd           | Version:  7
     \\/     M anipulation  |
\*---------------------------------------------------------------------------*/
FoamFile
{
    version     2.0;
    format      ascii;
    class       volVectorField;
    location    "0.1";
    object      U;
}
// * * * * * * * * * * * * * * * * * * * * * * * * * * * * * * * * * * * * * //

dimensions      [0 1 -1 0 0 0 0];

internalField   nonuniform List<vector> 
555
(
(3 -4.369838707e-16 0)
(3 -2.670848364e-15 0)
(3 -4.901832708e-15 0)
(3 -5.779298593e-15 0)
(3 -5.887203899e-15 0)
(3 -5.901724482e-15 0)
(3 -6.235063369e-15 0)
(3 -4.801841287e-15 0)
(3 -3.575219644e-15 0)
(3 -3.036677589e-15 0)
(3 -4.773947253e-15 0)
(3 -4.608326888e-15 0)
(3 -5.645274157e-15 0)
(3 -5.591584028e-15 0)
(3 -5.196326211e-15 0)
(3 -3.23421616e-15 0)
(3 -3.034458798e-15 0)
(3 -1.929224495e-15 0)
(3 -1.83058675e-15 0)
(3 5.035422212e-16 0)
(3 1.385216089e-15 0)
(3 1.368070528e-15 0)
(3 1.727765466e-15 0)
(3 7.999242222e-16 0)
(3 5.40371562e-16 0)
(3 -1.268161479e-15 0)
(3 -2.187473968e-15 0)
(3 -2.297930029e-15 0)
(3 1.809629928e-16 0)
(3 5.953591877e-16 0)
(3 2.634029973e-15 0)
(3 2.602829181e-15 0)
(3 3.179658886e-15 0)
(3 1.24864864e-16 0)
(3 -1.912583335e-16 0)
(3 -2.204600889e-15 0)
(3 -1.969076534e-15 0)
(3 -3.735785604e-15 0)
(3 -3.323795328e-15 0)
(3 -4.446294999e-15 0)
(3 -3.482351089e-15 0)
(3 -2.861543253e-15 0)
(3 -4.339241075e-15 0)
(3 -6.677039967e-15 0)
(3 -7.769441858e-15 0)
(3 -6.338332827e-15 0)
(3 -4.304248584e-15 0)
(3 -4.431771979e-15 0)
(3 -4.013530909e-15 0)
(3 -3.859912886e-15 0)
(3 -3.734593582e-15 0)
(3 -2.636238459e-15 0)
(3 1.617803423e-15 0)
(3 3.470091657e-15 0)
(3 3.972799267e-15 0)
(3 3.382113056e-15 0)
(3 1.780011315e-15 0)
(3 7.489056435e-16 0)
(3 -1.608176421e-15 0)
(3 -9.082144837e-16 0)
(3 1.066023052e-15 0)
(3 2.916844105e-15 0)
(3 3.716562151e-15 0)
(3 7.953070622e-15 0)
(3 9.471962068e-15 0)
(3 1.047668572e-14 0)
(3 1.187570403e-15 0)
(3 2.826018085e-15 0)
(3 4.50597974e-15 0)
(3 3.196900487e-15 0)
(3 2.535963504e-15 0)
(3 1.637296526e-15 0)
(3 1.915800589e-15 0)
(3 9.57786164e-16 0)
(3 -1.686625892e-16 0)
(3 -1.451758881e-15 0)
(3 -2.321031332e-15 0)
(3 -1.363261411e-15 0)
(3 -3.631246104e-17 0)
(3 -5.480618026e-16 0)
(3 -6.838489259e-16 0)
(3 -1.841013168e-15 0)
(3 -8.530344331e-16 0)
(3 8.99076615e-18 0)
(3 -5.065758035e-17 0)
(3 2.299761855e-15 0)
(3 4.182086209e-15 0)
(3 5.354152967e-15 0)
(3 3.356785184e-15 0)
(3 3.686817408e-15 0)
(3 2.2831932e-15 0)
(3 1.524959797e-15 0)
(3 1.526983997e-16 0)
(3 -8.148326185e-16 0)
(3 -1.752607219e-15 0)
(3 -1.57890631e-15 0)
(3 9.907510246e-17 0)
(3 3.407572699e-15 0)
(3 3.642225262e-15 0)
(3 3.205507276e-16 0)
(3 2.318315034e-16 0)
(3 7.021623274e-16 0)
(3 4.341039514e-16 0)
(3 7.698779362e-16 0)
(3 -7.565354437e-16 0)
(3 2.844041938e-15 0)
(3 2.498044352e-15 0)
(3 1.528838619e-15 0)
(3 -3.676207103e-16 0)
(3 -1.45809506e-15 0)
(3 -1.222627774e-15 0)
(3 -2.787770022e-15 0)
(3 -4.610897036e-15 0)
(3 -4.506646252e-15 0)
(3 -2.315579508e-15 0)
(3 -1.038920989e-15 0)
(3 6.163823444e-18 0)
(3 -3.908219223e-17 0)
(3 -1.763100009e-15 0)
(3 -1.237364025e-15 0)
(3 1.446922101e-15 0)
(3 3.157462786e-15 0)
(3 3.990055066e-15 0)
(3 5.450459687e-15 0)
(3 6.223108952e-15 0)
(3 2.795520713e-15 0)
(3 -5.907358509e-15 0)
(3 -8.60378647e-15 0)
(3 -8.525940166e-15 0)
(3 -9.262993432e-15 0)
(3 -8.964493128e-15 0)
(3 -7.921337187e-15 0)
(3 -1.096905977e-15 0)
(3 -3.237567609e-15 0)
(3 -3.266248657e-15 0)
(3 -1.220785723e-15 0)
(3 -1.474840922e-15 0)
(3 -1.599685694e-15 0)
(3 -8.628338551e-16 0)
(3 -6.109580202e-16 0)
(3 -2.131909391e-15 0)
(3 -3.188786961e-15 0)
(3 -2.230310854e-16 0)
(3 -2.247575782e-15 0)
(3 -3.342629219e-15 0)
(3 -3.725771008e-15 0)
(3 -5.253614707e-15 0)
(3 -5.04296804e-15 0)
(3 -5.294225587e-15 0)
(3 -3.801621433e-15 0)
(3 -1.089190508e-15 0)
(3 -6.975661282e-16 0)
(3 -2.033980341e-15 0)
(3 -1.822738465e-15 0)
(3 -5.673760829e-16 0)
(3 5.898954272e-16 0)
(3 5.485840025e-16 0)
(3 3.809749178e-16 0)
(3 2.632541255e-15 0)
(3 8.906636632e-16 0)
(3 -3.646565779e-15 0)
(3 -3.906009457e-15 0)
(3 -5.842711964e-15 0)
(3 -7.484006078e-15 0)
(3 -7.104108542e-15 0)
(3 1.291171047e-16 0)
(3 -4.993309161e-16 0)
(3 -7.405242709e-16 0)
(3 -1.176726246e-15 0)
(3 -2.930412555e-15 0)
(3 -4.677670815e-15 0)
(3 -6.263063959e-15 0)
(3 -8.623492503e-15 0)
(3 -9.393477323e-15 0)
(3 -3.265789712e-15 0)
(3 -1.135044327e-16 0)
(3 1.303675759e-15 0)
(3 1.259841855e-15 0)
(3 1.593133965e-15 0)
(3 2.770417252e-15 0)
(3 1.085236962e-15 0)
(3 9.914728792e-16 0)
(3 -5.380256491e-16 0)
(3 -2.101673711e-15 0)
(3 -2.715078783e-15 0)
(3 -4.025141453e-15 0)
(3 -6.606001252e-15 0)
(3 -6.661241298e-15 0)
(3 -5.544529123e-15 0)
(3 -4.384138403e-15 0)
(3 -1.598487323e-15 0)
(3 9.949466883e-16 0)
(3 5.201992291e-15 0)
(3 4.324452183e-15 0)
(3 2.15754533e-15 0)
(3 2.392366505e-15 0)
(3 1.82459673e-15 0)
(3 -7.403336623e-18 0)
(3 -9.882650093e-17 0)
(3 5.697023812e-16 0)
(3 2.847191688e-16 0)
(3 -1.319020984e-15 0)
(3 -1.632964082e-15 0)
(3 -4.526907397e-15 0)
(3 -8.687008999e-15 0)
(3 -8.365020506e-15 0)
(3 -4.554441413e-15 0)
(3 5.192677432e-18 0)
(3 5.94791509e-16 0)
(3 9.957427588e-16 0)
(3 1.157060326e-15 0)
(3 1.915911118e-15 0)
(3 4.673637098e-15 0)
(3 5.016489844e-15 0)
(3 4.926350214e-15 0)
(3 3.317398473e-15 0)
(3 3.315361083e-16 0)
(3 -2.579763548e-15 0)
(3 -2.370979999e-15 0)
(3 -3.226938513e-15 0)
(3 -3.99192363e-15 0)
(3 -4.148957942e-15 0)
(3 -1.915848722e-15 0)
(3 8.57949537e-16 0)
(3 1.176288742e-17 0)
(3 1.55253135e-15 0)
(3 1.063582492e-15 0)
(3 4.192190253e-16 0)
(3 2.057054498e-15 0)
(3 3.420833114e-15 0)
(3 3.979864894e-15 0)
(3 -9.209066772e-16 0)
(3 -8.158810644e-16 0)
(3 -8.702574301e-16 0)
(3 -3.357167099e-16 0)
(3 1.318853554e-15 0)
(3 6.88324715e-16 0)
(3 1.737331367e-15 0)
(3 3.264603297e-15 0)
(3 5.103921693e-15 0)
(3 6.263963795e-15 0)
(3 6.144779584e-15 0)
(3 4.273259642e-15 0)
(3 4.839312675e-15 0)
(3 6.411063224e-15 0)
(3 6.220011794e-15 0)
(3 3.895965253e-15 0)
(3 3.523400667e-15 0)
(3 3.322120919e-15 0)
(3 4.627903058e-15 0)
(3 5.426855067e-15 0)
(3 5.899813944e-15 0)
(3 5.951629955e-15 0)
(3 4.431545998e-15 0)
(3 2.582862625e-15 0)
(3 -3.807316046e-16 0)
(3 -2.989835773e-15 0)
(3 -5.142209163e-15 0)
(3 -7.102143292e-15 0)
(3 -6.089130319e-15 0)
(3 -5.581009039e-15 0)
(3 -5.775384937e-15 0)
(3 -5.588812804e-15 0)
(3 -6.283025582e-15 0)
(3 1.849355954e-15 0)
(3 2.648895417e-15 0)
(3 2.975164042e-15 0)
(3 3.565134088e-15 0)
(3 4.707658628e-15 0)
(3 7.499065747e-15 0)
(3 1.130959123e-14 0)
(3 1.197355341e-14 0)
(3 1.254819637e-14 0)
(3 9.988365993e-15 0)
(3 8.889433939e-15 0)
(3 9.369224763e-15 0)
(3 1.012879322e-14 0)
(3 9.607860643e-15 0)
(3 1.019530258e-14 0)
(3 7.663399314e-15 0)
(3 6.349986471e-15 0)
(3 5.426996325e-15 0)
(3 8.177989019e-15 0)
(3 1.052367129e-14 0)
(3 1.078394921e-14 0)
(3 1.097514001e-14 0)
(3 1.134640315e-14 0)
(3 1.034542683e-14 0)
(3 6.282067131e-15 0)
(3 2.451129927e-15 0)
(3 -5.22133912e-16 0)
(3 -3.118703413e-15 0)
(3 -2.199572887e-15 0)
(3 -2.54423896e-15 0)
(3 -5.346525023e-15 0)
(3 -8.630349875e-15 0)
(3 -8.902605284e-15 0)
(3 7.267427971e-16 0)
(3 1.364073198e-15 0)
(3 1.124046021e-15 0)
(3 1.725591809e-15 0)
(3 2.111063024e-15 0)
(3 1.817572367e-15 0)
(3 1.853020041e-15 0)
(3 1.853433927e-15 0)
(3 4.189907368e-16 0)
(3 -6.234578281e-16 0)
(3 3.403751473e-16 0)
(3 1.227182442e-15 0)
(3 1.856200823e-15 0)
(3 4.345660026e-15 0)
(3 4.548794839e-15 0)
(3 4.843885549e-15 0)
(3 3.992319577e-15 0)
(3 3.437320325e-15 0)
(3 2.894226383e-15 0)
(3 2.830714502e-15 0)
(3 2.603129044e-15 0)
(3 2.366752761e-15 0)
(3 2.713597732e-15 0)
(3 3.221708268e-15 0)
(3 2.653376025e-15 0)
(3 2.827342231e-15 0)
(3 2.092309597e-15 0)
(3 1.805844703e-15 0)
(3 9.720127316e-16 0)
(3 -4.150393265e-16 0)
(3 -1.022537862e-16 0)
(3 -4.217546724e-16 0)
(3 -3.205623336e-16 0)
(3 -1.186847193e-15 0)
(3 -3.519225115e-15 0)
(3 -3.959155681e-15 0)
(3 -4.667928316e-15 0)
(3 -5.067608898e-15 0)
(3 -5.071290304e-15 0)
(3 -5.583551507e-15 0)
(3 -6.057257978e-15 0)
(3 -4.172516753e-15 0)
(3 -4.72684657e-15 0)
(3 -6.044891564e-15 0)
(3 -7.662573995e-15 0)
(3 -6.948456085e-15 0)
(3 -3.10807267e-15 0)
(3 -4.687799801e-15 0)
(3 -5.713879024e-15 0)
(3 -6.214309061e-15 0)
(3 -5.080575528e-15 0)
(3 -5.284877208e-15 0)
(3 -6.793647273e-15 0)
(3 -6.586113468e-15 0)
(3 -8.663881745e-15 0)
(3 -9.38536186e-15 0)
(3 -9.720426843e-15 0)
(3 -9.686130654e-15 0)
(3 -9.087614631e-15 0)
(3 -7.308285039e-15 0)
(3 -2.597695846e-15 0)
(3 -7.09698609e-17 0)
(3 -4.595922149e-16 0)
(3 9.536714959e-16 0)
(3 1.882214079e-15 0)
(3 9.7500714e-16 0)
(3 -5.616966129e-16 0)
(3 -1.588730957e-15 0)
(3 -1.681023378e-15 0)
(3 -1.971809141e-15 0)
(3 -1.613732152e-15 0)
(3 -1.288506094e-15 0)
(3 -2.724236713e-15 0)
(3 -1.569075074e-15 0)
(3 -7.249911669e-16 0)
(3 -1.799130415e-15 0)
(3 -3.137082322e-15 0)
(3 -4.127727579e-15 0)
(3 -4.820825474e-15 0)
(3 -7.480296717e-15 0)
(3 -8.762044243e-15 0)
(3 -8.528681105e-15 0)
(3 -8.20635441e-15 0)
(3 -7.616198733e-15 0)
(3 -7.963879717e-15 0)
(3 -6.948305374e-15 0)
(3 -5.959425172e-15 0)
(3 -6.855147876e-15 0)
(3 -9.786961569e-15 0)
(3 -1.031000926e-14 0)
(3 -9.936839377e-15 0)
(3 -8.462986815e-15 0)
(3 -7.038651819e-15 0)
(3 -2.940171399e-15 0)
(3 -1.142049835e-15 0)
(3 -2.020702545e-15 0)
(3 -8.033722453e-16 0)
(3 7.980611298e-16 0)
(3 -1.110961013e-15 0)
(3 1.278716042e-16 0)
(3 -5.773859568e-16 0)
(3 2.717380014e-15 0)
(3 3.280602855e-15 0)
(3 3.309747089e-15 0)
(3 2.518941292e-15 0)
(3 8.151786815e-16 0)
(3 -5.925207816e-17 0)
(3 -2.189470709e-15 0)
(3 -1.726078194e-15 0)
(3 -7.108366362e-16 0)
(3 6.634283895e-16 0)
(3 9.965343956e-16 0)
(3 -1.674910963e-15 0)
(3 -1.810219082e-15 0)
(3 -1.748964043e-15 0)
(3 -2.096518012e-15 0)
(3 -3.903742342e-15 0)
(3 -3.95751227e-15 0)
(3 -3.531527451e-15 0)
(3 -2.68203916e-15 0)
(3 -1.979433677e-15 0)
(3 -2.922688149e-15 0)
(3 -2.686912548e-15 0)
(3 -2.852483334e-15 0)
(3 -2.941194053e-15 0)
(3 -3.253131623e-15 0)
(3 -5.318028191e-15 0)
(3 -5.803981487e-15 0)
(3 -4.980043416e-15 0)
(3 -4.360967489e-15 0)
(3 -3.630560578e-15 0)
(3 -2.4468675e-15 0)
(3 6.230436e-16 0)
(3 -3.989519579e-17 0)
(3 1.035822469e-15 0)
(3 1.503625391e-15 0)
(3 1.0605198e-15 0)
(3 3.462666513e-16 0)
(3 1.061532076e-15 0)
(3 -3.266546596e-16 0)
(3 -4.117000273e-16 0)
(3 6.51023803e-16 0)
(3 2.881458173e-15 0)
(3 4.719506655e-15 0)
(3 3.088399709e-15 0)
(3 1.803915043e-15 0)
(3 1.700488532e-15 0)
(3 4.138600168e-15 0)
(3 2.829098572e-15 0)
(3 2.215309404e-15 0)
(3 -4.087058909e-16 0)
(3 -3.128430198e-15 0)
(3 -2.536858185e-15 0)
(3 -7.734362575e-16 0)
(3 1.535129482e-15 0)
(3 3.30132652e-15 0)
(3 4.967682616e-15 0)
(3 4.221996113e-15 0)
(3 3.281846747e-15 0)
(3 1.709432633e-15 0)
(3 1.013691745e-15 0)
(3 3.980942641e-15 0)
(3 2.983898877e-15 0)
(3 -2.881021458e-16 0)
(3 1.139925169e-15 0)
(3 7.312544875e-16 0)
(3 1.182027431e-15 0)
(3 -1.448154891e-15 0)
(3 -1.099478665e-15 0)
(3 -1.387447616e-15 0)
(3 5.379771811e-16 0)
(3 1.502038801e-15 0)
(3 6.105480149e-16 0)
(3 -8.89729785e-17 0)
(3 -7.943398693e-16 0)
(3 1.195394752e-15 0)
(3 3.744353241e-16 0)
(3 7.335680565e-16 0)
(3 6.361691917e-16 0)
(3 1.700182102e-16 0)
(3 1.229400203e-15 0)
(3 2.156402258e-15 0)
(3 3.020015794e-15 0)
(3 2.510132912e-15 0)
(3 1.776863854e-15 0)
(3 2.582351266e-15 0)
(3 5.098096975e-15 0)
(3 5.569824627e-15 0)
(3 6.770892252e-15 0)
(3 8.411388521e-15 0)
(3 1.208035193e-14 0)
(3 1.292550254e-14 0)
(3 1.35042787e-14 0)
(3 1.200687417e-14 0)
(3 1.101884034e-14 0)
(3 1.038837937e-14 0)
(3 8.2618036e-15 0)
(3 6.195560579e-15 0)
(3 -4.222451538e-16 0)
(3 1.206817649e-15 0)
(3 1.46844809e-15 0)
(3 1.570199682e-15 0)
(3 1.151894114e-15 0)
(3 9.878230874e-16 0)
(3 -2.73594419e-16 0)
(3 -7.166877107e-16 0)
(3 -1.549758706e-15 0)
(3 -3.310519503e-15 0)
(3 -6.803347564e-15 0)
(3 -7.044774957e-15 0)
(3 -6.481667161e-15 0)
(3 -5.845819093e-15 0)
(3 -4.46981962e-15 0)
(3 -3.123749654e-15 0)
(3 -7.527810617e-16 0)
(3 2.882085414e-15 0)
(3 3.472143666e-15 0)
(3 2.956567017e-15 0)
(3 2.433004817e-15 0)
(3 1.343941954e-15 0)
(3 -1.378746272e-15 0)
(3 -7.937181451e-16 0)
(3 5.065148671e-16 0)
(3 1.726688743e-15 0)
(3 1.598988373e-15 0)
(3 1.347050819e-15 0)
(3 2.556931937e-15 0)
(3 1.547008029e-15 0)
(3 2.002569079e-15 0)
(3 3.648572166e-15 0)
(3 2.848199772e-15 0)
(3 -1.281695825e-16 0)
(3 1.036339468e-15 0)
(3 3.720511383e-15 0)
(3 4.093792835e-15 0)
(3 3.064892007e-15 0)
(3 2.115415071e-15 0)
(3 1.274380269e-15 0)
(3 1.201542545e-15 0)
(3 6.144852446e-16 0)
(3 -4.814680169e-16 0)
(3 -2.60733331e-15 0)
(3 -3.655311468e-15 0)
(3 -7.002870222e-15 0)
(3 -7.041392029e-15 0)
(3 -4.796285383e-15 0)
(3 -2.574204996e-15 0)
(3 -2.191740396e-15 0)
(3 -3.533134786e-16 0)
(3 -7.263469197e-16 0)
(3 -1.278375544e-15 0)
(3 -4.152680951e-15 0)
(3 -7.091929745e-15 0)
(3 -4.466037016e-15 0)
(3 -3.366048508e-15 0)
(3 -5.835568867e-15 0)
(3 -9.488954255e-15 0)
(3 -1.188664971e-14 0)
)
;

boundaryField
{
    inlet
    {
        type            fixedValue;
        value           uniform (3 0 0);
    }
    outlet
    {
        type            inletOutlet;
        inletValue      nonuniform 0();
        value           nonuniform 0();
    }
    bottom
    {
        type            slip;
    }
    top
    {
        type            slip;
    }
    obstacle
    {
        type            slip;
    }
    defaultFaces
    {
        type            empty;
    }
    procBoundary0to1
    {
        type            processor;
        value           nonuniform List<vector> 
16
(
(3 3.899547145e-15 0)
(3 9.568143612e-15 0)
(3 3.788614565e-15 0)
(3 -3.055276003e-15 0)
(3 -6.857074295e-15 0)
(3 -3.308588691e-15 0)
(3 1.603955655e-15 0)
(3 -6.219209986e-15 0)
(3 -7.747561966e-15 0)
(3 -4.995794199e-16 0)
(3 -1.914340675e-15 0)
(3 -1.216638053e-15 0)
(3 -1.472963683e-15 0)
(3 2.295066637e-15 0)
(3 6.688007295e-15 0)
(3 2.805212522e-15 0)
)
;
    }
    procBoundary0to6
    {
        type            processor;
        value           nonuniform List<vector> 
34
(
(3 -1.171067301e-14 0)
(3 -9.71088003e-15 0)
(3 -8.436258136e-15 0)
(3 -9.492988787e-15 0)
(3 -8.214766705e-15 0)
(3 -6.469370033e-15 0)
(3 -7.594250556e-17 0)
(3 1.477702294e-16 0)
(3 8.729609427e-16 0)
(3 1.910223752e-15 0)
(3 2.949857411e-15 0)
(3 2.535716157e-15 0)
(3 2.282662374e-15 0)
(3 7.74079817e-16 0)
(3 4.171821791e-16 0)
(3 5.085773181e-16 0)
(3 -6.529955795e-16 0)
(3 -2.773502451e-15 0)
(3 -1.444714281e-15 0)
(3 6.12740575e-16 0)
(3 2.266036663e-15 0)
(3 9.826087127e-16 0)
(3 -2.769871339e-15 0)
(3 -6.393270858e-15 0)
(3 -4.599312468e-15 0)
(3 -1.585663924e-15 0)
(3 -1.941203471e-15 0)
(3 -1.953244576e-15 0)
(3 -1.210705341e-15 0)
(3 -2.131946494e-15 0)
(3 -3.314109666e-15 0)
(3 -5.33887826e-15 0)
(3 -1.171067301e-14 0)
(3 -5.314207342e-15 0)
)
;
    }
}


// ************************************************************************* //
