/*--------------------------------*- C++ -*----------------------------------*\
  =========                 |
  \\      /  F ield         | OpenFOAM: The Open Source CFD Toolbox
   \\    /   O peration     | Website:  https://openfoam.org
    \\  /    A nd           | Version:  7
     \\/     M anipulation  |
\*---------------------------------------------------------------------------*/
FoamFile
{
    version     2.0;
    format      ascii;
    class       volVectorField;
    location    "3.8";
    object      U;
}
// * * * * * * * * * * * * * * * * * * * * * * * * * * * * * * * * * * * * * //

dimensions      [0 1 -1 0 0 0 0];

internalField   nonuniform List<vector> 
558
(
(3 -1.620933937e-15 0)
(3 -3.549619211e-15 0)
(3 -3.398691128e-15 0)
(3 -2.635826036e-15 0)
(3 -3.470147418e-15 0)
(3 -3.723631742e-15 0)
(3 -4.188803757e-15 0)
(3 -5.332773526e-15 0)
(3 -6.794227343e-15 0)
(3 -1.065903029e-14 0)
(3 -9.497624371e-15 0)
(3 -1.082085432e-14 0)
(3 -1.232909206e-14 0)
(3 -1.498668005e-14 0)
(3 3.654010393e-16 0)
(3 1.480846282e-16 0)
(3 -2.548936288e-15 0)
(3 -3.274629227e-15 0)
(3 -3.573300097e-15 0)
(3 -1.521578981e-15 0)
(3 -2.266539559e-16 0)
(3 9.408508765e-16 0)
(3 2.10668752e-15 0)
(3 5.946213418e-15 0)
(3 6.477193161e-15 0)
(3 2.415195171e-15 0)
(3 2.476197484e-15 0)
(3 3.37940374e-15 0)
(3 2.929960153e-15 0)
(3 1.752810226e-15 0)
(3 1.420350485e-15 0)
(3 3.690183152e-15 0)
(3 4.074862387e-15 0)
(3 3.91389637e-15 0)
(3 5.237020407e-15 0)
(3 7.140093172e-15 0)
(3 6.761774438e-15 0)
(3 6.704422322e-15 0)
(3 5.856242323e-15 0)
(3 1.774486778e-15 0)
(3 -3.18461321e-16 0)
(3 -1.152721699e-15 0)
(3 -2.658432622e-15 0)
(3 -3.979402158e-15 0)
(3 -6.063258299e-15 0)
(3 -1.01506338e-14 0)
(3 -1.569875637e-14 0)
(3 -1.610268064e-14 0)
(3 -9.381394684e-16 0)
(3 -1.853095561e-15 0)
(3 -2.322433742e-15 0)
(3 -1.063384293e-15 0)
(3 1.523736207e-15 0)
(3 7.204758735e-16 0)
(3 1.642060809e-15 0)
(3 6.213137189e-16 0)
(3 -3.506163823e-16 0)
(3 -1.773991422e-15 0)
(3 -3.034219526e-15 0)
(3 -3.537525755e-15 0)
(3 -3.97670025e-15 0)
(3 -2.996842949e-15 0)
(3 -1.629369065e-15 0)
(3 3.789148969e-16 0)
(3 2.769334714e-15 0)
(3 5.029114894e-15 0)
(3 7.565487462e-15 0)
(3 8.574027308e-15 0)
(3 8.777717225e-15 0)
(3 9.333738255e-15 0)
(3 8.671669701e-15 0)
(3 6.435210256e-15 0)
(3 3.831290954e-15 0)
(3 2.326877205e-16 0)
(3 -1.233463066e-15 0)
(3 -4.771125133e-15 0)
(3 -6.007416747e-15 0)
(3 -9.078123009e-15 0)
(3 -1.255387504e-14 0)
(3 -1.728315614e-14 0)
(3 -1.729824074e-14 0)
(3 -1.433050322e-14 0)
(3 -1.086103982e-15 0)
(3 -2.705390999e-17 0)
(3 3.231626614e-15 0)
(3 2.481928629e-15 0)
(3 1.748048796e-15 0)
(3 1.379425038e-15 0)
(3 1.619884247e-15 0)
(3 1.623469097e-15 0)
(3 1.344743582e-15 0)
(3 -2.265800118e-15 0)
(3 -3.485670459e-15 0)
(3 -2.576426394e-15 0)
(3 -2.299318784e-15 0)
(3 -9.80841428e-16 0)
(3 1.267953261e-15 0)
(3 6.281964085e-15 0)
(3 8.680722733e-15 0)
(3 5.522987134e-15 0)
(3 5.27488869e-15 0)
(3 3.865610228e-15 0)
(3 7.860104038e-16 0)
(3 -4.340335293e-15 0)
(3 -5.949613391e-15 0)
(3 -7.167168342e-15 0)
(3 -7.80805843e-15 0)
(3 -7.25508735e-15 0)
(3 -7.866257915e-15 0)
(3 -9.042620391e-15 0)
(3 -8.437324028e-15 0)
(3 -6.874638626e-15 0)
(3 -1.130550308e-14 0)
(3 -1.344386678e-14 0)
(3 -1.677637254e-14 0)
(3 -1.502492574e-14 0)
(3 4.97849516e-16 0)
(3 6.119955639e-16 0)
(3 -1.178825392e-15 0)
(3 -2.859239244e-15 0)
(3 -1.990433031e-15 0)
(3 1.608252522e-16 0)
(3 -1.688775727e-19 0)
(3 4.636114267e-16 0)
(3 7.508685648e-16 0)
(3 -1.306962368e-15 0)
(3 6.537228513e-17 0)
(3 -5.056944819e-16 0)
(3 1.70273788e-16 0)
(3 3.524060787e-15 0)
(3 4.713847499e-15 0)
(3 6.086387218e-15 0)
(3 5.511929079e-15 0)
(3 3.04815005e-15 0)
(3 -1.279712429e-15 0)
(3 -6.075786802e-15 0)
(3 -9.090974232e-15 0)
(3 -1.14563439e-14 0)
(3 -1.434642356e-14 0)
(3 -1.437555669e-14 0)
(3 -1.434255672e-14 0)
(3 -1.268081417e-14 0)
(3 -1.015660168e-14 0)
(3 -9.680708852e-15 0)
(3 -6.414815141e-15 0)
(3 -4.547794227e-15 0)
(3 -1.860430621e-15 0)
(3 -2.386970752e-15 0)
(3 -4.131860624e-15 0)
(3 -4.615751399e-15 0)
(3 3.858210591e-16 0)
(3 -5.259088823e-16 0)
(3 -2.796228984e-15 0)
(3 -1.855175732e-15 0)
(3 -1.788221344e-15 0)
(3 -9.804664427e-16 0)
(3 -1.142605711e-15 0)
(3 4.189737213e-16 0)
(3 9.647479974e-16 0)
(3 6.035120793e-16 0)
(3 -7.714784175e-16 0)
(3 4.957745765e-16 0)
(3 7.491554548e-16 0)
(3 -2.628278679e-17 0)
(3 -1.335304503e-15 0)
(3 -3.675192638e-15 0)
(3 -5.35890725e-15 0)
(3 -5.703099432e-15 0)
(3 -7.347423709e-15 0)
(3 -9.652254262e-15 0)
(3 -1.274495647e-14 0)
(3 -1.394346265e-14 0)
(3 -1.566917652e-14 0)
(3 -1.582788727e-14 0)
(3 -1.400493609e-14 0)
(3 -1.09582956e-14 0)
(3 -7.454909654e-15 0)
(3 -6.363661254e-15 0)
(3 -3.096694843e-15 0)
(3 -1.750151496e-15 0)
(3 1.363550064e-16 0)
(3 5.051956026e-15 0)
(3 7.150003331e-15 0)
(3 1.138071392e-14 0)
(3 -1.100899127e-15 0)
(3 -2.195701763e-15 0)
(3 -5.689967678e-16 0)
(3 -3.277104153e-16 0)
(3 4.175246971e-16 0)
(3 1.051931867e-15 0)
(3 2.450501804e-15 0)
(3 2.396574994e-15 0)
(3 1.304084118e-15 0)
(3 1.559829435e-15 0)
(3 -1.294580028e-15 0)
(3 -4.938634588e-17 0)
(3 -1.52301035e-15 0)
(3 -5.696379026e-15 0)
(3 -6.679118292e-15 0)
(3 -7.20813234e-15 0)
(3 -7.157536205e-15 0)
(3 -5.301600821e-15 0)
(3 -5.792734926e-15 0)
(3 -8.070181932e-15 0)
(3 -8.984448745e-15 0)
(3 -1.133859453e-14 0)
(3 -1.118225655e-14 0)
(3 -1.232391511e-14 0)
(3 -1.184405863e-14 0)
(3 -1.136731013e-14 0)
(3 -1.076752727e-14 0)
(3 -8.251226505e-15 0)
(3 -6.429517689e-15 0)
(3 -6.781275402e-15 0)
(3 -5.804260576e-15 0)
(3 -1.066839107e-15 0)
(3 8.049331101e-15 0)
(3 1.056377758e-14 0)
(3 -2.581055302e-16 0)
(3 -1.369853115e-15 0)
(3 -1.409563813e-16 0)
(3 -2.918273169e-16 0)
(3 1.465762514e-15 0)
(3 9.650296367e-16 0)
(3 1.377845226e-15 0)
(3 3.647751987e-16 0)
(3 -1.014276148e-15 0)
(3 -1.320270209e-15 0)
(3 7.697251119e-16 0)
(3 -1.09682016e-15 0)
(3 -4.711642184e-17 0)
(3 7.290513222e-19 0)
(3 1.005461651e-15 0)
(3 1.251968785e-15 0)
(3 -1.172483893e-17 0)
(3 6.464477511e-16 0)
(3 -2.52934788e-16 0)
(3 -3.850463255e-15 0)
(3 -5.549796547e-15 0)
(3 -5.699855222e-15 0)
(3 -5.067935003e-15 0)
(3 -3.571725645e-15 0)
(3 -2.482347994e-15 0)
(3 -5.711635036e-15 0)
(3 -6.692281177e-15 0)
(3 -6.518443008e-15 0)
(3 -7.27060348e-15 0)
(3 -4.729425724e-15 0)
(3 -3.177532248e-15 0)
(3 -3.287439848e-16 0)
(3 6.337375375e-15 0)
(3 1.02261052e-14 0)
(3 1.210927113e-15 0)
(3 2.587250738e-15 0)
(3 1.407183845e-15 0)
(3 2.112803332e-15 0)
(3 -5.06955412e-17 0)
(3 -2.497807352e-15 0)
(3 -4.237448808e-15 0)
(3 -4.969574477e-15 0)
(3 -4.359709622e-15 0)
(3 -4.904115505e-15 0)
(3 -1.806315788e-15 0)
(3 6.412332656e-16 0)
(3 3.589114052e-15 0)
(3 3.362021594e-15 0)
(3 2.648027138e-15 0)
(3 3.543833049e-15 0)
(3 2.210984615e-15 0)
(3 5.521478053e-16 0)
(3 -1.081318687e-15 0)
(3 -7.410157589e-15 0)
(3 -9.986980341e-15 0)
(3 -1.014018679e-14 0)
(3 -9.301007118e-15 0)
(3 -6.987002853e-15 0)
(3 -2.769539647e-15 0)
(3 -2.26991552e-15 0)
(3 -2.716440041e-15 0)
(3 -3.756102035e-15 0)
(3 -6.136277728e-15 0)
(3 -6.198611705e-15 0)
(3 -7.430915503e-15 0)
(3 -7.285853551e-15 0)
(3 -3.873573683e-15 0)
(3 -6.242957458e-17 0)
(3 1.209629786e-15 0)
(3 2.291470517e-15 0)
(3 -1.050096329e-15 0)
(3 -8.154168103e-16 0)
(3 -1.719806721e-15 0)
(3 -2.732812189e-15 0)
(3 -3.160124751e-15 0)
(3 -4.616668276e-15 0)
(3 -3.458953153e-15 0)
(3 -2.025910056e-15 0)
(3 -1.641515718e-15 0)
(3 3.267829062e-15 0)
(3 3.079823192e-15 0)
(3 1.877088155e-15 0)
(3 1.974221408e-16 0)
(3 1.720653352e-15 0)
(3 8.885769291e-16 0)
(3 8.208036633e-17 0)
(3 -3.311457761e-15 0)
(3 -7.379939807e-15 0)
(3 -6.075438999e-15 0)
(3 -8.470464664e-15 0)
(3 -9.251425721e-15 0)
(3 -3.320002798e-15 0)
(3 -3.949089348e-16 0)
(3 -1.79902671e-15 0)
(3 -4.654464338e-15 0)
(3 -4.636713291e-15 0)
(3 -3.907572161e-15 0)
(3 -4.267122506e-15 0)
(3 -4.122178055e-15 0)
(3 -6.034186508e-15 0)
(3 -7.130808999e-15 0)
(3 -8.595452108e-15 0)
(3 -7.90915052e-17 0)
(3 -2.067185216e-15 0)
(3 -1.614008436e-15 0)
(3 -6.681036047e-16 0)
(3 9.072567799e-16 0)
(3 2.007039389e-15 0)
(3 3.960239265e-15 0)
(3 4.803060475e-15 0)
(3 4.777796801e-15 0)
(3 5.280162356e-15 0)
(3 3.926139641e-15 0)
(3 3.550991825e-15 0)
(3 3.447286044e-15 0)
(3 3.283144079e-15 0)
(3 4.362883925e-16 0)
(3 -3.025549937e-15 0)
(3 -3.813784893e-15 0)
(3 -4.047157772e-15 0)
(3 -3.418736726e-15 0)
(3 -2.540855048e-15 0)
(3 -8.137850098e-16 0)
(3 1.199394985e-15 0)
(3 2.976123526e-15 0)
(3 7.070128977e-15 0)
(3 7.420683397e-15 0)
(3 7.540131754e-15 0)
(3 5.983964554e-15 0)
(3 2.603850202e-15 0)
(3 2.824887492e-15 0)
(3 -9.85573441e-17 0)
(3 -1.016912125e-15 0)
(3 -4.106593427e-15 0)
(3 -1.194213694e-14 0)
(3 -1.283779509e-14 0)
(3 -5.529617345e-16 0)
(3 -2.77473221e-16 0)
(3 2.004734652e-15 0)
(3 6.837713906e-17 0)
(3 -6.153743444e-16 0)
(3 1.747526036e-15 0)
(3 1.490647641e-15 0)
(3 1.225834794e-15 0)
(3 1.866688024e-15 0)
(3 2.141428116e-15 0)
(3 1.777198814e-15 0)
(3 -3.589645469e-16 0)
(3 -5.62400656e-16 0)
(3 -1.470719116e-15 0)
(3 -1.292263409e-15 0)
(3 -3.058223842e-15 0)
(3 -5.050487439e-15 0)
(3 -3.461451281e-15 0)
(3 -2.8221485e-15 0)
(3 4.391790002e-15 0)
(3 8.786503296e-15 0)
(3 1.510901427e-14 0)
(3 1.707201164e-14 0)
(3 1.422755238e-14 0)
(3 1.144202167e-14 0)
(3 1.115748317e-14 0)
(3 1.014310012e-14 0)
(3 7.676783647e-15 0)
(3 4.932124328e-15 0)
(3 3.323337915e-15 0)
(3 2.931896745e-15 0)
(3 5.969805733e-16 0)
(3 -4.217796746e-15 0)
(3 -1.079076308e-14 0)
(3 1.435714186e-15 0)
(3 2.845805095e-15 0)
(3 2.327315284e-15 0)
(3 1.183689685e-15 0)
(3 -1.988231272e-15 0)
(3 -7.838485647e-16 0)
(3 -1.948138094e-15 0)
(3 -1.858727146e-15 0)
(3 -9.453723958e-16 0)
(3 -6.373128147e-16 0)
(3 -1.032955818e-15 0)
(3 -4.255983109e-15 0)
(3 -6.599962334e-15 0)
(3 -5.979060206e-15 0)
(3 -1.934245586e-15 0)
(3 -1.539480126e-15 0)
(3 -4.097553791e-16 0)
(3 1.40881166e-15 0)
(3 4.030413482e-15 0)
(3 9.900783251e-15 0)
(3 2.097090017e-14 0)
(3 2.499290034e-14 0)
(3 2.212836619e-14 0)
(3 1.58781696e-14 0)
(3 1.090649193e-14 0)
(3 7.241553609e-15 0)
(3 7.536564393e-15 0)
(3 4.547337193e-15 0)
(3 4.845911602e-16 0)
(3 3.113926783e-15 0)
(3 4.909816639e-15 0)
(3 2.103305579e-15 0)
(3 -9.360848851e-16 0)
(3 -7.074243595e-15 0)
(3 -1.894996079e-17 0)
(3 1.126138937e-16 0)
(3 2.112797704e-16 0)
(3 4.178247132e-15 0)
(3 4.19297323e-15 0)
(3 2.496644806e-15 0)
(3 1.238358873e-15 0)
(3 2.057620371e-15 0)
(3 1.260999554e-15 0)
(3 8.69053249e-17 0)
(3 6.838662929e-16 0)
(3 -8.006450748e-16 0)
(3 -1.691710951e-15 0)
(3 -4.532832151e-16 0)
(3 1.989410908e-15 0)
(3 1.816642452e-15 0)
(3 3.019355384e-15 0)
(3 5.020000009e-15 0)
(3 1.004083369e-14 0)
(3 1.148195442e-14 0)
(3 1.282087275e-14 0)
(3 1.357447075e-14 0)
(3 1.26450649e-14 0)
(3 5.814267564e-15 0)
(3 1.374057475e-15 0)
(3 1.355998713e-15 0)
(3 5.86800013e-15 0)
(3 8.557066426e-15 0)
(3 8.433086892e-15 0)
(3 7.212325724e-15 0)
(3 1.583248082e-15 0)
(3 -5.727174214e-15 0)
(3 -8.99543937e-15 0)
(3 -1.401197015e-14 0)
(3 -8.703745745e-16 0)
(3 -1.029701755e-15 0)
(3 -2.332113893e-15 0)
(3 1.488624071e-16 0)
(3 1.293706654e-15 0)
(3 9.065783241e-16 0)
(3 1.204495793e-16 0)
(3 -3.021899369e-16 0)
(3 -1.309100834e-15 0)
(3 -1.764895919e-15 0)
(3 -1.580926131e-15 0)
(3 1.684010549e-15 0)
(3 3.936878021e-15 0)
(3 2.973528854e-15 0)
(3 9.694810994e-16 0)
(3 3.129409163e-16 0)
(3 3.502755712e-15 0)
(3 6.958484632e-15 0)
(3 4.201581424e-15 0)
(3 4.331580728e-15 0)
(3 3.429969077e-15 0)
(3 2.829319758e-16 0)
(3 -4.057478511e-15 0)
(3 -3.110262544e-15 0)
(3 -2.127790328e-15 0)
(3 7.044194041e-17 0)
(3 1.697275977e-15 0)
(3 1.682136446e-15 0)
(3 2.296714219e-15 0)
(3 1.213434856e-15 0)
(3 -7.681914788e-16 0)
(3 -2.926943457e-15 0)
(3 -2.129197827e-15 0)
(3 -3.495903062e-15 0)
(3 -8.576330313e-17 0)
(3 -3.202640204e-16 0)
(3 -8.407725224e-16 0)
(3 1.157738319e-16 0)
(3 2.680767435e-15 0)
(3 3.54832578e-15 0)
(3 5.03136658e-15 0)
(3 4.473728169e-15 0)
(3 2.2311212e-15 0)
(3 1.096068655e-15 0)
(3 1.500128728e-15 0)
(3 2.960383102e-15 0)
(3 2.472762275e-15 0)
(3 9.781134022e-16 0)
(3 1.612634319e-15 0)
(3 3.499625539e-15 0)
(3 1.492881823e-15 0)
(3 2.68208907e-15 0)
(3 3.172356885e-16 0)
(3 -1.135067761e-15 0)
(3 -3.481303646e-15 0)
(3 -3.749734723e-15 0)
(3 -2.757945052e-15 0)
(3 1.456585577e-15 0)
(3 6.474045855e-15 0)
(3 6.647551733e-15 0)
(3 4.486330169e-15 0)
(3 4.588863921e-15 0)
(3 4.455149712e-15 0)
(3 3.208252775e-15 0)
(3 -2.153262029e-15 0)
(3 -7.2182633e-15 0)
(3 -9.572008899e-15 0)
(3 -8.804031216e-15 0)
(3 3.819321799e-18 0)
(3 2.677446322e-16 0)
(3 2.254001218e-15 0)
(3 2.362761739e-15 0)
(3 5.164375406e-15 0)
(3 5.631425421e-15 0)
(3 7.113537318e-15 0)
(3 7.365651448e-15 0)
(3 6.120570401e-15 0)
(3 5.858462089e-15 0)
(3 5.679068514e-15 0)
(3 4.56698172e-15 0)
(3 2.676434417e-15 0)
(3 2.378434546e-15 0)
(3 3.327176072e-15 0)
(3 3.04263646e-15 0)
(3 9.55426556e-16 0)
(3 5.483035994e-17 0)
(3 -9.827771304e-16 0)
(3 -1.906075834e-15 0)
(3 -2.924650697e-15 0)
(3 -3.902383777e-15 0)
(3 -1.582853905e-15 0)
(3 2.038546453e-15 0)
(3 5.448704819e-15 0)
(3 4.246555183e-15 0)
(3 5.42913665e-15 0)
(3 4.9983185e-15 0)
(3 5.835158802e-15 0)
(3 6.909819862e-15 0)
(3 3.337783392e-15 0)
(3 2.258415871e-15 0)
(3 1.651533658e-15 0)
(3 2.358954186e-15 0)
)
;

boundaryField
{
    inlet
    {
        type            fixedValue;
        value           uniform (3 0 0);
    }
    outlet
    {
        type            inletOutlet;
        inletValue      nonuniform 0();
        value           nonuniform 0();
    }
    bottom
    {
        type            slip;
    }
    top
    {
        type            slip;
    }
    obstacle
    {
        type            slip;
    }
    defaultFaces
    {
        type            empty;
    }
    procBoundary30to24
    {
        type            processor;
        value           nonuniform List<vector> 
35
(
(3 -3.963429421e-15 0)
(3 -7.951832443e-15 0)
(3 -7.615568959e-15 0)
(3 -8.952897182e-15 0)
(3 -9.169276532e-15 0)
(3 -1.055651702e-14 0)
(3 -1.40140424e-14 0)
(3 -1.506254697e-14 0)
(3 -1.56533865e-14 0)
(3 -1.622612708e-14 0)
(3 -1.731828952e-14 0)
(3 -1.605820071e-14 0)
(3 -1.414650355e-14 0)
(3 -1.001273261e-14 0)
(3 4.400064744e-16 0)
(3 -4.136980628e-16 0)
(3 -2.234049313e-16 0)
(3 -6.578359397e-16 0)
(3 -3.289370576e-15 0)
(3 -3.281513295e-15 0)
(3 -3.802409715e-15 0)
(3 1.106175097e-15 0)
(3 3.363734672e-15 0)
(3 7.15561967e-15 0)
(3 9.088828417e-15 0)
(3 9.895833741e-15 0)
(3 1.026102732e-14 0)
(3 9.897769411e-15 0)
(3 8.80498869e-15 0)
(3 5.161673335e-15 0)
(3 1.322796823e-15 0)
(3 2.467822658e-16 0)
(3 5.928333731e-17 0)
(3 2.655645551e-16 0)
(3 2.655645551e-16 0)
)
;
    }
    procBoundary30to25
    {
        type            processor;
        value           uniform (3 -1.889336867e-14 0);
    }
    procBoundary30to31
    {
        type            processor;
        value           nonuniform List<vector> 
16
(
(3 -1.89278659e-14 0)
(3 -1.161022844e-14 0)
(3 -1.003588112e-14 0)
(3 -2.907355749e-16 0)
(3 1.490577726e-14 0)
(3 1.07599991e-14 0)
(3 9.83973419e-15 0)
(3 4.852523303e-15 0)
(3 -6.547374278e-15 0)
(3 -9.81260749e-15 0)
(3 -1.1276422e-14 0)
(3 -1.366820289e-14 0)
(3 -1.849196409e-14 0)
(3 -9.090528083e-15 0)
(3 -8.393490437e-15 0)
(3 3.198776605e-15 0)
)
;
    }
}


// ************************************************************************* //
