/*--------------------------------*- C++ -*----------------------------------*\
  =========                 |
  \\      /  F ield         | OpenFOAM: The Open Source CFD Toolbox
   \\    /   O peration     | Website:  https://openfoam.org
    \\  /    A nd           | Version:  7
     \\/     M anipulation  |
\*---------------------------------------------------------------------------*/
FoamFile
{
    version     2.0;
    format      ascii;
    class       volScalarField;
    location    "1";
    object      rho;
}
// * * * * * * * * * * * * * * * * * * * * * * * * * * * * * * * * * * * * * //

dimensions      [1 -3 0 0 0 0 0];

internalField   nonuniform List<scalar> 
22
(
1.370762068
1.367981554
1.363216249
1.360311823
1.356950496
1.354730238
1.350147083
1.348194611
1.348488753
1.341612498
1.341175223
1.353911849
1.336741146
1.331611856
1.332681856
1.35082937
1.331581327
1.329138563
1.330076558
1.35423764
1.331000959
1.33321868
)
;

boundaryField
{
    inlet
    {
        type            calculated;
        value           nonuniform 0();
    }
    outlet
    {
        type            calculated;
        value           nonuniform 0();
    }
    bottom
    {
        type            calculated;
        value           nonuniform 0();
    }
    top
    {
        type            calculated;
        value           nonuniform 0();
    }
    obstacle
    {
        type            calculated;
        value           nonuniform 0();
    }
    defaultFaces
    {
        type            empty;
    }
    procBoundary16to10
    {
        type            processor;
        value           nonuniform List<scalar> 4(1.369116968 1.369395792 1.361363584 1.361363584);
    }
    procBoundary16to11
    {
        type            processor;
        value           uniform 1.334268045;
    }
    procBoundary16to15
    {
        type            processor;
        value           nonuniform List<scalar> 7(1.320996378 1.345351756 1.357507257 1.357507257 1.25039441 1.2760785 1.330652207);
    }
    procBoundary16to17
    {
        type            processor;
        value           nonuniform List<scalar> 5(1.323155802 1.3150127 1.308009343 1.299844089 1.29695388);
    }
    procBoundary16to22
    {
        type            processor;
        value           nonuniform List<scalar> 5(1.331956661 1.351833434 1.330957069 1.331956661 1.333354461);
    }
}


// ************************************************************************* //
