/*--------------------------------*- C++ -*----------------------------------*\
  =========                 |
  \\      /  F ield         | OpenFOAM: The Open Source CFD Toolbox
   \\    /   O peration     | Website:  https://openfoam.org
    \\  /    A nd           | Version:  7
     \\/     M anipulation  |
\*---------------------------------------------------------------------------*/
FoamFile
{
    version     2.0;
    format      ascii;
    class       volVectorField;
    location    "1";
    object      U;
}
// * * * * * * * * * * * * * * * * * * * * * * * * * * * * * * * * * * * * * //

dimensions      [0 1 -1 0 0 0 0];

internalField   nonuniform List<vector> 
22
(
(3.014647303 -0.005630523466 0)
(3.012650645 -0.004260148451 0)
(2.999666291 -0.003936927514 0)
(2.997096638 -0.0005460903901 0)
(2.995561369 0.002835403593 0)
(2.969101849 0.0006407295278 0)
(2.966059754 0.0004131543815 0)
(2.964928118 0.0006752608714 0)
(2.929314831 -0.0009091905602 0)
(2.927928782 0.001865757507 0)
(2.928295098 0.003425284844 0)
(2.889783714 0.01112048894 0)
(2.887554562 -0.00595320273 0)
(2.888696434 -0.004200886554 0)
(2.894190579 -0.003852549507 0)
(2.848088183 0.006220377045 0)
(2.856546986 -0.002181699045 0)
(2.863219688 -0.003028805881 0)
(2.873102745 -0.002853604973 0)
(2.830681634 0.002884438077 0)
(2.845150208 -0.001521921134 0)
(2.854780731 0.001075059091 0)
)
;

boundaryField
{
    inlet
    {
        type            fixedValue;
        value           nonuniform 0();
    }
    outlet
    {
        type            inletOutlet;
        inletValue      nonuniform 0();
        value           nonuniform 0();
    }
    bottom
    {
        type            slip;
    }
    top
    {
        type            slip;
    }
    obstacle
    {
        type            slip;
    }
    defaultFaces
    {
        type            empty;
    }
    procBoundary16to10
    {
        type            processor;
        value           nonuniform List<vector> 4((3.023285257 -0.002961236503 0) (3.018026038 -0.002000729159 0) (3.018635529 0.002791630152 0) (3.018635529 0.002791630152 0));
    }
    procBoundary16to11
    {
        type            processor;
        value           uniform (3.010042127 -0.01251983754 0);
    }
    procBoundary16to15
    {
        type            processor;
        value           nonuniform List<vector> 7((3.009394329 0.06517337568 0) (2.967779513 0.03725718611 0) (2.931786398 0.01666839939 0) (2.931786398 0.01666839939 0) (2.875755699 0.09994612632 0) (2.798711166 0.05897666367 0) (2.762736893 0.03261182285 0));
    }
    procBoundary16to17
    {
        type            processor;
        value           nonuniform List<vector> 5((2.996561782 -0.005921778194 0) (2.96924455 -0.006933140331 0) (2.93609858 -0.003335476702 0) (2.905156744 -0.008044458005 0) (2.885937028 -0.004980808933 0));
    }
    procBoundary16to22
    {
        type            processor;
        value           nonuniform List<vector> 5((2.867045516 -0.0004530172181 0) (2.828336977 -0.001008566678 0) (2.845057118 0.001771463136 0) (2.867045516 -0.0004530172181 0) (2.852419494 0.0009837971119 0));
    }
}


// ************************************************************************* //
