/*--------------------------------*- C++ -*----------------------------------*\
  =========                 |
  \\      /  F ield         | OpenFOAM: The Open Source CFD Toolbox
   \\    /   O peration     | Website:  https://openfoam.org
    \\  /    A nd           | Version:  7
     \\/     M anipulation  |
\*---------------------------------------------------------------------------*/
FoamFile
{
    version     2.0;
    format      ascii;
    class       volScalarField;
    location    "0.6";
    object      p;
}
// * * * * * * * * * * * * * * * * * * * * * * * * * * * * * * * * * * * * * //

dimensions      [1 -1 -2 0 0 0 0];

internalField   nonuniform List<scalar> 
2222
(
1.037806218
1.038974521
1.036673451
1.038764896
1.047295647
1.047992696
1.04353357
0.5569398676
0.5475220553
0.5372570101
0.527313584
0.5287174617
0.531048791
0.5344428841
0.5365136086
0.5372704326
0.5369033961
0.5353853009
0.5328194067
0.5283483023
0.5215320591
0.5204229046
0.5217112629
0.5275067106
0.5423528131
0.5957031051
0.7586343131
0.9456191243
1.017398026
1.022201537
1.023689531
1.029306297
1.036875073
1.037411668
1.036567991
1.039079433
1.047485128
1.047725761
1.043139233
0.5426725184
0.5519369347
0.5575727592
0.5491053653
0.5386051547
0.5280569781
0.5286909381
0.5307316672
0.5343986738
0.5364853185
0.5374357297
0.5373715678
0.5363036901
0.5331760451
0.5294916454
0.5223821726
0.5203117904
0.5212551388
0.5262275438
0.5375304246
0.5770698027
0.7008065936
0.9084647859
1.015368004
1.022861188
1.022944259
1.02844972
1.033859836
1.036666029
1.037062579
1.039463098
1.047398664
1.047205788
1.042767639
0.5410442879
0.5504875371
0.5577368853
0.5506764512
0.5400499925
0.5288091052
0.528276009
0.5302924012
0.5340668253
0.5366410237
0.5380539948
0.5380452055
0.5366755655
0.533417278
0.5305030767
0.5235638945
0.5204924552
0.5209352205
0.5252911696
0.5341437547
0.5631361958
0.6597512934
0.8530930523
1.003528092
1.020121809
1.021287147
1.027233242
1.032284693
1.037325286
1.037689319
1.039244536
1.04588737
1.04720721
1.043300119
0.5393635058
0.548950952
0.5576810674
0.5520795443
0.5416677311
0.5297708083
0.5280039403
0.5302567653
0.5340880104
0.5370063846
0.5385613505
0.5385795055
0.5368744444
0.5339456139
0.5312702413
0.5247963521
0.5207484361
0.5207091704
0.5245036078
0.5314899001
0.552129191
0.6338976866
0.8079771853
0.9735732159
1.013410109
1.020048806
1.026693697
1.033079556
1.038777244
1.038146795
1.038733043
1.044410628
1.047784753
1.044117131
0.5379823481
0.5473673622
0.556830369
0.553378079
0.5433967698
0.5309499003
0.5280341068
0.5299849998
0.5340225261
0.5372484832
0.5387287652
0.5389839768
0.5376011315
0.5348522084
0.5319149615
0.5260438858
0.5210055599
0.5205371384
0.523850546
0.5295790262
0.5450912667
0.6036570155
0.7727241564
0.9503806176
1.008420316
1.020255718
1.026186342
1.034654172
1.040172058
1.038439949
1.038595763
1.04383699
1.048726088
1.04514205
1.039612117
0.5369238435
0.5458167287
0.5559005251
0.5544519981
0.545217041
0.5322362214
0.5281560116
0.5295389462
0.5335248814
0.5371305359
0.5388733487
0.5394684864
0.5387262573
0.5356764485
0.5325696218
0.5272762017
0.5215245173
0.5203371364
0.5234151692
0.5281956026
0.5392212311
0.5811061307
0.7205882962
0.9221166924
1.002678312
1.019917778
1.025498638
1.036355595
1.040887153
1.038752103
1.038865893
1.043976415
1.049513025
1.045980483
1.040367902
0.5360757127
0.5442589249
0.5545292877
0.5551931383
0.547092939
0.5335272349
0.5281371979
0.5295069451
0.5333626371
0.5370586308
0.5391054391
0.5399352523
0.5393230694
0.5362401637
0.5332810095
0.5284812078
0.5223652485
0.5202238571
0.5230532411
0.5272504955
0.5356061971
0.5666147317
0.6693384768
0.8696021382
0.9897965344
1.018447317
1.025821643
1.036472205
1.039737322
1.038092574
1.03882147
1.044394044
1.049873126
1.046377342
1.040992468
0.5353516256
0.5427708655
0.5530963783
0.555640496
0.549010721
0.5348281625
0.528231779
0.5291600581
0.5332365791
0.5371809371
0.5394518149
0.540371006
0.5396367258
0.5367176687
0.533867043
0.5295301237
0.5232994569
0.5202458373
0.5227488245
0.5266802286
0.5331179985
0.5549254048
0.6420021942
0.816503275
0.9660785607
1.012759532
1.026698818
1.03313888
1.037777658
1.037144426
1.03857391
1.044879815
1.04953537
1.045730813
1.040811731
0.5346182638
0.5413391902
0.5514003557
0.5562609459
0.5508984914
0.5360308599
0.5286961992
0.528991512
0.5330915987
0.5374013179
0.5395469762
0.5406596926
0.5401011023
0.5374668798
0.5343278568
0.5304498514
0.5243711171
0.5203890763
0.5224053148
0.5264744228
0.5313201712
0.5470067775
0.6156284701
0.788049929
0.9468572032
1.009629165
1.026864963
1.02957044
1.036708122
1.036874764
1.038467041
1.044648089
1.048383088
1.044445039
1.040019111
0.5337755232
0.5399758263
0.549621646
0.556283249
0.5527962563
0.5370980459
0.5290649305
0.5288872258
0.5323276192
0.5368449554
0.5396192837
0.5410571203
0.5409276421
0.5382676108
0.5348512495
0.5312691138
0.5255823902
0.5207603105
0.5220591662
0.5264560391
0.5301407169
0.5414074965
0.5868705451
0.7512759271
0.9361567999
1.009777472
1.022665728
1.026538251
1.035340441
1.036294314
1.038293583
1.04302935
1.047589595
1.044055232
1.039834421
0.5328704637
0.5386633641
0.5477633783
0.5558810454
0.5547816299
0.53820426
0.5294167002
0.5286538841
0.5317839498
0.5365128554
0.5398998221
0.5415378809
0.5414528454
0.5388990978
0.5357508771
0.5319495046
0.5267638533
0.5213237267
0.5216287049
0.5266671473
0.5293975858
0.5374695205
0.5702989083
0.6894673522
0.8982175378
1.001352246
1.016001211
1.025527759
1.035013691
1.035758445
1.038120783
1.041819658
1.047764838
1.044714172
1.04031104
0.5319318586
0.5374841478
0.545907578
0.5550061007
0.55655877
0.5395877641
0.5299469226
0.5286306203
0.5312636168
0.5364835717
0.5398922083
0.5417296251
0.5418463314
0.5397873547
0.5365527722
0.5326269877
0.5277961478
0.5218814512
0.5213178821
0.5263942301
0.5289591157
0.5349489738
0.5590790536
0.6462719561
0.8285173113
0.9706527188
1.012111204
1.025461845
1.034732335
1.034464443
1.037207991
1.041391162
1.048512676
1.045892784
1.040871495
0.5308133089
0.5364650019
0.5440708244
0.5536961468
0.5579342866
0.5412927022
0.5305852993
0.5286022301
0.5307165956
0.5364422629
0.5400935668
0.5420617824
0.5423563264
0.5404175365
0.5371777747
0.5333170904
0.5288612338
0.5229960298
0.5211495346
0.5263155131
0.5286291955
0.5330898592
0.5496004833
0.6232818102
0.775902022
0.9327380728
1.011225621
1.025507437
1.03346072
1.033898094
1.036865437
1.042030815
1.049425018
1.046760202
1.040776671
1.034403833
0.5299463417
0.535613761
0.5423330552
0.5519378612
0.5588936438
0.5431959357
0.5314934407
0.5285984824
0.5301934663
0.5354637923
0.539578151
0.5422294804
0.5429296336
0.540975671
0.537864125
0.5340245484
0.5297026429
0.5240527788
0.5210759475
0.5262310227
0.5285062913
0.531965156
0.5434908901
0.5966781286
0.7526978935
0.9144718552
1.009744529
1.024722586
1.033575514
1.033738806
1.036742678
1.042714528
1.049861678
1.046581166
1.040203795
1.035074341
0.5296516433
0.5348857067
0.5407317355
0.550011361
0.5595702103
0.5449945727
0.5325585783
0.5287264365
0.5297666147
0.5349420954
0.5391980414
0.5424390565
0.5433377358
0.5418611044
0.5386570842
0.5347640508
0.5304707575
0.5251009935
0.5211484904
0.526169114
0.5284841323
0.5311353037
0.5390806614
0.5756213158
0.7131397432
0.906455482
1.001178132
1.023879492
1.034606408
1.034255326
1.037080193
1.04248906
1.048419732
1.045354971
1.039628671
1.036291967
0.5299963083
0.5341304219
0.5392697963
0.5477211653
0.560009657
0.5465969032
0.5337149472
0.528803779
0.5294404889
0.5344448259
0.5389046287
0.5424807772
0.5436761458
0.5423907452
0.5394882673
0.5355918319
0.5311361717
0.5261182488
0.5213276202
0.5261506411
0.5287041495
0.5307187705
0.5365835419
0.5619998442
0.6626873214
0.8664544728
0.9827129307
1.023001339
1.03661183
1.034839448
1.037547937
1.041102583
1.046593567
1.044304517
1.040031855
1.03776692
0.5298173347
0.5333099609
0.5379133915
0.5454810635
0.5603878395
0.5478701298
0.5350902629
0.529073568
0.5292002994
0.5338666665
0.53869449
0.5425962607
0.5441815052
0.5429236859
0.5400625926
0.5364600722
0.5317678672
0.527207583
0.521644518
0.526178788
0.5284996411
0.5304970762
0.5347656387
0.5518306823
0.6306431853
0.8055123283
0.9685602823
1.022182662
1.037566082
1.033878079
1.035756115
1.03918738
1.045635594
1.044331053
1.040946511
1.03897807
0.5296259988
0.5327481976
0.5366300394
0.5428319991
0.5603139234
0.5489364848
0.5363841971
0.5292705719
0.5289931804
0.5333158317
0.538191846
0.5423770913
0.5443411282
0.5435041664
0.5406907524
0.5372224055
0.5323732015
0.5280429002
0.5220588554
0.5262992677
0.5284785607
0.530297888
0.5336280915
0.5457075179
0.6026456057
0.7647403772
0.9564417686
1.017474786
1.034879909
1.031460048
1.032897325
1.037831545
1.045952576
1.045570747
1.042260177
1.040282773
0.5293438519
0.5322506929
0.5355777843
0.5405486541
0.5606927398
0.5496375172
0.5378203576
0.5296262403
0.5288608868
0.5327266961
0.537927494
0.5423396692
0.5445933098
0.5439225583
0.5416891144
0.5379726399
0.5330451821
0.5290735008
0.5224602637
0.5264717426
0.5285407569
0.5303640631
0.5327892315
0.5412311495
0.5779836313
0.7229780941
0.9221575766
1.009050748
1.031705538
1.029844532
1.03138797
1.036440849
1.046953881
1.047346685
1.044296623
1.041626294
0.5272021504
0.5316481049
0.5348665514
0.5376590858
0.5596634099
0.5495354321
0.5387817379
0.5298773603
0.5287513186
0.5321084971
0.5379563472
0.5426477437
0.5449352253
0.544380788
0.5421944921
0.5387655589
0.5336892462
0.5298252146
0.5228605734
0.5267201852
0.5286853229
0.5304986698
0.5323972689
0.5384413611
0.5650053128
0.6758604545
0.8743985155
0.99471764
1.031770948
1.02978105
1.032018483
1.038933268
1.049363146
1.048211335
1.044244353
1.039584968
0.5072554319
0.5206827393
0.5324652665
0.5385469182
0.5619095363
0.5515682209
0.5398027309
0.530047891
0.529306754
0.5316160007
0.5373339684
0.542466446
0.5450590037
0.5449350638
0.5429255764
0.5399014359
0.5346130876
0.5307254068
0.5236254151
0.5271435676
0.5289248075
0.530727633
0.5320260603
0.5361759332
0.5511350522
0.6270671834
0.8076700643
0.9682762294
1.030932629
1.03003132
1.032600323
1.040117716
1.048762713
1.04657543
1.041864406
1.037373581
0.2894975295
0.337929911
0.3923695383
0.4454122284
0.4590065012
0.4635239872
0.4787060071
0.4963756312
0.5145195179
0.5294082952
0.5389876471
0.5457933007
0.5494964154
0.5499105402
0.5482773534
0.5457669464
0.5419045133
0.5374343031
0.534343898
0.5331653092
0.5357408566
0.537119614
0.5369526095
0.5357388942
0.5361783143
0.5511088444
0.6229345966
0.7766162876
0.9355460108
0.9777908812
1.019212181
1.034291821
1.040260509
1.042943147
1.039993887
1.035369227
1.034624392
0.2554974947
0.254930121
0.2563068732
0.2637173383
0.2757034765
0.2963811472
0.326283505
0.3614113113
0.4001466288
0.4384987906
0.4720865764
0.4935592837
0.5113115819
0.5231908575
0.524904858
0.527286864
0.5284258129
0.5316957508
0.5377235973
0.5454429441
0.5506487159
0.5502824112
0.5483290838
0.5434101511
0.5311801991
0.5258919481
0.5298162085
0.5628889405
0.6582590389
0.8064599337
0.9476237974
0.9958732119
1.019147482
1.031729591
1.029674284
1.02544599
1.032100702
0.2562042806
0.2560375788
0.2562065766
0.2557561258
0.2555641929
0.2556493734
0.2557964009
0.2569064497
0.260728382
0.2699879838
0.2873803642
0.3104748677
0.3396873667
0.3740498033
0.4096353041
0.4426571835
0.4741571118
0.5026014858
0.524255294
0.5367731529
0.5411839862
0.5403965092
0.5359211473
0.5282018841
0.5230695305
0.525477069
0.5319256612
0.5399224349
0.5540963805
0.6092438515
0.7048149995
0.829533758
0.9244630826
0.9932411589
0.9963209258
1.013793179
1.04270893
0.2575189483
0.2572092381
0.2571130424
0.2572331607
0.2574587745
0.2576199208
0.2576333083
0.2575342051
0.2574017551
0.2573594719
0.2573820028
0.2573770177
0.2578838384
0.2600902553
0.2660793548
0.27763122
0.2963147048
0.3196718197
0.3486069304
0.3785932666
0.40803665
0.4350972772
0.4595195248
0.4819777433
0.5022540586
0.5253995826
0.5338594603
0.5396712786
0.5397099188
0.5421950507
0.5552640528
0.6174248524
0.7153775147
0.8458206708
0.9293492213
1.003211402
1.035795452
0.2571736019
0.256929954
0.2568091179
0.257026187
0.2571638408
0.2572397495
0.2571946652
0.257090754
0.2569322602
0.2569029037
0.2569762159
0.2569342975
0.2570906922
0.257253743
0.2571299454
0.256702665
0.2561933537
0.256240523
0.2571288773
0.2602899977
0.2677014256
0.2809481427
0.3017059096
0.3288826491
0.3651111095
0.3977344696
0.4291932061
0.4532632867
0.4687815915
0.479034663
0.4938548789
0.5180521412
0.5653091074
0.6463785002
0.7733443471
0.8912923044
0.9700638224
0.2561017237
0.2559895421
0.2562960294
0.2566275448
0.2566259368
0.2566149352
0.2565040738
0.2563191976
0.2562490866
0.2563115083
0.2565558292
0.256656032
0.2566999755
0.2563852554
0.2558214489
0.2552237298
0.2552856878
0.2555596901
0.2558184421
0.2559259089
0.255889836
0.2557902658
0.2557964994
0.2560030979
0.2573565724
0.2613055782
0.271027843
0.2855848533
0.3073823663
0.3334439763
0.36192861
0.3879363646
0.418189283
0.4478356766
0.5157207477
0.6140047999
0.7455435856
0.2555850315
0.2560697862
0.2565177895
0.256564835
0.2564123662
0.2561287542
0.2555962667
0.2555053618
0.2558582253
0.2563573104
0.2566767521
0.2564134723
0.2555621515
0.2545036435
0.2538296996
0.2541409878
0.2548662941
0.2551848941
0.255030755
0.2549686435
0.2548895244
0.2547786085
0.2547217648
0.2545474236
0.254059311
0.2533128146
0.2526047811
0.2522770081
0.2519525361
0.2517557246
0.2524143023
0.2549581291
0.2589089793
0.2657261444
0.2779263872
0.305766619
0.3790634123
0.2537147585
0.2534866477
0.2529507014
0.2520701111
0.2513273117
0.2505554353
0.2506622399
0.2508988772
0.2508607577
0.2505552553
0.2499380946
0.2493843477
0.2487171625
0.2485619626
0.2486873851
0.2485716977
0.2481434453
0.2475308692
0.2471014319
0.2468448712
0.2466714636
0.246451981
0.2461877744
0.2459092193
0.2456641064
0.2454851501
0.2453863385
0.245221169
0.2450813992
0.2449326078
0.2447608075
0.2445367868
0.2443598264
0.2441462758
0.2440225027
0.2438019455
0.2440455286
0.2463256825
0.2460886855
0.2457418582
0.2453980845
0.2452295885
0.2451961793
0.2452034695
0.2451446664
0.2449666221
0.2446426873
0.2440933528
0.2438129415
0.2435220446
0.2431930633
0.242956362
0.2428210821
0.2427079762
0.242577783
0.2424650838
0.2424679319
0.2425276762
0.2425045841
0.2423737216
0.2421836014
0.242031532
0.2419242747
0.2418712253
0.2418316399
0.2418914262
0.241914084
0.2418917043
0.2418529261
0.2418388424
0.2418562064
0.2419209555
0.2419681647
0.241965878
0.2412161381
0.2414679616
0.2412524248
0.2410486987
0.2410336765
0.2411419624
0.241501209
0.2418240179
0.2417384581
0.2413433733
0.2409045841
0.2408957281
0.2408792313
0.2409007895
0.241040501
0.2411922596
0.2411840638
0.2410860696
0.2410004464
0.2410641444
0.2412963223
0.2413514218
0.2413184336
0.2412156393
0.241133969
0.2411648088
0.2412381725
0.2413842109
0.2415823982
0.2417251372
0.241753317
0.241801218
0.2419191519
0.2420804046
0.2422670198
0.2422657137
0.242210396
0.2423850596
0.2417297885
0.2412345789
0.2413263661
0.2415985896
0.2420021185
0.2424675429
0.2422862669
0.2419605497
0.241281878
0.2408492659
0.2409616864
0.241338631
0.2418216904
0.2423942958
0.2423543573
0.2423220752
0.242381844
0.2424265636
0.2423453609
0.2426077759
0.2429131356
0.242956426
0.2428615037
0.2430672869
0.2435602685
0.2441243387
0.2445848843
0.2448630278
0.2451511725
0.2454159674
0.2457380463
0.2459807767
0.2459644514
0.2458940143
0.2460036062
0.2463486082
0.2422508753
0.2410451352
0.2415243404
0.242563092
0.2441147058
0.2438889567
0.2430744322
0.2421627043
0.2425136033
0.2439763051
0.2455907726
0.2471134686
0.2468356735
0.2460870255
0.245225407
0.2451005109
0.2457624737
0.2472173923
0.2489524406
0.2500028969
0.2498461849
0.249498229
0.2495790014
0.2500953985
0.2508983135
0.2513128386
0.2515679509
0.2515579227
0.2515927568
0.2518977306
0.2524204078
0.252844743
0.2531526101
0.253362417
0.2535523955
0.2538239233
0.2541783604
0.2501787067
0.2535938007
0.2557685754
0.257433147
0.2571073923
0.2564543994
0.2565962083
0.2572667865
0.2578087718
0.2581792934
0.2580030302
0.2576156075
0.2566741016
0.2569956083
0.257744975
0.2587733538
0.2594801617
0.2599407837
0.259739622
0.2594112731
0.25900269
0.2588350582
0.2591123313
0.259558799
0.2596613114
0.2596537821
0.2598198551
0.2601821648
0.2607018499
0.2610615561
0.2613613709
0.2612813621
0.2611739662
0.2612371492
0.2612964523
0.261360924
0.2614876893
0.2704413651
0.2696282984
0.2679522331
0.2662842365
0.2641250659
0.2643758829
0.2647236483
0.2650444494
0.2646353046
0.2635800891
0.263534165
0.2640720208
0.2655283327
0.2671014983
0.2679951302
0.267786601
0.266771432
0.2655261224
0.2647827221
0.2651450346
0.2657428273
0.2668192322
0.2677101587
0.268449628
0.2684871982
0.2686233156
0.2690107711
0.2690353072
0.2688472308
0.2685004096
0.2683620817
0.2682429285
0.268338472
0.2684796935
0.2685549935
0.2686511682
0.2689094296
0.2893036482
0.2877067912
0.287814477
0.2887490456
0.2907925083
0.2915373175
0.2910103854
0.2903069251
0.2897577392
0.2887770887
0.2884611931
0.2885046045
0.2881749224
0.2869986503
0.2857248158
0.2845397927
0.2846160709
0.2851957539
0.2861034802
0.2862143827
0.285829854
0.2851194142
0.2840050851
0.28294426
0.2822901541
0.2819014239
0.281968599
0.2819385416
0.2814906433
0.281562871
0.2818348291
0.281993646
0.2819843893
0.2819848824
0.2818547591
0.2813969813
0.2808593161
0.3191295235
0.3183640438
0.316309221
0.313667996
0.3115546158
0.3093840537
0.3066142213
0.3044983776
0.3043369486
0.3032424083
0.301072645
0.3010471974
0.3011053691
0.3004659066
0.3008574988
0.3012247488
0.3007567333
0.2995070328
0.2983640427
0.2971070844
0.2963070525
0.2958940309
0.2960030073
0.2964157211
0.2966658172
0.2963487246
0.2960946969
0.2959060226
0.29536942
0.2946826992
0.2942734594
0.2938375868
0.2930677222
0.2925794121
0.2924919125
0.292025186
0.2918146441
0.3426191875
0.3395502462
0.3364664885
0.3310479481
0.3307384207
0.3316828432
0.3308321562
0.3288534902
0.328577129
0.3280107633
0.3254217993
0.3231325086
0.3226301569
0.321555107
0.3196249075
0.3183231579
0.316855415
0.3144332714
0.3141535783
0.3136485661
0.3130557062
0.312647923
0.3120255637
0.3110776007
0.3097102486
0.3083411051
0.3070405373
0.3067170058
0.306169655
0.3047184751
0.3045819038
0.3045493152
0.3039215432
0.3035174871
0.3035446239
0.3031642925
0.3022271097
0.3727198245
0.3702958709
0.3688650235
0.3644492781
0.3588716327
0.3566126138
0.3543958043
0.3497125952
0.3455221949
0.3444087631
0.3421123216
0.3375834505
0.3372190004
0.3368293143
0.3343037665
0.3336932733
0.3333278662
0.3316066828
0.3301935279
0.3295388058
0.3278779504
0.3256243925
0.3245281266
0.3235739389
0.3225925316
0.3214492491
0.3212344779
0.3213702601
0.3210250409
0.3195669704
0.318350846
0.3178224261
0.3168702785
0.3152507938
0.3144211403
0.3139159521
0.3125529506
0.402740915
0.3957481
0.3921720621
0.3884736854
0.379295566
0.3760710281
0.3761675774
0.3731237498
0.3684247561
0.3684848126
0.3676465654
0.3633776497
0.360374458
0.3590658251
0.3563706403
0.3535087267
0.3521650061
0.3498937241
0.3458228863
0.3444343729
0.3435426564
0.3414107291
0.3407477479
0.3403574693
0.3392755631
0.3370673338
0.3347801117
0.3334714819
0.3327407554
0.3311734843
0.3288769725
0.3286451754
0.3283821508
0.3268735813
0.3259950383
0.3257731439
0.3249939486
0.4344117908
0.4255489952
0.4215295328
0.4194611506
0.4129032101
0.4049069569
0.4027644653
0.3995854818
0.3924343634
0.3882234183
0.3864313583
0.3819361753
0.3759806777
0.3746927749
0.3728354822
0.3687319618
0.3678902398
0.3670556611
0.363642302
0.3615690323
0.3609259694
0.3589691022
0.3556498858
0.3533284296
0.3520614746
0.3507450149
0.3479531568
0.3470173649
0.3469411385
0.346220473
0.344050347
0.3428972332
0.342118279
0.3403967208
0.3383578417
0.3374239642
0.3362708208
0.4671904368
0.4576112775
0.4488769732
0.4453648187
0.4399065295
0.4281168857
0.4231812389
0.4217844092
0.4157105169
0.4098197173
0.4091414117
0.4068071109
0.4007369732
0.3982485728
0.3963065339
0.3917413591
0.3884260759
0.3865923991
0.3830884172
0.3784617121
0.376514436
0.3746077433
0.3711645684
0.369164909
0.3688552666
0.3678758879
0.3649283729
0.3616208819
0.3603110523
0.3590919309
0.3562072258
0.3537133733
0.3533284059
0.3522336665
0.349800732
0.3490914987
0.3485071647
0.5009667328
0.491634889
0.4787464126
0.4737518662
0.4704448801
0.4608065795
0.4521550581
0.4497602926
0.4446708272
0.4353702766
0.4315725075
0.4285773459
0.4216557219
0.4160234953
0.4133352478
0.4082799592
0.403219382
0.4023728814
0.4006829962
0.3962088874
0.3936005246
0.3923535689
0.3897753104
0.3856291578
0.3833343299
0.3820710113
0.3796288255
0.3747244571
0.3733916253
0.3731419401
0.3714527656
0.3684936625
0.3677941192
0.3669049639
0.3643197196
0.3623277279
0.3611372983
0.5356885801
0.5265682796
0.512352722
0.501871245
0.4984686797
0.4908793698
0.4775386603
0.4721773625
0.4680964715
0.4576666224
0.4523326211
0.4507969858
0.4459155045
0.439507939
0.4369021232
0.4330608071
0.4265678255
0.4238319251
0.4215183459
0.4169636663
0.4120221828
0.4091510634
0.4067446571
0.4021711098
0.3970501365
0.3964109657
0.3958543918
0.3929232966
0.3894535483
0.3879342947
0.3859258122
0.3819509749
0.379604574
0.3785757513
0.3759157531
0.3734398917
0.3729127208
0.5716327599
0.5618066422
0.5492587792
0.5322872069
0.5268177995
0.5216682776
0.508404731
0.5006069278
0.4973460277
0.4886896292
0.4787633676
0.4751893137
0.4701296823
0.4616419388
0.4568285389
0.4525885205
0.4450174378
0.4396774197
0.4371310256
0.4335839108
0.4291665277
0.425541903
0.4234616149
0.4211921531
0.416515202
0.4127518857
0.410856694
0.4076714437
0.4025189373
0.4008088462
0.39995463
0.39659726
0.3938866196
0.3932317899
0.3915985947
0.3884761863
0.3869145415
0.6094028119
0.5970775768
0.5865120574
0.56737933
0.5558791227
0.5513605213
0.5402660469
0.5269122349
0.5219262467
0.514629794
0.5017044558
0.4963542933
0.4923800936
0.484008564
0.4786447781
0.4754978265
0.4693367316
0.4631579427
0.4597469103
0.4558666604
0.4511346845
0.4459604924
0.4410505024
0.437904354
0.4337300205
0.4279047945
0.4257137237
0.4240908544
0.4194105235
0.4166532379
0.4157030581
0.4129662587
0.4084211759
0.406250201
0.404419688
0.4005996915
0.3982052952
0.6495273829
0.6327242657
0.6227814055
0.6064131327
0.5872554923
0.5809461016
0.5724772469
0.5563953146
0.5495417378
0.5442360621
0.5315858594
0.5233329987
0.5190184682
0.5104977626
0.5021188717
0.4976617782
0.4911778138
0.483083996
0.4777583249
0.4719575579
0.4664670985
0.4628661357
0.457780632
0.4538750872
0.4517476292
0.446610972
0.4420328458
0.4407987695
0.4377459481
0.432431242
0.4293295468
0.4264295779
0.4211707939
0.4196660224
0.4189338709
0.4161237279
0.4131479209
0.6917774722
0.6700514147
0.658040418
0.6455056686
0.6231978071
0.6114379975
0.6042040025
0.5881489557
0.5763630039
0.5712660917
0.5601975502
0.5472916429
0.541489732
0.5334488366
0.5230409035
0.5187291609
0.513603401
0.5051894919
0.50052068
0.4956593172
0.4882890464
0.4846268946
0.4805439124
0.4737305684
0.4698743901
0.4660798886
0.4590324928
0.4551020354
0.4524590247
0.447249721
0.4446107509
0.4434273738
0.4396890446
0.435529156
0.4330609519
0.4295105445
0.424736818
0.7349005573
0.7110143735
0.693171544
0.6823967082
0.6627857267
0.6437447728
0.6357871545
0.6223208558
0.6048571893
0.5985689806
0.59004536
0.5753395643
0.5686528788
0.5621278834
0.5499763601
0.5432028271
0.538025142
0.5281463341
0.5210425601
0.51653003
0.5080719695
0.500752064
0.497214228
0.4905311242
0.4839759204
0.4823562642
0.4783438257
0.4726484808
0.4700170785
0.4654997837
0.4603465115
0.4581041019
0.4546713551
0.4495333571
0.4470505476
0.4443644083
0.4391933328
0.777900846
0.7552406198
0.7304984332
0.7176858653
0.7023605821
0.6790321005
0.6675193339
0.6567206741
0.6366327215
0.6261715489
0.619057512
0.603841726
0.5931690728
0.5870836775
0.5749604178
0.5642461105
0.5595679119
0.5509008744
0.54085716
0.5373865397
0.53152119
0.5216649375
0.5185605814
0.5147839948
0.5062403223
0.5017277351
0.4979919759
0.490682937
0.4862029572
0.4828391065
0.4767391836
0.4726662692
0.4692759381
0.4634708637
0.4616510687
0.4603626493
0.456285887
0.8205728869
0.7995424331
0.7725249861
0.7532001341
0.7398751183
0.7173334049
0.6997606827
0.6899979061
0.6717563754
0.6550031559
0.6477707727
0.6347036227
0.619622191
0.6135291544
0.6038266392
0.5897935271
0.5845779835
0.5781348078
0.565457931
0.5591511075
0.5544044999
0.5435565479
0.5359803352
0.5325565695
0.524751277
0.5165237388
0.513605827
0.5080700452
0.5015057497
0.4991362434
0.4948478074
0.4900765713
0.4871140658
0.4817314784
0.4761823451
0.473371149
0.4691628085
0.8632350314
0.8416365715
0.817390668
0.7912999624
0.7760853251
0.7570268642
0.7336751637
0.7221330226
0.7076928216
0.6864845148
0.6765427729
0.6659173318
0.6475448391
0.6387181117
0.6313150743
0.6159065988
0.6061199485
0.6005434379
0.5888124461
0.5783678366
0.574771849
0.5673820336
0.5561293285
0.5524333062
0.5475604921
0.5377417939
0.5339695229
0.5303223561
0.5224228981
0.5170455658
0.5121989142
0.5053129155
0.5016767902
0.4978575209
0.4918730843
0.4887780287
0.4855049099
0.905713548
0.8816744128
0.8602315574
0.8331005319
0.8124215665
0.7957968332
0.7710981626
0.7541737392
0.741954969
0.720813645
0.7057763303
0.6965587439
0.6788518297
0.6645263055
0.6580098974
0.6451904805
0.6310236249
0.6254858627
0.6165836918
0.6027280952
0.5972661181
0.5915626459
0.5792515764
0.5720115939
0.56785115
0.5581035363
0.5495699498
0.5459558499
0.5390183546
0.5320730913
0.5287437569
0.5227009529
0.5174362445
0.5143938553
0.5087574161
0.5044931359
0.5018159814
0.9446906313
0.9207018093
0.8992829129
0.8755567772
0.8501877091
0.8326808499
0.8109368273
0.787997516
0.7748515721
0.7566102392
0.7360007268
0.7260788932
0.711990982
0.6925936144
0.6840362909
0.6739206607
0.6564949247
0.6482019235
0.6414512215
0.6271500144
0.6170668373
0.6120832928
0.6017376749
0.59066077
0.5872369482
0.5810157982
0.5699650149
0.5658534528
0.5611038243
0.5523913186
0.5479582729
0.5430407228
0.5356009813
0.5310157155
0.5253866861
0.5185127409
0.5153661698
0.9746344327
0.9561934843
0.9352857479
0.9146458081
0.889677521
0.8684955904
0.8495366973
0.8247378088
0.8075247162
0.7921504451
0.7691012628
0.7550210075
0.7437300247
0.7236369369
0.7104277982
0.7020944817
0.6856796918
0.6722025809
0.6661094193
0.6545601148
0.6406364132
0.6353829971
0.6279153017
0.6141792081
0.607725967
0.6026600058
0.5912205675
0.5834015748
0.5792467513
0.5702134773
0.5623471091
0.5584848342
0.5517223947
0.5462372676
0.542401483
0.5356859897
0.5313240623
0.9921341747
0.9818167267
0.9664053188
0.9485419636
0.9277586101
0.9045881565
0.8855886364
0.8630586199
0.8408665464
0.8259136207
0.8051688001
0.7850359181
0.7737917126
0.7565418922
0.7377657365
0.7289531521
0.7160135659
0.6980670916
0.6898799787
0.6807903243
0.6643960795
0.6557099823
0.6498903219
0.6371751322
0.6263671293
0.6221164815
0.6135253107
0.6019586923
0.5980975756
0.5921496047
0.5820556762
0.5779923592
0.5727642019
0.5649283388
0.56026079
0.5541167896
0.5474490294
0.9986381618
0.9949630756
0.9873928324
0.9751970831
0.9596575163
0.9397027214
0.9196350583
0.9000344631
0.8762331913
0.8582439738
0.8408388343
0.8177126672
0.8032018003
0.7892570445
0.7679331246
0.7553574719
0.744998271
0.7264890904
0.7139941227
0.7066860204
0.6923092002
0.6784488248
0.6727724554
0.6631425892
0.648794226
0.6433150453
0.6372937808
0.624277624
0.6168966074
0.6121836551
0.6016661987
0.5938371618
0.5891910522
0.5805697342
0.5741790908
0.5697583614
0.5630025438
0.9998870773
0.9991905636
0.9969027591
0.991524713
0.9822231797
0.9687314306
0.9510797611
0.9332462141
0.9123507176
0.8908730755
0.8741996487
0.8527749193
0.8330585879
0.8200373817
0.8007848166
0.782629296
0.7725116036
0.7570495708
0.7392917978
0.7308439597
0.7199180794
0.7026987448
0.6941212077
0.686973543
0.672253594
0.6618463565
0.6567756976
0.6461019456
0.6345602326
0.6306427438
0.6233702864
0.6123539855
0.6080269838
0.6018996845
0.5935300754
0.5887478846
0.5820103651
0.9999959649
0.9999316743
0.9995476044
0.9981358557
0.9944761685
0.9875223092
0.9762394492
0.9614698847
0.944759297
0.924147275
0.9057469428
0.8874331233
0.8650809673
0.8494620132
0.833524909
0.8123949932
0.7991972488
0.786759606
0.7677615908
0.7550213022
0.745975363
0.7300317659
0.716302497
0.7099733293
0.6988086488
0.6840577669
0.6780710161
0.670526833
0.6564795526
0.6499630907
0.6446706471
0.632706652
0.6250717784
0.6201902951
0.6110836195
0.6041435652
0.5980054314
0.9999999428
0.9999970782
0.9999636729
0.9997540585
0.9989054537
0.9965015525
0.991404985
0.9824611123
0.9702879131
0.9545486213
0.9360716655
0.9191357932
0.8987822453
0.8792184423
0.8642255428
0.8445865963
0.8266829686
0.8145092229
0.7978913261
0.7804842114
0.7706306774
0.758406538
0.7409961027
0.7315737659
0.7230756029
0.7072949936
0.6972393443
0.6916629421
0.6794604956
0.6676468174
0.6628431157
0.6537734429
0.6424622228
0.6379574079
0.6307290031
0.6222438926
0.6176360533
0.9999999997
0.9999999371
0.9999984588
0.9999817341
0.9998701795
0.9993755962
0.9978413337
0.9942165875
0.9874489351
0.9774027228
0.9632628542
0.9473961725
0.9304540782
0.9102901988
0.8934757505
0.8763985435
0.8563208118
0.8415010547
0.8273938352
0.8089069935
0.7948550423
0.7844369133
0.7685852401
0.7540900853
0.7463415658
0.7338569813
0.7184841045
0.7123070021
0.7038908045
0.6892094912
0.6826082872
0.6764374013
0.6639221301
0.6565097847
)
;

boundaryField
{
    inlet
    {
        type            fixedValue;
        value           nonuniform 0();
    }
    outlet
    {
        type            zeroGradient;
    }
    bottom
    {
        type            slip;
    }
    top
    {
        type            slip;
    }
    obstacle
    {
        type            zeroGradient;
    }
    defaultFaces
    {
        type            empty;
    }
    procBoundary27to14
    {
        type            processor;
        value           nonuniform List<scalar> 2(0.2558965709 0.2558208114);
    }
    procBoundary27to20
    {
        type            processor;
        value           nonuniform List<scalar> 
34
(
0.2558357495
0.2577346025
0.2574972664
0.2562548661
0.2552337419
0.2536397069
0.2464730272
0.2405785682
0.2420662046
0.2439872801
0.2490450018
0.2710073838
0.2906243233
0.3193715239
0.3462079545
0.3760229773
0.4064336763
0.4384113944
0.4717524465