/*--------------------------------*- C++ -*----------------------------------*\
  =========                 |
  \\      /  F ield         | OpenFOAM: The Open Source CFD Toolbox
   \\    /   O peration     | Website:  https://openfoam.org
    \\  /    A nd           | Version:  7
     \\/     M anipulation  |
\*---------------------------------------------------------------------------*/
FoamFile
{
    version     2.0;
    format      ascii;
    class       volScalarField;
    location    "2";
    object      p;
}
// * * * * * * * * * * * * * * * * * * * * * * * * * * * * * * * * * * * * * //

dimensions      [1 -1 -2 0 0 0 0];

internalField   nonuniform List<scalar> 
2222
(
1.12925419
1.108021364
1.085310222
1.062926432
1.042148866
1.028695793
1.016060284
1.001415592
0.9869002903
0.9710079668
0.9547157328
0.9371407442
0.9201457062
0.9031482989
0.8863182688
0.8709951944
0.8569664797
0.8352460965
1.455074818
1.424751296
1.400999413
1.37777915
1.353254952
1.328314721
1.302708855
1.276455184
1.250635404
1.226626641
1.204813096
1.184225527
1.164584443
1.143485543
1.120458082
1.096440228
1.075142114
1.056752736
1.038248645
1.022394808
1.009290557
1.000657533
0.9880498562
0.9716516267
0.9529485942
0.9336755541
0.9167438181
0.901010695
0.8850575234
0.8697055343
0.852350618
0.8279337788
1.442965136
1.416692734
1.38911247
1.362544615
1.33613142
1.310335199
1.285490084
1.263413131
1.242498119
1.221749987
1.201903411
1.181177304
1.160855182
1.139112677
1.115359806
1.091608166
1.069968345
1.049085059
1.032040688
1.018113695
1.004926933
0.9907911572
0.9757275465
0.9603238397
0.9478463228
0.9323152197
0.91591395
0.8986192843
0.8803513335
0.8631911732
0.8470815444
0.8260058686
1.425427719
1.400404823
1.380007046
1.356719668
1.329851108
1.303336683
1.278266274
1.253851098
1.229337206
1.207679919
1.190067286
1.176936138
1.160008696
1.137632389
1.113231587
1.090421717
1.06814773
1.046399205
1.028678924
1.012904236
0.9975698494
0.9809952081
0.9652077571
0.9507156284
0.9376039711
0.9240264368
0.9124070164
0.8966296177
0.8774635296
0.859565305
0.8433673099
0.8201953708
1.422274949
1.398159851
1.372151899
1.344158575
1.313754368
1.284555139
1.258142415
1.235794357
1.218158352
1.203520769
1.187445457
1.168440275
1.147635569
1.125395439
1.102601181
1.080171128
1.058863898
1.043856642
1.027553712
1.0107153
0.9938555438
0.9778985827
0.9618585568
0.9459508497
0.9326450299
0.9198397651
0.906113675
0.8899873517
0.8718922271
0.8531675192
0.8380591012
0.8176631411
1.411058363
1.391926176
1.367063453
1.33866173
1.308325062
1.279480168
1.253524437
1.232483679
1.213814114
1.194155353
1.174669141
1.152550021
1.130595607
1.110730736
1.092356214
1.073760646
1.055377806
1.036886131
1.018128323
1.000678427
0.9816856879
0.9640410704
0.9521923605
0.94021996
0.9274752666
0.9152183423
0.9013098441
0.8857703433
0.8678076449
0.8499911923
0.8361219341
0.8140607553
1.404672979
1.375447136
1.344516925
1.31646066
1.290059178
1.266217143
1.243844938
1.222867435
1.204887561
1.185841669
1.165560175
1.14535881
1.125416261
1.1075532
1.090754223
1.072029985
1.052808626
1.033250996
1.011843807
0.9928188031
0.9757821843
0.9603808238
0.9447298677
0.933002034
0.9245131066
0.9144897075
0.9007168087
0.8846068506
0.8652777306
0.8477079454
0.833346408
0.8120615604
1.382891174
1.360334368
1.332279221
1.304023295
1.278392184
1.255784601
1.232085119
1.212384928
1.190330945
1.165550932
1.142815658
1.124104062
1.108198493
1.094639082
1.080315119
1.065690144
1.05133842
1.032160535
1.00969502
0.9888932084
0.9686731012
0.9512181184
0.9386624084
0.9292297471
0.9176257523
0.905251598
0.8924513572
0.8813104554
0.8632706497
0.8464100059
0.8315609004
0.8133920245
1.35813244
1.335832582
1.318678453
1.299648274
1.277728581
1.254880173
1.230015107
1.204784593
1.183154584
1.160677084
1.1377689
1.119108055
1.103605228
1.090968619
1.077329486
1.06435901
1.048110415
1.029812511
1.009754702
0.9890138959
0.9679671862
0.949423468
0.9333179155
0.9222643267
0.9095847491
0.8972603141
0.8843465928
0.8722866411
0.8593795844
0.8442787342
0.8308836356
0.8496580984
1.345585014
1.322858323
1.299542773
1.284890341
1.268224442
1.248222876
1.227109788
1.202577913
1.174880401
1.148382753
1.121978357
1.101592593
1.089078767
1.078613064
1.066239034
1.053233932
1.038127911
1.020599583
1.000777082
0.979755808
0.9590083315
0.9403209158
0.9287183001
0.9191786129
0.9074972934
0.895747704
0.8775629298
0.8635889318
0.8516901043
0.8441369271
0.8618134002
1.077238465
1.317808311
1.299137929
1.289080712
1.276017877
1.261649482
1.243147318
1.220998077
1.195355223
1.169890881
1.142163295
1.116768374
1.096319409
1.083010953
1.072435702
1.061511059
1.048032178
1.032546925
1.013694117
0.9948504301
0.9741337848
0.955703645
0.9369837796
0.9238584219
0.9100095845
0.8965940466
0.8813378838
0.8719670301
0.8600667446
0.8677142697
0.9456773585
1.135261352
1.411504999
1.311733467
1.286000637
1.265403644
1.259649175
1.249717621
1.229337639
1.204009564
1.177694045
1.154800205
1.129487479
1.104948619
1.084815915
1.071820138
1.059984842
1.048409936
1.033747734
1.019438301
1.001677358
0.9861218967
0.9685019391
0.954668162
0.9371002436
0.9224760102
0.9034446201
0.893441294
0.8765713087
0.8776003224
0.9287660518
1.099187472
1.350419323
1.544861783
1.592829926
1.303974153
1.280087426
1.260064608
1.241722847
1.225318007
1.209455898
1.193274574
1.172511524
1.151557616
1.126680768
1.102164507
1.082870058
1.068224389
1.052313667
1.039016428
1.024924482
1.012543288
0.9974188461
0.9817813006
0.9625926035
0.9491437782
0.9305566017
0.917974024
0.9007500555
0.8953769718
0.9325425596
1.073958804
1.329066733
1.55825243
1.595566246
1.610151338
1.597544084
1.301583997
1.273112689
1.250985488
1.233981211
1.216804052
1.192481562
1.171198517
1.152564004
1.136243872
1.117142786
1.099059275
1.075804761
1.062681171
1.049702879
1.034232319
1.014521395
0.9987309206
0.9834597465
0.9736974594
0.9572113791
0.9456592627
0.929744935
0.9196189606
0.9545732837
1.093290443
1.322732679
1.545777584
1.598015385
1.635312914
1.61595659
1.604599553
1.586022805
1.295120012
1.269925693
1.241022674
1.215350864
1.196275445
1.179633746
1.161104015
1.144140442
1.129878657
1.112713759
1.092747542
1.073101675
1.055428417
1.037411311
1.020753984
1.003608824
0.9918487644
0.9735045667
0.963853953
0.9546627172
0.9462601796
0.9800203143
1.114440523
1.347347621
1.551701831
1.641742187
1.6746916
1.652926004
1.644675033
1.62545224
1.607587639
1.583430875
1.286701697
1.264752624
1.237281071
1.209971706
1.184965255
1.159656254
1.140857614
1.124709722
1.116107113
1.106935541
1.089230364
1.068919231
1.053283887
1.034054576
1.016242921
0.9945294892
0.9828890707
0.9704299443
0.9652106926
1.004609416
1.150722176
1.399688735
1.602529335
1.715535137
1.737717233
1.748533407
1.731685366
1.702023121
1.676367112
1.659503082
1.636595782
1.597782649
1.266590907
1.24831346
1.224414321
1.198078776
1.176295027
1.152920195
1.129777562
1.114805931
1.100885002
1.088681893
1.079332326
1.062527451
1.044515801
1.025177662
1.00945975
0.9890483974
0.9870034701
1.050141581
1.22504362
1.47330421
1.68194968
1.764093338
1.778519783
1.80752666
1.803819419
1.790312109
1.764745546
1.735224369
1.708172873
1.687267508
1.66456627
1.623730687
1.253602057
1.239745165
1.218477969
1.192534641
1.166352191
1.141656985
1.116634779
1.101497076
1.09376139
1.084161108
1.062345043
1.053836491
1.041898011
1.021524488
1.026564858
1.113038961
1.309124669
1.571240604
1.75911934
1.830059505
1.83417689
1.846319601
1.840520618
1.83418625
1.815316351
1.78979116
1.761829971
1.736413123
1.713656614
1.691202229
1.668098222
1.638335976
1.23378216
1.22350268
1.206069009
1.180927357
1.156547401
1.128776731
1.100692552
1.085050685
1.073167663
1.068458926
1.058234298
1.046380868
1.076918828
1.200835522
1.442167526
1.685627247
1.860034309
1.884678878
1.892776628
1.902423045
1.890733995
1.883912019
1.86646238
1.835290301
1.807553579
1.780641693
1.754017754
1.729575472
1.710184565
1.68966005
1.668143992
1.640253276
1.211314125
1.206137273
1.194666005
1.174384767
1.151049955
1.12828593
1.097549362
1.07928446
1.065047227
1.073199864
1.153687422
1.332912734
1.601795461
1.819884384
1.920127952
1.973321772
2.001548442
1.98768865
1.94749165
1.932333592
1.9194428
1.898156348
1.868982858
1.829229371
1.793141354
1.76616247
1.743844716
1.720597925
1.704993314
1.687997214
1.667929585
1.640267637
1.191601412
1.181090156
1.177590411
1.162245246
1.144240119
1.112187034
1.10489263
1.163846827
1.319738884
1.570906487
1.8435859
2.009204629
2.046190181
2.078778926
2.075078037
2.048722646
2.020213085
2.000574694
1.978320436
1.952913983
1.930491352
1.901355422
1.864862829
1.821945971
1.787525325
1.763330986
1.742384983
1.719105184
1.70570373
1.690040319
1.671070768
1.642741669
1.166564415
1.168129221
1.158347167
1.146257545
1.201312636
1.377336883
1.627110707
1.891400718
2.068702159
2.107070185
2.132940707
2.150635561
2.138363079
2.110653499
2.088727066
2.053647591
2.022349387
2.005865956
1.987602418
1.963612894
1.933755134
1.898862943
1.860821987
1.822155593
1.789456498
1.768806135
1.749708916
1.726086336
1.71234807
1.697857977
1.681436667
1.651291394
1.172295955
1.243557147
1.403119289
1.6527739
1.957872625
2.195278912
2.264033083
2.239138079
2.23777868
2.214667908
2.16637072
2.159184474
2.147029285
2.125458992
2.100259267
2.060177402
2.020351546
2.006157295
1.988370657
1.960111778
1.926562318
1.894738671
1.862358411
1.830614239
1.807249719
1.794484295
1.776278873
1.749562552
1.731780841
1.718161332
1.704556968
1.668811477
1.907559072
2.092766374
2.213145106
2.315861018
2.352769198
2.353055464
2.328254651
2.267186229
2.243415862
2.236092806
2.202348115
2.174298637
2.149212238
2.130163561
2.10886906
2.069375255
2.026776913
2.002860219
1.979958224
1.951403207
1.920281611
1.895110677
1.868631611
1.849427477
1.837543019
1.82786559
1.808472246
1.78080996
1.758956487
1.743847539
1.728783399
1.691122101
2.497563148
2.490490943
2.464717633
2.424946664
2.360391336
2.347010536
2.330056276
2.28637645
2.260265183
2.248172572
2.22270416
2.181790848
2.150618234
2.133670187
2.111584656
2.075121826
2.034124276
2.003098194
1.97690881
1.949291583
1.920546157
1.899507615
1.882218736
1.868584817
1.8540913
1.838702978
1.817251146
1.792814139
1.770671051
1.75395156
1.734835001
1.689976178
2.564059992
2.50612086
2.471728051
2.430325233
2.367955051
2.349582975
2.338713122
2.314291603
2.285844084
2.260748226
2.229394688
2.189037613
2.160109015
2.137904756
2.115845263
2.081850932
2.039299153
2.00650746
1.980055108
1.954933145
1.930497174
1.913908634
1.898920467
1.881292036
1.85896415
1.838052501
1.816863335
1.795836795
1.774130726
1.757042417
1.732136034
1.683712704
2.586488163
2.525111249
2.481296609
2.45080824
2.398408981
2.364842323
2.352434494
2.337401316
2.308604091
2.270782551
2.235012918
2.202469176
2.174108611
2.149467833
2.121237314
2.085129322
2.04986467
2.02085633
1.995405393
1.97182992
1.95187268
1.934417259
1.916150053
1.885971713
1.858143735
1.83579867
1.816198099
1.798992507
1.77836794
1.756980208
1.726010676
1.675072637
2.596801312
2.547544676
2.50380015
2.472430098
2.432399208
2.395404789
2.376945493
2.356332495
2.322696617
2.278293324
2.246776744
2.220178306
2.191015416
2.159569806
2.131235843
2.102195618
2.073753522
2.043407446
2.015964773
1.989748551
1.969637391
1.949183914
1.921975648
1.888567549
1.861119304
1.839296033
1.820337067
1.801495508
1.778908271
1.754601869
1.721821783
1.673214269
2.601907558
2.570017274
2.528988462
2.490846869
2.446732012
2.405949832
2.379954395
2.359198752
2.330767682
2.294732412
2.261870078
2.235292162
2.208531145
2.179251958
2.148818179
2.119098747
2.087533519
2.057831831
2.030187443
2.000981652
1.979702983
1.954366765
1.92738154
1.89537039
1.868191998
1.84668987
1.825098603
1.802182739
1.775031617
1.749629623
1.71966307
1.676033053
2.607478317
2.58691418
2.551258192
2.503376324
2.452195311
2.410173483
2.383747756
2.364006591
2.346124151
2.313229773
2.273788622
2.242207196
2.211945407
2.179111158
2.154270647
2.123320585
2.093852404
2.066337614
2.038202648
2.007656731
1.97977981
1.958633661
1.93548064
1.907656065
1.881979681
1.858005843
1.832742697
1.809090547
1.77368772
1.74563523
1.723504721
1.689164818
2.629828523
2.605835102
2.568694259
2.510603139
2.458397391
2.416628435
2.391345441
2.383313222
2.368956514
2.339103208
2.298346404
2.255646903
2.214639165
2.179663214
2.155012107
2.135959071
2.105620267
2.07203089
2.037261284
2.00556415
1.983797838
1.967386726
1.950370843
1.926130296
1.90012162
1.87582256
1.846773916
1.804735338
1.772158073
1.748655089
1.737297842
1.716081865
2.632167194
2.600935306
2.559527837
2.507750679
2.459451239
2.424180662
2.40249398
2.396904505
2.375803915
2.337825377
2.289274381
2.245143048
2.211345003
2.183903977
2.166316811
2.142583807
2.109842532
2.071641519
2.03641539
2.006448402
1.987463238
1.973925132
1.958694419
1.935899134
1.909392796
1.885773732
1.843994767
1.802372717
1.776532964
1.752657826
1.750181187
1.732431363
2.631255386
2.598440535
2.557012027
2.505233423
2.459459069
2.426548343
2.405771505
2.399114574
2.374952982
2.33500473
2.285959431
2.243640305
2.211096261
2.186015953
2.167969162
2.142901716
2.108305541
2.070058479
2.036665448
2.008096729
1.990349517
1.976555531
1.960964426
1.937852254
1.911295239
1.88249317
1.842446061
1.801703278
1.776798646
1.755652875
1.755248127
1.737345045
2.630092643
2.596977706
2.555296039
2.505211694
2.459976014
2.427381965
2.408718109
2.40036456
2.373773498
2.33209976
2.28495239
2.243963864
2.211629884
2.187892075
2.169089323
2.1424069
2.106706393
2.068552558
2.037066974
2.009890478
1.993253269
1.97986093
1.963821782
1.940110166
1.914345454
1.880349054
1.840947682
1.799741059
1.776575047
1.758595313
1.760324079
1.743192838
2.627811259
2.594190595
2.553480157
2.505456632
2.459280525
2.432434439
2.41191879
2.400786823
2.370824886
2.327777646
2.282448297
2.244035129
2.211783031
2.189412899
2.169661106
2.14153517
2.104727159
2.066851737
2.037248054
2.011967582
1.996436766
1.983209344
1.966623166
1.942474087
1.915724664
1.877934165
1.837953005
1.798191886
1.777123979
1.761720032
1.765370019
1.749550262
2.625277847
2.590979919
2.552307271
2.506528155
2.465334236
2.437667724
2.414608908
2.398717912
2.366846799
2.32391261
2.281351709
2.245164405
2.212434678
2.188944559
2.169537298
2.140323698
2.102537005
2.065509054
2.037143512
2.013107283
1.998957259
1.986378441
1.969642172
1.945457629
1.915844555
1.875759086
1.83656129
1.798854326
1.778336271
1.764786733
1.770058806
1.756152737
2.619969617
2.587972588
2.553369373
2.507222171
2.470886646
2.442441588
2.416115756
2.395894561
2.36225848
2.320146387
2.281242424
2.246635899
2.213936444
2.191605538
2.168997235
2.13894859
2.100783343
2.064422584
2.037008401
2.013695903
2.000982533
1.989073261
1.972321998
1.948147947
1.915313287
1.875601329
1.83494532
1.799437734
1.780249897
1.767919535
1.774364656
1.762253364
2.616622984
2.586930209
2.55708445
2.515521055
2.478641341
2.445815692
2.417482102
2.39299559
2.357739534
2.31700944
2.281818956
2.247735614
2.213667508
2.192554392
2.167953969
2.137526064
2.099693989
2.063986306
2.037081681
2.014370826
2.002572618
1.990722749
1.974090626
1.951367149
1.915060683
1.874320536
1.832794491
1.799787051
1.782032445
1.771276515
1.778526497
1.767500424
2.615704715
2.587595341
2.562880871
2.52276546
2.485533913
2.448468714
2.417582729
2.389000229
2.351091625
2.314653387
2.281755811
2.250526154
2.218680062
2.192983766
2.16647793
2.1358363
2.098748611
2.064399857
2.037703469
2.015124921
2.004369828
1.992305133
1.976128289
1.950118353
1.912845244
1.871092153
1.8310303
1.800563343
1.784232264
1.775266954
1.78293468
1.77199086
2.617255592
2.592301335
2.568214617
2.528598948
2.48993595
2.451168681
2.416958334
2.382326909
2.344834323
2.314326871
2.282779007
2.25415472
2.222950843
2.19356225
2.164996153
2.133964573
2.098149236
2.065241301
2.038743124
2.016564312
2.005614216
1.9923355
1.974609178
1.948087732
1.909615653
1.86846202
1.829886396
1.801812883
1.787226164
1.780137195
1.787858848
1.776356752
2.618959819
2.599238458
2.572011327
2.532421525
2.493203046
2.453079636
2.41501755
2.37753492
2.341399764
2.313716569
2.285068995
2.259397014
2.227717049
2.193766735
2.163553984
2.13233787
2.098170778
2.066513257
2.040229104
2.018952195
2.007159569
1.992324949
1.973324752
1.944904535
1.906143087
1.866036139
1.829493243
1.80413752
1.791124374
1.785689439
1.793038953
1.780797224
2.624352475
2.60344525
2.575193435
2.537038711
2.495856127
2.453906249
2.413181963
2.373190234
2.337359243
2.313530611
2.289860808
2.264317646
2.230734423
2.193236394
2.162130895
2.131284939
2.0987564
2.068547421
2.042272721
2.022215971
2.008318453
1.991326586
1.970818281
1.940578898
1.9023878
1.863900531
1.829977767
1.807036894
1.796030574
1.791805778
1.798030029
1.784859583
2.628179545
2.605485739
2.576607604
2.539200046
2.497698375
2.452464918
2.410002854
2.366321519
2.333760021
2.314960344
2.294254627
2.268002715
2.231270093
2.191719219
2.160678088
2.131168975
2.099937386
2.071354626
2.044939408
2.025926086
2.009691364
1.990529356
1.967401541
1.935847713
1.898011187
1.8620902
1.831024021
1.810858161
1.802056943
1.798210156
1.802659434
1.788377054
2.632818513
2.607296336
2.576166419
2.538371641
2.497003167
2.451243627
2.407408666
2.36276172
2.334258778
2.318745761
2.298231361
2.270054902
2.230533396
2.189230452
2.159209715
2.131753786
2.101851824
2.074840238
2.048335249
2.029339844
2.010975432
1.990904022
1.9647676
1.930743727
1.894279153
1.860042886
1.83293069
1.815528415
1.808960374
1.804416946
1.806769662
1.791311352
2.636789886
2.608490104
2.574948218
2.53735858
2.496185451
2.449704692
2.405039663
2.362754664
2.336361772
2.322939361
2.301909607
2.270262477
2.227641266
2.186123993
2.158328364
2.132848821
2.10472215
2.079411336
2.05245724
2.032349211
2.012231247
1.989443642
1.960093257
1.924884089
1.890745556
1.859075228
1.835769577
1.820829178
1.815889628
1.810487624
1.810700298
1.793827626
2.639585897
2.609171733
2.57393497
2.536811048
2.495320423
2.448239519
2.40268051
2.362017708
2.337286482
2.328567962
2.304912774
2.268332069
2.223740293
2.183631586
2.158175424
2.134778832
2.108893661
2.084884608
2.056823464
2.035542779
2.013865114
1.987156613
1.954775469
1.919279167
1.88725293
1.859470607
1.83976797
1.826728146
1.822715465
1.81690434
1.814609488
1.796289225
2.641212235
2.609403678
2.574351431
2.537612459
2.494968608
2.446297648
2.399295849
2.360307443
2.341722265
2.334628054
2.307475587
2.265804879
2.220646206
2.182283421
2.15812438
2.137602121
2.114339299
2.090878597
2.061594428
2.038777142
2.014654708
1.985143579
1.949027624
1.913215229
1.88590901
1.861629639
1.844617111
1.833076812
1.829140215
1.823601447
1.818229289
1.798201824
2.669475548
2.641560358
2.608963043
2.57581548
2.539918977
2.495225667
2.443382706
2.394131341
2.360087953
2.34583998
2.340019513
2.309877126
2.264763565
2.218812751
2.180964861
2.157988342
2.141194351
2.120614941
2.097273279
2.06743519
2.040996049
2.013100742
1.980827941
1.943205116
1.909859864
1.886077069
1.864990873
1.849699911
1.839353265
1.834509885
1.829908574
1.821905265
1.799623994
2.665440612
2.639794431
2.614155774
2.580054646
2.541553257
2.496973758
2.438741932
2.38915592
2.361439385
2.351789072
2.345322633
2.312245317
2.264298467
2.217563888
2.179507177
2.158658594
2.145150875
2.127226589
2.104424346
2.073955994
2.042567675
2.011349773
1.976545372
1.938861594
1.906641393
1.886145735
1.868440335
1.854740317
1.845235291
1.838970463
1.834992426
1.825535024
1.800918389
2.656773294
2.638130808
2.620191892
2.584663647
2.542267257
2.490731493
2.433114776
2.385812332
2.363251726
2.358053925
2.349511625
2.31423042
2.264002297
2.215996586
2.179473964
2.160075156
2.149356012
2.134657189
2.113074437
2.080695393
2.042810087
2.008771871
1.972722721
1.934908235
1.903161906
1.887017163
1.872393311
1.859960397
1.851220348
1.843070034
1.838965894
1.828830373
1.802107949
2.650969195
2.638673687
2.626160611
2.587441436
2.540173324
2.484776999
2.427434964
2.384479543
2.364815781
2.362414409
2.352326233
2.315437365
2.263957994
2.21516117
2.180467891
2.162038947
2.154333247
2.142960836
2.121560647
2.084589583
2.042244261
2.004751804
1.968276743
1.931835518
1.902592095
1.888486917
1.876564682
1.865594948
1.857554908
1.8469911
1.842243306
1.831687535
1.803236392
2.650559533
2.641142802
2.63027099
2.589264218
2.536350877
2.478309079
2.421990494
2.383544922
2.367217023
2.365407965
2.353788266
2.315533512
2.263165679
2.215346437
2.182007156
2.164992582
2.160332635
2.150131452
2.126012786
2.086443694
2.040934793
2.001995776
1.963955867
1.928688776
1.903313622
1.891219922
1.881195029
1.871442418
1.863746464
1.851043292
1.845359325
1.834118584
1.804392426
2.650501799
2.6442597
2.632015087
2.586625014
2.530471766
2.47226531
2.419638037
2.38349364
2.367954067
2.366234748
2.353589465
2.314719149
2.260804996
2.216213492
2.184277844
2.170082896
2.166881354
2.154473578
2.127225845
2.08558362
2.038906929
1.998488818
1.959102853
1.927426461
1.904537684
1.894971034
1.88629644
1.87700625
1.869453526
1.855535198
1.848451872
1.836147581
1.805668825
2.658336069
2.649423803
2.627522721
2.577923537
2.523095888
2.470052363
2.419491537
2.38443836
2.370888654
2.369442735
2.351978023
2.312781426
2.257728033
2.217660937
2.188099058
2.177432698
2.172612996
2.156510755
2.127421421
2.085198554
2.037067422
1.993909825
1.95697895
1.927169105
1.906398008
1.899235661
1.891425101
1.881709429
1.87479427
1.860386868
1.850964091
1.837813994
1.807098666
2.667101929
2.654286815
2.619068255
2.568804055
2.518457125
2.466320832
2.419628965
2.388553537
2.376993411
2.373707522
2.350442458
2.309435132
2.25565294
2.219454729
2.194187402
2.184880516
2.176213897
2.15766608
2.127308787
2.083931265
2.034759985
1.991062709
1.955360888
1.926856317
1.90815696
1.903471702
1.895927367
1.885651207
1.879793364
1.864783586
1.853055903
1.839143146
1.808733479
2.674728476
2.656880029
2.614705792
2.565221676
2.516322782
2.461593216
2.420943586
2.394655829
2.385600905
2.376156721
2.347971981
2.305779946
2.255240875
2.22185253
2.201045533
2.189881704
2.178317782
2.158286829
2.126480649
2.081854469
2.03174567
1.988377534
1.953531258
1.927566076
1.91045404
1.907659798
1.899826782
1.889286631
1.884219067
1.867804828
1.8530996
1.840025385
1.810699671
2.680294782
2.65720241
2.61438818
2.567207687
2.513540026
2.460153575
2.424479748
2.403501128
2.393541816
2.375718294
2.344344128
2.302624308
2.256043452
2.225651272
2.206549626
2.193490075
2.179742239
2.158479397
2.124311911
2.078174175
2.028154307
1.986456772
1.952881964
1.928631853
1.91348485
1.912250732
1.903956237
1.893155769
1.88799227
1.869655525
1.852354929
1.840595442
1.812955661
2.683485653
2.658054159
2.617915467
2.569056971
2.513139302
2.462532371
2.430428492
2.413042935
2.397275958
2.374151842
2.340857411
2.299665104
2.257376041
2.231081235
2.21142621
2.196662821
2.180888935
2.157059898
2.120679171
2.073970302
2.024845321
1.984245178
1.95312831
1.930668483
1.917442025
1.91771202
1.909161757
1.897399388
1.891279566
1.871322917
1.851421015
1.840962333
1.815541993
2.685152604
2.656676228
2.61668009
2.568162288
2.511296592
2.464208587
2.439050482
2.420657314
2.399556899
2.371395372
2.337028946
2.297681357
2.259731995
2.237784316
2.216389375
2.199333569
2.181362719
2.155304801
2.116818808
2.069779928
2.02048259
1.981790632
1.9543885
1.934398993
1.92275148
1.924795368
1.916279861
1.902212267
1.894378619
1.873846008
1.851235054
1.841653941
1.818411768
2.686463928
2.652584806
2.613587917
2.565818675
2.508376442
2.469570648
2.448382388
2.428773763
2.401799081
2.369332577
2.333881163
2.297897011
2.264225593
2.244570712
2.221637573
2.201101261
2.180837617
2.152755282
2.112255078
2.064083349
2.016815676
1.980752013
1.956919181
1.939443789
1.929181444
1.933505468
1.925677618
1.908174593
1.897872844
1.877445592
1.852473234
1.84307854
1.821458489
2.685149854
2.648450374
2.609526305
2.561494429
2.506018492
2.474666318
2.457481618
2.437559129
2.405108325
2.368133863
2.333160347
2.299361671
2.270824872
2.250935646
2.225712058
2.202166784
2.179328722
2.149313927
2.107167802
2.05960037
2.015188095
1.980652886
1.960189907
1.944861379
1.93594458
1.941988683
1.935910629
1.915561941
1.902436395
1.881846609
1.855236984
1.845305381
1.824467226
2.682324102
2.644584231
2.602119066
2.556302476
2.507143457
2.481781634
2.469454369
2.440993214
2.404546912
2.367372214
2.333897353
2.302506385
2.277887653
2.255582867
2.227533832
2.201802193
2.177012511
2.144989327
2.102310829
2.056980227
2.013451121
1.981489748
1.963372267
1.95045208
1.941732826
1.948873299
1.945495322
1.923999209
1.908381071
1.887393647
1.859325901
1.84812932
1.827457273
2.681327584
2.637345686
2.593480354
2.552823097
2.511107037
2.493712543
2.477383533
2.442302331
2.402766307
2.36683937
2.335754267
2.308556749
2.284145052
2.258563926
2.228598329
2.200746689
2.173674534
2.139700674
2.09700673
2.053435733
2.012032313
1.983056066
1.966638707
1.956253035
1.946373514
1.955080639
1.953831211
1.932460973
1.915799384
1.894522012
1.864310688
1.851592261
1.830850615
2.710572076
2.678966138
2.630443722
2.589290567
2.552686408
2.522313044
2.506362791
2.479699169
2.439911991
2.399704039
2.366624515
2.339085465
2.316354246
2.289590534
2.260938606
2.229570681
2.198749362
2.168598704
2.133395566
2.091012451
2.048659863
2.011934029
1.98558382
1.970811835
1.961681987
1.951033032
1.961867421
1.962066277
1.942104276
1.925644901
1.902052911
1.869609602
1.856063442
1.835369574
2.708131254
2.670579551
2.625684064
2.58787991
2.556732645
2.532995521
2.513762798
2.480301291
2.436296398
2.397147696
2.366994077
2.343660633
2.322801773
2.294603305
2.263592095
2.23035765
2.195824751
2.162520286
2.125999554
2.085482191
2.045975822
2.012793523
1.989486547
1.976719842
1.967274901
1.957122588
1.970311361
1.97268321
1.955965815
1.935097063
1.906959375
1.875054326
1.862153848
1.841806654
2.702852205
2.659166113
2.621026428
2.585344153
2.561965354
2.543480282
2.516699816
2.478427131
2.434347817
2.396436319
2.368572431
2.348532011
2.32801479
2.29884833
2.26587902
2.229688191
2.191242548
2.155234722
2.119055691
2.080408018
2.045366041
2.015314226
1.994821862
1.98439439
1.973266403
1.965932825
1.98132673
1.985466683
1.967198581
1.938495396
1.91001234
1.881221746
1.870005206
1.849668296
2.698557464
2.64927413
2.612629351
2.581985573
2.564571898
2.550146115
2.518446949
2.477084461
2.434851802
2.398617005
2.371310105
2.35280592
2.331938114
2.301991667
2.267460268
2.227729188
2.186545515
2.149076758
2.112988428
2.074803521
2.044619169
2.019338048
2.001720261
1.991793253
1.979418336
1.978843032
1.994358357
1.994413194
1.968725783
1.938654492
1.913112912
1.887580119
1.876498864
1.855989034
2.69377364
2.641492848
2.602283784
2.577766637
2.568688088
2.558654413
2.518881446
2.476129333
2.434387995
2.398842086
2.373784417
2.356103747
2.33394642
2.303871543
2.268259036
2.225800306
2.182595498
2.143957586
2.105703185
2.071319131
2.044997959
2.023872518
2.00849378
1.998090919
1.987710276
1.994376089
2.004171518
1.998467829
1.969323495
1.938981983
1.916872114
1.892450646
1.88039607
1.860528324
2.682414484
2.632025359
2.594783859
2.581635182
2.579998697
2.564381095
2.519636646
2.475075087
2.431537267
2.397569675
2.375342347
2.358950034
2.336022785
2.304944629
2.268007104
2.224062453
2.178630598
2.137212133
2.099598291
2.070523778
2.046251834
2.028420824
2.013969879
2.005665915
2.000017923
2.00521209
2.009355215
2.001506964
1.970280264
1.940339231
1.920227736
1.895553736
1.883363941
1.864724207
)
;

boundaryField
{
    inlet
    {
        type            fixedValue;
        value           nonuniform 0();
    }
    outlet
    {
        type            zeroGradient;
    }
    bottom
    {
        type            slip;
    }
    top
    {
        type            slip;
    }
    obstacle
    {
        type            zeroGradient;
    }
    defaultFaces
    {
        type            empty;
    }
    procBoundary11to5
    {
        type            processor;
        value           nonuniform List<scalar> 
33
(
1.141204805
1.119186954
1.095907977
1.073189771
1.054232742
1.037447378
1.020343848
1.00427496
0.9895939501
0.9742051842
0.9574296597
0.9401141302
0.9243714385
0.907795285
0.891624332
0.8750138416
0.8603400348
0.8412834681
1.472628611
1.441506966
1.408731639
1.380437421
1.35679711
1.335499327
1.313954918
1.291008432
1.266447546
1.241730175
1.218364378
1.195665637
1.17261084
1.150448467
1.150448467
)
;
    }
    procBoundary11to10
    {
        type            processor;
        value           nonuniform List<scalar> 
70
(
1.486443978
1.470301322
1.451758977
1.44181964
1.429115866
1.426769076
1.401863938
1.385748595
1.365495828
1.347787814
1.338894145
1.337059326
1.324254747
1.319135187
1.300857293
1.280659419
1.262196094
1.239100113
1.229451761
1.200604963
1.185066145
1.163444516
1.680079701
2.476072046
2.619121401
2.623613907
2.622463259
2.620735187
2.619999944
2.650416874
2.662271616
2.663683823
2.665151008
2.665525765
2.665445226
2.658045099
2.652770525
2.646118499
2.642446992
2.640174964
2.641610424
2.644013509
2.650677227
2.656869598
2.663340864
2.667498407
2.667498407
2.690103848
2.68884781
2.680569205
2.672655535
2.672602767
2.677356186
2.684458829
2.688596437
2.701792347
2.710798083
2.715803089
2.718327016
2.71716732
2.713925786
2.711690382
2.710810066
2.710810066
2.738470145
2.741214984
2.744172199
2.743748965
2.740202833
2.731135146
)
;
    }
    procBoundary11to17
    {
        type            processor;
        value           nonuniform List<scalar> 
34
(
2.666765951
2.62124075
2.593473473
2.591750056
2.595561287
2.566432511
2.518118459
2.471788299
2.427614791
2.396752255
2.37684581
2.362051771
2.338651377
2.305977626
2.267177117
2.221485877
2.174002947
2.129234493
2.096374025
2.069805751
2.047901924
2.033503271
2.020488667
2.016326873
2.011653824
2.01137712
2.013275228
2.005013114
1.972341302
1.942526465
1.922174208
1.898135118
1.886591185
1.86918655
)
;
    }
}


// ************************************************************************* //
