/*--------------------------------*- C++ -*----------------------------------*\
  =========                 |
  \\      /  F ield         | OpenFOAM: The Open Source CFD Toolbox
   \\    /   O peration     | Website:  https://openfoam.org
    \\  /    A nd           | Version:  7
     \\/     M anipulation  |
\*---------------------------------------------------------------------------*/
FoamFile
{
    version     2.0;
    format      ascii;
    class       volScalarField;
    location    "2.6";
    object      T;
}
// * * * * * * * * * * * * * * * * * * * * * * * * * * * * * * * * * * * * * //

dimensions      [0 0 0 1 0 0 0];

internalField   nonuniform List<scalar> 
555
(
0.8655948116
0.9249104667
0.9786750591
0.9988306536
1.002871097
1.006448641
1.004702905
0.9992245266
0.9125909472
0.8949412008
0.8831114698
0.8703864834
0.8428018907
0.8231651651
0.8208393693
0.8242339981
0.8341119708
0.8577194564
0.907111506
0.9724877173
0.9987936536
1.003050167
1.007451469
1.006227232
0.9998731781
0.9140031428
0.8947722271
0.8811277077
0.8691322817
0.842395303
0.8223450667
0.8196608926
0.8232829584
0.8329801037
0.8535907967
0.8924429268
0.9545727852
0.9951295106
1.003192361
1.008148844
1.007491304
1.000205276
0.915445464
0.8946761736
0.8790424021
0.8676100744
0.8418656583
0.8215747405
0.8192050733
0.8231798209
0.832634482
0.848580045
0.8834396784
0.937193783
0.9848755121
1.00306603
1.008633445
1.008424412
1.000219905
0.9169777737
0.8947440013
0.8769337149
0.8657225968
0.841183869
0.8209616581
0.8190559983
0.823289455
0.8320613101
0.8447441012
0.8728573406
0.9266948402
0.9759620904
1.001840117
1.008697117
1.009273839
1.000241495
1.007005538
0.918449426
0.8963532465
0.8746604597
0.8633820275
0.840392995
0.8205028147
0.8188856116
0.8232086394
0.8312507867
0.8429417202
0.8630240917
0.913617807
0.9712783674
0.9984141811
1.008435039
1.01046466
1.000486345
1.007574602
0.9194277582
0.8987059764
0.8722299031
0.8605879622
0.83947679
0.8199732261
0.8182623987
0.8227991043
0.8309627162
0.8411071794
0.8577719334
0.8969648789
0.963422779
0.9949066353
1.008019898
1.01186256
1.001104338
1.008354057
0.9197430554
0.9019723282
0.8695031411
0.8573871967
0.8385136192
0.819844345
0.8177974515
0.8227377739
0.8310852898
0.8394066934
0.8533342279
0.886299235
0.9470474946
0.9927762808
1.007693299
1.013634848
1.002014559
1.009404524
0.9186450095
0.9062591942
0.8665952406
0.853839572
0.8377328991
0.8197480184
0.8176155724
0.8229537783
0.831367901
0.8385995996
0.8487760524
0.8776947256
0.9296183211
0.9869213081
1.007990044
1.015748649
1.00320912
1.010572571
0.9153500341
0.9112334707
0.862087409
0.8500416458
0.8372525799
0.8199081689
0.817370962
0.823069152
0.8313686612
0.8379782343
0.8459939955
0.867416117
0.9184278608
0.9762906525
1.008338238
1.017779579
1.004326858
1.012085557
0.9100930088
0.9163709132
0.856501113
0.8474456417
0.8375553783
0.8202535496
0.8174901612
0.8230701201
0.8314650466
0.8373962203
0.8443165895
0.8606926281
0.9080706529
0.9680827833
1.008419489
1.019243763
1.005569661
1.013495446
0.9078980342
0.9201231409
0.8439201006
0.8414214529
0.8372295582
0.8216875981
0.8180874902
0.8230494631
0.8314376758
0.8366642414
0.8422812932
0.8538189401
0.8919280879
0.9567704715
1.005542153
1.01913839
1.006005715
1.01439867
1.048858004
0.9122768806
0.8313786773
0.8316302559
0.8352587486
0.8321353316
0.8267141284
0.8277481311
0.8302762028
0.8343015675
0.8380645248
0.8431065774
0.8589719965
0.9047983982
0.9670629853
0.9887947841
1.000057643
1.010387718
1.101595169
1.043673793
0.9698681027
0.9137096438
0.8747927371
0.8489030904
0.8436079981
0.8453379463
0.8497670755
0.8496286484
0.8461819768
0.8419954815
0.8426140044
0.8508276788
0.8772451036
0.926831246
0.9794083849
0.9967251511
1.113289329
1.094591173
1.051174108
0.9891669823
0.9338980954
0.9045764991
0.8772958405
0.8714030784
0.8663648436
0.8559870935
0.8476222049
0.840928301
0.8420131414
0.8442672775
0.8464063677
0.8588312549
0.8997729074
0.9456671265
1.114048259
1.109462059
1.09127085
1.053017792
1.004951161
0.9645171191
0.9276024033
0.8957590331
0.8729873884
0.8580410233
0.8556986429
0.8512001279
0.8485547295
0.8466980269
0.8440541142
0.8440362613
0.8497815243
0.8759913849
1.114380234
1.112817456
1.106597531
1.088209289
1.056115858
1.011312586
0.9743219287
0.9403062213
0.9064412049
0.8942917534
0.8845957988
0.8703812461
0.8553018273
0.8465589826
0.8441181335
0.8440434901
0.8447391368
0.8470647806
1.115784612
1.1142693
1.111824007
1.104308285
1.086587228
1.056825536
1.020489272
0.9868025364
0.9562151788
0.9253804981
0.9033765247
0.8912268442
0.8740678656
0.8598759503
0.8599191157
0.8578750641
0.8516655282
0.846737538
1.116946731
1.115763989
1.114204219
1.111093693
1.102782481
1.085638873
1.057984966
1.025034344
0.9959236323
0.9649424301
0.9287049456
0.9188416669
0.9101987647
0.8909293387
0.8754594395
0.8689990674
0.8596206438
0.8506008819
1.118843012
1.117920649
1.116413381
1.114526166
1.110523776
1.101255345
1.084423598
1.058391686
1.029033139
1.004910803
0.9744822665
0.9456406353
0.9314062983
0.9154576507
0.8913388555
0.8827903146
0.8789945461
0.8700610535
1.118188366
1.117096906
1.117553033
1.116817776
1.114335902
1.109141104
1.099203649
1.083090578
1.058782303
1.032617056
1.009820165
0.9800015547
0.9547744163
0.9431470392
0.9252257031
0.907844757
0.8990249381
0.887028765
1.107959604
1.114287465
1.118708366
1.118348716
1.11691529
1.113803775
1.107986264
1.097830038
1.082078936
1.059092061
1.036584877
1.013710381
0.9857723486
0.9672598719
0.9519592352
0.9314015624
0.9148696589
0.9064394312
1.090006225
1.115246009
1.118493762
1.117247088
1.11615808
1.115501122
1.113081244
1.107127632
1.096841736
1.080806096
1.059945651
1.039534583
1.016223317
0.9914539145
0.9735589969
0.9564024934
0.937764856
0.9291675888
1.051014899
1.098484701
1.107698007
1.112763555
1.116279822
1.1164724
1.115646195
1.112682931
1.106278128
1.095680422
1.079980721
1.060751687
1.041203483
1.018710358
0.997805076
0.9811839509
0.9624785666
0.9455297297
1.014980394
1.054018668
1.087129637
1.111959419
1.117033273
1.116432149
1.116574988
1.115685684
1.112374298
1.105583496
1.094814778
1.079452602
1.061673808
1.041951283
1.020998012
1.002892177
0.9864275069
0.9673873811
1.001842766
1.015889556
1.054075895
1.095260123
1.107469556
1.112624543
1.116944042
1.116974943
1.115745827
1.112048553
1.105004313
1.09396262
1.079187775
1.062045078
1.043034752
1.023600735
1.007397807
0.9909975647
1.000095504
1.002510849
1.020123802
1.053744897
1.085473292
1.110195107
1.116238477
1.115893128
1.116311548
1.115386929
1.111758029
1.104442806
1.093093415
1.078696578
1.062315683
1.044173943
1.026834773
1.010247635
1.000002059
1.000228307
1.004072035
1.018529069
1.054028814
1.092609366
1.105462933
1.111855382
1.116666466
1.116570682
1.115179403
1.111136177
1.103453649
1.092044072
1.07814015
1.062087974
1.045738273
1.029384486
1.000000019
1.00001313
1.000466059
1.003839856
1.021247633
1.052906613
1.084690422
1.109322946
1.115214671
1.114979805
1.115663901
1.114613357
1.110484171
1.102433218
1.091234834
1.077284211
1.062354614
1.046949607
1
1.000000509
1.000031501
1.000483477
1.004804519
1.019334096
1.054270964
1.090949191
1.103719753
1.110844416
1.115818052
1.11586548
1.114293402
1.109578746
1.101219636
1.090058979
1.076635792
1.062418294
1
1.000000014
1.000001293
1.000039403
1.000636872
1.004462849
1.021915335
1.052959788
1.08417418
1.108356186
1.114199786
1.114413171
1.115005463
1.113484834
1.108413519
1.10001252
1.088887602
1.076062931
1
1
1.000000034
1.000002189
1.000053345
1.000656006
1.005291501
1.020308869
1.054713812
1.089633981
)
;

boundaryField
{
    inlet
    {
        type            fixedValue;
        value           nonuniform 0();
    }
    outlet
    {
        type            inletOutlet;
        inletValue      nonuniform 0();
        value           nonuniform 0();
    }
    bottom
    {
        type            slip;
    }
    top
    {
        type            slip;
    }
    obstacle
    {
        type            zeroGradient;
    }
    defaultFaces
    {
        type            empty;
    }
    procBoundary27to20
    {
        type            processor;
        value           nonuniform List<scalar> 
16
(
1.116713022
1.115162307
1.114420294
1.114414324
1.11507178
1.117648177
1.117044751
1.118170127
1.118145274
1.104101332
1.067029103
1.019192352
1.001350326
1.000006767
0.9999999946
0.9999999993
)
;
    }
    procBoundary27to21
    {
        type            processor;
        value           nonuniform List<scalar> 
18
(
0.8775476868
0.9338220151
0.977946909
0.9961316155
1.001712637
1.005154813
1.002944632
0.9983017237
0.911240369
0.8953396549
0.8850278454
0.8717356965
0.8431479517
0.8236359281
0.8212475329
0.8250603684
0.8371432045
0.8371432045
)
;
    }
    procBoundary27to26
    {
        type            processor;
        value           nonuniform List<scalar> 4(1 1 1 1);
    }
    procBoundary27to28
    {
        type            processor;
        value           nonuniform List<scalar> 
28
(
1.005237073
1.005941523
1.006339917
1.006627658
1.006627658
1.009271696
1.010311365
1.011367103
1.012465416
1.013385602
1.014563919
1.015491988
1.016056939
1.015295611
1.01053984
0.9903270016
0.9192647245
0.857932242
0.8473184797
0.8507416883
0.86342105
0.8712762377
0.8921172217
0.9191181856
0.9351087827
0.9528902979
0.9740572362
0.9939073625
)
;
    }
    procBoundary27to33
    {
        type            processor;
        value           nonuniform List<scalar> 
19
(
1.103063578
1.110645894
1.115039032
1.11486041
1.112571931
1.107072943
1.09881314
1.088088139
1
1
1.000000001
1.000000088
1.00000303
1.00006513
1.00078701
1.005079515
1.022581093
1.103063578
1.053440235
)
;
    }
    procBoundary27to34
    {
        type            processor;
        value           nonuniform List<scalar> 4(1.012702887 1.0310238 1.048189467 1.062910344);
    }
}


// ************************************************************************* //
