/*--------------------------------*- C++ -*----------------------------------*\
  =========                 |
  \\      /  F ield         | OpenFOAM: The Open Source CFD Toolbox
   \\    /   O peration     | Website:  https://openfoam.org
    \\  /    A nd           | Version:  7
     \\/     M anipulation  |
\*---------------------------------------------------------------------------*/
FoamFile
{
    version     2.0;
    format      ascii;
    class       volVectorField;
    location    "2.6";
    object      U;
}
// * * * * * * * * * * * * * * * * * * * * * * * * * * * * * * * * * * * * * //

dimensions      [0 1 -1 0 0 0 0];

internalField   nonuniform List<vector> 
555
(
(2.970109972 -0.3105393463 0)
(2.958776592 -0.2080424965 0)
(2.91402103 -0.05601279936 0)
(2.901692809 -0.003796615798 0)
(2.89489519 -0.001417853794 0)
(2.890267486 -0.008161747435 0)
(2.891359849 -0.004521105226 0)
(2.893100002 0.01081400513 0)
(3.347590256 -0.4494072047 0)
(3.375551859 -0.4195075968 0)
(3.365804439 -0.4396792743 0)
(3.23106486 -0.4602101757 0)
(3.076569031 -0.423877559 0)
(2.993770936 -0.4077200991 0)
(2.964562901 -0.3933003729 0)
(2.961787753 -0.3842546561 0)
(2.970681427 -0.3729930564 0)
(2.974617149 -0.3287920837 0)
(2.963074006 -0.2176837776 0)
(2.927877477 -0.09167950051 0)
(2.90669511 -0.01502018981 0)
(2.89764013 0.0003192111381 0)
(2.892315732 -0.007823684283 0)
(2.893859512 -0.005220628017 0)
(2.896705674 0.01168450653 0)
(3.339656958 -0.4506371388 0)
(3.376286095 -0.4188052053 0)
(3.380304144 -0.4321709622 0)
(3.237474635 -0.4615713635 0)
(3.07362578 -0.4251867892 0)
(2.990530088 -0.4085723509 0)
(2.961632016 -0.3918724424 0)
(2.962606543 -0.384681878 0)
(2.973189271 -0.378666839 0)
(2.980721678 -0.3516957576 0)
(2.966530807 -0.2513106694 0)
(2.936237782 -0.1026645164 0)
(2.91229298 -0.02129364227 0)
(2.898886225 0.001133822058 0)
(2.893683218 -0.007816524482 0)
(2.896348539 -0.006220207482 0)
(2.900127845 0.01241238713 0)
(3.329885255 -0.4518226903 0)
(3.377955463 -0.4182455271 0)
(3.39491261 -0.4244580138 0)
(3.243871254 -0.4621937823 0)
(3.069613362 -0.4263128141 0)
(2.986504168 -0.4092434697 0)
(2.958751938 -0.3925932406 0)
(2.963384287 -0.3873798474 0)
(2.975519136 -0.3844101806 0)
(2.985453454 -0.3643551301 0)
(2.975094929 -0.2919694159 0)
(2.940849364 -0.1346390463 0)
(2.918224841 -0.02711957195 0)
(2.899431911 -0.001891052238 0)
(2.894773563 -0.008523605632 0)
(2.899458299 -0.007220449775 0)
(2.903265098 0.01320787222 0)
(3.317877765 -0.4526639395 0)
(3.380398719 -0.4157769114 0)
(3.411858906 -0.4162389877 0)
(3.249479365 -0.4621201299 0)
(3.063864818 -0.4278379498 0)
(2.982776164 -0.410520577 0)
(2.956670255 -0.3939815556 0)
(2.964519841 -0.3904516646 0)
(2.977813764 -0.3884926164 0)
(2.98759382 -0.3687066427 0)
(2.985308199 -0.3221904075 0)
(2.948284349 -0.1793424519 0)
(2.920438804 -0.04686499147 0)
(2.901727041 -0.007078726748 0)
(2.896189005 -0.008966246142 0)
(2.902753775 -0.008588050578 0)
(2.905752887 0.01447148431 0)
(2.900826473 -0.002330011835 0)
(3.302428311 -0.4539611588 0)
(3.384679266 -0.417362318 0)
(3.42845545 -0.4081204263 0)
(3.254859056 -0.4603939005 0)
(3.056899837 -0.4288111331 0)
(2.978607088 -0.4112475435 0)
(2.955281285 -0.3951129304 0)
(2.966397492 -0.3926946502 0)
(2.979689801 -0.3896494727 0)
(2.989391555 -0.3785151334 0)
(2.987275973 -0.3287759665 0)
(2.969398796 -0.2262583224 0)
(2.924224987 -0.07397018288 0)
(2.905562057 -0.008456215447 0)
(2.898733121 -0.009509153203 0)
(2.904996457 -0.009115649563 0)
(2.906906811 0.01569387442 0)
(2.900921802 -0.002204728521 0)
(3.282993533 -0.4541343205 0)
(3.394280739 -0.4183805598 0)
(3.444824918 -0.3999298028 0)
(3.256879622 -0.4582322436 0)
(3.049083807 -0.4299690079 0)
(2.973041591 -0.4118824532 0)
(2.953760976 -0.39477801 0)
(2.968185322 -0.3930528357 0)
(2.981452842 -0.3910040317 0)
(2.991162206 -0.3851388068 0)
(2.989195024 -0.3508441977 0)
(2.973164349 -0.2323992073 0)
(2.943524382 -0.1099131985 0)
(2.912508517 -0.00579790944 0)
(2.903889072 -0.01013886759 0)
(2.905462985 -0.01071119487 0)
(2.906430842 0.01666950298 0)
(2.898878666 -0.001970358025 0)
(3.257841157 -0.4548532989 0)
(3.413650297 -0.4185370293 0)
(3.465777826 -0.3918054933 0)
(3.260638431 -0.453601647 0)
(3.040901255 -0.4308059277 0)
(2.966593526 -0.4128831985 0)
(2.952681112 -0.39503116 0)
(2.969620049 -0.3943377843 0)
(2.982508088 -0.3932347006 0)
(2.991935178 -0.3875330104 0)
(2.993121978 -0.3674631558 0)
(2.976411895 -0.2707703943 0)
(2.957034249 -0.1214167858 0)
(2.924993651 -0.02276061827 0)
(2.91044595 -0.01089585004 0)
(2.904240402 -0.01275504541 0)
(2.903583472 0.01675937338 0)
(2.895862651 -0.001599022278 0)
(3.224757293 -0.4548988216 0)
(3.44519642 -0.4228798826 0)
(3.49401088 -0.3859127599 0)
(3.259900078 -0.4497136619 0)
(3.031834815 -0.4299993127 0)
(2.959494815 -0.4136724736 0)
(2.952050765 -0.3959222526 0)
(2.970504412 -0.3964897198 0)
(2.983426667 -0.3958450463 0)
(2.992791838 -0.3909742245 0)
(2.995082913 -0.374092265 0)
(2.98614036 -0.3075839633 0)
(2.970323226 -0.1576545145 0)
(2.941099071 -0.04589661589 0)
(2.913930333 -0.01455675315 0)
(2.899306562 -0.0142504091 0)
(2.899137208 0.01782502838 0)
(2.895742083 -0.001852466179 0)
(3.179040301 -0.4499209161 0)
(3.489069039 -0.4337090652 0)
(3.521522569 -0.3728218512 0)
(3.249368493 -0.4394673908 0)
(3.020629072 -0.4300791555 0)
(2.952755625 -0.4139414865 0)
(2.951906933 -0.3966397952 0)
(2.970765861 -0.3976733761 0)
(2.984169358 -0.3970639178 0)
(2.994006861 -0.3943527029 0)
(2.997603249 -0.3805709048 0)
(2.990812237 -0.3270589358 0)
(2.9834335 -0.1977045181 0)
(2.962351322 -0.07149917979 0)
(2.908417932 -0.02081912647 0)
(2.890179507 -0.016811183 0)
(2.897346388 0.01717042384 0)
(2.899957106 -0.001784495901 0)
(3.12384939 -0.4498785179 0)
(3.54543523 -0.4404567012 0)
(3.539541862 -0.3652266807 0)
(3.2433007 -0.4307859162 0)
(3.009865828 -0.4257975633 0)
(2.945969561 -0.4143308629 0)
(2.95386819 -0.3975500364 0)
(2.969789329 -0.3975722126 0)
(2.984807946 -0.3977175334 0)
(2.995231885 -0.3962016599 0)
(3.000979219 -0.3879532691 0)
(2.992151369 -0.3356636117 0)
(3.008202046 -0.2440059629 0)
(2.976690927 -0.07461151031 0)
(2.890173635 -0.01775957749 0)
(2.878244942 -0.01676815616 0)
(2.900280318 0.01837581862 0)
(2.907240753 -0.00100833163 0)
(3.048863858 -0.4276986488 0)
(3.583915672 -0.4432118702 0)
(3.56028963 -0.3587385422 0)
(3.228519868 -0.4258631342 0)
(2.998470657 -0.4235379689 0)
(2.943231713 -0.4106400521 0)
(2.957343353 -0.3967556683 0)
(2.968744623 -0.3986504429 0)
(2.985277477 -0.3996084447 0)
(2.996126918 -0.3984293068 0)
(3.003354084 -0.3929356996 0)
(2.994974355 -0.3606447328 0)
(3.011633206 -0.2681146574 0)
(2.987434178 -0.1123925246 0)
(2.878328679 -0.02381031096 0)
(2.86765586 -0.0221982677 0)
(2.907443313 0.01815127311 0)
(2.915490482 -0.0006873347006 0)
(2.961623084 -0.04047079886 0)
(2.988414792 -0.01383377837 0)
(2.956597002 -0.2737847661 0)
(2.940676258 -0.3914554722 0)
(2.930863709 -0.4192539866 0)
(2.954123716 -0.4076114208 0)
(2.965595676 -0.3977761361 0)
(2.968949744 -0.4024006517 0)
(2.985874781 -0.4040410982 0)
(2.997424508 -0.4054707812 0)
(3.010244535 -0.4057377014 0)
(3.027540681 -0.3903699268 0)
(3.040919234 -0.3611995449 0)
(3.013762797 -0.222447502 0)
(3.04424518 -0.1711218033 0)
(2.953710955 0.0127228997 0)
(2.937922439 0.02196960558 0)
(2.927705696 0.002374689025 0)
(2.89332266 0.2288737904 0)
(2.909282144 0.05128748656 0)
(2.896080398 -0.1379952863 0)
(2.914349459 -0.3007996903 0)
(2.949993434 -0.3615280912 0)
(2.983772093 -0.3207063594 0)
(2.987545023 -0.3610555427 0)
(3.01991996 -0.3774752572 0)
(3.03232054 -0.3995280207 0)
(3.059569486 -0.4141354077 0)
(3.061061348 -0.4124411267 0)
(3.08337018 -0.4033700272 0)
(3.084344432 -0.4011639226 0)
(3.086794531 -0.3913895113 0)
(3.098033181 -0.3113292646 0)
(3.089904677 -0.2094843874 0)
(3.056431896 -0.122523649 0)
(3.018913046 -0.04065688583 0)
(2.89451741 0.2485612695 0)
(2.907138393 0.2059668301 0)
(2.927597277 0.1138181243 0)
(2.959727301 -0.02016933338 0)
(2.988339417 -0.1129593928 0)
(3.019899675 -0.2035712289 0)
(3.03924255 -0.2922286901 0)
(3.070930317 -0.3869492048 0)
(3.078351254 -0.408808845 0)
(3.097166225 -0.4117951915 0)
(3.114382628 -0.3935676339 0)
(3.11378534 -0.394724409 0)
(3.113867247 -0.3975109276 0)
(3.11443362 -0.4138430695 0)
(3.115547497 -0.4074134118 0)
(3.114495166 -0.3706382662 0)
(3.10078879 -0.2654162786 0)
(3.07002543 -0.1168057647 0)
(2.900240152 0.2478588238 0)
(2.903757915 0.2399394363 0)
(2.924148064 0.194442924 0)
(2.957698789 0.1143693582 0)
(2.99687983 -0.00224174687 0)
(3.038417728 -0.1697233116 0)
(3.062206785 -0.2219648365 0)
(3.080878816 -0.2712044046 0)
(3.092515568 -0.3140086974 0)
(3.08669881 -0.3044671613 0)
(3.11047855 -0.3480635037 0)
(3.109203557 -0.3826026832 0)
(3.118453688 -0.4047793663 0)
(3.116848034 -0.4122560335 0)
(3.11933602 -0.4098168082 0)
(3.120389475 -0.4015853551 0)
(3.112479795 -0.3882524549 0)
(3.093317627 -0.3283050941 0)
(2.898559668 0.2511945923 0)
(2.90029077 0.2487250009 0)
(2.906837047 0.2371704757 0)
(2.92893589 0.1927631916 0)
(2.960377492 0.1195314174 0)
(2.987959346 0.03915610494 0)
(3.02490885 -0.07049769678 0)
(3.054608351 -0.1535505053 0)
(3.055746454 -0.1779814229 0)
(3.086555846 -0.2739952644 0)
(3.093009259 -0.3432397607 0)
(3.103018429 -0.3680738895 0)
(3.116605056 -0.373423655 0)
(3.11209255 -0.3709914994 0)
(3.104646864 -0.3770089729 0)
(3.101154837 -0.3908906736 0)
(3.102675877 -0.3954287887 0)
(3.100511614 -0.3927523782 0)
(2.897064335 0.2546935438 0)
(2.898642395 0.2518098852 0)
(2.901335765 0.2459890883 0)
(2.909078317 0.2302512989 0)
(2.929552413 0.1866946403 0)
(2.956413455 0.1238175902 0)
(2.991372542 0.03324938087 0)
(3.021915263 -0.05498154373 0)
(3.043237249 -0.1358329027 0)
(3.068083175 -0.201533719 0)
(3.080821541 -0.261370703 0)
(3.084083326 -0.2763801524 0)
(3.081310591 -0.2795356604 0)
(3.08572295 -0.3223961522 0)
(3.090197042 -0.3558904243 0)
(3.090469232 -0.3764838277 0)
(3.100649226 -0.3902862153 0)
(3.10435868 -0.390228401 0)
(2.890640801 0.2595624493 0)
(2.892534555 0.2557740549 0)
(2.894158756 0.2522047108 0)
(2.898122687 0.2440872306 0)
(2.907211795 0.2259018948 0)
(2.927200809 0.18352456 0)
(2.951297196 0.1301094361 0)
(2.983161467 0.05132294327 0)
(3.010105339 -0.02815488628 0)
(3.023941461 -0.06293408663 0)
(3.031034742 -0.1144667478 0)
(3.063757034 -0.2187736315 0)
(3.06752577 -0.2638072904 0)
(3.080135741 -0.293509526 0)
(3.090055229 -0.3298153749 0)
(3.091077005 -0.35395316 0)
(3.096222127 -0.344287107 0)
(3.092956641 -0.3553420151 0)
(2.88750421 0.2603631023 0)
(2.889046109 0.2588074415 0)
(2.890650459 0.2556382466 0)
(2.893025394 0.2499919719 0)
(2.897800344 0.2399308722 0)
(2.907844255 0.2198992799 0)
(2.926102496 0.1815050825 0)
(2.947725037 0.134706584 0)
(2.9791114 0.05880300256 0)
(3.003976667 -0.02599514627 0)
(3.017154616 -0.06016502946 0)
(3.040362398 -0.1279187094 0)
(3.05558679 -0.2028599131 0)
(3.066296609 -0.2114902669 0)
(3.062747143 -0.2179852079 0)
(3.073272376 -0.2764551685 0)
(3.077175109 -0.3050100309 0)
(3.08542254 -0.3313999821 0)
(2.894890789 0.2542336415 0)
(2.890712309 0.2602756986 0)
(2.889515567 0.2576106798 0)
(2.890196427 0.2537443233 0)
(2.892079842 0.2485362522 0)
(2.897001225 0.2386057569 0)
(2.908102073 0.2167881644 0)
(2.925838798 0.1793123643 0)
(2.944368144 0.1392845719 0)
(2.97297981 0.06740980805 0)
(2.997042416 -0.002053371118 0)
(3.011604485 -0.03386929897 0)
(3.025083548 -0.09230870379 0)
(3.042574865 -0.154694073 0)
(3.052901023 -0.1792699926 0)
(3.068376877 -0.2398913154 0)
(3.072287818 -0.2854851416 0)
(3.081442721 -0.2921800592 0)
(2.898381799 0.2732166739 0)
(2.891073882 0.2632756417 0)
(2.888729681 0.2563446533 0)
(2.888853612 0.2555108092 0)
(2.888858958 0.2555747539 0)
(2.891860009 0.2499040602 0)
(2.897513786 0.2379489841 0)
(2.909142559 0.2134213255 0)
(2.925548246 0.1775555995 0)
(2.944774024 0.1355540855 0)
(2.970260361 0.07086114437 0)
(2.989751945 0.0195854839 0)
(3.007061821 -0.0280682074 0)
(3.029079257 -0.1016988619 0)
(3.042150475 -0.1411662803 0)
(3.05387764 -0.1667877485 0)
(3.057303372 -0.2016633568 0)
(3.061642173 -0.2263321543 0)
(2.916137653 0.2166486185 0)
(2.907272595 0.222601002 0)
(2.894686601 0.2470096721 0)
(2.890096613 0.257386188 0)
(2.888034274 0.2591073877 0)
(2.889124462 0.2553232225 0)
(2.891173182 0.248716716 0)
(2.896893374 0.2359211775 0)
(2.908654484 0.2112764999 0)
(2.924761504 0.1771233789 0)
(2.9435941 0.1343813221 0)
(2.967127244 0.07548875678 0)
(2.984923257 0.03516626918 0)
(3.000591607 -0.01109752616 0)
(3.01824697 -0.06594607916 0)
(3.033353842 -0.105169498 0)
(3.041748265 -0.1392794438 0)
(3.054116712 -0.199697318 0)
(2.942890346 0.1328425433 0)
(2.929357113 0.1773314816 0)
(2.898106473 0.2588944813 0)
(2.891211387 0.2619581585 0)
(2.890493561 0.2592773739 0)
(2.887822037 0.2560280602 0)
(2.888267871 0.2537550395 0)
(2.891034926 0.2471941257 0)
(2.897658536 0.2326657485 0)
(2.908727754 0.2083470552 0)
(2.923074135 0.1768882395 0)
(2.942397293 0.1333207204 0)
(2.963559777 0.08290199308 0)
(2.982337406 0.03816077301 0)
(2.999312732 -0.008669111687 0)
(3.016071769 -0.05919098906 0)
(3.028009824 -0.08955423137 0)
(3.041016215 -0.1345080529 0)
(2.983761259 0.03388383122 0)
(2.962366118 0.1044601845 0)
(2.912138704 0.2302369478 0)
(2.906655544 0.2267969059 0)
(2.89421583 0.2498809146 0)
(2.890588019 0.2552082419 0)
(2.889146357 0.2551939949 0)
(2.889398835 0.2529033679 0)
(2.891325785 0.2459624243 0)
(2.897255559 0.2309935031 0)
(2.907917684 0.2064435571 0)
(2.922188224 0.1751936006 0)
(2.940548671 0.1341978938 0)
(2.960381177 0.08990629424 0)
(2.977956341 0.04778714325 0)
(2.996807845 -0.004516817404 0)
(3.009843322 -0.03736252483 0)
(3.019982849 -0.06596254257 0)
(2.99798127 0.004348536231 0)
(2.987491744 0.03395427875 0)
(2.94506269 0.1329023288 0)
(2.934700118 0.1707364949 0)
(2.89826761 0.2498432126 0)
(2.89383672 0.2590480916 0)
(2.89029631 0.2550181078 0)
(2.889253643 0.2550464205 0)
(2.889615564 0.2533047208 0)
(2.891757485 0.2455396303 0)
(2.897805528 0.2289986934 0)
(2.908230238 0.2042798754 0)
(2.922904162 0.1719823132 0)
(2.940350241 0.1337239175 0)
(2.95704962 0.09648920153 0)
(2.97514014 0.0526052026 0)
(2.99277408 0.006071203425 0)
(3.007704923 -0.03412047189 0)
(2.999908941 0.0002068057108 0)
(2.997689844 0.005856695591 0)
(2.980013856 0.04484537681 0)
(2.961846009 0.1097442256 0)
(2.912517837 0.2273978304 0)
(2.911125515 0.2239683668 0)
(2.896645397 0.2482953482 0)
(2.891394538 0.2568960194 0)
(2.889875337 0.2564339047 0)
(2.890381283 0.2531592193 0)
(2.892966664 0.2437428203 0)
(2.899144345 0.2269148177 0)
(2.909541821 0.2024906648 0)
(2.923645522 0.1708797543 0)
(2.939738352 0.1349232743 0)
(2.956504924 0.09720698819 0)
(2.972288581 0.05903042189 0)
(2.989344943 0.01763299067 0)
(2.999997922 5.128902469e-06 0)
(2.999793426 0.000502360698 0)
(2.99595318 0.009611267664 0)
(2.985196715 0.04032390844 0)
(2.946760868 0.1305200843 0)
(2.938365208 0.1678052641 0)
(2.90269483 0.2503448136 0)
(2.895502572 0.2592047944 0)
(2.891178117 0.2550761123 0)
(2.891291762 0.2546229434 0)
(2.892157216 0.2514211208 0)
(2.895028567 0.2415057587 0)
(2.900953334 0.2246698584 0)
(2.910962825 0.2007510769 0)
(2.924276239 0.170806821 0)
(2.940252363 0.1358862718 0)
(2.95664359 0.09785589041 0)
(2.972512369 0.06143736488 0)
(2.999999984 3.87360803e-08 0)
(2.999986888 3.234476144e-05 0)
(2.999592176 0.00103442311 0)
(2.996503173 0.009028792051 0)
(2.979543276 0.04776255161 0)
(2.960774976 0.1114067053 0)
(2.915094645 0.2209628939 0)
(2.912943686 0.2207602432 0)
(2.899430868 0.2473215829 0)
(2.893971739 0.2569780939 0)
(2.892095264 0.2552718677 0)
(2.892540643 0.2510780164 0)
(2.895422391 0.2405699804 0)
(2.902021403 0.2237002002 0)
(2.913002127 0.1989334947 0)
(2.926160659 0.1706128466 0)
(2.941529553 0.1361879987 0)
(2.957881636 0.09911648736 0)
(3 1.692850537e-10 0)
(2.99999956 1.078139812e-06 0)
(2.999970507 7.86812225e-05 0)
(2.999578991 0.001060477762 0)
(2.995373515 0.01140466002 0)
(2.984036768 0.0425518862 0)
(2.946110894 0.1283387602 0)
(2.935179475 0.1701286279 0)
(2.905034114 0.2511552095 0)
(2.899001189 0.2588510298 0)
(2.893493399 0.2540561127 0)
(2.892983795 0.2531330835 0)
(2.893471914 0.2493165752 0)
(2.896977471 0.2387979866 0)
(2.904727953 0.2203658263 0)
(2.914783053 0.1979105221 0)
(2.928837166 0.1676946454 0)
(2.942992912 0.1367108926 0)
(3 1.54451472e-13 0)
(2.999999985 3.686085893e-08 0)
(2.999998976 2.730791705e-06 0)
(2.999960757 9.995866772e-05 0)
(2.999468712 0.001375786382 0)
(2.995783805 0.01073283963 0)
(2.979227225 0.04824453084 0)
(2.957227154 0.1142451834 0)
(2.915625719 0.2156151948 0)
(2.916318018 0.2193071679 0)
(2.902373524 0.2479095364 0)
(2.895480603 0.2552691646 0)
(2.893044188 0.2529475812 0)
(2.89405021 0.2479319168 0)
(2.897715711 0.2370266499 0)
(2.905633305 0.2183671986 0)
(2.916018319 0.196119364 0)
(2.929440274 0.1682056536 0)
(3 -7.308603285e-15 0)
(3 6.157916121e-10 0)
(2.999999967 8.884948559e-08 0)
(2.999998205 4.44975215e-06 0)
(2.999948465 0.000137845756 0)
(2.999443741 0.00138162938 0)
(2.994875627 0.01285856627 0)
(2.98294753 0.04449558195 0)
(2.945290345 0.1269139515 0)
(2.934387666 0.173033295 0)
)
;

boundaryField
{
    inlet
    {
        type            fixedValue;
        value           nonuniform 0();
    }
    outlet
    {
        type            inletOutlet;
        inletValue      nonuniform 0();
        value           nonuniform 0();
    }
    bottom
    {
        type            slip;
    }
    top
    {
        type            slip;
    }
    obstacle
    {
        type            slip;
    }
    defaultFaces
    {
        type            empty;
    }
    procBoundary27to20
    {
        type            processor;
        value           nonuniform List<vector> 
16
(
(2.876637838 0.2501731173 0)
(2.883131914 0.2520068031 0)
(2.893421917 0.2509624965 0)
(2.900420579 0.2483138781 0)
(2.897881304 0.251582231 0)
(2.893731196 0.2579547449 0)
(2.889451946 0.262968111 0)
(2.885927761 0.2659026201 0)
(2.896558089 0.2472656668 0)
(2.904928302 0.2328631356 0)
(2.941105701 0.1396818814 0)
(2.983030677 0.03824153234 0)
(2.99854088 0.002850361297 0)
(2.999991093 1.019997357e-05 0)
(3.000000039 -4.47623359e-09 0)
(3.000000003 -1.691073478e-09 0)
)
;
    }
    procBoundary27to21
    {
        type            processor;
        value           nonuniform List<vector> 
18
(
(2.965421315 -0.2987004297 0)
(2.93211737 -0.152435044 0)
(2.908088511 -0.02925444667 0)
(2.898363865 0.004268100301 0)
(2.891335406 -0.001948709582 0)
(2.887362707 -0.008611918656 0)
(2.88870349 -0.003964129509 0)
(2.88970469 0.01040546491 0)
(3.354222735 -0.447714516 0)
(3.375225714 -0.4208147322 0)
(3.352846808 -0.4464821936 0)
(3.225593074 -0.4584348781 0)
(3.079351995 -0.4225368554 0)
(2.994805846 -0.4058367088 0)
(2.966463495 -0.3912435213 0)
(2.961012044 -0.3813093074 0)
(2.967655285 -0.3695743425 0)
(2.967655285 -0.3695743425 0)
)
;
    }
    procBoundary27to26
    {
        type            processor;
        value           nonuniform List<vector> 4((3 -3.156006963e-11 0) (3 -2.556951544e-13 0) (3 -2.22729058e-14 0) (3 5.37998821e-15 0));
    }
    procBoundary27to28
    {
        type            processor;
        value           nonuniform List<vector> 
28
(
(2.890608571 -0.002744237482 0)
(2.893790027 -0.002997426486 0)
(2.896638087 -0.00312772591 0)
(2.899113785 -0.002827428843 0)
(2.899113785 -0.002827428843 0)
(2.900077471 -0.003976455717 0)
(2.900276104 -0.004419202862 0)
(2.900064713 -0.004471495531 0)
(2.900686403 -0.005085438611 0)
(2.903009313 -0.006121732643 0)
(2.906672764 -0.00700107626 0)
(2.912213032 -0.006351354166 0)
(2.91758857 -0.006189994255 0)
(2.937611702 -0.003095556201 0)
(2.996655602 -0.01476218906 0)
(3.068019201 -0.08874176117 0)
(3.079745015 -0.228441283 0)
(3.093738852 -0.3670752177 0)
(3.102102985 -0.3905781051 0)
(3.09058003 -0.3729998052 0)
(3.09170098 -0.3697768181 0)
(3.086428506 -0.3025526838 0)
(3.062566931 -0.238759368 0)
(3.059451745 -0.2291609853 0)
(3.050059472 -0.1739214115 0)
(3.033079677 -0.1131019101 0)
(3.018835631 -0.06664031962 0)
(3.003286479 -0.0188004042 0)
)
;
    }
    procBoundary27to33
    {
        type            processor;
        value           nonuniform List<vector> 
19
(
(2.907594432 0.2532370867 0)
(2.901585745 0.258539526 0)
(2.894586456 0.2515851205 0)
(2.8937432 0.2503413297 0)
(2.894321453 0.2455662432 0)
(2.898114723 0.2342103282 0)
(2.906259582 0.2155596213 0)
(2.916727386 0.1947782177 0)
(3 -9.303885528e-15 0)
(3 1.496236523e-11 0)
(2.999999999 1.329936302e-09 0)
(2.999999909 2.315624494e-07 0)
(2.99999764 6.157711984e-06 0)
(2.999933635 0.0001707036232 0)
(2.999380695 0.001634430636 0)
(2.995067968 0.01271260598 0)
(2.97973684 0.04763777314 0)
(2.907594432 0.2532370867 0)
(2.953437161 0.1202793791 0)
)
;
    }
    procBoundary27to34
    {
        type            processor;
        value           nonuniform List<vector> 4((2.986777267 0.02729747898 0) (2.971301866 0.06870569235 0) (2.957741096 0.1033836473 0) (2.944587934 0.1357429366 0));
    }
}


// ************************************************************************* //
