/*--------------------------------*- C++ -*----------------------------------*\
  =========                 |
  \\      /  F ield         | OpenFOAM: The Open Source CFD Toolbox
   \\    /   O peration     | Website:  https://openfoam.org
    \\  /    A nd           | Version:  7
     \\/     M anipulation  |
\*---------------------------------------------------------------------------*/
FoamFile
{
    version     2.0;
    format      ascii;
    class       volVectorField;
    location    "0.2";
    object      U;
}
// * * * * * * * * * * * * * * * * * * * * * * * * * * * * * * * * * * * * * //

dimensions      [0 1 -1 0 0 0 0];

internalField   nonuniform List<vector> 
558
(
(2.95600202 0.1711147906 0)
(2.953118303 0.200811573 0)
(2.953297604 0.2143493463 0)
(2.957356297 0.2225701899 0)
(2.967365145 0.2255131477 0)
(2.974187682 0.2225703561 0)
(2.981709244 0.2189596466 0)
(2.992163594 0.2121978169 0)
(3 -7.940172101e-14 0)
(3 6.521835548e-13 0)
(3 2.949867009e-10 0)
(2.99999999 3.236805771e-08 0)
(2.999999506 1.593487033e-06 0)
(2.999987817 3.936321475e-05 0)
(2.999843639 0.0005132640314 0)
(2.998862758 0.003851690446 0)
(2.995202647 0.0168322171 0)
(2.986843774 0.04849174105 0)
(2.976851794 0.09223401463 0)
(2.966934195 0.1410291243 0)
(2.963012761 0.1734718429 0)
(2.961605979 0.197354999 0)
(2.96888063 0.2051640358 0)
(2.979661467 0.2073993564 0)
(2.984167192 0.2068313523 0)
(2.991777381 0.2029938046 0)
(3 -2.51315241e-14 0)
(3 -9.010666307e-14 0)
(3 -3.301197232e-15 0)
(3 1.325075953e-10 0)
(2.999999996 1.326583821e-08 0)
(2.999999819 6.375350046e-07 0)
(2.999995413 1.614865344e-05 0)
(2.999937571 0.0002240526734 0)
(2.999513963 0.001799388192 0)
(2.997742473 0.008699606824 0)
(2.993096443 0.02800340739 0)
(2.985885602 0.06142247386 0)
(2.977640012 0.1054710984 0)
(2.973094016 0.1424080738 0)
(2.970585071 0.1738891149 0)
(2.976445077 0.1907355291 0)
(2.983343017 0.2013063317 0)
(2.988630373 0.1991707807 0)
(3 -5.903915748e-15 0)
(3 -6.979179488e-14 0)
(3 -3.299466408e-13 0)
(3 -1.638328168e-12 0)
(3 2.377506658e-11 0)
(2.999999999 2.949410134e-09 0)
(2.999999961 1.50959573e-07 0)
(2.999998936 4.151793391e-06 0)
(2.999983991 6.336321414e-05 0)
(2.999857954 0.0005743386958 0)
(2.999228292 0.003241601948 0)
(2.997269819 0.01214084949 0)
(2.993499373 0.03162667304 0)
(2.988513648 0.0622773131 0)
(2.984557064 0.09516882781 0)
(2.982986476 0.1260786051 0)
(2.9862188 0.1454659079 0)
(2.99008513 0.1554904398 0)
(3 -1.448964564e-15 0)
(3 -1.672047379e-14 0)
(3 -2.582465806e-13 0)
(3 -1.130309976e-12 0)
(3 -4.83113232e-12 0)
(3 -1.381882058e-11 0)
(3 2.953775366e-10 0)
(2.999999996 1.848410017e-08 0)
(2.999999867 5.76997281e-07 0)
(2.999997633 1.031885359e-05 0)
(2.99997471 0.0001123003209 0)
(2.999835293 0.0007632204654 0)
(2.999307512 0.003438393791 0)
(2.998054223 0.01070617274 0)
(2.996046702 0.02458081839 0)
(2.993998239 0.04360466726 0)
(2.993021701 0.06387228291 0)
(2.993812464 0.07910922163 0)
(3 -6.107422547e-16 0)
(3 -2.009743228e-15 0)
(3 -7.055660352e-14 0)
(3 -7.190269858e-13 0)
(3 -3.713807755e-12 0)
(3 -1.394860964e-11 0)
(3 -2.838287433e-11 0)
(3 -5.241848434e-11 0)
(3 9.469472676e-10 0)
(2.999999992 3.871342437e-08 0)
(2.999999825 8.554587076e-07 0)
(2.999997741 1.130492465e-05 0)
(2.999982273 9.287240979e-05 0)
(2.999910916 0.0005010768978 0)
(2.999702805 0.00186071723 0)
(2.999303396 0.00497787087 0)
(2.998828069 0.01007122896 0)
(2.998495638 0.01634490817 0)
(3 -8.785078073e-17 0)
(3 1.51531733e-15 0)
(3 -2.079011811e-14 0)
(3 -2.523681828e-13 0)
(3 -1.809893963e-12 0)
(3 -8.477553236e-12 0)
(3 -2.427408053e-11 0)
(3 -5.559590806e-11 0)
(3 -8.245619025e-11 0)
(3 -6.502850864e-11 0)
(3 9.891676464e-10 0)
(2.999999995 2.872889622e-08 0)
(2.999999922 4.515369785e-07 0)
(2.999999267 4.42607177e-06 0)
(2.999995673 2.824154297e-05 0)
(2.999983373 0.000120906402 0)
(2.999955658 0.0003676360919 0)
(2.999913956 0.0008442252216 0)
(3 1.388439711e-15 0)
(3 1.761984651e-15 0)
(3 -5.992081927e-15 0)
(3 -5.285268919e-14 0)
(3 -5.070993165e-13 0)
(3 -2.957261314e-12 0)
(3 -1.370363113e-11 0)
(3 -3.691284931e-11 0)
(3 -6.810149263e-11 0)
(3 -7.752787667e-11 0)
(3 -7.531810668e-11 0)
(3 -5.912015069e-11 0)
(3 2.346774164e-10 0)
(2.999999999 5.305433953e-09 0)
(2.999999992 6.035615472e-08 0)
(2.999999945 4.302033597e-07 0)
(2.999999756 2.073055053e-06 0)
(2.999999254 7.168892894e-06 0)
(3 2.770137666e-15 0)
(3 -5.721604193e-16 0)
(3 -4.750845031e-15 0)
(3 -1.066438469e-14 0)
(3 -5.136257304e-14 0)
(3 -5.478395631e-13 0)
(3 -3.429574309e-12 0)
(3 -1.349253853e-11 0)
(3 -3.259814555e-11 0)
(3 -5.527433028e-11 0)
(3 -6.206820169e-11 0)
(3 -5.662320122e-11 0)
(3 -4.35206132e-11 0)
(3 -2.639153494e-11 0)
(3 -1.483525526e-12 0)
(3 1.545229728e-10 0)
(3 1.277423939e-09 0)
(2.999999999 6.954155557e-09 0)
(3 1.821572071e-15 0)
(3 -2.462596617e-15 0)
(3 -6.24493182e-15 0)
(3 -4.785341224e-15 0)
(3 -4.180881185e-15 0)
(3 -3.298547113e-14 0)
(3 -3.090906426e-13 0)
(3 -1.77310123e-12 0)
(3 -7.137402713e-12 0)
(3 -1.797579472e-11 0)
(3 -2.944462782e-11 0)
(3 -3.362489472e-11 0)
(3 -3.020261246e-11 0)
(3 -2.173716027e-11 0)
(3 -1.093368515e-11 0)
(3 -4.974280038e-12 0)
(3 -4.174535787e-12 0)
(3 -4.535926632e-12 0)
(3 8.479784284e-15 0)
(3 3.5182971e-15 0)
(3 -2.272257489e-15 0)
(3 -2.606689561e-16 0)
(3 1.639506103e-15 0)
(3 1.184037666e-15 0)
(3 -3.233627832e-15 0)
(3 -6.572723504e-14 0)
(3 -4.672189041e-13 0)
(3 -1.941579693e-12 0)
(3 -4.949638729e-12 0)
(3 -8.057674218e-12 0)
(3 -9.652800704e-12 0)
(3 -8.613564589e-12 0)
(3 -6.034248581e-12 0)
(3 -3.690455787e-12 0)
(3 -3.602487183e-12 0)
(3 -4.602807814e-12 0)
(3 2.707554306e-15 0)
(3 -4.841266138e-16 0)
(3 7.605580276e-16 0)
(3 2.258782836e-15 0)
(3 1.518054999e-15 0)
(3 1.655533931e-15 0)
(3 4.128774325e-15 0)
(3 3.258365477e-15 0)
(3 -1.520382556e-15 0)
(3 -4.307383725e-14 0)
(3 -1.964539439e-13 0)
(3 -5.017542658e-13 0)
(3 -8.617379721e-13 0)
(3 -1.054983719e-12 0)
(3 -1.083231428e-12 0)
(3 -1.188478148e-12 0)
(3 -1.635595756e-12 0)
(3 -2.833683392e-12 0)
(3 -1.656404309e-15 0)
(3 -1.755503249e-15 0)
(3 3.885803018e-15 0)
(3 4.883779327e-15 0)
(3 7.133181852e-16 0)
(3 -7.004811044e-16 0)
(3 3.078887958e-15 0)
(3 2.701700949e-15 0)
(3 3.209779897e-15 0)
(3 1.655371598e-15 0)
(3 4.483367707e-16 0)
(3 -2.347384036e-15 0)
(3 -1.617484326e-14 0)
(3 -2.251413446e-14 0)
(3 -4.21828654e-14 0)
(3 -1.091040891e-13 0)
(3 -2.993270932e-13 0)
(3 -8.244616725e-13 0)
(3 -4.510289382e-15 0)
(3 -8.934032827e-16 0)
(3 5.816894145e-15 0)
(3 1.025616055e-14 0)
(3 4.599234074e-15 0)
(3 1.219547187e-15 0)
(3 -7.595831887e-16 0)
(3 -1.96367481e-15 0)
(3 9.955480124e-16 0)
(3 3.783403819e-15 0)
(3 1.740775442e-15 0)
(3 5.360506782e-16 0)
(3 -3.417306837e-15 0)
(3 -2.760950703e-15 0)
(3 -2.606349796e-15 0)
(3 -5.628752199e-15 0)
(3 -2.069668663e-14 0)
(3 -8.308825224e-14 0)
(3 -2.204157563e-15 0)
(3 5.704894809e-16 0)
(3 7.70759423e-15 0)
(3 1.282079136e-14 0)
(3 7.785174949e-15 0)
(3 -3.431942395e-15 0)
(3 -7.902987688e-15 0)
(3 -4.820497009e-15 0)
(3 1.115034122e-15 0)
(3 -1.336694835e-15 0)
(3 -3.545164954e-15 0)
(3 -2.35289677e-15 0)
(3 -1.663426615e-15 0)
(3 -2.419821821e-15 0)
(3 -4.161175295e-15 0)
(3 -4.649442364e-15 0)
(3 -4.663275549e-15 0)
(3 -1.277180105e-14 0)
(3 3.546226504e-15 0)
(3 2.261125999e-15 0)
(3 1.819933638e-15 0)
(3 8.955209453e-15 0)
(3 8.716579896e-15 0)
(3 2.034976446e-15 0)
(3 -7.795704129e-15 0)
(3 -3.093593202e-15 0)
(3 2.144618819e-15 0)
(3 -1.987964945e-15 0)
(3 -4.739215733e-15 0)
(3 -1.231760701e-15 0)
(3 1.83690017e-15 0)
(3 5.739133163e-16 0)
(3 -1.925223096e-15 0)
(3 -1.749338165e-15 0)
(3 1.292285104e-15 0)
(3 4.06786066e-15 0)
(3 4.658560646e-15 0)
(3 1.452383923e-15 0)
(3 -4.129990887e-16 0)
(3 -2.596840666e-15 0)
(3 3.809323918e-15 0)
(3 1.838181841e-15 0)
(3 -2.347684219e-15 0)
(3 -1.281042024e-15 0)
(3 -3.171773217e-15 0)
(3 -2.036365084e-15 0)
(3 -1.802612425e-15 0)
(3 -3.261038263e-15 0)
(3 -2.189997442e-15 0)
(3 -2.062641192e-15 0)
(3 6.79330273e-16 0)
(3 6.390817207e-16 0)
(3 7.096198099e-16 0)
(3 2.51499969e-15 0)
(3 2.949553387e-15 0)
(3 1.315449711e-15 0)
(3 1.410227101e-16 0)
(3 4.959863389e-16 0)
(3 3.999175138e-15 0)
(3 3.526353449e-15 0)
(3 2.779525017e-15 0)
(3 8.609267363e-16 0)
(3 -6.45787227e-15 0)
(3 -5.55971241e-15 0)
(3 -2.682646248e-15 0)
(3 -5.649855401e-15 0)
(3 -3.200572186e-15 0)
(3 -5.341909558e-15 0)
(3 -3.186103478e-15 0)
(3 3.229818739e-16 0)
(3 -3.927048201e-17 0)
(3 -1.286656481e-15 0)
(3 6.428481312e-17 0)
(3 -5.909438691e-16 0)
(3 9.78247414e-16 0)
(3 2.620790195e-15 0)
(3 6.904711419e-16 0)
(3 5.073166123e-15 0)
(3 3.505518846e-15 0)
(3 3.204570906e-16 0)
(3 -4.465783792e-15 0)
(3 -5.23183626e-15 0)
(3 -5.329877427e-15 0)
(3 -2.150457072e-15 0)
(3 -9.046424574e-16 0)
(3 -3.965811976e-15 0)
(3 -2.511650875e-15 0)
(3 -1.083989854e-15 0)
(3 3.750158756e-15 0)
(3 3.966632395e-15 0)
(3 -8.168581042e-16 0)
(3 -1.256318589e-15 0)
(3 -1.221442138e-16 0)
(3 1.775018696e-15 0)
(3 -3.120229988e-16 0)
(3 -8.748529519e-16 0)
(3 -4.108751008e-16 0)
(3 -8.32964537e-16 0)
(3 -2.192417647e-15 0)
(3 -2.044980817e-15 0)
(3 -4.098487539e-15 0)
(3 -3.032129901e-15 0)
(3 -3.117362199e-15 0)
(3 -2.683111536e-15 0)
(3 3.0685384e-16 0)
(3 -9.895622637e-17 0)
(3 1.490658311e-15 0)
(3 2.335526973e-15 0)
(3 3.640732526e-15 0)
(3 4.28952611e-15 0)
(3 -7.437174547e-16 0)
(3 -5.674299211e-15 0)
(3 -5.711969194e-15 0)
(3 -1.865015878e-15 0)
(3 3.470657328e-16 0)
(3 -4.041086771e-16 0)
(3 -6.510796511e-16 0)
(3 1.174859335e-15 0)
(3 1.600796899e-15 0)
(3 -7.582218124e-16 0)
(3 5.185374088e-16 0)
(3 1.024168885e-15 0)
(3 1.097860597e-15 0)
(3 3.341405333e-15 0)
(3 4.15174633e-15 0)
(3 4.789614251e-15 0)
(3 2.846367646e-15 0)
(3 1.713937654e-15 0)
(3 1.65086297e-15 0)
(3 -1.128447639e-14 0)
(3 -1.084364886e-14 0)
(3 -2.652440334e-15 0)
(3 3.723135774e-16 0)
(3 -1.352899828e-15 0)
(3 9.200673666e-16 0)
(3 1.053130086e-15 0)
(3 2.976255146e-15 0)
(3 7.875490947e-16 0)
(3 2.253495872e-15 0)
(3 1.702659905e-15 0)
(3 3.9618668e-15 0)
(3 5.449114022e-15 0)
(3 4.860661549e-15 0)
(3 8.277531882e-15 0)
(3 8.371987028e-15 0)
(3 -8.650642544e-16 0)
(3 1.535865245e-15 0)
(3 1.358640559e-15 0)
(3 -6.307086535e-15 0)
(3 -6.871398376e-15 0)
(3 -2.625929768e-15 0)
(3 2.510664016e-15 0)
(3 9.150862791e-16 0)
(3 2.274486497e-15 0)
(3 2.161139479e-15 0)
(3 2.687713091e-15 0)
(3 1.98367518e-15 0)
(3 1.54041745e-15 0)
(3 6.37218241e-16 0)
(3 1.593842598e-15 0)
(3 8.643997712e-18 0)
(3 8.396113036e-16 0)
(3 1.752553526e-15 0)
(3 -2.986405213e-16 0)
(3 -6.328135162e-15 0)
(3 7.422498721e-16 0)
(3 8.597199935e-16 0)
(3 -1.369089243e-15 0)
(3 -4.575613051e-15 0)
(3 -3.344684198e-15 0)
(3 3.382832073e-16 0)
(3 2.369704042e-15 0)
(3 2.747354857e-15 0)
(3 3.173692873e-15 0)
(3 6.325283714e-16 0)
(3 4.469351643e-15 0)
(3 4.470669549e-15 0)
(3 2.151552284e-15 0)
(3 2.419823916e-15 0)
(3 1.139493709e-15 0)
(3 1.017800814e-15 0)
(3 7.333185982e-16 0)
(3 1.031283453e-15 0)
(3 -9.212966306e-15 0)
(3 -7.81619668e-15 0)
(3 -3.72719786e-15 0)
(3 -4.625127174e-16 0)
(3 -1.45186614e-15 0)
(3 -7.615878413e-16 0)
(3 -1.523031849e-16 0)
(3 4.119029793e-15 0)
(3 3.42145401e-15 0)
(3 6.406749339e-16 0)
(3 -5.982340269e-16 0)
(3 1.888118363e-15 0)
(3 3.709417466e-15 0)
(3 2.30533995e-15 0)
(3 6.845434712e-15 0)
(3 5.160124029e-15 0)
(3 -3.223983682e-15 0)
(3 -4.220321772e-15 0)
(3 -1.06808571e-16 0)
(3 -3.615592891e-15 0)
(3 -4.519750902e-15 0)
(3 -1.703601421e-15 0)
(3 2.354656996e-15 0)
(3 2.375330555e-15 0)
(3 4.216464857e-15 0)
(3 3.520877291e-15 0)
(3 1.438225123e-15 0)
(3 3.086227976e-15 0)
(3 1.123180964e-15 0)
(3 1.890261586e-15 0)
(3 8.77820691e-16 0)
(3 6.581115575e-16 0)
(3 1.934811702e-15 0)
(3 2.03311099e-15 0)
(3 -2.95125675e-16 0)
(3 -2.417680373e-15 0)
(3 -6.468224314e-15 0)
(3 -4.423003807e-15 0)
(3 -3.686959041e-16 0)
(3 -8.153918919e-16 0)
(3 -1.180055528e-15 0)
(3 6.687354115e-16 0)
(3 1.295248149e-15 0)
(3 3.46383754e-15 0)
(3 4.890965547e-15 0)
(3 4.237524686e-15 0)
(3 5.030232592e-15 0)
(3 2.968865355e-15 0)
(3 2.914717949e-15 0)
(3 -9.875918265e-16 0)
(3 -1.97298419e-15 0)
(3 3.029943987e-15 0)
(3 -1.558532435e-15 0)
(3 -7.267188294e-15 0)
(3 -5.780627687e-15 0)
(3 -4.308952875e-15 0)
(3 -9.538661508e-16 0)
(3 -2.410562113e-15 0)
(3 -2.17488223e-15 0)
(3 -4.047633128e-16 0)
(3 7.752029377e-16 0)
(3 2.848727512e-15 0)
(3 1.384134275e-16 0)
(3 1.621088375e-15 0)
(3 6.507219993e-15 0)
(3 2.369320898e-15 0)
(3 -1.005186853e-15 0)
(3 -1.085112002e-15 0)
(3 -3.344755651e-15 0)
(3 -1.17714111e-15 0)
(3 1.572500201e-15 0)
(3 -2.404901863e-15 0)
(3 -4.692304727e-15 0)
(3 -4.927298646e-15 0)
(3 -3.813913153e-15 0)
(3 -1.81351158e-15 0)
(3 -7.147196443e-17 0)
(3 -3.474060813e-15 0)
(3 -3.664278075e-15 0)
(3 -7.19198674e-16 0)
(3 1.900516375e-15 0)
(3 2.0993283e-15 0)
(3 2.547932734e-15 0)
(3 1.514141887e-15 0)
(3 9.795930141e-17 0)
(3 -1.977784991e-15 0)
(3 -3.615170474e-15 0)
(3 -2.734813853e-15 0)
(3 -1.549536078e-16 0)
(3 1.847507974e-15 0)
(3 3.07527623e-16 0)
(3 1.349430609e-16 0)
(3 -1.618959921e-15 0)
(3 -3.426413106e-15 0)
(3 -5.217140136e-15 0)
(3 3.436472134e-15 0)
(3 6.648475736e-16 0)
(3 -7.553919555e-15 0)
(3 -5.036617437e-15 0)
(3 5.597500086e-16 0)
(3 5.981681774e-15 0)
(3 5.693453732e-15 0)
(3 -9.873848603e-16 0)
(3 -1.910669475e-16 0)
(3 -1.460671883e-15 0)
(3 -3.334699014e-15 0)
(3 4.915048121e-16 0)
(3 1.460461786e-15 0)
(3 2.026206537e-15 0)
(3 5.342604012e-16 0)
(3 7.462950539e-16 0)
(3 7.806845466e-16 0)
(3 -2.263136105e-16 0)
(3 -6.729666706e-15 0)
(3 2.035222399e-15 0)
(3 8.343652527e-16 0)
(3 -1.713547007e-15 0)
(3 -2.170040779e-15 0)
(3 1.768399314e-15 0)
(3 4.456985729e-15 0)
(3 3.701726704e-15 0)
(3 2.167417435e-15 0)
(3 -7.162721296e-16 0)
(3 -2.823839695e-15 0)
(3 -3.038862143e-15 0)
(3 -2.355257955e-15 0)
(3 2.726785468e-16 0)
(3 -3.160760956e-16 0)
(3 -1.134584174e-15 0)
(3 3.417981044e-16 0)
(3 1.580324067e-15 0)
(3 2.24256675e-16 0)
(3 -4.630984386e-15 0)
)
;

boundaryField
{
    inlet
    {
        type            fixedValue;
        value           nonuniform 0();
    }
    outlet
    {
        type            inletOutlet;
        inletValue      nonuniform 0();
        value           nonuniform 0();
    }
    bottom
    {
        type            slip;
    }
    top
    {
        type            slip;
    }
    obstacle
    {
        type            slip;
    }
    defaultFaces
    {
        type            empty;
    }
    procBoundary33to26
    {
        type            processor;
        value           nonuniform List<vector> 
13
(
(3 -2.341471246e-15 0)
(3 -1.156878974e-15 0)
(3 -3.057620554e-15 0)
(3 -3.781098345e-15 0)
(3 -9.211715618e-16 0)
(3 1.584549433e-15 0)
(3 4.118965957e-15 0)
(3 6.588177559e-15 0)
(3 6.359014363e-15 0)
(3 8.229274801e-15 0)
(3 6.624730357e-16 0)
(3 -4.524042079e-15 0)
(3 -8.185116176e-15 0)
)
;
    }
    procBoundary33to27
    {
        type            processor;
        value           nonuniform List<vector> 
19
(
(2.949678485 0.2015797566 0)
(2.951977852 0.2098256254 0)
(2.954542315 0.2177208102 0)
(2.960113619 0.220198863 0)
(2.967768303 0.2201573948 0)
(2.974745924 0.219358874 0)
(2.984060917 0.2148147161 0)
(2.997096622 0.2030971952 0)
(3 -7.35932981e-14 0)
(3 2.47193286e-10 0)
(2.999999985 4.436732848e-08 0)
(2.999999159 2.510133439e-06 0)
(2.999977947 6.606961119e-05 0)
(2.999715825 0.0008664478756 0)
(2.997981105 0.006314138142 0)
(2.991938679 0.02599670295 0)
(2.979672042 0.06765905423 0)
(2.966515329 0.1199840883 0)
(2.966515329 0.1199840883 0)
)
;
    }
    procBoundary33to32
    {
        type            processor;
        value           nonuniform List<vector> 
17
(
(3 -4.71779652e-15 0)
(3 2.566674687e-15 0)
(3 5.830448655e-15 0)
(3 3.551697653e-15 0)
(3 -4.443330958e-16 0)
(3 6.972352583e-16 0)
(3 4.029131071e-15 0)
(3 2.99622618e-15 0)
(3 -9.555145312e-16 0)
(3 -2.063346011e-15 0)
(3 -2.844099835e-16 0)
(3 -3.005567221e-15 0)
(3 -4.10564447e-15 0)
(3 -5.290927581e-15 0)
(3 -7.215941387e-16 0)
(3 4.07046515e-15 0)
(3 6.807333424e-16 0)
)
;
    }
    procBoundary33to34
    {
        type            processor;
        value           nonuniform List<vector> 
32
(
(3.004310619 0.2007054607 0)
(3.001238483 0.1941946836 0)
(2.99641813 0.1932307618 0)
(2.996636911 0.1538839931 0)
(2.995660452 0.08855250849 0)
(2.99854841 0.02209505686 0)
(2.999879066 0.00151417547 0)
(2.99999844 1.816339513e-05 0)
(2.999999998 2.605741993e-08 0)
(3 -4.936708831e-12 0)
(3 -7.622579258e-12 0)
(3 -5.465621328e-12 0)
(3 -2.049586611e-12 0)
(3 -2.753877927e-13 0)
(3 -1.769345514e-14 0)
(3 1.454526942e-15 0)
(3 2.197865418e-15 0)
(3 1.346275865e-15 0)
(3 9.319620478e-15 0)
(3 1.865479014e-15 0)
(3 3.500156594e-15 0)
(3 3.500156594e-15 0)
(3 8.905036267e-15 0)
(3 5.843302117e-16 0)
(3 -1.978224664e-15 0)
(3 -2.99960879e-16 0)
(3 3.355309148e-15 0)
(3 4.391594094e-15 0)
(3 -8.720521126e-16 0)
(3 -4.863578654e-15 0)
(3 -6.785515135e-15 0)
(3 -5.131106965e-15 0)
)
;
    }
}


// ************************************************************************* //
