/*--------------------------------*- C++ -*----------------------------------*\
  =========                 |
  \\      /  F ield         | OpenFOAM: The Open Source CFD Toolbox
   \\    /   O peration     | Website:  https://openfoam.org
    \\  /    A nd           | Version:  7
     \\/     M anipulation  |
\*---------------------------------------------------------------------------*/
FoamFile
{
    version     2.0;
    format      ascii;
    class       volVectorField;
    location    "0.2";
    object      U;
}
// * * * * * * * * * * * * * * * * * * * * * * * * * * * * * * * * * * * * * //

dimensions      [0 1 -1 0 0 0 0];

internalField   nonuniform List<vector> 
555
(
(3 -2.19904468e-15 0)
(3 -2.967202118e-15 0)
(3 -4.410318937e-15 0)
(3 -4.801552492e-15 0)
(3 -4.480734455e-15 0)
(3 -1.870841047e-15 0)
(3 -1.128694549e-15 0)
(3 1.493802662e-16 0)
(3 1.318796457e-15 0)
(3 3.690653006e-15 0)
(3 1.544521097e-15 0)
(3 -1.261971812e-15 0)
(3 -3.460166377e-15 0)
(3 -1.23555229e-15 0)
(3 1.575489939e-16 0)
(3 2.631343624e-15 0)
(3 5.163076855e-15 0)
(3 4.055607365e-15 0)
(3 3.187397169e-15 0)
(3 1.190188863e-15 0)
(3 -7.727848978e-16 0)
(3 -5.838738487e-15 0)
(3 -6.791426754e-15 0)
(3 -5.399400291e-15 0)
(3 -2.449016256e-15 0)
(3 -8.173400558e-17 0)
(3 1.031383441e-15 0)
(3 -1.019358074e-15 0)
(3 2.260749363e-15 0)
(3 2.660254053e-15 0)
(3 3.413424033e-15 0)
(3 2.359444119e-15 0)
(3 8.010065964e-16 0)
(3 -1.914720521e-15 0)
(3 -2.843626853e-15 0)
(3 -4.833124325e-15 0)
(3 -5.690579829e-15 0)
(3 -5.574113344e-15 0)
(3 -4.098257553e-15 0)
(3 -2.537064093e-15 0)
(3 -4.472634735e-16 0)
(3 -1.007298248e-15 0)
(3 -1.625241093e-15 0)
(3 4.049105725e-16 0)
(3 1.445288127e-15 0)
(3 1.694866994e-15 0)
(3 5.174006985e-15 0)
(3 6.122567444e-15 0)
(3 5.685461139e-15 0)
(3 5.456500541e-15 0)
(3 8.124891606e-15 0)
(3 8.053493405e-15 0)
(3 5.536138215e-15 0)
(3 1.516355918e-15 0)
(3 -7.168688884e-16 0)
(3 -2.780996501e-15 0)
(3 -3.196919079e-15 0)
(3 -2.212736488e-15 0)
(3 2.235570726e-15 0)
(3 -1.255923734e-15 0)
(3 -8.256570672e-16 0)
(3 2.926979347e-16 0)
(3 1.078882374e-15 0)
(3 6.841452922e-16 0)
(3 2.309049489e-15 0)
(3 1.970902483e-15 0)
(3 2.193509652e-16 0)
(3 1.587122936e-15 0)
(3 1.408945511e-15 0)
(3 1.407744264e-16 0)
(3 1.189632194e-16 0)
(3 2.390032245e-15 0)
(3 2.435596428e-15 0)
(3 1.048147588e-15 0)
(3 8.354826223e-16 0)
(3 -1.586103499e-15 0)
(3 -1.527866941e-15 0)
(3 -3.432820663e-15 0)
(3 -2.262194668e-15 0)
(3 -1.819978315e-15 0)
(3 -7.353598702e-16 0)
(3 -2.018924632e-15 0)
(3 -2.103469464e-16 0)
(3 -7.033554379e-16 0)
(3 7.77431717e-16 0)
(3 2.565442212e-15 0)
(3 8.996266754e-16 0)
(3 2.681664321e-15 0)
(3 1.751492374e-15 0)
(3 2.373205351e-15 0)
(3 4.437951441e-15 0)
(3 3.565166241e-15 0)
(3 3.695378038e-15 0)
(3 9.372488756e-16 0)
(3 2.215447195e-16 0)
(3 1.878759551e-15 0)
(3 1.757962569e-15 0)
(3 -3.08463213e-16 0)
(3 -2.062149935e-15 0)
(3 -1.302217594e-15 0)
(3 -4.32738561e-16 0)
(3 2.41037711e-15 0)
(3 2.931007594e-15 0)
(3 3.835174688e-15 0)
(3 5.163734445e-15 0)
(3 4.292696084e-15 0)
(3 2.689928349e-15 0)
(3 3.049933487e-15 0)
(3 2.284327398e-15 0)
(3 1.266439592e-15 0)
(3 4.798893864e-16 0)
(3 -2.171007255e-15 0)
(3 -3.834681063e-15 0)
(3 -3.813782996e-15 0)
(3 -4.91148172e-15 0)
(3 -6.402541041e-15 0)
(3 -5.41784143e-15 0)
(3 -5.284158263e-15 0)
(3 -5.186474077e-15 0)
(3 -4.296094988e-15 0)
(3 -2.353847186e-15 0)
(3 1.332365947e-15 0)
(3 3.155596456e-15 0)
(3 3.944776763e-15 0)
(3 4.665159157e-15 0)
(3 4.815510132e-15 0)
(3 3.853806385e-15 0)
(3 9.651625654e-16 0)
(3 2.358528039e-15 0)
(3 2.683076823e-15 0)
(3 2.999249196e-15 0)
(3 1.998704978e-15 0)
(3 3.789970063e-16 0)
(3 -1.905836896e-15 0)
(3 -1.416295643e-15 0)
(3 -1.680885799e-15 0)
(3 -6.800497923e-16 0)
(3 1.601303869e-15 0)
(3 2.159486547e-15 0)
(3 1.599153246e-15 0)
(3 1.055125056e-15 0)
(3 6.353267139e-16 0)
(3 2.761532155e-16 0)
(3 -7.834961392e-16 0)
(3 -3.721909953e-15 0)
(3 -3.11474304e-15 0)
(3 -2.678158185e-15 0)
(3 -3.380373461e-15 0)
(3 -5.61102901e-15 0)
(3 -4.103073324e-15 0)
(3 -5.182226309e-15 0)
(3 -5.171098419e-15 0)
(3 -3.803316654e-15 0)
(3 -3.217048813e-15 0)
(3 4.277176874e-16 0)
(3 3.183780943e-16 0)
(3 2.732141917e-15 0)
(3 1.79758908e-15 0)
(3 1.055096715e-15 0)
(3 8.02784369e-16 0)
(3 3.614725312e-15 0)
(3 -7.575469923e-16 0)
(3 -6.716694218e-17 0)
(3 -6.360471496e-16 0)
(3 -2.962573082e-16 0)
(3 2.879497707e-15 0)
(3 1.986571873e-15 0)
(3 7.661914201e-16 0)
(3 2.786606234e-16 0)
(3 3.598324521e-16 0)
(3 8.624528903e-16 0)
(3 1.481245465e-16 0)
(3 -1.252412288e-15 0)
(3 -9.332788997e-16 0)
(3 3.213649336e-16 0)
(3 -7.688311241e-16 0)
(3 -2.028051921e-15 0)
(3 -7.625481803e-16 0)
(3 2.041288097e-16 0)
(3 2.820651162e-15 0)
(3 1.215539496e-15 0)
(3 9.493932305e-16 0)
(3 -8.360810731e-16 0)
(3 -3.099106787e-15 0)
(3 -5.514549145e-15 0)
(3 -6.367301829e-15 0)
(3 -4.983850568e-15 0)
(3 -2.417544217e-15 0)
(3 -4.990772826e-16 0)
(3 -1.280791665e-15 0)
(3 -1.059660818e-15 0)
(3 3.069910283e-16 0)
(3 1.545230645e-15 0)
(3 1.636880295e-15 0)
(3 2.370849279e-15 0)
(3 -1.073306726e-16 0)
(3 -4.266496882e-16 0)
(3 -1.919770614e-16 0)
(3 6.91539457e-16 0)
(3 1.487328981e-16 0)
(3 2.619081618e-18 0)
(3 -8.480538879e-16 0)
(3 -6.485350772e-16 0)
(3 4.876714029e-16 0)
(3 -7.551049838e-16 0)
(3 -3.132204985e-15 0)
(3 -5.277088462e-15 0)
(3 -5.865615523e-15 0)
(3 -4.614764076e-15 0)
(3 -3.201958e-15 0)
(3 -3.21070704e-15 0)
(3 -2.604910993e-15 0)
(3 1.468696625e-15 0)
(3 1.102198286e-15 0)
(3 1.394968727e-15 0)
(3 2.033701156e-15 0)
(3 1.909675129e-15 0)
(3 -2.593265902e-16 0)
(3 8.124480081e-16 0)
(3 -1.944888132e-15 0)
(3 -8.221690216e-15 0)
(3 -1.050073708e-14 0)
(3 -1.232038724e-14 0)
(3 -1.119929369e-14 0)
(3 -1.015466894e-14 0)
(3 -6.065474517e-15 0)
(3 -4.422667372e-15 0)
(3 -3.775895252e-15 0)
(3 -2.721160228e-15 0)
(3 -2.10753859e-16 0)
(3 -5.848642306e-16 0)
(3 -1.50697091e-15 0)
(3 -1.934253406e-15 0)
(3 -2.13668497e-15 0)
(3 -1.48830389e-15 0)
(3 -1.109587068e-15 0)
(3 -1.121204671e-15 0)
(3 -1.51944199e-15 0)
(3 -3.443312354e-15 0)
(3 -1.649292943e-15 0)
(3 -8.445395301e-16 0)
(3 9.918879171e-16 0)
(3 2.734990227e-15 0)
(3 2.191416935e-15 0)
(3 1.249708026e-15 0)
(3 -6.785664374e-16 0)
(3 1.448018887e-16 0)
(3 7.301792997e-16 0)
(3 2.875385361e-15 0)
(3 9.763495323e-16 0)
(3 -1.019547694e-16 0)
(3 3.549418209e-16 0)
(3 5.4946306e-15 0)
(3 6.89249234e-15 0)
(3 2.865531149e-15 0)
(3 -4.817236933e-15 0)
(3 -1.084238451e-14 0)
(3 -1.172853212e-14 0)
(3 -1.239781428e-14 0)
(3 -1.207403563e-14 0)
(3 -1.250956903e-14 0)
(3 -1.02982503e-14 0)
(3 -9.983715901e-15 0)
(3 -3.11525505e-16 0)
(3 -1.192370153e-15 0)
(3 -2.562100601e-15 0)
(3 -4.423396534e-15 0)
(3 -3.389244507e-15 0)
(3 -2.27073262e-15 0)
(3 1.805516722e-16 0)
(3 1.04479289e-15 0)
(3 9.172528009e-16 0)
(3 9.575074131e-16 0)
(3 2.546784625e-15 0)
(3 5.973883913e-15 0)
(3 8.32597811e-15 0)
(3 7.725978249e-15 0)
(3 5.132645156e-15 0)
(3 4.655167933e-16 0)
(3 -1.644427744e-15 0)
(3 -4.061678948e-16 0)
(3 1.333031191e-15 0)
(3 3.85371345e-15 0)
(3 4.899115311e-15 0)
(3 4.589319021e-15 0)
(3 3.131250212e-15 0)
(3 3.380208681e-15 0)
(3 5.80229935e-15 0)
(3 5.653761219e-15 0)
(3 3.764056029e-15 0)
(3 8.614403753e-16 0)
(3 -5.488540829e-16 0)
(3 -1.117389159e-15 0)
(3 -2.515456827e-15 0)
(3 -3.014241079e-15 0)
(3 -3.485642408e-15 0)
(3 -3.771317733e-15 0)
(3 5.635048727e-16 0)
(3 2.183853954e-15 0)
(3 2.717249709e-15 0)
(3 2.381492568e-15 0)
(3 1.950800131e-15 0)
(3 1.231872205e-15 0)
(3 1.118125162e-15 0)
(3 1.49644353e-15 0)
(3 4.633123142e-16 0)
(3 -3.403263042e-16 0)
(3 1.526942564e-15 0)
(3 2.913566084e-15 0)
(3 4.920820531e-15 0)
(3 2.706204082e-15 0)
(3 8.147279182e-16 0)
(3 -9.88375919e-16 0)
(3 -2.260276572e-15 0)
(3 -2.526740108e-15 0)
(3 -1.936971829e-15 0)
(3 4.064996493e-16 0)
(3 1.807185339e-15 0)
(3 3.13862473e-15 0)
(3 3.97006368e-15 0)
(3 2.684481751e-15 0)
(3 1.311414543e-15 0)
(3 1.925278361e-15 0)
(3 5.746083045e-15 0)
(3 9.980722273e-15 0)
(3 1.080723917e-14 0)
(3 1.092243748e-14 0)
(3 7.104787665e-15 0)
(3 7.145463605e-15 0)
(3 5.782642414e-15 0)
(3 3.393924979e-15 0)
(3 3.110455454e-16 0)
(3 2.870989636e-15 0)
(3 3.011958114e-15 0)
(3 3.074775e-15 0)
(3 2.401822255e-15 0)
(3 1.544453759e-15 0)
(3 2.205520747e-15 0)
(3 2.28909049e-15 0)
(3 1.791144129e-15 0)
(3 1.638389689e-15 0)
(3 2.562243066e-15 0)
(3 1.566962973e-15 0)
(3 9.940561741e-17 0)
(3 -9.861396623e-16 0)
(3 1.202967787e-15 0)
(3 2.550598375e-15 0)
(3 5.443616829e-15 0)
(3 3.25802042e-15 0)
(3 9.515935048e-17 0)
(3 -4.46806723e-15 0)
(3 -6.271403683e-15 0)
(3 -7.225192053e-15 0)
(3 -4.970437116e-15 0)
(3 -4.041380694e-15 0)
(3 -2.674706614e-15 0)
(3 3.071890535e-15 0)
(3 1.153519019e-14 0)
(3 1.419663253e-14 0)
(3 1.562785576e-14 0)
(3 1.40469589e-14 0)
(3 1.213223491e-14 0)
(3 9.222022847e-15 0)
(3 6.342827111e-15 0)
(3 4.160675489e-15 0)
(3 -6.892748212e-16 0)
(3 -1.295433442e-15 0)
(3 -1.501721231e-15 0)
(3 -4.159547653e-15 0)
(3 -4.167301773e-15 0)
(3 -3.338566634e-15 0)
(3 -9.728270394e-16 0)
(3 -1.501314636e-15 0)
(3 -3.159381694e-16 0)
(3 2.174476378e-15 0)
(3 1.069229931e-15 0)
(3 -5.697793716e-17 0)
(3 -1.511192974e-15 0)
(3 -5.231733952e-16 0)
(3 1.532444123e-15 0)
(3 3.220742411e-15 0)
(3 5.660929358e-15 0)
(3 5.495564138e-15 0)
(3 3.551603493e-15 0)
(3 -6.566388663e-16 0)
(3 -1.68146012e-15 0)
(3 -4.612245167e-16 0)
(3 1.362234791e-15 0)
(3 4.21975103e-15 0)
(3 6.5430606e-15 0)
(3 9.411223411e-15 0)
(3 7.373562334e-15 0)
(3 6.256110184e-15 0)
(3 6.325705789e-15 0)
(3 4.754284234e-15 0)
(3 2.063349523e-15 0)
(3 -6.834363317e-16 0)
(3 -1.038083811e-15 0)
(3 -2.719011815e-15 0)
(3 -2.559514128e-16 0)
(3 -1.000886039e-15 0)
(3 -5.959494897e-16 0)
(3 -1.279080707e-15 0)
(3 -1.252914982e-15 0)
(3 -6.928619842e-16 0)
(3 -4.895816699e-16 0)
(3 -4.086269598e-16 0)
(3 -4.963403925e-16 0)
(3 -2.139909312e-15 0)
(3 -2.39660425e-15 0)
(3 -1.688266341e-15 0)
(3 -2.627042954e-15 0)
(3 -4.804524059e-15 0)
(3 -4.005964231e-15 0)
(3 -1.360201261e-15 0)
(3 -5.271596361e-16 0)
(3 -7.168180687e-16 0)
(3 -1.731272909e-15 0)
(3 1.437008112e-16 0)
(3 2.07255243e-15 0)
(3 3.505913739e-15 0)
(3 4.199919111e-15 0)
(3 6.808687461e-15 0)
(3 9.241082924e-15 0)
(3 9.389964438e-15 0)
(3 8.473672849e-15 0)
(3 5.926933024e-15 0)
(3 2.329027571e-15 0)
(3 -1.929544108e-15 0)
(3 -4.473879186e-15 0)
(3 -4.125460246e-15 0)
(3 -2.692747973e-15 0)
(3 -2.35677265e-15 0)
(3 4.144202547e-16 0)
(3 1.481065628e-15 0)
(3 1.890942062e-15 0)
(3 4.820081169e-15 0)
(3 5.774767376e-15 0)
(3 3.781176513e-15 0)
(3 3.799552349e-15 0)
(3 3.665082098e-15 0)
(3 3.184254825e-15 0)
(3 2.29512497e-15 0)
(3 1.927077935e-15 0)
(3 -8.088325989e-16 0)
(3 -9.571172497e-16 0)
(3 -1.699356575e-15 0)
(3 -3.991550312e-15 0)
(3 -3.815158962e-15 0)
(3 -5.579255261e-15 0)
(3 -4.244631812e-15 0)
(3 -2.767937173e-15 0)
(3 3.322946674e-15 0)
(3 6.14962071e-15 0)
(3 6.917789899e-15 0)
(3 6.6063343e-15 0)
(3 6.069162045e-15 0)
(3 8.151068908e-15 0)
(3 6.338577578e-15 0)
(3 6.101468997e-15 0)
(3 4.787486353e-15 0)
(3 1.276552725e-15 0)
(3 3.73639252e-16 0)
(3 1.46247544e-15 0)
(3 1.242386492e-15 0)
(3 1.583534325e-15 0)
(3 -3.257162263e-16 0)
(3 1.136219428e-17 0)
(3 8.743075735e-17 0)
(3 9.652136203e-16 0)
(3 1.699651742e-15 0)
(3 2.979973176e-15 0)
(3 3.514072531e-15 0)
(3 1.33078069e-15 0)
(3 4.75955641e-17 0)
(3 -5.454628565e-16 0)
(3 1.725186916e-15 0)
(3 1.275717831e-15 0)
(3 1.109356495e-15 0)
(3 1.984551788e-15 0)
(3 4.000259275e-15 0)
(3 3.095185529e-15 0)
(3 -7.485533567e-16 0)
(3 3.051863939e-16 0)
(3 -6.500032714e-16 0)
(3 7.781171464e-16 0)
(3 2.309890993e-15 0)
(3 2.999846697e-15 0)
(3 4.256056191e-15 0)
(3 6.429358724e-15 0)
(3 5.08020586e-15 0)
(3 2.351489402e-15 0)
(3 -1.901152472e-15 0)
(3 -7.667295731e-15 0)
(3 -9.499393894e-15 0)
(3 -7.515488957e-15 0)
(3 -5.394323739e-15 0)
(3 -3.371699018e-15 0)
(3 -9.469349601e-16 0)
(3 3.118368121e-15 0)
(3 2.713022941e-15 0)
(3 -6.275067055e-16 0)
(3 -7.747644581e-16 0)
(3 -4.185532512e-16 0)
(3 -8.472334521e-16 0)
(3 -7.981209736e-16 0)
(3 5.805779515e-16 0)
(3 3.963792793e-16 0)
(3 -1.36827413e-15 0)
(3 -1.550537048e-15 0)
(3 8.372064315e-16 0)
(3 2.419208518e-15 0)
(3 6.488781142e-15 0)
(3 8.14195995e-15 0)
(3 9.251713465e-15 0)
(3 1.045921959e-14 0)
(3 1.156447227e-14 0)
(3 1.092217744e-14 0)
(3 9.353786467e-15 0)
(3 7.560485706e-15 0)
(3 5.97374446e-15 0)
(3 5.854492268e-15 0)
(3 3.913323878e-15 0)
(3 1.860818187e-15 0)
(3 1.428984468e-15 0)
(3 -9.630882702e-16 0)
(3 -6.368148688e-15 0)
(3 -1.418103665e-14 0)
(3 -1.747981292e-14 0)
(3 -1.54838107e-14 0)
(3 -1.117693796e-14 0)
(3 -6.816319343e-15 0)
(3 -3.940471155e-15 0)
(3 -3.035115437e-16 0)
(3 6.376224613e-15 0)
(3 1.6347064e-16 0)
(3 -1.182585633e-17 0)
(3 -1.993774067e-15 0)
(3 -3.901174822e-15 0)
(3 -4.16267588e-15 0)
(3 -4.528519268e-15 0)
(3 -1.657691114e-15 0)
(3 4.247942528e-16 0)
(3 1.935727105e-15 0)
(3 5.304927893e-15 0)
(3 7.751099548e-15 0)
(3 1.003726628e-14 0)
(3 9.811060258e-15 0)
(3 1.019008038e-14 0)
(3 1.147658079e-14 0)
(3 1.117134047e-14 0)
(3 9.71984433e-15 0)
(3 1.329921104e-14 0)
(3 1.377672989e-14 0)
(3 1.112675336e-14 0)
)
;

boundaryField
{
    inlet
    {
        type            fixedValue;
        value           uniform (3 0 0);
    }
    outlet
    {
        type            inletOutlet;
        inletValue      nonuniform 0();
        value           nonuniform 0();
    }
    bottom
    {
        type            slip;
    }
    top
    {
        type            slip;
    }
    obstacle
    {
        type            slip;
    }
    defaultFaces
    {
        type            empty;
    }
    procBoundary24to18
    {
        type            processor;
        value           nonuniform List<vector> 
34
(
(3 -8.860727352e-16 0)
(3 -8.766457906e-16 0)
(3 -1.600610013e-15 0)
(3 -5.30205535e-16 0)
(3 1.761177429e-15 0)
(3 2.680011784e-15 0)
(3 3.025152394e-15 0)
(3 2.891428118e-15 0)
(3 2.28521887e-15 0)
(3 3.135523632e-18 0)
(3 -2.695178587e-15 0)
(3 -4.047608772e-15 0)
(3 -5.25829855e-15 0)
(3 -4.286811946e-15 0)
(3 -3.01531301e-15 0)
(3 -1.98141084e-15 0)
(3 -1.079367122e-15 0)
(3 2.0855395e-16 0)
(3 3.525245518e-15 0)
(3 2.846676041e-15 0)
(3 1.055451876e-15 0)
(3 1.15906488e-15 0)
(3 -9.132965528e-16 0)
(3 -1.030388705e-15 0)
(3 8.961981812e-17 0)
(3 -7.787689396e-16 0)
(3 -2.241558963e-15 0)
(3 -3.301514833e-15 0)
(3 -3.190918673e-15 0)
(3 -3.289810106e-15 0)
(3 -2.80242692e-15 0)
(3 -1.57730525e-15 0)
(3 -2.607082193e-15 0)
(3 -2.607082193e-15 0)
)
;
    }
    procBoundary24to19
    {
        type            processor;
        value           uniform (3 -2.08752152e-15 0);
    }
    procBoundary24to25
    {
        type            processor;
        value           nonuniform List<vector> 
16
(
(3 -2.224075194e-15 0)
(3 2.900547909e-15 0)
(3 1.158779348e-15 0)
(3 4.033454149e-15 0)
(3 6.098950747e-15 0)
(3 5.607781929e-15 0)
(3 -3.523052158e-15 0)
(3 -6.662292792e-15 0)
(3 -3.697347233e-15 0)
(3 -2.783905497e-15 0)
(3 -2.07279019e-15 0)
(3 -3.30353085e-15 0)
(3 -3.702454461e-15 0)
(3 -6.46140327e-16 0)
(3 7.4466507e-15 0)
(3 1.40420326e-14 0)
)
;
    }
    procBoundary24to30
    {
        type            processor;
        value           nonuniform List<vector> 
35
(
(3 8.793045134e-15 0)
(3 6.447228727e-15 0)
(3 1.952247704e-15 0)
(3 1.915188655e-15 0)
(3 -7.922418592e-17 0)
(3 -1.691274133e-15 0)
(3 -4.732639016e-15 0)
(3 -7.68211112e-15 0)
(3 -1.094216684e-14 0)
(3 -9.65613573e-15 0)
(3 -7.82632793e-15 0)
(3 -6.736692982e-15 0)
(3 -5.330435103e-15 0)
(3 1.911046417e-15 0)
(3 3.130751802e-17 0)
(3 -1.268952025e-15 0)
(3 -2.781533274e-15 0)
(3 -4.61445774e-15 0)
(3 -5.293870469e-15 0)
(3 -5.173294355e-15 0)
(3 -4.537905829e-15 0)
(3 -5.920657491e-16 0)
(3 2.187135281e-15 0)
(3 1.348021504e-15 0)
(3 2.119280694e-15 0)
(3 2.827902614e-15 0)
(3 3.390631408e-15 0)
(3 3.404513339e-15 0)
(3 4.471641247e-15 0)
(3 6.156186061e-15 0)
(3 6.918972158e-15 0)
(3 9.449575206e-15 0)
(3 7.10929483e-15 0)
(3 8.793045134e-15 0)
(3 7.056267224e-15 0)
)
;
    }
}


// ************************************************************************* //
