/*--------------------------------*- C++ -*----------------------------------*\
  =========                 |
  \\      /  F ield         | OpenFOAM: The Open Source CFD Toolbox
   \\    /   O peration     | Website:  https://openfoam.org
    \\  /    A nd           | Version:  7
     \\/     M anipulation  |
\*---------------------------------------------------------------------------*/
FoamFile
{
    version     2.0;
    format      ascii;
    class       volScalarField;
    location    "4.2";
    object      T;
}
// * * * * * * * * * * * * * * * * * * * * * * * * * * * * * * * * * * * * * //

dimensions      [0 0 0 1 0 0 0];

internalField   nonuniform List<scalar> 
22
(
1.047420099
1.027317624
1.05223077
1.051197444
1.038797806
1.066520251
1.064182186
1.040257073
0.9993343262
1.074142811
1.044091802
0.990024243
0.9603523516
1.07040315
0.9711009568
0.9517006504
0.969000275
0.9316799106
0.9281975472
0.9589499839
0.9222191004
0.934694063
)
;

boundaryField
{
    inlet
    {
        type            fixedValue;
        value           nonuniform 0();
    }
    outlet
    {
        type            inletOutlet;
        inletValue      nonuniform 0();
        value           nonuniform 0();
    }
    bottom
    {
        type            slip;
    }
    top
    {
        type            slip;
    }
    obstacle
    {
        type            zeroGradient;
    }
    defaultFaces
    {
        type            empty;
    }
    procBoundary9to3
    {
        type            processor;
        value           nonuniform List<scalar> 5(1.040392369 1.00412249 1.027603264 1.048710922 1.048710922);
    }
    procBoundary9to4
    {
        type            processor;
        value           nonuniform List<scalar> 2(1.034932452 1.006774187);
    }
    procBoundary9to8
    {
        type            processor;
        value           uniform 1.001913243;
    }
    procBoundary9to10
    {
        type            processor;
        value           nonuniform List<scalar> 5(0.9774903175 0.9654396162 0.9980415559 1.016291838 1.016291838);
    }
    procBoundary9to14
    {
        type            processor;
        value           nonuniform List<scalar> 3(1.023100083 1.072189991 1.141910979);
    }
    procBoundary9to15
    {
        type            processor;
        value           nonuniform List<scalar> 4(0.9815895882 0.9275559744 0.9815895882 0.9441466257);
    }
}


// ************************************************************************* //
