/*--------------------------------*- C++ -*----------------------------------*\
  =========                 |
  \\      /  F ield         | OpenFOAM: The Open Source CFD Toolbox
   \\    /   O peration     | Website:  https://openfoam.org
    \\  /    A nd           | Version:  7
     \\/     M anipulation  |
\*---------------------------------------------------------------------------*/
FoamFile
{
    version     2.0;
    format      ascii;
    class       volVectorField;
    location    "4.2";
    object      U;
}
// * * * * * * * * * * * * * * * * * * * * * * * * * * * * * * * * * * * * * //

dimensions      [0 1 -1 0 0 0 0];

internalField   nonuniform List<vector> 
22
(
(2.961876429 -0.09652972574 0)
(2.979020117 -0.05127907084 0)
(2.950019112 -0.1322453783 0)
(2.952384685 -0.1238451841 0)
(2.965925251 -0.08442263102 0)
(2.94811168 -0.1226560563 0)
(2.946948427 -0.124312605 0)
(2.968948085 -0.0651659663 0)
(2.989404432 0.006582528638 0)
(2.917981097 -0.2056442874 0)
(2.934692346 -0.1101330657 0)
(2.981957501 0.01721849451 0)
(3.010110633 0.0889233456 0)
(2.947091066 -0.06571002471 0)
(3.015491639 0.3036160417 0)
(3.059983244 0.2220498723 0)
(3.040779628 0.1490344714 0)
(2.966416797 0.3228768896 0)
(3.077255433 0.2910340097 0)
(3.070295745 0.2113152717 0)
(2.975201558 0.3190084022 0)
(3.064402204 0.2733168433 0)
)
;

boundaryField
{
    inlet
    {
        type            fixedValue;
        value           nonuniform 0();
    }
    outlet
    {
        type            inletOutlet;
        inletValue      nonuniform 0();
        value           nonuniform 0();
    }
    bottom
    {
        type            slip;
    }
    top
    {
        type            slip;
    }
    obstacle
    {
        type            slip;
    }
    defaultFaces
    {
        type            empty;
    }
    procBoundary9to3
    {
        type            processor;
        value           nonuniform List<vector> 5((2.962249492 -0.1028073711 0) (2.996303029 -0.008876006354 0) (2.974528577 -0.06437589023 0) (2.961226906 -0.09552620978 0) (2.961226906 -0.09552620978 0));
    }
    procBoundary9to4
    {
        type            processor;
        value           nonuniform List<vector> 2((2.972098247 -0.07857674042 0) (2.989783658 -0.004141667049 0));
    }
    procBoundary9to8
    {
        type            processor;
        value           uniform (2.997978284 -0.004628290402 0);
    }
    procBoundary9to10
    {
        type            processor;
        value           nonuniform List<vector> 5((3.006295126 0.1303596646 0) (3.009561282 0.099253889 0) (3.024311463 0.07315528407 0) (3.048929695 0.04971546252 0) (3.048929695 0.04971546252 0));
    }
    procBoundary9to14
    {
        type            processor;
        value           nonuniform List<vector> 3((2.983709667 -0.04710130675 0) (2.914078033 -0.2224952095 0) (2.887004478 -0.1372623014 0));
    }
    procBoundary9to15
    {
        type            processor;
        value           nonuniform List<vector> 4((3.07218644 0.1613861088 0) (2.977494502 0.3002097212 0) (3.07218644 0.1613861088 0) (3.048242883 0.2521109641 0));
    }
}


// ************************************************************************* //
