/*--------------------------------*- C++ -*----------------------------------*\
  =========                 |
  \\      /  F ield         | OpenFOAM: The Open Source CFD Toolbox
   \\    /   O peration     | Website:  https://openfoam.org
    \\  /    A nd           | Version:  7
     \\/     M anipulation  |
\*---------------------------------------------------------------------------*/
FoamFile
{
    version     2.0;
    format      ascii;
    class       volVectorField;
    location    "3.8";
    object      U;
}
// * * * * * * * * * * * * * * * * * * * * * * * * * * * * * * * * * * * * * //

dimensions      [0 1 -1 0 0 0 0];

internalField   nonuniform List<vector> 
555
(
(3.075403658 0.2651443003 0)
(3.079622786 0.3000190622 0)
(3.080023552 0.3100573749 0)
(3.086132615 0.3218465377 0)
(3.086906268 0.3209968284 0)
(3.003294918 0.01635789102 0)
(3.015055753 0.05966086975 0)
(3.024028953 0.08455771434 0)
(3.031313936 0.1080485721 0)
(3.040680489 0.1512845714 0)
(3.046098387 0.1865611236 0)
(3.054853738 0.2011187592 0)
(3.061371728 0.216713337 0)
(3.06387634 0.2477686787 0)
(3.067671487 0.2583874723 0)
(3.072629751 0.2620091917 0)
(3.075194636 0.2893029248 0)
(3.079804776 0.3113522359 0)
(3.083547121 0.3155100275 0)
(3.084500074 0.3189577358 0)
(3.082715298 0.3173528457 0)
(3.018813738 0.06954220345 0)
(3.029285653 0.1106636543 0)
(3.038249358 0.1279316389 0)
(3.042122397 0.1520882378 0)
(3.04804011 0.1910201852 0)
(3.053897533 0.2091948754 0)
(3.059189228 0.2239424715 0)
(3.069023225 0.264770734 0)
(3.071037331 0.2929561099 0)
(3.078543778 0.3044332266 0)
(3.08647178 0.320951493 0)
(3.084433832 0.3435640925 0)
(3.088641876 0.3390458991 0)
(3.087224725 0.327845907 0)
(3.082662985 0.3105533305 0)
(3.071876364 0.2753187864 0)
(3.032162077 0.1180884094 0)
(3.040120785 0.1494300688 0)
(3.047737 0.1759677454 0)
(3.057238302 0.2203279494 0)
(3.061486298 0.2480338799 0)
(3.069880961 0.2502957834 0)
(3.066773451 0.258389127 0)
(3.072004776 0.2966091226 0)
(3.076425901 0.3060701181 0)
(3.082814145 0.3125627199 0)
(3.084881036 0.3308152972 0)
(3.085622207 0.3371561578 0)
(3.084790476 0.3302887118 0)
(3.074699413 0.2912376272 0)
(3.062743747 0.2126021282 0)
(3.042368836 0.09686260892 0)
(3.046805226 0.1718210262 0)
(3.052980926 0.1816480634 0)
(3.052364581 0.205024598 0)
(3.062884774 0.2546352829 0)
(3.067354949 0.2731970329 0)
(3.07566585 0.2899636343 0)
(3.082730293 0.3279397925 0)
(3.083518243 0.3435737956 0)
(3.090255202 0.347216441 0)
(3.09220075 0.3454207327 0)
(3.090262765 0.3437946602 0)
(3.081741145 0.3233091488 0)
(3.069550703 0.261563889 0)
(3.045633778 0.1568228308 0)
(3.04308018 0.1199588584 0)
(3.034790343 0.06966386472 0)
(3.057275044 0.227431052 0)
(3.0681362 0.2437411555 0)
(3.074420507 0.2817139568 0)
(3.076310972 0.2960111335 0)
(3.076577585 0.2910015527 0)
(3.076618884 0.3161662093 0)
(3.082900896 0.3396483527 0)
(3.087956582 0.3469965983 0)
(3.090423492 0.3456900342 0)
(3.087316277 0.3374518079 0)
(3.078306136 0.3072832455 0)
(3.045855018 0.1879051665 0)
(3.055234305 0.1304011186 0)
(3.023163456 0.003902872916 0)
(2.999667947 -0.01269781902 0)
(2.989659839 0.009142939438 0)
(3.061141962 0.2376341745 0)
(3.075650263 0.2837528092 0)
(3.079340988 0.3257000246 0)
(3.084546558 0.3392306008 0)
(3.091592523 0.3499015367 0)
(3.089331075 0.3676267339 0)
(3.09329988 0.3667012071 0)
(3.093169405 0.3562758519 0)
(3.084642486 0.3233503935 0)
(3.068633962 0.2485295807 0)
(3.039011196 0.1364622193 0)
(3.024576388 0.07938869134 0)
(3.027537548 0.05583206362 0)
(3.012239591 0.02153433788 0)
(2.996469914 0.005062107641 0)
(2.993603433 0.003835591856 0)
(3.088375707 0.3107667165 0)
(3.086824934 0.3340696807 0)
(3.086923392 0.3410124543 0)
(3.089019618 0.3516186592 0)
(3.089192225 0.360062286 0)
(3.09063434 0.3657903165 0)
(3.087363689 0.3500300555 0)
(3.078392648 0.2924070195 0)
(3.05887919 0.194503558 0)
(3.052914226 0.149538362 0)
(3.03077291 0.07375103039 0)
(3.013307509 -0.002842901826 0)
(2.991973358 0.001225993882 0)
(2.989897154 0.007117888703 0)
(2.991030973 0.00612487509 0)
(2.992403855 0.004339115983 0)
(3.092246553 0.3652143763 0)
(3.093701666 0.3784278755 0)
(3.099929326 0.3779236153 0)
(3.099028006 0.3732735177 0)
(3.095776944 0.36675009 0)
(3.084105617 0.3392477338 0)
(3.053246202 0.2313966173 0)
(3.059963448 0.1520272947 0)
(3.024416289 0.002571975985 0)
(3.002353965 -0.002822094919 0)
(2.99714658 0.000830915299 0)
(2.998970469 -0.004331859664 0)
(2.994668849 -0.003010041298 0)
(2.990535985 0.002022751148 0)
(2.989976203 0.003984152693 0)
(2.990942126 0.003767373028 0)
(3.090666094 0.3717628387 0)
(3.094430351 0.3798125284 0)
(3.095514943 0.3773754091 0)
(3.090265112 0.3560612149 0)
(3.075764961 0.2931170573 0)
(3.043187031 0.1725297296 0)
(3.027686219 0.0995613982 0)
(3.029445765 0.05487769605 0)
(3.008089882 0.02426151838 0)
(3.000213719 0.01542516331 0)
(2.995746676 0.01169451299 0)
(2.997207597 0.004793555623 0)
(2.995241236 -0.0007644156486 0)
(2.993644165 -0.0005207769504 0)
(2.992194885 0.001800916293 0)
(2.992112601 0.002831924307 0)
(3.100717076 0.3923208936 0)
(3.095634733 0.3798193008 0)
(3.085941237 0.3355765838 0)
(3.059891414 0.2357234266 0)
(3.043366795 0.1603309016 0)
(3.02500169 0.07284355194 0)
(3.01473398 -0.0173738111 0)
(2.986553708 -0.00269141643 0)
(2.984982067 0.00242997986 0)
(2.991210205 0.004905516882 0)
(2.996066443 0.006299504858 0)
(2.997262371 0.004770051488 0)
(2.99662859 0.003446211376 0)
(2.9956819 0.002630129403 0)
(2.994909007 0.002717826565 0)
(2.99472982 0.001874401116 0)
(3.09277815 0.3660265528 0)
(3.069577493 0.2726748649 0)
(3.071208985 0.1913501139 0)
(3.026749777 0.02272169656 0)
(3.012309143 0.02409763591 0)
(3.014599376 0.01862514685 0)
(3.011765617 0.004685047634 0)
(3.005097546 0.0007038767933 0)
(3.000331194 0.001446135551 0)
(3.000082877 0.0009494518218 0)
(3.000122194 0.002624377175 0)
(3.001648534 0.00244895942 0)
(2.999511722 0.002791104258 0)
(2.998366489 0.003336475558 0)
(2.997481236 0.002982127279 0)
(2.996974054 0.00206807036 0)
(3.078573745 0.2360543966 0)
(3.047053474 0.09141913697 0)
(3.055806384 0.07328250894 0)
(3.025540825 0.02763008699 0)
(3.019004801 0.009514974256 0)
(3.019581303 0.006203873774 0)
(3.013417825 0.00304876821 0)
(3.012364725 0.001468488916 0)
(3.009632833 0.001802391032 0)
(3.007213926 0.001268908986 0)
(3.005833094 -7.146455318e-05 0)
(3.004586685 7.59685428e-05 0)
(3.003498032 0.0009525331577 0)
(3.000873803 0.002959486073 0)
(2.999592128 0.003501774859 0)
(2.998920521 0.002622954056 0)
(3.059886743 0.06772644675 0)
(3.03614984 -0.008459371441 0)
(3.020056726 0.00810882449 0)
(3.014493735 0.005825446918 0)
(3.012159689 0.003502488188 0)
(3.011401404 0.002421473599 0)
(3.007341998 0.002778584014 0)
(3.00574931 0.003054983938 0)
(3.003426517 0.00409794159 0)
(3.001909887 0.003719503974 0)
(3.000730924 0.002091882382 0)
(2.998789163 0.001615707797 0)
(2.997628522 0.001889125328 0)
(2.996176418 0.002923315282 0)
(2.995392806 0.002767552188 0)
(2.995200507 0.002346279787 0)
(3.000489533 0.01411087523 0)
(2.992075888 -0.003550385384 0)
(2.988393406 -0.004889629213 0)
(2.988340467 0.002471710843 0)
(2.990119736 0.00370193393 0)
(2.987967605 0.003315120963 0)
(2.984900986 0.003481322288 0)
(2.982810745 0.003596871802 0)
(2.980822584 0.003981442029 0)
(2.98014384 0.00395174508 0)
(2.97979723 0.003247941977 0)
(2.979456231 0.002892293604 0)
(2.978585528 0.002809841869 0)
(2.978229791 0.002979076261 0)
(2.978969782 0.002309914853 0)
(2.979476203 0.00144544118 0)
(2.938312153 0.003413709403 0)
(2.943762808 0.00014138537 0)
(2.945290101 -2.61586272e-05 0)
(2.943238549 0.001845615306 0)
(2.945404128 0.003208069166 0)
(2.945450248 0.003062106022 0)
(2.945296556 0.00248534926 0)
(2.945033417 0.002106795384 0)
(2.944821559 0.002461893521 0)
(2.945487795 0.003046925256 0)
(2.947022782 0.003370696967 0)
(2.94817911 0.003051627718 0)
(2.94860358 0.002582222678 0)
(2.949328257 0.002460157451 0)
(2.951855488 0.001271487953 0)
(2.953390434 -0.0002677537713 0)
(2.919084627 0.007116009906 0)
(2.920574002 0.001935029449 0)
(2.919719771 -0.0010711374 0)
(2.916255673 0.0005945330805 0)
(2.918662604 0.001221265561 0)
(2.920455907 0.001343822266 0)
(2.921835044 0.001263381691 0)
(2.922536075 0.001763090906 0)
(2.924038589 0.001433958723 0)
(2.925752551 0.001281508059 0)
(2.928515079 0.001066225508 0)
(2.930431808 0.0008415147399 0)
(2.931449357 0.0006192661096 0)
(2.932822817 0.0002592113843 0)
(2.935884719 -0.0005257466438 0)
(2.937939459 -0.00133023879 0)
(2.912590942 0.005819473694 0)
(2.915230321 0.00144443395 0)
(2.91487619 -0.0005570165827 0)
(2.91263788 0.00138886767 0)
(2.914070763 0.00207471111 0)
(2.91625528 0.00180028287 0)
(2.918247432 0.001004160023 0)
(2.919450312 0.001543313923 0)
(2.920839195 0.001768755224 0)
(2.922381072 0.001971075976 0)
(2.924237098 0.002192592781 0)
(2.925854902 0.002103057825 0)
(2.926943146 0.002083644378 0)
(2.928391643 0.002152344741 0)
(2.931707317 0.001545907111 0)
(2.934382901 0.0007068960156 0)
(2.906184172 0.006572459858 0)
(2.910018137 0.001991324829 0)
(2.910967703 -0.0004441301245 0)
(2.909834537 0.001506107051 0)
(2.910791851 0.002478947014 0)
(2.912504879 0.002496782154 0)
(2.914174165 0.001820559782 0)
(2.915541624 0.001978232667 0)
(2.917197677 0.002084208742 0)
(2.918591205 0.002214082594 0)
(2.920100602 0.002243279231 0)
(2.921401329 0.002211686471 0)
(2.922489637 0.002316241327 0)
(2.924002224 0.00225435725 0)
(2.926500362 0.001999171215 0)
(2.928983764 0.001477570929 0)
(2.902739319 0.006359324537 0)
(2.906638501 0.001839643924 0)
(2.908091274 -0.0004915418462 0)
(2.907400413 0.001505660263 0)
(2.908585898 0.002347746287 0)
(2.90978644 0.002498674339 0)
(2.911078325 0.00207164286 0)
(2.912093183 0.002207272133 0)
(2.913449959 0.002054484576 0)
(2.914786538 0.002124073771 0)
(2.91626832 0.001964899629 0)
(2.91730459 0.001745583653 0)
(2.91842459 0.001912407308 0)
(2.919774112 0.001907623347 0)
(2.921136802 0.001979394371 0)
(2.922555608 0.001687259535 0)
(2.901365524 0.0054266378 0)
(2.904279871 0.00103115075 0)
(2.904774568 -0.0008068587524 0)
(2.90444338 0.0009995416961 0)
(2.905824857 0.001742351473 0)
(2.907006286 0.001648920742 0)
(2.908167513 0.001106675783 0)
(2.908841418 0.001258546215 0)
(2.909586677 0.001184775485 0)
(2.910620923 0.001170650536 0)
(2.9117947 0.001068332517 0)
(2.912698389 0.0008489684689 0)
(2.91369159 0.0009750613611 0)
(2.914507143 0.001527676287 0)
(2.915437133 0.001340542499 0)
(2.916399598 0.001165172231 0)
(2.901117098 0.00471712797 0)
(2.902675176 0.0006070359589 0)
(2.902398401 -0.001170102587 0)
(2.90210644 0.0005688778039 0)
(2.903197026 0.001164760086 0)
(2.903985756 0.0009147930579 0)
(2.904779407 0.000274996757 0)
(2.905438051 0.0001583406266 0)
(2.90609685 -6.535970268e-05 0)
(2.907088343 0.0001504456178 0)
(2.908126384 0.0002703499051 0)
(2.908797764 0.0001245354992 0)
(2.909559516 0.000228271845 0)
(2.910306951 0.0004536552127 0)
(2.911047981 0.000361197874 0)
(2.911500424 0.0002457587423 0)
(2.900921928 0.00416186529 0)
(2.901595379 0.0007723682198 0)
(2.90128251 -0.0003773492251 0)
(2.900595108 0.001041199342 0)
(2.900832337 0.001304684445 0)
(2.901299215 0.0007711031289 0)
(2.901769935 -6.188304182e-05 0)
(2.9023859 -0.000603425047 0)
(2.903073492 -0.0009773715609 0)
(2.90404455 -0.0006296162223 0)
(2.905033684 -0.0002958975435 0)
(2.905423255 -0.0002820257548 0)
(2.905828465 -0.0001710591744 0)
(2.906582942 -0.0005388441766 0)
(2.907354833 -0.0006598336442 0)
(2.908219463 -0.000876698906 0)
(2.900495463 0.004608672799 0)
(2.90076705 0.001308316885 0)
(2.900418523 0.001116290007 0)
(2.899472571 0.002382339945 0)
(2.899303759 0.002420401381 0)
(2.899395904 0.001491471924 0)
(2.899595781 0.0003631323676 0)
(2.899897817 -0.0005307399901 0)
(2.900400441 -0.001149241092 0)
(2.901295195 -0.0008310139267 0)
(2.902018805 -0.0004506614709 0)
(2.902367497 -7.170650383e-05 0)
(2.902588839 0.0002635796502 0)
(2.903009942 -0.0001627072713 0)
(2.903762797 -0.0008854049155 0)
(2.904618529 -0.001753322865 0)
(2.898799187 0.005651541086 0)
(2.899443504 0.005300181671 0)
(2.899913648 0.001935781721 0)
(2.899609638 0.001742809778 0)
(2.898677652 0.003078407524 0)
(2.898228537 0.003060069862 0)
(2.897853937 0.002122318952 0)
(2.897776209 0.0009168176841 0)
(2.897797489 4.012490691e-05 0)
(2.898109594 -0.0006932216974 0)
(2.898912139 -0.0005835465109 0)
(2.899312542 -0.0001493885491 0)
(2.89967889 0.000559536021 0)
(2.899688221 0.00107806775 0)
(2.899763952 0.0007495262147 0)
(2.89997686 -0.0001670461418 0)
(2.900441722 -0.001099778333 0)
(2.896952968 0.006097105978 0)
(2.897929862 0.005735106987 0)
(2.898758048 0.00240117279 0)
(2.898410751 0.002356320764 0)
(2.897655245 0.00366634061 0)
(2.897042521 0.003455471669 0)
(2.896509083 0.002490061017 0)
(2.896072689 0.001418858248 0)
(2.895815314 0.0006756876947 0)
(2.895936558 2.421981977e-05 0)
(2.896620482 -2.787755876e-05 0)
(2.897170441 0.0005554665724 0)
(2.89724622 0.00109472267 0)
(2.897100534 0.001545234682 0)
(2.897064434 0.001306904747 0)
(2.897092555 0.0008306407239 0)
(2.897421267 7.027397075e-05 0)
(2.895172457 0.005962788562 0)
(2.896386788 0.004856795674 0)
(2.897036176 0.001735545889 0)
(2.896813195 0.002108021444 0)
(2.896273193 0.003363528712 0)
(2.895513304 0.002876284402 0)
(2.894784345 0.002083961262 0)
(2.894270021 0.001675121143 0)
(2.894099955 0.00146609393 0)
(2.894250169 0.001102010257 0)
(2.89475091 0.0007872288448 0)
(2.894984999 0.001144356581 0)
(2.894833624 0.001415477663 0)
(2.894747049 0.001738604634 0)
(2.894738817 0.001643942713 0)
(2.894784688 0.001464007376 0)
(2.894935566 0.0008673580807 0)
(2.892601432 0.004608362923 0)
(2.894561147 0.002693354942 0)
(2.895007151 -0.0002436217444 0)
(2.894835777 0.0001596325972 0)
(2.894306982 0.001453394891 0)
(2.89371766 0.001053839185 0)
(2.893088062 0.0004379162221 0)
(2.892593797 0.000481603648 0)
(2.892325584 0.001296444402 0)
(2.892440643 0.001786949314 0)
(2.892594526 0.001543627076 0)
(2.89255326 0.001454008236 0)
(2.892156835 0.001581208324 0)
(2.891879922 0.001771591092 0)
(2.891718081 0.001790037402 0)
(2.891698497 0.001823735126 0)
(2.891662454 0.00134886477 0)
(2.889602948 0.002837597043 0)
(2.891476779 0.001418769089 0)
(2.891873442 -0.001494893994 0)
(2.891605508 -0.001004591048 0)
(2.891143792 0.0002578963464 0)
(2.890662318 0.0003800967753 0)
(2.890220744 9.018935558e-05 0)
(2.889955196 -0.0001204395457 0)
(2.889967269 0.0003549038089 0)
(2.889930368 0.001453847027 0)
(2.889847406 0.001682360518 0)
(2.88939047 0.001515811345 0)
(2.888765058 0.001132557832 0)
(2.888360111 0.0009578483615 0)
(2.888110234 0.0008022738741 0)
(2.887958042 0.0007030439694 0)
(2.887788313 8.085154667e-05 0)
(2.884991938 0.002452489578 0)
(2.886648112 0.001199009805 0)
(2.887090988 -0.001500992199 0)
(2.886624428 -0.001198970761 0)
(2.886226896 0.0002049188817 0)
(2.885955349 0.0006154807346 0)
(2.885595436 0.0003917041607 0)
(2.885453636 6.102083651e-05 0)
(2.885814461 -2.453924352e-05 0)
(2.886038737 0.0001837082864 0)
(2.885745207 0.0008322510453 0)
(2.885227526 0.0008378936043 0)
(2.884610452 0.0002965745421 0)
(2.884160477 0.0001358456563 0)
(2.883749108 -0.0003157893104 0)
(2.883448952 -0.0007082377272 0)
(2.879420865 0.003301017448 0)
(2.8809641 0.002108449555 0)
(2.881252478 -0.0005602881214 0)
(2.881032994 -0.0004002583035 0)
(2.880742702 0.0008756720684 0)
(2.880533693 0.001214566024 0)
(2.880344468 0.00091853138 0)
(2.880231698 0.0005257538169 0)
(2.880379695 8.223840514e-05 0)
(2.880785413 -0.000583465937 0)
(2.880600536 -0.0003396364135 0)
(2.880239948 -5.222026754e-05 0)
(2.879612131 5.725835258e-06 0)
(2.87878469 4.339094336e-05 0)
(2.877965975 -0.000545810989 0)
(2.877490737 -0.001342871233 0)
(2.873331646 0.004349737368 0)
(2.874075757 0.003340791275 0)
(2.874358955 0.0005200174025 0)
(2.874203224 0.000814895481 0)
(2.874139127 0.001967079964 0)
(2.874069977 0.002030586146 0)
(2.874068558 0.001571596976 0)
(2.874277579 0.001039726593 0)
(2.874549992 0.0003830545618 0)
(2.874700595 -0.0006238455138 0)
(2.874730936 -0.0008133524592 0)
(2.874408231 -0.0003675109659 0)
(2.873616442 5.205954264e-05 0)
(2.872459994 0.0004705061721 0)
(2.871552194 -9.94967344e-05 0)
(2.870886904 -0.001141522312 0)
(2.868437087 -0.004610793631 0)
(2.866802045 0.005033559954 0)
(2.867062971 0.003996012392 0)
(2.867260556 0.001041124469 0)
(2.8669653 0.0009945336024 0)
(2.866814622 0.002249432504 0)
(2.867246853 0.001990053371 0)
(2.867481469 0.001367685191 0)
(2.867875206 0.0009489040381 0)
(2.868342609 0.0005796511651 0)
(2.868293889 -0.0001164882862 0)
(2.868346704 -0.0004672496372 0)
(2.867902389 2.816078028e-06 0)
(2.867074065 0.000371442699 0)
(2.865990905 0.0008599043466 0)
(2.865180665 0.0006700483279 0)
(2.864594378 -0.0001151912708 0)
(2.861350973 -0.003027763995 0)
(2.860098455 0.005129799511 0)
(2.860351653 0.004035761976 0)
(2.86043511 0.001514681217 0)
(2.860347631 0.001380825687 0)
(2.860257962 0.00237357094 0)
(2.86051574 0.001570745208 0)
(2.860522761 0.0005119958566 0)
(2.860855691 2.903142577e-05 0)
(2.86150849 6.126749831e-05 0)
(2.861930253 0.0002351992742 0)
(2.862081385 -4.814038883e-06 0)
(2.861622909 0.0001192062636 0)
(2.860908886 0.0005578532062 0)
(2.860175012 0.001142183357 0)
(2.859294669 0.001389869534 0)
(2.858865853 0.001022655386 0)
(2.855103165 -0.003610917944 0)
(2.85364066 0.003807869412 0)
(2.854013743 0.002674592066 0)
(2.854137526 0.0008261121112 0)
(2.853749636 0.001166164696 0)
(2.853630218 0.001917184191 0)
(2.853582918 0.0007955428952 0)
(2.853705717 -0.0003518527548 0)
(2.854295327 -0.0008064854047 0)
(2.855384623 -0.0005543319418 0)
(2.856381815 0.0001155141489 0)
(2.856777514 0.0004356541469 0)
(2.856412525 0.0005079954185 0)
(2.855979914 0.0006191228738 0)
(2.855732837 0.001285307242 0)
)
;

boundaryField
{
    inlet
    {
        type            fixedValue;
        value           nonuniform 0();
    }
    outlet
    {
        type            inletOutlet;
        inletValue      nonuniform 0();
        value           nonuniform 0();
    }
    bottom
    {
        type            slip;
    }
    top
    {
        type            slip;
    }
    obstacle
    {
        type            slip;
    }
    defaultFaces
    {
        type            empty;
    }
    procBoundary10to4
    {
        type            processor;
        value           nonuniform List<vector> 
17
(
(3.066763423 0.2233882192 0)
(3.066384605 0.2375752954 0)
(3.070441876 0.2689624747 0)
(3.074505229 0.2745758946 0)
(3.077619974 0.2837997708 0)
(2.988385115 -0.02991408749 0)
(3.002480565 0.01404221857 0)
(3.013251968 0.05265861418 0)
(3.022577627 0.075417925 0)
(3.030341665 0.1026550432 0)
(3.037313387 0.1413534487 0)
(3.043587142 0.1601115135 0)
(3.049623638 0.1712559243 0)
(3.053978844 0.2011629577 0)
(3.059852061 0.235522692 0)
(3.066491925 0.2478246481 0)
(3.066491925 0.2478246481 0)
)
;
    }
    procBoundary10to5
    {
        type            processor;
        value           uniform (3.084768916 0.3199277264 0);
    }
    procBoundary10to9
    {
        type            processor;
        value           nonuniform List<vector> 
27
(
(2.991352009 -0.0195046025 0)
(3.007457303 0.02959234191 0)
(3.019959931 0.06945445611 0)
(3.039544582 0.1377837546 0)
(3.052047603 0.1992562797 0)
(3.05994179 0.229130734 0)
(3.079968333 0.2983858546 0)
(3.084266782 0.3266630623 0)
(3.092540071 0.3565716275 0)
(3.10259316 0.3936933576 0)
(3.100923632 0.3955442806 0)
(3.092870396 0.3235628584 0)
(3.078896312 0.1421904019 0)
(3.03009307 0.05104664948 0)
(2.926931118 -0.0003254739976 0)
(2.907965143 0.003646718501 0)
(2.899584878 0.002691602619 0)
(2.894514808 0.004251456435 0)
(2.893286333 0.005561343516 0)
(2.895082094 0.005097865917 0)
(2.898840103 0.003950746813 0)
(2.90081965 0.003989607044 0)
(2.900492865 0.004836027119 0)
(2.900492865 0.004836027119 0)
(2.902599587 -0.01092483212 0)
(2.89964827 -0.009551995884 0)
(2.89683294 -0.008290512405 0)
)
;
    }
    procBoundary10to11
    {
        type            processor;
        value           nonuniform List<vector> 
34
(
(3.071676539 0.2869940862 0)
(3.037427656 0.1624168854 0)
(3.016132023 0.01545472025 0)
(3.011100349 0.02306461045 0)
(2.99508928 0.004561311989 0)
(2.994557191 0.001018852521 0)
(2.993010689 0.002355520499 0)
(2.991794733 0.003978215335 0)
(2.992418424 0.003165885871 0)
(2.99445689 0.0016778959 0)
(2.99665353 0.000164481603 0)
(2.99819367 0.0008287748396 0)
(2.994764455 0.001031738309 0)
(2.98007226 -0.0001027924782 0)
(2.954830143 -0.0007387905228 0)
(2.939643906 -0.002184569164 0)
(2.936265631 -0.0007066066742 0)
(2.930723401 0.0004327068495 0)
(2.923679052 0.0006803946949 0)
(2.917011436 0.0002642030067 0)
(2.911824663 -8.879644995e-06 0)
(2.908624417 -0.001272566009 0)
(2.905281824 -0.002629906716 0)
(2.901016897 -0.002344309836 0)
(2.8975543 -0.001188901103 0)
(2.894568302 -9.170769392e-05 0)
(2.891154777 0.0006489259725 0)
(2.887181699 -0.0001971410786 0)
(2.883255997 -0.001602778968 0)
(2.883255997 -0.001602778968 0)
(2.877189407 -0.002458541697 0)
(2.870429405 -0.002350086622 0)
(2.864258959 -0.001063525532 0)
(2.858744112 0.0001072293997 0)
)
;
    }
    procBoundary10to15
    {
        type            processor;
        value           nonuniform List<vector> 9((2.894392766 -0.008406805636 0) (2.891535829 -0.008714441921 0) (2.887249073 -0.00847746626 0) (2.881856902 -0.007092273576 0) (2.875260739 -0.005959946167 0) (2.875260739 -0.005959946167 0) (2.870178422 0.001895952773 0) (2.863786078 0.0004886388752 0) (2.857993983 -0.0004181714664 0));
    }
    procBoundary10to16
    {
        type            processor;
        value           nonuniform List<vector> 
18
(
(2.855103361 0.001846973933 0)
(2.854777047 0.00152810945 0)
(2.850010211 -0.004577072747 0)
(2.848642331 0.002440299425 0)
(2.849100848 0.001128039418 0)
(2.849269481 -0.0005330994736 0)
(2.848813779 -8.222942928e-06 0)
(2.84865474 0.0009351312128 0)
(2.848846103 0.0003864643948 0)
(2.849405461 -0.0001227313373 0)
(2.850355239 -7.122453272e-05 0)
(2.851669188 8.238309402e-05 0)
(2.852607034 0.0001750623776 0)
(2.853140197 0.0007556984667 0)
(2.853073748 0.0007944366549 0)
(2.852759935 0.0006597793932 0)
(2.855103361 0.001846973933 0)
(2.852634929 0.0009815200641 0)
)
;
    }
}


// ************************************************************************* //
