/*--------------------------------*- C++ -*----------------------------------*\
  =========                 |
  \\      /  F ield         | OpenFOAM: The Open Source CFD Toolbox
   \\    /   O peration     | Website:  https://openfoam.org
    \\  /    A nd           | Version:  7
     \\/     M anipulation  |
\*---------------------------------------------------------------------------*/
FoamFile
{
    version     2.0;
    format      ascii;
    class       volScalarField;
    location    "4.6";
    object      p;
}
// * * * * * * * * * * * * * * * * * * * * * * * * * * * * * * * * * * * * * //

dimensions      [1 -1 -2 0 0 0 0];

internalField   nonuniform List<scalar> 
555
(
0.998245743
0.9985699625
0.9986382703
0.9982331183
0.9983151182
0.9990178787
0.9998564702
1.000450943
1.000284329
0.9987785994
0.9961638138
0.9949004398
0.9949875625
0.9955585142
0.9958828414
0.9957070473
0.9950202052
0.997144575
0.9973943103
0.9975044907
0.9970628467
0.9966742294
0.9968434463
0.9988784288
0.9997232312
0.9996908007
0.9992478371
0.9981134946
0.9962654186
0.9953405055
0.9955578887
0.9958328712
0.995738852
0.9952627042
0.9962894879
0.9964770209
0.9964450756
0.9959539399
0.9954889003
0.9956928236
0.9965603018
0.9980010467
0.9984991661
0.9982890246
0.9989798201
0.9992977305
0.9988251427
0.9986180617
0.9987111276
0.9987463779
0.9986804538
0.9971451091
0.9973676281
0.9973924875
0.9966693232
0.9952091341
0.994510888
0.9946776823
0.9955434325
0.996337523
0.9970835974
0.9988103301
1.000510208
1.001749307
1.002198422
1.002498098
1.002778378
1.003181919
1.000013245
1.000718875
1.001224333
1.000909866
0.9987227171
0.9953780285
0.9935748216
0.9937791697
0.9946599178
0.9964322059
0.9988665058
1.001429491
1.002181878
1.002695324
1.003252135
1.003684402
1.005050016
1.0021267
1.002815158
1.003624612
1.003774476
1.003043977
1.000605453
0.9959805695
0.9931250191
0.9938971905
0.9963412142
0.9985772101
1.00062004
1.001945443
1.00279224
1.003215999
1.003393927
1.003539517
1.002619893
1.002946413
1.003446255
1.003702822
1.00407836
1.003761185
1.001748122
0.9980504019
0.9958594715
0.9965747941
0.9974753295
0.9987478931
1.000960113
1.001807471
1.001834408
1.00191556
1.001447415
1.001652389
1.002114112
1.002401111
1.002408919
1.003407768
1.004002083
1.003992175
1.002925085
1.001033518
0.9988618329
0.9973625743
0.9974870187
0.9988168252
0.9993818566
0.9992213311
0.9993059441
0.9990892769
0.9999139225
1.000495767
1.001254043
1.001265678
1.001790074
1.00317667
1.003541213
1.004292156
1.003424439
1.000772373
0.9985128359
0.9973992535
0.9970142648
0.9970614177
0.9969196328
0.9969845232
0.9969269302
0.9977033818
0.9980128915
0.9982796291
0.9987052276
0.9986093666
0.9980552508
0.999069486
1.001655073
1.00276381
1.002173644
1.001059184
0.9993698851
0.9979098156
0.9966322817
0.9963182193
0.9961526964
0.9962978316
0.995648339
0.9969896381
0.9971288124
0.9966645823
0.996236746
0.9957401822
0.9952799631
0.9950535595
0.9957104728
0.9975426665
0.9990924509
0.9991668727
0.9991547226
0.9981672498
0.9968779771
0.9961873708
0.9960423114
0.9950376431
0.9941525579
0.9976282725
0.9974054181
0.9966042757
0.9955260997
0.9941408723
0.9925059495
0.9918957394
0.9924531682
0.9931268344
0.9944319519
0.9969105316
0.9979868427
0.9983261742
0.997845524
0.9970852887
0.996287615
0.9947562228
0.9940973736
0.9988195297
0.9984172775
0.9977125737
0.9963275922
0.9942310303
0.9910736016
0.989855389
0.9903021405
0.9906267748
0.9913620253
0.9934357975
0.996675546
0.9983089038
0.9987914937
0.999243288
0.9986813259
0.9982947419
0.9987321971
1.000744619
1.000014844
0.9991315632
0.9978915796
0.996438567
0.9938774944
0.9914727964
0.9898967899
0.9893472827
0.9898843512
0.9919748826
0.9948784462
0.9978507922
0.9992216118
1.000334827
1.000811639
1.001985657
1.003504806
1.002000488
1.001018558
1.00021042
0.9995504117
0.9990238136
0.9984320762
0.9971941465
0.9944928377
0.9924724835
0.9913610332
0.992710077
0.9943730799
0.9972985695
0.9989455696
1.000424877
1.002240369
1.004096861
1.005344431
1.002193391
1.001554301
1.001232544
1.001457247
1.001676078
1.002116995
1.001663911
1.00021949
0.9992224827
0.9968667701
0.9945410969
0.9945395176
0.9959472259
0.9982972759
1.000534782
1.003661277
1.005371444
1.005140037
1.001312796
1.002069712
1.002899897
1.003795506
1.004228187
1.004671615
1.004315251
1.004165808
1.003800665
1.001896345
0.9977181829
0.9952683937
0.9953967012
0.9987554407
1.001766106
1.004184237
1.004998501
1.004116234
1.000483027
1.002896903
1.004120993
1.004272487
1.004541144
1.004982309
1.004937537
1.005136213
1.004351939
1.002987927
1.000235045
0.997825511
0.9969110711
0.9985477344
0.9998784207
1.001144664
1.001955738
1.000830199
1.000617133
1.001150277
1.00243574
1.002450162
1.002686202
1.003387882
1.004130927
1.004693648
1.003796625
1.002612123
1.001561315
1.000606884
0.9998644041
0.9986520232
0.9987566896
0.9984117186
0.9984324731
0.9972957569
1.000223514
1.00031347
1.000172174
0.999391872
0.9987344313
0.9984894754
0.9990558457
1.000388261
1.001063877
1.001740529
1.001967683
1.002214188
1.001701963
0.9996738741
0.9979975866
0.9968322008
0.9960832896
0.9946341957
1.000568009
0.99999933
0.9990059532
0.9975905778
0.9959238364
0.9946451459
0.9941621126
0.994085159
0.9947379862
0.9975388534
1.002314452
1.003278927
1.002492219
1.000984911
0.9987101297
0.9959660098
0.9940286568
0.9930774445
1.001032115
0.9997705976
0.9980001474
0.9959152662
0.9936474256
0.9924608802
0.9920046795
0.991791639
0.9923857711
0.9942764647
0.9984721686
1.002625442
1.002656027
1.001333103
0.9984115603
0.9945946029
0.9929019557
0.9937252983
1.00193544
1.001156138
0.9993068455
0.9974968522
0.9954736375
0.9937296533
0.9927909696
0.9922829257
0.9920855465
0.9927453069
0.9945314993
0.996283049
0.9990871567
1.001056554
1.000282981
0.9991409765
0.9973511545
0.9958090577
0.9965996697
1.002319343
1.001102199
0.9995680358
0.99843807
0.9966236756
0.9949802933
0.9941623623
0.994039857
0.9941806509
0.9951021962
0.9956153746
0.9956814708
0.9960193401
0.997285609
0.9980371487
0.998793275
0.9986218369
0.9986679335
1.000014128
1.001766729
1.001078375
1.00073017
0.9999984707
0.9987920888
0.9978143124
0.9971322025
0.9973110931
0.9970149146
0.9971429914
0.9966554352
0.9953378511
0.9939995477
0.9939357375
0.9954989382
0.9975058662
0.9999521025
1.001967172
1.003830637
1.001355608
1.001322119
1.001749184
1.00169183
1.001440792
1.001423214
1.00091331
1.000932799
1.000637509
0.9991197522
0.9976354218
0.9947273409
0.9919169765
0.9915122418
0.9934805633
0.9971778851
1.001338209
1.005326455
1.006246484
1.001135102
1.001362464
1.001912032
1.002457711
1.002898948
1.003136369
1.003260187
1.003136879
1.00302648
1.001811808
0.9974235052
0.9935297135
0.9915845413
0.9915386891
0.993332537
0.9974850383
1.00377812
1.00675969
1.006327631
1.001532589
1.001492326
1.00192402
1.002192573
1.002889362
1.003605353
1.003983592
1.003873977
1.003551388
1.002196619
1.000479954
0.9973548657
0.9940925453
0.9928649331
0.9944258244
0.9980989591
1.001533725
1.004207943
1.004626435
1.002434465
1.002004329
1.001604747
1.001437582
1.001679282
1.001980923
1.00232392
1.001865232
1.001584322
1.001494941
1.000809281
0.9998223567
0.998111471
0.9969984978
0.9981064818
0.999172097
1.000447548
1.001781928
1.002580685
1.003106619
1.00212202
1.000361403
0.9995289873
0.9993513173
0.9995493407
0.9994413873
0.9989717998
0.9992595331
1.000386197
1.000848305
1.001331594
1.001889553
1.002117065
1.001028263
0.9993758398
0.9992679253
0.9993931867
0.999595455
1.002404908
1.000983621
0.9995467122
0.9983038338
0.9974848253
0.9976966936
0.9975639666
0.9976602887
0.9980155395
0.999212211
1.001537249
1.003388553
1.004943528
1.005101707
1.002846327
0.9999596414
)
;

boundaryField
{
    inlet
    {
        type            fixedValue;
        value           nonuniform 0();
    }
    outlet
    {
        type            zeroGradient;
    }
    bottom
    {
        type            slip;
    }
    top
    {
        type            slip;
    }
    obstacle
    {
        type            zeroGradient;
    }
    defaultFaces
    {
        type            empty;
    }
    procBoundary17to11
    {
        type            processor;
        value           nonuniform List<scalar> 
17
(
0.9994902498
1.000201917
1.00003738
0.9996172293
0.9993349648
0.999177421
0.9991651095
0.9990405342
0.998700923
0.9974836663
0.9964961518
0.9959514692
0.996062944
0.9964245861
0.9966818986
0.9965736394
0.9959480534
)
;
    }
    procBoundary17to16
    {
        type            processor;
        value           nonuniform List<scalar> 
32
(
0.9971194229
0.9961955587
0.9957153851
0.9958972815
0.998369399
1.0008008
1.001957892
1.000953468
0.9993190512
0.9993190512
0.9968046084
0.9964282551
0.9969296358
0.9977704875
1.000031775
1.001611777
1.001767323
1.001000434
1.000038954
0.9987795507
0.999265488
1.000118362
1.00130212
1.00130212
1.001496465
1.002114632
1.001705108
1.000365555
0.9998291521
1.000712747
1.001724806
1.002631698
)
;
    }
    procBoundary17to22
    {
        type            processor;
        value           uniform 1.002656225;
    }
    procBoundary17to23
    {
        type            processor;
        value           nonuniform List<scalar> 
20
(
0.9968773957
0.9958126388
0.9960780424
1.002376917
1.001492199
1.00018698
0.9983328153
0.9972871004
0.9970231627
0.9965758049
0.9965747561
0.9968272635
0.9968386263
0.9988328495
1.002581527
1.00495893
1.005283046
1.003456392
0.9968773957
0.9981237632
)
;
    }
}


// ************************************************************************* //
