/*--------------------------------*- C++ -*----------------------------------*\
  =========                 |
  \\      /  F ield         | OpenFOAM: The Open Source CFD Toolbox
   \\    /   O peration     | Website:  https://openfoam.org
    \\  /    A nd           | Version:  7
     \\/     M anipulation  |
\*---------------------------------------------------------------------------*/
FoamFile
{
    version     2.0;
    format      ascii;
    class       volVectorField;
    location    "2.9";
    object      U;
}
// * * * * * * * * * * * * * * * * * * * * * * * * * * * * * * * * * * * * * //

dimensions      [0 1 -1 0 0 0 0];

internalField   nonuniform List<vector> 
138
(
(3 2.287938905e-12 0)
(3 4.437975711e-12 0)
(3 7.228200417e-12 0)
(3 9.840407906e-12 0)
(3 1.137754666e-11 0)
(3 1.959656829e-11 0)
(3 1.960348242e-11 0)
(3 1.974111565e-11 0)
(3 2.150704572e-11 0)
(3 1.102904351e-11 0)
(3 1.098250835e-10 0)
(3 -3.711214034e-10 0)
(3 1.697214912e-11 0)
(3 1.679721168e-11 0)
(3 1.711880019e-11 0)
(3 1.78799056e-11 0)
(3 1.56401444e-11 0)
(3 7.890148478e-11 0)
(3 -4.713472355e-10 0)
(3 1.936573952e-10 0)
(2.999999997 -5.736608884e-09 0)
(2.999999982 -2.450386744e-08 0)
(2.999999899 -1.65347117e-07 0)
(2.99999953 -7.422296464e-07 0)
(2.999998006 -3.338353075e-06 0)
(2.999992204 -1.308343536e-05 0)
(2.999975058 -4.2752897e-05 0)
(2.999877595 -0.0002441038565 0)
(2.99985219 -0.0002696999171 0)
(3 3.612650358e-11 0)
(3 -4.4166457e-11 0)
(3 2.639900222e-10 0)
(2.999999999 -2.100499942e-09 0)
(2.999999993 -8.781997491e-09 0)
(2.999999951 -7.519494543e-08 0)
(2.999999781 -3.344004439e-07 0)
(2.999999017 -1.596677102e-06 0)
(2.999996523 -5.627157693e-06 0)
(2.999987455 -2.125695743e-05 0)
(2.999962317 -6.331236361e-05 0)
(2.999885718 -0.0002010077145 0)
(2.999704402 -0.0005211865116 0)
(2.999260212 -0.001374129355 0)
(2.998413233 -0.002947150721 0)
(2.996593397 -0.006745182303 0)
(2.994404069 -0.01074457127 0)
(2.999999984 -2.243883485e-08 0)
(2.999999907 -1.353646093e-07 0)
(2.999999532 -7.329757233e-07 0)
(2.999998084 -3.050288003e-06 0)
(2.99999302 -1.158371888e-05 0)
(2.999977474 -3.810890848e-05 0)
(2.999935125 -0.0001128676906 0)
(2.999828777 -0.0003090484459 0)
(2.999585927 -0.0007508819306 0)
(2.999055259 -0.001761439556 0)
(2.997971025 -0.003841848405 0)
(2.996032025 -0.00783967504 0)
(2.99268702 -0.01464067092 0)
(2.988196588 -0.02481739799 0)
(2.980392068 -0.04255142695 0)
(2.973893087 -0.05904031619 0)
(2.960681521 -0.08735788029 0)
(2.999988142 -1.99153653e-05 0)
(2.999960912 -7.000575805e-05 0)
(2.999893475 -0.0001926053424 0)
(2.999728142 -0.0005252450289 0)
(2.999392442 -0.001165294971 0)
(2.998679481 -0.002677162528 0)
(2.997435703 -0.005285797264 0)
(2.995498987 -0.009814480358 0)
(2.992124514 -0.01748798571 0)
(2.987529151 -0.02909533107 0)
(2.980676646 -0.04634017134 0)
(2.974769028 -0.06310332641 0)
(2.962374732 -0.09645684311 0)
(2.956880876 -0.1150256436 0)
(2.944156766 -0.1485554024 0)
(2.940277716 -0.1630026685 0)
(2.925019455 -0.197306394 0)
(2.999068882 -0.002003366301 0)
(2.998152307 -0.004074910578 0)
(2.996442801 -0.008381695403 0)
(2.994430227 -0.01399523738 0)
(2.990252535 -0.02496719924 0)
(2.986583862 -0.03605093954 0)
(2.978717173 -0.05898998462 0)
(2.975040274 -0.07748516245 0)
(2.963395461 -0.1150263359 0)
(2.96209843 -0.1323066974 0)
(2.947740458 -0.1781787079 0)
(2.944682042 -0.1926317927 0)
(2.932181797 -0.2250803781 0)
(2.932380225 -0.231539212 0)
(2.915730424 -0.2602403168 0)
(2.910902375 -0.2648007819 0)
(2.904054462 -0.2791274577 0)
(2.988715635 -0.02982710431 0)
(2.983939908 -0.04322398214 0)
(2.97876015 -0.06213175535 0)
(2.975764997 -0.0766128348 0)
(2.968581701 -0.1008178484 0)
(2.96406087 -0.1193360862 0)
(2.956688148 -0.1496798826 0)
(2.955864541 -0.1645917245 0)
(2.947298944 -0.1900791621 0)
(2.939741644 -0.2099973479 0)
(2.932698434 -0.2251425302 0)
(2.927580265 -0.2359099742 0)
(2.911447436 -0.2543830959 0)
(2.905403226 -0.2617191404 0)
(2.902508798 -0.2606257119 0)
(2.899672267 -0.2622449395 0)
(2.898720661 -0.266140635 0)
(2.93299173 -0.1684403236 0)
(2.92581029 -0.1933859097 0)
(2.907764558 -0.2363193518 0)
(2.904008856 -0.2538095148 0)
(2.891928173 -0.2801613847 0)
(2.884454441 -0.2943327245 0)
(2.8744323 -0.3128911449 0)
(2.8683216 -0.3122019151 0)
(2.864737281 -0.3137023106 0)
(2.860852256 -0.3054960506 0)
(2.858741816 -0.2963099198 0)
(2.858819878 -0.2909843204 0)
(2.859683226 -0.28556296 0)
(2.861290281 -0.2825922838 0)
(2.866176765 -0.2792965431 0)
(2.87115327 -0.2744822933 0)
(2.87428166 -0.2712060635 0)
(2.853442946 -0.2536794445 0)
(2.857277644 -0.258639481 0)
(2.859742561 -0.2655849216 0)
(2.860854251 -0.2631172085 0)
(2.859769742 -0.2648426615 0)
(2.860448559 -0.2608464741 0)
(2.861141414 -0.2636774359 0)
)
;

boundaryField
{
    inlet
    {
        type            fixedValue;
        value           nonuniform 0();
    }
    outlet
    {
        type            inletOutlet;
        inletValue      nonuniform 0();
        value           nonuniform 0();
    }
    bottom
    {
        type            slip;
    }
    top
    {
        type            slip;
    }
    obstacle
    {
        type            slip;
    }
    defaultFaces
    {
        type            empty;
    }
    procBoundary14to7
    {
        type            processor;
        value           uniform (3 8.569680029e-13 0);
    }
    procBoundary14to8
    {
        type            processor;
        value           nonuniform List<vector> 
18
(
(3 2.889535009e-14 0)
(3 1.859300293e-13 0)
(3 5.828562756e-13 0)
(3 1.43235703e-12 0)
(3 2.542151787e-12 0)
(3 4.679847371e-12 0)
(3 7.409224026e-12 0)
(3 1.015640432e-11 0)
(3 1.397496441e-11 0)
(3 1.39737074e-11 0)
(3 2.270408618e-11 0)
(3 2.392806633e-11 0)
(2.999999999 -1.063544883e-09 0)
(2.999999999 -1.063544883e-09 0)
(2.99999999 -1.566160571e-08 0)
(2.999999956 -6.646415411e-08 0)
(2.999998773 -2.312982645e-06 0)
(3.000000291 5.176812421e-07 0)
)
;
    }
    procBoundary14to9
    {
        type            processor;
        value           nonuniform List<vector> 8((2.996696945 -0.007168054379 0) (2.977677154 -0.05547653214 0) (2.950955442 -0.150155349 0) (2.928473887 -0.2214927658 0) (2.896729697 -0.2746803679 0) (2.896294175 -0.2680053715 0) (2.891628758 -0.2393700461 0) (2.955301892 0.03085684095 0));
    }
    procBoundary14to13
    {
        type            processor;
        value           nonuniform List<vector> 7((3 1.080718852e-11 0) (3 2.757020319e-11 0) (2.999999998 -1.447293844e-09 0) (2.999996707 -5.568097249e-06 0) (2.999597533 -0.0008546700472 0) (2.992907237 -0.01820737612 0) (2.943215375 -0.1407262618 0));
    }
    procBoundary14to20
    {
        type            processor;
        value           nonuniform List<vector> 
11
(
(2.900565178 -0.1070647456 0)
(2.891382581 -0.1341033809 0)
(2.88669287 -0.1451518978 0)
(2.882565183 -0.1578902948 0)
(2.875417588 -0.178325848 0)
(2.869525147 -0.1904654448 0)
(2.864893417 -0.2068685079 0)
(2.859953423 -0.2254022079 0)
(2.855628313 -0.2411056368 0)
(2.852629336 -0.2475693492 0)
(2.852629336 -0.2475693492 0)
)
;
    }
}


// ************************************************************************* //
