/*--------------------------------*- C++ -*----------------------------------*\
  =========                 |
  \\      /  F ield         | OpenFOAM: The Open Source CFD Toolbox
   \\    /   O peration     | Website:  https://openfoam.org
    \\  /    A nd           | Version:  7
     \\/     M anipulation  |
\*---------------------------------------------------------------------------*/
FoamFile
{
    version     2.0;
    format      ascii;
    class       volVectorField;
    location    "1.8";
    object      U;
}
// * * * * * * * * * * * * * * * * * * * * * * * * * * * * * * * * * * * * * //

dimensions      [0 1 -1 0 0 0 0];

internalField   nonuniform List<vector> 
138
(
(2.999999987 1.73644768e-08 0)
(2.999999888 1.999997887e-07 0)
(2.999999592 6.172207185e-07 0)
(2.999997782 3.948103088e-06 0)
(2.999993213 1.103599182e-05 0)
(2.999971718 5.126565678e-05 0)
(2.999930675 0.0001835497926 0)
(2.999861269 0.000277753851 0)
(3 -2.605015849e-12 0)
(3 -4.884392166e-12 0)
(3 -8.415460948e-12 0)
(3 -1.061879996e-11 0)
(3 -1.264379278e-11 0)
(3 -2.043879414e-11 0)
(3 -2.060151915e-11 0)
(3 -1.973747103e-11 0)
(3 -2.373977173e-11 0)
(3 6.446710513e-12 0)
(3 -1.25205358e-10 0)
(3 5.856420739e-10 0)
(2.999999999 6.044568231e-10 0)
(2.999999991 1.573331716e-08 0)
(2.999999953 6.791127457e-08 0)
(2.999999225 1.819661258e-06 0)
(3.000000772 -1.501245615e-06 0)
(3 -2.280920416e-13 0)
(3 -6.379770403e-13 0)
(3 -1.661328971e-12 0)
(3 -2.713389173e-12 0)
(3 -5.027629412e-12 0)
(3 -7.670115849e-12 0)
(3 -1.085088256e-11 0)
(3 -1.457225908e-11 0)
(3 -1.358794347e-11 0)
(3 -1.44011604e-11 0)
(3 -1.41626158e-11 0)
(3 -1.490397245e-11 0)
(3 -1.090701854e-11 0)
(3 -3.990239511e-11 0)
(2.999999998 3.32594594e-09 0)
(3.000000132 -2.256475611e-07 0)
(3 1.838514888e-15 0)
(3 -4.567102773e-15 0)
(3 -3.668128781e-14 0)
(3 -1.380107294e-13 0)
(3 -3.168422491e-13 0)
(3 -7.103396188e-13 0)
(3 -1.537058037e-12 0)
(3 -2.800798073e-12 0)
(3 -4.819191368e-12 0)
(3 -5.968209006e-12 0)
(3 -7.899771108e-12 0)
(3 -9.267939303e-12 0)
(3 -9.830944698e-12 0)
(3 -1.572608439e-11 0)
(3 -1.461463461e-11 0)
(3.000000006 -1.134399348e-08 0)
(3 4.199412692e-15 0)
(3 5.365242626e-15 0)
(3 5.787354863e-15 0)
(3 4.710483856e-15 0)
(3 3.696294978e-15 0)
(3 -5.224334231e-15 0)
(3 -3.270382024e-14 0)
(3 -1.250315243e-13 0)
(3 -3.754565651e-13 0)
(3 -9.22677605e-13 0)
(3 -1.644235348e-12 0)
(3 -2.812056977e-12 0)
(3 -4.267171936e-12 0)
(3 -5.664208102e-12 0)
(3 -7.186539233e-12 0)
(3 -1.328440071e-10 0)
(3 1.234161618e-14 0)
(3 1.201647178e-14 0)
(3 1.162651067e-14 0)
(3 1.132930493e-14 0)
(3 1.113547952e-14 0)
(3 1.029040983e-14 0)
(3 8.894449449e-15 0)
(3 8.94192438e-15 0)
(3 3.545365306e-15 0)
(3 -2.255035506e-14 0)
(3 -8.421039729e-14 0)
(3 -2.108921163e-13 0)
(3 -4.948547385e-13 0)
(3 -8.793953239e-13 0)
(3 -1.385457806e-12 0)
(3 -2.557419093e-12 0)
(3 1.590015185e-14 0)
(3 1.378819705e-14 0)
(3 1.383802772e-14 0)
(3 1.409605086e-14 0)
(3 1.379418568e-14 0)
(3 1.320289147e-14 0)
(3 1.30975416e-14 0)
(3 1.236297312e-14 0)
(3 9.752530359e-15 0)
(3 8.589276447e-15 0)
(3 9.027684351e-15 0)
(3 2.367901555e-15 0)
(3 -1.274837322e-14 0)
(3 -4.160169764e-14 0)
(3 -1.330204626e-13 0)
(3 -1.25085332e-13 0)
(3 1.110504837e-14 0)
(3 1.206811245e-14 0)
(3 1.348312371e-14 0)
(3 1.33890367e-14 0)
(3 1.336857059e-14 0)
(3 1.231753108e-14 0)
(3 1.209338104e-14 0)
(3 1.07144612e-14 0)
(3 8.760548148e-15 0)
(3 7.475199595e-15 0)
(3 6.463976325e-15 0)
(3 5.341322006e-15 0)
(3 3.496462961e-15 0)
(3 1.929483954e-15 0)
(3 -3.630851594e-16 0)
(3 -2.357961954e-16 0)
(3 1.862440728e-14 0)
(3 1.901520397e-14 0)
(3 1.88219758e-14 0)
(3 1.644074039e-14 0)
(3 1.55282832e-14 0)
(3 1.44077638e-14 0)
(3 1.237078196e-14 0)
(3 9.470769374e-15 0)
(3 7.122918274e-15 0)
(3 4.23231811e-15 0)
(3 2.200331415e-15 0)
(3 1.984951657e-15 0)
(3 1.642812655e-15 0)
(3 2.320879029e-15 0)
(3 2.274978076e-15 0)
(3 9.172557092e-16 0)
(3 1.289210164e-14 0)
)
;

boundaryField
{
    inlet
    {
        type            fixedValue;
        value           nonuniform 0();
    }
    outlet
    {
        type            inletOutlet;
        inletValue      nonuniform 0();
        value           nonuniform 0();
    }
    bottom
    {
        type            slip;
    }
    top
    {
        type            slip;
    }
    obstacle
    {
        type            slip;
    }
    defaultFaces
    {
        type            empty;
    }
    procBoundary26to20
    {
        type            processor;
        value           nonuniform List<vector> 
18
(
(2.999987589 2.119815472e-05 0)
(2.99996154 6.44468727e-05 0)
(2.99988795 0.0001994279993 0)
(2.999700564 0.0005225666825 0)
(2.999275002 0.001354489746 0)
(2.998351728 0.003060617838 0)
(2.996741451 0.006567033742 0)
(2.994365069 0.01097136984 0)
(3 -1.909948621e-11 0)
(3 -1.885669089e-11 0)
(3 -1.906897761e-11 0)
(3 -1.965634549e-11 0)
(3 -1.720291827e-11 0)
(3 -7.957366104e-11 0)
(3 5.555143759e-10 0)
(3 -6.169226851e-10 0)
(2.999999996 8.673353195e-09 0)
(2.999999996 8.673353195e-09 0)
)
;
    }
    procBoundary26to25
    {
        type            processor;
        value           nonuniform List<vector> 9((3 -9.463454489e-13 0) (3 -4.130584031e-14 0) (3 -4.130584031e-14 0) (3 3.461527186e-15 0) (3 3.133748265e-15 0) (3 1.294335651e-14 0) (3 1.624383785e-14 0) (3 1.201744505e-14 0) (3 1.683912166e-14 0));
    }
    procBoundary26to27
    {
        type            processor;
        value           nonuniform List<vector> 3((2.997410446 0.006367380581 0) (2.999820261 0.0004289534751 0) (2.999996196 8.541280456e-06 0));
    }
    procBoundary26to31
    {
        type            processor;
        value           uniform (3 1.236514865e-14 0);
    }
    procBoundary26to32
    {
        type            processor;
        value           nonuniform List<vector> 
17
(
(3 1.103856186e-14 0)
(3 1.053610495e-14 0)
(3 1.110006158e-14 0)
(3 1.238786128e-14 0)
(3 1.32894769e-14 0)
(3 1.326797991e-14 0)
(3 1.299863603e-14 0)
(3 1.297479074e-14 0)
(3 1.134749953e-14 0)
(3 8.927897426e-15 0)
(3 7.695514049e-15 0)
(3 7.168239867e-15 0)
(3 6.621297021e-15 0)
(3 5.455466979e-15 0)
(3 7.165848686e-15 0)
(3 1.103856186e-14 0)
(3 1.322586814e-15 0)
)
;
    }
    procBoundary26to33
    {
        type            processor;
        value           nonuniform List<vector> 6((2.999999965 7.968312652e-08 0) (3 1.041594252e-10 0) (3 -2.514676987e-12 0) (3 -1.428546044e-12 0) (3 -5.625435182e-13 0) (3 -1.77555798e-13 0));
    }
}


// ************************************************************************* //
