/*--------------------------------*- C++ -*----------------------------------*\
  =========                 |
  \\      /  F ield         | OpenFOAM: The Open Source CFD Toolbox
   \\    /   O peration     | Website:  https://openfoam.org
    \\  /    A nd           | Version:  7
     \\/     M anipulation  |
\*---------------------------------------------------------------------------*/
FoamFile
{
    version     2.0;
    format      ascii;
    class       volScalarField;
    location    "4.1";
    object      rho;
}
// * * * * * * * * * * * * * * * * * * * * * * * * * * * * * * * * * * * * * //

dimensions      [1 -3 0 0 0 0 0];

internalField   nonuniform List<scalar> 
555
(
1.003149869
1.115361001
1.264067605
1.35361926
1.384399593
1.394260519
1.385824674
1.371872691
0.8047703895
0.7898075654
0.8296964172
0.8912071403
0.9163634355
0.9139426396
0.9195256593
0.9278238048
0.9392964706
0.9801906549
1.093008111
1.241853866
1.34612071
1.383712581
1.392214112
1.38295066
1.36926095
0.8073771317
0.7887504549
0.8261279838
0.8897542443
0.9192953415
0.9151248658
0.918266655
0.9239233204
0.9304799132
0.9614755043
1.076706816
1.237280543
1.349102931
1.382033707
1.388597678
1.382308365
1.368217316
0.8104795426
0.7881397925
0.822513569
0.8879096179
0.9219086909
0.9152014392
0.9160513819
0.9203998212
0.9264180556
0.9511845154
1.030972698
1.207439256
1.341181431
1.373202938
1.386358968
1.383490007
1.367909073
0.8141400557
0.7878073902
0.8189142067
0.8858075736
0.9247371277
0.914864914
0.9149788369
0.9185862418
0.9232532373
0.9409425078
0.9925657678
1.141987652
1.302765547
1.358357297
1.385868262
1.386460555
1.368799608
1.384861382
0.8186303268
0.7867557737
0.8151951301
0.8839436373
0.9276096902
0.9153893087
0.914444146
0.9170647108
0.9194726987
0.9302633374
0.9766278394
1.090334896
1.245330361
1.345304642
1.387739096
1.387572624
1.366841421
1.3834046
0.8243765434
0.7860079261
0.8107374052
0.8826653755
0.9299633694
0.916118617
0.9138462442
0.9151930255
0.9161790383
0.9236779808
0.9639160758
1.069179067
1.214100017
1.344581124
1.388903633
1.387613559
1.363400867
1.380884765
0.8314169258
0.788077417
0.8071299694
0.882140169
0.9347246637
0.9171069063
0.9127511774
0.9132097953
0.913544421
0.920413208
0.9472166486
1.040658191
1.203825443
1.338312832
1.387421099
1.387277021
1.358603171
1.377063951
0.8395947245
0.7883021733
0.8048534228
0.8836338806
0.9382632065
0.9191480921
0.9118772828
0.9116399213
0.9115854894
0.9171749545
0.9348425943
1.002477927
1.179756684
1.323444549
1.379761684
1.384945119
1.353856561
1.374425802
0.8490120958
0.7886992928
0.8031962176
0.887493101
0.9415694232
0.9212007924
0.9113656282
0.9098420207
0.9090102785
0.9131878573
0.9267412423
0.9793479369
1.123329368
1.286290159
1.363906008
1.380993874
1.350118103
1.374387675
0.8593161024
0.7891668118
0.8078761196
0.897810919
0.9458809124
0.92655009
0.9105635289
0.907957478
0.9063304945
0.9105865222
0.921711048
0.962739124
1.073965466
1.24125447
1.35138704
1.38254466
1.350035856
1.374683269
0.8983975812
0.7887621163
0.8107260213
0.9001887499
0.9478983378
0.9312305904
0.9109318409
0.9061438901
0.9039600454
0.9079194953
0.9148907213
0.9432518015
1.027009109
1.186221351
1.333415148
1.384165296
1.349411486
1.375179648
1.454934547
1.024010155
0.9709961774
0.9665894499
0.9598009049
0.9399761957
0.9125508974
0.9022469813
0.9003057703
0.9013459753
0.9009957843
0.9026190564
0.9331738696
1.048435756
1.234327993
1.29874203
1.334063422
1.375348188
1.757125598
1.544867761
1.322194636
1.14327083
1.013679321
0.9358385143
0.9091918496
0.8941269151
0.9020219834
0.9071103198
0.9008192263
0.8876590641
0.8870162263
0.9069743232
0.9753172529
1.117832141
1.262489559
1.335435404
1.814556427
1.739867674
1.562285904
1.351743689
1.141284398
1.04970524
1.003459976
0.9609959791
0.9365736196
0.9116719572
0.8941544221
0.8831465541
0.8839212048
0.8893896135
0.9003824514
0.9427180573
1.040697728
1.17751322
1.818691688
1.800215711
1.723442464
1.570473526
1.3960408
1.241959217
1.1411893
1.057779817
0.9746331827
0.9280724355
0.9283064975
0.9264863228
0.916026351
0.9049151383
0.9005493031
0.9028888781
0.9204328447
0.9784554117
1.820449176
1.814086319
1.788898933
1.712051177
1.585517402
1.426072619
1.282965428
1.184348971
1.085165574
1.028618718
1.009121992
0.9866651105
0.9514464989
0.9200637747
0.906191439
0.9090152164
0.9113106746
0.9151183376
1.826307078
1.820051697
1.809868808
1.77911244
1.706117615
1.593429712
1.455930934
1.334112069
1.248099828
1.153615694
1.059310442
1.023005058
1.000083032
0.9633772158
0.9451895373
0.9433874914
0.9313971741
0.9169381373
1.831308211
1.826376181
1.819603049
1.806732139
1.772393887
1.703514659
1.600854905
1.472200996
1.361360983
1.281114784
1.178962918
1.101401212
1.085588745
1.051453979
0.9965004343
0.9681902621
0.952365437
0.926478564
1.839565968
1.835496101
1.828519964
1.82086497
1.80502814
1.766784025
1.699674446
1.605806217
1.485908878
1.391604938
1.318331642
1.220518771
1.148185714
1.111896925
1.060363994
1.005690387
1.000763315
0.984795146
1.837071895
1.83140355
1.833144316
1.830524716
1.821254734
1.800278642
1.758658349
1.694058092
1.607021632
1.50067979
1.414785944
1.33389103
1.233374386
1.184021481
1.152902287
1.098543902
1.057834008
1.035644171
1.796253325
1.818918742
1.838512182
1.837509558
1.832545764
1.819248259
1.795154408
1.752091144
1.690730593
1.607496335
1.511609818
1.435792921
1.352780635
1.269576769
1.222466819
1.170595646
1.104702655
1.078253549
1.723114178
1.820293899
1.838511662
1.834816873
1.829057549
1.826985838
1.816575854
1.791763258
1.748433564
1.68790794
1.607051412
1.522572568
1.449118735
1.366067365
1.295165054
1.247457865
1.188617775
1.143232494
1.576612978
1.75449585
1.79503326
1.811019872
1.825009733
1.830228087
1.826347172
1.81438658
1.788258401
1.7445814
1.684753142
1.607955253
1.532645542
1.458808129
1.381438891
1.323862832
1.271247795
1.21153198
1.452430729
1.591958917
1.710370619
1.802875669
1.831568553
1.829776013
1.826637961
1.823356079
1.811299525
1.783747811
1.740067096
1.680359269
1.610368413
1.540055924
1.467064154
1.396716905
1.338592632
1.282654318
1.40702251
1.455588811
1.586947246
1.738199505
1.804276208
1.814677618
1.822277084
1.826546452
1.822153645
1.808024214
1.779492031
1.735624758
1.677917542
1.611351851
1.544639565
1.475222494
1.411889711
1.354559216
1.400415303
1.408710678
1.47054194
1.592702053
1.704716002
1.793142952
1.827213598
1.826732815
1.824816128
1.820310583
1.805603104
1.776175789
1.732095294
1.675659626
1.612752106
1.546889381
1.483908576
1.423252316
1.400015501
1.400770801
1.415426217
1.465366078
1.589005891
1.730170602
1.804959799
1.813527732
1.821667089
1.825484516
1.82021615
1.804003327
1.773392537
1.728982163
1.67425821
1.61296102
1.550877822
1.491333981
1.400005153
1.40004595
1.401942777
1.413503506
1.476854876
1.59330115
1.702249816
1.786812186
1.826339903
1.825802771
1.82343171
1.817877847
1.801258632
1.76979905
1.725805812
1.672086339
1.613923508
1.554918118
1.400005041
1.400006445
1.400150632
1.401685416
1.418957658
1.469962075
1.588373271
1.725142997
1.804965057
1.81147594
1.819880014
1.823466165
1.817270802
1.799173353
1.767115734
1.723494973
1.671251409
1.613925896
1.40000504
1.400005074
1.400011559
1.400135883
1.402755506
1.415864758
1.47827201
1.59412438
1.70301663
1.780544436
1.824621374
1.824428961
1.821248875
1.814579393
1.796523483
1.764289021
1.720919278
1.670079118
1.40000504
1.400005041
1.400005217
1.40001145
1.400249441
1.40220795
1.420471836
1.472369981
1.587765312
1.722241068
)
;

boundaryField
{
    inlet
    {
        type            calculated;
        value           nonuniform 0();
    }
    outlet
    {
        type            calculated;
        value           nonuniform 0();
    }
    bottom
    {
        type            calculated;
        value           nonuniform 0();
    }
    top
    {
        type            calculated;
        value           nonuniform 0();
    }
    obstacle
    {
        type            calculated;
        value           nonuniform List<scalar> 
11
(
0.8047703895
0.8073771317
0.8104795426
0.8141400557
0.8186303268
0.8243765434
0.8314169258
0.8395947245
0.8490120958
0.8593161024
0.8983975812
)
;
    }
    defaultFaces
    {
        type            empty;
    }
    procBoundary27to20
    {
        type            processor;
        value           nonuniform List<scalar> 
16
(
1.826430865
1.82099597
1.819261342
1.819936902
1.823311237
1.833888616
1.831643262
1.837210479
1.837375287
1.781348642
1.63813366
1.46561471
1.40467093
1.400033947
1.400004988
1.40000503
)
;
    }
    procBoundary27to21
    {
        type            processor;
        value           nonuniform List<scalar> 
18
(
1.027103488
1.178184499
1.315208507
1.370313839
1.383755448
1.395134302
1.386656581
1.37632517
0.8020858614
0.7914995491
0.8331931974
0.8925599254
0.9130227581
0.9127424133
0.9195083491
0.929518476
0.9488143091
0.9488143091
)
;
    }
    procBoundary27to26
    {
        type            processor;
        value           nonuniform List<scalar> 4(1.40000504 1.40000504 1.40000504 1.40000504);
    }
    procBoundary27to28
    {
        type            processor;
        value           nonuniform List<scalar> 
28
(
1.383629073
1.382780214
1.383143896
1.384472976
1.384472976
1.381414405
1.380660481
1.377491624
1.371821205
1.369980277
1.369721423
1.371304962
1.37254377
1.36752578
1.34642563
1.274250426
1.105254997
0.9496877139
0.9178151937
0.921618603
0.9561327928
0.9968387107
1.057619806
1.119691711
1.167213758
1.230266856
1.299957262
1.366296358
)
;
    }
    procBoundary27to33
    {
        type            processor;
        value           nonuniform List<scalar> 
19
(
1.807427385
1.808875681
1.815866669
1.820534948
1.814200305
1.794756226
1.762209908
1.719362992
1.40000504
1.40000504
1.400005043
1.400005252
1.400018484
1.400203611
1.403240495
1.417432488
1.479824743
1.807427385
1.594977199
)
;
    }
    procBoundary27to34
    {
        type            processor;
        value           nonuniform List<scalar> 4(1.432956823 1.498905139 1.559946525 1.615766824);
    }
}


// ************************************************************************* //
