/*--------------------------------*- C++ -*----------------------------------*\
  =========                 |
  \\      /  F ield         | OpenFOAM: The Open Source CFD Toolbox
   \\    /   O peration     | Website:  https://openfoam.org
    \\  /    A nd           | Version:  7
     \\/     M anipulation  |
\*---------------------------------------------------------------------------*/
FoamFile
{
    version     2.0;
    format      ascii;
    class       volScalarField;
    location    "4.2";
    object      rho;
}
// * * * * * * * * * * * * * * * * * * * * * * * * * * * * * * * * * * * * * //

dimensions      [1 -3 0 0 0 0 0];

internalField   nonuniform List<scalar> 
2222
(
1.940022121
2.372734183
2.504498675
2.508010524
2.480740432
1.276577858
1.275578553
1.274519209
1.272539325
1.269644672
1.26643186
1.264519914
1.26442511
1.264726605
1.265450468
1.266697511
1.268696152
1.271122883
1.273768805
1.275623295
1.276083233
1.275957758
1.274919821
1.272918568
1.271245116
1.269997332
1.26870187
1.267371009
1.265887546
1.270272535
1.43330672
1.962246533
2.381805656
2.504333933
2.506480638
2.477331885
1.270273566
1.271896272
1.274276755
1.277503767
1.276705077
1.27602543
1.274267371
1.271891751
1.26892549
1.265598551
1.262806935
1.262557077
1.26337588
1.264531682
1.266434322
1.268516073
1.271079701
1.273178662
1.274368464
1.274684608
1.274444722
1.27314035
1.270906756
1.269096434
1.267960364
1.26723478
1.267140961
1.265983204
1.271168787
1.449789467
1.984522157
2.391047508
2.504229399
2.505080823
2.475169861
1.269849463
1.270986065
1.272416042
1.275155881
1.276554606
1.276088749
1.273879434
1.271764429
1.268815176
1.265389979
1.262206998
1.261646435
1.262140028
1.263203114
1.26557151
1.268328142
1.271257799
1.273029858
1.273710395
1.273895555
1.273589502
1.272324911
1.270292588
1.267994144
1.266274737
1.2653207
1.265304152
1.265465467
1.27246577
1.46764027
2.006194759
2.400347937
2.503733266
2.503660891
2.474178191
1.270528839
1.270941049
1.271883413
1.273061585
1.274580753
1.275377248
1.273681108
1.271677187
1.268672393
1.265152329
1.262051966
1.261216181
1.261621299
1.262569958
1.264556142
1.268049304
1.271194033
1.272997137
1.273627721
1.273673236
1.273369715
1.272173251
1.270199882
1.267874297
1.265958613
1.264704427
1.263780541
1.264085222
1.273718953
1.486794428
2.026699756
2.407610186
2.502054789
2.50161466
2.474475043
1.270895732
1.271593031
1.272187424
1.272666361
1.272745705
1.273779755
1.273040851
1.270798471
1.267334979
1.264379822
1.261926806
1.261032787
1.261410084
1.26239772
1.264289394
1.267287421
1.270458784
1.272764222
1.273516712
1.27351503
1.273223571
1.272162171
1.270106743
1.268045873
1.266103743
1.264744827
1.263537144
1.263475617
1.274841176
1.506982291
2.045860782
2.411986639
2.498036286
2.497624492
2.473387241
1.270716442
1.271648023
1.272792829
1.272583457
1.272253723
1.272152621
1.270900887
1.267977906
1.263900311
1.261458682
1.260622391
1.260483731
1.261076687
1.262220979
1.264247531
1.266563611
1.269117014
1.271385326
1.272278495
1.272413404
1.27215998
1.271375375
1.269608618
1.267862424
1.266083717
1.264839491
1.263686981
1.263370527
1.276193218
1.527896715
2.064666393
2.415008483
2.492454057
2.491589495
2.469118648
1.269179614
1.271091677
1.272826394
1.273664563
1.271910418
1.271583826
1.269597003
1.266224191
1.261915317
1.258779997
1.258070389
1.258554333
1.259765277
1.261738283
1.264028741
1.266335958
1.268545042
1.270059463
1.270515096
1.27040425
1.269874379
1.268884825
1.267283759
1.265867551
1.264960686
1.264398791
1.263603093
1.263407761
1.278102377
1.549374988
2.08383329
2.417810586
2.489968011
2.488404432
2.462742434
1.265173597
1.269042852
1.272027076
1.273862591
1.272627292
1.271340247
1.269080236
1.265586529
1.261296928
1.257663845
1.256552717
1.257137774
1.258539862
1.260677032
1.263576821
1.266389947
1.268418476
1.269688377
1.269826869
1.269500739
1.268794575
1.267319632
1.265283645
1.263378346
1.262184075
1.261886214
1.262231661
1.262888326
1.28050558
1.571361264
2.104817655
2.421718471
2.489415704
2.487720877
2.460699342
1.262903169
1.266070979
1.269840005
1.273335681
1.272835359
1.271274798
1.268698252
1.265355801
1.261159388
1.257416705
1.256187998
1.256727866
1.258024535
1.260150495
1.263107305
1.266250223
1.268451648
1.269628045
1.269679224
1.269307017
1.268573631
1.26691129
1.26471811
1.262454554
1.2607242
1.259655487
1.259441282
1.260441029
1.282873061
1.593696249
2.127452616
2.430497279
2.490723903
2.488614777
1.259524646
1.26215723
1.264956175
1.267580439
1.271541053
1.272258048
1.270983412
1.267830243
1.264577961
1.260692075
1.2576158
1.256472601
1.256765315
1.257553212
1.260079258
1.262963792
1.266024925
1.267957556
1.269153481
1.269487197
1.269406633
1.26865129
1.266896602
1.264696693
1.26230395
1.260482606
1.259098344
1.258175162
1.258718263
1.284955439
1.616170719
2.14762668
2.439497433
2.490386636
2.487932129
1.259764476
1.2622378
1.264671776
1.26686215
1.268837461
1.27033784
1.269409155
1.266233537
1.26211913
1.259153638
1.257303475
1.256355626
1.256658724
1.257717684
1.259928445
1.263039654
1.265664435
1.267408107
1.268568321
1.269008686
1.268994523
1.268126915
1.266495697
1.264542506
1.262528243
1.260692073
1.259092739
1.257727821
1.258083526
1.287452404
1.63864236
2.16303841
2.440251276
2.486235797
2.48346062
1.259745602
1.262415898
1.264565611
1.266795067
1.267702378
1.267631088
1.266449338
1.263714615
1.258912144
1.255804386
1.25498366
1.255195905
1.256237909
1.25754993
1.259574275
1.262671516
1.265004516
1.266555565
1.267281071
1.267420593
1.267037138
1.265726345
1.264104313
1.263233006
1.262167922
1.260588241
1.259006735
1.257225863
1.257722053
1.291332706
1.661487163
2.175559614
2.439010458
2.478898383
2.476063313
1.259556603
1.26251334
1.26454122
1.266150317
1.267589422
1.266577268
1.265127442
1.262374363
1.257544328
1.253843038
1.252805304
1.25318703
1.254585364
1.25660579
1.25905277
1.261749385
1.263776058
1.26470371
1.265253164
1.265259251
1.264801432
1.263335015
1.261193522
1.260037613
1.260066014
1.259864453
1.258719768
1.257369145
1.257855333
1.296963284
1.685317347
2.18772344
2.438852292
2.475364257
2.472566041
1.258976572
1.261947476
1.264613789
1.266581006
1.267330127
1.266272513
1.264578588
1.261762321
1.257067146
1.253257225
1.252178784
1.252471356
1.253467329
1.25566122
1.257996596
1.260233362
1.262369136
1.263455145
1.264044519
1.264250069
1.263886174
1.262466383
1.260175279
1.258189382
1.257262469
1.257505246
1.25789101
1.257176501
1.257696645
1.303754588
1.710369757
2.201098937
2.43954205
2.47415948
2.471333903
1.257095776
1.260568881
1.264079223
1.266674563
1.267480849
1.265888254
1.263742747
1.260895681
1.256730733
1.253582603
1.252250733
1.252421164
1.253178082
1.255354747
1.257420264
1.259222997
1.261493717
1.263264588
1.263799153
1.263943373
1.263651646
1.262326059
1.260056802
1.257760238
1.256167985
1.255147874
1.2554895
1.255522325
1.256645006
1.310755723
1.736069858
2.216967803
2.441525301
2.475127809
2.472119522
1.254547141
1.259093414
1.262671487
1.265916246
1.267288697
1.265117769
1.262382695
1.258497147
1.255467478
1.253021937
1.251977047
1.252305267
1.253506295
1.255170258
1.257037121
1.258990318
1.261110004
1.263237329
1.263815915
1.263741579
1.263380855
1.262227676
1.260191148
1.257854772
1.255525686
1.253763353
1.253734961
1.253609711
1.25541536
1.317737274
1.761445054
2.233333762
2.444346186
2.473932806
2.471237806
1.248872893
1.25223598
1.257284476
1.260961698
1.264012686
1.264837369
1.262900772
1.259264104
1.253728663
1.251502309
1.250615847
1.250797196
1.251364371
1.253364465
1.255266758
1.25755342
1.258987893
1.260742333
1.262179326
1.2625723
1.262346807
1.261635248
1.260847677
1.259264126
1.257248171
1.255156139
1.253523916
1.253339009
1.253150545
1.255052512
1.325443868
1.786014121
2.246279233
2.443265828
2.468912649
2.466878552
1.247757977
1.251324021
1.255478843
1.259249622
1.261658399
1.261648235
1.259850165
1.256257996
1.250615358
1.247092254
1.246126248
1.246516102
1.248272005
1.251301124
1.255006698
1.257378183
1.258810042
1.259814264
1.259852564
1.259589366
1.259148144
1.258060252
1.257149686
1.255412101
1.254438559
1.254038795
1.253288731
1.253148866
1.252969002
1.254918594
1.334610899
1.810096603
2.255637525
2.439963753
2.460517894
2.458653832
1.24735709
1.251207791
1.255097905
1.258377038
1.26036464
1.259652384
1.257635069
1.254623546
1.24954869
1.245069745
1.243504478
1.243323339
1.244788454
1.247462341
1.25201602
1.25631354
1.258243624
1.258377119
1.258038011
1.257674882
1.257294896
1.256219758
1.254827506
1.252499897
1.25107445
1.250856787
1.250985919
1.251251513
1.25190849
1.254385758
1.345124202
1.83436779
2.263598031
2.438509558
2.456377262
2.453381283
1.247566252
1.251385171
1.255550897
1.258516463
1.260202743
1.259178904
1.256834335
1.253748674
1.248893579
1.24409096
1.242544284
1.242172654
1.243761685
1.245688225
1.248359439
1.252211875
1.255223381
1.256878558
1.2574451
1.257168148
1.256637539
1.255734608
1.253981357
1.251712761
1.249880098
1.248711227
1.248013971
1.247751771
1.248790079
1.25222679
1.35613332
1.859123699
2.271876165
2.438004225
2.455045519
2.452038813
1.247555067
1.251385247
1.255580649
1.258812945
1.260612714
1.259415909
1.256718978
1.252787259
1.247316764
1.243036126
1.242086465
1.24184981
1.243171271
1.245060836
1.247223399
1.249000271
1.25168342
1.254851663
1.256889364
1.257097848
1.256510145
1.255658307
1.253530807
1.251359505
1.249681095
1.247966565
1.246956975
1.245965526
1.246271659
1.250408372
1.367326176
1.88394183
2.282217587
2.439538069
2.455626116
2.452103922
1.245950788
1.250469644
1.254660586
1.257994386
1.259673909
1.258756686
1.255415342
1.250087767
1.244411937
1.241396499
1.240806172
1.241407683
1.242167986
1.244662844
1.246728253
1.247948934
1.249457157
1.251810132
1.254784425
1.255895968
1.255760949
1.254537549
1.252878604
1.25118366
1.249709936
1.248015371
1.246541104
1.245393135
1.245521382
1.250124703
1.379495298
1.907852305
2.294268586
2.440906513
2.458442068
2.45539662
1.241775846
1.246971322
1.251648013
1.255145606
1.256148725
1.254588056
1.251006712
1.245684925
1.240441074
1.238287725
1.238023929
1.239384095
1.240938288
1.243994328
1.246321438
1.247708701
1.248388094
1.249716891
1.251403684
1.252137696
1.252101755
1.250801344
1.250789439
1.250513737
1.249160263
1.248062911
1.246909014
1.245779885
1.245519322
1.250171511
1.393405646
1.930108081
2.302936457
2.43800132
2.457115588
1.236107271
1.239495467
1.244381512
1.248482902
1.25123179
1.251969614
1.249898056
1.247275007
1.243240399
1.238779841
1.236702629
1.236152456
1.236958786
1.239591245
1.242338151
1.245726871
1.247603007
1.248274718
1.249216575
1.249533345
1.249425746
1.248686226
1.246930668
1.245852492
1.246721846
1.247694949
1.247594662
1.246630321
1.245517361
1.244929327
1.250808688
1.409129461
1.950899956
2.3070135
2.431457691
2.450891985
1.235711755
1.239133361
1.243990077
1.247964882
1.249958761
1.250187839
1.248286183
1.245397258
1.241873211
1.238027663
1.236338016
1.235877504
1.236179202
1.238984708
1.241382858
1.244656735
1.247377716
1.248751518
1.249437233
1.249087092
1.248510314
1.247190065
1.245718646
1.243225644
1.242362527
1.242763144
1.243723802
1.244453404
1.244406854
1.244639341
1.251722559
1.426501175
1.970956347
2.309445929
2.428399808
2.444033813
1.235355954
1.239080303
1.244234294
1.248249063
1.249877294
1.249702795
1.247678484
1.244192522
1.240586557
1.23671935
1.235836096
1.236503841
1.237192223
1.238164779
1.24114358
1.244026739
1.247010684
1.248632432
1.249077932
1.249093766
1.248434853
1.246831336
1.245171893
1.24198219
1.239919772
1.238897032
1.23884124
1.240134175
1.241974417
1.243878868
1.252399651
1.445057814
1.991124739
2.312641098
2.427815836
2.442688265
1.233691904
1.237785781
1.243372522
1.247758573
1.249382528
1.249109885
1.246596582
1.242442501
1.238638617
1.235785218
1.235200333
1.236128879
1.237375487
1.238574383
1.241402908
1.243648532
1.24573425
1.246916636
1.247704846
1.248036902
1.247554957
1.246517012
1.244567375
1.242077993
1.239547752
1.238040195
1.237256856
1.237540498
1.238500006
1.240865254
1.251307585
1.464138716
2.012025951
2.317521363
2.429970908
2.44281971
1.229900104
1.234162193
1.239555698
1.244713624
1.246671181
1.246295055
1.243476379
1.238658265
1.234117516
1.232962916
1.233165122
1.233843188
1.235859292
1.23855199
1.240775548
1.242411498
1.2421822
1.242252552
1.243261006
1.243842282
1.24396112
1.244450506
1.243128915
1.241347948
1.239390536
1.237910424
1.236388297
1.236251418
1.236945213
1.238573772
1.251186624
1.483362565
2.033037519
2.325345519
2.431278839
2.446021911
1.227340398
1.2312549
1.235711109
1.24004121
1.241632052
1.241607875
1.23902417
1.234928158
1.230397602
1.228608569
1.228444496
1.228865546
1.230882186
1.234307463
1.2368775
1.23819197
1.238527982
1.238923311
1.23926287
1.239161736
1.238762672
1.23858527
1.238317629
1.238087223
1.237420744
1.236460113
1.23543584
1.235737627
1.236622962
1.238076035
1.251950043
1.502668493
2.051770172
2.332191527
2.429503058
2.446621191
1.22332933
1.226341311
1.230747684
1.235094369
1.238147817
1.238964487
1.23896512
1.236488323
1.233284467
1.229452784
1.226893911
1.226412096
1.226786582
1.227876548
1.230161973
1.232965999
1.23499501
1.236475576
1.237615983
1.238267278
1.237939056
1.236902393
1.2351144
1.233972508
1.232572541
1.2323871
1.233293926
1.234092837
1.235242743
1.236117129
1.238051773
1.253505656
1.522578745
2.067786579
2.335756548
2.426265602
2.44407102
1.222950586
1.226034807
1.230911317
1.235534886
1.237850412
1.237970632
1.237377777
1.234405983
1.231772445
1.228943345
1.226410045
1.225865307
1.226225166
1.227380938
1.229152475
1.232029688
1.234234176
1.235949476
1.237204248
1.238057189
1.237602597
1.236278166
1.234084643
1.231921634
1.229884849
1.229548131
1.229934513
1.230797375
1.232282946
1.233329303
1.236538707
1.255729344
1.543848388
2.08117709
2.338060203
2.425588365
2.439304566
1.221837012
1.225440953
1.230353152
1.235259848
1.237747305
1.23759851
1.236172725
1.23256038
1.229379847
1.227415081
1.226099979
1.225903654
1.226324324
1.227756071
1.229816277
1.232057038
1.233849112
1.23561925
1.236895238
1.23681463
1.236356417
1.235680552
1.234283334
1.231626731
1.22945056
1.229057587
1.228577159
1.228261602
1.228960766
1.22976659
1.233295855
1.257985494
1.566642435
2.095029251
2.340641755
2.425848075
2.438178621
1.217539879
1.222168861
1.227189426
1.232932391
1.235993489
1.235896117
1.234083788
1.229974272
1.225741128
1.224300889
1.224432534
1.225032808
1.226138227
1.227739628
1.230112513
1.231511709
1.232343742
1.233235631
1.234435848
1.23438733
1.234315762
1.2342072
1.233612932
1.231581536
1.22983705
1.229524165
1.228447032
1.227586978
1.228105589
1.228924342
1.231068827
1.2599692
1.590113749
2.110215178
2.344604168
2.427469413
2.438220669
1.212769976
1.21726123
1.222227911
1.228096622
1.231036943
1.230932707
1.22943186
1.226083987
1.221766261
1.219824812
1.220137549
1.221199595
1.223030428
1.225366141
1.227807918
1.229241188
1.229505669
1.22910139
1.229274377
1.229446029
1.229432288
1.22924166
1.229441434
1.229860241
1.229606041
1.229686124
1.228969872
1.228267572
1.228357641
1.228904396
1.230746097
1.262539267
1.612987824
2.126537353
2.350776598
2.430808202
2.43972759
1.211163245
1.215265206
1.220156643
1.224814785
1.226545994
1.226559803
1.225656312
1.223052815
1.21990017
1.217900441
1.217532463
1.218145862
1.219801054
1.222120973
1.224368167
1.22637088
1.226914476
1.226557894
1.226079108
1.225944916
1.225340976
1.224235188
1.223131702
1.224587565
1.22700821
1.228242046
1.228657096
1.228395802
1.228372662
1.228461979
1.230815393
1.266321858
1.635229693
2.143087179
2.35735886
2.430521071
2.442986505
1.211025953
1.215029923
1.220248948
1.224513308
1.225516468
1.225465025
1.224561326
1.221891194
1.219225309
1.217191663
1.216255965
1.216356528
1.217450681
1.219913687
1.222315829
1.224010364
1.224748352
1.225032397
1.225132769
1.224905626
1.224191513
1.222732145
1.220284249
1.219983498
1.22191842
1.22305945
1.225020877
1.226555087
1.227430724
1.227698401
1.230232203
1.272202124
1.657801266
2.155831381
2.36037687
2.42780613
2.442831104
1.208284898
1.211481516
1.215695647
1.221264912
1.225159051
1.225419727
1.225001569
1.223456356
1.220812642
1.218183483
1.216037787
1.214890314
1.214658431
1.215306596
1.217645762
1.220337954
1.221545243
1.222738145
1.223917754
1.224796314
1.224596649
1.223967635
1.222562211
1.220079948
1.218372438
1.219185955
1.219261851
1.220415895
1.222005808
1.223750259
1.224993983
1.227717692
1.278490652
1.681131668
2.166259104
2.361676491
2.425570029
1.206712054
1.21063939
1.215015854
1.220942982
1.22483392
1.224407605
1.222971438
1.219358359
1.215726324
1.213414554
1.212167266
1.211740646
1.211753115
1.212446096
1.214208878
1.216353517
1.217585426
1.219532135
1.22183067
1.223306446
1.2235878
1.223405702
1.222703875
1.221174066
1.219413749
1.218780992
1.218728462
1.21922873
1.219887591
1.22118801
1.221835282
1.224663878
1.283647728
1.704747965
2.175636319
2.362540944
2.424955593
1.20199082
1.207170711
1.211380196
1.217480184
1.221286749
1.220989028
1.219187404
1.21451903
1.209921066
1.207272215
1.206373447
1.206439855
1.206999354
1.208256589
1.209687312
1.211650454
1.213273149
1.214740013
1.216321488
1.21825393
1.220313553
1.221498359
1.22215734
1.221799965
1.220547545
1.218911127
1.218922953
1.218834017
1.219451285
1.220288999
1.220421332
1.223283567
1.288643624
1.727668036
2.186338546
2.364041912
2.42494935
1.198224984
1.202865202
1.207035827
1.212630875
1.216412788
1.216591726
1.215221433
1.211365004
1.20665148
1.203732803
1.202745789
1.202714611
1.203452762
1.205179593
1.206939315
1.208957682
1.210711979
1.21143652
1.212292474
1.213558046
1.21476485
1.215756307
1.216999467
1.218237662
1.21816323
1.217354011
1.21793945
1.218271933
1.219321468
1.220449099
1.220362472
1.223598574
1.295848274
1.750054463
2.199740154
2.368943033
2.426598139
1.1966284
1.200728903
1.205171463
1.210089185
1.212817654
1.212792717
1.211654023
1.209246949
1.204689043
1.202004061
1.201235524
1.201183519
1.202019738
1.203745476
1.20538126
1.207518582
1.209701293
1.21070465
1.211247515
1.21157399
1.211236947
1.211192533
1.211489986
1.212377947
1.212908338
1.213311165
1.214559508
1.216107416
1.217669443
1.21975009
1.220250375
1.224007603
1.305926246
1.772619632
2.214473297
2.378005355
2.430841137
1.196313663
1.200092395
1.204290296
1.208521708
1.209979996
1.209271697
1.208220082
1.206967867
1.203505631
1.201113566
1.200483305
1.200467635
1.201321003
1.202993729
1.204566611
1.20657771
1.209028317
1.21054551
1.210715112
1.210695583
1.210629053
1.210244061
1.209722103
1.209196667
1.208930876
1.209478555
1.210736563
1.21219416
1.213683742
1.21564549
1.217560156
1.222006009
1.317224213
1.794991681
2.225368732
2.380698459
2.431837682
1.191831218
1.195651028
1.199337423
1.203169607
1.206912547
1.20741268
1.206146628
1.204514399
1.203422165
1.201914939
1.20034183
1.199810077
1.199780215
1.20033073
1.201668017
1.203254011
1.205176338
1.207442799
1.208895039
1.209220172
1.209743932
1.209981895
1.209449551
1.208498807
1.207270461
1.206978689
1.207577864
1.208364489
1.209561703
1.210832022
1.212163206
1.213890876
1.218994468
1.327705617
1.816294336
2.231056254
2.381398458
2.431588063
1.187419177
1.192093357
1.195248993
1.199704048
1.20385051
1.204009747
1.202496585
1.199984521
1.197848285
1.197125104
1.197264526
1.197463056
1.197673576
1.197766826
1.197981809
1.1987998
1.200266824
1.202395049
1.204746851
1.206285806
1.207059067
1.207173441
1.20708797
1.206783555
1.206026115
1.206519874
1.207365399
1.207984163
1.208786887
1.20981982
1.21076327
1.21145818
1.216728122
1.337897998
1.836815915
2.235434539
2.381763786
2.431114625
1.18110569
1.185616481
1.189622366
1.194528202
1.19977873
1.200370424
1.199547237
1.197009481
1.193888733
1.192542049
1.192485119
1.192863698
1.193430213
1.193427735
1.193577272
1.194568934
1.195993193
1.197606894
1.19945615
1.200802051
1.201633254
1.202503559
1.203572193
1.204285209
1.204556699
1.205570415
1.206679314
1.20747556
1.208099274
1.208967828
1.209925666
1.210407176
1.217052246
1.349788079
1.85752193
2.240029273
2.382944978
2.431315449
1.177660624
1.181687481
1.186305853
1.191829764
1.197359736
1.198187401
1.19774244
1.195643068
1.192456614
1.189872639
1.189099204
1.189186031
1.189802186
1.190516878
1.191296438
1.192571863
1.194307226
1.195825969
1.196655196
1.197100304
1.1976297
1.198616581
1.199371233
1.199833813
1.200473021
1.201714927
1.202931396
1.204249184
1.205353008
1.206744521
1.208175815
1.209422918
1.21721377
1.363849191
1.879470169
2.246785777
2.386078591
2.432011187
1.175675384
1.179648946
1.184250561
1.189547247
1.194509251
1.195643766
1.195618053
1.194378459
1.191780874
1.188541059
1.18726117
1.187096636
1.187506266
1.188684641
1.190206864
1.191889069
1.193754116
1.19498666
1.195559441
1.195868655
1.196107863
1.196459224
1.196708953
1.196694643
1.196923344
1.197141261
1.19764351
1.198898425
1.200461092
1.202438402
1.20441365
1.206572597
1.215131013
1.378963931
1.901871099
2.258579579
2.394074205
2.43364754
1.172987166
1.177188655
1.181613327
1.186179862
1.189538205
1.190622898
1.190305253
1.18987472
1.189167509
1.186747545
1.185435688
1.184996396
1.185219334
1.186755028
1.189034654
1.191023373
1.192776773
1.193853632
1.194619989
1.195046022
1.195054616
1.194841999
1.194890451
1.194755034
1.19453153
1.194149571
1.193833023
1.194317713
1.195543319
1.197498438
1.198934149
1.201331869
1.212439092
1.394105671
1.922595672
2.272999501
2.403937537
2.438094096
1.167369035
1.171784772
1.176237053
1.180785783
1.183006399
1.183422118
1.182561011
1.182121721
1.18262748
1.181764769
1.180864479
1.180506698
1.180972547
1.182865509
1.18551242
1.18774525
1.189727535
1.191165871
1.191956942
1.192607481
1.192950694
1.192996854
1.192866602
1.192819148
1.192413708
1.192293049
1.192014193
1.191898467
1.192832189
1.194674039
1.195346467
1.197365416
1.211281477
1.409647427
1.940071469
2.281605961
2.408564665
1.154390079
1.159667833
1.164277662
1.169266061
1.17446947
1.177263152
1.176999422
1.175818034
1.174468124
1.17398906
1.174120937
1.174023671
1.174454211
1.175606181
1.177276789
1.179215355
1.181281888
1.183608626
1.185396672
1.186357794
1.187543326
1.188889275
1.189757048
1.189894389
1.189806075
1.189608684
1.189973472
1.190490151
1.190633875
1.191270829
1.19330336
1.194193417
1.195675931
1.210904307
1.426351506
1.956091474
2.286768442
2.410608115
1.14808576
1.153173377
1.158189858
1.163660906
1.169648298
1.172925429
1.172701419
1.171533056
1.169652659
1.168261677
1.168661361
1.169569503
1.170826589
1.172414867
1.173769003
1.17508765
1.177010552
1.179396888
1.180858721
1.181318423
1.181852891
1.183002231
1.184337704
1.185513177
1.186397915
1.186557638
1.186635341
1.188270671
1.189331187
1.190109637
1.192173465
1.193643177
1.195159407
1.211668381
1.444213712
1.971809544
2.291754656
2.410906311
1.142879425
1.147479313
1.152736847
1.158405454
1.164622846
1.168195742
1.168318038
1.167642178
1.166208763
1.164870874
1.165489204
1.167022445
1.168905098
1.170686911
1.171795952
1.172918898
1.174854998
1.177347303
1.178565506
1.178578355
1.178111377
1.178634292
1.179857827
1.180952262
1.181790806
1.182161507
1.182733711
1.184455572
1.186507859
1.188152741
1.19004835
1.191983257
1.19424053
1.213272426
1.463662852
1.988356392
2.297820034
2.410994334
1.137559355
1.141636807
1.146662522
1.152223522
1.157946298
1.161231895
1.161750024
1.161975926
1.161844924
1.161398302
1.16207371
1.163978626
1.166214295
1.168024847
1.169246942
1.170826397
1.173049093
1.175589421
1.176720185
1.176765429
1.176337645
1.176431244
1.177029557
1.177574905
1.177982747
1.178293448
1.178810043
1.180084764
1.182304285
1.184539964
1.186345504
1.18852592
1.191446453
1.215269775
1.484343374
2.005764823
2.305854476
2.412334716
1.130373736
1.134353655
1.138990602
1.144538233
1.14929848
1.151660736
1.152445636
1.15348133
1.154708449
1.155704996
1.156394808
1.1582313
1.160315183
1.162061168
1.163929807
1.166377826
1.169153255
1.171526727
1.173108984
1.174250893
1.174668116
1.174723089
1.174762641
1.174830527
1.17507524
1.175497526
1.176517886
1.177522467
1.179233387
1.181430753
1.18324763
1.184545167
1.187364671
1.217009701
1.505669849
2.024272629
2.316253976
2.414252671
1.1215603
1.126095197
1.130522668
1.136126587
1.140230583
1.141635132
1.142475285
1.143779523
1.145657404
1.14777957
1.148853457
1.150438524
1.1523201
1.154333069
1.156704173
1.159446298
1.162154013
1.164274051
1.166570727
1.169117011
1.170698829
1.171328211
1.171519306
1.171633772
1.172120214
1.172910529
1.174686959
1.175961534
1.177505488
1.179623956
1.181791336
1.182621464
1.184632564
1.218895925
1.526142793
2.043972086
2.32980953
2.417631782
1.107363376
1.112508758
1.117711091
1.122437388
1.128052941
1.131862848
1.133216668
1.134211692
1.135430701
1.137100988
1.139329812
1.141105253
1.142817306
1.144792515
1.147018933
1.149457715
1.151974004
1.154308167
1.156437032
1.158739624
1.161411806
1.163772471
1.165309655
1.166173211
1.166867779
1.167961492
1.169383307
1.17176605
1.173829887
1.17576123
1.17820988
1.180854806
1.181595504
1.183457981
1.221845124
1.54601443
2.062195071
2.343665464
2.422011686
1.102285523
1.106795624
1.111979504
1.116976962
1.122051741
1.125202315
1.12592174
1.126716229
1.128014329
1.129668195
1.131529724
1.133872286
1.135858858
1.137961971
1.140174847
1.142438361
1.144593458
1.146686527
1.148899622
1.151010852
1.15328993
1.155633488
1.157638147
1.159102138
1.160505997
1.162213981
1.163903574
1.166091284
1.168506407
1.171501452
1.174918216
1.178428916
1.180323664
1.182402752
1.22600288
1.567534985
2.077711999
2.354540642
2.42584844
1.100210994
1.102478773
1.10711786
1.111983787
1.116444918
1.119216656
1.119963583
1.120529627
1.121638155
1.122936492
1.124123919
1.126184724
1.128382446
1.130654444
1.132732405
1.134688047
1.136715718
1.139146437
1.141812164
1.143979184
1.145996631
1.148048491
1.150350802
1.152347434
1.154012609
1.155816205
1.157574408
1.159414979
1.1617873
1.165168399
1.168944389
1.172678929
1.176186432
1.17939259
1.230695955
1.590293991
2.091024166
2.358659412
2.428855799
1.099588319
1.100222421
1.102816377
1.107158283
1.110271701
1.112084946
1.113435955
1.114244991
1.11521226
1.115775513
1.116242619
1.117775966
1.12012676
1.122341054
1.1241088
1.125868578
1.128094113
1.131081583
1.134225004
1.13669292
1.138880934
1.140900356
1.143264742
1.145537092
1.147485076
1.149442339
1.151374544
1.153380658
1.156071602
1.159661847
1.163156845
1.166434752
1.170101993
1.17470934
1.238437867
1.624246681
2.110312043
2.361610665
2.431920527
1.09797465
1.099358799
1.101501265
1.105796013
1.108385177
1.1085357
1.107092468
1.105841501
1.106779048
1.107879292
1.10869176
1.109887262
1.112000251
1.113701688
1.115027378
1.116885245
1.119754829
1.123188606
1.126239256
1.128489424
1.130554021
1.132816636
1.135648613
1.138620194
1.141111566
1.143083479
1.14497135
1.147548774
1.150836241
1.154772547
1.15845484
1.162090498
1.165012635
1.169386462
1.241738574
1.637766977
2.116191716
2.36484621
2.434496108
1.093340788
1.095315137
1.098323347
1.101575579
1.105955698
1.107982439
1.106747564
1.103247573
1.10102513
1.099726737
1.099911083
1.101833983
1.10353943
1.105015255
1.106045564
1.106950666
1.108815407
1.111988098
1.115626885
1.118504087
1.120190154
1.121680685
1.123669727
1.126571135
1.130256785
1.133662071
)
;

boundaryField
{
    inlet
    {
        type            calculated;
        value           nonuniform 0();
    }
    outlet
    {
        type            calculated;
        value           nonuniform 0();
    }
    bottom
    {
        type            calculated;
        value           nonuniform 0();
    }
    top
    {
        type            calculated;
        value           nonuniform 0();
    }
    obstacle
    {
        type            calculated;
        value           nonuniform 0();
    }
    defaultFaces
    {
        type            empty;
    }
    procBoundary16to10
    {
        type            processor;
        value           nonuniform List<scalar> 
36
(
1.917526417
2.363164278
2.504817058
2.509619338
2.482789396
1.276479839
1.275790592
1.275147099
1.274063235
1.271576594
1.26901967
1.267328676
1.26575249
1.264911118
1.265497415
1.266498398
1.268510415
1.271419417
1.274847524
1.276418544
1.276725292
1.276558743
1.275787866
1.274314865
1.272247606
1.270477391
1.268867822
1.267097274
1.265557042
1.269697932
1.418035052
1.418035052
1.274669258
1.276750383
1.277729284
1.277729284
)
;
    }
    procBoundary16to11
    {
        type            processor;
        value           uniform 2.439349306;
    }
    procBoundary16to15
    {
        type            processor;
        value           nonuniform List<scalar> 
70
(
1.271990867
1.267976776
1.267846558
1.268256243
1.26831544
1.268053522
1.265981899
1.26183333
1.259646103
1.259646103
1.257833137
1.258422171
1.258661216
1.258504788
1.256677385
1.253239217
1.250441423
1.250441423
1.247936188
1.24674383
1.246218007
1.246044917
1.245324478
1.242259693
1.237971687
1.237971687
1.235081525
1.234058876
1.233311153
1.231194409
1.227205767
1.224471473
1.224471473
1.22178854
1.220941472
1.218802997
1.213896617
1.209753312
1.208412976
1.208368188
1.208368188
1.205964429
1.203408025
1.197670187
1.194486177
1.193324314
1.193148899
1.193148899
1.188161974
1.18300014
1.177233105
1.173903325
1.171403664
1.16793544
1.162025336
1.162025336
1.149916421
1.144001666
1.138694066
1.132654996
1.124603705
1.11527061
1.11527061
1.104515938
1.100543833
1.098512548
1.096757818
1.095170588
1.095170588
1.092592545
)
;
    }
    procBoundary16to17
    {
        type            processor;
        value           nonuniform List<scalar> 
65
(
2.435310707
2.43390734
2.434300729
2.432898886
2.42756534
2.421849479
2.42044133
2.421108639
2.460481566
2.460481566
2.45929829
2.455263556
2.447711219
2.442906029
2.441060298
2.440686874
2.441846518
2.440240079
2.434878619
2.424986706
2.419958257
2.418861805
2.418834104
2.45565912
2.45565912
2.452016139
2.444432524
2.441335024
2.440999072
2.442368635
2.444833989
2.443943209
2.439562177
2.435412205
2.434506521
2.434440934
2.435582555
2.43835037
2.440593178
2.440593178
2.438969279
2.438991447
2.439616776
2.441993753
2.447037237
2.449182459
2.449763377