/*--------------------------------*- C++ -*----------------------------------*\
  =========                 |
  \\      /  F ield         | OpenFOAM: The Open Source CFD Toolbox
   \\    /   O peration     | Website:  https://openfoam.org
    \\  /    A nd           | Version:  7
     \\/     M anipulation  |
\*---------------------------------------------------------------------------*/
FoamFile
{
    version     2.0;
    format      ascii;
    class       volVectorField;
    location    "0.2";
    object      U;
}
// * * * * * * * * * * * * * * * * * * * * * * * * * * * * * * * * * * * * * //

dimensions      [0 1 -1 0 0 0 0];

internalField   nonuniform List<vector> 
80000
(
(3 2.288356078e-16 0)
(3 -7.020149057e-16 0)
(3 -2.991135205e-16 0)
(3 -4.07277778e-17 0)
(3 -6.202875302e-17 0)
(3 -8.526654229e-16 0)
(3 -7.443540105e-16 0)
(3 -1.544557945e-15 0)
(3 -2.09858525e-15 0)
(3 -2.233851303e-15 0)
(3 -1.46940063e-15 0)
(3 -1.168345569e-15 0)
(3 2.829601434e-16 0)
(3 2.893932075e-16 0)
(3 -3.802276883e-16 0)
(3 -1.064830435e-16 0)
(3 5.096140657e-16 0)
(3 2.719381344e-16 0)
(3 -6.557067503e-16 0)
(3 -1.234134113e-15 0)
(3 -1.632908868e-15 0)
(3 -1.770410989e-15 0)
(3 -2.169543312e-15 0)
(3 -1.742209895e-15 0)
(3 -1.317553806e-15 0)
(3 -2.779326437e-15 0)
(3 -3.552420503e-15 0)
(3 -4.080818799e-15 0)
(3 -3.432076179e-15 0)
(3 -2.6143482e-15 0)
(3 -1.657057978e-15 0)
(3 -2.086436529e-15 0)
(3 -6.123399518e-16 0)
(3 1.718243956e-15 0)
(3 1.445244924e-15 0)
(3 1.649820648e-15 0)
(3 3.080088981e-15 0)
(3 3.308379015e-15 0)
(3 2.700941706e-15 0)
(3 2.621427182e-15 0)
(3 1.86273867e-15 0)
(3 1.14481719e-15 0)
(3 -6.526767742e-17 0)
(3 -1.091100866e-15 0)
(3 -1.794395742e-16 0)
(3 9.402689054e-16 0)
(3 5.87475032e-16 0)
(3 9.732703747e-16 0)
(3 1.215635546e-15 0)
(3 -2.040738242e-16 0)
(3 2.750065499e-16 0)
(3 4.914343082e-16 0)
(3 2.630855859e-15 0)
(3 3.406669549e-15 0)
(3 1.388691203e-15 0)
(3 1.289244764e-15 0)
(3 2.005781216e-15 0)
(3 1.222311741e-15 0)
(3 3.114009216e-16 0)
(3 2.554196555e-16 0)
(3 -1.549875621e-15 0)
(3 -2.442462525e-15 0)
(3 -2.50496855e-15 0)
(3 -2.355822749e-15 0)
(3 -2.346085492e-15 0)
(3 -1.401182314e-15 0)
(3 -5.972888064e-16 0)
(3 -7.956063804e-16 0)
(3 -1.407740162e-15 0)
(3 -1.366791991e-15 0)
(3 -8.768408309e-16 0)
(3 -1.469848207e-15 0)
(3 -1.415586087e-15 0)
(3 -1.951422366e-16 0)
(3 1.091342454e-15 0)
(3 1.623565853e-15 0)
(3 1.274773274e-15 0)
(3 2.212907876e-15 0)
(3 8.258989505e-17 0)
(3 1.289882037e-15 0)
(3 1.868604902e-15 0)
(3 1.015667768e-15 0)
(3 2.546288598e-15 0)
(3 2.56985094e-15 0)
(3 2.160955182e-15 0)
(3 2.837710881e-15 0)
(3 1.738583767e-15 0)
(3 1.106070978e-15 0)
(3 2.244072183e-15 0)
(3 3.017725907e-15 0)
(3 1.91213854e-15 0)
(3 1.780671248e-15 0)
(3 1.954010824e-15 0)
(3 3.500381244e-15 0)
(3 3.142252423e-15 0)
(3 3.060637058e-15 0)
(3 2.435503805e-15 0)
(3 1.813185134e-15 0)
(3 -1.850727471e-16 0)
(3 -1.342415597e-15 0)
(3 -5.205296478e-16 0)
(3 -5.705761295e-16 0)
(3 -1.482599169e-16 0)
(3 2.155181351e-16 0)
(3 8.990325082e-17 0)
(3 -6.790204257e-16 0)
(3 -6.368118721e-16 0)
(3 -4.867442183e-16 0)
(3 -2.09590059e-15 0)
(3 -5.153475899e-15 0)
(3 -4.013414498e-15 0)
(3 -4.081786768e-15 0)
(3 -2.742063409e-15 0)
(3 -1.32784551e-15 0)
(3 1.353373351e-15 0)
(3 2.188004961e-17 0)
(3 8.657476944e-16 0)
(3 8.256664347e-17 0)
(3 -6.807431757e-16 0)
(3 -2.115434715e-15 0)
(3 -2.830142444e-15 0)
(3 -2.584476342e-15 0)
(3 -2.386047579e-15 0)
(3 -2.174998257e-15 0)
(3 -1.420208335e-15 0)
(3 -3.388140215e-15 0)
(3 -7.415138187e-15 0)
(3 -5.574211916e-15 0)
(3 -1.98462956e-15 0)
(3 4.284751315e-16 0)
(3 2.856600243e-16 0)
(3 3.533986215e-16 0)
(3 1.74209411e-15 0)
(3 2.489939272e-15 0)
(3 1.870559721e-15 0)
(3 2.252432153e-15 0)
(3 3.825573034e-15 0)
(3 4.646955992e-15 0)
(3 4.485469908e-15 0)
(3 3.646778902e-15 0)
(3 2.545398714e-15 0)
(3 3.260771674e-15 0)
(3 1.782776124e-15 0)
(3 8.433686831e-16 0)
(3 6.856532122e-16 0)
(3 -2.88279875e-17 0)
(3 2.10785089e-16 0)
(3 1.075105656e-15 0)
(3 2.118131102e-15 0)
(3 8.877698609e-16 0)
(3 2.298145079e-16 0)
(3 8.10276599e-16 0)
(3 2.291604672e-15 0)
(3 2.227274078e-15 0)
(3 -8.761268268e-16 0)
(3 1.418914269e-15 0)
(3 3.210465498e-15 0)
(3 9.230541906e-16 0)
(3 7.007829717e-16 0)
(3 1.053715571e-15 0)
(3 -1.512947322e-15 0)
(3 -1.742991554e-15 0)
(3 -1.173092977e-15 0)
(3 -1.464491205e-15 0)
(3 -5.241772803e-16 0)
(3 -1.533361266e-15 0)
(3 -1.795734291e-15 0)
(3 -4.329015769e-15 0)
(3 -6.224001712e-15 0)
(3 -5.114612742e-15 0)
(3 -3.389692746e-15 0)
(3 -3.139347862e-15 0)
(3 -2.665018937e-15 0)
(3 -1.307011778e-15 0)
(3 3.099626526e-15 0)
(3 4.325876934e-15 0)
(3 4.623505872e-15 0)
(3 4.93044719e-15 0)
(3 4.675600266e-15 0)
(3 4.516655834e-15 0)
(3 2.167123324e-15 0)
(3 9.297575072e-16 0)
(3 2.558717757e-15 0)
(3 3.051272467e-15 0)
(3 2.157556796e-15 0)
(3 4.413843967e-15 0)
(3 4.948352407e-15 0)
(3 2.477199626e-15 0)
(3 2.020766236e-15 0)
(3 3.242308408e-15 0)
(3 2.495585198e-15 0)
(3 2.194087639e-15 0)
(3 3.725732347e-15 0)
(3 5.122124523e-15 0)
(3 4.482407535e-15 0)
(3 2.427216129e-15 0)
(3 1.264019151e-15 0)
(3 2.537414915e-16 0)
(3 -1.257206851e-15 0)
(3 -1.990564712e-15 0)
(3 -5.741621603e-16 0)
(3 1.204091685e-15 0)
(3 2.383809067e-15 0)
(3 1.939004372e-15 0)
(3 1.983557853e-16 0)
(3 -4.918941722e-16 0)
(3 -4.289502749e-16 0)
(3 -1.404269963e-15 0)
(3 -2.53161186e-15 0)
(3 -3.559469652e-15 0)
(3 -4.068471328e-15 0)
(3 -3.817519079e-15 0)
(3 -3.672910739e-15 0)
(3 -2.663492896e-15 0)
(3 -1.528498087e-15 0)
(3 -1.536334485e-15 0)
(3 -1.30928556e-15 0)
(3 -2.035788142e-15 0)
(3 -4.414939711e-15 0)
(3 -3.934749619e-15 0)
(3 -4.069259898e-15 0)
(3 -4.030247045e-15 0)
(3 -3.101733569e-15 0)
(3 -3.519383779e-15 0)
(3 -3.619252962e-15 0)
(3 -4.412522125e-15 0)
(3 -5.230521673e-15 0)
(3 -6.356944244e-15 0)
(3 -4.034827573e-15 0)
(3 -7.54565924e-16 0)
(3 -1.107106943e-15 0)
(3 1.44602752e-15 0)
(3 6.33785333e-16 0)
(3 -2.485722329e-16 0)
(3 5.054929581e-16 0)
(3 2.02882041e-15 0)
(3 6.487996918e-16 0)
(3 9.912592848e-16 0)
(3 1.58516104e-15 0)
(3 9.594849009e-16 0)
(3 5.7353926e-16 0)
(3 3.64435386e-16 0)
(3 2.000224042e-16 0)
(3 2.404130459e-16 0)
(3 -1.968897282e-15 0)
(3 -3.630256888e-15 0)
(3 -3.418438929e-15 0)
(3 -1.64336147e-15 0)
(3 5.597266319e-16 0)
(3 1.67126124e-15 0)
(3 1.547228245e-15 0)
(3 7.289792808e-16 0)
(3 3.175908136e-15 0)
(3 4.152926493e-15 0)
(3 2.981864844e-15 0)
(3 1.621993705e-15 0)
(3 -1.647090969e-15 0)
(3 -2.811038179e-15 0)
(3 -1.825737117e-15 0)
(3 -1.540889847e-15 0)
(3 -1.347233022e-15 0)
(3 -9.601444826e-16 0)
(3 -1.889296728e-15 0)
(3 -1.142123135e-15 0)
(3 -2.65457943e-15 0)
(3 -4.464810064e-15 0)
(3 -5.513664074e-15 0)
(3 -6.052403472e-15 0)
(3 -7.233431394e-15 0)
(3 -5.727736456e-15 0)
(3 -4.408278393e-15 0)
(3 -3.886580082e-15 0)
(3 -3.173671601e-15 0)
(3 -2.764741795e-15 0)
(3 -3.764322685e-16 0)
(3 1.368024872e-15 0)
(3 3.404019159e-15 0)
(3 5.877239225e-15 0)
(3 6.688310657e-15 0)
(3 6.085563224e-15 0)
(3 3.455406196e-15 0)
(3 3.43772153e-15 0)
(3 4.026050941e-15 0)
(3 3.321669698e-15 0)
(3 2.777519439e-15 0)
(3 1.682197524e-15 0)
(3 1.820727951e-15 0)
(3 8.875962063e-16 0)
(3 5.841105337e-16 0)
(3 2.690767897e-15 0)
(3 3.651469107e-15 0)
(3 3.255991466e-15 0)
(3 3.416263734e-15 0)
(3 3.115698753e-15 0)
(3 2.887495859e-15 0)
(3 1.97458041e-15 0)
(3 5.726120929e-16 0)
(3 4.62189927e-16 0)
(3 8.794926999e-16 0)
(3 1.520185744e-17 0)
(3 1.236376471e-15 0)
(3 2.979150417e-15 0)
(3 2.666946735e-15 0)
(3 5.652518759e-16 0)
(3 3.111335975e-16 0)
(3 -9.57204269e-16 0)
(3 -1.856823562e-15 0)
(3 -2.948555051e-15 0)
(3 -2.914053829e-15 0)
(3 -1.31471553e-15 0)
(3 -4.633046685e-15 0)
(3 -3.732153611e-15 0)
(3 -7.075954462e-16 0)
(3 -1.743540277e-16 0)
(3 -2.156910851e-15 0)
(3 -2.723610928e-15 0)
(3 -2.660511993e-15 0)
(3 -2.59943276e-15 0)
(3 -3.059225973e-15 0)
(3 -1.846552947e-15 0)
(3 -2.219583333e-15 0)
(3 -1.980365816e-15 0)
(3 -1.920725831e-15 0)
(3 -2.371827584e-15 0)
(3 -3.271059994e-15 0)
(3 -3.837079122e-15 0)
(3 -3.811888438e-15 0)
(3 -3.666882591e-15 0)
(3 -3.869069245e-15 0)
(3 -2.421510097e-15 0)
(3 -2.126484712e-15 0)
(3 -8.795340599e-16 0)
(3 8.904381485e-16 0)
(3 1.098477887e-15 0)
(3 1.789625326e-15 0)
(3 1.141012617e-15 0)
(3 1.073383663e-15 0)
(3 9.279067693e-16 0)
(3 1.099462904e-15 0)
(3 8.275523598e-16 0)
(3 4.176202976e-16 0)
(3 -1.062943315e-15 0)
(3 -1.077756e-15 0)
(3 -2.122968821e-16 0)
(3 -2.378574718e-15 0)
(3 -3.749162548e-15 0)
(3 -3.755059277e-15 0)
(3 -2.841544351e-15 0)
(3 -3.212788507e-15 0)
(3 -2.043522167e-15 0)
(3 -5.70006218e-16 0)
(3 2.991574826e-16 0)
(3 8.155059112e-16 0)
(3 2.95014392e-16 0)
(3 1.020874252e-16 0)
(3 -1.996485303e-15 0)
(3 -3.14138534e-15 0)
(3 -3.568134729e-15 0)
(3 -4.193245855e-15 0)
(3 -4.192536861e-15 0)
(3 -4.986394196e-15 0)
(3 -4.924341712e-15 0)
(3 -6.621751135e-15 0)
(3 -5.880193948e-15 0)
(3 -7.76730306e-15 0)
(3 -7.503212272e-15 0)
(3 -6.360135588e-15 0)
(3 -3.438891171e-15 0)
(3 -3.274154787e-15 0)
(3 -3.585786127e-15 0)
(3 -4.290440259e-15 0)
(3 -4.233345958e-15 0)
(3 -1.778825578e-15 0)
(3 1.862964114e-15 0)
(3 2.124350577e-15 0)
(3 2.267821336e-15 0)
(3 2.383737623e-15 0)
(3 4.412665716e-15 0)
(3 5.641890322e-15 0)
(3 4.955994561e-15 0)
(3 5.076378126e-15 0)
(3 5.434444779e-15 0)
(3 3.383223756e-15 0)
(3 1.170351028e-15 0)
(3 1.075568424e-15 0)
(3 -6.668078867e-16 0)
(3 6.192898695e-16 0)
(3 1.895851672e-15 0)
(3 4.094636883e-15 0)
(3 7.402009616e-15 0)
(3 8.998207115e-15 0)
(3 7.535213392e-15 0)
(3 6.161777813e-15 0)
(3 2.865693649e-15 0)
(3 1.560117824e-15 0)
(3 2.712278319e-15 0)
(3 2.356768196e-15 0)
(3 2.825692981e-15 0)
(3 2.843542086e-15 0)
(3 8.718086958e-16 0)
(3 5.047819075e-16 0)
(3 6.282610919e-16 0)
(3 -8.495037155e-17 0)
(3 -8.963455576e-16 0)
(3 1.966971138e-16 0)
(3 -8.348669629e-16 0)
(3 -1.080833251e-15 0)
(3 -2.301357199e-15 0)
(3 -1.891122533e-15 0)
(3 -3.096840052e-15 0)
(3 -4.468466589e-15 0)
(3 -2.121288758e-15 0)
(3 -1.329838229e-15 0)
(3 -1.127761446e-15 0)
(3 -4.841572605e-16 0)
(3 -3.867765121e-16 0)
(3 -1.179886293e-15 0)
(3 -3.255611787e-16 0)
(3 -1.217052731e-16 0)
(3 -8.818639583e-16 0)
(3 -1.371182158e-15 0)
(3 -2.715384395e-15 0)
(3 -2.709462672e-15 0)
(3 -1.724767222e-15 0)
(3 -1.642979249e-15 0)
(3 -3.753477911e-15 0)
(3 -3.643002447e-15 0)
(3 -3.086827228e-15 0)
(3 -4.060675534e-15 0)
(3 -3.202925709e-15 0)
(3 -8.060488142e-16 0)
(3 -7.284907564e-16 0)
(3 1.061055789e-15 0)
(3 3.12210321e-15 0)
(3 2.608417102e-15 0)
(3 2.135235785e-15 0)
(3 2.8263463e-15 0)
(3 2.76529716e-15 0)
(3 1.376161837e-15 0)
(3 1.1264161e-15 0)
(3 1.175294751e-15 0)
(3 2.377496856e-16 0)
(3 -5.880009102e-16 0)
(3 -1.772115613e-15 0)
(3 -1.122299141e-15 0)
(3 -2.383232293e-15 0)
(3 -3.573831416e-15 0)
(3 -4.331423669e-15 0)
(3 -4.484601642e-15 0)
(3 -2.902994218e-15 0)
(3 -2.388326958e-15 0)
(3 -1.290869793e-15 0)
(3 -1.283762728e-15 0)
(3 -1.14447463e-15 0)
(3 -9.170744915e-16 0)
(3 -2.862483059e-15 0)
(3 -3.017466071e-15 0)
(3 -2.612127309e-15 0)
(3 -3.673121475e-15 0)
(3 -6.866127198e-15 0)
(3 -8.254023533e-15 0)
(3 -7.878593228e-15 0)
(3 -5.829334569e-15 0)
(3 -6.662862994e-15 0)
(3 -5.541829635e-15 0)
(3 -4.982609212e-15 0)
(3 -3.141900361e-15 0)
(3 -2.048133026e-15 0)
(3 -3.207886749e-15 0)
(3 -3.751504309e-15 0)
(3 -3.184689271e-15 0)
(3 -7.06360499e-16 0)
(3 1.752964138e-15 0)
(3 4.223823023e-15 0)
(3 4.640093514e-15 0)
(3 7.315898392e-15 0)
(3 5.83089053e-15 0)
(3 5.137314601e-15 0)
(3 5.772743523e-15 0)
(3 3.984437096e-15 0)
(3 5.471475585e-15 0)
(3 5.123118345e-15 0)
(3 1.677134282e-15 0)
(3 1.384080158e-15 0)
(3 1.286776181e-15 0)
(3 1.484540936e-15 0)
(3 1.16432122e-15 0)
(3 1.609872316e-15 0)
(3 2.065517148e-15 0)
(3 3.198834031e-15 0)
(3 5.198971581e-15 0)
(3 5.925496236e-15 0)
(3 3.292256682e-15 0)
(3 -2.526367971e-16 0)
(3 -2.967723745e-16 0)
(3 -9.765724391e-16 0)
(3 -3.164428537e-16 0)
(3 -1.380343029e-15 0)
(3 -4.805582017e-16 0)
(3 -1.179141715e-15 0)
(3 -5.971065495e-17 0)
(3 -1.263619492e-15 0)
(3 -1.090082692e-15 0)
(3 -1.962966251e-15 0)
(3 -3.413887842e-15 0)
(3 -2.164625716e-15 0)
(3 -1.921993289e-15 0)
(3 -2.921534257e-15 0)
(3 -3.174830486e-15 0)
(3 -3.398385336e-15 0)
(3 -2.408566414e-15 0)
(3 -7.595877482e-16 0)
(3 -7.332609114e-16 0)
(3 -6.229566169e-16 0)
(3 1.29608437e-16 0)
(3 1.473337946e-15 0)
(3 5.170831479e-16 0)
(3 8.225451435e-16 0)
(3 1.419581537e-15 0)
(3 6.138941743e-16 0)
(3 -5.671731121e-16 0)
(3 -2.472776777e-15 0)
(3 -2.219426459e-15 0)
(3 3.51972452e-16 0)
(3 1.031620825e-15 0)
(3 6.63330626e-16 0)
(3 -3.440451585e-16 0)
(3 -1.815286594e-15 0)
(3 -1.58505991e-15 0)
(3 -1.797101153e-15 0)
(3 -6.018016574e-16 0)
(3 -9.246106411e-16 0)
(3 2.13179285e-16 0)
(3 9.10346026e-16 0)
(3 6.150053772e-16 0)
(3 8.359907273e-16 0)
(3 9.188321258e-16 0)
(3 1.634685799e-15 0)
(3 1.336794311e-16 0)
(3 5.037881745e-17 0)
(3 -3.84446096e-16 0)
(3 2.559979009e-17 0)
(3 -1.387936113e-15 0)
(3 -1.988241094e-15 0)
(3 -1.230759047e-15 0)
(3 -7.386013277e-16 0)
(3 -2.903830855e-15 0)
(3 -3.282700114e-15 0)
(3 -1.636045657e-15 0)
(3 -4.311027656e-16 0)
(3 5.492159963e-16 0)
(3 -7.781087753e-16 0)
(3 -1.588069972e-15 0)
(3 5.912735114e-16 0)
(3 1.635164248e-17 0)
(3 -1.665187672e-15 0)
(3 -5.20295721e-15 0)
(3 -4.795199626e-15 0)
(3 -5.603206353e-15 0)
(3 -5.76424867e-15 0)
(3 -5.110884989e-15 0)
(3 -4.067133025e-15 0)
(3 -3.023824247e-15 0)
(3 -3.912468219e-15 0)
(3 -2.794227626e-15 0)
(3 -1.813608906e-15 0)
(3 -2.134841339e-15 0)
(3 -3.377826532e-15 0)
(3 -3.171899378e-15 0)
(3 -3.896647541e-15 0)
(3 6.638815445e-16 0)
(3 1.881915853e-15 0)
(3 6.868414932e-16 0)
(3 1.228816594e-15 0)
(3 5.069881158e-15 0)
(3 8.355981034e-15 0)
(3 8.34639275e-15 0)
(3 7.236204297e-15 0)
(3 5.144705105e-15 0)
(3 3.215172217e-15 0)
(3 2.738411024e-15 0)
(3 1.756145692e-15 0)
(3 3.013822699e-15 0)
(3 4.894995263e-15 0)
(3 5.290895053e-15 0)
(3 4.050989243e-15 0)
(3 3.172122601e-15 0)
(3 2.107330924e-15 0)
(3 2.489661415e-15 0)
(3 3.422869099e-15 0)
(3 4.694195591e-15 0)
(3 5.475875611e-15 0)
(3 3.562252752e-15 0)
(3 5.078949613e-16 0)
(3 -1.346269926e-15 0)
(3 -2.292727073e-15 0)
(3 -2.338471431e-15 0)
(3 -3.008948251e-15 0)
(3 -2.731883963e-15 0)
(3 -1.994376532e-15 0)
(3 -1.046685884e-15 0)
(3 -2.018787585e-15 0)
(3 -1.840950374e-15 0)
(3 -1.620020392e-15 0)
(3 -1.440310409e-15 0)
(3 -6.116594187e-16 0)
(3 -1.980448156e-16 0)
(3 9.034131378e-16 0)
(3 4.707061675e-16 0)
(3 2.368558054e-15 0)
(3 1.803624554e-15 0)
(3 1.310314027e-15 0)
(3 7.270991858e-16 0)
(3 1.151269282e-15 0)
(3 -1.395977993e-16 0)
(3 7.438326135e-16 0)
(3 1.108602656e-15 0)
(3 2.904459585e-16 0)
(3 1.339820955e-15 0)
(3 7.367918067e-16 0)
(3 1.996535039e-16 0)
(3 3.531514755e-16 0)
(3 1.709262435e-15 0)
(3 2.10258009e-15 0)
(3 1.403072754e-15 0)
(3 1.379402564e-15 0)
(3 3.021929985e-16 0)
(3 3.392252033e-16 0)
(3 8.862803313e-16 0)
(3 1.112990185e-15 0)
(3 1.615989005e-15 0)
(3 6.196071943e-16 0)
(3 1.301147157e-15 0)
(3 -5.108738949e-16 0)
(3 -2.203507754e-15 0)
(3 -1.942060608e-15 0)
(3 -1.042279268e-15 0)
(3 -1.120719885e-15 0)
(3 -2.861894376e-16 0)
(3 1.756216996e-15 0)
(3 7.092123904e-16 0)
(3 -1.19267237e-15 0)
(3 -2.273044701e-15 0)
(3 -2.708759232e-15 0)
(3 -1.989599713e-15 0)
(3 4.827945224e-17 0)
(3 -1.435079083e-15 0)
(3 -1.074240363e-15 0)
(3 1.18129528e-16 0)
(3 -2.293982662e-15 0)
(3 -3.100380837e-15 0)
(3 -3.188992942e-15 0)
(3 -3.872220975e-15 0)
(3 -3.793457663e-15 0)
(3 -3.11825102e-15 0)
(3 -2.2226964e-15 0)
(3 -4.319550278e-15 0)
(3 -5.911598181e-15 0)
(3 -6.155625742e-15 0)
(3 -5.240065933e-15 0)
(3 -3.410269682e-15 0)
(3 -1.167832871e-15 0)
(3 -1.37417618e-15 0)
(3 -1.567111414e-15 0)
(3 -2.104416373e-15 0)
(3 -6.575914837e-16 0)
(3 -1.477010522e-15 0)
(3 -2.652736838e-15 0)
(3 -2.143523871e-15 0)
(3 -1.648996812e-15 0)
(3 -1.027913422e-16 0)
(3 2.035334215e-15 0)
(3 1.459287352e-15 0)
(3 1.533341716e-15 0)
(3 3.497355835e-15 0)
(3 3.994923293e-15 0)
(3 5.898955783e-15 0)
(3 5.677736082e-15 0)
(3 3.32141932e-15 0)
(3 1.288643408e-15 0)
(3 -2.645461795e-16 0)
(3 2.419162049e-17 0)
(3 4.241866449e-15 0)
(3 5.709578075e-15 0)
(3 5.084127771e-15 0)
(3 3.581184085e-15 0)
(3 4.029987397e-15 0)
(3 4.743191871e-15 0)
(3 4.187467793e-15 0)
(3 4.326999739e-15 0)
(3 5.381396962e-15 0)
(3 4.579653599e-15 0)
(3 3.116932075e-15 0)
(3 3.042257177e-15 0)
(3 2.213536138e-15 0)
(3 -8.157839651e-16 0)
(3 -3.339255552e-15 0)
(3 -4.123323427e-15 0)
(3 -5.416749381e-15 0)
(3 -4.383745342e-15 0)
(3 -1.558126256e-17 0)
(3 -6.197799636e-16 0)
(3 -2.978247537e-16 0)
(3 2.040527913e-15 0)
(3 2.468592552e-15 0)
(3 2.77249648e-15 0)
(3 3.018998246e-15 0)
(3 1.940580801e-15 0)
(3 1.450016065e-15 0)
(3 1.743434536e-15 0)
(3 2.806668709e-15 0)
(3 1.105881622e-15 0)
(3 3.939232568e-15 0)
(3 4.584469209e-15 0)
(3 3.414739209e-15 0)
(3 1.700460566e-15 0)
(3 1.863799413e-15 0)
(3 1.602992548e-15 0)
(3 -2.119301527e-15 0)
(3 -2.899878264e-15 0)
(3 -1.050926932e-15 0)
(3 2.769980395e-15 0)
(3 2.707258916e-15 0)
(3 1.772122494e-15 0)
(3 4.023023562e-16 0)
(3 1.37654785e-15 0)
(3 3.579567423e-15 0)
(3 2.981450693e-15 0)
(3 1.301206654e-15 0)
(3 1.656017762e-15 0)
(3 1.601493418e-15 0)
(3 1.301551393e-15 0)
(3 5.714300437e-16 0)
(3 9.873901941e-16 0)
(3 1.032269734e-15 0)
(3 1.241590155e-15 0)
(3 4.378374891e-17 0)
(3 -7.30635541e-16 0)
(3 3.081209707e-16 0)
(3 -1.779699785e-15 0)
(3 -1.542594827e-15 0)
(3 -3.096494464e-15 0)
(3 -3.764596987e-15 0)
(3 -3.65031907e-15 0)
(3 -3.169464347e-15 0)
(3 -2.150185857e-15 0)
(3 -1.397574453e-15 0)
(3 -1.029681062e-15 0)
(3 -1.929385732e-15 0)
(3 -2.282138567e-15 0)
(3 -2.37326058e-15 0)
(3 -2.169282448e-15 0)
(3 -2.121583087e-15 0)
(3 -2.98229578e-15 0)
(3 -2.727616083e-15 0)
(3 -2.522749389e-15 0)
(3 -2.400718533e-15 0)
(3 -4.082520625e-15 0)
(3 -4.800878697e-15 0)
(3 -4.768040622e-15 0)
(3 -4.55713812e-15 0)
(3 -2.868469569e-15 0)
(3 -3.142429063e-15 0)
(3 -3.479188135e-15 0)
(3 -3.248399175e-15 0)
(3 -2.854553432e-15 0)
(3 -2.320958458e-15 0)
(3 -2.394835781e-15 0)
(3 -2.124238566e-15 0)
(3 -3.655379577e-16 0)
(3 -4.019776867e-16 0)
(3 2.826944507e-15 0)
(3 4.460584515e-15 0)
(3 4.095174315e-15 0)
(3 2.709899919e-15 0)
(3 2.186977228e-15 0)
(3 2.217457211e-15 0)
(3 2.852629652e-15 0)
(3 4.124042635e-15 0)
(3 4.474234555e-15 0)
(3 5.017016283e-15 0)
(3 5.28837935e-15 0)
(3 4.791899888e-15 0)
(3 5.06345234e-15 0)
(3 4.300730032e-15 0)
(3 2.330336663e-15 0)
(3 3.868377779e-15 0)
(3 4.00696587e-15 0)
(3 2.683960516e-15 0)
(3 3.153880024e-15 0)
(3 1.757594266e-15 0)
(3 6.895228485e-16 0)
(3 1.591582654e-16 0)
(3 4.114327375e-16 0)
(3 -4.425563642e-16 0)
(3 -2.885274464e-15 0)
(3 -3.693646127e-15 0)
(3 -4.916699679e-15 0)
(3 -5.078931983e-15 0)
(3 -4.521258058e-15 0)
(3 1.416493936e-15 0)
(3 2.151533602e-15 0)
(3 9.449400794e-16 0)
(3 -1.364333632e-16 0)
(3 -5.228151271e-16 0)
(3 -7.079800398e-16 0)
(3 -2.365597989e-16 0)
(3 2.680809902e-16 0)
(3 -1.525751161e-16 0)
(3 -3.057514239e-16 0)
(3 1.450425528e-15 0)
(3 2.314615335e-15 0)
(3 2.91662194e-15 0)
(3 1.770069133e-15 0)
(3 2.304999177e-15 0)
(3 2.59838001e-15 0)
(3 1.545726076e-15 0)
(3 -1.24682234e-16 0)
(3 -2.149185303e-15 0)
(3 -2.608539822e-15 0)
(3 -1.341094424e-15 0)
(3 -9.252645037e-16 0)
(3 -8.967882347e-16 0)
(3 2.202973973e-16 0)
(3 2.090796256e-15 0)
(3 5.413590863e-15 0)
(3 6.514961009e-15 0)
(3 5.583774946e-15 0)
(3 3.615554327e-15 0)
(3 3.02472995e-15 0)
(3 1.354024587e-15 0)
(3 9.434150218e-16 0)
(3 -5.027675717e-16 0)
(3 2.306242939e-16 0)
(3 2.17036791e-15 0)
(3 3.686039532e-15 0)
(3 2.625890181e-15 0)
(3 8.550920387e-16 0)
(3 6.622780639e-16 0)
(3 -2.355195552e-15 0)
(3 -2.650173219e-15 0)
(3 -2.890430128e-15 0)
(3 -2.754233362e-15 0)
(3 -4.049381471e-15 0)
(3 -4.61123664e-15 0)
(3 -4.778727619e-15 0)
(3 -3.870297105e-15 0)
(3 -2.687112938e-15 0)
(3 -3.249711612e-15 0)
(3 -2.270898078e-15 0)
(3 -1.078222854e-15 0)
(3 -3.769292645e-16 0)
(3 6.206823821e-16 0)
(3 8.214225895e-17 0)
(3 8.19089441e-17 0)
(3 -1.425518474e-15 0)
(3 -1.611201334e-15 0)
(3 -1.410717716e-15 0)
(3 -2.272371689e-15 0)
(3 -2.443247521e-15 0)
(3 -2.583191833e-15 0)
(3 -2.867530034e-15 0)
(3 -2.020595975e-15 0)
(3 -3.059057466e-15 0)
(3 -3.33894632e-15 0)
(3 -5.470798734e-15 0)
(3 -6.075141597e-15 0)
(3 -5.621935316e-15 0)
(3 -3.896156e-15 0)
(3 -2.782859176e-15 0)
(3 -1.427059482e-15 0)
(3 1.204168573e-15 0)
(3 3.499581849e-15 0)
(3 5.064488624e-15 0)
(3 4.06962502e-15 0)
(3 1.325188463e-15 0)
(3 -1.219969024e-15 0)
(3 -1.204526371e-15 0)
(3 -3.185283972e-17 0)
(3 2.848853246e-15 0)
(3 3.87275078e-15 0)
(3 5.233959182e-15 0)
(3 4.34339432e-15 0)
(3 3.382448396e-15 0)
(3 1.918220757e-15 0)
(3 1.968907568e-15 0)
(3 2.475147901e-15 0)
(3 2.179400956e-15 0)
(3 1.787864919e-15 0)
(3 1.358812333e-15 0)
(3 4.807742835e-16 0)
(3 -1.943642322e-15 0)
(3 -9.713180986e-16 0)
(3 -3.329919842e-15 0)
(3 -4.320713536e-15 0)
(3 -5.283922826e-15 0)
(3 -3.427079908e-15 0)
(3 -3.170437977e-15 0)
(3 -4.157418367e-15 0)
(3 -4.758239253e-15 0)
(3 2.538939851e-17 0)
(3 -4.63684453e-17 0)
(3 -8.177261868e-16 0)
(3 -1.621732514e-15 0)
(3 -1.888591543e-15 0)
(3 -2.619307889e-15 0)
(3 -1.673660467e-15 0)
(3 1.885407229e-15 0)
(3 1.822617645e-15 0)
(3 2.30208919e-15 0)
(3 2.444194042e-15 0)
(3 2.115285506e-15 0)
(3 9.21988346e-16 0)
(3 -1.050484804e-17 0)
(3 -5.009020104e-16 0)
(3 -5.006841632e-16 0)
(3 -1.393484347e-15 0)
(3 -3.056700605e-15 0)
(3 -2.075926722e-15 0)
(3 1.547668118e-15 0)
(3 2.673430154e-15 0)
(3 9.873913397e-16 0)
(3 -1.229359334e-15 0)
(3 -1.560108303e-15 0)
(3 9.831478228e-16 0)
(3 1.381765376e-15 0)
(3 1.615237528e-15 0)
(3 2.740226039e-15 0)
(3 3.072542471e-15 0)
(3 2.651965582e-15 0)
(3 2.253909392e-15 0)
(3 2.106317089e-15 0)
(3 1.845649376e-15 0)
(3 2.279639102e-15 0)
(3 3.336237957e-15 0)
(3 1.434635359e-15 0)
(3 5.295175338e-16 0)
(3 -1.3928101e-15 0)
(3 -3.164916244e-15 0)
(3 -3.410818914e-15 0)
(3 -4.054997729e-15 0)
(3 -4.029184011e-15 0)
(3 -3.828855921e-15 0)
(3 -4.43496915e-15 0)
(3 -5.80629229e-15 0)
(3 -5.655558392e-15 0)
(3 -3.591217434e-15 0)
(3 -3.002052091e-15 0)
(3 -3.703000936e-15 0)
(3 -2.919910077e-15 0)
(3 -2.128291128e-15 0)
(3 -1.895514606e-15 0)
(3 -1.869120091e-15 0)
(3 -1.083191028e-15 0)
(3 -8.337517876e-16 0)
(3 -1.361295724e-15 0)
(3 -2.714226231e-15 0)
(3 -3.755211363e-15 0)
(3 -3.62207769e-15 0)
(3 -3.317308658e-15 0)
(3 -3.191366738e-15 0)
(3 -4.321619583e-15 0)
(3 -3.010351511e-15 0)
(3 -3.655872211e-15 0)
(3 -2.151786283e-15 0)
(3 -2.607431844e-15 0)
(3 -3.207389366e-15 0)
(3 -1.94280459e-15 0)
(3 -1.404643266e-15 0)
(3 -1.596419114e-15 0)
(3 -8.464142431e-16 0)
(3 -7.441120771e-16 0)
(3 5.142292165e-17 0)
(3 1.590425331e-15 0)
(3 1.292604685e-15 0)
(3 4.018170481e-16 0)
(3 -2.527409086e-15 0)
(3 -3.89188377e-15 0)
(3 -7.626268716e-16 0)
(3 1.490154062e-15 0)
(3 2.49175327e-15 0)
(3 3.990899415e-15 0)
(3 3.628191898e-15 0)
(3 -1.544137934e-15 0)
(3 -1.363669859e-15 0)
(3 -9.881002143e-16 0)
(3 -2.77350582e-15 0)
(3 -3.22982907e-15 0)
(3 -3.190122232e-15 0)
(3 -4.050896221e-15 0)
(3 -2.604747817e-15 0)
(3 -1.82515363e-15 0)
(3 -1.040534589e-15 0)
(3 -1.642154731e-15 0)
(3 -2.850963425e-15 0)
(3 -3.897493477e-15 0)
(3 -4.073948013e-15 0)
(3 -2.700551831e-15 0)
(3 -2.765039826e-15 0)
(3 -4.363351052e-15 0)
(3 -1.628421332e-15 0)
(3 -2.328526178e-15 0)
(3 -2.558752695e-15 0)
(3 -1.747308716e-15 0)
(3 -1.072175483e-15 0)
(3 -1.334289079e-15 0)
(3 -9.348124917e-17 0)
(3 -2.225770565e-16 0)
(3 -2.457368685e-16 0)
(3 1.90045146e-15 0)
(3 1.401323487e-15 0)
(3 1.023579802e-15 0)
(3 9.947068564e-16 0)
(3 1.094538688e-15 0)
(3 1.961580713e-15 0)
(3 1.265689945e-15 0)
(3 3.252305074e-16 0)
(3 1.109389038e-15 0)
(3 1.960465125e-15 0)
(3 4.213720357e-15 0)
(3 4.198903589e-15 0)
(3 4.508270795e-15 0)
(3 4.257018794e-15 0)
(3 2.131507478e-15 0)
(3 -1.824642165e-16 0)
(3 -3.299732337e-15 0)
(3 -3.95827311e-15 0)
(3 -3.623049224e-15 0)
(3 -2.466757871e-15 0)
(3 -1.324848843e-15 0)
(3 -4.945481237e-16 0)
(3 1.325583658e-15 0)
(3 3.018359966e-15 0)
(3 5.630622985e-15 0)
(3 4.876154214e-15 0)
(3 1.023986118e-15 0)
(3 -2.747755708e-15 0)
(3 -2.239488045e-15 0)
(3 -3.021242487e-15 0)
(3 -3.909857062e-15 0)
(3 -4.435603054e-15 0)
(3 -5.141664051e-15 0)
(3 -3.996181515e-15 0)
(3 -2.333857672e-15 0)
(3 -2.771397606e-15 0)
(3 -3.424476625e-15 0)
(3 -3.234296011e-15 0)
(3 -5.051632569e-15 0)
(3 -5.732358503e-15 0)
(3 -5.5828072e-15 0)
(3 -3.683918678e-15 0)
(3 -2.620449283e-15 0)
(3 -2.360951354e-15 0)
(3 -2.039519011e-15 0)
(3 -2.643078889e-15 0)
(3 -2.500411769e-15 0)
(3 -4.629203066e-15 0)
(3 -5.568037032e-15 0)
(3 -5.869627805e-15 0)
(3 -6.907014087e-15 0)
(3 -8.298537212e-15 0)
(3 -8.705676458e-15 0)
(3 -7.839063129e-15 0)
(3 -5.853157961e-15 0)
(3 -3.333164895e-15 0)
(3 -1.130350008e-15 0)
(3 -4.983260783e-16 0)
(3 -1.386613031e-15 0)
(3 -1.238225995e-15 0)
(3 -9.005897554e-16 0)
(3 -1.331010458e-15 0)
(3 -1.384579189e-15 0)
(3 -1.662038433e-15 0)
(3 -1.513818817e-15 0)
(3 -1.494496075e-15 0)
(3 -1.43708146e-16 0)
(3 -6.899085546e-16 0)
(3 -2.687219607e-15 0)
(3 1.886349495e-16 0)
(3 1.063842236e-15 0)
(3 3.966685071e-15 0)
(3 3.367816726e-15 0)
(3 3.03760888e-15 0)
(3 2.02205299e-15 0)
(3 -5.795206114e-16 0)
(3 -3.871429446e-16 0)
(3 -8.593064045e-16 0)
(3 -2.174371486e-15 0)
(3 -1.79160065e-15 0)
(3 -1.620374116e-15 0)
(3 -3.297921523e-15 0)
(3 4.897117389e-16 0)
(3 -9.080355607e-16 0)
(3 -1.419968833e-15 0)
(3 -2.547368827e-15 0)
(3 -3.194500207e-15 0)
(3 -2.607603978e-15 0)
(3 -1.477383604e-15 0)
(3 -1.78099647e-15 0)
(3 -2.157289879e-15 0)
(3 -3.779763925e-16 0)
(3 -8.590236016e-16 0)
(3 -8.443133321e-16 0)
(3 -3.2203751e-16 0)
(3 1.275719556e-15 0)
(3 1.395882172e-15 0)
(3 1.702305868e-17 0)
(3 -1.88005734e-15 0)
(3 -2.201693597e-15 0)
(3 -9.801699429e-16 0)
(3 2.302293718e-15 0)
(3 4.454108145e-15 0)
(3 4.145527079e-15 0)
(3 2.914156822e-15 0)
(3 3.669169168e-15 0)
(3 3.595053352e-15 0)
(3 4.187606009e-15 0)
(3 4.095536472e-15 0)
(3 4.66209188e-15 0)
(3 4.471394611e-15 0)
(3 3.344328438e-15 0)
(3 3.557980747e-15 0)
(3 4.338597336e-15 0)
(3 5.893546148e-15 0)
(3 2.147672885e-15 0)
(3 3.909218365e-16 0)
(3 -3.330971479e-16 0)
(3 -1.284775006e-15 0)
(3 -2.429453824e-15 0)
(3 -1.562253285e-15 0)
(3 -3.685019664e-16 0)
(3 9.104983944e-16 0)
(3 1.499655238e-15 0)
(3 3.306069024e-15 0)
(3 1.801815297e-15 0)
(3 -1.977519948e-15 0)
(3 -3.040780307e-15 0)
(3 -2.386633852e-15 0)
(3 -3.181073384e-15 0)
(3 -3.087175704e-15 0)
(3 -3.471150967e-15 0)
(3 -3.730062531e-15 0)
(3 -2.3726948e-15 0)
(3 -1.42371105e-15 0)
(3 -1.445662414e-15 0)
(3 2.210817172e-16 0)
(3 -1.263961236e-15 0)
(3 -4.155456319e-15 0)
(3 -4.660384185e-15 0)
(3 -5.036844947e-15 0)
(3 -3.968271721e-15 0)
(3 -4.491899032e-15 0)
(3 -3.984700635e-15 0)
(3 -3.936369069e-15 0)
(3 -4.427325039e-15 0)
(3 -4.416026642e-15 0)
(3 -3.012406045e-15 0)
(3 -3.216229973e-15 0)
(3 -3.694056276e-15 0)
(3 -2.853204789e-15 0)
(3 -2.369169049e-15 0)
(3 -1.671068513e-15 0)
(3 -3.828898729e-15 0)
(3 -1.695965036e-15 0)
(3 -6.890374923e-16 0)
(3 -7.950752292e-16 0)
(3 -2.156230126e-15 0)
(3 -2.619295738e-15 0)
(3 -1.789042557e-15 0)
(3 -2.644966319e-16 0)
(3 5.401936278e-16 0)
(3 2.351238913e-17 0)
(3 -1.157068027e-15 0)
(3 -1.920627699e-15 0)
(3 -2.507250929e-15 0)
(3 -2.321594999e-15 0)
(3 -1.549602774e-15 0)
(3 -1.603596826e-15 0)
(3 5.945452776e-16 0)
(3 1.444068707e-15 0)
(3 6.38405152e-16 0)
(3 -5.291686869e-16 0)
(3 -5.227718308e-16 0)
(3 3.504549623e-15 0)
(3 4.290338842e-15 0)
(3 4.719875613e-15 0)
(3 3.962089845e-15 0)
(3 -4.445328942e-16 0)
(3 -1.297266732e-15 0)
(3 -1.226602321e-15 0)
(3 -1.127171147e-15 0)
(3 2.208152155e-16 0)
(3 -8.555218611e-16 0)
(3 -9.355242645e-16 0)
(3 -4.923110667e-16 0)
(3 1.433244922e-15 0)
(3 2.631349413e-15 0)
(3 2.24754855e-16 0)
(3 -2.873314427e-16 0)
(3 -8.980907163e-16 0)
(3 5.814342953e-16 0)
(3 3.158619509e-17 0)
(3 -7.970108668e-17 0)
(3 5.679274162e-16 0)
(3 1.425332123e-15 0)
(3 1.798170506e-15 0)
(3 -8.473532645e-17 0)
(3 -9.75682736e-16 0)
(3 4.856189004e-16 0)
(3 1.098238903e-16 0)
(3 -3.31184632e-16 0)
(3 1.458489717e-16 0)
(3 1.32357786e-15 0)
(3 1.25598557e-15 0)
(3 9.485948631e-16 0)
(3 1.113693582e-15 0)
(3 1.325131913e-15 0)
(3 2.058269757e-15 0)
(3 3.052367799e-15 0)
(3 3.386299703e-15 0)
(3 4.942434693e-15 0)
(3 5.048843184e-15 0)
(3 6.22524345e-15 0)
(3 5.724866001e-15 0)
(3 4.995547167e-15 0)
(3 2.893174153e-15 0)
(3 1.024108732e-15 0)
(3 -1.652100462e-15 0)
(3 -2.027155347e-15 0)
(3 -1.345859486e-15 0)
(3 -3.806158005e-16 0)
(3 7.97799965e-16 0)
(3 -7.721797777e-16 0)
(3 -2.750108133e-15 0)
(3 -2.229457827e-15 0)
(3 -6.220161388e-15 0)
(3 -5.420686003e-15 0)
(3 -5.538895101e-15 0)
(3 -4.316333935e-15 0)
(3 -3.952694177e-15 0)
(3 -4.681551599e-15 0)
(3 -1.924637925e-15 0)
(3 -2.94893476e-15 0)
(3 -2.257247845e-15 0)
(3 -1.844483003e-15 0)
(3 -1.075491992e-15 0)
(3 -1.014245523e-15 0)
(3 -9.63179736e-16 0)
(3 -1.187436507e-15 0)
(3 -2.81973884e-15 0)
(3 -4.573693324e-15 0)
(3 -6.359604631e-15 0)
(3 -6.581853753e-15 0)
(3 -6.021005322e-15 0)
(3 -5.186754802e-15 0)
(3 -4.641684661e-15 0)
(3 -1.008023398e-15 0)
(3 -1.405922603e-15 0)
(3 -1.747092939e-15 0)
(3 -9.926298061e-17 0)
(3 -2.947849701e-16 0)
(3 -9.985883035e-16 0)
(3 -2.700368384e-15 0)
(3 -3.186046296e-15 0)
(3 -2.301497768e-15 0)
(3 -1.523205892e-15 0)
(3 -1.480627504e-15 0)
(3 -1.019115654e-15 0)
(3 4.77118489e-16 0)
(3 6.612589322e-16 0)
(3 -1.935104343e-16 0)
(3 -9.289081013e-16 0)
(3 -1.737391157e-15 0)
(3 -1.803612872e-15 0)
(3 -3.291776979e-15 0)
(3 -5.101928524e-15 0)
(3 -5.048260251e-15 0)
(3 -1.005293095e-15 0)
(3 6.89863522e-16 0)
(3 2.006612667e-17 0)
(3 -2.209519503e-15 0)
(3 -2.503042922e-15 0)
(3 -2.334530707e-15 0)
(3 1.901770466e-15 0)
(3 6.058696216e-15 0)
(3 4.003282528e-15 0)
(3 2.497053664e-15 0)
(3 -1.162522583e-15 0)
(3 -6.571264202e-15 0)
(3 -5.407181544e-15 0)
(3 -1.944581855e-15 0)
(3 -2.083421704e-15 0)
(3 -2.53518984e-15 0)
(3 -1.207103162e-15 0)
(3 3.52757536e-16 0)
(3 2.37601516e-15 0)
(3 2.266836962e-15 0)
(3 2.003180456e-15 0)
(3 2.918777818e-15 0)
(3 2.354894398e-15 0)
(3 3.465887206e-16 0)
(3 -3.999570938e-16 0)
(3 -3.145727342e-16 0)
(3 -9.952341084e-16 0)
(3 -1.28731777e-15 0)