/*--------------------------------*- C++ -*----------------------------------*\
  =========                 |
  \\      /  F ield         | OpenFOAM: The Open Source CFD Toolbox
   \\    /   O peration     | Website:  https://openfoam.org
    \\  /    A nd           | Version:  7
     \\/     M anipulation  |
\*---------------------------------------------------------------------------*/
FoamFile
{
    version     2.0;
    format      ascii;
    class       volScalarField;
    location    "4.6";
    object      T;
}
// * * * * * * * * * * * * * * * * * * * * * * * * * * * * * * * * * * * * * //

dimensions      [0 0 0 1 0 0 0];

internalField   nonuniform List<scalar> 
2222
(
1.129473792
1.121832871
1.125246406
1.133604525
1.13257018
1.127317334
1.128541704
1.131222763
1.131531188
1.131943432
1.132374078
1.13244393
1.133302853
1.135238596
1.136106039
1.135736142
1.134467189
1.134453746
1.136061621
1.138625598
1.139088543
1.139312935
1.139335544
1.139183985
1.138775072
1.138164379
1.137577662
0.6563423042
0.6556389014
0.7979558182
1.061553817
1.12201792
1.112091742
1.128976772
1.132010807
1.121930624
1.119747001
1.126109151
1.131026749
1.127150364
1.125736678
1.128048211
1.129033084
1.129751074
1.131081256
1.131882915
1.132653079
1.134008213
1.134289282
1.133290966
1.131261928
1.131021254
1.132628747
1.135057399
1.13616808
1.136419182
1.136116763
1.135996233
1.135676673
1.135398004
1.135221188
0.6569791285
0.6563859907
0.6579452541
0.960638895
1.115925433
1.104426578
1.122215261
1.13035914
1.125994316
1.116381388
1.119603371
1.127773001
1.127061455
1.124443735
1.125689187
1.127426802
1.128650813
1.130650029
1.131236735
1.131021734
1.131480544
1.131857373
1.130940034
1.128622316
1.128131877
1.129520587
1.131932142
1.133373045
1.13317641
1.132934994
1.133022046
1.133026135
1.133100562
1.133422944
0.6582813299
0.6574040048
0.6578079681
0.7966542471
1.083675067
1.103947641
1.110824564
1.127956636
1.12888411
1.117792583
1.115898029
1.122554015
1.126076396
1.123938716
1.124366821
1.126648212
1.127814153
1.128961137
1.129263812
1.128549456
1.128653464
1.129063024
1.12850423
1.126540671
1.125831335
1.127088796
1.129689328
1.130767383
1.130338442
1.129827729
1.130300622
1.13074743
1.131363246
1.132519844
0.661058785
0.6606676496
0.6609043534
0.6613718876
0.9663713979
1.10666563
1.100057818
1.120389454
1.126286037
1.122994754
1.113534162
1.117405467
1.124551931
1.123431026
1.123298939
1.125176204
1.125522905
1.125927034
1.12650266
1.126010847
1.125675664
1.126065029
1.125802283
1.124829256
1.124136426
1.12535341
1.12713752
1.127191364
1.126911
1.127185182
1.128053161
1.129127039
1.130514399
1.132475667
0.6631722838
0.6631830136
0.6640307873
0.6637996665
0.7960851405
1.090147155
1.091403562
1.105461758
1.124346992
1.125332389
1.116087313
1.114293772
1.121236941
1.122706126
1.121620132
1.122735682
1.122826887
1.122881331
1.123525064
1.123476279
1.123280101
1.123622386
1.123611637
1.123473787
1.123420286
1.124245669
1.124875025
1.124822922
1.124417037
1.124859308
1.126105507
1.12797291
1.130151524
1.131588016
0.6639459803
0.6642040428
0.6654232302
0.6675319263
0.6667508198
0.9814212436
1.098080406
1.095372228
1.114994969
1.122958518
1.119812689
1.111539408
1.115933041
1.120489441
1.119425401
1.119819418
1.120334113
1.119732715
1.120259547
1.12104759
1.121376996
1.121810743
1.122377515
1.122725636
1.12257657
1.122537192
1.122407143
1.122080158
1.121985499
1.12275373
1.124647554
1.127151872
1.129083603
1.129717205
0.6644332231
0.6660289633
0.6685453566
0.6696830205
0.8000722749
1.081673326
1.088823201
1.099687146
1.119483196
1.120935756
1.111833556
1.111705259
1.117170355
1.116885415
1.116684195
1.117800685
1.117474282
1.117647824
1.118853783
1.120365098
1.120940033
1.121087956
1.12071121
1.120800622
1.120890883
1.119956122
1.11949011
1.119706497
1.121168568
1.123681627
1.126187822
1.127458386
1.127976577
0.664950617
0.666512991
0.6689621903
0.6713635123
0.6730242175
0.9895455107
1.09596078
1.08981478
1.109698647
1.118081628
1.114042424
1.108168409
1.112863839
1.114346482
1.113914399
1.115025653
1.115460022
1.11566832
1.117452976
1.119840527
1.119949668
1.118211227
1.117298201
1.118402218
1.120024545
1.11946403
1.118612619
1.118797897
1.12021458
1.123095142
1.124945931
1.125912498
1.126563844
1.12727071
0.6667790311
0.6673176592
0.6694513709
0.6717293204
0.6730293944
0.802657601
1.07699695
1.087163305
1.095968073
1.114219214
1.114987621
1.10648715
1.108765132
1.111819685
1.111363972
1.112455718
1.114253921
1.114621592
1.116173036
1.118053644
1.11806763
1.115537509
1.114265465
1.11608909
1.11861555
1.118697552
1.118246948
1.118392583
1.120142618
1.122311167
1.123411981
1.124308186
1.125125343
1.1258552
0.6702506716
0.6704210267
0.6705283148
0.6719806662
0.6734341429
0.6773158281
0.9841664236
1.094165745
1.088158394
1.106419935
1.112706405
1.107413974
1.105949327
1.109550995
1.109583895
1.11076961
1.113302608
1.113458795
1.113666927
1.115110772
1.115408584
1.113962759
1.113170606
1.114511815
1.116776007
1.117384137
1.117690111
1.118166284
1.119576418
1.120776903
1.121596503
1.122312174
1.122987591
1.123602232
0.6722707537
0.6734171428
0.6740953026
0.6735989798
0.6755262949
0.6760597444
0.805615991
1.079880217
1.083453939
1.094542918
1.110855093
1.109580783
1.10381503
1.108017518
1.10896269
1.109335761
1.111186841
1.111750797
1.110936855
1.111980342
1.112539485
1.111787527
1.111824832
1.113067958
1.11516497
1.116383393
1.116972191
1.117380957
1.118082143
1.118771897
1.119471579
1.120096873
1.12070982
1.121179889
0.6730052497
0.6746449566
0.6766355551
0.677273199
0.677874348
0.6782162662
0.6825776139
0.9855932008
1.091350527
1.086858787
1.105934372
1.109739522
1.102968
1.105678388
1.108193206
1.107150881
1.108624353
1.109648342
1.108556685
1.108918691
1.109492982
1.109220041
1.109762664
1.111632887
1.114085642
1.115447464
1.115768594
1.115563623
1.115665628
1.116285252
1.117025335
1.11775292
1.118564938
1.119107979
0.6731807675
0.6750687777
0.6775524555
0.6793762277
0.6806945944
0.6814131197
0.6807851625
0.8151993035
1.07816122
1.081307015
1.09608863
1.108670212
1.103753992
1.103279368
1.106563298
1.105349126
1.10592973
1.107544095
1.107410652
1.106661478
1.107076185
1.106782319
1.108500738
1.110930027
1.113085342
1.113668869
1.113435477
1.11310935
1.112791179
1.113305823
1.114206917
1.115293856
1.116128932
1.116722512
0.6739605609
0.6754646111
0.6778423247
0.680120704
0.681836055
0.6824321072
0.6831239703
0.6901285888
0.9946070345
1.089152603
1.0866191
1.106299602
1.10579172
1.101318371
1.104958509
1.105024825
1.103822985
1.105279598
1.106271798
1.105866253
1.105332487
1.10555266
1.106645153
1.109333107
1.110867738
1.111069863
1.110853769
1.110618999
1.110564064
1.110938822
1.111763427
1.112734464
1.113672896
1.114489206
0.6769436919
0.6782805506
0.6804875688
0.6821801537
0.6829268517
0.6838519048
0.683523536
0.8296074153
1.075549428
1.078371853
1.100571762
1.106151494
1.099601134
1.102552542
1.105027981
1.102677366
1.103560811
1.105509106
1.106672315
1.105171804
1.102842304
1.103321345
1.106080031
1.10842758
1.108766684
1.109088642
1.108863094
1.108825621
1.109148534
1.109765365
1.110582571
1.11150607
1.112490652
0.6806855372
0.6803358749
0.6811116805
0.6828311292
0.6834410118
0.6840350599
0.6847026484
0.6989452698
1.002881428
1.08317912
1.090206483
1.104626147
1.098783106
1.099770355
1.104228613
1.102803429
1.102252499
1.104915903
1.107161201
1.105916112
1.101014591
1.101111223
1.103571994
1.106096639
1.10793945
1.108046129
1.107646247
1.107784461
1.108215415
1.108664536
1.109144629
1.109921545
1.11098687
0.6828426838
0.6837734028
0.6838844209
0.6847567075
0.6848353045
0.6853035787
0.6857430096
0.6861771578
0.8446835292
1.071684996
1.077714699
1.102211751
1.100667109
1.09781159
1.103102818
1.103493843
1.101167052
1.103019555
1.106398468
1.105984162
1.100757011
1.099278883
1.101632209
1.105427695
1.107308514
1.107265243
1.106957825
1.107308149
1.107932432
1.108166162
1.108251024
1.108656416
1.109593906
0.6837237405
0.68556249
0.6867782762
0.6879717087
0.6883040366
0.688745102
0.689315033
0.6888120034
0.7126293164
1.018282063
1.071630884
1.096933
1.102077024
1.095959631
1.100379729
1.103691962
1.10085147
1.100976531
1.10449356
1.104757631
1.101497489
1.100225196
1.102768807
1.105945879
1.106722772
1.107159205
1.106921975
1.107261427
1.107527048
1.10754782
1.10735151
1.107310531
1.107748808
0.6840499782
0.6862257039
0.688026392
0.6895980338
0.6903496144
0.6908456464
0.6913105333
0.6911959149
0.6902344335
0.8695993654
1.070206093
1.083233084
1.100714668
1.095013066
1.096296657
1.102513937
1.101356111
1.09891355
1.100771646
1.102793383
1.101030343
1.102517424
1.105161978
1.105904039
1.107065558
1.107077848
1.106077975
1.106077282
1.106383839
1.106497658
1.106335276
1.106136296
1.106148565
0.6846832164
0.6865463378
0.6884768287
0.6902542169
0.6911465447
0.6916925169
0.692023314
0.6919325937
0.6919679132
0.7331080672
1.035453391
1.067597781
1.098947975
1.096515894
1.093169221
1.100109181
1.101681938
1.098035536
1.097682147
1.099031764
1.099540086
1.10276345
1.105366734
1.106419739
1.106732914
1.10580463
1.104415024
1.10447771
1.104963402
1.105151273
1.105119694
1.105039728
1.104926904
0.6875353588
0.687351183
0.689130258
0.6905830557
0.6914896303
0.692100721
0.6925147743
0.6923696621
0.6925480585
0.6929369684
0.898050236
1.057581274
1.094676611
1.098101891
1.091257769
1.095681924
1.100595128
1.098941268
1.095986768
1.095282367
1.097230626
1.102223175
1.105565292
1.105899505
1.10508194
1.103514297
1.102566599
1.102658575
1.103418684
1.103816119
1.103958236
1.103906187
1.103704197
0.6910915324
0.6905845497
0.690733451
0.6919674509
0.6923536128
0.6928246627
0.6934126129
0.6935511644
0.6932807423
0.6937227102
0.7578758359
1.040431928
1.075214818
1.096901669
1.092023732
1.091229921
1.098748456
1.100151348
1.096033796
1.093369973
1.094127156
1.100983052
1.104529926
1.103831396
1.102405009
1.101029683
1.100677012
1.101187721
1.102203509
1.102796726
1.103054425
1.102961772
1.102567652
0.6933711935
0.6939053584
0.6950063827
0.6951282486
0.6953496605
0.6963879079
0.6967901943
0.696528997
0.6961285954
0.6961420332
0.9408845892
1.051339405
1.095645169
1.094719301
1.088837862
1.094746822
1.099850246
1.098415963
1.092237504
1.091971896
1.097818585
1.10124688
1.100338369
1.09962997
1.098735919
1.098997
1.099903312
1.101271638
1.102180581
1.102376822
1.102116511
1.101315245
0.6944486281
0.6956500807
0.6971033543
0.6978545126
0.6982551654
0.6987977673
0.6991043942
0.69888955
0.6987474192
0.6984697041
0.7848650206
1.031829915
1.088789381
1.095453838
1.08832015
1.089962071
1.098615044
1.099310952
1.093670389
1.090171954
1.095321931
1.097753103
1.097057158
1.096855833
1.097082959
1.097539976
1.099011516
1.100943692
1.101718648
1.101508223
1.100735198
1.099814563
1.099462362
0.6949280825
0.6962273064
0.6978639441
0.6990529856
0.699554288
0.699830218
0.7000649305
0.6998444007
0.6997214427
0.6999931421
0.7036770469
0.9719162018
1.06195946
1.093992326
1.091537281
1.087336883
1.094161516
1.098774521
1.094434867
1.08828735
1.09314205
1.094753543
1.094197367
1.094840729
1.095579695
1.096524512
1.098453835
1.100124896
1.100203464
1.099851552
1.098939719
1.098147037
1.098072194
0.6956859073
0.6967987229
0.6983735183
0.6993288194
0.7000374473
0.7002904125
0.7006316269
0.7003780247
0.7001723616
0.7005964896
0.7009243202
0.8260690033
1.027226751
1.091398478
1.093826926
1.085808463
1.087817005
1.096645871
1.092858158
1.087308472
1.0911934
1.092846792
1.092372935
1.093226243
1.094371605
1.095687048
1.097277092
1.098358924
1.098216533
1.097807655
1.09703736
1.096458402
1.096574202
0.6983440301
0.6982995288
0.6994225392
0.7002257573
0.7007123443
0.7009714077
0.7015024252
0.701314688
0.7009559845
0.7010516037
0.7017596635
0.7160314764
0.9880514059
1.073600604
1.092501694
1.088147992
1.084298373
1.091553755
1.09053404
1.087095051
1.091215076
1.091593139
1.091149902
1.09238766
1.093489911
1.094111211
1.095312551
1.096254542
1.096200403
1.095690784
1.095046571
1.094787598
1.095131119
0.7014141901
0.7015229276
0.7021490312
0.7023343497
0.7026206841
0.7035764922
0.7042698426
0.7041602377
0.7035948625
0.7034688365
0.7039279314
0.7039119727
0.8654471626
1.035007915
1.090233453
1.090871339
1.082565664
1.086615986
1.086545875
1.086398933
1.092312653
1.091494123
1.090739544
1.091774284
1.092162159
1.09205693
1.092994228
1.093989304
1.093979441
1.093572591
1.093218216
1.093355298
1.094119173
0.7027074902
0.7035066108
0.7045417689
0.7053808017
0.7056950924
0.7061613417
0.7066237684
0.7065111889
0.7060745219
0.7059930718
0.7061737616
0.7058733864
0.7350342783
0.996063042
1.078073509
1.090554515
1.086212282
1.084402666
1.083476031
1.085484316
1.093222275
1.091316526
1.09022549
1.090750693
1.090329708
1.090019581
1.091013107
1.091669301
1.091845717
1.091893357
1.092082089
1.092781049
1.093814509
0.7031966884
0.7041752765
0.7054716105
0.7066983249
0.7071973256
0.7073497252
0.707646229
0.7075539821
0.7072016924
0.7070881506
0.7070692951
0.7075184021
0.7072570174
0.8990337622
1.042370198
1.088561003
1.089508446
1.082722198
1.081685556
1.085096209
1.093767833
1.090357109
1.088870121
1.089085288
1.088251995
1.087989735
1.089109873
1.08978169
1.090266036
1.090981321
1.091928831
1.092499492
1.093024325
0.7047998329
0.705894644
0.7071769262
0.7077743551
0.7079199372
0.7082380165
0.708234351
0.7078519676
0.7076257337
0.7074887125
0.7081027247
0.708582872
0.7640087731
1.003452191
1.079651822
1.0898619
1.083039576
1.081783186
1.085393892
1.093125412
1.087945366
1.086879464
1.087161772
1.086171414
1.086252932
1.087871508
1.088818718
1.08980914
1.091027141
1.091507083
1.091782755
1.09233835
0.7064344569
0.7073788934
0.7081829827
0.7085158197
0.7087226107
0.7092272938
0.7093033242
0.7088688574
0.7084484487
0.7086088542
0.7087535139
0.7093690569
0.7107747672
0.935566278
1.048219125
1.087788436
1.083797314
1.08285403
1.08475134
1.091397134
1.085219927
1.084642355
1.085367123
1.084761267
1.085461041
1.087628008
1.088924329
1.09001245
1.090886843
1.091327701
1.091723337
1.092198615
0.7093083247
0.709438046
0.7100377341
0.710657646
0.7112614202
0.7118920899
0.711955178
0.711329886
0.7109024478
0.7112908926
0.7112264
0.710721403
0.7109337623
0.8007060251
1.008168761
1.07921479
1.082740689
1.081455677
1.083163151
1.08931279
1.082337937
1.082912623
1.084745294
1.084541959
1.085502277
1.087730084
1.089170245
1.090286075
1.091152593
1.091679148
1.092081071
1.092582508
0.7113740446
0.7119766041
0.712889876
0.713249098
0.7134161402
0.7137426817
0.7138381005
0.7134490163
0.712919547
0.7128105275
0.7130205514
0.7131142248
0.7118189431
0.7178066694
0.9600667972
1.055434973
1.080711265
1.078549346
1.080938641
1.087850625
1.079294791
1.082217869
1.08514433
1.084773583
1.086159294
1.088601684
1.090012429
1.090951194
1.091906602
1.092586739
1.093120911
1.093861544
0.712172296
0.7128947475
0.7141750617
0.7144857487
0.7144782569
0.714658991
0.7147205182
0.7144054744
0.7140548784
0.7136673766
0.7137836942
0.7142055184
0.7141875083
0.7138143974
0.8379247343
1.019010074
1.077963302
1.070768537
1.078021579
1.086936235
1.078440296
1.082988198
1.086439915
1.085961222
1.087480337
1.090313154
1.091534386
1.092280062
1.093276838
1.094089292
1.094888112
1.095866546
0.7132620647
0.7136533812
0.7147248162
0.7153052873
0.7152621142
0.7154646687
0.7156403817
0.7153753808
0.7148105747
0.7146551826
0.7146153233
0.7147560392
0.7155571771
0.7152555595
0.7315731286
0.980260376
1.070564143
1.05775051
1.075334005
1.088370311
1.07994004
1.086282521
1.089617935
1.088839892
1.090240513
1.092547199
1.093062883
1.093496158
1.094396272
1.095565314
1.09687421
1.098074148
0.7155950816
0.7157380573
0.7163343299
0.7168897452
0.7172216853
0.7176287223
0.7178019257
0.7175003608
0.716837592
0.7167134756
0.7166737159
0.7163597122
0.716228266
0.7166115879
0.7164518584
0.8756094281
1.044516789
1.052296235
1.079404128
1.093655669
1.083022744
1.090756723
1.092499452
1.09128794
1.092644989
1.094161432
1.093608204
1.094110103
1.09555062
1.096990559
1.098386876
1.099382624
0.7176125185
0.7176559475
0.7185856543
0.719101805
0.7191742516
0.7193047215
0.7193868061
0.7190588044
0.7184568272
0.7182258386
0.7181668942
0.7180716426
0.7177485656
0.7177706089
0.7176583879
0.7546313807
1.009532979
1.057150592
1.091112189
1.099710988
1.086672817
1.094004139
1.093966439
1.092335676
1.093373531
1.094513309
1.094247442
1.094821512
1.09624625
1.097539367
1.098776634
1.100193969
0.7191778161
0.7192733841
0.7198864821
0.720325732
0.7202921348
0.720350068
0.7204664153
0.720155625
0.7194790173
0.7191677287
0.7190734745
0.7189291772
0.718799068
0.7187440525
0.7185335254
0.7191482821
0.9071355419
1.060143464
1.101416872
1.102173377
1.087207441
1.09346973
1.09326034
1.092257126
1.093734847
1.094598417
1.094216059
1.094741334
1.095954619
1.097611456
1.099093375
1.099595803
0.7228520739
0.723417703
0.7237239603
0.7236365011
0.7236365476
0.723653486
0.7232421341
0.7225346654
0.7222092625
0.7220495031
0.7218177455
0.7215690852
0.7214856046
0.7212606234
0.7212939289
0.7508929445
0.9065261448
1.044759487
1.059934195
1.075352964
1.093361227
1.089239337
1.088061599
1.090533585
1.090863202
1.090552157
1.090701144
1.091582529
1.093144063
1.094510204
1.095351423
0.7338497805
0.7340344946
0.7340575979
0.7337207076
0.7335896486
0.7335591302
0.7330087621
0.732071048
0.7314451583
0.7311565757
0.7307485641
0.7302408219
0.7300017045
0.729741095
0.7291392553
0.7278870294
0.736281111
0.8171992894
0.9448441741
1.034561622
1.07008657
1.071577431
1.076027096
1.083984655
1.083484494
1.082207128
1.082667638
1.083855489
1.085333793
1.086657094
1.087372269
0.7399551089
0.740246783
0.7401890928
0.7394954424
0.7396138666
0.7398633217
0.7394708385
0.7383647024
0.7378959837
0.7376897413
0.7371701169
0.7365384403
0.7364590757
0.7362387621
0.7354522155
0.735201854
0.7346375397
0.7360775015
0.7659334947
0.8638658552
0.9659729517
1.025468148
1.05300893
1.072136686
1.073394811
1.074574656
1.077287709
1.077638778
1.077413477
1.077888531
1.077918533
0.7495754878
0.7496348692
0.7494955973
0.7485108228
0.7478021384
0.7474693592
0.7466978853
0.745504454
0.7449453151
0.7445157098
0.7439049095
0.7430654302
0.7424962606
0.7417770163
0.7408068485
0.7400198492
0.7398913684
0.7395884911
0.739324354
0.7448442481
0.7843484156
0.8953040307
0.9804232833
1.045326126
1.055974161
1.066806713
1.073477866
1.07195679
1.070501394
1.070577603
1.069937135
0.7563767952
0.7566760691
0.7565994866
0.7555649316
0.7547142408
0.7543255969
0.7536167206
0.7526693008
0.7519907908
0.7513377316
0.7504506055
0.7494179384
0.7486633472
0.7477084488
0.7464210385
0.7460034698
0.7459599741
0.7458711316
0.7457893503
0.7450165754
0.7448457468
0.7552591704
0.8176333065
0.916476008
0.9958503039
1.055275582
1.064172809
1.058258787
1.061722136
1.06286236
1.062599259
0.7673678569
0.7672786698
0.766702721
0.7650926886
0.7634175385
0.7623910737
0.7613937086
0.7603282277
0.7596191685
0.7587527082
0.7573803728
0.7556749386
0.7545591741
0.7536828944
0.7525544553
0.751973079
0.7516765091
0.7511986161
0.750558445
0.7496513149
0.7481592812
0.7468641023
0.74792629
0.7666041977
0.8525300326
0.9564953986
1.017588238
1.035823241
1.058670343
1.05940858
1.061869502
0.7754752067
0.7751804614
0.7743260265
0.7724569201
0.7706503032
0.7696093744
0.7685892618
0.7673797965
0.7666798434
0.7657033201
0.7640785201
0.7621637786
0.7608669742
0.7600626716
0.7588646699
0.7582246433
0.7578475504
0.7573312944
0.7568033597
0.7561328612
0.7548808774
0.7532362861
0.7513667576
0.7515629036
0.7563560599
0.7910701006
0.8892725782
0.991935476
1.044690637
1.051093611
1.058154037
0.7854584074
0.7845825203
0.7831888197
0.7808809078
0.7788394835
0.7776269613
0.776458672
0.7749671933
0.7738737985
0.7725229021
0.7704812043
0.7683248173
0.7672293544
0.7664643695
0.7653378355
0.764464977
0.7637293181
0.7628796883
0.7620380199
0.7610599601
0.759731744
0.7581240967
0.756334415
0.7554836441
0.755716864
0.7563710736
0.7668940718
0.8268673168
0.9175829008
0.9878160196
1.041441716
0.7927751262
0.791398262
0.7900896737
0.7880179233
0.7861955503
0.7851237781
0.7839655632
0.7823986281
0.7810563445
0.7795551305
0.7772552877
0.7747470262
0.7736946631
0.7728602076
0.7717407613
0.7705575549
0.7696761078
0.7686941691
0.7677072248
0.7668638374
0.7659255716
0.7643702717
0.7627458574
0.7622196362
0.7619344382
0.7610480748
0.760039164
0.7613349955
0.778780251
0.8544660951
0.9414564409
0.8030725456
0.8015089133
0.799673062
0.7968510244
0.7945502824
0.7931274382
0.7916721597
0.789957124
0.7883894117
0.7866327228
0.7842269408
0.7815650283
0.78027814
0.77921401
0.7779176058
0.7766154817
0.7755649876
0.7744088442
0.7733399267
0.7723978022
0.771246869
0.7696952768
0.7676148218
0.7669607415
0.7667740387
0.7662182192
0.7643357685
0.7629778121
0.7634066736
0.7675298827
0.7966628102
0.811794372
0.8096094789
0.8073890371
0.8043291218
0.8017073787
0.8001465333
0.7985980059
0.7968215273
0.7953560178
0.7936529163
0.7913879907
0.7886457387
0.7870654332
0.7857727805
0.7843150844
0.7828997415
0.7817642047
0.7805202303
0.7792232414
0.7782416736
0.7771324396
0.7756640133
0.7735141628
0.7729314965
0.7726878171
0.772051389
0.770637497
0.7688954452
0.7682060945
0.7672760134
0.7675792569
0.8206605643
0.8185154196
0.8163076399
0.8131064611
0.8103168688
0.8084570558
0.8066005084
0.8044735636
0.802753568
0.8008629567
0.7985725227
0.7958882831
0.7939705414
0.7923366693
0.7906285489
0.7891007417
0.7878720838
0.7866017672
0.785225906
0.7841140777
0.7828464052
0.7811716264
0.7787202639
0.7777623725
0.7773944204
0.7767575384
0.7753911798
0.7739993225
0.7733646084
0.7726871448
0.7709607436
0.8301397427
0.8274127068
0.8245631693
0.8210241547
0.8178897441
0.815836371
0.8139638892
0.8118226839
0.8100052217
0.8079781924
0.8055914965
0.8029169721
0.8007893608
0.7988581668
0.7968884775
0.7952643827
0.7939625345
0.792617692
0.7911565105
0.7899851003
0.7886591203
0.7869371165
0.7844846001
0.7835344674
0.7832125715
0.7825546418
0.7811425409
0.7796625724
0.7790731116
0.7782183923
0.7769321485
0.8394455048
0.8365072695
0.8335272465
0.8297005511
0.8266065105
0.8243773647
0.8222055709
0.8198169643
0.8177263561
0.8154154143
0.8127989487
0.8099718723
0.807639163
0.8054700439
0.8032449042
0.8014229086
0.8000325708
0.7986111345
0.7970261123
0.7957703643
0.7944101306
0.7925159833
0.7897303452
0.7887018623
0.7882996957
0.7875382921
0.7861376793
0.7844884467
0.7836520148
0.7828405085
0.7818971042
0.8488996548
0.8456131851
0.8422296225
0.8378217795
0.8340360354
0.8314091939
0.8290836943
0.8266432109
0.8245357903
0.8222217697
0.8196147218
0.8168271185
0.8144698931
0.8121757157
0.8097996774
0.8078172745
0.806295503
0.804766331
0.80309488
0.8017083741
0.8002859241
0.7983207917
0.7952720438
0.7943731591
0.7940027575
0.7931770688
0.7916941516
0.7901251842
0.7891344638
0.788174768
0.7869837987
0.8579224604
0.8544511545
0.8507625654
0.8462409514
0.8425226344
0.8398955182
0.837398588
0.8346911063
0.8323228796
0.8297038053
0.826790693
0.8238131549
0.8213049629
0.8188408481
0.8162784321
0.8141551239
0.8125207571
0.8108592261
0.8090798689
0.8076237274
0.8061311931
0.8041728471
0.8009941515
0.7999720764
0.7993639874
0.7983121121
0.7966536807
0.794839275
0.7937866614
0.7926573229
0.791605963
0.8664704696
0.8628274756
0.8590177145
0.8542216541
0.8502586295
0.8473035481
0.8445348219
0.841574707
0.839032891
0.8364093345
0.8335324207
0.8305785433
0.8280683953
0.8255337857
0.8227735823
0.8204779506
0.8187469056
0.816968746
0.8150328012
0.8135348549
0.8119859858
0.8101069107
0.8071254962
0.8057767234
0.8049471327
0.8037964967
0.8020163919
0.8002545666
0.7991927123
0.798184696
0.7970074726
0.8757183435
0.8718050804
0.8676847979
0.8625197537
0.8583163904
0.855383417
0.8526797536
0.8497342676
0.8470602868
0.8441606667
0.8409752236
0.8378261122
0.8351561427
0.8324652258
0.8295471773
0.827025055
0.8250831026
0.8231206768
0.8209868831
0.8193760836
0.8177432146
0.8158936855
0.8131415406
0.8115775077
0.8104863825
0.8091642954
0.8072209103
0.8052387691
0.8040569096
0.8029146557
0.8016075588
0.8846325853
0.880526327
0.876138769
0.870792152
0.8664403689
0.8631919168
0.8601114735
0.856840653
0.8538680181
0.8508012071
0.8475551178
0.8444287257
0.8417931935
0.8391083843
0.8361809894
0.8335772587
0.8315087309
0.8294290428
0.8271387199
0.8253895592
0.8236393613
0.8217682006
0.8191387302
0.8174343554
0.8161569086
0.8147074826
0.8126628281
0.8106308973
0.8094405148
0.8082483885
0.80694824
0.8935604967
0.8892542028
0.8846546774
0.879044796
0.8745489555
0.8711245379
0.8679653378
0.8646676421
0.861699173
0.858538514
0.8550627785
0.8517767904
0.8489611993
0.8460426347
0.8429022145
0.8401606167
0.837939177
0.8357187792
0.8333001849
0.8314160533
0.8295478381
0.8275838237
0.824909999
0.8231691369
0.8217596335
0.8201948903
0.8180528953
0.8159777562
0.8146148029
0.813340891
0.8117971998
0.9024609207
0.8979043978
0.8931314879
0.8872593645
0.8826204487
0.8791391436
0.8757965544
0.8722774947
0.8689853977
0.8655269417
0.8618995369
0.8585288837
0.8556546052
0.8527227611
0.8495162805
0.8467209337
0.8444270909
0.8420967353
0.8395328275
0.8375186552
0.8355363059
0.8334718027
0.8307254869
0.8289270178
0.8274158559
0.8257408768
0.8235461278
0.8214149562
0.8200472432
0.8186933037
0.8171854106
0.9115751212
0.9069098848
0.9019178747
0.8958090282
0.8909499223
0.8871750723
0.8835423828
0.8797299866
0.8763009177
0.8728092052
0.8690580534
0.8656979026
0.8627921239
0.8597192298
0.8563254714
0.8533834628
0.8509603105
0.8485172605
0.8458283181
0.84365342
0.8415340122
0.8393368367
0.8364701295
0.834590177
0.8329551353
0.8311711024
0.8288911564
0.8267973067
0.8253379948
0.8239142243
0.822335841
0.9203537369
0.9153384897
0.9100805638
0.9038177182
0.8988820228
0.8949722815
0.8911723358
0.8872761857
0.8837150909
0.8800424627
0.8760031075
0.8722826745
0.8691499425
0.8659837013
0.8624954899
0.8595699134
0.8571886926
0.8547669983
0.8520824606
0.8498417359
0.8476204496
0.8452936123
0.8422611618
0.8402788166
0.8385194741
0.8366390644
0.8342579479
0.8321521969
0.8306930577
0.8292535547
0.8276191318
0.9287335806
0.9238401567
0.9186081314
0.9121846202
0.9072035625
0.9031681409
0.899086532
0.8948393405
0.8910191121
0.8872371487
0.8833235546
0.8798230945
0.8767385682
0.8734776365
0.8697395767
0.8665205966
0.8638555044
0.8611893981
0.8583635944
0.8560481884
0.8537532437
0.8513333678
0.8481766178
0.8460063143
0.844062587
0.8420359492
0.8394918023
0.8373354222
0.8358395292
0.8343573191
0.832747438
0.9384955651
0.9332644564
0.9276170471
0.9208491165
0.9154792294
0.9110868724
0.9067802366
0.9024039071
0.898433935
0.8945157806
0.8903187906
0.8866405924
0.8833472122
0.8798805304
0.8759935137
0.8726798826
0.8699801815
0.8672671506
0.8643901665
0.8621040678
0.8598328507
0.8574099555
0.8542040452
0.8518610492
0.849720655
0.847529395
0.8447473661
0.8425290846
0.8409918545
0.8394686943
0.8377706862
0.9464468334
0.9411237554
0.9355246444
0.9288723936
0.9236373425
0.9192131816
0.9146974669
0.9101158336
0.905943867
0.9018718435
0.8976026657
0.8938654786
0.8905464327
0.8870507501
0.8829855048
0.8794828825
0.8765622561
0.8735987803
0.8705077777
0.8681310915
0.8658008478
0.8633459859
0.8601886505
0.8577606184
0.8554611228
0.8531232682
0.8501361023
0.847763749
0.846118446
0.84449858
0.8426756009
0.9560567589
0.9507653789
0.9449487004
0.9378713798
0.9322849651
0.9274330023
0.9224641343
0.9175224215
0.9131099208
0.9089209745
0.9045801357
0.9009255186
0.8975405172
0.893870406
0.8895982038
0.8858279561
0.8827054651
0.8796176301
0.876410143
0.8740072663
0.871683243
0.8692207444
0.866096669
0.8636554899
0.8612589569
0.8588002096
0.8556564467
0.8531490087
0.8513667099
0.8496097534
0.8476071998
0.9651298069
0.9592418521
0.9529976355
0.9456155903
0.9399608934
0.9352305322
0.9303212411
0.9253363185
0.9208484939
0.9165184739
0.9118610095
0.9080245382
0.9044888874
0.9006762246
0.8962890142
0.8925127785
0.8893302191
0.8860814789
0.8826930212
0.8801652992
0.877725145
0.8751274454
0.8718999587
0.8693840881
0.8668668436
0.8643099968
0.8611165136
0.8585672783
0.8566663527
0.854778513
0.8525957755
0.9742308385
0.9682776835
0.9619423111
0.9545316145
0.9488014124
0.943771548
0.9384479428
0.9331461931
0.9283028188
0.9237324916
0.9189217786
0.9149998907
0.9113953067
0.9075062507
0.9029731392
0.898998099
0.895610279
0.8922171525
0.8886434795
0.8859835703
0.8834927188
0.8808081727
0.8775123954
0.8749860914
0.8724178654
0.869802123
0.8665700206
0.8639976799
0.8620345519
0.8600794206
0.8577900788
0.9838904499
0.9775521787
0.9706390524
0.9627062455
0.9564049707
0.9510090049
)
;

boundaryField
{
    inlet
    {
        type            fixedValue;
        value           nonuniform 0();
    }
    outlet
    {
        type            inletOutlet;
        inletValue      nonuniform 0();
        value           nonuniform 0();
    }
    bottom
    {
        type            slip;
    }
    top
    {
        type            slip;
    }
    obstacle
    {
        type            zeroGradient;
    }
    defaultFaces
    {
        type            empty;
    }
    procBoundary28to21
    {
        type            processor;
        value           nonuniform List<scalar> 
19
(
0.6531383823
0.6557497944
0.6585260989
0.6596045995
0.6602628415
0.6603500911
0.6641884271
0.6641884271
0.6647528981
0.6675907681
0.6704019133
0.671544349
0.6718967576
0.6723283271
0.6745522909
0.6770405759
0.6770405759
0.6801843305
0.6816586802
)
;
    }
    procBoundary28to22
    {
        type            processor;
        value           nonuniform List<scalar> 
35
(
1.12654969
1.125501574
1.132430889
1.13669439
1.132463295
1.129742482
1.132628852
1.13477367
1.134629016
1.134772094
1.134441576
1.134200639
1.134696318
1.135829967
1.136834784
1.137796147
1.137628549
1.13770865
1.139054369
1.141809487
1.14204647
1.141715499
1.141992166
1.142226596
1.142028762
1.141197501
1.140053473
0.6549288911
0.6554106973
0.9694508895
1.122032407
1.117781847
1.121933244
1.132717005
1.132717005
)
;
    }
    procBoundary28to23
    {
        type            processor;
        value           nonuniform List<scalar> 2(1.13746253 1.135533969);
    }
    procBoundary28to27
    {
        type            processor;
        value           nonuniform List<scalar> 
55