/*--------------------------------*- C++ -*----------------------------------*\
  =========                 |
  \\      /  F ield         | OpenFOAM: The Open Source CFD Toolbox
   \\    /   O peration     | Website:  https://openfoam.org
    \\  /    A nd           | Version:  7
     \\/     M anipulation  |
\*---------------------------------------------------------------------------*/
FoamFile
{
    version     2.0;
    format      ascii;
    class       volScalarField;
    location    "4";
    object      rho;
}
// * * * * * * * * * * * * * * * * * * * * * * * * * * * * * * * * * * * * * //

dimensions      [1 -3 0 0 0 0 0];

internalField   nonuniform List<scalar> 
2222
(
2.210732418
2.260322609
2.302799012
2.336458535
2.306418499
2.287635013
2.282343778
2.29445887
2.2983368
2.304710095
2.305357529
2.296837934
2.273840894
2.257266255
2.260753294
2.263149449
2.25789582
2.251357522
2.24494533
2.241855813
2.241172207
2.238072339
2.229348954
2.215387661
1.570628543
1.905536648
2.219415901
2.365716684
2.45013796
2.430023174
2.407143079
2.360398136
2.271349189
2.197396581
2.196447171
2.253205801
2.296565553
2.326737858
2.299962057
2.285368622
2.282828131
2.300099561
2.304220699
2.30603799
2.304553322
2.290555802
2.268260515
2.257942619
2.261858573
2.2622964
2.257221205
2.250931395
2.246085797
2.244940995
2.241230065
2.236640756
2.227514115
2.213990922
1.516291686
1.814282248
2.14560344
2.352325816
2.460473393
2.445478812
2.427234289
2.368262921
2.27069989
2.196433807
2.194284762
2.249134362
2.296392183
2.319971769
2.291552792
2.279203768
2.280940312
2.30198322
2.305591609
2.30526775
2.300636022
2.284512477
2.267607276
2.259524054
2.263230999
2.262457796
2.257139547
2.250995795
2.248164026
2.245333838
2.240047197
2.234643971
2.226534434
2.213862426
1.474437957
1.747553197
2.094119716
2.337267657
2.471682053
2.463418647
2.464883184
2.399468506
2.287918275
2.204519684
2.200613875
2.25232045
2.300874878
2.31386612
2.280063013
2.269462979
2.276036197
2.302474193
2.306147916
2.302127861
2.295082468
2.282718658
2.267801634
2.261499839
2.264767788
2.262928812
2.257376039
2.251639669
2.248916016
2.244884556
2.238267598
2.234308878
2.226718062
2.214202797
1.443773268
1.686723097
2.046877628
2.323231137
2.464980647
2.468828783
2.492795251
2.455443016
2.346382117
2.242654712
2.221636058
2.268334524
2.298899793
2.300853455
2.262387204
2.258272846
2.273167704
2.302199212
2.305207941
2.299618031
2.293198179
2.282282241
2.268852225
2.263719297
2.266341156
2.263586836
2.258057917
2.252821712
2.249120573
2.242981874
2.237691348
2.234631502
2.227215112
2.21476305
1.423813737
1.621249079
1.992984559
2.304431902
2.452350003
2.471547123
2.498246767
2.492685782
2.437331334
2.326245907
2.265443754
2.274115917
2.289070827
2.270698257
2.235908362
2.249250114
2.274809717
2.303008125
2.30527636
2.299298045
2.292684557
2.282416604
2.270612679
2.266447959
2.267941909
2.264745528
2.259637158
2.254764921
2.248994466
2.241347621
2.237888865
2.235366728
2.228118758
2.215647704
1.409617722
1.559078423
1.91878305
2.265889015
2.427995595
2.462840905
2.495461591
2.498912512
2.471879478
2.389743223
2.304358561
2.274895528
2.266055827
2.237039181
2.21582862
2.246052988
2.278267451
2.30457368
2.305904567
2.299448168
2.292835683
2.284102153
2.274015509
2.270208511
2.270266931
2.268257481
2.263992265
2.258243147
2.248323694
2.241074814
2.238592363
2.237084677
2.230372669
2.217467847
1.509727826
1.818156416
2.188226801
2.377837224
2.431290294
2.4760043
2.496161747
2.472753198
2.394929595
2.317605075
2.273522389
2.251667819
2.227828319
2.212232288
2.246001033
2.281487834
2.306850871
2.306759367
2.300435545
2.295582922
2.290657542
2.281821315
2.276837815
2.276968888
2.277512078
2.272207132
2.25951553
2.247853588
2.241470539
2.24089758
2.240382385
2.233895913
2.220866097
1.470824338
1.718452424
2.07967252
2.310430375
2.409971942
2.46709628
2.478982459
2.455199072
2.380209554
2.320705753
2.277229499
2.254252401
2.225654703
2.212407579
2.24777814
2.283435706
2.308502673
2.30720062
2.30221882
2.301468405
2.298437387
2.291806025
2.288812467
2.290931768
2.287693872
2.27522956
2.259047269
2.248053892
2.243745419
2.243024459
2.240700088
2.234155145
2.223932747
2.211958794
1.440351616
1.64545654
1.984454648
2.258014018
2.403940516
2.472441592
2.476593007
2.439021268
2.364299251
2.323478458
2.287864406
2.2601709
2.229873973
2.219939563
2.249180953
2.283325678
2.309057116
2.307437358
2.302369853
2.302210839
2.298359525
2.295262434
2.297551845
2.2979757
2.289703952
2.274680753
2.257277632
2.248402893
2.24599816
2.242807032
2.239627229
2.233391518
2.223973834
2.214886573
1.417623621
1.591414922
1.921605619
2.229026002
2.403493566
2.480318482
2.484039709
2.440562923
2.373542563
2.345753678
2.313037547
2.277206794
2.246834762
2.228412164
2.246522812
2.277327498
2.305083909
2.306425254
2.301226501
2.301154537
2.29707415
2.294913561
2.299386096
2.299036836
2.289544163
2.271200381
2.253242529
2.248011408
2.245950738
2.240823849
2.237276686
2.232044589
2.223868231
2.215004613
1.405541255
1.543262719
1.870881523
2.206878717
2.405688391
2.477788006
2.505036545
2.462226189
2.422078979
2.415965074
2.376832695
2.313245972
2.262153546
2.226836002
2.234569881
2.258938925
2.293251995
2.302512875
2.298616713
2.298431699
2.294060612
2.29369527
2.300189356
2.299013048
2.285449076
2.261621349
2.247440132
2.245686515
2.243380326
2.238071574
2.235385398
2.231226489
2.223890912
2.214775079
1.394997796
1.498509965
1.809925437
2.172531682
2.405185198
2.462351685
2.513616395
2.490232569
2.506133041
2.540522336
2.492690879
2.362815266
2.266529068
2.212551759
2.209861619
2.236592441
2.281472321
2.297534007
2.298122978
2.296719011
2.290747895
2.290760647
2.299525471
2.294984116
2.273168709
2.252956824
2.244048766
2.242549165
2.24052986
2.237158052
2.234483524
2.230921662
2.223935239
2.213518905
1.388275725
1.464488883
1.731510791
2.120019774
2.398068462
2.437252026
2.511442404
2.495643737
2.544777554
2.606255085
2.555682905
2.39182877
2.260111052
2.19390035
2.198149312
2.230742917
2.276924361
2.295558815
2.299182099
2.29628893
2.28909725
2.287943433
2.294911196
2.284635983
2.264333278
2.251537434
2.243546514
2.241661209
2.240047222
2.23715394
2.234303753
2.231182463
2.223691946
2.211553287
1.380977293
1.438589235
1.643712961
2.039662171
2.361295834
2.398631251
2.497531756
2.496126727
2.555128242
2.620235651
2.56176023
2.393340712
2.248993348
2.19291229
2.197653655
2.230179357
2.276188741
2.296929215
2.301105152
2.296506848
2.288339239
2.287675557
2.290741221
2.279424843
2.263808257
2.251790167
2.243832583
2.241881316
2.240294318
2.237718047
2.234984744
2.231369567
2.222749411
2.210481761
1.411349192
1.570491381
1.931977129
2.277047098
2.340919336
2.465756341
2.484378857
2.551997771
2.611608566
2.541073037
2.380031357
2.243876946
2.196428092
2.200895702
2.232253196
2.277137115
2.299141853
2.304128587
2.297839059
2.288542008
2.288441307
2.291904063
2.28031332
2.264241788
2.252667598
2.244575149
2.242572992
2.241062634
2.239284277
2.236358507
2.230540682
2.221303577
2.210373966
1.387238954
1.518153757
1.822707225
2.17971069
2.303064971
2.462094779
2.45734732
2.525561809
2.575573813
2.508212477
2.36946647
2.242156257
2.205053303
2.213138497
2.240634825
2.277773844
2.299951881
2.306603487
2.299636842
2.28926208
2.289934436
2.29398842
2.282275968
2.265779271
2.253968766
2.245533978
2.243586452
2.242839239
2.242411731
2.236401137
2.228307446
2.220442281
2.210706827
1.375222104
1.475958903
1.745701793
2.113417612
2.288512376
2.46485206
2.4511716
2.530413014
2.579866302
2.514099652
2.381215012
2.258384685
2.22313589
2.231289196
2.246786041
2.274498704
2.296308849
2.307543252
2.299800445
2.288236609
2.291009515
2.297477031
2.286489805
2.269063323
2.255277176
2.246706541
2.245355276
2.24721241
2.244790323
2.234616446
2.226150096
2.220347201
2.211454556
1.374085784
1.439193568
1.691621924
2.068558396
2.278407719
2.468809188
2.450873042
2.548554923
2.614804926
2.564371418
2.448302512
2.322241878
2.255896921
2.237415485
2.247309551
2.262397958
2.28106091
2.303447371
2.298011607
2.285839657
2.291941073
2.301423623
2.291265772
2.272152222
2.256392726
2.249194949
2.250310003
2.253191745
2.244833205
2.231394804
2.225454716
2.220693538
2.213418459
1.377446703
1.418554159
1.638691781
2.021744805
2.272477721
2.471071343
2.451517314
2.576355173
2.673788601
2.646850628
2.543559861
2.402202665
2.285316363
2.238775085
2.236627906
2.238239875
2.257142027
2.292674307
2.293959626
2.281935031
2.293408387
2.304096625
2.294379543
2.27456298
2.259181022
2.256185766
2.260368258
2.255634729
2.241233113
2.230108506
2.22555375
2.222036124
2.218126988
1.373256201
1.401108938
1.569590828
1.957220933
2.257119109
2.462700407
2.447721817
2.5911164
2.689754129
2.667238859
2.564885559
2.414731165
2.29239091
2.232269526
2.219553451
2.227164172
2.248347398
2.284706167
2.289519507
2.281049461
2.295335848
2.306644987
2.29739316
2.27918429
2.269404897
2.269727407
2.26614154
2.254149648
2.237475696
2.230206255
2.226694284
2.225997552
2.221040744
1.348777229
1.398222127
1.507609389
1.872606409
2.227225765
2.442016935
2.440114032
2.598369495
2.685947368
2.660528256
2.557755399
2.406796771
2.28704671
2.228566894
2.217865294
2.225985693
2.246441456
2.281681825
2.286078456
2.281568981
2.297205765
2.310521684
2.303253283
2.291134549
2.284877379
2.276864403
2.266169772
2.248259952
2.236905352
2.231552742
2.230312604
2.228407367
2.221102959
1.322250072
1.388921336
1.472062628
1.77121568
2.164027786
2.39332427
2.423029494
2.601295268
2.660250499
2.621577901
2.518661238
2.376748727
2.275890477
2.229545221
2.220711063
2.228253391
2.248908721
2.278281183
2.281419329
2.282288505
2.300458083
2.317222645
2.31243504
2.301579704
2.289873552
2.27748392
2.261821613
2.244789391
2.23747114
2.235237475
2.232085899
2.22811854
2.21862999
1.366706627
1.459157218
1.67523903
2.069499054
2.311890763
2.391646585
2.586012976
2.615577284
2.565460022
2.465967193
2.351658642
2.276381918
2.241359617
2.232909683
2.2410817
2.251636387
2.271607465
2.274588561
2.283589955
2.307093033
2.322624074
2.316473205
2.303220596
2.290264077
2.275578486
2.254544202
2.244407321
2.24123902
2.237356667
2.231588147
2.225230021
2.214569884
1.353768422
1.44254085
1.605039515
1.972751982
2.236745986
2.378301936
2.562266106
2.604210382
2.550022906
2.452897317
2.353838486
2.307605361
2.284078536
2.258993088
2.249592964
2.24907018
2.26311664
2.269409179
2.285800278
2.312890981
2.323542637
2.3164614
2.303364521
2.289853916
2.267662091
2.251978585
2.246884103
2.24371532
2.237040364
2.228181443
2.22099013
2.21362451
2.20553917
1.358802935
1.417003276
1.565325594
1.909161111
2.198138216
2.381362238
2.559054218
2.601622856
2.544997118
2.447707788
2.400553236
2.399011336
2.361777768
2.283401135
2.250434602
2.239808793
2.254409072
2.266894183
2.287524139
2.314830521
2.322887816
2.315884113
2.302669866
2.284306214
2.260210289
2.252282014
2.249234233
2.243479639
2.233662964
2.224180024
2.219925205
2.213950332
2.206447511
1.37375676
1.395279389
1.535604204
1.864778322
2.170732494
2.392254765
2.558800661
2.613116999
2.559041733
2.484013269
2.485260041
2.47410412
2.403481902
2.292810256
2.243297398
2.227607635
2.246714698
2.262655284
2.286457883
2.315993734
2.320108649
2.313219795
2.297535084
2.274851564
2.260057333
2.253623772
2.249109579
2.240415111
2.229243849
2.223472014
2.220068239
2.214730432
2.208321018
1.36734423
1.387028121
1.502240153
1.811116281
2.143389054
2.396757798
2.563126277
2.610232635
2.571265121
2.515833756
2.503715244
2.485754255
2.409241184
2.296398392
2.238608383
2.224712892
2.238918372
2.251496532
2.277850293
2.314934772
2.312851112
2.305965939
2.28979181
2.273291223
2.261384762
2.254665825
2.247028678
2.235951762
2.228297682
2.223661625
2.220640754
2.216264956
2.212757619
1.324205502
1.393815756
1.455292901
1.726064183
2.107088656
2.394532878
2.558233949
2.590966607
2.557947553
2.506959417
2.50119706
2.484391618
2.403824111
2.303924389
2.240475249
2.2245304
2.233823836
2.233468797
2.261397043
2.308659542
2.305761774
2.300976123
2.288946578
2.274857824
2.265042028
2.255929613
2.244208755
2.234827233
2.228429121
2.224255711
2.221654134
2.220353781
2.217392029
1.213965736
1.38743621
1.418528665
1.637588647
2.040774403
2.376356062
2.543326508
2.551365954
2.513164891
2.468530697
2.469591731
2.456849197
2.39898485
2.321885063
2.252647478
2.226341532
2.232758807
2.225080645
2.249064434
2.300890123
2.303998791
2.300184046
2.290293873
2.279480138
2.270941251
2.256843951
2.243584633
2.234932389
2.229052747
2.225292473
2.224349657
2.225598917
2.218334809
1.128661207
1.362990346
1.404436801
1.559202137
1.929242728
2.322241156
2.506416517
2.500036811
2.468694881
2.430667756
2.428081007
2.442535641
2.409652573
2.350105772
2.273798618
2.231784475
2.232831659
2.222965906
2.247221853
2.296968941
2.303376873
2.300105466
2.294098081
2.287261691
2.274401657
2.257377582
2.243802877
2.235549149
2.230166091
2.227575204
2.229980107
2.227362476
2.217182177
1.282860877
1.412147369
1.556639161
1.818844509
2.225490334
2.44366498
2.480908173
2.457998926
2.425890044
2.424157795
2.457671643
2.448482162
2.396250026
2.302108652
2.240063658
2.235897799
2.223790242
2.248163404
2.295871513
2.303010187
2.302245975
2.298843656
2.290459077
2.27547798
2.257887881
2.244338591
2.236710244
2.232874085
2.233547078
2.233985127
2.226952502
2.211762821
1.217017564
1.398396391
1.536291612
1.754378087
2.141501927
2.416576204
2.471481811
2.453653165
2.42799672
2.433593388
2.510451467
2.522105826
2.465214511
2.344052159
2.254945946
2.242118363
2.229686561
2.251878657
2.296628073
2.303275433
2.302395255
2.29915922
2.291379516
2.276152101
2.258611144
2.245554303
2.240323292
2.240153879
2.240775642
2.234379559
2.222858484
2.20754346
1.148488951
1.356048455
1.487737649
1.714493776
2.098823197
2.416581549
2.462483665
2.454548906
2.442170999
2.467956171
2.557930354
2.55906065
2.508386596
2.393258941
2.27750261
2.245863962
2.231672041
2.252023198
2.296250674
2.30272993
2.300757426
2.29835513
2.291352581
2.276851638
2.260138787
2.250657214
2.250614957
2.25039141
2.241815662
2.230900371
2.217035385
2.206532492
1.008290946
1.284037253
1.435293295
1.677925352
2.077907688
2.425021947
2.440872678
2.449215912
2.450689647
2.485784952
2.565349142
2.564211438
2.51462757
2.410420712
2.293416924
2.246734995
2.229712621
2.248626212
2.28995494
2.296935392
2.296093264
2.295990439
2.290424785
2.27836556
2.266189076
2.264692788
2.263515383
2.252199551
2.238484075
2.223452268
2.215218692
2.206329505
0.8263873433
1.223035148
1.407157484
1.634937641
2.048627655
2.434158052
2.404067182
2.439251914
2.452462966
2.490015197
2.565582165
2.560933108
2.511750644
2.407410903
2.299389978
2.246446425
2.221852417
2.236505761
2.271755486
2.280432985
2.287188381
2.293574751
2.290697384
2.283164112
2.28216257
2.279359123
2.266363814
2.249696936
2.229040648
2.220104554
2.215226319
2.206465297
0.6696394226
1.175581139
1.415409004
1.590522663
2.003578413
2.429197657
2.357900465
2.406572872
2.434984459
2.479697708
2.543847751
2.537390036
2.492153566
2.405362333
2.307617717
2.248004964
2.213597228
2.225527988
2.252281041
2.260668604
2.278154804
2.292529193
2.29322229
2.296927856
2.294530539
2.282369362
2.265168876
2.240132643
2.223679885
2.220078255
2.215546841
2.206920114
0.567165309
1.022480283
1.371157201
1.532375418
1.921986185
2.39256183
2.281492552
2.356686152
2.412973331
2.452081879
2.517149267
2.523535384
2.492612114
2.41853847
2.33041067
2.256393305
2.213940827
2.225326235
2.248149768
2.254116456
2.275171769
2.292809574
2.303251589
2.306882547
2.29681579
2.281601156
2.257154566
2.230672507
2.223621471
2.220811667
2.215974283
2.207649115
0.5560621312
0.8093188956
1.228371167
1.46318906
1.828139643
2.287018628
2.231315096
2.340065683
2.416478332
2.449086436
2.512185717
2.5315354
2.512720249
2.468031798
2.378571563
2.278686472
2.218374953
2.22664397
2.245589109
2.251387831
2.274365463
2.295351681
2.308575989
2.309208872
2.298129522
2.276841632
2.243385687
2.228288325
2.223884658
2.221514706
2.21661915
2.208770873
0.5560784769
0.6386973394
1.02842209
1.360678755
1.718433968
2.227842445
2.205950921
2.341415748
2.423930173
2.455407975
2.51910369
2.565112251
2.565275639
2.536239371
2.440076183
2.322080947
2.2369356
2.233746786
2.246731031
2.252902442
2.272841419
2.293296774
2.304363342
2.306781611
2.294142686
2.261588979
2.23915627
2.228814834
2.224874537
2.22242719
2.218542325
2.214713003
0.5681801091
0.6618924559
0.9642213533
1.382737238
1.95687166
2.155439092
2.298140184
2.393471864
2.452465659
2.521642885
2.575775583
2.575091283
2.557177795
2.513306562
2.431987507
2.33982632
2.292563543
2.247900359
2.249980328
2.253839075
2.261930801
2.276136093
2.281691689
2.275929862
2.26345723
2.252496304
2.242092269
2.234371922
2.229823596
2.224711616
2.217952377
0.5892579831
0.5892582712
0.6118444025
0.7265384162
1.17775059
1.859214525
2.273546201
2.442430579
2.449940321
2.497920282
2.559936066
2.568266564
2.560553051
2.5622462
2.553130374
2.501322872
2.414403944
2.326845017
2.286706484
2.263768501
2.265237218
2.26896009
2.267320949
2.261922447
2.258193145
2.25324755
2.245683421
2.237299721
2.231808469
2.225336305
2.217569742
0.6189444383
0.6162742865
0.6170137572
0.6183351893
0.6655704672
1.125864676
1.831002114
2.278517563
2.326475351
2.418927089
2.501798977
2.529769012
2.532364401
2.560939382
2.590099665
2.587491949
2.53949434
2.459913658
2.386582481
2.319892946
2.290383463
2.266598679
2.26236635
2.259753965
2.254599286
2.251278409
2.24369079
2.23563337
2.230848764
2.226070638
2.219970761
0.6455491787
0.6425872963
0.6394698115
0.6353813887
0.6346164792
0.676933269
1.045678851
1.861612713
2.210663052
2.371848209
2.463545157
2.495596835
2.506839303
2.550326639
2.593841711
2.598300881
2.588018955
2.553677488
2.497907447
2.435551134
2.374649235
2.322506745
2.292711223
2.277302494
2.26911554
2.256709952
2.240254313
2.228089026
2.224349274
2.22400819
2.221647528
0.6705966113
0.6677293988
0.6651361485
0.6624988063
0.6574649456
0.6578410477
0.6811601819
1.110056685
1.883540191
2.206037527
2.368701251
2.402438704
2.41788267
2.471215196
2.548698015
2.584488135
2.582627822
2.579244261
2.571248924
2.545499919
2.492464161
2.426721345
2.366299107
2.315799522
2.285307161
2.257472735
2.240547664
2.229214932
2.227568484
2.227841897
2.224595833
0.6957520649
0.6924375319
0.6892128856
0.6857430083
0.6824512578
0.6766420126
0.6757695941
0.7107319362
1.222770087
1.855736397
2.311062353
2.348329992
2.348095055
2.414939776
2.507703217
2.568193687
2.580337042
2.578984804
2.582275293
2.57990152
2.555446006
2.515262872
2.46562477
2.408602394
2.349695646
2.303606855
2.277073091
2.252782415
2.243254053
2.235465361
2.222574469
0.7153970445
0.7123876272
0.7091734713
0.7059963517
0.7032103716
0.7003293156
0.6945941612
0.6949469631
0.7537567994
1.172947522
1.928764807
2.306059977
2.299813846
2.376108528
2.469840537
2.521754017
2.541091599
2.546793344
2.56400997
2.574109737
2.570018655
2.555852082
2.533293976
2.500396826
2.446567148
2.384091404
2.329700197
2.287766221
2.256953612
2.235504491
2.222388871
0.7296285309
0.7277880058
0.7257465797
0.723581757
0.7213146739
0.7188446184
0.7161291512
0.7103214552
0.7104258374
0.7507798795
1.189607965
2.006973431
2.192696647
2.316987408
2.398574554
2.450545577
2.489149054
2.515821542
2.546574633
2.574206282
2.573421977
2.56855893
2.562671091
2.548282568
2.518254612
2.476147899
2.422867284
2.366396215
2.319395907
2.283063278
2.255725225
0.7350479358
0.734339246
0.7335437101
0.7326196893
0.7315160038
0.7301234567
0.7286058344
0.7265851394
0.7221759904
0.7224112598
0.7627574375
1.370380646
2.049701771
2.256097234
2.305543581
2.361705538
2.397346493
2.430375967
2.478004263
2.521905406
2.549761284
2.552608918
2.556343051
2.559148596
2.553463973
2.531159942
2.493914667
2.453309036
2.404156436
2.348309658
2.302656388
0.7365017125
0.736279974
0.7361823894
0.7360278076
0.7357049053
0.7351886592
0.7345244884
0.7338326279
0.7328198634
0.7302320778
0.7305718107
0.8375891293
1.557346633
2.086363284
2.317649392
2.372146348
2.371727946
2.383481997
2.426983617
2.461896166
2.490950232
2.519308857
2.544638267
2.563524764
2.560262685
2.551492901
2.534141782
2.503110727
2.470982508
2.433228435
2.383040419
0.7371070349
0.7371962884
0.7372744547
0.7372146596
0.7370154046
0.7366825754
0.7364051798
0.7362007076
0.7360304669
0.7356551856
0.7344835437
0.7369142169
0.9427163519
1.570518116
2.168649664
2.367634882
2.356619964
2.365224754
2.410317406
2.43591848
2.450810246
2.469893688
2.499979108
2.530981287
2.545354887
2.543070863
2.53333813
2.525995439
2.509764955
2.484885178
2.452685708
0.7380464714
0.7381173081
0.7380683932
0.7379192322
0.7375340695
0.737340687
0.7372282421
0.7372791564
0.7372585491
0.7371697415
0.7368037727
0.7365932249
0.7425875327
0.9366728346
1.680489383
2.263323651
2.268830582
2.316806599
2.353744631
2.37371835
2.398855754
2.423840232
2.45661741
2.487223946
2.509574265
2.52031959
2.526393389
2.528922095
2.526315886
2.514054281
2.486397146
0.7385193219
0.7385456263
0.7384976705
0.7382603049
0.7379547395
0.7379131944
0.7380099127
0.7380698536
0.7380277749
0.7378549454
0.737624284
0.7372226776
0.7372699872
0.7431338948
0.9721192
1.838681434
2.20479698
2.33363751
2.36215089
2.367162412
2.374280193
2.388990181
2.403567579
2.424496708
2.449185772
2.473403697
2.495210437
2.508661359
2.515749901
2.510194578
2.500436112
0.7385360605
0.7385077501
0.7381335103
0.7376343198
0.7377029968
0.7379894222
0.7383529473
0.7383940654
0.7383599254
0.7381745208
0.7379146181
0.7378723625
0.7379486002
0.7380161437
0.746324677
1.105916356
1.88924888
2.270008644
2.373919984
2.376556717
2.376168882
2.368685414
2.378991992
2.399478369
2.417376992
2.433634244
2.451368749
2.473790108
2.490657212
2.500059056
2.499877596
0.7372346727
0.7368786268
0.7367284647
0.7370136959
0.73772632
0.7381592261
0.7383297846
0.7382762784
0.738040606
0.7377257288
0.7377747504
0.738032308
0.7383126724
0.7382902916
0.7382785292
0.7636150155
1.243018159
1.941971117
2.334901202
2.375383913
2.362472182
2.357857922
2.383033865
2.391029369
2.389929591
2.401501897
2.416967629
2.434924507
2.450844614
2.466774147
2.473930098
0.7328521212
0.7338866577
0.7352458792
0.7363192151
0.7371321408
0.7371079721
0.7369034783
0.7367407085
0.7368065451
0.7372510178
0.737823819
0.7381165669
0.7383096165
0.738164379
0.7377218211
0.7379916112
0.7921759127
1.25462062
2.108137402
2.330554966
2.311874014
2.348866044
2.367226272
2.37276717
2.380206257
2.387739369
2.396929411
2.401217763
2.40660707
2.418088495
2.430979775
0.7269950988
0.7285508308
0.7299847684
0.7308106564
0.731335438
0.7320626155
0.733140557
0.7341552509
0.7353384627
0.736424876
0.7372101821
0.7371207962
0.7368247056
0.7365571947
0.7367140699
0.7371285704
0.7380836798
0.791002772
1.400279608
2.166090829
2.304336397
2.342068285
2.372475593
2.381340172
2.38356822
2.383219343
2.380878999
2.375048813
2.376620449
2.384032202
2.393529229
0.723184057
0.7235238318
0.7239046169
0.7245500823
0.7253185129
0.7263990459
0.7277780825
0.7291861868
0.7302586374
0.730837898
0.7316352351
0.7324434059
0.7332886403
0.7344378047
0.7356859021
0.7367620022
0.736514077
0.7370711986
0.8261906719
1.588845316
2.160615356
2.340677538
2.404054148
2.40447174
2.396371327
2.388995898
2.376748042
2.37000797
2.369337741
2.37194177
2.375128949
0.7237579114
0.7232671659
0.7230325236
0.7231489594
0.7232826912
0.7235870699
0.7239952524
0.7243874827
0.7246643457
0.7250999197
0.7259047867
0.7270754568
0.7284928542
0.7296632749
0.7306518021
0.731366771
0.7319783289
0.7324502214
0.7346094629
0.9354453875
1.664405253
2.21443057
2.39681271
2.405561153
2.398327008
2.388091518
2.380884975
2.370750782
2.363312517
2.361049524
2.361821192
0.7248695984
0.7235556211
0.7236544614
0.7241471307
0.7240659769
0.7242720418
0.7242032119
0.7239165369
0.7236589342
0.7235927361
0.7237085172
0.7241046475
0.7245346638
0.724764342
0.7250622409
0.7256865454
0.7266785405
0.7279253971
0.72837194
0.7348334704
0.9927970672
1.743876671
2.327695106
2.351431761
2.369118743
2.377675677
2.368566644
2.358288889
2.357942142
2.36277575
2.360635185
0.7306155173
0.7300827409
0.7296736762
0.7291913481
0.7278088422
0.7259581178
0.7243499785
0.7240338621
0.7242688868
0.7246393575
0.7246984994
0.7248776738
0.7246398131
0.7241846011
0.7240729896
0.7241518723
0.7244029112
0.7247352807
0.7249973418
0.7249946193
0.7357443739
1.003464121
1.942707382
2.281269897
2.376601764
2.383757166
2.378644147
2.365879887
2.362677052
2.362441739
2.356939331
0.7435051915
0.7400232001
0.7362773165
0.733687741
0.7325979987
0.7307805069
0.7295473058
0.729664513
0.729598033
0.7287402815
0.727070265
0.7257653703
0.7248252236
0.7245871299
0.7245530745
0.7247479211
0.7251484902
0.7251710078
0.7248232031
0.7244701098
0.7244883005
0.7359410025
1.18812453
1.996573674
2.29699015
2.391352913
2.395257618
2.379543773
2.376898881
2.372256746
2.361357824
0.7526976309
0.7504592383
0.7462724667
0.7439456675
0.7444280732
0.7438308921
0.7408594276
0.7373096724
0.7350363374
0.7333475633
0.730885762
0.7295988841
0.7300236023
0.7302046602
0.7294620197
0.7279892947
0.7267488169
0.7258677624
0.7251417334
0.724798991
0.725077378
0.7253454604
0.7637061351
1.362374041
1.998898201
2.361356354
2.394810338
2.388613447
2.381011502
2.372473134
2.367401582
0.7673106893
0.7674432257
0.7650862049
0.7596035788
0.755451032
0.7531887813
0.7505987759
0.7457863911
0.744061938
0.7444671205
0.743768289
0.7410762784
0.7381190699
0.7364357673
0.7347864483
0.7318873675
0.7299989853
0.7300642548
0.7302997148
0.7296806186
0.7288531825
0.7275385808
0.7278092032
0.8184954675
1.356599958
2.162182725
2.338988076
2.338596403
2.359568317
2.36781803
2.360316552
0.783729415
0.7800962286
0.7780060426
0.7737308633
0.7669897309
0.7657274829
0.765882866
0.763534404
0.7587294579
0.755704746
0.7539665014
0.7508204627
0.7457532592
0.7436292815
0.7438512169
0.742998566
0.740584314
0.7390001393
0.7375358673
0.7356674426
0.7327664209
0.7307665245
0.7299955361
0.7316108101
0.8130820233
1.481925739
2.24251395
2.343071536
2.353060218
2.348953596
2.354989098
0.7999610287
0.7932509989
0.7930689608
0.7922622712
0.7874461482
0.7814295121
0.7788999574
0.7767639544
0.7718348851
0.7653898675
0.7647001837
0.7643995309
0.7619810389
0.7578765263
0.7558293689
0.7543387966
0.7509858376
0.7464020007
0.7440349005
0.7438967989
0.7423514478
0.7403616539
0.7392338945
0.7377128651
0.7381878819
0.8653167506
1.754397324
2.212104533
2.339520209
2.370506838
2.369354101
0.8220485801
0.8143487373
0.8088299323
0.8067615916
0.8032826751
0.7959354139
0.7904541752
0.7902503759
0.7889370775
0.7838399897
0.7793654753
0.7779148836
0.7756376908
0.7704857745
0.7650810101
0.764098297
0.7633654643
0.7600816661
0.756661679
0.755938983
0.754660871
0.751204689
0.7471383357
0.745037462
0.7424204153
0.7453136942
1.059912275
1.847031116
2.244302308
2.380608012
2.384227365
0.8387248445
0.8327162907
0.8233633726
0.8200393148
0.8193006957
0.8159049485
0.8087561331
0.8052579805
0.8036915054
0.799841114
0.792678887
0.788287895
0.7875962234
0.7856488574
0.7803964415
0.7774091228
0.7767257297
0.7744087727
0.7692748877
0.7646855778
0.7633382206
0.7620577714
0.7581695407
0.7559516596
0.7552733267
0.7532389954
0.7700670751
1.17484266
1.889840086
2.350787873
2.366836536
0.8536273525
0.8516732356
0.8450214362
0.8373266193
0.8352702742
0.8328836372
0.8264705807
0.818248142
0.8156625104
0.8145320155
0.8103850748
0.8037781067
0.8021102755
0.8009373276
0.7968221174
0.7900872437
0.7865738545
0.7856115245
0.7832307061
0.7776963692
0.7757772437
0.7755520966
0.7732965619
0.7682665963
0.7650990912
0.7621895443
0.7622347644
0.7946462119
1.168140016
2.0704547
2.341009808
0.8706468668
0.8689466188
0.8646694522
0.8553274245
0.8481296664
0.8464823631
0.8439389522
0.8367768856
0.8310277434
)
;

boundaryField
{
    inlet
    {
        type            calculated;
        value           nonuniform 0();
    }
    outlet
    {
        type            calculated;
        value           nonuniform 0();
    }
    bottom
    {
        type            calculated;
        value           nonuniform 0();
    }
    top
    {
        type            calculated;
        value           nonuniform 0();
    }
    obstacle
    {
        type            calculated;
        value           nonuniform 0();
    }
    defaultFaces
    {
        type            empty;
    }
    procBoundary28to21
    {
        type            processor;
        value           nonuniform List<scalar> 
19
(
1.408739272
1.390356963
1.380792799
1.379428325
1.376213654
1.370159646
1.396284214
1.396284214
1.382214454
1.373470149
1.370860928
1.377332858
1.376058583
1.372360432
1.35884983
1.367521954
1.367521954
1.361035113
1.359572227
)
;
    }
    procBoundary28to22
    {
        type            processor;
        value           nonuniform List<scalar> 
35
(
2.241056069
2.288462906
2.32608125
2.346846314
2.310767557
2.287799075
2.278445451
2.288087092
2.293501708
2.30102099
2.304339299
2.299817169
2.28430901
2.259706602
2.260254212
2.265319887
2.259574261
2.252299921
2.24482777
2.238720378
2.239800281
2.238183344
2.229850514
2.216098336
1.639073526
2.017172347
2.318724791
2.382337283
2.448856296
2.430720677
2.402991927
2.360690786
2.270764601
2.205824676
2.205824676
)
;
    }
    procBoundary28to23
    {
        type            processor;
        value           uniform 2.202647852;
    }
    procBoundary28to27
    {
        type            processor;
        value           nonuniform List<scalar> 
55
(
1.363732976
1.364875837
1.343020228
1.29509668
1.265092593
1.316041769
1.316041769
1.336850282
1.326105301
1.263261883
1.107399605
1.008212893
0.8849246706
0.6486601768
1.033944123
1.033944123
0.8173820732
0.6297014933
0.5608354653
0.5526879158
0.5519067856
0.553258458
0.5550862455
0.5563705963
0.5666692961
0.5666692961
0.5917956147
0.62085233
0.6477931251
0.6737717852
0.6991788084
0.7182466384
0.7311665036
0.7355919518
0.7368068302
0.7373091644
0.7379630437
0.7381762156
0.7382403954
0.7374059541
0.731815967
0.7256641632
0.7228331195
0.7240516959
0.7266144837
0.7313515218
0.7447479672
0.7551904608
0.7688993411
0.7909272263
0.8072262948
0.8249746753
0.8412084875
0.855357643