/*--------------------------------*- C++ -*----------------------------------*\
  =========                 |
  \\      /  F ield         | OpenFOAM: The Open Source CFD Toolbox
   \\    /   O peration     | Website:  https://openfoam.org
    \\  /    A nd           | Version:  7
     \\/     M anipulation  |
\*---------------------------------------------------------------------------*/
FoamFile
{
    version     2.0;
    format      ascii;
    class       volVectorField;
    location    "0.5";
    object      U;
}
// * * * * * * * * * * * * * * * * * * * * * * * * * * * * * * * * * * * * * //

dimensions      [0 1 -1 0 0 0 0];

internalField   nonuniform List<vector> 
22
(
(2.999693995 -0.0003476454739 0)
(2.99716285 -0.003312119407 0)
(2.987769909 -0.01270065883 0)
(2.973997445 -0.03108257854 0)
(2.998120195 -0.004817262558 0)
(2.991344681 -0.0218339244 0)
(2.9820199 -0.05260569467 0)
(2.985869606 -0.06410878689 0)
(2.976747395 -0.05663309971 0)
(2.97396936 -0.08330707748 0)
(2.978714489 -0.07942976217 0)
(2.968979859 -0.08121723307 0)
(2.971572508 -0.08259032396 0)
(2.982142507 -0.07256514163 0)
(2.963648497 -0.09814808807 0)
(2.972642272 -0.08037097755 0)
(2.995726072 -0.0270297635 0)
(2.972937439 -0.07795329918 0)
(2.996958538 -0.003057341678 0)
(3.011426413 0.03991666074 0)
(2.989908435 -0.007123883788 0)
(3.002111881 0.02927015114 0)
)
;

boundaryField
{
    inlet
    {
        type            fixedValue;
        value           nonuniform 0();
    }
    outlet
    {
        type            inletOutlet;
        inletValue      nonuniform 0();
        value           nonuniform 0();
    }
    bottom
    {
        type            slip;
    }
    top
    {
        type            slip;
    }
    obstacle
    {
        type            slip;
    }
    defaultFaces
    {
        type            empty;
    }
    procBoundary4to3
    {
        type            processor;
        value           nonuniform List<vector> 6((2.999986374 -1.599070787e-05 0) (2.999841628 -0.0003976974826 0) (2.991130219 -0.02160295171 0) (2.991130219 -0.02160295171 0) (2.976354447 -0.05853095532 0) (2.961811002 -0.1013456715 0));
    }
    procBoundary4to5
    {
        type            processor;
        value           nonuniform List<vector> 6((2.97879899 -0.02638479856 0) (2.987849352 -0.04922604405 0) (2.988915423 -0.06589177236 0) (3.003071166 -0.03449241378 0) (3.018931716 0.01778023086 0) (3.037738082 0.09137042344 0));
    }
    procBoundary4to9
    {
        type            processor;
        value           nonuniform List<vector> 2((2.961407072 -0.09723694713 0) (2.965399865 -0.08423898806 0));
    }
    procBoundary4to10
    {
        type            processor;
        value           nonuniform List<vector> 4((3.024083935 0.06559404395 0) (3.011236896 0.1335901631 0) (3.024083935 0.06559404395 0) (3.030611681 0.1200534997 0));
    }
}


// ************************************************************************* //
