/*--------------------------------*- C++ -*----------------------------------*\
  =========                 |
  \\      /  F ield         | OpenFOAM: The Open Source CFD Toolbox
   \\    /   O peration     | Website:  https://openfoam.org
    \\  /    A nd           | Version:  7
     \\/     M anipulation  |
\*---------------------------------------------------------------------------*/
FoamFile
{
    version     2.0;
    format      ascii;
    class       volScalarField;
    location    "2.2";
    object      rho;
}
// * * * * * * * * * * * * * * * * * * * * * * * * * * * * * * * * * * * * * //

dimensions      [1 -3 0 0 0 0 0];

internalField   nonuniform List<scalar> 
555
(
1.40000504
1.40000504
1.40000504
1.40000504
1.40000504
1.40000504
1.40000504
1.40000504
1.40000504
1.40000504
1.40000504
1.40000504
1.400005042
1.400005122
1.4000073
1.400046105
1.40000504
1.40000504
1.40000504
1.40000504
1.40000504
1.40000504
1.40000504
1.40000504
1.40000504
1.40000504
1.40000504
1.400005043
1.400005123
1.40000746
1.400050156
1.400514046
1.40000504
1.40000504
1.40000504
1.40000504
1.40000504
1.40000504
1.40000504
1.40000504
1.40000504
1.40000504
1.400005042
1.400005133
1.400007277
1.400049215
1.400564326
1.404144854
1.40000504
1.40000504
1.40000504
1.40000504
1.40000504
1.40000504
1.40000504
1.40000504
1.40000504
1.400005043
1.400005123
1.400007582
1.400047476
1.400536422
1.40463666
1.422092179
1.40000504
1.40000504
1.40000504
1.40000504
1.40000504
1.40000504
1.40000504
1.40000504
1.400005043
1.400005137
1.400007209
1.400052299
1.400542688
1.404329556
1.423969812
1.481411912
1.40000504
1.40000504
1.40000504
1.40000504
1.40000504
1.40000504
1.40000504
1.400005043
1.400005122
1.40000764
1.4000445
1.400588666
1.404485539
1.422831131
1.483721947
1.589615411
1.40000504
1.40000504
1.40000504
1.40000504
1.40000504
1.40000504
1.400005043
1.400005136
1.400007129
1.400053099
1.400496811
1.404746087
1.423672215
1.482168852
1.585975633
1.706186071
1.40000504
1.40000504
1.40000504
1.40000504
1.40000504
1.400005043
1.400005121
1.400007596
1.400042224
1.400609827
1.404074798
1.425165106
1.482162597
1.588151343
1.692225492
1.766546769
1.40000504
1.40000504
1.40000504
1.40000504
1.400005043
1.40000513
1.400007039
1.400051866
1.400466895
1.404932811
1.422553822
1.48464183
1.588891928
1.707738952
1.740220206
1.766959178
1.40000504
1.40000504
1.40000504
1.400005042
1.400005119
1.400007459
1.400040535
1.40059459
1.403875136
1.426139526
1.481200356
1.585265416
1.701493096
1.775396326
1.777383846
1.776338353
1.40000504
1.40000504
1.400005042
1.400005122
1.400006964
1.400049817
1.400448531
1.404870657
1.421949664
1.486426733
1.593934084
1.695162995
1.743050532
1.778467716
1.786693993
1.783611014
1.40000504
1.400005042
1.400005115
1.400007274
1.400039078
1.400574021
1.4037622
1.426181775
1.480526392
1.587316372
1.706820392
1.778654153
1.777385377
1.781474594
1.78465449
1.776533271
1.400005042
1.400005114
1.400006891
1.400047426
1.40043407
1.404771139
1.421554269
1.487554726
1.596183541
1.689012682
1.752732599
1.790997814
1.790432516
1.786494717
1.776644772
1.75607099
1.400005111
1.400007123
1.400038197
1.400556538
1.403692097
1.425981563
1.480239073
1.589937531
1.711645682
1.778555126
1.780221976
1.787317463
1.788600296
1.77954282
1.757328985
1.726734296
1.400006842
1.400045733
1.400428501
1.404701642
1.421360182
1.48799737
1.597352234
1.688916849
1.762481363
1.795442304
1.793247288
1.789736485
1.780280793
1.759304625
1.727672254
1.693079652
1.400037675
1.400544936
1.403664867
1.42581411
1.480027097
1.591365712
1.716802556
1.778077654
1.784891741
1.791168998
1.791716084
1.782884205
1.760812155
1.729244781
1.69493055
1.657290597
1.400424489
1.404640371
1.421224586
1.487799206
1.597600048
1.689849655
1.769242124
1.797987367
1.795897812
1.792791039
1.784053196
1.762534278
1.731420041
1.695103459
1.658031979
1.6203832
1.403636086
1.42559456
1.479508255
1.591358774
1.719551415
1.779618992
1.788390467
1.794783921
1.795034249
1.786455423
1.764933909
1.73279393
1.697048794
1.659237919
1.61939879
1.588332006
1.42109843
1.487300239
1.597323823
1.690485905
1.772658659
1.800614014
1.798767435
1.796166681
1.7877889
1.767126846
1.734609084
1.698273012
1.660321575
1.62075307
1.586027572
1.555697464
1.479309429
1.59094165
1.721276793
1.78346614
1.792508188
1.798130247
1.798035522
1.789936144
1.769238718
1.736694531
1.700328536
1.661856502
1.621483377
1.584634235
1.552466434
1.518264047
1.598379691
1.691945717
1.774401988
1.804882679
1.80265348
1.799527911
1.791224031
1.770758769
1.739026315
1.701587452
1.661740129
1.622950441
1.582972963
1.550759737
1.5160964
1.477276075
1.722620841
1.789665543
1.798428782
1.803017042
1.801911466
1.793214039
1.772581195
1.741323506
1.702380025
1.66323544
1.621523739
1.584005713
1.548466738
1.511938309
1.475483994
1.438271923
1.771956224
1.80909341
1.808027718
1.804642931
1.795244378
1.774616312
1.742765805
1.704102919
1.663044061
1.621888667
1.583222205
1.545458141
1.50859865
1.469734026
1.435631662
1.40473639
1.803801115
1.807912809
1.807299433
1.79831659
1.777136554
1.744784841
1.706212789
1.663988634
1.621392578
1.581513793
1.542293177
1.504079004
1.46627397
1.430499522
1.39932265
1.368474076
1.811586329
1.8094663
1.80035444
1.779614115
1.746550645
1.708523354
1.664117538
1.621152051
1.579579549
1.539252741
1.500654004
1.460442894
1.426750149
1.39162783
1.360633055
1.331725404
1.811188713
1.803138722
1.781957203
1.749716233
1.709012035
1.666054658
1.619697874
1.577259857
1.538298737
1.493996006
1.456759982
1.419473855
1.385192601
1.351206044
1.320983985
1.295266102
1.8049194
1.784244274
1.751475701
1.710256017
1.666636275
1.618963249
1.575025771
1.53426238
1.490564745
1.448712119
1.414379729
1.37893231
1.341801148
1.31174696
1.286225413
1.257637089
1.78761341
1.75456577
1.712505305
1.666951278
1.619208116
1.571930734
1.529458551
1.485856349
1.44222244
1.406070019
1.372781964
1.332405307
1.299939847
1.276043703
1.248302436
1.221157636
1.757697345
1.715970483
1.667066821
1.618780885
1.570285999
1.522491836
1.482151938
1.435216476
1.397813548
1.363904096
1.32537015
1.289195387
1.262693808
1.238828853
1.206023173
1.18518054
1.719060121
1.668834855
1.619031491
1.567132945
1.519249395
1.472987813
1.430470849
1.387120561
1.351473561
1.31814048
1.277691224
1.249922678
1.227669471
1.19793788
1.171696642
1.154086574
1.671480831
1.617659773
1.566114081
1.51403395
1.464952399
1.42263463
1.378392779
1.339900262
1.307596989
1.271266057
1.2351443
1.210841016
1.185432017
1.156341638
1.138093819
1.123038941
1.617362426
1.563672232
1.509434486
1.456665305
1.412731578
1.368635382
1.327808916
1.292690513
1.260428557
1.223974482
1.194666467
1.175070979
1.144776628
1.119709823
1.102379755
1.080750377
1.561478155
1.503486119
1.449941458
1.401581785
1.359661778
1.316891262
1.277781571
1.246221857
1.209635811
1.177158197
1.156483866
1.13391769
1.107658769
1.088088419
1.070364986
1.044740324
1.500448869
1.441203577
1.38994609
1.346923861
1.300512031
1.262232277
1.230265185
1.199994193
1.167719837
1.140795436
1.117486607
1.087107194
1.063208002
1.047770339
1.025351676
1.003027124
1.433523987
1.377869455
1.334054273
1.287663824
1.246458813
1.213050648
1.182008799
1.148888273
1.120358634
1.101962302
1.074965517
)
;

boundaryField
{
    inlet
    {
        type            calculated;
        value           nonuniform 0();
    }
    outlet
    {
        type            calculated;
        value           nonuniform 0();
    }
    bottom
    {
        type            calculated;
        value           nonuniform List<scalar> 
16
(
1.40000504
1.40000504
1.40000504
1.40000504
1.40000504
1.40000504
1.40000504
1.40000504
1.40000504
1.40000504
1.40000504
1.40000504
1.400005042
1.400005122
1.4000073
1.400046105
)
;
    }
    top
    {
        type            calculated;
        value           nonuniform 0();
    }
    obstacle
    {
        type            calculated;
        value           nonuniform 0();
    }
    defaultFaces
    {
        type            empty;
    }
    procBoundary4to3
    {
        type            processor;
        value           nonuniform List<scalar> 
30
(
1.40000504
1.40000504
1.40000504
1.40000504
1.40000504
1.40000504
1.40000504
1.40000504
1.40000504
1.40000504
1.40000504
1.40000504
1.40000504
1.400005042
1.400005108
1.40000702
1.400044465
1.400536559
1.404596073
1.425361591
1.486357599
1.589834862
1.694470705
1.794004765
1.810610029
1.812252152
1.813589827
1.807681768
1.791265781
1.762095296
)
;
    }
    procBoundary4to5
    {
        type            processor;
        value           nonuniform List<scalar> 
34
(
1.400531748
1.404368281
1.423184129
1.483251305
1.586404257
1.685816552
1.741887236
1.778299657
1.782512091
1.779243894
1.773155968
1.75442085
1.725140524
1.692892007
1.657264164
1.621411129
1.587991559
1.556615793
1.519860514
1.480169118
1.445909543
1.412449309
1.377526219
1.340849559
1.30208572
1.266127357
1.233044907
1.200339608
1.168807452
1.134208448
1.097870451
1.055740091
1.022578813
0.9935240784
)
;
    }
    procBoundary4to9
    {
        type            processor;
        value           nonuniform List<scalar> 5(1.721477009 1.67335501 1.616397823 1.55640212 1.494295372);
    }
    procBoundary4to10
    {
        type            processor;
        value           nonuniform List<scalar> 
17
(
1.050963255
1.033239571
1.013754848
0.9977008884
0.9897971345
1.364668862
1.314863466
1.271624337
1.229915985
1.197259256
1.170256294
1.134380304
1.101854949
1.077612547
1.052860902
1.050963255
1.026843402
)
;
    }
}


// ************************************************************************* //
