/*--------------------------------*- C++ -*----------------------------------*\
  =========                 |
  \\      /  F ield         | OpenFOAM: The Open Source CFD Toolbox
   \\    /   O peration     | Website:  https://openfoam.org
    \\  /    A nd           | Version:  7
     \\/     M anipulation  |
\*---------------------------------------------------------------------------*/
FoamFile
{
    version     2.0;
    format      ascii;
    class       volScalarField;
    location    "3.1";
    object      rho;
}
// * * * * * * * * * * * * * * * * * * * * * * * * * * * * * * * * * * * * * //

dimensions      [1 -3 0 0 0 0 0];

internalField   nonuniform List<scalar> 
22
(
1.037388988
1.329978215
1.050612819
1.277395818
1.052862875
1.251713296
1.049821817
1.216030493
1.35969419
1.039937056
1.17766224
1.347467596
1.029253868
1.136723547
1.322118204
1.020186342
1.097668081
1.284283355
1.011306998
1.06889368
1.244791808
0.9962298828
)
;

boundaryField
{
    inlet
    {
        type            calculated;
        value           nonuniform 0();
    }
    outlet
    {
        type            calculated;
        value           nonuniform 0();
    }
    bottom
    {
        type            calculated;
        value           nonuniform 0();
    }
    top
    {
        type            calculated;
        value           nonuniform 0();
    }
    obstacle
    {
        type            calculated;
        value           nonuniform List<scalar> 9(1.037388988 1.050612819 1.052862875 1.049821817 1.039937056 1.029253868 1.020186342 1.011306998 0.9962298828);
    }
    defaultFaces
    {
        type            empty;
    }
    procBoundary21to15
    {
        type            processor;
        value           nonuniform List<scalar> 2(1.040573723 1.308888938);
    }
    procBoundary21to22
    {
        type            processor;
        value           nonuniform List<scalar> 7(1.349254647 1.352949565 1.356113318 1.356113318 1.35061536 1.354665708 1.359770268);
    }
    procBoundary21to27
    {
        type            processor;
        value           nonuniform List<scalar> 4(1.044676283 1.210928647 1.044676283 1.025535286);
    }
    procBoundary21to28
    {
        type            processor;
        value           nonuniform List<scalar> 2(1.359371773 1.354529844);
    }
}


// ************************************************************************* //
