/*--------------------------------*- C++ -*----------------------------------*\
  =========                 |
  \\      /  F ield         | OpenFOAM: The Open Source CFD Toolbox
   \\    /   O peration     | Website:  https://openfoam.org
    \\  /    A nd           | Version:  7
     \\/     M anipulation  |
\*---------------------------------------------------------------------------*/
FoamFile
{
    version     2.0;
    format      ascii;
    class       volVectorField;
    location    "2.7";
    object      U;
}
// * * * * * * * * * * * * * * * * * * * * * * * * * * * * * * * * * * * * * //

dimensions      [0 1 -1 0 0 0 0];

internalField   nonuniform List<vector> 
138
(
(3 -8.345132995e-13 0)
(3 -1.162223018e-10 0)
(2.999999995 -5.398337776e-09 0)
(2.999999782 -2.451583376e-07 0)
(2.99999471 -5.630398675e-06 0)
(2.999921651 -8.714284694e-05 0)
(2.999232173 -0.0008342251251 0)
(2.994897686 -0.005145733783 0)
(3 -1.208947754e-10 0)
(2.999999996 -9.565187211e-09 0)
(2.999999859 -3.810223252e-07 0)
(2.999996754 -8.344294439e-06 0)
(2.999942306 -0.0001554540066 0)
(2.999494085 -0.001311137738 0)
(2.99664049 -0.009118063847 0)
(2.986538794 -0.03523534033 0)
(2.999999998 -6.04397374e-09 0)
(2.999999858 -3.714795484e-07 0)
(2.999997075 -7.784494877e-06 0)
(2.999944536 -0.0001458845258 0)
(2.999508979 -0.001280558052 0)
(2.996435988 -0.009300128671 0)
(2.986885793 -0.03246730862 0)
(2.964896198 -0.09158519909 0)
(2.999999902 -2.59607091e-07 0)
(2.999997176 -7.168654e-06 0)
(2.999944336 -0.0001506405087 0)
(2.999544095 -0.00118763284 0)
(2.996262116 -0.009525593988 0)
(2.987250672 -0.0337312765 0)
(2.962223374 -0.09175215715 0)
(2.94933802 -0.1367776522 0)
(2.999997702 -6.024600228e-06 0)
(2.999949203 -0.0001309445104 0)
(2.999515488 -0.001262419787 0)
(2.996645474 -0.009045017517 0)
(2.985427042 -0.03537222216 0)
(2.967348891 -0.08880905978 0)
(2.940951567 -0.1573295125 0)
(2.937619087 -0.1676799005 0)
(2.999956873 -0.0001133909694 0)
(2.999558825 -0.001107834808 0)
(2.996104179 -0.01007679373 0)
(2.988308233 -0.03175023862 0)
(2.9607846 -0.0987355581 0)
(2.949440243 -0.135349284 0)
(2.927473674 -0.1961779495 0)
(2.922210112 -0.1968574085 0)
(2.999558232 -0.001139960668 0)
(2.996656406 -0.008689071555 0)
(2.986035036 -0.03423184983 0)
(2.966015933 -0.09213709661 0)
(2.940091997 -0.164601575 0)
(2.930084703 -0.1735132061 0)
(2.925290293 -0.1856280688 0)
(2.921492764 -0.1906253594 0)
(2.99674278 -0.008375645736 0)
(2.988198282 -0.03096326384 0)
(2.957627723 -0.1074515566 0)
(2.946747473 -0.1401413076 0)
(2.926629312 -0.2008183435 0)
(2.91879949 -0.199623338 0)
(2.919563673 -0.1912487021 0)
(2.92360514 -0.182734505 0)
(2.985909277 -0.03660413584 0)
(2.964510231 -0.09114750036 0)
(2.941648482 -0.1531435703 0)
(2.926135751 -0.1784433207 0)
(2.92392541 -0.1922142154 0)
(2.920150429 -0.1968173766 0)
(2.925015217 -0.1844366071 0)
(2.934407162 -0.1610555276 0)
(2.964789608 -0.09043839021 0)
(2.939434833 -0.1585954583 0)
(2.91957573 -0.21489029 0)
(2.913684194 -0.2038442025 0)
(2.917282706 -0.1965095436 0)
(2.923856775 -0.1865735427 0)
(2.936982302 -0.1592419917 0)
(2.955577139 -0.1162424449 0)
(2.93905807 -0.1545094331 0)
(2.921941072 -0.1914855024 0)
(2.919255337 -0.2019932092 0)
(2.917697997 -0.2027974275 0)
(2.922061989 -0.1897447144 0)
(2.935958613 -0.1564482712 0)
(2.952497709 -0.1177873358 0)
(2.974526256 -0.0658848477 0)
(2.924606506 -0.1932411564 0)
(2.914532004 -0.2005918434 0)
(2.915607047 -0.2007467981 0)
(2.922859952 -0.1899661652 0)
(2.938508112 -0.1543232924 0)
(2.955452227 -0.1121293037 0)
(2.975174223 -0.0590342485 0)
(2.994772144 -0.009959551895 0)
(2.911644679 -0.2164685997 0)
(2.913377674 -0.208921487 0)
(2.920028168 -0.1914904191 0)
(2.935863239 -0.1572992891 0)
(2.954900071 -0.1115573629 0)
(2.981187054 -0.04641888905 0)
(2.992887624 -0.0144180267 0)
(3.016163744 0.05737760858 0)
(2.911557133 -0.2115100291 0)
(2.921894418 -0.1929640777 0)
(2.937293731 -0.1560367163 0)
(2.962752747 -0.09277229026 0)
(2.978111441 -0.05557920041 0)
(3.003633526 0.01641790079 0)
(3.018557919 0.05896615887 0)
(3.034356428 0.1190345201 0)
(2.918984444 -0.1962389822 0)
(2.940753637 -0.1478046244 0)
(2.960515595 -0.1013785688 0)
(2.986232052 -0.03378672947 0)
(3.0068595 0.02140287881 0)
(3.020371133 0.06843135656 0)
(3.033506631 0.1112425504 0)
(3.044207612 0.1586517677 0)
(2.942337144 -0.1486191169 0)
(2.964793901 -0.0919350843 0)
(2.991693626 -0.01941354053 0)
(3.013633238 0.03799514727 0)
(3.024159532 0.09732425584 0)
(3.04519685 0.1779468875 0)
(3.053117084 0.1953844135 0)
(3.066036723 0.2426588629 0)
(2.970229062 -0.08334263804 0)
(2.998471048 -0.007314175626 0)
(3.013832613 0.04201608213 0)
(3.036050718 0.1222561383 0)
(3.031328907 0.1260860046 0)
(3.057323003 0.2001795246 0)
(3.064738396 0.2272331181 0)
(3.066077168 0.2333915194 0)
(2.999673906 0.006336843539 0)
(3.027383959 0.08795681404 0)
)
;

boundaryField
{
    inlet
    {
        type            fixedValue;
        value           nonuniform 0();
    }
    outlet
    {
        type            inletOutlet;
        inletValue      nonuniform 0();
        value           nonuniform 0();
    }
    bottom
    {
        type            slip;
    }
    top
    {
        type            slip;
    }
    obstacle
    {
        type            slip;
    }
    defaultFaces
    {
        type            empty;
    }
    procBoundary4to3
    {
        type            processor;
        value           nonuniform List<vector> 
15
(
(3 -6.843127508e-15 0)
(3 -1.374364288e-12 0)
(3 -1.218090321e-10 0)
(2.999999997 -6.807922547e-09 0)
(2.999999895 -2.708493557e-07 0)
(2.999997474 -6.407685243e-06 0)
(2.999957893 -0.0001057886568 0)
(2.999534791 -0.001156803794 0)
(2.996755983 -0.007714857946 0)
(2.984742424 -0.03608115006 0)
(2.960915777 -0.09894766134 0)
(2.931298655 -0.1827522712 0)
(2.915083705 -0.2104136401 0)
(2.911041246 -0.2111952369 0)
(2.909657835 -0.2148783472 0)
)
;
    }
    procBoundary4to5
    {
        type            processor;
        value           nonuniform List<vector> 
17
(
(2.97913044 -0.02164697973 0)
(2.97036389 -0.07716036358 0)
(2.944899122 -0.1468635363 0)
(2.933396633 -0.1824945438 0)
(2.926047244 -0.1832255607 0)
(2.920949694 -0.1882403697 0)
(2.925184548 -0.1802312376 0)
(2.934142814 -0.1598149144 0)
(2.951979127 -0.1173660901 0)
(2.969141589 -0.07848006056 0)
(2.989122007 -0.02610425415 0)
(3.006014053 0.02775279592 0)
(3.020343067 0.06945894766 0)
(3.047267539 0.1708821874 0)
(3.048192502 0.177009866 0)
(3.068447313 0.2441676697 0)
(3.068200322 0.2369268599 0)
)
;
    }
    procBoundary4to9
    {
        type            processor;
        value           nonuniform List<vector> 3((2.920794472 -0.199396527 0) (2.945846705 -0.1460107604 0) (2.973395212 -0.06944755849 0));
    }
    procBoundary4to10
    {
        type            processor;
        value           nonuniform List<vector> 9((3.040941371 0.1458395387 0) (3.057813342 0.2259951205 0) (3.074330255 0.2549498639 0) (3.07612417 0.2490920097 0) (3.074838135 0.2472631814 0) (3.068738075 0.2363439996 0) (3.022688733 0.08190344472 0) (3.040941371 0.1458395387 0) (3.043732375 0.1649837723 0));
    }
}


// ************************************************************************* //
