/*--------------------------------*- C++ -*----------------------------------*\
  =========                 |
  \\      /  F ield         | OpenFOAM: The Open Source CFD Toolbox
   \\    /   O peration     | Website:  https://openfoam.org
    \\  /    A nd           | Version:  7
     \\/     M anipulation  |
\*---------------------------------------------------------------------------*/
FoamFile
{
    version     2.0;
    format      ascii;
    class       volScalarField;
    location    "1.5";
    object      rho;
}
// * * * * * * * * * * * * * * * * * * * * * * * * * * * * * * * * * * * * * //

dimensions      [1 -3 0 0 0 0 0];

internalField   nonuniform List<scalar> 
2222
(
1.37784011
1.379163683
1.378872729
1.378579664
1.379049173
1.379331562
1.379913541
1.379948048
1.379846552
1.378932502
1.378088526
1.378143692
1.379083337
1.380710992
1.382984679
1.383827859
1.383906902
1.382121665
1.380846954
1.378945841
1.378072223
1.377432425
1.377779709
1.376836443
1.376754462
1.376805186
1.37755081
1.380872536
1.377074565
1.379602734
1.380115064
1.379584829
1.378896767
1.378534138
1.378283202
1.378074631
1.378008591
1.377913297
1.378341325
1.378716328
1.378578561
1.378927765
1.37892139
1.378754942
1.379775187
1.381869793
1.383763523
1.384464609
1.384380432
1.383648285
1.382864698
1.381137699
1.378295779
1.378909843
1.378358849
1.377384306
1.376381498
1.375906565
1.37541397
1.376851965
1.380478693
1.38313229
1.37650454
1.378196348
1.378694371
1.378277215
1.377851545
1.377562967
1.377354673
1.377367289
1.377547124
1.37781866
1.377955294
1.378197271
1.377988134
1.37829196
1.378868348
1.380585325
1.382894202
1.38406374
1.38445812
1.384285878
1.383743247
1.383174436
1.381343844
1.380659265
1.378425135
1.377354649
1.376897473
1.37636918
1.37533763
1.37599764
1.376564653
1.379498706
1.38281073
1.383099095
1.375950169
1.377518367
1.378494723
1.378410547
1.377895752
1.37800397
1.378095143
1.378150315
1.378193266
1.378081262
1.377902278
1.377862938
1.378332284
1.378593501
1.380140442
1.382458917
1.383311461
1.383601808
1.383733509
1.383407804
1.382609224
1.381962231
1.380430039
1.378363336
1.377448479
1.375931227
1.375460331
1.375632159
1.375952439
1.376106217
1.378773645
1.382342065
1.382883428
1.382130645
1.375850293
1.377702773
1.379083983
1.379653362
1.37968037
1.379877893
1.379922756
1.37991679
1.379743745
1.379388003
1.378894327
1.37844766
1.378558435
1.379447474
1.381513825
1.382663112
1.382521053
1.382619923
1.382471256
1.382061099
1.381114603
1.379157803
1.378014493
1.376640858
1.376546466
1.377055912
1.37712274
1.377049786
1.377146493
1.378733753
1.381661951
1.382481366
1.381869832
1.380967519
1.376599974
1.378286718
1.380552391
1.381815245
1.381960258
1.381656951
1.38121174
1.381079549
1.3811764
1.380897501
1.37965095
1.379387102
1.380019269
1.380874158
1.381718206
1.382122808
1.381783049
1.38144281
1.381032751
1.380435298
1.378976578
1.377460992
1.376672558
1.377740963
1.379076861
1.380258478
1.380396904
1.380198559
1.380818224
1.381940764
1.382425842
1.381688028
1.380463451
1.378701801
1.376785657
1.378142761
1.381164149
1.382261341
1.382101972
1.38192109
1.381331838
1.381040591
1.38149161
1.38146139
1.38042724
1.380160241
1.380877837
1.381277213
1.381219467
1.380943398
1.380534913
1.379690869
1.379044294
1.378727921
1.378012124
1.377903991
1.378337065
1.380711173
1.382943452
1.383227831
1.383077898
1.382450915
1.382414207
1.38247947
1.381937743
1.380713409
1.379144057
1.377930436
1.377826002
1.380967012
1.381678844
1.381505547
1.381325693
1.3809328
1.38071483
1.380760781
1.380822619
1.38095569
1.380349537
1.380167226
1.38036483
1.380331306
1.379248306
1.378865104
1.378478241
1.37825185
1.377844403
1.378007586
1.37925714
1.381877515
1.383860826
1.384114859
1.383402773
1.383072819
1.382612619
1.381922055
1.381769017
1.380859159
1.379620776
1.378278317
1.377625245
1.378136242
1.380519791
1.38063996
1.380434877
1.380156943
1.379903765
1.379737104
1.379598211
1.37986257
1.380335891
1.380028786
1.379249272
1.379064531
1.378976604
1.378800945
1.378256119
1.378347955
1.378352603
1.378947314
1.380343113
1.382269767
1.38373419
1.384268231
1.383983718
1.383046056
1.382162976
1.381622213
1.381222655
1.380851229
1.37953973
1.378365236
1.377981369
1.378472612
1.380317604
1.378554828
1.380301543
1.37997821
1.379365041
1.378840453
1.378654931
1.378561317
1.37938184
1.37960808
1.379322611
1.379404299
1.379129948
1.378819787
1.378561762
1.378920662
1.379241245
1.379806715
1.380766654
1.381770648
1.383081703
1.383366847
1.383448873
1.383429259
1.38288177
1.381945169
1.381059541
1.380374569
1.380275182
1.379719518
1.378273939
1.377704644
1.378126948
1.379578752
1.380789068
1.378309234
1.380089694
1.379413907
1.378111858
1.377557432
1.377383885
1.377498653
1.37835046
1.378746369
1.378702592
1.378815317
1.378667188
1.378705322
1.378922136
1.379744872
1.381152388
1.382319245
1.383438049
1.383335037
1.383225656
1.383413481
1.382800259
1.382205422
1.381318284
1.379936888
1.379786351
1.379278038
1.378296707
1.377773515
1.377965098
1.378010228
1.378498733
1.379933378
1.380063294
1.377647565
1.379547929
1.379127957
1.377681738
1.37708318
1.376843241
1.377067664
1.37769783
1.378219337
1.378673411
1.378613651
1.378731078
1.379193064
1.379953068
1.381114501
1.382416528
1.382889631
1.383337297
1.38363787
1.383094272
1.382694171
1.381998409
1.380781728
1.379535311
1.378007962
1.377690361
1.377416313
1.376255013
1.376579741
1.376812032
1.377332295
1.378532381
1.379578264
1.379526988
1.376512725
1.378633413
1.378562281
1.377375597
1.376967316
1.377138373
1.377843544
1.378740901
1.37917576
1.379427493
1.379539777
1.379589682
1.379783933
1.380387531
1.381321085
1.382284854
1.382696064
1.382840748
1.383045964
1.382643163
1.38151956
1.38034045
1.379043251
1.378046375
1.378150261
1.376947956
1.376330587
1.376499436
1.376284051
1.375882424
1.376586202
1.378444911
1.379272141
1.379542529
1.375909259
1.37800175
1.378765716
1.37848956
1.378595023
1.379009353
1.379541151
1.380225351
1.380579094
1.380635631
1.380519245
1.379951089
1.379898446
1.380115565
1.380806588
1.381631929
1.38218287
1.382185156
1.381970175
1.381628019
1.38109373
1.379916005
1.379014461
1.378152749
1.377642431
1.376433399
1.375849972
1.376464252
1.376299372
1.376616857
1.378222925
1.379925236
1.380223014
1.37997231
1.376188522
1.378396189
1.38034512
1.380648504
1.380365657
1.380081257
1.380118319
1.380676435
1.380941433
1.380915939
1.380482434
1.37940663
1.379436839
1.379499581
1.379829333
1.380722248
1.381201357
1.38129197
1.381119098
1.381033094
1.380933339
1.380011151
1.378758509
1.378031007
1.377422342
1.376995405
1.377072324
1.376621926
1.376724
1.378451128
1.380701797
1.381380029
1.381421443
1.381067965
1.379852507
1.381742148
1.381426466
1.380454221
1.379920087
1.379811856
1.380388688
1.380627512
1.380464129
1.37981636
1.378693872
1.378666569
1.378878102
1.379319876
1.380312836
1.380637716
1.380890924
1.381365637
1.381522462
1.381241136
1.380637075
1.380176135
1.379818785
1.379440051
1.379421647
1.379583124
1.379935004
1.380294139
1.381784831
1.382240426
1.381952909
1.381727262
1.38162445
1.38064836
1.381780664
1.381140738
1.380146193
1.379441166
1.379288743
1.37978915
1.380057049
1.379968381
1.378924768
1.377876055
1.378011961
1.378593005
1.37968807
1.380718673
1.38128473
1.381687438
1.382275009
1.382389048
1.382013531
1.382029512
1.382239593
1.382885622
1.382761911
1.382913481
1.382809078
1.382947079
1.382668896
1.38267149
1.382441774
1.381899682
1.381426354
1.381314857
1.380167018
1.381314877
1.380542098
1.379273554
1.378478408
1.378571139
1.378807747
1.37912388
1.378974559
1.378760087
1.377989882
1.378035377
1.379058979
1.380430838
1.381320926
1.382175351
1.382587671
1.382641229
1.382337081
1.382149624
1.382437008
1.382912696
1.383707034
1.383732589
1.38350142
1.383355876
1.383095536
1.382640496
1.382251509
1.381891546
1.381270793
1.38089045
1.380602897
1.379501396
1.380349291
1.379722162
1.378827181
1.378077889
1.377320839
1.377642809
1.378193976
1.378686391
1.378632769
1.378537466
1.379000439
1.379680712
1.380382293
1.381015475
1.381974908
1.382286569
1.382160864
1.38174852
1.381662456
1.382032529
1.382469265
1.383281138
1.383454492
1.383164513
1.38316403
1.382657666
1.382167174
1.381632541
1.381031191
1.380106371
1.380027144
1.379642863
1.378384807
1.379902891
1.3793943
1.378656833
1.377764626
1.376820622
1.377291387
1.377762852
1.378271062
1.378998457
1.379725401
1.379832225
1.379733599
1.37992065
1.380476526
1.381455604
1.381757175
1.381548081
1.38098535
1.380984016
1.381530518
1.382077016
1.382514318
1.382852068
1.382625632
1.382603851
1.382135076
1.3816269
1.380995435
1.380110271
1.379017986
1.378558852
1.378369681
1.377944879
1.380072212
1.379891264
1.379057524
1.377762876
1.376836422
1.376820172
1.377783584
1.379154433
1.380341433
1.38031716
1.379616084
1.379470779
1.379079587
1.379697999
1.38082395
1.381080817
1.380902927
1.38066055
1.380554154
1.381291867
1.3815087
1.381691314
1.381849301
1.381743901
1.381548415
1.381176953
1.380552264
1.379477382
1.378691245
1.378285189
1.377617283
1.378065154
1.37826201
1.380946514
1.380791569
1.379534819
1.378121977
1.377383414
1.377692564
1.379041473
1.380473343
1.380864022
1.380023209
1.379165544
1.378989794
1.378885729
1.379708418
1.380815148
1.381000259
1.380992993
1.380724592
1.380514301
1.381091184
1.380882503
1.380599817
1.380205479
1.379583959
1.379474126
1.378855789
1.378111693
1.377380253
1.377346127
1.377529752
1.377689045
1.377878592
1.379071701
1.381458054
1.381148212
1.379999057
1.379047417
1.378830363
1.379304277
1.380361343
1.380775274
1.380581492
1.379440478
1.378557783
1.378729708
1.379197058
1.380338259
1.381504416
1.381558281
1.381461263
1.38113544
1.380609015
1.380840815
1.379873241
1.378905802
1.378599584
1.378181937
1.378185619
1.377868839
1.377474686
1.377000155
1.377065614
1.377184299
1.377609714
1.379012307
1.381174019
1.380769288
1.3804332
1.380228456
1.379862515
1.379931401
1.380432777
1.380452888
1.38003821
1.378675966
1.378265474
1.378919464
1.380238144
1.381510313
1.382061661
1.382093668
1.381679371
1.381396273
1.380853703
1.379760805
1.379149534
1.378676074
1.378562652
1.378381241
1.377942946
1.378319198
1.378134393
1.377483547
1.377582018
1.377948229
1.379192024
1.380788051
1.380546225
1.380452092
1.380940117
1.381105326
1.380361443
1.379933048
1.380184545
1.380154767
1.379264607
1.378444082
1.378729789
1.379988725
1.38110144
1.381672139
1.381986801
1.382077708
1.381711783
1.381246876
1.380643425
1.379655832
1.378819605
1.378440996
1.378285693
1.378416852
1.37893482
1.379016157
1.379268234
1.378657552
1.379108944
1.380090076
1.381074285
1.38109279
1.380495651
1.379849752
1.380539335
1.381106927
1.381026934
1.380341758
1.379874969
1.379771647
1.37934314
1.379333523
1.379122962
1.380061725
1.380715925
1.381015278
1.381600171
1.381778667
1.381839132
1.381428797
1.381014599
1.380219091
1.379496824
1.378980013
1.379376346
1.38010095
1.381072962
1.381552761
1.381813935
1.381892916
1.380838391
1.380935565
1.381227964
1.381288058
1.380848354
1.379977415
1.379581054
1.380648365
1.380786566
1.380729013
1.380024056
1.37918946
1.379213241
1.379522272
1.379827483
1.380600777
1.380594105
1.380639249
1.380635686
1.381087572
1.381043688
1.380809712
1.380783811
1.380612289
1.380381809
1.379408647
1.38040017
1.382038136
1.383418865
1.383958661
1.383512599
1.383300209
1.382863262
1.381579179
1.381206782
1.381164349
1.381046691
1.380223564
1.379904887
1.380151841
1.380718831
1.380321333
1.379969033
1.379059343
1.378152965
1.378742045
1.379682106
1.381147046
1.381202114
1.380565482
1.380368529
1.380007445
1.379211216
1.378955999
1.379274906
1.380053238
1.380471349
1.380566109
1.381526001
1.383623564
1.384100268
1.384551846
1.384285555
1.383688953
1.383517994
1.383060477
1.381867733
1.381580197
1.381242958
1.380546835
1.379918252
1.380014987
1.380569588
1.380637635
1.379845032
1.379081464
1.378171504
1.377833898
1.378635624
1.380706614
1.381674003
1.381280052
1.380426693
1.378943507
1.378029371
1.377140181
1.377262073
1.37822669
1.37955661
1.3813646
1.382881067
1.383920269
1.383808805
1.38422243
1.384281997
1.383967373
1.384054793
1.383120956
1.382456227
1.381549281
1.380836594
1.380312621
1.379971305
1.380109505
1.380451914
1.380394437
1.380388905
1.379805458
1.37881988
1.377959816
1.37781865
1.379672228
1.381449057
1.381821655
1.381122793
1.379078683
1.377356803
1.376823817
1.377139463
1.377654825
1.378476789
1.380041793
1.381732313
1.383386988
1.383472485
1.383686447
1.38452507
1.384100772
1.383860238
1.383137312
1.382350594
1.381409387
1.380529493
1.379788973
1.379507549
1.379752352
1.380496714
1.381361959
1.379780498
1.379980312
1.379707275
1.379187023
1.378585784
1.379005697
1.379926373
1.381057512
1.381377007
1.380123189
1.377684346
1.377238052
1.377303145
1.377746058
1.378625177
1.379413897
1.381454141
1.38323557
1.383693191
1.383446498
1.383667061
1.383278725
1.382884944
1.381907102
1.381050178
1.380092538
1.379438145
1.379523958
1.379452051
1.379728504
1.380046524
1.380747416
1.381790007
1.379376378
1.379723011
1.379945864
1.379620494
1.379391505
1.380025917
1.380588899
1.38037065
1.378669704
1.377647895
1.377660972
1.378274999
1.378491948
1.379521681
1.380867327
1.382373143
1.384202355
1.383588301
1.384024776
1.382995098
1.381430204
1.37993182
1.378779735
1.378594353
1.378594755
1.378881105
1.379487621
1.379831547
1.38026992
1.380678078
1.381114649
1.381396386
1.378988619
1.379631893
1.380152473
1.380002778
1.379615005
1.379739501
1.379663311
1.378999757
1.378083837
1.378126692
1.378410374
1.378970183
1.379973586
1.380724075
1.381950899
1.382707791
1.383177706
1.383343524
1.382328152
1.380479846
1.378494833
1.377696019
1.377590973
1.378075301
1.378611717
1.379452145
1.380092444
1.380306542
1.380889079
1.381233796
1.381296235
1.380693231
1.378922658
1.37973036
1.380100393
1.380006851
1.379410815
1.378889949
1.37852355
1.378360958
1.378452826
1.378864551
1.379912869
1.380382034
1.381011073
1.381382117
1.381903977
1.382215237
1.381958712
1.381260546
1.379878105
1.378386626
1.377888954
1.377934496
1.378182221
1.378609759
1.379264436
1.380219526
1.381108447
1.381391093
1.381179518
1.381108564
1.38047629
1.379086112
1.378768001
1.379636061
1.379852487
1.379620265
1.378624751
1.377908324
1.378038404
1.378452256
1.379282533
1.379949757
1.380841217
1.381159669
1.380897247
1.380876956
1.38082901
1.380626899
1.38017999
1.379473452
1.378878654
1.378442161
1.37850005
1.379011849
1.379390122
1.379751838
1.380368214
1.381237032
1.381872976
1.381930669
1.381465301
1.38064556
1.379374278
1.378663691
1.378460794
1.37909776
1.379237671
1.378903773
1.377951492
1.377476252
1.37789693
1.379016411
1.380118678
1.380502721
1.38057035
1.38030959
1.379704568
1.379129989
1.378935721
1.37908621
1.379282285
1.379328873
1.379381264
1.379463566
1.379676832
1.380291251
1.381019231
1.381732269
1.38238667
1.382282363
1.382091173
1.38164214
1.380714363
1.379899703
1.379408446
1.379060623
1.377702158
1.378262013
1.378520383
1.378352998
1.377645877
1.377774592
1.378926312
1.380239076
1.380822301
1.380363692
1.379200815
1.378025764
1.377627876
1.377746232
1.37843731
1.378982371
1.379459874
1.380013775
1.38022432
1.380538074
1.381194511
1.382053081
1.383149577
1.383713221
1.38346654
1.382824545
1.381959093
1.380735226
1.379887272
1.379781557
1.379921545
1.37989409
1.376496943
1.377280811
1.377692765
1.377992782
1.378367738
1.379081465
1.380367992
1.381015767
1.380957945
1.379191482
1.376798627
1.376643212
1.377182607
1.377809125
1.378637185
1.379397318
1.380032374
1.380693212
1.381068695
1.38185641
1.383247212
1.384436561
1.384725618
1.384286278
1.383610623
1.382342596
1.380674602
1.37997518
1.380014994
1.380138639
1.380261048
1.380882359
1.37636406
1.377670255
1.378321785
1.378795631
1.379442849
1.3801148
1.380958197
1.380905759
1.379658573
1.377434879
1.376728591
1.376788055
1.377282659
1.377932134
1.378808491
1.380134636
1.380967675
1.381654399
1.382579536
1.383784801
1.384813325
1.38506115
1.384959572
1.3844751
1.38303634
1.380457036
1.379831175
1.38008412
1.380420787
1.380897559
1.381834885
1.383097388
1.37662448
1.378139966
1.37898276
1.379543281
1.379665127
1.379878408
1.380100811
1.379543462
1.378993768
1.378054936
1.377788258
1.37801201
1.378489145
1.379060569
1.379752639
1.381386882
1.382065954
1.382790858
1.383563971
1.38415808
1.38453234
1.384328045
1.383650958
1.382372482
1.380413293
1.379534272
1.379915935
1.380704187
1.381592026
1.382603868
1.383455777
1.383797506
1.37858192
1.379548898
1.380426483
1.380547032
1.380669901
1.380920781
1.380968811
1.38099971
1.380440581
1.380055372
1.380023285
1.37997415
1.379835406
1.379887278
1.380023472
1.380100343
1.380320512
1.380597457
1.38082718
1.381080979
1.381253709
1.381351382
1.381352692
1.38132407
1.381323382
1.381528234
1.381706518
1.381750466
1.381817458
1.381925317
1.381910371
1.378736786
1.380229966
1.381776529
1.382652286
1.383682326
1.383963626
1.383738943
1.382930349
1.381878101
1.381274001
1.381198909
1.381044116
1.380529076
1.380311735
1.380448497
1.380638055
1.38089482
1.381351033
1.381854791
1.382397608
1.382732975
1.382841807
1.382821822
1.382740489
1.382659911
1.38263167
1.382720003
1.382804145
1.382856106
1.38287687
1.382782735
1.381432451
1.383184258
1.384286603
1.384710935
1.385729395
1.385781953
1.38597856
1.38562976
1.384773016
1.383755333
1.38291158
1.382095514
1.381139908
1.381135557
1.381313319
1.38180952
1.382522899
1.38311269
1.383530506
1.384051513
1.384486028
1.384537994
1.384469696
1.384283912
1.384037456
1.383968368
1.384042278
1.384072634
1.384019671
1.383930796
1.383747595
1.382162044
1.383631074
1.38380136
1.384230511
1.383600892
1.384915053
1.386798421
1.387335815
1.387233208
1.386537311
1.385504428
1.384320191
1.383274215
1.382712701
1.382697189
1.382962795
1.383163502
1.383204297
1.38353573
1.384382044
1.385272008
1.385566634
1.385648341
1.385602094
1.38542046
1.385263014
1.385238979
1.385201871
1.385142115
1.385039049
1.384888578
1.377461908
1.375227265
1.380943382
1.381385706
1.381104571
1.383187434
1.386592426
1.387562554
1.387377304
1.386650294
1.386016714
1.385492668
1.385193117
1.385063322
1.384830463
1.384358956
1.383808167
1.38342541
1.383500264
1.384074147
1.384968854
1.385742701
1.385883427
1.385837806
1.385655765
1.38555864
1.385586958
1.385584975
1.385562865
1.385535133
1.385496736
1.325621599
1.352238855
1.382637464
1.379740324
1.379352994
1.382667299
1.387506275
1.387460107
1.38700012
1.386650127
1.386456461
1.386626872
1.386535119
1.386443572
1.386051538
1.38536181
1.384308517
1.383169673
1.383101086
1.383457848
1.384257222
1.385138509
1.385636607
1.385732145
1.385669667
1.385516226
1.38565451
1.385900693
1.385965259
1.38597664
1.38593178
1.200003569
1.309647546
1.367538838
1.367758257
1.377592256
1.386406988
1.386747446
1.38488643
1.385910101
1.386506563
1.387198681
1.387192304
1.386682005
1.385699975
1.385310275
1.385305336
1.384839762
1.383928568
1.383746962
1.383942673
1.384505309
1.385030917
1.385393293
1.38548306
1.385462925
1.385544224
1.385937906
1.38647215
1.386569157
1.386542172
1.386391545
1.0076603
1.117890702
1.241264544
1.301839807
1.363545535
1.376110882
1.372253791
1.378000714
1.383557716
1.386968699
1.387315589
1.386507178
1.383989912
1.382969384
1.383901067
1.385415373
1.385526241
1.385335527
1.385202747
1.385316693
1.385581792
1.385719124
1.385746691
1.385691514
1.38567738
1.385816871
1.386282661
1.386803794
1.386980521
1.386949704
1.386810189
0.9148315152
0.9547076168
1.047077499
1.187466929
1.305999559
1.332282911
1.351775975
1.383258017
1.387300265
1.386178667
1.384906833
1.383351204
1.38218264
1.38249862
1.38424715
1.386286901
1.387066463
1.386572717
1.386099698
1.386010119
1.385973326
1.386046241
1.386118414
1.38604696
1.386031463
1.386140299
1.386513457
1.386869409
1.387012229
1.387010226
1.386945319
0.9052357065
0.9083033176
0.9248759823
0.9920189284
1.099252323
1.228903384
1.318273342
1.375218459
1.37651731
1.375222176
1.380252018
1.380945394
1.38263092
1.385798536
1.388418563
1.389248621
1.388575812
1.387213788
1.384990836
1.38448598
1.385024065
1.385953783
1.386286037
1.386401621
1.386310411
1.386191486
1.386329926
1.386467646
1.386583085
1.386646312
1.38672995
0.9045248152
0.9043898013
0.9049723188
0.9126121737
0.9435752429
1.029472265
1.145205509
1.271905088
1.311612579
1.354304387
1.386645358
1.383049405
1.383855773
1.388192803
1.390371658
1.390224264
1.388906682
1.385526812
1.383608651
1.383732671
1.38482922
1.386011486
1.386259022
1.386314588
1.386135396
1.385775155
1.385827218
1.385913045
1.386061142
1.386131167
1.386325302
0.9051137135
0.9046089256
0.9049827909
0.9057820498
0.907847413
0.9209641477
0.9726151467
1.071252022
1.205964675
1.322402208
1.370595736
1.36935057
1.37735623
1.386009282
1.3864948
1.386731784
1.386475461
1.384304358
1.384535969
1.385696038
1.3870231
1.387016237
1.386510077
1.386152705
1.385756971
1.385373051
1.385520953
1.385763557
1.38594828
1.386081909
1.386048704
0.9127561962
0.9093901205
0.9086631857
0.9090485257
0.9086415295
0.9084238307
0.912647241
0.9355185976
1.015020934
1.129617253
1.248368854
1.305741578
1.356324143
1.366774153
1.372374571
1.381595136
1.384188074
1.385076404
1.386323094
1.388129077
1.388411976
1.3878437
1.386821506
1.386214374
1.385968134
1.386126512
1.386310568
1.38634761
1.386274467
1.386023439
1.385759302
0.9212245678
0.9160448111
0.9132910287
0.912976421
0.911079349
0.9092121821
0.9093759455
0.9103284548
0.9208543739
0.961762517
1.059819604
1.198645936
1.318862357
1.338580706
1.362187249
1.387259056
1.385367803
1.384261288
1.385370468
1.387278506
1.38819985
1.388153476
1.387513978
1.386854047
1.386486431
1.386292105
1.386023444
1.385802863
1.385670204
1.385435143
1.385274213
0.9264774538
0.919513879
0.9141697093
0.9140294588
0.9117791388
0.9084422068
0.9088614587
0.909324516
0.9093554561
0.9124959504
0.9317147919
0.9993072264
1.111608527
1.236137603
1.329871151
1.376546038
1.370736533
1.373793017
1.376889016
1.378716306
1.38371303
1.387084949
1.388165589
1.387946357
1.387165694
1.385692274
1.384174984
1.383535033
1.383747513
1.384253269
1.384840748
0.946949876
0.9369330598
0.9260062813
0.922575375
0.9174807883
0.9113678871
0.9115649762
0.910714826
0.9095150289
0.9099435193
0.911193054
0.9188428472
0.9511693053
1.043439171
1.15657047
1.275604698
1.317844436
1.359085299
1.365493504
1.371518699
1.382392677
1.387728243
1.388498025
1.38772816
1.386063607
1.384649161
1.38315073
1.383075423
1.383556715
1.384313461
1.3848837
0.970744928
0.9610374553
0.9490652493
0.9427996167
0.9363347765
0.9266100747
0.9245182648
0.9218804841
0.9150978515
0.913983913
0.9133692275
0.9123687049
0.913913764
0.9288131282
0.9816567707
1.085816119
1.226740475
1.334344553
1.354522681
1.371832401
1.390468485
1.389475443
1.386010451
1.384272019
1.384733216
1.385268493
1.38530932
1.385622261
1.385886754
1.385743793
1.385220082
0.9888650779
0.9776967319
0.963381754
0.9554716553
0.9493131358
0.9394675493
0.9346272336
0.9317909369
0.9250250172
0.9216203705
0.9198689943
0.9157368289
0.9147116829
0.915400356
0.9202533469
0.9444265926
1.023250742
1.145520349
1.255049522
1.335011439
1.382754955
1.376815345
1.376672371
1.380883001
1.384611861
1.387727753
1.389313031
1.389210608
1.388467982
1.387115399
1.385070437
1.020791158
1.008322631
0.9926367262
0.9799777462
0.9700287982
0.9570998511
0.9468448947
0.9410912553
0.9329390991
0.9259777093
0.9242955489
0.9191821134
0.9144406409
0.9152831645
0.9154432916
0.9157391257
0.9264427357
0.9692661757
1.076292124
1.18493709
1.29436171
1.326779973
1.367734028
1.384715486
1.384588467
1.386661332
1.389452615
1.389225533
1.388624375
1.386312298
1.384582052
1.047164866
1.033807486
1.017575289
1.005429578
0.9967846248
0.9853401705
0.9739278261
0.9654326611
0.9557242683
0.9450748044
0.9393208109
0.9326956952
0.9229126541
0.9214452234
0.9187240715
0.9162149131
0.916644839
0.9196110636
0.9404026134
1.002474166
1.110382955
1.240163671
1.345807632
1.370994602
1.367957791
1.37671187
1.379813162
1.379536187
1.38378355
1.385208467
1.385627723
1.076403789
1.062884494
1.044399382
1.030110721
1.019410508
1.005381361
0.9925435994
0.9848148437
0.9757308786
0.9645501557
0.9583312072
0.9523111089
0.9416326935
0.936658754
0.9325800049
0.9245533215
0.9217200423
0.9225591963
0.9220032532
0.9273137139
0.9584321802
1.0506008
1.175593308
1.271614951
1.320547413
1.363958724
1.365799465
1.37128803
1.381010644
1.386038007
1.386341634
1.107879564
1.093407389
1.073983138
1.057670201
1.046205517
1.031738683
1.015840189
1.005507542
0.994997738
0.9808622854
0.9726382034
0.9657145494
0.9533507447
0.9454392374
0.9416804127
0.9346870864
0.9279402203
0.9273437402
0.9247902415
0.9235490266
0.9252216541
0.9415842319
0.9919040014
1.106061944
1.238363741
1.337976782
1.356059762
1.377951922
1.387636991
1.385907962
1.38431412
1.135722938
1.120563866
1.099726412
1.082761839
1.072430715
1.059174438
1.043428276
1.032950889
1.022787333
1.008264639
0.9977490233
0.9900047658
0.9781375584
0.9663312595
0.9586864578
0.9490694559
0.9367741788
0.9328746765
0.9285115237
0.9237260259
0.9250662422
0.9263624906
0.9304514298
0.9584550923
1.034355798
1.151199618
1.261235883
1.355104001
1.377669436
1.368601985
1.37502326
1.167235688
1.153211538
1.132857701
1.11336349
1.099903786
1.0837542
1.06431549
1.053008748
1.042752026
1.027254692
1.01707471
1.010337512
0.9994591262
0.9879090386
0.9809711812
0.9731620402
0.9619349988
0.9536268004
0.9468494552
0.9339822729
0.9293493056
0.9274027893
0.927035994
0.9283852087
0.939636155
0.9832848265
1.086111447
1.206694581
1.295498176
1.332107942
1.375101692
1.197721524
1.182116941
1.160176007
1.138675548
1.125820751
1.111585974
1.092293222
1.079740974
1.069103299
1.052358249
1.03872107
1.029445991
1.016402036
1.002044655
0.9954679604
0.9882827999
0.9771164419
0.9703438704
0.9649806933
0.9562163651
0.9483434111
0.9428380883
0.9336878222
0.9298291128
0.9308708105
0.9336110458
0.9564980895
1.01915946
1.140276955
1.268190599
1.351865227
1.228136077
1.212327867
1.191080995
1.168007826
1.15453538
1.139907412
1.118884557
1.104663554
1.09349624
1.076662492
1.062271059
1.053698675
1.04262391
1.027998991
1.017963508
1.008538519
0.994056785
0.9846403694
0.9782713596
0.9694617619
0.9609084417
0.9567687335
0.949328825
0.940908593
0.9390643446
0.9368707241
0.9359328851
0.9427046281
0.9823141127
1.07191836
1.189101672
1.259439267
1.243206296
1.222081641
1.196678343
1.181319791
1.166409444
1.144274859
1.128632619
1.117333003
1.099915044
1.083997562
1.075141019
1.064067102
1.049324848
1.039626032
1.031513483
1.018986908
1.007634204
0.9997871401
0.9892225516
0.9775681109
0.9698573909
0.9620763604
0.9516919665
0.9470664511
0.9436124509
0.9384992687
0.9386464279
0.9413131356
0.9586923485
1.012170292
1.291611304
1.273966744
1.252869587
1.225091566
1.208498297
1.194103659
1.171740596
1.155373407
1.144156203
1.127480583
1.10967609
1.098341669
1.085924294
1.068562439
1.057655908
1.049052291
1.036454403
1.025996741
1.01914192
1.010757361
0.9999777843
0.99173191
0.9841304515
0.9733708332
0.9628856156
0.9558758556
0.9446388303
0.9406312465
0.9419204622
0.9420277262
0.9462841723
1.322910093
1.304204383
1.2840123
1.255599605
1.237617536
1.223039085
1.199881931
1.180478266
1.16757437
1.149943168
1.13119474
1.120732955
1.110087655
1.094223484
1.082161193
1.072571331
1.058511099
1.04540587
1.036511624
1.026385063
1.014475799
1.007566632
1.001362093
0.9923430254
0.9841787056
0.9770380975
0.9681252231
0.9569013402
0.9496341799
0.943231216
0.9427532596
1.356424749
1.33564852
1.315331095
1.284915646
1.264630938
)
;

boundaryField
{
    inlet
    {
        type            calculated;
        value           nonuniform 0();
    }
    outlet
    {
        type            calculated;
        value           nonuniform 0();
    }
    bottom
    {
        type            calculated;
        value           nonuniform 0();
    }
    top
    {
        type            calculated;
        value           nonuniform 0();
    }
    obstacle
    {
        type            calculated;
        value           nonuniform 0();
    }
    defaultFaces
    {
        type            empty;
    }
    procBoundary28to21
    {
        type            processor;
        value           nonuniform List<scalar> 
19
(
1.377468974
1.376672921
1.376022726
1.375858369
1.376745289
1.37740686
1.376853148
1.376853148
1.377001727
1.377125856
1.376952268
1.376470886
1.37589984
1.375580408
1.375960614
1.377374029
1.377374029
1.37825751
1.377909937
)
;
    }
    procBoundary28to22
    {
        type            processor;
        value           nonuniform List<scalar> 
36
(
1.376845662
1.37974629
1.379544772
1.379985068
1.380230718
1.380615943
1.381236295
1.380985279
1.380731455
1.379212367
1.377276642
1.376586094
1.376652914
1.377356576
1.379259636
1.382046748
1.383483721
1.383313937
1.38225074
1.380857501
1.37959022
1.379235162
1.378461691
1.378271235
1.37816024
1.376798429
1.376707995
1.376707995
1.377954305
1.3807435
1.38159265
1.381288754
1.380715441
1.38019913
1.379767551
1.379767551
)
;
    }
    procBoundary28to23
    {
        type            processor;
        value           nonuniform List<scalar> 3(1.380822996 1.383224148 1.383123643);
    }
    procBoundary28to27
    {
        type            processor;
        value           nonuniform List<scalar> 
55
(
1.377345112
1.376568581
1.376281917
1.376656214
1.3775281
1.379037672
1.379037672
1.3787017
1.377938852
1.377486021
1.377445432
1.377648923
1.377438791
1.376858122
1.378534782
1.378534782
1.377672112
1.377187564
1.376648311
1.3764043
1.376031672
1.374743317
1.374023715
1.374087761
1.377696392
1.377696392
1.379291187
1.379612711
1.374978824
1.360844993
1.284361954
1.067035093
0.9323152249
0.9056539075
0.9049540246
0.9040836318
0.9048373574
0.9130964113
0.9225562453
0.9296905513
0.9551865238
0.9804864239
1.00159534
1.034738643
1.062741933
1.091984836
1.124441906
1.154739676
1.185974279
1.219553041
1.252322462
1.286055114
1.321194528
1.355495703
1.391333573
)
;
    }
    procBoundary28to29
    {
        type            processor;
        value           nonuniform List<scalar> 
69
(
1.382359273
1.381279057
1.378939408
1.377746087
1.377363119
1.37824384
1.37824384
1.381544866
1.381210692