/*--------------------------------*- C++ -*----------------------------------*\
  =========                 |
  \\      /  F ield         | OpenFOAM: The Open Source CFD Toolbox
   \\    /   O peration     | Website:  https://openfoam.org
    \\  /    A nd           | Version:  7
     \\/     M anipulation  |
\*---------------------------------------------------------------------------*/
FoamFile
{
    version     2.0;
    format      ascii;
    class       volVectorField;
    location    "3.8";
    object      U;
}
// * * * * * * * * * * * * * * * * * * * * * * * * * * * * * * * * * * * * * //

dimensions      [0 1 -1 0 0 0 0];

internalField   nonuniform List<vector> 
139
(
(2.978781509 -0.02070807657 0)
(2.944546719 -0.04518730591 0)
(2.910385098 -0.07264322734 0)
(2.888805558 -0.04655844094 0)
(2.882193243 -0.06942475163 0)
(2.858231433 -0.02538860737 0)
(2.861764324 -0.004595105121 0)
(2.875895685 0.01210272873 0)
(2.968095084 -0.08834189011 0)
(2.951313797 -0.1340533279 0)
(2.929700531 -0.1434925731 0)
(2.912025058 -0.1313712505 0)
(2.887227172 -0.05908079543 0)
(2.87203709 -0.000110284037 0)
(2.87493294 0.04824373574 0)
(2.878343835 0.06401548855 0)
(2.953812886 -0.1297597183 0)
(2.931139685 -0.1792651132 0)
(2.929964272 -0.1835365282 0)
(2.919295635 -0.1542469476 0)
(2.911645011 -0.1175376281 0)
(2.902550597 -0.06466927904 0)
(2.899184708 0.01594092999 0)
(2.897965334 0.06264714399 0)
(2.936158832 -0.1700135453 0)
(2.925847645 -0.1827638343 0)
(2.92521853 -0.1827145085 0)
(2.926783511 -0.1740162608 0)
(2.930078985 -0.1439089429 0)
(2.918021306 -0.07298877657 0)
(2.930994162 0.004084279095 0)
(2.923600646 0.1040924187 0)
(2.924001743 -0.1926410985 0)
(2.922580818 -0.1875016622 0)
(2.924862813 -0.1807685319 0)
(2.935594753 -0.1566147954 0)
(2.940790994 -0.13551155 0)
(2.955266054 -0.08295262427 0)
(2.947235093 -0.0111965163 0)
(2.95135687 0.09786282038 0)
(2.922236493 -0.1873922598 0)
(2.926057889 -0.1803482824 0)
(2.935405025 -0.1591753132 0)
(2.946318695 -0.1305241136 0)
(2.964839582 -0.08209610776 0)
(2.977300543 -0.0641045771 0)
(2.973654999 -0.005399803432 0)
(2.978631133 0.09370140538 0)
(2.925545291 -0.1816545195 0)
(2.934241623 -0.1618252436 0)
(2.950902524 -0.1227335647 0)
(2.963779563 -0.09213682149 0)
(2.978306327 -0.047874626 0)
(3.001046018 -0.004792710849 0)
(2.987689068 0.007948540172 0)
(3.008889452 0.0928075355 0)
(2.936351786 -0.1589993136 0)
(2.950922388 -0.1235873546 0)
(2.966394143 -0.08314799499 0)
(2.985104408 -0.03988224142 0)
(2.991571465 -0.01262962098 0)
(3.011299017 0.04558818731 0)
(3.010500507 0.04991599784 0)
(3.030951133 0.1310062413 0)
(2.952938043 -0.1174373974 0)
(2.968958385 -0.08049186531 0)
(2.983864809 -0.03722142322 0)
(3.001275197 0.01004650228 0)
(3.007994658 0.02997170138 0)
(3.021509586 0.08151881785 0)
(3.028060586 0.09443511882 0)
(3.038720116 0.1414661638 0)
(2.967758529 -0.07868994242 0)
(2.990212789 -0.02119740796 0)
(2.997061544 0.001510956502 0)
(3.017371991 0.06649395794 0)
(3.024650496 0.08221925341 0)
(3.038094836 0.1402679249 0)
(3.047090393 0.171806567 0)
(3.054022909 0.1991818285 0)
(2.98877068 -0.0241414697 0)
(3.005155703 0.02508495604 0)
(3.015420327 0.05348034193 0)
(3.026468798 0.09814232085 0)
(3.035813228 0.1262453512 0)
(3.03840105 0.148262965 0)
(3.049809786 0.1821139833 0)
(3.052890968 0.1910293286 0)
(3.004670897 0.02965075257 0)
(3.023656219 0.09267311101 0)
(3.032516346 0.1158231116 0)
(3.043094858 0.1743648942 0)
(3.051422734 0.1993478656 0)
(3.056418756 0.2215779291 0)
(3.062199747 0.2108284945 0)
(3.058488397 0.1986959683 0)
(3.017730175 0.07050798699 0)
(3.03358307 0.1301438168 0)
(3.040083637 0.152939738 0)
(3.041724033 0.1727760633 0)
(3.056599321 0.2031569661 0)
(3.058392309 0.2092971923 0)
(3.058444737 0.2082986002 0)
(3.046721739 0.1610893045 0)
(3.044776832 0.169846022 0)
(3.050397588 0.2009590869 0)
(3.055040955 0.23490282 0)
(3.065801871 0.2212304875 0)
(3.064895336 0.2172272708 0)
(3.059355297 0.2055337949 0)
(3.049107465 0.1739657601 0)
(3.026088858 0.0807048204 0)
(3.048158685 0.1778596559 0)
(3.058962011 0.2108245375 0)
(3.060208239 0.2202785892 0)
(3.0605567 0.2167930037 0)
(3.054667101 0.1938021307 0)
(3.041156255 0.1357295901 0)
(3.032682837 0.09656547481 0)
(3.019602161 0.04709596148 0)
(3.071064757 0.2413222346 0)
(3.071458994 0.229815079 0)
(3.066303922 0.2201438443 0)
(3.055922443 0.1892417464 0)
(3.03347376 0.1221411368 0)
(3.028593153 0.07257710207 0)
(3.01126548 0.001331420784 0)
(3.000584028 -0.001537349398 0)
(3.067720885 0.2365317496 0)
(3.060507392 0.2103507149 0)
(3.051732106 0.1535333837 0)
(3.039978988 0.07179197514 0)
(3.016393539 0.01194105137 0)
(3.01330368 0.02759072307 0)
(3.005886517 0.01073482158 0)
(3.000404196 0.002447395507 0)
(3.058386959 0.199268387 0)
(3.034318287 0.1167429844 0)
(3.031050733 0.08136525344 0)
)
;

boundaryField
{
    inlet
    {
        type            fixedValue;
        value           nonuniform 0();
    }
    outlet
    {
        type            inletOutlet;
        inletValue      uniform (3 0 0);
        value           nonuniform List<vector> 
17
(
(2.875895685 0.01210272873 0)
(2.878343835 0.06401548855 0)
(2.897965334 0.06264714399 0)
(2.923600646 0.1040924187 0)
(2.95135687 0.09786282038 0)
(2.978631133 0.09370140538 0)
(3.008889452 0.0928075355 0)
(3.030951133 0.1310062413 0)
(3.038720116 0.1414661638 0)
(3.054022909 0.1991818285 0)
(3.052890968 0.1910293286 0)
(3.058488397 0.1986959683 0)
(3.046721739 0.1610893045 0)
(3.026088858 0.0807048204 0)
(3.019602161 0.04709596148 0)
(3.000584028 -0.001537349398 0)
(3.000404196 0.002447395507 0)
)
;
    }
    bottom
    {
        type            slip;
    }
    top
    {
        type            slip;
    }
    obstacle
    {
        type            slip;
    }
    defaultFaces
    {
        type            empty;
    }
    procBoundary5to4
    {
        type            processor;
        value           nonuniform List<vector> 
17
(
(2.994913111 -0.005416961005 0)
(2.98676138 -0.0334962081 0)
(2.963950214 -0.09007262393 0)
(2.936369347 -0.1657037408 0)
(2.926196587 -0.1820468594 0)
(2.923107822 -0.184508781 0)
(2.921407626 -0.1907867704 0)
(2.926567716 -0.1831728958 0)
(2.934612546 -0.1620346507 0)
(2.953465276 -0.1158142264 0)
(2.97438404 -0.06358377369 0)
(2.993076138 -0.009200391835 0)
(3.013343894 0.0561656402 0)
(3.032147143 0.117933143 0)
(3.042740565 0.1613502526 0)
(3.064140255 0.2413975149 0)
(3.066814424 0.2358346718 0)
)
;
    }
    procBoundary5to10
    {
        type            processor;
        value           uniform (3.070042997 0.2366571112 0);
    }
    procBoundary5to11
    {
        type            processor;
        value           nonuniform List<vector> 9((3.0298361 0.04949874304 0) (3.010698138 0.02001479609 0) (3.003948166 0.01285526706 0) (2.999379654 0.006322926903 0) (2.999365996 0.003788250635 0) (3.045252886 0.1147211555 0) (3.020396933 0.01948118512 0) (3.0298361 0.04949874304 0) (3.006324111 -0.01134363447 0));
    }
}


// ************************************************************************* //
