/*--------------------------------*- C++ -*----------------------------------*\
  =========                 |
  \\      /  F ield         | OpenFOAM: The Open Source CFD Toolbox
   \\    /   O peration     | Website:  https://openfoam.org
    \\  /    A nd           | Version:  7
     \\/     M anipulation  |
\*---------------------------------------------------------------------------*/
FoamFile
{
    version     2.0;
    format      ascii;
    class       volVectorField;
    location    "5";
    object      U;
}
// * * * * * * * * * * * * * * * * * * * * * * * * * * * * * * * * * * * * * //

dimensions      [0 1 -1 0 0 0 0];

internalField   nonuniform List<vector> 5((3.010262547 0.1128395496 0) (2.924441127 0.2364251513 0) (3.003141442 0.1095499572 0) (2.866763719 0.207795446 0) (2.833211708 0.1427154789 0));

boundaryField
{
    inlet
    {
        type            fixedValue;
        value           nonuniform 0();
    }
    outlet
    {
        type            inletOutlet;
        inletValue      nonuniform 0();
        value           nonuniform 0();
    }
    bottom
    {
        type            slip;
    }
    top
    {
        type            slip;
    }
    obstacle
    {
        type            slip;
    }
    defaultFaces
    {
        type            empty;
    }
    procBoundary15to4
    {
        type            processor;
        value           uniform (3.008260165 0.07822311783 0);
    }
    procBoundary15to9
    {
        type            processor;
        value           nonuniform List<vector> 3((2.980073901 -0.04210214765 0) (2.960585813 -0.01295967168 0) (2.960585813 -0.01295967168 0));
    }
    procBoundary15to10
    {
        type            processor;
        value           nonuniform List<vector> 4((3.00165108 0.03358756378 0) (2.969409221 0.07911622222 0) (2.969409221 0.07911622222 0) (2.90236341 0.0511155314 0));
    }
    procBoundary15to21
    {
        type            processor;
        value           uniform (2.752331068 0.09536475204 0);
    }
}


// ************************************************************************* //
