/*--------------------------------*- C++ -*----------------------------------*\
  =========                 |
  \\      /  F ield         | OpenFOAM: The Open Source CFD Toolbox
   \\    /   O peration     | Website:  https://openfoam.org
    \\  /    A nd           | Version:  7
     \\/     M anipulation  |
\*---------------------------------------------------------------------------*/
FoamFile
{
    version     2.0;
    format      ascii;
    class       volVectorField;
    location    "2.1";
    object      U;
}
// * * * * * * * * * * * * * * * * * * * * * * * * * * * * * * * * * * * * * //

dimensions      [0 1 -1 0 0 0 0];

internalField   nonuniform List<vector> 5((2.874343733 -0.002006539301 0) (2.833899317 -0.03756776533 0) (2.891229806 -0.009677567956 0) (2.901045226 -0.0562208771 0) (2.938660503 -0.008252149818 0));

boundaryField
{
    inlet
    {
        type            fixedValue;
        value           nonuniform 0();
    }
    outlet
    {
        type            inletOutlet;
        inletValue      nonuniform 0();
        value           nonuniform 0();
    }
    bottom
    {
        type            slip;
    }
    top
    {
        type            slip;
    }
    obstacle
    {
        type            slip;
    }
    defaultFaces
    {
        type            empty;
    }
    procBoundary22to16
    {
        type            processor;
        value           nonuniform List<vector> 3((2.882428391 0.004125608304 0) (2.800748694 -0.01835554414 0) (2.800748694 -0.01835554414 0));
    }
    procBoundary22to21
    {
        type            processor;
        value           nonuniform List<vector> 2((2.750836834 -0.09446620986 0) (2.832034039 -0.1441472393 0));
    }
    procBoundary22to28
    {
        type            processor;
        value           nonuniform List<vector> 2((2.968271473 -0.07989340773 0) (2.982463141 -0.01768333481 0));
    }
    procBoundary22to29
    {
        type            processor;
        value           nonuniform List<vector> 3((2.891582145 0.001971216575 0) (2.906256577 0.0009408744988 0) (2.940345747 0.002332366014 0));
    }
}


// ************************************************************************* //
