/*--------------------------------*- C++ -*----------------------------------*\
  =========                 |
  \\      /  F ield         | OpenFOAM: The Open Source CFD Toolbox
   \\    /   O peration     | Website:  https://openfoam.org
    \\  /    A nd           | Version:  7
     \\/     M anipulation  |
\*---------------------------------------------------------------------------*/
FoamFile
{
    version     2.0;
    format      ascii;
    class       volScalarField;
    location    "4";
    object      T;
}
// * * * * * * * * * * * * * * * * * * * * * * * * * * * * * * * * * * * * * //

dimensions      [0 0 0 1 0 0 0];

internalField   nonuniform List<scalar> 
2222
(
1.738884299
1.739090348
1.738930195
1.715968913
1.716728357
1.71689437
1.716867886
1.716945414
1.717078341
1.717160613
1.696357236
1.697016556
1.69742103
1.697641532
1.698104696
1.698929707
1.699704489
1.699954045
1.699861583
1.699445806
1.691483815
1.692549492
1.692757691
1.69268756
1.692722638
1.692850398
1.692841241
1.692565597
1.692367929
1.692415699
1.692667541
1.693154148
1.693940767
1.118460831
1.117738297
1.117607501
1.117727026
1.118227694
1.118784997
1.119126215
1.119378879
1.119722329
1.120242555
1.120831057
1.121405826
1.121899771
1.122469257
1.122758003
1.122717642
1.122553115
1.122293695
1.122098302
1.122031701
1.122091226
1.122052527
1.121898297
1.121754155
1.121565963
1.121433232
1.121403435
1.121420396
1.121586129
1.121814871
1.121858988
1.12183448
1.121743432
1.1216093
1.121561686
1.121560598
1.121622002
1.121811674
1.121914522
1.121890576
1.121794391
1.121626399
1.121509404
1.121492007
1.121501338
1.121612978
1.121773381
1.121791802
1.121752185
1.121651219
1.12152641
1.121480083
1.121478911
1.121521065
1.121651732
1.121723481
1.121706147
1.121640805
1.121539371
1.121457044
1.121435051
1.121436426
1.121493728
1.121621298
1.121662607
1.121648877
1.121603074
1.121412104
1.120718939
1.120401817
1.120421497
1.120666097
1.120932167
1.120949251
1.120752711
1.120543208
1.120566495
1.120555089
1.12050204
1.120570428
1.120853951
1.120959413
1.120842125
1.120526456
1.120421347
1.120510161
1.120823644
1.121168038
1.121438701
1.121542235
1.121555177
1.121556671
1.121495239
1.121393963
1.121381545
1.12148348
1.121714533
1.121808549
1.121797006
1.121752665
1.121642026
1.121476743
1.121423353
1.12142186
1.121481112
1.121621921
1.121682615
1.121676019
1.12163353
1.121535345
1.121461601
1.121454825
1.121475187
1.121554741
1.121648306
1.121670021
1.121660496
1.12161137
1.121515447
1.121458813
1.121449131
1.121454387
1.121501124
1.121565564
1.121581219
1.121572711
1.121539559
1.121485455
1.121453148
1.121445639
1.121450978
1.121489535
1.12155773
1.121588965
1.123324215
1.123193455
1.123017904
1.122604721
1.12236083
1.122162687
1.12181724
1.121015338
1.119879158
1.119410556
1.119247624
1.118960144
1.118872613
1.118992314
1.119214552
1.119368987
1.119469387
1.119600092
1.119886776
1.120345597
1.120955915
1.121508277
1.121709102
1.121737367
1.121751049
1.121701077
1.121492764
1.121308093
1.121295868
1.121341373
1.121399277
1.121398988
1.121390919
1.121375491
1.12131452
1.121283625
1.121293535
1.121317605
1.121396153
1.121494031
1.121523519
1.121532951
1.121528697
1.121505776
1.121465656
1.121423242
1.121415675
1.121433528
1.121489673
1.12150746
1.121508623
1.121505436
1.121472574
1.12140084
1.121342871
1.121337561
1.121360552
1.121427489
1.121499538
1.121533298
1.121543082
1.121538992
1.121483454
1.121392058
1.121371911
1.121386334
1.121467459
1.128845086
1.128717635
1.128312128
1.127792675
1.127232208
1.126633158
1.125860304
1.124612075
1.123241651
1.122026691
1.121303529
1.120770849
1.120137297
1.119948397
1.119964424
1.120001084
1.119980392
1.119826817
1.119741094
1.119871877
1.120167707
1.120431317
1.120582971
1.120657464
1.120699417
1.120799338
1.120852141
1.120843781
1.120898512
1.121021935
1.121102285
1.121164973
1.121213855
1.121281604
1.121353382
1.121391911
1.121401332
1.121385945
1.121364248
1.12136405
1.121372318
1.12138753
1.121389501
1.121386818
1.121365623
1.121298781
1.121223602
1.121216391
1.121232346
1.121269591
1.121333599
1.121365798
1.121366397
1.121355979
1.121301226
1.121250424
1.121256485
1.121289198
1.12135336
1.121430241
1.121457237
1.121458484
1.121434263
1.121354689
1.121278931
1.121271117
1.121309995
1.128956126
1.128759459
1.128372804
1.127866255
1.127073611
1.126092851
1.125018398
1.12386292
1.123311442
1.123453437
1.123469968
1.123192305
1.12280776
1.122384977
1.121784963
1.121476166
1.121226049
1.120828429
1.120334456
1.120077947
1.119905212
1.11960134
1.119467274
1.119515985
1.119674651
1.119925843
1.120079817
1.120292757
1.120504343
1.120630566
1.120736613
1.1208298
1.120927298
1.121078593
1.121202514
1.121236138
1.121241016
1.121193626
1.121106412
1.121095409
1.12111778
1.121189108
1.121274032
1.121283705
1.121281415
1.121231789
1.121125132
1.121079545
1.121099
1.121150195
1.121234634
1.121318734
1.121336477
1.121333714
1.121303828
1.121216366
1.121158472
1.121169061
1.121203028
1.121270485
1.121333741
1.121347614
1.12134638
1.121320265
1.121236312
1.121160382
1.121162219
1.11583343
1.11777693
1.120361208
1.120888482
1.121258028
1.122577839
1.123873626
1.124691815
1.125386336
1.126583777
1.127103471
1.126995736
1.126587247
1.125931802
1.125328299
1.124824056
1.124231722
1.123585214
1.122792918
1.121916335
1.121180498
1.120247491
1.119697058
1.119664132
1.119731726
1.120025984
1.120343638
1.120394635
1.120426099
1.120419851
1.120423461
1.120494979
1.120620914
1.120810229
1.120967624
1.12099958
1.120986015
1.120878974
1.120697699
1.120661548
1.120713371
1.120842697
1.121043957
1.121173202
1.121188101
1.121190409
1.121136824
1.121013411
1.120993613
1.121027548
1.121106166
1.121222769
1.121283477
1.121285907
1.121265626
1.121192107
1.121062288
1.120989081
1.120989149
1.121034033
1.121167143
1.1212776
1.121290975
1.121280607
1.121221816
1.121099691
1.121018486
1.083603919
1.09227609
1.103382315
1.110617406
1.115187407
1.120139485
1.12252045
1.123701308
1.125704653
1.12681672
1.126831678
1.126747282
1.126302945
1.125414194
1.124305802
1.123627534
1.123278411
1.122970118
1.122953832
1.123108302
1.1230072
1.122384297
1.121590401
1.121387613
1.121346683
1.121430931
1.121419671
1.121205327
1.120838912
1.120509455
1.120109902
1.119916967
1.119896611
1.119921861
1.120104734
1.120352882
1.120435572
1.120438198
1.120359025
1.120312064
1.120387314
1.120538204
1.120812241
1.121145127
1.121235508
1.121239807
1.121209084
1.121087405
1.120906296
1.120841274
1.120852082
1.120960908
1.121157657
1.121235702
1.121234859
1.121187021
1.121066165
1.120926951
1.120880797
1.120887785
1.120958295
1.121119538
1.121227091
1.121236318
1.121206423
1.12111388
1.120987046
1.029716187
1.039557735
1.050744448
1.064576917
1.075999383
1.087592089
1.096274405
1.101789279
1.108562345
1.113892456
1.115578245
1.1179757
1.119475487
1.119373607
1.120054639
1.122177597
1.123551014
1.123896208
1.124479006
1.125656287
1.125826437
1.125579051
1.124904948
1.124429094
1.124048943
1.123562923
1.123074822
1.122263814
1.121441248
1.120811811
1.120202726
1.119937451
1.119909185
1.119946873
1.120192982
1.120481858
1.120560659
1.120577875
1.120466183
1.120248736
1.120203298
1.120254402
1.120385497
1.120635729
1.120835432
1.1208962
1.120911029
1.120871809
1.120696342
1.120610108
1.120624135
1.120714795
1.120891396
1.121063697
1.121127753
1.121130141
1.121108981
1.12101871
1.12092457
1.12090317
1.12090456
1.120945184
1.121049315
1.121129685
1.121139373
1.12111285
1.120999056
1.002813282
1.005317645
1.009158477
1.015690906
1.023631249
1.032984418
1.04533641
1.057264469
1.06965373
1.08171068
1.090412802
1.098852008
1.108334909
1.113123155
1.116920972
1.120864345
1.122134901
1.122802853
1.124155456
1.125033111
1.125052971
1.12484508
1.124243162
1.123203375
1.122098535
1.121968073
1.122245697
1.122359634
1.122182117
1.122064992
1.121869142
1.121401171
1.121123329
1.121042499
1.12108569
1.121171025
1.121158922
1.121027171
1.120724558
1.120457323
1.120268589
1.120033464
1.119886434
1.11988792
1.119920681
1.120048727
1.120280877
1.12041403
1.120433301
1.120438548
1.12046825
1.12058185
1.120670691
1.120738709
1.120853213
1.120990501
1.121035941
1.121034589
1.121013408
1.120945281
1.120851496
1.120829096
1.120840694
1.120894158
1.120988214
1.121023285
1.121000738
1.000051849
1.000147257
1.000374552
1.000901915
1.001954494
1.003802942
1.007124871
1.011967782
1.018516456
1.028424343
1.039360422
1.049307262
1.061881615
1.074665486
1.084621228
1.094770779
1.101314373
1.10553743
1.110516209
1.114553412
1.115844989
1.117519278
1.118790839
1.118825087
1.119392045
1.121745438
1.123143987
1.123559187
1.123771279
1.124383185
1.124631284
1.124488639
1.123946813
1.12308955
1.122393689
1.121931228
1.121640268
1.121145994
1.12071201
1.120592565
1.120398633
1.12005945
1.119904889
1.119888699
1.119893855
1.119992166
1.120256942
1.120577124
1.120685924
1.120677774
1.120630133
1.1204902
1.120327042
1.120285395
1.120317701
1.120438286
1.120657763
1.120852929
1.120886097
1.120875418
1.120807324
1.120743319
1.120745786
1.120768036
1.120809259
1.120899953
1.120939521
1.000000141
1.000000638
1.000002565
1.000009265
1.000030519
1.000088966
1.000238093
1.000588672
1.001308019
1.002742404
1.005272001
1.009038974
1.015005275
1.023364111
1.032705791
1.043538983
1.05598059
1.068486899
1.079559994
1.089184526
1.096637215
1.10377688
1.112636308
1.116355936
1.118515775
1.120806409
1.122043131
1.122313345
1.122814864
1.123576181
1.123683105
1.123665088
1.123275541
1.121968015
1.120652603
1.120546258
1.120897749
1.121181111
1.121305749
1.121611148
1.121788976
1.121702993
1.121442527
1.121086852
1.120630806
1.120453648
1.120461107
1.120514421
1.12048884
1.120415153
1.120395641
1.120348719
1.120152338
1.119952714
1.119932076
1.119978939
1.120149238
1.120431438
1.120655132
1.120734236
1.120745449
1.120737003
1.120669303
1.120613225
1.120611547
1.120650659
1.120767364
1
1
1.000000002
1.000000012
1.000000067
1.000000314
1.000001315
1.000004991
1.000016906
1.00005284
1.000149002
1.000377123
1.000900177
1.001928547
1.003800896
1.007053113
1.011713504
1.018419512
1.027479334
1.038423317
1.050117493
1.060224385
1.071628021
1.083492221
1.093652367
1.101623405
1.104748707
1.10790037
1.11178316
1.11488908
1.11591239
1.117541928
1.119390185
1.11992352
1.120089139
1.12100313
1.122460726
1.122756693
1.122820576
1.122980305
1.12339006
1.123473539
1.123334838
1.122862113
1.122014052
1.120939492
1.12024343
1.120094194
1.120062025
1.120109959
1.120251344
1.120285206
1.120272496
1.120155783
1.120029846
1.120033605
1.120129684
1.120320075
1.120536283
1.120588589
1.120577856
1.120546973
1.120469543
1.120370395
1.120337192
1.12035166
1.120441034
1
1
1
1
1
1
1.000000001
1.000000005
1.00000003
1.000000151
1.000000675
1.000002669
1.000009636
1.00003122
1.00009089
1.000246584
1.000588487
1.001321585
1.002807651
1.005217222
1.009140671
1.014891137
1.022713684
1.032731564
1.043255675
1.054796762
1.066951428
1.077941651
1.089145824
1.096953228
1.102385301
1.10735675
1.114845686
1.118245095
1.119157612
1.121139729
1.122083841
1.12183375
1.121685952
1.122033903
1.122147614
1.122052895
1.122060454
1.121802409
1.121100967
1.120573124
1.120595755
1.120738152
1.12076188
1.120817995
1.12108029
1.121313168
1.121309161
1.12116212
1.120819927
1.120526338
1.120346613
1.120185058
1.120164146
1.120107703
1.120104282
1.12013735
1.120194744
1.12019436
1.12015769
1.120151812
1.120189184
1
1
1
1
1
1
1
1
1
1
1
1.000000002
1.000000014
1.000000072
1.00000034
1.000001413
1.000005307
1.000017985
1.000055869
1.000155349
1.000391898
1.000916658
1.001956319
1.003869813
1.0070592
1.011825408
1.018676811
1.027132152
1.037208078
1.050131508
1.062197787
1.071354515
1.081637523
1.090823681
1.097536335
1.106172629
1.110326609
1.11140318
1.113129057
1.11454147
1.115220008
1.116723633
1.118907486
1.120068417
1.120674063
1.121442103
1.122679647
1.123111085
1.122935805
1.12242915
1.122251989
1.122193188
1.122119736
1.121877726
1.121457277
1.120971828
1.120468759
1.120057873
1.119935186
1.119936137
1.119978828
1.120069332
1.120257345
1.120458331
1.120486075
1.120452335
1.120320854
1
1
1
1
1
1
1
1
1
1
1
1
1
1
1
1.000000001
1.000000006
1.000000035
1.00000017
1.000000743
1.000002896
1.000010381
1.000033524
1.00009619
1.000258816
1.000625655
1.001364456
1.002850033
1.005363659
1.009386142
1.01540891
1.022625896
1.032176076
1.044491958
1.055369767
1.06642644
1.077197612
1.086107915
1.09710162
1.104792093
1.108200165
1.111808634
1.116041385
1.11826102
1.119391324
1.120954594
1.121870244
1.121962315
1.121817129
1.121441521
1.120725449
1.120129088
1.120082876
1.120203636
1.120367485
1.120785404
1.120912624
1.120912471
1.120874573
1.12080289
1.120738117
1.120718523
1.12078428
1.120831424
1.120759256
1.120610321
1.120335463
1
1
1
1
1
1
1
1
1
1
1
1
1
1
1
1
1
1
1
1
1.000000003
1.000000016
1.000000084
1.000000385
1.000001594
1.00000593
1.000019724
1.000060224
1.000168138
1.000419373
1.000975359
1.002064032
1.003966092
1.007318909
1.012310206
1.018876736
1.028196625
1.037900468
1.04831341
1.061351676
1.073149973
1.083056254
1.091561962
1.096985946
1.101841794
1.10819046
1.11111268
1.113194999
1.115645185
1.115807075
1.11596448
1.11726494
1.118923547
1.119919192
1.120870843
1.122061846
1.122675038
1.122658901
1.122590408
1.122297248
1.121752302
1.121330891
1.120995672
1.12078551
1.120544235
1.120356093
1.12016529
1
1
1
1
1
1
1
1
1
1
1
1
1
1
1
1
1
1
1
1
1
1
1
1
1.000000001
1.000000007
1.000000041
1.000000199
1.000000863
1.000003328
1.0000116
1.000037272
1.000106534
1.000278674
1.000689255
1.00147953
1.002969987
1.005655134
1.009638622
1.015929131
1.024117974
1.032766502
1.043751707
1.056107098
1.067543743
1.078916936
1.087476524
1.094011243
1.103166175
1.109251787
1.112623738
1.116312385
1.117993831
1.118496779
1.11951989
1.121083891
1.121553257
1.121534288
1.12147183
1.121129623
1.120151015
1.119426247
1.11958608
1.119934305
1.12014796
1.120418935
1.120674112
1
1
1
1
1
1
1
1
1
1
1
1
1
1
1
1
1
1
1
1
1
1
1
1
1
1
1
1
1
1.000000003
1.00000002
1.000000102
1.000000461
1.00000188
1.000006952
1.000022835
1.0000675
1.000187653
1.000467764
1.001065083
1.002273389
1.004302634
1.007678331
1.012963262
1.019716106
1.028864571
1.040595643
1.050285573
1.06084351
1.073201778
1.082276868
1.092253078
1.09985991
1.103159941
1.106579813
1.110876641
1.112108956
1.113517239
1.115718336
1.117102895
1.117525105
1.118373454
1.119870697
1.121257829
1.121938977
1.121871894
1.121875233
1
1
1
1
1
1
1
1
1
1
1
1
1
1
1
1
1
1
1
1
1
1
1
1
1
1
1
1
1
1
1
1
1
1.000000002
1.00000001
1.000000051
1.000000245
1.000001054
1.00000408
1.000013815
1.000043533
1.000123999
1.000316773
1.000759289
1.001680679
1.003289566
1.006228881
1.010444788
1.01633252
1.02525887
1.035235386
1.045129489
1.057005617
1.068823502
1.079188253
1.088921647
1.096487802
1.102083654
1.107044182
1.113423281
1.116868613
1.117415364
1.118301231
1.120031762
1.120835719
1.120784237
1.120584187
1
1
1
1
1
1
1
1
1
1
1
1
1
1
1
1
1
1
1
1
1
1
1
1
1
1
1
1
1
1
1
1
1
1
1
1
1
1.000000001
1.000000005
1.000000026
1.00000013
1.000000584
1.000002353
1.00000845
1.000028103
1.000081244
1.000220433
1.000537933
1.001217334
1.002506683
1.004913129
1.008482408
1.013978886
1.021112855
1.030344064
1.040978197
1.052921468
1.064902066
1.073504195
1.082239503
1.093678226
1.100803122
1.103101821
1.107582212
1.111152239
1.112385216
1.112977753
1
1
1
1
1
1
1
1
1
1
1
1
1
1
1
1
1
1
1
1
1
1
1
1
1
1
1
1
1
1
1
1
1
1
1
1
1
1
1
1
1
1
1.000000002
1.000000013
1.000000071
1.000000325
1.000001364
1.00000514
1.000017657
1.000053775
1.000153884
1.000383648
1.000896494
1.001881237
1.003804099
1.006914315
1.011623035
1.018051386
1.026994867
1.036561033
1.047584776
1.060195387
1.07109011
1.080542628
1.089483863
1.098459113
1.103428314
1
1
1
1
1
1
1
1
1
1
1
1
1
1
1
1
1
1
1
1
1
1
1
1
1
1
1
1
1
1
1
1
1
1
1
1
1
1
1
1
1
1
1
1
1
1
1.000000001
1.000000007
1.000000038
1.000000184
1.000000814
1.000003147
1.000011084
1.000035286
1.000104315
1.000269673
1.000670332
1.001433202
1.002969239
1.005462729
1.009705366
1.015335583
1.02367074
1.032697885
1.043451551
1.055304517
1.065754286
1
1
1
1
1
1
1
1
1
1
1
1
1
1
1
1
1
1
1
1
1
1
1
1
1
1
1
1
1
1
1
1
1
1
1
1
1
1
1
1
1
1
1
1
1
1
1
1
1
1
1
1.000000003
1.00000002
1.000000103
1.000000476
1.000001916
1.000007122
1.000023112
1.000071672
1.000189521
1.000489953
1.001081773
1.002362513
1.004363755
1.008071626
1.013281469
1.019500226
1
1
1
1
1
1
1
1
1
1
1
1
1
1
1
1
1
1
1
1
1
1
1
1
1
1
1
1
1
1
1
1
1
1
1
1
1
1
1
1
1
1
1
1
1
1
1
1
1
1
1
1
1
1
1
1.000000002
1.000000011
1.000000057
1.000000279
1.000001171
1.000004584
1.000015306
1.000049827
1.000135272
1.000357572
1.000897649
1.001431698
1
1
1
1
1
1
1
1
1
1
1
1
1
1
1
1
1
1
1
1
1
1
1
1
1
1
1
1
1
1
1
1
1
1
1
1
1
1
1
1
1
1
1
1
1
1
1
1
1
1
1
1
1
1
1
1
1
1
1
1.000000001
1.000000006
1.000000033
1.000000167
1.000000735
1.000002769
1.000018508
1.000005627
1
1
1
1
1
1
1
1
1
1
1
1
1
1
1
1
1
1
1
1
1
1
1
1
1
1
1
1
1
1
1
1
1
1
1
1
1
1
1
1
1
1
1
1
1
1
1
1
1
1
1
1
1
1
1
1
1
1
1
1
1
1
1
1
1.000000003
1.000000092
0.9999999993
1
1
1
1
1
1
1
1
1
1
1
1
1
1
1
1
1
1
1
1
1
1
1
1
1
1
1
1
1
1
1
1
1
1
1
1
1
1
1
1
1
1
1
1
1
1
1
1
1
1
1
1
1
1
1
1
1
1
1
1
1
1
1
1
1
1
0.9999999995
1
1
1
1
1
1
1
1
1
1
1
1
1
1
1
1
1
1
1
1
1
1
1
1
1
1
1
1
1
1
1
1
1
1
1
1
1
1
1
1
1
1
1
1
1
1
1
1
1
1
1
1
1
1
1
1
1
1
1
1
1
1
1
1
1
1
1
1
1
1
1
1
1
1
1
1
1
1
1
1
1
1
1
1
1
1
1
1
1
1
1
1
1
1
1
1
1
1
1
1
1
1
1
1
1
1
1
1
1
1
1
1
1
1
1
1
1
1
1
1
1
1
1
1
1
1
1
1
1
1
1
1
1
1
1
1
1
1
1
1
1
1
1
1
1
1
1
1
1
1
1
1
1
1
1
1
1
1
1
1
1
1
1
1
1
1
1
1
1
1
1
1
1
1
1
1
1
1
1
1
1
1
1
1
1
1
1
1
1
1
1
1
1
1
1
1
1
1
1
1
1
1
1
1
1
1
1
1
1
1
1
1
1
1
1
1
1
1
1
1
1
1
1
1
1
1
1
1
1
1
1
1
1
1
1
1
1
1
1
1
1
1
1
1
1
1
1
1
1
1
1
1
1
1
1
1
1
1
1
1
1
1
1
1
1
1
1
1
1
1
1
1
1
1
1
1
1
1
1
1
1
1
1
1
1
1
1
1
1
1
1
1
1
1
1
1
1
1
1
1
1
1
1
1
1
1
1
1
1
1
1
1
1
1
1
1
1
1
1
1
1
1
1
1
1
1
1
1
1
1
1
1
1
1
1
1
1
1
1
1
1
1
1
1
1
1
1
1
1
1
1
1
1
1
1
1
1
1
1
1
1
1
1
1
1
1
1
1
1
1
1
1
1
1
1
1
1
1
1
1
)
;

boundaryField
{
    inlet
    {
        type            fixedValue;
        value           nonuniform 0();
    }
    outlet
    {
        type            inletOutlet;
        inletValue      nonuniform 0();
        value           nonuniform 0();
    }
    bottom
    {
        type            slip;
    }
    top
    {
        type            slip;
    }
    obstacle
    {
        type            zeroGradient;
    }
    defaultFaces
    {
        type            empty;
    }
    procBoundary20to13
    {
        type            processor;
        value           nonuniform List<scalar> 4(1.73797727 1.715345228 1.69624957 1.689848821);
    }
    procBoundary20to14
    {
        type            processor;
        value           nonuniform List<scalar> 
17
(
1.750866915
1.750545028
1.75041121
1.738885339
1.738885339
1.738713767
1.738250407
1.737459832
1.717054522
1.717054522
1.716693385
1.716173213
1.699076118
1.699076118
1.699007664
1.699091915
1.694801931
)
;
    }
    procBoundary20to19
    {
        type            processor;
        value           nonuniform List<scalar> 
33
(
1.118977517
1.121874514
1.124078029
1.128019051
1.128626356
1.112419942
1.072043388
1.019362441
1.001327666
1.000016617
1.000000028
1
1
1
1
1
1
1
1
1
1
1
1
1
1
1
1
1
1
1
1
1
1
)
;
    }
    procBoundary20to25
    {
        type            processor;
        value           nonuniform List<scalar> 2(1 1);
    }
    procBoundary20to26
    {
        type            processor;
        value           nonuniform List<scalar> 
69
(
1
1
1
1
1
1
1
1
1
1
1
1
1
1
1
1
1
1
1
1
1
1
1
1
1
1
1
1
1
1
1
1
1
1
1
1
1
1
1
1
1
1
1
1
1
1
1
1
1
1
1
1
1
1
1
1
1
1
1
1
1
1
1
1
1
1
1
1
1
)
;
    }
    procBoundary20to27
    {
        type            processor;
        value           nonuniform List<scalar> 
31
(
1.053523958
1.11069307
1.120170259
1.12125319
1.121228682
1.121141326
1.121041523
1.120960363
1.120894918
1.120856026
1.120761805
1.120579517
1.120452009
1.12031209
1.119989202
1.119923805
1.120649008
1.121561918
1.120044856
1.117118602
1.116504399
1.096079125
1.049215898
1.011313492
1.00103289
1.000038382
1.000000635
1.000000005
1
1
1
)
;
    }
}


// ************************************************************************* //
