/*--------------------------------*- C++ -*----------------------------------*\
  =========                 |
  \\      /  F ield         | OpenFOAM: The Open Source CFD Toolbox
   \\    /   O peration     | Website:  https://openfoam.org
    \\  /    A nd           | Version:  7
     \\/     M anipulation  |
\*---------------------------------------------------------------------------*/
FoamFile
{
    version     2.0;
    format      ascii;
    class       volScalarField;
    location    "2";
    object      T;
}
// * * * * * * * * * * * * * * * * * * * * * * * * * * * * * * * * * * * * * //

dimensions      [0 0 0 1 0 0 0];

internalField   nonuniform List<scalar> 
2222
(
1.693959185
1.695702545
1.695636442
1.695039008
1.692681039
1.689113407
1.685437463
1.681270646
1.674049714
1.665616863
1.658871956
1.651772999
1.643515875
1.636417953
1.629338712
1.621515104
1.616079127
1.613637194
1.61035372
1.606311977
1.601636402
1.595453448
1.591872036
1.58793127
1.788875197
1.802837541
1.799103421
1.784663752
1.760695492
1.730283816
1.70324791
1.69286223
1.688701706
1.689995861
1.693543217
1.696043401
1.696673087
1.695929578
1.693856477
1.69084656
1.687733587
1.683674846
1.676493713
1.667914972
1.660879057
1.653714197
1.645460221
1.63837905
1.631066509
1.623543034
1.619434871
1.616911397
1.61179043
1.607106005
1.602378384
1.596444351
1.592116315
1.588014711
1.781793319
1.800841652
1.803188862
1.794321018
1.773294646
1.743901508
1.710249545
1.693686172
1.687800696
1.689120903
1.692945105
1.696190141
1.698033988
1.697088339
1.69524697
1.692668774
1.689952979
1.68604229
1.678981181
1.670468443
1.663264191
1.656076419
1.647727185
1.640371703
1.633318465
1.627578546
1.62344188
1.618615622
1.612697187
1.607558004
1.603272392
1.597368307
1.592430901
1.588322085
1.77985895
1.79865033
1.80676077
1.80290699
1.788816093
1.759609468
1.72125769
1.696779164
1.687791998
1.688799483
1.692552021
1.696040454
1.698734137
1.698449149
1.697071572
1.694698078
1.692270681
1.688502554
1.681622484
1.673233254
1.665922182
1.658573887
1.65001447
1.642663328
1.637412283
1.632050736
1.625346348
1.619346667
1.612870245
1.608255667
1.604326687
1.59825042
1.592845054
1.588788888
1.781072061
1.796551548
1.80962507
1.810111774
1.803593062
1.778400039
1.737216414
1.703986101
1.68915186
1.689184721
1.692197433
1.695357985
1.69844827
1.699597312
1.699044599
1.697232585
1.695234294
1.691625934
1.684932678
1.676621364
1.669163181
1.661484286
1.652568893
1.646526478
1.641551198
1.634209603
1.626221198
1.619443788
1.612797473
1.609284349
1.605416041
1.599227515
1.593471666
1.589509121
1.785422375
1.797669272
1.81322404
1.817855341
1.81701226
1.797646642
1.756122331
1.715137099
1.693018049
1.690035322
1.692195877
1.694537823
1.697880585
1.699940765
1.700294936
1.699595267
1.698154577
1.694609272
1.688124627
1.679646373
1.672077957
1.664452862
1.656010369
1.650229939
1.643485406
1.635350882
1.62648686
1.619201309
1.613488581
1.610536353
1.606601506
1.600570403
1.594767431
1.59087663
1.79718801
1.805807443
1.819709344
1.826677505
1.828788923
1.814326887
1.77528832
1.729449401
1.69932211
1.692002358
1.692797506
1.694160302
1.697150292
1.699730263
1.700767579
1.700610522
1.699576034
1.696016103
1.689701798
1.681468193
1.674021995
1.666535508
1.658674011
1.652071133
1.644849837
1.635965105
1.626221467
1.619499988
1.61482442
1.612068874
1.608083809
1.602565729
1.596220786
1.591993639
1.813971061
1.823278217
1.830132297
1.835429118
1.824640157
1.791429813
1.745075003
1.708766615
1.69573861
1.69488493
1.694708649
1.69678738
1.699202269
1.700691184
1.700814008
1.700208721
1.69677093
1.690678543
1.682593075
1.675339576
1.66818956
1.660518976
1.653433277
1.645601363
1.635837273
1.626385134
1.62082475
1.616461115
1.613972261
1.610101482
1.604487865
1.596664568
1.592393872
1.817811202
1.822323852
1.829278273
1.838109541
1.829059224
1.801736589
1.76039355
1.721360347
1.701624731
1.697550606
1.696014523
1.697160275
1.698742667
1.700335192
1.700666811
1.700324767
1.696879485
1.690899709
1.683199105
1.676318347
1.669410194
1.661876982
1.654269202
1.645834735
1.636044755
1.627802561
1.62233788
1.618947066
1.616484456
1.61239301
1.605320151
1.596907912
1.592758315
1.588183888
1.822090008
1.820560926
1.826550217
1.837179453
1.827140497
1.80469469
1.773815949
1.736366111
1.709146359
1.699866657
1.696422031
1.696971893
1.69805844
1.699699425
1.700372149
1.699935248
1.696854159
1.691412122
1.684603712
1.678056173
1.671001019
1.66325088
1.655287368
1.646778995
1.637602874
1.6296043
1.624315348
1.622576744
1.619379493
1.613629906
1.605718079
1.597204768
1.593261522
1.588828647
1.828795339
1.8182975
1.819696994
1.827008384
1.817463393
1.803615905
1.784099604
1.750962606
1.719065505
1.702927764
1.697217768
1.696318873
1.696905488
1.6988813
1.700077031
1.699731289
1.697292858
1.692573529
1.686529479
1.68037365
1.673327411
1.665371545
1.657106384
1.648687159
1.639660216
1.631725895
1.62803144
1.626370013
1.621168557
1.614149477
1.605904987
1.597755102
1.593868158
1.589531711
1.832435278
1.811977895
1.80726818
1.815355939
1.813356041
1.806006628
1.790482764
1.763237091
1.73013952
1.707506615
1.698607216
1.695685611
1.696198571
1.698235485
1.700058412
1.699685772
1.697694928
1.693730834
1.688498862
1.682751588
1.675879553
1.667908303
1.659409578
1.650904959
1.641890963
1.635305052
1.632862785
1.628674208
1.621895075
1.614336929
1.606127853
1.598480995
1.594650359
1.590412636
1.827450585
1.802697239
1.801140043
1.812738989
1.813796179
1.809865118
1.79753467
1.773778483
1.741985024
1.71449047
1.699968126
1.696213228
1.696290771
1.698093728
1.700295344
1.699795797
1.698176401
1.694973109
1.690647151
1.685364932
1.678693925
1.670672098
1.661797232
1.653271927
1.645279202
1.640215533
1.635930322
1.629910871
1.622301656
1.614219293
1.606640866
1.599379597
1.595767962
1.591820564
1.819041675
1.799806865
1.801436376
1.81230493
1.814643396
1.812933842
1.805175065
1.785442697
1.755267845
1.724028135
1.703094689
1.697092915
1.696386169
1.698196605
1.700853242
1.700439108
1.699251773
1.696850353
1.693542404
1.688670578
1.681876178
1.673075587
1.664250039
1.656499549
1.649587893
1.64341225
1.637803848
1.630805544
1.622127528
1.614283911
1.607529038
1.600590105
1.597547021
1.594073643
1.821458376
1.80487964
1.806541356
1.813412193
1.816991068
1.816782112
1.812416452
1.797821546
1.770050072
1.736244072
1.70911117
1.69849422
1.69689335
1.698487383
1.701574018
1.701625708
1.701062461
1.699612248
1.697055364
1.691851728
1.684090938
1.674959441
1.666935429
1.65965306
1.652154067
1.645490346
1.639182298
1.630931619
1.621977831
1.61508531
1.608691405
1.602543789
1.600012421
1.595885454
1.816661532
1.815019623
1.819813326
1.823982821
1.823775104
1.820167818
1.809678151
1.785212733
1.750371935
1.718238889
1.701757116
1.698131856
1.699153901
1.702280245
1.70254095
1.702130274
1.701061532
1.698748054
1.693391233
1.685527905
1.676356769
1.66903431
1.661550716
1.653962289
1.646978499
1.639742456
1.631044464
1.622924528
1.616406012
1.610427294
1.605546683
1.602051752
1.596714312
1.828798672
1.827378421
1.834295486
1.833976867
1.830510441
1.82671507
1.819000559
1.798835683
1.765782565
1.730585784
1.70778188
1.70068536
1.700586947
1.702798273
1.702419958
1.701764426
1.700983107
1.699168025
1.694223525
1.685987554
1.677476532
1.670672868
1.662909747
1.655107625
1.647709177
1.640516429
1.6325724
1.624639354
1.618119151
1.613158826
1.608390347
1.603070385
1.597332038
1.842505126
1.844982455
1.843776623
1.83747158
1.831591322
1.829361588
1.824277013
1.809252356
1.781029302
1.745841822
1.716956482
1.704200673
1.702318956
1.703283679
1.702077427
1.700918257
1.700446747
1.698913295
1.693943596
1.686007168
1.679024356
1.671992739
1.664069625
1.656170498
1.64917666
1.642684424
1.634827832
1.626671688
1.620860787
1.616420731
1.609928267
1.603648598
1.59748847
1.859536116
1.859377004
1.851497057
1.83948946
1.832130264
1.83086536
1.826453193
1.815601061
1.794314893
1.762307839
1.728898256
1.709261874
1.703442543
1.703546155
1.701884913
1.699972161
1.699261254
1.697398212
1.692826692
1.686767711
1.680644181
1.673543698
1.665857042
1.658387444
1.651920288
1.645230188
1.637126924
1.629679829
1.62468204
1.618681654
1.610845583
1.603648985
1.597769577
1.872805462
1.872386193
1.860532932
1.841542127
1.831555602
1.828956793
1.824092289
1.817292258
1.804485414
1.777789249
1.742408886
1.715882324
1.705281884
1.703758609
1.701864619
1.69939131
1.697768418
1.695526237
1.692609127
1.687843714
1.68214743
1.675289476
1.66802629
1.660994248
1.654636052
1.647674166
1.640263155
1.63392145
1.627536168
1.619917209
1.610980524
1.603836449
1.598634198
1.880212817
1.881134107
1.865792859
1.841004465
1.826170955
1.82037821
1.818812237
1.817087957
1.811675695
1.790869478
1.756520724
1.724883302
1.70823187
1.703915328
1.701921056
1.699141793
1.696990869
1.694864233
1.692704424
1.688931934
1.683705529
1.677123334
1.670240245
1.663482046
1.657336152
1.650887109
1.644628884
1.63716451
1.62896377
1.620406435
1.610827282
1.604754995
1.59968983
1.881638216
1.880313768
1.860948833
1.831853448
1.817334752
1.815449068
1.818825689
1.81962278
1.816168656
1.800997158
1.770402182
1.735507949
1.712760753
1.704319556
1.702026854
1.699182432
1.696917714
1.694532654
1.693010848
1.690568605
1.685866947
1.679340214
1.672557123
1.665994202
1.660866763
1.655370218
1.647846676
1.63882022
1.629647912
1.620271479
1.611268728
1.606009967
1.601243873
1.869273478
1.864742482
1.845180936
1.821727652
1.814865345
1.816361883
1.821510666
1.823673975
1.820250245
1.80838368
1.782752463
1.747309509
1.719188336
1.705893823
1.702085296
1.699308779
1.696976203
1.694470922
1.694236298
1.693432386
1.688845587
1.681792722
1.675133507
1.66908442
1.665173944
1.658467167
1.649544478
1.639760417
1.629537622
1.620447654
1.612770295
1.607669855
1.603704474
1.855457678
1.843470132
1.824241264
1.818678866
1.821195478
1.824969508
1.827471302
1.824995808
1.813679563
1.791610151
1.75871564
1.727218906
1.708970479
1.702290885
1.699513618
1.697178509
1.695345466
1.696644153
1.696261356
1.690384359
1.683140528
1.677000256
1.672189541
1.667892896
1.660230899
1.650673447
1.639753731
1.629645758
1.621955975
1.614599257
1.610243617
1.606648432
1.85880316
1.850616621
1.835260943
1.828369113
1.828786951
1.83082024
1.832301954
1.829856925
1.819662326
1.79930319
1.769716994
1.737394039
1.713672217
1.703382569
1.699982911
1.69818981
1.697259977
1.698157772
1.696866587
1.690785605
1.683894213
1.678220826
1.674184575
1.669780939
1.661527011
1.650948553
1.639772507
1.631264653
1.624014933
1.617403395
1.613552308
1.608791801
1.600958619
1.862526717
1.857332752
1.846268566
1.839999233
1.839516287
1.841780616
1.8398775
1.834836546
1.825956699
1.809211447
1.782489196
1.750041361
1.720774557
1.705942161
1.700569919
1.699938905
1.698277522
1.698102913
1.696827502
1.690797561
1.684041771
1.679062356
1.675776548
1.670938094
1.662096267
1.651338213
1.641354946
1.633551808
1.626401403
1.621380103
1.616469084
1.609888463
1.601049354
1.863934692
1.863816007
1.857044446
1.853459354
1.853015074
1.849954453
1.84494248
1.839573445
1.831885076
1.819220663
1.796763813
1.764685385
1.730543494
1.710098324
1.701845494
1.700982567
1.698317427
1.697547096
1.696248642
1.690159148
1.684033734
1.680349865
1.676898658
1.671606972
1.662887928
1.653006348
1.643658059
1.635995059
1.630091029
1.625182429
1.618130348
1.61029424
1.600890957
1.866243839
1.873931234
1.871163171
1.869558871
1.86395522
1.855518267
1.847596371
1.842185879
1.837054205
1.828305757
1.810432891
1.780001833
1.742631693
1.715693098
1.704038971
1.701753392
1.698125513
1.696517805
1.694669529
1.689284065
1.684519819
1.68164454
1.67839862
1.672809577
1.664567287
1.655158602
1.646061793
1.639417836
1.634562229
1.627550044
1.619065944
1.610052406
1.601369737
1.872442819
1.884452013
1.883026189
1.879214935
1.871698582
1.860204234
1.849112716
1.843511907
1.839660414
1.83492598
1.821410061
1.794195043
1.756162138
1.723876446
1.707435713
1.702717517
1.698008764
1.695150537
1.693060419
1.689058298
1.6850934
1.68283481
1.679981033
1.674410325
1.66647658
1.657335476
1.649198935
1.64406029
1.637541886
1.628967327
1.619063519
1.610142583
1.602736201
1.872677873
1.885711243
1.884953311
1.882981667
1.875162495
1.861057749
1.848268385
1.843015831
1.840609211
1.83842578
1.829096312
1.805957313
1.769920126
1.734184523
1.711923716
1.704199414
1.698173999
1.694096194
1.692308888
1.688939481
1.685582934
1.684023993
1.681488864
1.676052697
1.668438753
1.659893401
1.653509165
1.647460683
1.639326435
1.62943355
1.618746631
1.611382947
1.604285368
1.860611451
1.878588837
1.883940573
1.881230566
1.870626622
1.854718636
1.842972015
1.839633529
1.839813179
1.839251759
1.832444342
1.814247279
1.782901099
1.74633569
1.718485084
1.706076745
1.698621607
1.694015122
1.69199447
1.688872848
1.686194809
1.685493558
1.683216828
1.677842655
1.670665343
1.663504368
1.656910322
1.649332423
1.640295303
1.628960344
1.619574568
1.613140783
1.60653774
1.8666249
1.874671034
1.865336401
1.853628389
1.842784539
1.838206728
1.837074484
1.837549414
1.83714695
1.831532547
1.819616766
1.794413158
1.759251828
1.727324258
1.708956606
1.699015525
1.694223761
1.691913223
1.689249699
1.687612397
1.687727858
1.685516807
1.680194474
1.673677281
1.666462647
1.658662183
1.650340365
1.640144092
1.629153349
1.621432223
1.615271781
1.610106028
1.845059357
1.851619766
1.84890682
1.846017719
1.840968009
1.8387415
1.83765506
1.837257739
1.836247648
1.831701815
1.823582571
1.803907662
1.771940754
1.737814084
1.71352744
1.699939719
1.695081967
1.692644563
1.69102341
1.690271229
1.68998863
1.687285574
1.682112779
1.675435933
1.66785095
1.659591512
1.650296119
1.640274254
1.63094308
1.623569569
1.618448844
1.613735517
1.816814383
1.835722805
1.847532582
1.848918899
1.846646613
1.844202687
1.841325669
1.83969109
1.838884742
1.835549489
1.827788512
1.811772234
1.783737553
1.749417566
1.719915282
1.702243637
1.697277897
1.694367197
1.692733989
1.691668857
1.691016698
1.687704517
1.682484313
1.676123871
1.668535559
1.659580231
1.65066048
1.642148752
1.633177018
1.626588886
1.622317718
1.615970128
1.800327602
1.82962805
1.848337902
1.853766689
1.854898057
1.85295078
1.848073465
1.844417148
1.843227364
1.840151903
1.832966624
1.818262467
1.794251748
1.761329337
1.728367955
1.706206224
1.699620707
1.69514419
1.692558192
1.692076917
1.691224523
1.687732376
1.682446015
1.67617908
1.668643066
1.660080476
1.652768229
1.64454383
1.636081009
1.630808
1.62531119
1.617178099
1.788099257
1.823168089
1.847786855
1.858056259
1.863537224
1.862721123
1.856990799
1.851126686
1.84888189
1.844963136
1.838122835
1.824505401
1.803390358
1.773020314
1.738363672
1.711778067
1.701696534
1.695345547
1.691846653
1.692223304
1.691132113
1.687247032
1.681888265
1.676097124
1.669384342
1.662061666
1.655169707
1.647156345
1.640280953
1.634682431
1.626947294
1.617495511
1.778455351
1.819401574
1.849989952
1.866169785
1.874565711
1.874561948
1.868497421
1.86064183
1.855451749
1.850251661
1.842921075
1.830806378
1.812292404
1.784679265
1.749941526
1.719054571
1.704251431
1.695819439
1.691360123
1.69207492
1.690556003
1.686597132
1.681579782
1.676444387
1.670775588
1.664011222
1.657559338
1.651039729
1.644602504
1.636771167
1.627742521
1.617287751
1.773797101
1.819762138
1.857130583
1.880890826
1.890048758
1.888741637
1.880532241
1.869147902
1.860875821
1.853938568
1.847014726
1.83699919
1.821355827
1.796352539
1.762454879
1.728194385
1.707700387
1.696760746
1.690908176
1.691279601
1.689582844
1.686209448
1.681650952
1.677172706
1.672144461
1.665864575
1.660955478
1.655536795
1.647228312
1.637897707
1.627707577
1.617736943
1.775809562
1.823655245
1.861679515
1.887161802
1.89955212
1.897446702
1.888610327
1.876335605
1.867249664
1.858702903
1.850851561
1.84255615
1.830497299
1.80903482
1.776838685
1.740412263
1.713273532
1.69796013
1.690355481
1.690734274
1.688830024
1.685667325
1.681716105
1.677926293
1.673563316
1.668840016
1.665535319
1.658536288
1.648873068
1.637983416
1.627806842
1.619258449
1.762156196
1.814301233
1.852389074
1.880393864
1.897142315
1.898741216
1.889134234
1.875525536
1.866578666
1.860162237
1.853767822
1.846981801
1.837259218
1.820229058
1.791799114
1.755064741
1.721509845
1.700595039
1.690337011
1.690853132
1.687868341
1.684932248
1.681888068
1.67903434
1.675866407
1.673190167
1.668687274
1.66059587
1.649497593
1.638304957
1.629624911
1.621210857
1.758108833
1.79854207
1.827833901
1.849452612
1.86387999
1.86860455
1.870552378
1.869789458
1.867352617
1.861351845
1.854442826
1.846270093
1.833314004
1.812329647
1.781969103
1.747711034
1.72032448
1.703945438
1.697285254
1.69176213
1.687009677
1.68320384
1.680176237
1.677489019
1.673743788
1.669109138
1.662259887
1.653145158
1.64506157
1.638122399
1.630253081
1.687209919
1.739451369
1.775103106
1.805739842
1.834486476
1.854742157
1.867357667
1.87147144
1.871667003
1.871214769
1.868491713
1.86196368
1.852294328
1.838641715
1.819570989
1.794540652
1.76628573
1.738718739
1.717193622
1.701778533
1.692608007
1.686350795
1.682748582
1.679696234
1.675310705
1.670454802
1.665762966
1.659856083
1.654206435
1.648555708
1.640215814
1.574313881
1.679846903
1.727843065
1.764372834
1.795306111
1.822585834
1.844240086
1.855560196
1.864917316
1.869156929
1.872499333
1.872047349
1.867667843
1.859234653
1.848417483
1.833441772
1.813262308
1.78708991
1.758690751
1.733289927
1.714791766
1.70171427
1.692248088
1.684065061
1.676577617
1.670990204
1.668559077
1.66450737
1.660168493
1.655715871
1.647698802
1.295441912
1.586008642
1.673326375
1.716588629
1.751345036
1.780737474
1.806746134
1.830356562
1.849509546
1.862351054
1.871014063
1.871523238
1.870964496
1.869238933
1.864738482
1.857240705
1.846770285
1.829805929
1.806691633
1.779103566
1.75121045
1.726623415
1.707491697
1.694240514
1.683555072
1.676249753
1.673802092
1.669877577
1.664191857
1.65891245
1.651905587
0.8828556109
1.363400091
1.588771245
1.667893426
1.705332585
1.733581951
1.760875519
1.788057584
1.813480278
1.836306925
1.852671205
1.863263883
1.869050204
1.870517659
1.869902537
1.867409201
1.861766163
1.854256601
1.841880006
1.823056554
1.798147411
1.76936584
1.742680508
1.720851759
1.704064255
1.690940002
1.683707339
1.676250953
1.667471124
1.661271959
1.655116405
0.7553954281
0.9635752324
1.399202675
1.589130346
1.665373891
1.689938548
1.71386491
1.741900879
1.771008641
1.798741641
1.82502527
1.845830608
1.860804682
1.867588685
1.868594399
1.867481127
1.866851798
1.864870229
1.859300751
1.849683536
1.834176415
1.81315507
1.786769651
1.759501734
1.734094192
1.712403833
1.696268657
1.685840203
1.67495604
1.666925652
1.660771093
0.7643465115
0.7715109077
1.046623907
1.424510338
1.595834996
1.653339731
1.676196345
1.701347573
1.727356776
1.75289886
1.779893569
1.806156722
1.829719269
1.846908303
1.856387737
1.861343551
1.865148317
1.868270315
1.868053246
1.864162518
1.85607605
1.843435407
1.826299981
1.803931301
1.777327463
1.751000207
1.727709021
1.70987009
1.694847743
1.682769216
1.672716358
0.7765185809
0.7729044414
0.791398229
1.094248844
1.464675884
1.599573739
1.64081597
1.665917249
1.688247542
1.709542812
1.731689335
1.757146509
1.785504225
1.812075483
1.834380904
1.847703056
1.857066097
1.863277062
1.866280854
1.86623445
1.865889863
1.862660051
1.854730269
1.840443981
1.820232609
1.795546531
1.769680322
1.745864558
1.723675362
1.703852878
1.688356483
0.7886449997
0.7852148379
0.784160225
0.8159396223
1.17451481
1.50735616
1.592753522
1.62850497
1.649552205
1.667137438
1.6854759
1.707671378
1.735933507
1.767167262
1.794784231
1.815776339
1.832160394
1.84437322
1.855497129
1.863264717
1.866470556
1.866308193
1.864033746
1.858116306
1.84763288
1.831947362
1.812821249
1.790274678
1.765569748
1.741726347
1.720688943
0.7993682253
0.7968599274
0.7927727137
0.7916133132
0.8581954245
1.28560155
1.518733781
1.584214421
1.613110855
1.628568979
1.644841286
1.666297291
1.694020247
1.723435982
1.749744833
1.772814726
1.794372501
1.816515315
1.83659959
1.852306319
1.862046478
1.862575782
1.8618134
1.858548381
1.853882072
1.847669203
1.838042606
1.824498856
1.806222035
1.785445314
1.76251953
0.8106528446
0.8079372068
0.8048157677
0.7997347129
0.80090912
0.9367467753
1.33418313
1.513838575
1.57929943
1.599470786
1.61652835
1.640225501
1.663793378
1.685589928
1.7047889
1.723255643
1.744030115
1.770203107
1.797860514
1.823512041
1.842037838
1.849019363
1.855127648
1.856091567
1.854876612
1.850803156
1.845109575
1.83782161
1.828834731
1.817145709
1.802449032
0.822193913
0.8186707625
0.8154857675
0.811955008
0.8072277808
0.8112823409
1.006516843
1.345380387
1.519774217
1.577794085
1.603611945
1.621638403
1.636611384
1.651141422
1.663050284
1.675549955
1.693510716
1.719634034
1.751968058
1.784842006
1.811346558
1.827750449
1.838868383
1.844838655
1.84834143
1.847370273
1.84486846
1.842133034
1.838436895
1.833417041
1.824052452
0.8330862171
0.8293593753
0.8258855158
0.8229404434
0.8193243533
0.8146196266
0.8251640187
1.039262138
1.389621862
1.541823127
1.581572914
1.599797759
1.609825912
1.620866786
1.628666015
1.636975097
1.651295206
1.674763771
1.706321661
1.739243667
1.766573616
1.78707806
1.802125641
1.815550455
1.826979475
1.835042434
1.839732899
1.840764141
1.840080165
1.838382925
1.833860001
0.8442183015
0.840154188
0.8366499335
0.8331761074
0.8297114644
0.8255101902
0.8228914057
0.8385111861
1.103709471
1.458433876
1.543611318
1.572323643
1.584021536
1.590883731
1.596472954
1.604359732
1.619008076
1.642159985
1.669498378
1.695309731
1.717356853
1.736638138
1.755644851
1.776362616
1.797064005
1.815520576
1.826589609
1.832586581
1.834551564
1.834074046
1.833152243
0.8538265789
0.8501191687
0.84651761
0.8427500834
0.8394558629
0.836412302
0.8303787694
0.8307301993
0.8670471434
1.230563579
1.480434065
1.537577427
1.559392046
1.563227519
1.568281417
1.579121424
1.59851944
1.620800636
1.640773886
1.657465713
1.670753291
1.684129477
1.701368234
1.725389628
1.753299422
1.779723558
1.797877233
1.81016132
1.817480739
1.822318975
1.828099659
0.863749623
0.8603896974
0.8566993068
0.8529504181
0.8495421743
0.846062644
0.8420593764
0.8368735778
0.8372428975
0.9305252301
1.306118129
1.477290957
1.526450874
1.54475774
1.552770058
1.567463303
1.58761376
1.603303678
1.613764374
1.622631417
1.629025175
1.637184368
1.651847934
1.676091564
1.707337614
1.737772022
1.76163584
1.778210214
1.790773042
1.801951045
1.812683053
0.8711094619
0.8680986709
0.8648231003
0.8615579694
0.8580341942
0.8545176773
0.8515390006
0.8476474222
0.8421000635
0.8454695909
1.005765831
1.318317049
1.469685633
1.522189092
1.54368659
1.561327583
1.57766953
1.584219922
1.588868652
1.592140363
1.59368324
1.598541386
1.611683483
1.635897983
1.666300196
1.694385537
1.7159067
1.732572665
1.747849523
1.764143366
1.781732362
0.8765407903
0.8745657968
0.8722729197
0.8696118416
0.8666529418
0.8635525554
0.8604805347
0.8571519041
0.8529460289
0.8488624576
0.8574111218
1.040071997
1.338308735
1.485116866
1.537878261
1.554080493
1.560963503
1.563192956
1.566280209
1.566582993
1.565433929
1.569605974
1.584548357
1.608610323
1.633649576
1.654397593
1.669877993
1.683087727
1.698578958
1.718374019
1.742221015
0.8792951068
0.8783424142
0.876952099
0.8751536525
0.8729149399
0.8704207146
0.8674724275
0.8645564464
0.8617225462
0.8572830935
0.8549215
0.8694294743
1.075581907
1.397333944
1.509782029
1.536474758
1.541954494
1.541652146
1.543731133
1.54216822
1.542626584
1.551324291
1.570563167
1.590633529
1.606457446
1.618180291
1.626405593
1.635096763
1.648874604
1.669882886
1.69691288
0.8803707738
0.8800256383
0.8794648021
0.8786158233
0.8773770921
0.8757941901
0.8737454738
0.8715888746
0.8689879718
0.8663417738
0.8615403428
0.8606733113
0.8861084506
1.175243673
1.443653468
1.508099797
1.522541161
1.522025575
1.519932394
1.521362357
1.528759257
1.544427839
1.563512976
1.574892363
1.582283341
1.586532908
1.589088889
1.593975542
1.605922954
1.627069325
1.654420191
0.8807289959
0.8806103169
0.88042578
0.8801070531
0.8796005034
0.8787938057
0.8777065781
0.8762069043
0.8743165032
0.8723736389
0.8693544898
0.8645694416
0.8651403562
0.9309543525
1.278224143
1.458475391
1.495709504
1.505153861
1.507288862
1.512565421
1.525383184
1.543400587
1.555126819
1.557110444
1.559012989
1.558897613
1.558623092
1.561410449
1.573036266
1.594557587
1.619613037
0.8808805024
0.8808376758
0.880770867
0.8806606093
0.8804753579
0.8801840248
0.8797271209
0.8790307491
0.878044493
0.8767108823
0.8751447415
0.8724559485
0.8689450825
0.8713641768
1.011696054
1.316470742
1.448796524
1.483504794
1.500714111
1.512493029
1.526494183
1.54079087
1.541219731
1.539034293
1.536844327
1.533813298
1.533439566
1.537615731
1.552347072
1.573002268
1.592443626
0.8809240854
0.8809175654
0.8808998542
0.880865349
0.8808116942
0.8807237615
0.8805657921
0.8803002868
0.8798609766
0.8791988952
0.8782916418
0.8771244239
0.8747440488
0.8723432189
0.883051321
1.065089249
1.330783985
1.448613835
1.491240229
1.509677628
1.526977568
1.530391828
1.52748635
1.523522258
1.517850996
1.513385604
1.514801028
1.524170846
1.541911807
1.557588917
1.570085248
0.8809052572
0.8809252753
0.8809204846
0.8809185571
0.8809164434
0.880902667
0.8808593245
0.8807676026
0.8806167572
0.8803692103
0.879977068
0.8794424537
0.8785561062
0.8763986365
0.8760946015
0.8964431234
1.092889847
1.367334391
1.473708262
1.503825639
1.518443624
1.516479571
1.511782792
1.507736048
1.500342196
1.499187403
1.504628559
1.51975381
1.53515964
1.543554203
1.548907085
0.8809195185
0.8809300495
0.8809180964
0.8809206898
0.8809298029
0.8809286524
0.8809098375
0.8808818824
0.8808448192
0.8807905175
0.8806715581
0.8804451253
0.8801269207
0.8794208921
0.8776984785
0.8779796955
0.9082657705
1.156602968
1.415185592
1.487361939
1.50138023
1.499487547
1.49575932
1.48894434
1.487218821
1.490894883
1.502760288
1.519657965
1.526788857
1.528588119
1.528672715
0.8808175694
0.8808352662
0.8808611293
0.8809056741
0.8809240847
0.8809077193
0.88086587
0.8808625151
0.8808832132
0.8808967149
0.8808824291
0.880819847
0.880697718
0.8805190758
0.879945019
0.8789119798
0.8796201537
0.9358547756
1.248825785
1.442794989
1.480183567
1.485877324
1.482727687
1.479248742
1.48093875
1.489151795
1.50450261
1.515754671
1.515263549
1.513384861
1.509868446
0.8802639596
0.8805196132
0.8807288875
0.8807456995
0.8807657838
0.8807888371
0.8808138737
0.8808564209
0.880904724
0.8809135283
0.880905755
0.8808690876
0.8808294553
0.8807949342
0.8807202979
0.8803446465
0.8799042793
0.8823539417
0.9963905408
1.311743821
1.438418074
1.466767532
1.472149249
1.475403409
1.480984463
1.492099128
1.505095753
1.505166679
1.501944173
1.497376709
1.4909115
0.8797076346
0.8799704419
0.8802314325
0.8804050062
0.8805291814
0.8806863842
0.8808068303
0.880854686
0.8808926747
0.8808960786
0.8808796276
0.8808357525
0.8808334865
0.8808579043
0.880861448
0.8808212689
0.8805295865
0.8805658325
0.8897517912
1.070785362
1.320390258
1.433859711
1.463146105
1.471927081
1.480331927
1.493528139
1.49687666
1.493741738
1.488458789
1.481356248
1.474259446
0.8793988667
0.8794413507
0.8796277021
0.8799385516
0.8801879314
0.8803920132
0.8806015856
0.8806719827
0.8807279657
0.8807743
0.8808069252
0.8808221661
0.8808426159
0.8808700503
0.8808689363
0.8808482635
0.8808087653
0.8806945754
0.8808958009
0.9035179777
1.095673944
1.344980699
1.449771916
1.470986505
1.480691516
1.488045176
1.485953952
1.480686058
1.474607331
1.465102433
1.462999184
0.8793593253
0.8793400313
0.8794150278
0.879560011
0.8796968515
0.8797735903
0.879953495
0.8802194527
0.8804405644
)
;

boundaryField
{
    inlet
    {
        type            fixedValue;
        value           nonuniform 0();
    }
    outlet
    {
        type            inletOutlet;
        inletValue      nonuniform 0();
        value           nonuniform 0();
    }
    bottom
    {
        type            slip;
    }
    top
    {
        type            slip;
    }
    obstacle
    {
        type            zeroGradient;
    }
    defaultFaces
    {
        type            empty;
    }
    procBoundary28to21
    {
        type            processor;
        value           nonuniform List<scalar> 
19
(
1.782684653
1.7748678
1.775337838
1.779727373
1.787488149
1.79820744
1.808079604
1.808079604
1.818483399
1.830531458
1.842737988
1.848596252
1.843583304
1.83092868
1.829876041
1.82972244
1.82972244
1.838255631
1.848100604
)
;
    }
    procBoundary28to22
    {
        type            processor;
        value           nonuniform List<scalar> 
35
(
1.693608934
1.694838661
1.695044522
1.694341425
1.691785832
1.688218487
1.684113631
1.679749109
1.672363308
1.664057188
1.657623237
1.650672701
1.642590286
1.635422819
1.627918787
1.620184976
1.614321812
1.61067268
1.607739358
1.605299935
1.601170686
1.594684644
1.591265008
1.587769041
1.806890952
1.810050994
1.799811059
1.778354956
1.746777268
1.717761633
1.699111657
1.692345338
1.690109911
1.691381674
1.691381674
)
;
    }
    procBoundary28to23
    {
        type            processor;
        value           uniform 1.581274576;
    }
    procBoundary28to27
    {
        type            processor;
        value           nonuniform List<scalar> 
55
(
1.86180162
1.874965231
1.880526084
1.882053381
1.875007253
1.852354946
1.852354946
1.847942846
1.842632271
1.834503107
1.826562939
1.822458942
1.816727139
1.798064074
1.84219197
1.84219197
1.820364131
1.791605172
1.770276783
1.752684905
1.73916024
1.730571503
1.718392898
1.682461465
1.691307513
1.691307513
1.559711689
1.240202447
0.8243100605
0.7450679661
0.7536652642
0.7679037019
0.7792701786
0.7909892535
0.8028306629
0.8141469757
0.8254965309
0.8366224107
0.8480898026
0.8577782218
0.8671871968
0.8737187915
0.8780205959
0.8799210849
0.8805706237
0.8808114283
0.8809158065
0.8809314113
0.8808594716
0.8808205551
0.8806632926
0.8800144723
0.8795309378
0.8794811172
0.879600927
)
;
    }
    procBoundary28to29
    {
        type            processor;
        value           nonuniform List<scalar> 
70
(
1.581474217
1.581932324
1.582520194
1.583420622
1.585278811
1.586907171
1.587588453
1.587588453
1.582479398
1.583016626
1.583601327
1.584442046
1.586219389
1.588248403
1.588990475
1.589441002
1.589784598