/*--------------------------------*- C++ -*----------------------------------*\
  =========                 |
  \\      /  F ield         | OpenFOAM: The Open Source CFD Toolbox
   \\    /   O peration     | Website:  https://openfoam.org
    \\  /    A nd           | Version:  7
     \\/     M anipulation  |
\*---------------------------------------------------------------------------*/
FoamFile
{
    version     2.0;
    format      ascii;
    class       volScalarField;
    location    "3.9";
    object      p;
}
// * * * * * * * * * * * * * * * * * * * * * * * * * * * * * * * * * * * * * //

dimensions      [1 -1 -2 0 0 0 0];

internalField   nonuniform List<scalar> 
22
(
0.884816103
0.8962444971
0.8821042372
0.8915595636
0.8363062314
0.8792755439
0.9518897057
0.9080106265
0.972316942
0.9881672902
0.9500861789
1.014379782
1.020527834
0.9918251703
0.9855238198
1.017191514
1.020802679
0.989172199
1.0009556
1.017434388
1.01580533
1.010642814
)
;

boundaryField
{
    inlet
    {
        type            fixedValue;
        value           nonuniform 0();
    }
    outlet
    {
        type            zeroGradient;
    }
    bottom
    {
        type            slip;
    }
    top
    {
        type            slip;
    }
    obstacle
    {
        type            zeroGradient;
    }
    defaultFaces
    {
        type            empty;
    }
    procBoundary10to4
    {
        type            processor;
        value           nonuniform List<scalar> 4(0.946902042 1.008354273 0.9115212145 0.9115212145);
    }
    procBoundary10to5
    {
        type            processor;
        value           nonuniform List<scalar> 2(0.8950833278 0.9270202383);
    }
    procBoundary10to9
    {
        type            processor;
        value           nonuniform List<scalar> 5(0.9713172817 0.8208641276 0.822095867 0.822095867 0.790271757);
    }
    procBoundary10to11
    {
        type            processor;
        value           nonuniform List<scalar> 6(0.9866330735 0.9976191762 0.9952881683 0.9928467314 0.9829483453 0.9829483453);
    }
    procBoundary10to15
    {
        type            processor;
        value           nonuniform List<scalar> 3(0.8499283272 0.888991007 0.9297520017);
    }
    procBoundary10to16
    {
        type            processor;
        value           nonuniform List<scalar> 4(1.012631006 1.011199166 1.012631006 1.016750355);
    }
}


// ************************************************************************* //
