/*--------------------------------*- C++ -*----------------------------------*\
  =========                 |
  \\      /  F ield         | OpenFOAM: The Open Source CFD Toolbox
   \\    /   O peration     | Website:  https://openfoam.org
    \\  /    A nd           | Version:  7
     \\/     M anipulation  |
\*---------------------------------------------------------------------------*/
FoamFile
{
    version     2.0;
    format      ascii;
    class       volScalarField;
    location    "4.7";
    object      p;
}
// * * * * * * * * * * * * * * * * * * * * * * * * * * * * * * * * * * * * * //

dimensions      [1 -1 -2 0 0 0 0];

internalField   nonuniform List<scalar> 
555
(
1
1
1
1
1
1
1
1
1
1
1
1
1
1
1
1
1
1
1
1
1
1
1
1
1
1
1
1
1
1
1
1
1
1
1
1
1
1
1
1
1
1
1
1
1
1
1
1
1
1
1
1
1
1
1
1
1
1
1
1
1
1
1
1
1
1
1
1
1
1
1
1
1
1
1
1
1
1
1
1
1
1
1
1
1
1
1
1
1
1
1
1
1
1
1
1
1
1
1
1
1
1
1
1
1
1
1
1
1
1
1
1
1
1
1
1
1
1
1
1
1
1
1
1
1
1
1
1
1
1
1
1
1
1
1
1
1
1
1
1
1
1
1
1
1
1
1
1
1
1
1
1
1
1
1
1
1
1
1
1
1
1
1
1
1
1
1
1
1
1
1
1
1
1
1
1
1
1
1
1
1
1
1
1
1
1
1
1
1
1
1
1
1
1
1
1
1
1
1
1
1
1
1
1
1
1
1
1
1
1
1
1
1
1
1
1
1
1
1
1
1
1
1
1
1
1
1
1
1
1
1
1
1
1
1
1
1
1
1
1
1
1
1
1
1
1
1
1
1
1
1
1
1.000000002
1
1
1
1
1
1
1
1
1
1
1
1
1
1
1
1
1.000000002
1.000000089
1
1
1
1
1
1
1
1
1
1
1
1
1
1
1
1.000000002
1.000000068
1.000002482
1
1
1
1
1
1
1
1
1
1
1
1
1
1
1.000000002
1.000000082
1.000001848
1.000046153
1
1
1
1
1
1
1
1
1
1
1
1
1
1.000000002
1.000000061
1.000002252
1.000034491
1.000569147
1
1
1
1
1
1
1
1
1
1
1
1
1.000000002
1.00000007
1.00000162
1.000042393
1.000445918
1.004618049
1
1
1
1
1
1
1
1
1
1
1
1.000000001
1.000000051
1.000001938
1.000030245
1.000545141
1.003850696
1.024677961
1
1
1
1
1
1
1
1
1
1
1.000000001
1.000000055
1.000001356
1.000037557
1.000397975
1.004563191
1.022175002
1.086205716
1
1
1
1
1
1
1
1
1
1.000000001
1.000000041
1.000001613
1.000026395
1.000503703
1.003528456
1.0251305
1.082940586
1.197580028
1
1
1
1
1
1
1
1
1.000000001
1.00000004
1.000001126
1.000033142
1.000362034
1.004407643
1.021082634
1.087093573
1.205043614
1.328684856
1
1
1
1
1
1
1
1.000000001
1.000000033
1.000001319
1.000023164
1.000466093
1.003326
1.025064254
1.080974876
1.19817661
1.334747406
1.423854256
1
1
1
1
1
1
1.000000001
1.000000031
1.000000976
1.000029602
1.00033553
1.00425559
1.020387275
1.088335892
1.206062124
1.317625365
1.390404929
1.437888092
1
1
1
1
1
1
1.000000027
1.000001076
1.000020747
1.000434901
1.003196615
1.024798766
1.080251989
1.200857668
1.337881738
1.422761769
1.425082017
1.434582601
1
1
1
1
1
1.000000021
1.000000798
1.000024936
1.000302657
1.004041605
1.019850735
1.088762344
1.20719289
1.315401545
1.40091469
1.443559167
1.442427791
1.439187013
1
1
1
1
1.000000017
1.000000732
1.000016717
1.00037449
1.002918369
1.023773145
1.079073698
1.201850703
1.343409644
1.418702853
1.428530414
1.438246654
1.442284012
1.433515179
1
1
1
1.000000009
1.000000517
1.000017919
1.000247806
1.003606888
1.018575449
1.086852896
1.206393009
1.315140929
1.407804243
1.445355839
1.444449876
1.441921686
1.434811391
1.413729186
1
1
1.000000006
1.000000353
1.000011458
1.00029189
1.002520627
1.022148416
1.076686713
1.201289977
1.348100464
1.414920746
1.428457346
1.441841352
1.445657868
1.43739421
1.416020521
1.380303356
1
1.000000001
1.000000191
1.000009754
1.000180213
1.0030379
1.01700661
1.084339765
1.205498293
1.317601861
1.414411231
1.446868886
1.445712123
1.444494162
)
;

boundaryField
{
    inlet
    {
        type            fixedValue;
        value           nonuniform 0();
    }
    outlet
    {
        type            zeroGradient;
    }
    bottom
    {
        type            slip;
    }
    top
    {
        type            slip;
    }
    obstacle
    {
        type            zeroGradient;
    }
    defaultFaces
    {
        type            empty;
    }
    procBoundary3to2
    {
        type            processor;
        value           nonuniform List<scalar> 
18
(
1
1
1
1
1
1
1
1
1
1
1
1
1
1
1
1
1
1
)
;
    }
    procBoundary3to4
    {
        type            processor;
        value           nonuniform List<scalar> 
30
(
1
1
1
1
1
1
1
1
1
1
1
1
1.000000002
1.000000072
1.000002022
1.000039161
1.00050259
1.004258983
1.023318846
1.085450114
1.203145377
1.33161065
1.381444776
1.424207993
1.440010136
1.438498595
1.430379305
1.410495679
1.376748495
1.333957978
)
;
    }
    procBoundary3to8
    {
        type            processor;
        value           nonuniform List<scalar> 
14
(
1
1
1
1
1
1
1
1
1
1
1
1
1
1
)
;
    }
    procBoundary3to9
    {
        type            processor;
        value           nonuniform List<scalar> 
19
(
1.439044434
1.419270402
1.383760753
1.336169879
1
1.000000054
1.000005049
1.000184988
1.001982426
1.01978639
1.07334883
1.200375537
1.353533385
1.415481355
1.430009462
1.445133107
1.44789708
1.439044434
1.440870595
)
;
    }
}


// ************************************************************************* //
