/*--------------------------------*- C++ -*----------------------------------*\
  =========                 |
  \\      /  F ield         | OpenFOAM: The Open Source CFD Toolbox
   \\    /   O peration     | Website:  https://openfoam.org
    \\  /    A nd           | Version:  7
     \\/     M anipulation  |
\*---------------------------------------------------------------------------*/
FoamFile
{
    version     2.0;
    format      ascii;
    class       volVectorField;
    location    "4.5";
    object      U;
}
// * * * * * * * * * * * * * * * * * * * * * * * * * * * * * * * * * * * * * //

dimensions      [0 1 -1 0 0 0 0];

internalField   nonuniform List<vector> 10((2.948179197 0.001279939782 0) (2.971037573 0.004777843278 0) (2.967396952 -0.0001079795481 0) (2.985445862 0.001243378258 0) (2.976694652 0.00255382971 0) (2.992548109 -0.002954812401 0) (3.001587395 -0.01638527715 0) (3.000473615 -0.03544539046 0) (2.992497392 -0.01471506791 0) (2.988070283 0.000362548136 0));

boundaryField
{
    inlet
    {
        type            fixedValue;
        value           nonuniform 0();
    }
    outlet
    {
        type            inletOutlet;
        inletValue      uniform (3 0 0);
        value           nonuniform List<vector> 8((2.992548109 -0.002954812401 0) (3.001587395 -0.01638527715 0) (3.000473615 -0.03544539046 0) (2.992497392 -0.01471506791 0) (2.988070283 0.000362548136 0) (2.948179197 0.001279939782 0) (2.967396952 -0.0001079795481 0) (2.976694652 0.00255382971 0));
    }
    bottom
    {
        type            slip;
    }
    top
    {
        type            slip;
    }
    obstacle
    {
        type            slip;
    }
    defaultFaces
    {
        type            empty;
    }
    procBoundary35to28
    {
        type            processor;
        value           nonuniform List<vector> 4((2.982288118 -0.01748998744 0) (3.00321798 -0.03309764915 0) (2.997488282 -0.02751481609 0) (2.997488282 -0.02751481609 0));
    }
    procBoundary35to29
    {
        type            processor;
        value           nonuniform List<vector> 3((2.930411615 -0.0005673159039 0) (2.940285838 0.002424646033 0) (2.940285838 0.002424646033 0));
    }
    procBoundary35to34
    {
        type            processor;
        value           nonuniform List<vector> 4((3.002652807 -0.01543107298 0) (3.003257583 -0.01059611077 0) (2.992217932 0.007243419009 0) (2.98415667 0.008984142447 0));
    }
}


// ************************************************************************* //
