/*--------------------------------*- C++ -*----------------------------------*\
  =========                 |
  \\      /  F ield         | OpenFOAM: The Open Source CFD Toolbox
   \\    /   O peration     | Website:  https://openfoam.org
    \\  /    A nd           | Version:  7
     \\/     M anipulation  |
\*---------------------------------------------------------------------------*/
FoamFile
{
    version     2.0;
    format      ascii;
    class       volVectorField;
    location    "4.1";
    object      U;
}
// * * * * * * * * * * * * * * * * * * * * * * * * * * * * * * * * * * * * * //

dimensions      [0 1 -1 0 0 0 0];

internalField   nonuniform List<vector> 
80000
(
(3 5.106187158e-16 0)
(3 2.241465954e-15 0)
(3 2.810153982e-15 0)
(3 3.127974389e-16 0)
(3 -1.678362625e-15 0)
(3 -1.860588648e-15 0)
(3 -5.544847133e-16 0)
(3 -7.06466679e-17 0)
(3 3.064653027e-16 0)
(3 1.114162805e-15 0)
(3 1.156153609e-15 0)
(3 1.364474319e-15 0)
(3 1.700912863e-15 0)
(3 1.220838051e-15 0)
(3 1.537455507e-15 0)
(3 1.471196986e-15 0)
(3 1.774294395e-15 0)
(3 -3.415936735e-16 0)
(3 -3.789261287e-16 0)
(3 3.224083875e-16 0)
(3 1.292420289e-16 0)
(3 6.91219353e-16 0)
(3 1.170377239e-15 0)
(3 -1.961137775e-16 0)
(3 -5.960250739e-16 0)
(3 -1.076554428e-15 0)
(3 -1.996226341e-15 0)
(3 -2.326947854e-15 0)
(3 -1.603861593e-15 0)
(3 -2.989511149e-15 0)
(3 -2.058977779e-15 0)
(3 -1.577994539e-15 0)
(3 -8.487700022e-16 0)
(3 -1.494234843e-15 0)
(3 -2.870527605e-15 0)
(3 -3.388322629e-15 0)
(3 -3.282739884e-15 0)
(3 -2.438323503e-15 0)
(3 1.448154853e-15 0)
(3 1.076346304e-15 0)
(3 1.243862712e-15 0)
(3 5.249897418e-16 0)
(3 4.145790629e-16 0)
(3 -1.859686401e-16 0)
(3 -1.053523095e-15 0)
(3 -1.279172261e-17 0)
(3 7.002419e-16 0)
(3 1.950740059e-15 0)
(3 2.276612393e-15 0)
(3 1.400635345e-15 0)
(3 1.408480525e-15 0)
(3 8.531604165e-16 0)
(3 9.067463679e-16 0)
(3 8.832200191e-16 0)
(3 4.437682682e-16 0)
(3 -5.759846311e-16 0)
(3 -2.402082895e-15 0)
(3 -2.934225342e-15 0)
(3 -3.14996646e-15 0)
(3 -2.734991815e-15 0)
(3 -1.572820117e-15 0)
(3 -1.127380625e-15 0)
(3 -1.464034704e-15 0)
(3 -6.801168985e-16 0)
(3 -6.545920361e-16 0)
(3 -1.289821866e-15 0)
(3 -1.401254871e-15 0)
(3 -2.039013712e-15 0)
(3 -1.922554956e-15 0)
(3 -1.205871982e-15 0)
(3 -1.462778098e-15 0)
(3 -6.042993805e-16 0)
(3 3.830872543e-16 0)
(3 4.298724711e-16 0)
(3 1.668595365e-15 0)
(3 2.703386876e-15 0)
(3 2.433297899e-15 0)
(3 6.123952961e-15 0)
(2.058327235 0.0009521242208 0)
(0.8296234106 0.002169687102 0)
(0.7553746412 -5.583519637e-05 0)
(0.7582972856 -0.0002476406428 0)
(0.7597300753 -0.0007802975958 0)
(0.7623950405 -0.001174314658 0)
(0.7657376767 -0.001426405153 0)
(0.7697110468 -0.001540654268 0)
(0.7741158356 -0.001513431758 0)
(0.778642081 -0.00133218633 0)
(0.7825920651 -0.0008006919392 0)
(0.7856101793 -0.0002829087468 0)
(0.7874591578 2.061559097e-05 0)
(0.7887464264 -4.949010952e-05 0)
(0.7896932796 -0.0002897584769 0)
(0.7908244482 -0.0004737404814 0)
(0.7918068477 -0.0006906321823 0)
(0.7930835128 -0.000795548508 0)
(0.7947767251 -0.0008096793081 0)
(0.796973761 -0.0007442291105 0)
(0.7996230276 -0.0006448046965 0)
(0.802565154 -0.0005456126323 0)
(3 1.822422473e-15 0)
(3 3.860838488e-15 0)
(3 3.75307271e-15 0)
(3 1.714164417e-15 0)
(3 -9.2715541e-16 0)
(3 -6.940010674e-16 0)
(3 1.868536345e-15 0)
(3 3.431365685e-15 0)
(3 2.086803865e-15 0)
(3 3.862526547e-16 0)
(3 -2.411443418e-16 0)
(3 -8.588139594e-17 0)
(3 2.24308283e-16 0)
(3 6.010100624e-16 0)
(3 7.669052072e-16 0)
(3 3.315477992e-16 0)
(3 9.450158707e-17 0)
(3 -7.519814433e-16 0)
(3 -1.386249179e-15 0)
(3 -7.820457523e-16 0)
(3 -5.652526931e-16 0)
(3 -1.210502668e-15 0)
(3 -5.217164452e-16 0)
(3 -1.062769564e-15 0)
(3 -1.640589754e-15 0)
(3 -2.105722675e-15 0)
(3 -3.579650209e-15 0)
(3 -3.746284903e-15 0)
(3 -3.61202294e-15 0)
(3 -3.347275468e-15 0)
(3 -2.818822022e-15 0)
(3 -1.319936695e-15 0)
(3 -1.851885834e-16 0)
(3 -1.790285503e-15 0)
(3 -4.470081722e-15 0)
(3 -5.064033592e-15 0)
(3 -4.39365354e-15 0)
(3 -1.831472105e-15 0)
(3 -4.76774569e-16 0)
(3 -1.068220245e-15 0)
(3 -1.267865377e-16 0)
(3 -3.973025913e-16 0)
(3 3.302275336e-16 0)
(3 6.058222074e-16 0)
(3 -3.417763159e-16 0)
(3 2.01402595e-15 0)
(3 2.821573579e-15 0)
(3 5.460793783e-15 0)
(3 6.552630766e-15 0)
(3 5.721482094e-15 0)
(3 3.558935025e-15 0)
(3 1.745875393e-15 0)
(3 1.258099319e-15 0)
(3 1.957666152e-15 0)
(3 8.265926591e-16 0)
(3 -6.277817964e-16 0)
(3 -2.060344461e-15 0)
(3 -2.451963156e-15 0)
(3 -3.023920253e-15 0)
(3 -3.271155068e-15 0)
(3 -2.388699187e-15 0)
(3 -3.54700393e-15 0)
(3 -2.478496946e-15 0)
(3 -5.640305275e-16 0)
(3 -8.803692286e-16 0)
(3 -3.167130691e-15 0)
(3 -1.459407102e-15 0)
(3 -2.368371704e-15 0)
(3 -2.284696719e-15 0)
(3 -2.280372942e-15 0)
(3 -2.561176192e-15 0)
(3 -2.469024066e-15 0)
(3 -3.504031208e-16 0)
(3 -1.229256834e-15 0)
(3 -1.449835636e-15 0)
(3 -1.66146439e-16 0)
(3 7.051834848e-16 0)
(3 7.576418948e-15 0)
(2.058180769 0.003264035026 0)
(0.828993525 0.006248077711 0)
(0.7555560822 -5.034912778e-05 0)
(0.7587086986 -0.0007187878002 0)
(0.760297887 -0.002255296064 0)
(0.7631596659 -0.00334471642 0)
(0.7666341241 -0.00399832542 0)
(0.7706581584 -0.004250096341 0)
(0.7749424399 -0.004078002902 0)
(0.7791673622 -0.003494887979 0)
(0.78249619 -0.002197388112 0)
(0.7851388361 -0.0008448769079 0)
(0.7870358542 -0.0003414341482 0)
(0.7884564444 -0.0005831046686 0)
(0.7894305121 -0.001190508277 0)
(0.7906122601 -0.001696172126 0)
(0.791717695 -0.002137691714 0)
(0.7931647754 -0.002289773542 0)
(0.7949901977 -0.002093363965 0)
(0.7972216115 -0.001726813979 0)
(0.7998266203 -0.001311748433 0)
(0.8026744464 -0.000957438725 0)
(3 4.912967024e-16 0)
(3 2.280385002e-15 0)
(3 2.319708886e-15 0)
(3 4.348237613e-15 0)
(3 3.547524473e-15 0)
(3 2.347818116e-15 0)
(3 3.59816573e-15 0)
(3 3.500685035e-15 0)
(3 1.120675145e-15 0)
(3 -9.756084003e-16 0)
(3 -2.414575134e-16 0)
(3 4.06468432e-16 0)
(3 1.152437951e-15 0)
(3 9.394960566e-16 0)
(3 -1.158084251e-16 0)
(3 8.490570688e-16 0)
(3 -8.982350925e-16 0)
(3 2.110496685e-15 0)
(3 1.32890666e-15 0)
(3 3.708482821e-16 0)
(3 -3.09497734e-16 0)
(3 -2.916651226e-16 0)
(3 -1.470678782e-15 0)
(3 -6.851298275e-16 0)
(3 4.330483149e-16 0)
(3 -7.561830519e-16 0)
(3 -8.786271332e-16 0)
(3 -1.217368036e-15 0)
(3 -2.560095985e-15 0)
(3 -1.443882958e-15 0)
(3 5.800028886e-17 0)
(3 2.788403057e-16 0)
(3 -5.943117659e-16 0)
(3 -1.319443388e-15 0)
(3 -2.673452719e-15 0)
(3 -4.759117216e-15 0)
(3 -5.714550806e-15 0)
(3 -3.239630742e-15 0)
(3 -2.70571738e-15 0)
(3 -2.273234171e-15 0)
(3 -1.695330968e-15 0)
(3 -1.898515816e-16 0)
(3 -3.75349136e-16 0)
(3 1.552299973e-15 0)
(3 3.794177573e-15 0)
(3 5.096965025e-15 0)
(3 5.183478342e-15 0)
(3 4.972002466e-15 0)
(3 6.122411101e-15 0)
(3 6.125332871e-15 0)
(3 6.372389417e-15 0)
(3 6.240017062e-15 0)
(3 5.100111332e-15 0)
(3 1.719381619e-15 0)
(3 1.913000737e-15 0)
(3 3.540272773e-15 0)
(3 4.060612849e-15 0)
(3 3.611083743e-15 0)
(3 1.942544751e-15 0)
(3 2.430877678e-16 0)
(3 -2.920254161e-15 0)
(3 -4.380707705e-15 0)
(3 -5.422775058e-15 0)
(3 -5.777977259e-15 0)
(3 -5.54223148e-15 0)
(3 -6.044501631e-15 0)
(3 -6.561248845e-15 0)
(3 -3.617670457e-15 0)
(3 -5.469555333e-15 0)
(3 -6.765880307e-15 0)
(3 -7.445368803e-15 0)
(3 -7.439818485e-15 0)
(3 -5.858837756e-15 0)
(3 -2.037560193e-15 0)
(3 -1.073835425e-15 0)
(3 -8.062312018e-17 0)
(3 8.643941699e-16 0)
(3 8.23234361e-16 0)
(2.060981243 0.006039665777 0)
(0.82917497 0.009825206304 0)
(0.7558716102 -0.0005318128237 0)
(0.7590044905 -0.001642270119 0)
(0.7607873581 -0.003764230863 0)
(0.7636060974 -0.005552917826 0)
(0.7670319726 -0.006663617458 0)
(0.7709760955 -0.007106955094 0)
(0.7751082264 -0.006821672566 0)
(0.7789710463 -0.005705643369 0)
(0.7820145385 -0.003702822709 0)
(0.7844024407 -0.001784231648 0)
(0.7862723575 -0.0009536192106 0)
(0.7877392027 -0.001133098543 0)
(0.7888368268 -0.001901268457 0)
(0.7901414336 -0.002669166142 0)
(0.7915460138 -0.003309219677 0)
(0.7932670716 -0.003543731554 0)
(0.7952982967 -0.003318536916 0)
(0.7976170856 -0.00284527943 0)
(0.8002096237 -0.002273288421 0)
(0.8030182967 -0.001797282614 0)
(3 -1.808238789e-16 0)
(3 1.324772286e-15 0)
(3 1.600580607e-15 0)
(3 1.273421978e-15 0)
(3 1.146590306e-15 0)
(3 1.766052754e-15 0)
(3 1.033346959e-15 0)
(3 3.512941563e-16 0)
(3 2.170069084e-15 0)
(3 3.269639436e-15 0)
(3 2.285254255e-15 0)
(3 1.135244051e-15 0)
(3 1.300081622e-15 0)
(3 2.833338003e-15 0)
(3 4.413925215e-15 0)
(3 4.3367444e-15 0)
(3 2.713479591e-15 0)
(3 1.971055608e-15 0)
(3 2.650911077e-15 0)
(3 1.026469802e-15 0)
(3 5.945849004e-16 0)
(3 8.817800055e-16 0)
(3 1.04426926e-15 0)
(3 2.320848895e-16 0)
(3 1.46772916e-15 0)
(3 8.349728081e-16 0)
(3 4.45296486e-16 0)
(3 4.254473126e-16 0)
(3 8.881421804e-16 0)
(3 -9.249168208e-17 0)
(3 -1.814663497e-16 0)
(3 -1.65986508e-15 0)
(3 -1.729685877e-15 0)
(3 -4.824387429e-15 0)
(3 -5.203476988e-15 0)
(3 -4.92037143e-15 0)
(3 -5.198047228e-15 0)
(3 -3.838994434e-15 0)
(3 -5.008841001e-15 0)
(3 -3.488990572e-15 0)
(3 -2.254557783e-15 0)
(3 -8.449782755e-16 0)
(3 1.143614818e-15 0)
(3 1.615155999e-15 0)
(3 2.792080299e-15 0)
(3 6.610104296e-16 0)
(3 1.482434086e-15 0)
(3 3.063363018e-15 0)
(3 5.791819269e-15 0)
(3 7.057938754e-15 0)
(3 8.136480724e-15 0)
(3 8.678835471e-15 0)
(3 7.433006501e-15 0)
(3 6.121428341e-15 0)
(3 6.989821355e-15 0)
(3 9.217802788e-15 0)
(3 8.604648781e-15 0)
(3 6.493071488e-15 0)
(3 1.22581227e-15 0)
(3 6.314600613e-16 0)
(3 -2.028667179e-15 0)
(3 -2.528453411e-15 0)
(3 -5.184064659e-15 0)
(3 -7.391223898e-15 0)
(3 -7.302254233e-15 0)
(3 -5.604999874e-15 0)
(3 -6.845894585e-15 0)
(3 -6.808634343e-15 0)
(3 -7.166931386e-15 0)
(3 -6.058432844e-15 0)
(3 -5.872592337e-15 0)
(3 -6.255282071e-15 0)
(3 -7.647714389e-15 0)
(3 -7.718397035e-15 0)
(3 -5.540295658e-15 0)
(3 -2.944306777e-15 0)
(3 7.037291529e-16 0)
(3 2.136960335e-15 0)
(2.066078309 0.007871950878 0)
(0.8299963477 0.01221018365 0)
(0.7564393373 -0.000564706975 0)
(0.7593243838 -0.002268047182 0)
(0.760885543 -0.005127097554 0)
(0.7634154997 -0.007544405641 0)
(0.7666634922 -0.009133356298 0)
(0.7704746629 -0.009796071624 0)
(0.7744089433 -0.009362809872 0)
(0.7779497307 -0.007742199952 0)
(0.7810034269 -0.005339776702 0)
(0.7831242534 -0.002773824348 0)
(0.7850473819 -0.001589358657 0)
(0.7866072524 -0.001719754094 0)
(0.7879812629 -0.002542122415 0)
(0.7894871786 -0.003478488905 0)
(0.7912755093 -0.004224641493 0)
(0.7933090739 -0.004569490059 0)
(0.7955625423 -0.004384792605 0)
(0.7979793193 -0.003913769997 0)
(0.8005143574 -0.003299053086 0)
(0.8032233374 -0.00283076654 0)
(3 -8.875386221e-16 0)
(3 -3.822771699e-16 0)
(3 -6.227586257e-16 0)
(3 -1.805224591e-15 0)
(3 -4.960685603e-16 0)
(3 5.650768279e-17 0)
(3 -6.39590532e-16 0)
(3 -1.03799214e-15 0)
(3 4.033825261e-16 0)
(3 5.449919407e-18 0)
(3 -6.772906e-16 0)
(3 -1.698130877e-15 0)
(3 -1.696042586e-15 0)
(3 -1.56878812e-15 0)
(3 1.277683927e-16 0)
(3 -7.877969253e-16 0)
(3 4.24652085e-16 0)
(3 -3.997683703e-16 0)
(3 -7.201446756e-16 0)
(3 -1.554567931e-15 0)
(3 -2.176457736e-15 0)
(3 -2.411422901e-15 0)
(3 -9.252103686e-16 0)
(3 4.502733269e-16 0)
(3 1.775467648e-17 0)
(3 -1.285179322e-15 0)
(3 -1.787066482e-15 0)
(3 -1.90247923e-15 0)
(3 -2.326193658e-15 0)
(3 -4.770158541e-15 0)
(3 -6.131495431e-15 0)
(3 -8.06440069e-15 0)
(3 -9.057455668e-15 0)
(3 -8.80654426e-15 0)
(3 -7.119671146e-15 0)
(3 -5.369892297e-15 0)
(3 -3.297635573e-15 0)
(3 -2.559051708e-15 0)
(3 -2.489229532e-15 0)
(3 -1.790656571e-15 0)
(3 -2.455009365e-15 0)
(3 -2.968195644e-15 0)
(3 -5.431166769e-16 0)
(3 -2.227558867e-15 0)
(3 -1.661074355e-15 0)
(3 5.331719421e-16 0)
(3 1.896087243e-15 0)
(3 4.494758781e-15 0)
(3 5.686544059e-15 0)
(3 5.921841508e-15 0)
(3 5.46220961e-15 0)
(3 5.135777123e-15 0)
(3 5.600366309e-15 0)
(3 7.442120135e-15 0)
(3 7.395428013e-15 0)
(3 6.703800056e-15 0)
(3 4.933765483e-15 0)
(3 1.131286718e-15 0)
(3 -7.718284865e-16 0)
(3 -1.62030412e-15 0)
(3 -2.447026337e-15 0)
(3 -2.079240811e-15 0)
(3 -2.005695807e-15 0)
(3 -3.241365923e-15 0)
(3 -6.369189835e-15 0)
(3 -8.254766064e-15 0)
(3 -6.928351523e-15 0)
(3 -8.014547764e-15 0)
(3 -7.026729338e-15 0)
(3 -5.327800612e-15 0)
(3 -5.199211077e-15 0)
(3 -5.901593093e-15 0)
(3 -8.148214442e-15 0)
(3 -8.529699879e-15 0)
(3 -6.636134861e-15 0)
(3 -3.912655558e-15 0)
(3 -1.33082716e-15 0)
(3 3.821962938e-15 0)
(2.072027574 0.008981795091 0)
(0.8308271942 0.01366209636 0)
(0.7571371744 -0.000794622815 0)
(0.7598100641 -0.002799882342 0)
(0.7614981696 -0.006126906138 0)
(0.7639302964 -0.009248273774 0)
(0.7670680718 -0.01142645653 0)
(0.770667973 -0.01240427686 0)
(0.7741675238 -0.0118971753 0)
(0.7772742089 -0.01007006199 0)
(0.7798666394 -0.007263945293 0)
(0.7818638243 -0.004301251205 0)
(0.7838377047 -0.002722496999 0)
(0.7855112289 -0.002648412576 0)
(0.7872445037 -0.003306026054 0)
(0.7890583924 -0.004211240587 0)
(0.7911280091 -0.004951172796 0)
(0.7934379829 -0.005337052184 0)
(0.7958877677 -0.005237858276 0)
(0.7983504453 -0.004890345872 0)
(0.8008397739 -0.004418933605 0)
(0.8034464546 -0.004136391776 0)
(3 -3.276751908e-16 0)
(3 -1.067495615e-15 0)
(3 -6.303322476e-16 0)
(3 8.244625911e-16 0)
(3 2.634069881e-15 0)
(3 3.308567385e-15 0)
(3 2.54670385e-15 0)
(3 1.724127546e-15 0)
(3 -6.473768996e-17 0)
(3 -5.15815429e-17 0)
(3 1.022806294e-15 0)
(3 9.152502935e-16 0)
(3 -2.016713062e-16 0)
(3 -3.828683119e-15 0)
(3 -6.189322156e-15 0)
(3 -5.332429679e-15 0)
(3 -4.239576046e-15 0)
(3 -3.461465366e-15 0)
(3 -4.168103055e-15 0)
(3 -3.474081948e-15 0)
(3 -4.073532758e-15 0)
(3 -2.345451876e-15 0)
(3 -4.099725278e-16 0)
(3 6.335254276e-16 0)
(3 4.886303121e-16 0)
(3 1.16918081e-15 0)
(3 5.704775682e-16 0)
(3 -7.179790927e-16 0)
(3 -2.562324888e-15 0)
(3 -5.421227296e-15 0)
(3 -6.934508125e-15 0)
(3 -6.013521255e-15 0)
(3 -5.560496584e-15 0)
(3 -4.260912147e-15 0)
(3 -2.436767908e-15 0)
(3 -1.704401025e-15 0)
(3 -1.203646628e-15 0)
(3 -2.290317138e-15 0)
(3 -2.321727937e-15 0)
(3 -2.507061678e-15 0)
(3 -2.965459883e-15 0)
(3 -3.303368846e-15 0)
(3 -4.721101341e-15 0)
(3 -4.552065915e-15 0)
(3 -3.349908338e-15 0)
(3 1.508392807e-15 0)
(3 5.59945805e-15 0)
(3 6.971902596e-15 0)
(3 6.352722002e-15 0)
(3 5.02718039e-15 0)
(3 6.406405068e-15 0)
(3 7.364557628e-15 0)
(3 7.823512108e-15 0)
(3 8.558348676e-15 0)
(3 7.670770892e-15 0)
(3 4.124676945e-15 0)
(3 6.534377579e-16 0)
(3 -1.889442448e-15 0)
(3 -3.383927327e-15 0)
(3 -4.884413019e-15 0)
(3 -5.799551786e-15 0)
(3 -5.184285176e-15 0)
(3 -3.735419363e-15 0)
(3 -2.968216286e-15 0)
(3 -4.483569747e-15 0)
(3 -5.120508425e-15 0)
(3 -4.619940418e-15 0)
(3 -5.564801947e-15 0)
(3 -5.880729785e-15 0)
(3 -6.467822526e-15 0)
(3 -6.58145138e-15 0)
(3 -6.910741308e-15 0)
(3 -7.153826379e-15 0)
(3 -4.858560666e-15 0)
(3 -4.715649464e-15 0)
(3 -3.017904048e-15 0)
(3 -1.520562743e-15 0)
(3 -2.220113166e-16 0)
(2.079091903 0.009432753924 0)
(0.8319580053 0.01388319154 0)
(0.7578608805 -0.001226571979 0)
(0.7604312408 -0.0034644209 0)
(0.7621139375 -0.007163556378 0)
(0.7645488904 -0.01074591518 0)
(0.7673276195 -0.01345471575 0)
(0.7704545777 -0.01464310786 0)
(0.7733874814 -0.01407256681 0)
(0.7759611407 -0.01207935668 0)
(0.778247247 -0.009093278337 0)
(0.7802051666 -0.005920081096 0)
(0.7823662399 -0.003995279245 0)
(0.7843168114 -0.003637568512 0)
(0.7864569012 -0.004045568205 0)
(0.7886094432 -0.004760779227 0)
(0.7909448021 -0.005445507893 0)
(0.7934649416 -0.005819076421 0)
(0.7960309776 -0.005846329412 0)
(0.798549397 -0.005757404812 0)
(0.8010314492 -0.005610075301 0)
(0.8035176888 -0.005665567543 0)
(3 3.704324102e-16 0)
(3 -1.093026314e-15 0)
(3 -1.105704635e-15 0)
(3 6.774504027e-16 0)
(3 1.239870713e-15 0)
(3 2.65990141e-15 0)
(3 8.556512552e-16 0)
(3 1.699693698e-16 0)
(3 6.358142047e-16 0)
(3 1.826318086e-15 0)
(3 4.191320428e-15 0)
(3 4.541086134e-15 0)
(3 3.394817534e-15 0)
(3 2.807343492e-16 0)
(3 -1.745672032e-15 0)
(3 -3.79898884e-15 0)
(3 -5.292332779e-15 0)
(3 -5.139359827e-15 0)
(3 -3.447600981e-15 0)
(3 -1.734421632e-15 0)
(3 1.198781687e-16 0)
(3 1.196802513e-15 0)
(3 2.690787215e-15 0)
(3 2.562067217e-15 0)
(3 2.428780883e-15 0)
(3 4.27950986e-15 0)
(3 3.568882686e-15 0)
(3 1.17616058e-15 0)
(3 9.59691549e-16 0)
(3 1.106058698e-15 0)
(3 8.646767047e-17 0)
(3 -3.768030718e-16 0)
(3 -2.700309343e-15 0)
(3 -3.10473643e-15 0)
(3 -2.450414204e-15 0)
(3 -1.643788606e-15 0)
(3 -1.810350488e-15 0)
(3 -3.837538526e-15 0)
(3 -4.549640538e-15 0)
(3 -5.719818785e-15 0)
(3 -6.088457706e-15 0)
(3 -5.659055733e-15 0)
(3 -6.788722767e-15 0)
(3 -4.187125202e-15 0)
(3 -4.057229409e-15 0)
(3 -2.545039843e-15 0)
(3 3.685132696e-15 0)
(3 4.882228924e-15 0)
(3 4.940609872e-15 0)
(3 3.806973869e-15 0)
(3 5.643867725e-15 0)
(3 7.71093469e-15 0)
(3 8.36853978e-15 0)
(3 7.989742497e-15 0)
(3 6.155488613e-15 0)
(3 2.142883759e-15 0)
(3 -1.218518958e-15 0)
(3 -4.514258686e-16 0)
(3 -2.125788534e-15 0)
(3 -3.430695415e-15 0)
(3 -3.486246159e-15 0)
(3 -3.953712069e-15 0)
(3 -4.799117166e-15 0)
(3 -2.543044309e-15 0)
(3 -1.547992236e-15 0)
(3 -8.58763296e-16 0)
(3 -1.811278766e-15 0)
(3 -3.811482921e-15 0)
(3 -7.717454309e-15 0)
(3 -9.010611253e-15 0)
(3 -8.890055993e-15 0)
(3 -8.146454699e-15 0)
(3 -7.79053132e-15 0)
(3 -7.296802428e-15 0)
(3 -6.695623418e-15 0)
(3 -5.572418483e-15 0)
(3 -2.472370877e-15 0)
(3 -2.378462022e-15 0)
(2.086876917 0.009218470532 0)
(0.8331925483 0.01297759586 0)
(0.758536192 -0.001600951851 0)
(0.7609434643 -0.004032648915 0)
(0.7627415159 -0.008058519084 0)
(0.7649490244 -0.01209023958 0)
(0.7673097787 -0.01512027744 0)
(0.7700007297 -0.01648288655 0)
(0.7724188795 -0.01595836527 0)
(0.7745758743 -0.01408185629 0)
(0.7766367202 -0.0111316456 0)
(0.7787010551 -0.007937865179 0)
(0.7811862731 -0.005874610551 0)
(0.7835403028 -0.005077545701 0)
(0.7861142181 -0.005041223704 0)
(0.7886147422 -0.005442808174 0)
(0.7911229132 -0.005854666685 0)
(0.7936746975 -0.006181826931 0)
(0.7962152631 -0.006360652617 0)
(0.7986888273 -0.006584739773 0)
(0.8011038421 -0.00685409985 0)
(0.8034335719 -0.007287527668 0)
(3 8.12769556e-17 0)
(3 1.852316136e-16 0)
(3 3.092877829e-16 0)
(3 7.970306066e-16 0)
(3 3.206516019e-16 0)
(3 -7.317029739e-16 0)
(3 -3.313588452e-15 0)
(3 -3.434701694e-15 0)
(3 -3.460340847e-15 0)
(3 -3.198297701e-15 0)
(3 -1.647573659e-15 0)
(3 -1.021136791e-15 0)
(3 1.936765859e-15 0)
(3 4.368474586e-15 0)
(3 3.032627566e-15 0)
(3 3.526478017e-16 0)
(3 -1.073776799e-15 0)
(3 -1.865179692e-15 0)
(3 -1.257586206e-15 0)
(3 -1.573915298e-15 0)
(3 -9.286660298e-16 0)
(3 -9.726794123e-16 0)
(3 -2.745314585e-16 0)
(3 1.219943823e-15 0)
(3 4.950779753e-16 0)
(3 1.679349774e-15 0)
(3 2.276579055e-15 0)
(3 1.018489151e-15 0)
(3 1.262934738e-15 0)
(3 2.86667482e-15 0)
(3 2.150191789e-15 0)
(3 -5.730150866e-16 0)
(3 -2.921365616e-15 0)
(3 -2.079377072e-15 0)
(3 -1.297141978e-15 0)
(3 -1.437946651e-15 0)
(3 -7.434319434e-16 0)
(3 -1.07932742e-15 0)
(3 -1.664717923e-15 0)
(3 -3.133498171e-15 0)
(3 -2.5141639e-15 0)
(3 -2.993310616e-15 0)
(3 -4.355378488e-15 0)
(3 -4.225632017e-15 0)
(3 -3.207067103e-15 0)
(3 -4.480872291e-16 0)
(3 -1.221301901e-15 0)
(3 -1.342235948e-15 0)
(3 4.756114299e-18 0)
(3 1.36987868e-15 0)
(3 1.40136912e-15 0)
(3 3.04422366e-15 0)
(3 4.67156631e-15 0)
(3 4.717015424e-15 0)
(3 3.823594035e-15 0)
(3 3.059214867e-15 0)
(3 3.738773507e-15 0)
(3 4.38780109e-15 0)
(3 5.079260539e-15 0)
(3 4.800471801e-15 0)
(3 4.235695321e-15 0)
(3 3.255404238e-15 0)
(3 8.444916844e-17 0)
(3 -2.084105661e-15 0)
(3 -3.090188663e-15 0)
(3 -3.915499163e-15 0)
(3 -5.375194186e-15 0)
(3 -6.110997966e-15 0)
(3 -7.435439129e-15 0)
(3 -1.165789409e-14 0)
(3 -1.299580299e-14 0)
(3 -1.28886731e-14 0)
(3 -1.201682926e-14 0)
(3 -1.097943573e-14 0)
(3 -7.804729734e-15 0)
(3 -4.085283154e-15 0)
(3 -3.777074114e-15 0)
(3 -2.781905342e-15 0)
(2.095412779 0.008501837617 0)
(0.8347117872 0.01166364844 0)
(0.7589795518 -0.002506818324 0)
(0.761123665 -0.004873702097 0)
(0.7632597105 -0.00878953124 0)
(0.7654338531 -0.01301123675 0)
(0.767256646 -0.01635920519 0)
(0.7693591655 -0.0179062413 0)
(0.7713532238 -0.01754820095 0)
(0.7730238138 -0.01582465766 0)
(0.7748888958 -0.01301985563 0)
(0.7770662963 -0.009872414983 0)
(0.7798656594 -0.00778275811 0)
(0.7826754188 -0.00670047351 0)
(0.7856502889 -0.006177036759 0)
(0.7884570995 -0.006021613742 0)
(0.7910874489 -0.006173320668 0)
(0.7936159792 -0.006466989078 0)
(0.7960891154 -0.006840571023 0)
(0.7984841267 -0.007351418492 0)
(0.8008083484 -0.008055573674 0)
(0.8029822645 -0.009101409083 0)
(3 -4.344791931e-16 0)
(3 5.375518163e-16 0)
(3 2.222609153e-15 0)
(3 6.495891722e-16 0)
(3 -6.388762666e-16 0)
(3 -3.636725418e-15 0)
(3 -3.777319551e-15 0)
(3 -3.336134863e-15 0)
(3 -3.883313982e-15 0)
(3 -5.52569051e-15 0)
(3 -5.980825454e-15 0)
(3 -4.074256345e-15 0)
(3 -1.604169752e-15 0)
(3 7.730140673e-16 0)
(3 1.200994374e-15 0)
(3 1.351295091e-15 0)
(3 1.565300734e-15 0)
(3 2.608098241e-15 0)
(3 1.711939573e-15 0)
(3 1.067329856e-15 0)
(3 1.132620899e-15 0)
(3 7.489845692e-16 0)
(3 -2.517172566e-16 0)
(3 -2.725206785e-18 0)
(3 -3.381067215e-16 0)
(3 -8.946123583e-17 0)
(3 1.75928073e-15 0)
(3 3.747157536e-15 0)
(3 2.679918245e-15 0)
(3 5.997616408e-16 0)
(3 1.564340002e-16 0)
(3 -7.834647423e-16 0)
(3 1.11817275e-16 0)
(3 4.551047079e-16 0)
(3 -1.895298568e-16 0)
(3 2.343903686e-16 0)
(3 4.708784565e-16 0)
(3 1.152876066e-15 0)
(3 1.152912097e-15 0)
(3 1.007603073e-15 0)
(3 2.645753179e-16 0)
(3 -2.094066436e-15 0)
(3 -1.707906398e-15 0)
(3 -3.153538875e-15 0)
(3 -3.044470798e-15 0)
(3 -3.562392199e-15 0)
(3 -6.163320007e-15 0)
(3 -4.667394927e-15 0)
(3 -3.98110141e-15 0)
(3 -8.792243071e-16 0)
(3 -1.086863702e-15 0)
(3 -9.206578116e-16 0)
(3 -1.212785614e-15 0)
(3 -1.350379464e-15 0)
(3 -7.790550847e-16 0)
(3 2.529350254e-15 0)
(3 6.250305118e-15 0)
(3 9.744776624e-15 0)
(3 1.070946363e-14 0)
(3 8.213118091e-15 0)
(3 6.965090358e-15 0)
(3 3.826935519e-15 0)
(3 1.563917078e-15 0)
(3 -4.487279551e-15 0)
(3 -5.002964479e-15 0)
(3 -5.887764036e-15 0)
(3 -7.011081541e-15 0)
(3 -8.295382927e-15 0)
(3 -7.395827355e-15 0)
(3 -7.451571831e-15 0)
(3 -8.623989822e-15 0)
(3 -9.234879988e-15 0)
(3 -8.379845375e-15 0)
(3 -6.445054999e-15 0)
(3 -3.008991423e-15 0)
(3 -1.274746628e-15 0)
(3 -6.658052981e-18 0)
(3 1.555559177e-15 0)
(2.103274765 0.006924434376 0)
(0.8360677791 0.009365721615 0)
(0.7596244737 -0.003313983999 0)
(0.7618166484 -0.005533792647 0)
(0.7634426949 -0.009572085852 0)
(0.7654572093 -0.01380643023 0)
(0.7668756678 -0.01723724254 0)
(0.76847211 -0.01886137408 0)
(0.7701395764 -0.01876846832 0)
(0.7715172944 -0.01733883451 0)
(0.7733588844 -0.01490999694 0)
(0.775791865 -0.01202658168 0)
(0.7790021293 -0.01002662394 0)
(0.7822647993 -0.008618421383 0)
(0.7855616929 -0.007601887592 0)
(0.788558924 -0.006879619205 0)
(0.7912003671 -0.006695145824 0)
(0.7936075836 -0.006963346706 0)
(0.795944374 -0.007434589185 0)
(0.7981752531 -0.008303268282 0)
(0.8002905643 -0.009516344881 0)
(0.8022473893 -0.01104826002 0)
(3 4.225491497e-16 0)
(3 6.823618637e-16 0)
(3 9.403945687e-17 0)
(3 -1.98695609e-15 0)
(3 -5.130969574e-15 0)
(3 -7.020183327e-15 0)
(3 -6.263635092e-15 0)
(3 -4.626218771e-15 0)
(3 -3.968907362e-15 0)
(3 -4.669459174e-15 0)
(3 -3.754361283e-15 0)
(3 -1.890213707e-15 0)
(3 -1.413939549e-15 0)
(3 -2.68162181e-16 0)
(3 1.127607834e-15 0)
(3 2.714461367e-15 0)
(3 2.41889121e-15 0)
(3 2.150925837e-15 0)
(3 2.877786335e-15 0)
(3 3.389898958e-15 0)
(3 4.37859779e-15 0)
(3 4.099369159e-15 0)
(3 2.596724897e-15 0)
(3 -9.168331522e-18 0)
(3 -3.032417548e-15 0)
(3 -3.684775206e-15 0)
(3 -3.000450605e-15 0)
(3 5.746493002e-16 0)
(3 1.504544398e-15 0)
(3 2.216673384e-15 0)
(3 2.569597014e-15 0)
(3 2.369828524e-15 0)
(3 2.539750971e-15 0)
(3 -1.515378191e-15 0)
(3 -4.308081953e-15 0)
(3 -3.18805268e-15 0)
(3 -3.227509184e-15 0)
(3 -2.443954365e-15 0)
(3 -1.350042148e-15 0)
(3 -1.387090028e-16 0)
(3 -1.467966511e-15 0)
(3 -1.444490956e-15 0)
(3 1.297708798e-15 0)
(3 -9.717605539e-16 0)
(3 -4.03961932e-15 0)
(3 -6.673337111e-15 0)
(3 -7.258334376e-15 0)
(3 -8.845193397e-15 0)
(3 -9.024650349e-15 0)
(3 -6.867792182e-15 0)
(3 -4.723216603e-15 0)
(3 -5.864909618e-15 0)
(3 -5.835686894e-15 0)
(3 -5.228447923e-15 0)
(3 -4.039978384e-15 0)
(3 -8.657741828e-16 0)
(3 2.34379054e-16 0)
(3 1.147331691e-15 0)
(3 2.561929098e-15 0)
(3 1.345440824e-15 0)
(3 -2.887584759e-16 0)
(3 -2.544836622e-15 0)
(3 -3.581130541e-15 0)
(3 -4.140473255e-15 0)
(3 -4.454431256e-15 0)
(3 -4.893929539e-15 0)
(3 -5.254041393e-15 0)
(3 -5.379867922e-15 0)
(3 -4.465399779e-15 0)
(3 -4.539322266e-15 0)
(3 -5.899495004e-15 0)
(3 -8.618526082e-15 0)
(3 -9.431663935e-15 0)
(3 -4.792549927e-15 0)
(3 -2.119731253e-15 0)
(3 -1.916579997e-15 0)
(3 -1.057500079e-15 0)
(3 1.417450872e-15 0)
(2.109954481 0.004911188397 0)
(0.8371963481 0.006210141559 0)
(0.7602231057 -0.004418557763 0)
(0.7627941528 -0.005990558325 0)
(0.7637431418 -0.009675788296 0)
(0.765227655 -0.01425434232 0)
(0.7662906926 -0.01782473213 0)
(0.7675441601 -0.01955118162 0)
(0.768866738 -0.01969294801 0)
(0.7702124666 -0.01866247783 0)
(0.7720566767 -0.01669828549 0)
(0.7746857213 -0.01419094397 0)
(0.778205904 -0.01234979447 0)
(0.7817986314 -0.01063340535 0)
(0.785331437 -0.009206726941 0)
(0.7884758917 -0.008049833819 0)
(0.7911202585 -0.007510811685 0)
(0.7934127784 -0.007699415363 0)
(0.7955416648 -0.00832232129 0)
(0.7975295718 -0.009452441683 0)
(0.7993441849 -0.01104321824 0)
(0.8011017584 -0.01295076853 0)
(3 3.15057916e-16 0)
(3 -7.577173121e-16 0)
(3 -3.146867619e-15 0)
(3 -3.118111644e-15 0)
(3 -2.928470247e-15 0)
(3 -1.960819694e-15 0)
(3 -2.300932253e-15 0)
(3 -3.333361785e-15 0)
(3 -4.695078684e-15 0)
(3 -2.715652265e-15 0)
(3 -1.116288917e-15 0)
(3 -2.101819541e-15 0)
(3 -1.978843906e-15 0)
(3 -2.264819908e-15 0)
(3 -1.428748026e-15 0)
(3 -1.030935175e-15 0)
(3 -3.937791644e-16 0)
(3 1.390793522e-16 0)
(3 5.661912934e-16 0)
(3 8.279123408e-16 0)
(3 2.918410033e-16 0)
(3 5.269764839e-16 0)
(3 3.190722971e-16 0)
(3 -1.178771147e-15 0)
(3 -1.356923996e-15 0)
(3 -7.967635173e-16 0)
(3 -1.059722748e-16 0)
(3 6.404975835e-16 0)
(3 3.019669481e-15 0)
(3 2.818062757e-15 0)
(3 2.326525145e-15 0)
(3 2.918554715e-15 0)
(3 3.233490782e-15 0)
(3 1.147855987e-15 0)
(3 -1.523401322e-15 0)
(3 -2.83465079e-15 0)
(3 -2.527007485e-15 0)
(3 -3.057929154e-15 0)
(3 -3.992861717e-15 0)
(3 -2.323520815e-15 0)
(3 -2.360313033e-16 0)
(3 -6.656945565e-16 0)
(3 -1.32734375e-15 0)
(3 -6.153967278e-16 0)
(3 -1.918647419e-15 0)
(3 -3.005787875e-15 0)
(3 -4.303350124e-15 0)
(3 -4.96624817e-15 0)
(3 -5.935592776e-15 0)
(3 -5.466817939e-15 0)
(3 -5.540946414e-15 0)
(3 -7.420051467e-15 0)
(3 -6.748864636e-15 0)
(3 -5.196865522e-15 0)
(3 -2.178867399e-15 0)
(3 -2.725920037e-15 0)
(3 -4.959770057e-15 0)
(3 -4.89691114e-15 0)
(3 -5.216290543e-15 0)
(3 -4.957554241e-15 0)
(3 -5.546548238e-15 0)
(3 -5.394979878e-15 0)
(3 -3.765185582e-15 0)
(3 -3.371293236e-15 0)
(3 -4.417810282e-15 0)
(3 -5.935331833e-15 0)
(3 -5.960527245e-15 0)
(3 -4.564195571e-15 0)
(3 -6.609588208e-15 0)
(3 -9.121034867e-15 0)
(3 -9.704685763e-15 0)
(3 -8.155889919e-15 0)
(3 -4.094129492e-15 0)
(3 -4.201166095e-17 0)
(3 1.167392479e-15 0)
(3 1.161004598e-15 0)
(3 1.020704438e-16 0)
(3 4.553632936e-16 0)
(2.115893932 0.002373222432 0)
(0.8390377053 0.002667160364 0)
(0.7609098947 -0.005243979394 0)
(0.7634898266 -0.006665243194 0)
(0.7639502565 -0.009888600948 0)
(0.7652501064 -0.01447897467 0)
(0.7658379088 -0.01822885727 0)
(0.766633509 -0.02003444985 0)
(0.7677102664 -0.02035800191 0)
(0.7691029982 -0.01979710789 0)
(0.7710154937 -0.01838699712 0)
(0.7738380843 -0.01643122904 0)
(0.7776037518 -0.0148429126 0)
(0.7814523487 -0.01290520727 0)
(0.7851292371 -0.01114124889 0)
(0.788310436 -0.009584659064 0)
(0.790844374 -0.008684025174 0)
(0.7929990191 -0.008788716712 0)
(0.7948510098 -0.009507363845 0)
(0.7965912463 -0.01080455874 0)
(0.7981466248 -0.01265611998 0)
(0.7997761875 -0.01481574837 0)
(3 -1.245201401e-15 0)
(3 -3.764254188e-15 0)
(3 -2.642511836e-15 0)
(3 -3.180412916e-15 0)
(3 -6.521030568e-16 0)
(3 4.108411601e-16 0)
(3 2.924076432e-16 0)
(3 -6.415819669e-16 0)
(3 -7.340625686e-16 0)
(3 -2.088483938e-15 0)
(3 -2.367345011e-15 0)
(3 -4.440364085e-15 0)
(3 -5.04713497e-15 0)
(3 -5.276247033e-15 0)
(3 -4.295173386e-15 0)
(3 -2.341742632e-15 0)
(3 -1.639140705e-15 0)
(3 9.108278878e-17 0)
(3 -1.482330941e-15 0)
(3 -1.1944374e-15 0)
(3 -1.90810912e-15 0)
(3 -3.057177051e-15 0)
(3 -2.088778329e-15 0)
(3 -4.565508858e-16 0)
(3 3.242137153e-15 0)
(3 3.750788003e-15 0)
(3 2.605581745e-15 0)
(3 2.515240054e-16 0)
(3 -1.969284797e-15 0)
(3 -1.884048317e-15 0)
(3 -6.27236436e-16 0)
(3 1.207845566e-15 0)
(3 1.355054912e-15 0)
(3 3.927732544e-15 0)
(3 3.271525033e-15 0)
(3 -2.650147868e-16 0)
(3 -1.288840697e-15 0)
(3 -7.692297303e-16 0)
(3 -4.381360893e-16 0)
(3 6.841679712e-16 0)
(3 1.047910285e-15 0)
(3 4.122396435e-16 0)
(3 -1.644378918e-15 0)
(3 -1.841833635e-15 0)
(3 -1.603193621e-15 0)
(3 2.895217035e-16 0)
(3 2.408734269e-16 0)
(3 -2.014322957e-15 0)
(3 -2.870190858e-15 0)
(3 -4.853264583e-15 0)
(3 -3.76479756e-15 0)
(3 -2.945682136e-15 0)
(3 -2.956130859e-15 0)
(3 -3.092245797e-15 0)
(3 -3.169223357e-15 0)
(3 -3.959125393e-15 0)
(3 -6.798995251e-15 0)
(3 -9.181473778e-15 0)
(3 -1.048841384e-14 0)
(3 -8.733796057e-15 0)
(3 -1.033601023e-14 0)
(3 -1.083089381e-14 0)
(3 -9.230829126e-15 0)
(3 -7.933920302e-15 0)
(3 -5.845721152e-15 0)
(3 -5.665157684e-15 0)
(3 -4.093325818e-15 0)
(3 -4.204756345e-15 0)
(3 -6.346318682e-15 0)
(3 -6.237500669e-15 0)
(3 -4.792341691e-15 0)
(3 -6.987162078e-16 0)
(3 2.158188294e-15 0)
(3 1.636426839e-15 0)
(3 1.721059254e-15 0)
(3 3.887879143e-15 0)
(3 4.669475502e-15 0)
(3 2.722435747e-15 0)
(2.119581323 -0.0009608265801 0)
(0.8410003996 -0.0008267085509 0)
(0.7617300849 -0.006271862189 0)
(0.7641817569 -0.00750651194 0)
(0.764181148 -0.01019073178 0)
(0.7652757008 -0.01437302615 0)
(0.7656169459 -0.01822260477 0)
(0.7658158459 -0.02018272505 0)
(0.7667460351 -0.02085006204 0)
(0.7681353237 -0.02076038158 0)
(0.7702295226 -0.01998654207 0)