/*--------------------------------*- C++ -*----------------------------------*\
  =========                 |
  \\      /  F ield         | OpenFOAM: The Open Source CFD Toolbox
   \\    /   O peration     | Website:  https://openfoam.org
    \\  /    A nd           | Version:  7
     \\/     M anipulation  |
\*---------------------------------------------------------------------------*/
FoamFile
{
    version     2.0;
    format      ascii;
    class       volScalarField;
    location    "4.8";
    object      p;
}
// * * * * * * * * * * * * * * * * * * * * * * * * * * * * * * * * * * * * * //

dimensions      [1 -1 -2 0 0 0 0];

internalField   nonuniform List<scalar> 
22
(
1.168626532
1.093518913
1.185316192
1.180631221
1.129796457
1.241016539
1.230307367
1.127931559
0.9713200987
1.277113775
1.133714341
0.9154963496
0.8208725868
1.192581068
0.8368216038
0.7768126193
0.8219891944
0.682509716
0.681907244
0.7907397864
0.6562393044
0.6975151928
)
;

boundaryField
{
    inlet
    {
        type            fixedValue;
        value           nonuniform 0();
    }
    outlet
    {
        type            zeroGradient;
    }
    bottom
    {
        type            slip;
    }
    top
    {
        type            slip;
    }
    obstacle
    {
        type            zeroGradient;
    }
    defaultFaces
    {
        type            empty;
    }
    procBoundary9to3
    {
        type            processor;
        value           nonuniform List<scalar> 5(1.144178062 1.014065037 1.096274782 1.173806683 1.173806683);
    }
    procBoundary9to4
    {
        type            processor;
        value           nonuniform List<scalar> 2(1.119595006 1.008356652);
    }
    procBoundary9to8
    {
        type            processor;
        value           uniform 1.006575727;
    }
    procBoundary9to10
    {
        type            processor;
        value           nonuniform List<scalar> 5(0.8962409854 0.8363023441 0.9081760029 0.9501454719 0.9501454719);
    }
    procBoundary9to14
    {
        type            processor;
        value           nonuniform List<scalar> 3(1.081451192 1.275360451 1.57436812);
    }
    procBoundary9to15
    {
        type            processor;
        value           nonuniform List<scalar> 4(0.8491523577 0.6699762387 0.8491523577 0.7208661202);
    }
}


// ************************************************************************* //
