/*--------------------------------*- C++ -*----------------------------------*\
  =========                 |
  \\      /  F ield         | OpenFOAM: The Open Source CFD Toolbox
   \\    /   O peration     | Website:  https://openfoam.org
    \\  /    A nd           | Version:  7
     \\/     M anipulation  |
\*---------------------------------------------------------------------------*/
FoamFile
{
    version     2.0;
    format      ascii;
    class       volVectorField;
    location    "0.3";
    object      U;
}
// * * * * * * * * * * * * * * * * * * * * * * * * * * * * * * * * * * * * * //

dimensions      [0 1 -1 0 0 0 0];

internalField   nonuniform List<vector> 
143
(
(3.056904077 -0.09351255948 0)
(3.084963753 -0.1625751047 0)
(3.103665628 -0.1968570115 0)
(3.102762274 -0.2090019461 0)
(3.10327745 -0.2270254962 0)
(3.099438411 -0.2291065322 0)
(3.083523549 -0.213678909 0)
(2.997226698 0.08232786729 0)
(3.03033757 0.01070358229 0)
(3.045732793 -0.02676127092 0)
(3.071259418 -0.09229105571 0)
(3.088010917 -0.1563389408 0)
(3.102939725 -0.2274283083 0)
(3.10283726 -0.2378265917 0)
(3.096884648 -0.222112954 0)
(2.969769806 0.1478679662 0)
(2.996485939 0.1029897608 0)
(3.030997592 0.0188826842 0)
(3.054747541 -0.04316211597 0)
(3.074631531 -0.09732734924 0)
(3.085735906 -0.1236491381 0)
(3.081126823 -0.1438392437 0)
(3.081202358 -0.1633291036 0)
(2.948050612 0.1947641181 0)
(2.976380326 0.1506926313 0)
(3.001893244 0.1050772707 0)
(3.026858154 0.04736571804 0)
(3.046770277 -0.003721031531 0)
(3.069025695 -0.06340851941 0)
(3.081051028 -0.1150088501 0)
(3.085240325 -0.1663986122 0)
(2.943184766 0.2008408587 0)
(2.960297563 0.1876387575 0)
(2.982978847 0.1543791079 0)
(3.006468289 0.1095369671 0)
(3.028832701 0.05914662147 0)
(3.048265499 0.01411003575 0)
(3.064685069 -0.02780260852 0)
(3.073875993 -0.06586595445 0)
(2.944760549 0.1975108748 0)
(2.956010994 0.1892914768 0)
(2.970368042 0.1781485373 0)
(2.988982432 0.1552953123 0)
(3.009042902 0.1227732409 0)
(3.029393933 0.08308035543 0)
(3.047612799 0.0416715891 0)
(3.062235528 -0.001703625679 0)
(2.949947468 0.170960835 0)
(2.954840281 0.1842727593 0)
(2.968398525 0.1813866783 0)
(2.981607499 0.1690576724 0)
(2.996053518 0.1520235263 0)
(3.012705329 0.1277809076 0)
(3.029203057 0.09684440094 0)
(3.042807837 0.06268521144 0)
(2.961948866 0.1242854793 0)
(2.956314446 0.1568955925 0)
(2.973842475 0.1582210957 0)
(2.98101961 0.1554097894 0)
(2.992254439 0.1465631513 0)
(3.005193925 0.1334913403 0)
(3.018599964 0.1143045718 0)
(3.030328509 0.09062092311 0)
(2.983849846 0.05438548612 0)
(2.972490347 0.09560025933 0)
(2.968626686 0.1352385956 0)
(2.980730643 0.149415364 0)
(2.987673532 0.1458670567 0)
(2.998675614 0.1354237204 0)
(3.010302103 0.119469956 0)
(3.021010032 0.09583186475 0)
(2.996709903 0.01156566938 0)
(2.989973937 0.03632074878 0)
(2.982824169 0.06971046416 0)
(2.982097028 0.1010237937 0)
(2.991565438 0.1109087549 0)
(2.996222812 0.1081146037 0)
(3.003473949 0.09834049449 0)
(3.010246823 0.08162319716 0)
(2.999714881 0.001045989949 0)
(2.998516645 0.005780494639 0)
(2.995487448 0.01902028616 0)
(2.992044292 0.04006202607 0)
(2.99266487 0.06037193912 0)
(2.99668291 0.06779306093 0)
(2.998427776 0.06610880158 0)
(3.001354913 0.058496538 0)
(2.999992377 3.016196607e-05 0)
(2.999924592 0.0003178472683 0)
(2.999595658 0.001840907748 0)
(2.998757364 0.006380407911 0)
(2.998006376 0.01393676591 0)
(2.998540578 0.02065619431 0)
(2.999423346 0.02260080158 0)
(2.999882916 0.02142717347 0)
(2.999999952 2.141280443e-07 0)
(2.999999072 4.344157936e-06 0)
(2.999990689 4.660924517e-05 0)
(2.999950171 0.0002761054753 0)
(2.999858133 0.0009522274608 0)
(2.999817647 0.001987771904 0)
(2.999900167 0.002714744279 0)
(2.999957805 0.002848910485 0)
(3 2.198019392e-10 0)
(2.999999998 1.086925476e-08 0)
(2.999999961 2.194898588e-07 0)
(2.999999633 2.273834852e-06 0)
(2.999998217 1.267519558e-05 0)
(2.999996055 3.894231395e-05 0)
(2.999996495 6.985762247e-05 0)
(2.99999814 8.69736391e-05 0)
(3 -4.774508235e-11 0)
(3 -4.432528289e-11 0)
(3 9.139264045e-11 0)
(3 2.492308826e-09 0)
(2.999999997 2.289691366e-08 0)
(2.99999999 1.046745633e-07 0)
(2.999999985 2.543003127e-07 0)
(2.999999988 3.934491695e-07 0)
(3 -3.729498422e-11 0)
(3 -4.16502502e-11 0)
(3 -4.053013352e-11 0)
(3 -4.074406765e-11 0)
(3 -4.207585293e-11 0)
(3 -2.277001741e-11 0)
(3 3.870338075e-11 0)
(3 1.296271695e-10 0)
(3 -1.479920978e-11 0)
(3 -2.334536843e-11 0)
(3 -2.938651153e-11 0)
(3 -3.430976718e-11 0)
(3 -3.840528214e-11 0)
(3 -4.334157084e-11 0)
(3 -4.286169368e-11 0)
(3 -4.162082293e-11 0)
(3 -1.527582286e-12 0)
(3 -3.71574069e-12 0)
(3 -7.102062463e-12 0)
(3 -1.110258594e-11 0)
(3 -1.601042313e-11 0)
(3 -2.063134841e-11 0)
(3 -2.223974867e-11 0)
(3 -2.148464777e-11 0)
)
;

boundaryField
{
    inlet
    {
        type            fixedValue;
        value           nonuniform 0();
    }
    outlet
    {
        type            inletOutlet;
        inletValue      nonuniform 0();
        value           nonuniform 0();
    }
    bottom
    {
        type            slip;
    }
    top
    {
        type            slip;
    }
    obstacle
    {
        type            slip;
    }
    defaultFaces
    {
        type            empty;
    }
    procBoundary34to27
    {
        type            processor;
        value           uniform (2.965019202 0.1433936815 0);
    }
    procBoundary34to28
    {
        type            processor;
        value           nonuniform List<vector> 9((3.067518226 -0.1255606909 0) (3.094769364 -0.2065181209 0) (3.114775502 -0.2785116314 0) (3.12110602 -0.2801938654 0) (3.116392499 -0.2683705749 0) (3.095586874 -0.23077741 0) (3.047554789 -0.1404033256 0) (3.025269671 0.002796829893 0) (3.025269671 0.002796829893 0));
    }
    procBoundary34to29
    {
        type            processor;
        value           uniform (3.039207724 -0.1245547981 0);
    }
    procBoundary34to33
    {
        type            processor;
        value           nonuniform List<vector> 
16
(
(2.938733132 0.2000181349 0)
(2.931204095 0.212107135 0)
(2.931667282 0.2020367009 0)
(2.927700292 0.2072755141 0)
(2.955329449 0.1371383453 0)
(2.976873009 0.07448417201 0)
(2.99436217 0.01860316866 0)
(2.999315456 0.002302004842 0)
(2.999970041 0.0001054494378 0)
(2.999999601 1.532419099e-06 0)
(2.999999999 5.281773109e-09 0)
(3 -4.779618838e-11 0)
(3 -4.48282854e-11 0)
(3 -2.550313168e-11 0)
(3 -6.599810138e-12 0)
(3 -3.917391297e-13 0)
)
;
    }
    procBoundary34to35
    {
        type            processor;
        value           nonuniform List<vector> 
17
(
(3.074585696 -0.1878668266 0)
(3.074755043 -0.1630256023 0)
(3.084972385 -0.1732454605 0)
(3.075789013 -0.08532230957 0)
(3.069621269 -0.04186214471 0)
(3.051668217 0.02502398744 0)
(3.037729185 0.06249885604 0)
(3.02757383 0.06896983194 0)
(3.014782472 0.05941682751 0)
(3.004037505 0.04432675764 0)
(3.00070166 0.01733373116 0)
(3.000018719 0.002573749821 0)
(2.999998994 9.030168064e-05 0)
(2.999999988 4.948815246e-07 0)
(3 2.419561078e-10 0)
(3 -3.783014622e-11 0)
(3 -2.010409263e-11 0)
)
;
    }
}


// ************************************************************************* //
