/*--------------------------------*- C++ -*----------------------------------*\
  =========                 |
  \\      /  F ield         | OpenFOAM: The Open Source CFD Toolbox
   \\    /   O peration     | Website:  https://openfoam.org
    \\  /    A nd           | Version:  7
     \\/     M anipulation  |
\*---------------------------------------------------------------------------*/
FoamFile
{
    version     2.0;
    format      ascii;
    class       volScalarField;
    location    "1.5";
    object      p;
}
// * * * * * * * * * * * * * * * * * * * * * * * * * * * * * * * * * * * * * //

dimensions      [1 -1 -2 0 0 0 0];

internalField   nonuniform List<scalar> 
555
(
0.999452408
1.000696942
1.000788746
0.9956939609
0.9973166279
0.9980782963
0.9980458557
0.9986215735
0.9998137536
1.000527455
1.001510152
1.002365113
1.002446557
1.001246071
0.9984062622
0.9976011892
0.9960969927
0.9958873989
0.9960295594
0.9966620238
0.9975119632
0.9974969641
0.9960694241
0.9980835895
0.9992114102
0.9993115064
0.9995505944
1.000168906
1.000520719
1.001391703
1.002026277
1.001793317
1.000719328
0.9993837821
0.995719639
0.9946696763
0.9941118034
0.9935439943
0.9936635799
0.9938090232
0.9939405226
0.998221633
0.9994836764
1.000474651
1.000147866
0.9999144666
0.9994364557
0.9993383576
0.9992884962
0.9997570332
0.999956705
0.9994798014
0.9983532898
0.9976216498
0.9968400461
0.9954033182
0.9938812549
0.9930059248
0.9929601214
0.9933684127
1.001474808
1.001919997
1.001760678
1.000893442
0.9999690799
0.9986578622
0.996929759
0.9961502114
0.997057073
0.997764517
0.9978794352
0.9980303098
0.9981723959
0.9981703464
0.9978419332
0.9967630087
0.9948559913
0.9935834534
0.9940679716
1.004930766
1.003902007
1.002537066
1.001097004
0.9993590556
0.9972927837
0.9949548783
0.9948708597
0.9954055179
0.996510217
0.9972606797
0.9980730456
0.9986754968
0.9991145141
0.9993273755
0.9988540143
0.9974061807
0.9962384909
0.9966104343
1.005880006
1.004595814
1.002845748
1.000514204
0.9976244567
0.9954677497
0.9948271283
0.9947484878
0.9949719809
0.9961320693
0.997271906
0.998618504
0.9999835177
1.000763856
1.001103438
1.00049445
0.9995883872
0.9986967038
0.9990890063
1.004975693
1.003855309
1.002110483
0.9988490193
0.9963597198
0.9950625545
0.9947789187
0.9950184295
0.9955836378
0.9967037567
0.9983360498
0.9998342755
1.001767422
1.002343838
1.002352032
1.001788882
1.001829128
1.001410409
1.001522626
1.002464121
1.002208666
1.000234852
0.9982148833
0.9965796557
0.9955363765
0.9952496205
0.9959866207
0.9976056599
0.9991638099
1.00020968
1.001069877
1.001738136
1.001784948
1.001684206
1.001782296
1.002240151
1.002172584
1.001710253
0.9992386915
0.9987887057
0.9981394675
0.9971197574
0.996654115
0.9969733046
0.9985729202
1.000258057
1.000779959
1.000740956
1.000920563
1.001171995
1.001000038
1.000585654
1.000782181
1.001364804
1.001553065
1.000416689
0.9966340537
0.9977790129
0.998452336
0.9984906058
0.9991344954
0.9998208338
1.000282424
1.000715931
1.000889126
1.000621095
1.000653423
1.000514725
1.000106526
0.9994958356
0.9996761116
1.000140195
1.00024741
0.9985826165
0.9955688367
0.9972159252
0.9988086358
0.9999835791
1.000684805
1.000666814
1.000242493
1.000359564
1.000605895
1.00044993
0.9998889704
0.999150662
0.9989327954
0.9987147391
0.9990421025
0.999113636
0.9989971561
0.9966333447
0.995550075
0.9973788133
0.9999752985
1.000250998
1.000376813
1.000354222
0.9999244352
0.9995353036
0.9994076785
0.9989623171
0.9983312895
0.9978429219
0.9981905617
0.9987969557
0.9992626881
0.9991777088
0.9980523782
0.9951570723
0.9977136331
0.9990099597
0.9983592683
0.9980933099
0.9980458778
0.9981674256
0.9981504268
0.9974341471
0.9975886565
0.99761381
0.9974198089
0.997151515
0.9972557964
0.9985278102
0.9994583642
0.9993103034
0.998144318
0.9962328257
1.00023393
0.9996858366
0.9978482028
0.9964763647
0.9954288983
0.9945357702
0.9942685796
0.9949175871
0.9968442144
0.997472157
0.9973679026
0.9973521118
0.9978087165
0.998212977
0.9981315106
0.9980603784
0.9978099736
0.9976945241
1.00099061
1.000096183
0.9975975242
0.9953159884
0.993161815
0.992089925
0.9925436597
0.9939910668
0.9965114799
0.9976922572
0.998220573
0.9993707045
0.9994886834
0.9991765164
0.9984439804
0.9972579678
0.9967614444
0.9992168143
1.001347925
0.9998126263
0.9971382477
0.9945272949
0.9925664108
0.9925547937
0.9931867503
0.994777561
0.997249674
1.000079913
1.001167581
1.001586727
1.00125381
1.000543366
0.9989224144
0.9969344811
0.9963813089
0.9981254827
1.000358398
0.9988269813
0.996845032
0.9947131218
0.9938698057
0.9940918406
0.9950218368
0.9972463891
0.9993034337
1.001230956
1.00240915
1.002859077
1.002719537
1.001492691
0.9990404826
0.9970039126
0.9964899999
0.9972260239
0.9983619984
0.997975322
0.9975528789
0.996859372
0.9965456434
0.9967867817
0.9980198171
0.9990655624
0.9999910576
1.001521553
1.002665712
1.00305175
1.002540175
1.000966857
0.9988129642
0.9978375603
0.9975818076
0.9973332687
0.9975062996
0.9983055184
0.9990713559
0.999238621
0.9994397251
0.9998908688
1.000507432
1.000785213
1.000378621
1.000760155
1.001473708
1.001424313
1.000485286
0.9991822079
0.9987286182
0.9992334192
0.9992623406
0.9981510147
0.9976459454
0.9988798904
0.9999116869
1.000723155
1.001436408
1.002073718
1.001941241
1.001152646
0.9996383568
0.9986237495
0.9983102716
0.9982786562
0.9981900663
0.9983155905
0.999346237
1.00065957
1.000638134
0.9993326393
0.9979822729
0.9989175297
0.9994999495
1.000325354
1.001263551
1.001594283
1.001009448
0.9992423597
0.9974175733
0.9960469276
0.9954777326
0.9955126032
0.9963389041
0.9978645879
0.9997850599
1.001623629
1.001918406
1.000679684
0.9986027174
0.9989095706
0.9988368121
0.9991859568
0.9995683743
0.9987956214
0.9973067644
0.9958763608
0.995248034
0.9949433263
0.9948212635
0.9947558687
0.9955559892
0.9972401368
0.999582306
1.00168403
1.002824838
1.002008332
0.9985224534
0.997907689
0.9975541209
0.9961667243
0.9943410162
0.9935751881
0.9937718165
0.995141722
0.9962270767
0.9960508609
0.9962409152
0.9968981845
0.9976046927
0.9992124962
1.000638172
1.002379565
1.002279009
0.9979185437
0.9973158751
0.9955718222
0.9928500561
0.9918034664
0.9924210713
0.9941185811
0.9962947873
0.9981598193
0.9981212931
0.9988229878
0.9997224352
1.000435443
1.000687002
1.000475921
1.000615304
1.000133937
0.997976145
0.9972695439
0.9952355956
0.993714354
0.9932695991
0.9938451362
0.9961132564
0.9982599842
0.99954833
1.000528859
1.001127744
1.002156717
1.00290966
1.002327594
1.000655594
0.998317948
0.9961814816
0.9990305639
0.9981078298
0.9969879324
0.9960872721
0.9959934284
0.9967927135
0.9987163845
1.000554652
1.001257784
1.002149006
1.002612622
1.002876736
1.002458456
1.000748696
0.9980457065
0.9940888239
0.9918826276
1.000491801
0.9996271879
0.999016683
0.9985193213
0.9989475363
1.00033865
1.001691203
1.002142029
1.002253432
1.001863856
1.001803639
1.001440576
1.000503825
0.9983803549
0.995594148
0.9929906062
0.9926358809
1.001484839
1.000809396
1.000553061
1.000919798
1.001739477
1.002828576
1.00318541
1.002013263
1.00016469
0.9993532929
0.9993620462
0.9990967723
0.9987447305
0.9977359459
0.9966230295
0.995359246
0.9945484251
1.001553101
1.001132536
1.001036129
1.001525772
1.00216212
1.002556378
1.001664122
0.9985847877
0.9965472273
0.9967032694
0.9977169388
0.9984866184
0.9990578873
0.9985751706
0.998484421
0.9982620735
0.9978119905
1.000295136
1.000020511
1.00051248
1.001493952
1.001623826
1.000378971
0.9970223616
0.9946349467
0.9949359213
0.9956838137
0.9963085941
0.9974025929
0.9986306841
0.9991820445
0.9997494806
1.000983935
1.001018771
0.9975666062
0.9975032575
0.9982252508
0.9987204388
0.9976724389
0.9950530641
0.9932394091
0.9936256498
0.9950311204
0.9955182187
0.9957741025
0.9964672742
)
;

boundaryField
{
    inlet
    {
        type            fixedValue;
        value           nonuniform 0();
    }
    outlet
    {
        type            zeroGradient;
    }
    bottom
    {
        type            slip;
    }
    top
    {
        type            slip;
    }
    obstacle
    {
        type            zeroGradient;
    }
    defaultFaces
    {
        type            empty;
    }
    procBoundary23to17
    {
        type            processor;
        value           nonuniform List<scalar> 
20
(
1.00267403
1.003371408
1.002831902
0.9958902368
0.9972418498
0.997677288
0.9972719523
0.9974338239
0.9984496792
0.9999555707
1.001083794
1.001602249
1.001480518
1.001122302
1.000514959
0.9997675705
0.9990457517
0.9989416101
0.9990604296
0.9990604296
)
;
    }
    procBoundary23to22
    {
        type            processor;
        value           nonuniform List<scalar> 
32
(
0.9953538621
0.9959176052
0.9986972256
1.001790535
1.004780286
1.005433247
1.004374414
1.001525828
0.9987397022
0.9987397022
0.9951071438
0.9943232614
0.9948307694
0.997666728
1.000543457
1.001404684
1.001742795
1.000717641
0.9987995898
0.9975052797
0.9974911808
0.99761225
0.9982616126
0.9989325429
0.9989325429
0.9985738734
0.9982818719
0.9990791538
1.000792305
1.002043934
1.002184873
1.001390182
)
;
    }
    procBoundary23to28
    {
        type            processor;
        value           uniform 0.998909548;
    }
    procBoundary23to29
    {
        type            processor;
        value           nonuniform List<scalar> 
18
(
0.9971585339
0.9996758035
1.001736167
1.003685888
1.003718233
0.9960475795
0.9959151371
0.9958526685
0.9951899425
0.9937794065
0.9929256311
0.9934482759
0.9945766343
0.9960875235
0.9967033903
0.996555964
0.9971585339
0.9968084456
)
;
    }
}


// ************************************************************************* //
