/*--------------------------------*- C++ -*----------------------------------*\
  =========                 |
  \\      /  F ield         | OpenFOAM: The Open Source CFD Toolbox
   \\    /   O peration     | Website:  https://openfoam.org
    \\  /    A nd           | Version:  7
     \\/     M anipulation  |
\*---------------------------------------------------------------------------*/
FoamFile
{
    version     2.0;
    format      ascii;
    class       volScalarField;
    location    "1.4";
    object      p;
}
// * * * * * * * * * * * * * * * * * * * * * * * * * * * * * * * * * * * * * //

dimensions      [1 -1 -2 0 0 0 0];

internalField   nonuniform List<scalar> 
2222
(
0.4857239059
0.4819681847
0.4808798378
0.4791056867
0.4751260404
0.4708709302
0.4707825867
0.4731572214
0.5113641133
0.6760519102
0.9740560674
1.068626778
1.068973696
1.059888584
1.045645836
1.020544239
1.007137716
0.9864389898
0.5326637386
0.5265889832
0.5214973733
0.5169814977
0.512631502
0.5077866943
0.5043823876
0.5016640379
0.4988286272
0.4952693614
0.4919527035
0.4887979669
0.4854068717
0.481884583
0.4766373687
0.4733393313
0.4719437556
0.471071472
0.4681963013
0.4643549403
0.4628435359
0.4633104744
0.4729276703
0.5517454512
0.8043492716
1.030281817
1.05090611
1.040173606
1.029420665
1.015548521
1.000416186
0.9822827634
0.5217805021
0.5159483032
0.5112500314
0.5070615904
0.5030924337
0.4987502943
0.495540282
0.4929483652
0.4902482014
0.4866775831
0.4833355541
0.4802823495
0.4769444413
0.4734675152
0.4690186348
0.4666076855
0.4648989009
0.4638426438
0.4615933952
0.4570104126
0.4527095029
0.4530151452
0.4550671767
0.4834212062
0.6381906645
0.9127049816
1.015442647
1.037169762
1.032139287
1.019951014
0.9962133343
0.9856010733
0.5105100745
0.5052354289
0.5009016725
0.4969688436
0.4932566698
0.4892957474
0.486147826
0.4834403884
0.4807514514
0.4774074639
0.4743953835
0.4717019007
0.4687378437
0.4653614393
0.4606664746
0.458348173
0.4567504247
0.4548682294
0.4533149696
0.4495628965
0.4455694583
0.4448380727
0.4442668737
0.4514416203
0.5163439278
0.7685774552
0.9677504467
1.004864902
1.012210585
1.02475116
1.062944748
1.266910797
0.5006321952
0.4956351887
0.4912449505
0.4874080999
0.4838201087
0.4797764084
0.4765809334
0.4741528125
0.4717997093
0.4689209024
0.466047908
0.4632749912
0.4601857844
0.4567119675
0.4518480763
0.4502312133
0.4491444399
0.44724879
0.445905302
0.4429954414
0.4386249091
0.4361718788
0.434998062
0.4376122103
0.4631611632
0.6410123204
0.8664241476
1.078203013
1.194754218
1.358778871
1.5509566
1.806877669
0.490452697
0.485544896
0.4813341639
0.4775798318
0.4740354904
0.4702264116
0.4674373293
0.4651270689
0.4628499057
0.4598564037
0.4569902409
0.4545021018
0.4517923611
0.4488280796
0.4444893248
0.4429360261
0.4420199025
0.4403565082
0.4382979151
0.4354799934
0.4319293205
0.4281473422
0.4283682036
0.4299482385
0.4439885564
0.5581296801
1.001845467
1.484005154
1.728192579
1.894963713
1.932479324
1.946399525
0.4798780819
0.4753630623
0.4714271877
0.4680703881
0.4649062646
0.4615098139
0.4586983667
0.45625685
0.4539139627
0.4512982259
0.4488743003
0.4465430279
0.4439904409
0.4410077007
0.4366028812
0.4351298107
0.4347498021
0.4333176858
0.4304972934
0.4263615569
0.4245377398
0.4234113268
0.4257692424
0.4600906003
0.5641276195
0.7611002167
1.114051621
1.542379554
1.865416441
2.047698334
2.041172761
1.984557571
0.4704607789
0.4663123683
0.4624580538
0.4590566236
0.4559721544
0.4526962337
0.4500625221
0.4479107632
0.4458120848
0.4432759086
0.4408054849
0.4385123707
0.4360489001
0.433225627
0.4291621223
0.4278981408
0.4270042566
0.4252656991
0.420571273
0.4183452809
0.4192724124
0.4331554972
0.4927928796
0.6574158654
0.8584590857
0.9345543792
1.066989163
1.385579803
1.792495154
2.038811505
2.039735867
2.012601729
0.4603901693
0.456361333
0.4525076862
0.449396859
0.4465663313
0.4434036552
0.4407711468
0.4385221394
0.4364790239
0.4340442804
0.4320311384
0.4299896423
0.4276643162
0.4246808127
0.4210376933
0.4190603604
0.4179882886
0.4168367202
0.4154489773
0.4188361373
0.4500262172
0.5808749921
0.7678804784
0.8673591201
0.9446513577
0.9624965096
1.002902323
1.165769875
1.541689408
1.863062551
1.985361679
2.00441123
0.4507746524
0.4466396975
0.442701492
0.4396244292
0.4368251568
0.4337811015
0.4316001827
0.429921776
0.4280331663
0.4262541225
0.4240979496
0.4221192491
0.4198197697
0.4172024345
0.4130498527
0.4112581965
0.4124660661
0.4137578188
0.4274760035
0.5079332473
0.6675417093
0.808461136
0.9391216647
0.9664378416
0.9723567267
0.9713727519
0.9760171916
1.030754235
1.238602062
1.659157939
1.98063249
2.016648065
0.4409741884
0.4370792425
0.4337325959
0.4311258127
0.4287931337
0.426392476
0.4242610686
0.4222965605
0.420658933
0.41817491
0.4162625188
0.4144676812
0.4118982998
0.408318522
0.4050005796
0.4057795086
0.4125736997
0.4594041553
0.5846340422
0.7820563083
0.9354712009
0.9565249194
0.9769518816
0.989912926
0.9911519451
0.9859802986
0.9800051402
0.9861868268
1.055267283
1.360495683
1.808262221
1.986518133
0.4313088802
0.4281492133
0.4249336145
0.4226371611
0.4204983861
0.4178925747
0.4155253367
0.4136606697
0.4119178212
0.4100780258
0.4080734537
0.4061444094
0.4033101623
0.4011544238
0.4028900591
0.4227305795
0.525404144
0.6915840845
0.8591980054
0.9107734397
0.971823381
0.973667867
0.9811942159
0.9893357072
0.9923462459
0.9910463818
0.9856343264
0.985666477
0.9983469675
1.114606934
1.505677594
1.921129217
0.4226195157
0.4191739104
0.4159218281
0.4133502523
0.4110649421
0.4088339949
0.4071240238
0.4058633913
0.4041022929
0.4017865623
0.3989423262
0.3976180922
0.397916579
0.4068095589
0.4713046803
0.6074229944
0.7823256622
0.9117200177
0.9815448337
0.9659444128
0.9711263424
0.9710656892
0.9727797441
0.9776491969
0.983832839
0.9881953117
0.9871133677
0.9869557222
0.9890127165
1.016768432
1.206174834
1.737298952
0.4131244564
0.4097833182
0.406874589
0.4049903615
0.4034021159
0.4013921151
0.3996717709
0.39763905
0.3956442982
0.392012507
0.3920400007
0.3952377148
0.4207156516
0.5399220837
0.7407247991
0.9093405692
0.9585993883
0.9854105326
0.997683098
0.9930903712
0.9832877596
0.9761208914
0.9741453761
0.9742406705
0.9770343103
0.983096615
0.9876935134
0.9887043315
0.9891280606
0.9942558986
1.04576781
1.487046175
0.4039700487
0.4013126272
0.398433801
0.3967766416
0.3951604278
0.3931137646
0.3906424312
0.3887665955
0.3873850213
0.3880966687
0.3990874379
0.4755959758
0.6316432603
0.8076462608
0.8837667535
0.9588641439
0.9750704828
0.9885040532
0.9942311422
0.9937637747
0.9893408828
0.9837800356
0.979656368
0.9789645901
0.9803714161
0.9839688273
0.9878280774
0.9897356815
0.9899635056
0.9911481864
1.001066537
1.264877306
0.3957746149
0.3927385827
0.3900501839
0.3882165481
0.3862929445
0.3837361675
0.3822648158
0.3827039637
0.3873320353
0.435091539
0.5605562766
0.7477336711
0.9192789408
0.9680423863
0.9574591582
0.969798917
0.9733241819
0.9745553348
0.9784902176
0.983519812
0.9868478053
0.9876994441
0.9887595598
0.98946263
0.989295994
0.9891061436
0.9892244614
0.9901627344
0.9908184077
0.9912891255
0.9934521359
1.12094749
0.3868724606
0.3842279213
0.381148617
0.3796633748
0.3774617668
0.376816552
0.3786417469
0.3981811663
0.498347044
0.691612856
0.8773515091
0.9097294836
0.9612351698
0.9826960847
0.9824420641
0.9821736438
0.9791540498
0.973970061
0.9737290028
0.9762586743
0.9814889703
0.9880993488
0.9921283946
0.9945783804
0.9947280898
0.9935956169
0.9921763632
0.9907261075
0.9908570533
0.9918093461
0.9920382809
1.044669898
0.3783384814
0.3752084266
0.3718022821
0.3708156789
0.3712446082
0.3777514375
0.4427405407
0.591797126
0.7831750561
0.8715265756
0.9501616679
0.9579695634
0.968290788
0.9748927391
0.9816884569
0.9851465607
0.9852979986
0.981014477
0.9790270026
0.979777901
0.9825653928
0.9868958585
0.9915823769
0.9944722677
0.9957866297
0.9954426652
0.9941975966
0.9933899942
0.9931457801
0.992955752
0.9918621436
1.010529878
0.3697566479
0.3651885067
0.3648659018
0.3678848221
0.4035095071
0.514627645
0.713534198
0.907816204
0.9651074856
0.9580290014
0.9708266778
0.9831363702
0.9809097988
0.9780820722
0.9800445963
0.9847159131
0.9874184547
0.9883654387
0.9887098319
0.9886234045
0.987673123
0.9860134007
0.9868449438
0.9883618479
0.9908495356
0.9929426804
0.9946616953
0.9951927578
0.9950324553
0.9946708087
0.9931413655
0.998891917
0.3598797936
0.3607597589
0.3757142362
0.4619306912
0.6505649801
0.8590936209
0.9078807666
0.9703933269
0.9833652852
0.9749419186
0.9785973827
0.9873952328
0.9889979062
0.9849329476
0.9801247054
0.9812737236
0.9845747883
0.9876632258
0.9893207629
0.98983404
0.9888693676
0.9863714616
0.9840349519
0.9843573803
0.9862431832
0.9897745758
0.9935903569
0.9959887454
0.9963530176
0.9962964874
0.9951043404
0.9967168285
0.359204507
0.4170947011
0.5629988999
0.7593647537
0.8560534833
0.9440237063
0.9467145947
0.9603148102
0.971476729
0.9742416704
0.9780246533
0.9845733051
0.9890080538
0.9867181171
0.9827952079
0.9810353315
0.9824230208
0.9851333665
0.987638412
0.9890509034
0.9888569609
0.9870940615
0.9849835202
0.9850829889
0.9863658182
0.9892699114
0.9926381158
0.9945457698
0.9952837114
0.9958953695
0.995821795
0.996455021
0.4771643321
0.6895222434
0.8880788745
0.9555679603
0.9552370842
0.9726343905
0.9764004445
0.9730405359
0.9741044081
0.9723701064
0.9734801556
0.9775764125
0.9831828109
0.9862419323
0.9851323157
0.9841786256
0.9840049844
0.9839998189
0.9842982149
0.9858423348
0.9869100908
0.9869855694
0.9870520351
0.9882531645
0.9893499269
0.9906280185
0.9922636675
0.9936780188
0.9942312869
0.9949403075
0.9952448776
0.9956742801
0.811817263
0.8738103629
0.9431327445
0.9787305467
0.9735454662
0.9821972035
0.9908141054
0.9887754417
0.983744872
0.9764964867
0.9728905442
0.9731384187
0.9771900766
0.9834957338
0.9868278985
0.9875260418
0.9879539194
0.988023324
0.9877994923
0.9871551652
0.9873929439
0.9879324368
0.9893840784
0.99120501
0.9924524509
0.9931724096
0.9933624471
0.9937181296
0.9940483156
0.9940853726
0.9941985081
0.9947309645
0.9750582005
0.9602675067
0.9556251751
0.9637757167
0.9722829816
0.9812985104
0.9888075105
0.9889141204
0.9860002364
0.9818058545
0.9767953678
0.9766521617
0.9793070599
0.9839770577
0.9882813103
0.9899604928
0.9909222506
0.9921450122
0.9923890013
0.9920537944
0.9917269107
0.9917645724
0.9922042323
0.9929879648
0.9941946406
0.9947189338
0.9944308894
0.9940630351
0.9941701402
0.9938903933
0.9933834175
0.9938305111
0.9850823265
0.9824761879
0.9699643005
0.96816876
0.9698248426
0.9762634784
0.983179399
0.9856618211
0.9847787133
0.9817865376
0.9814727282
0.9823581451
0.982833043
0.9858441519
0.9886611429
0.9909420588
0.9927538494
0.9943884541
0.9955962886
0.9956594649
0.9954056271
0.9951678572
0.994762515
0.9941261908
0.9942873049
0.9945452603
0.9947051801
0.9948526435
0.9950634208
0.994930799
0.9945191052
0.9950409474
0.976043872
0.9816706096
0.9793098718
0.9755246674
0.9742363662
0.9735450559
0.9748492019
0.9761557088
0.9774378283
0.9789355235
0.9815003357
0.9842706826
0.9859967582
0.986850493
0.9871389827
0.9882383519
0.990016735
0.9925590503
0.9957757828
0.9972076302
0.9973491979
0.9969342133
0.9958742947
0.9944008371
0.9939671796
0.994119686
0.9945567358
0.9952886552
0.9957755497
0.9957175429
0.9955553268
0.9964563884
0.9688585963
0.9758522026
0.9789310084
0.9811215455
0.9803250321
0.9769783536
0.9751610187
0.9751460178
0.9752258611
0.9767040668
0.9801074048
0.9838396792
0.9869672208
0.9874149485
0.9864253843
0.9856831645
0.9859414852
0.9877916665
0.9910581157
0.993735532
0.9950535697
0.9951661522
0.9947397359
0.9937400954
0.9935761055
0.9938051847
0.9942868639
0.9947951937
0.9949920519
0.9948150143
0.9946906092
0.9957967053
0.9690066066
0.9725923335
0.9768668215
0.9808585145
0.9823940208
0.9823583953
0.9816241081
0.9818881343
0.9813969946
0.9806716806
0.9813856029
0.9829299898
0.9846687004
0.9864437645
0.986831814
0.9863096444
0.9860452731
0.9865460616
0.9879269175
0.9894810705
0.9909837123
0.9921410011
0.9930879485
0.9938415728
0.9944798379
0.9950590625
0.9955487369
0.9957070979
0.9953465784
0.9950087713
0.9950962174
0.9962295236
0.9726168184
0.9733748426
0.9759107268
0.979636591
0.9840514864
0.9877556032
0.9892944029
0.9896857819
0.9890786999
0.9877164538
0.9856446343
0.9838924873
0.9838658648
0.9851849111
0.9869926748
0.9880209411
0.9881064196
0.9877730174
0.987557871
0.987852109
0.9886397746
0.9900303011
0.9918163937
0.9937011979
0.9954438604
0.9968070337
0.9973170853
0.9972648151
0.9966767083
0.9960798369
0.9961438187
0.9973896033
0.9758190352
0.9757928217
0.9767170587
0.9789041176
0.9822234314
0.9865352574
0.9897388005
0.9912648773
0.9916368793
0.9907185445
0.9890457052
0.987366903
0.9868135171
0.9874942877
0.9887623839
0.9895643631
0.9895703527
0.989097752
0.9887358723
0.988753055
0.9895083652
0.9910168927
0.9929856604
0.9949873769
0.9965675346
0.9976890992
0.9981023874
0.9979739186
0.9976699527
0.997290445
0.9976192185
0.9992665249
0.9771929241
0.9778421102
0.9776486032
0.9781567998
0.9800379425
0.983426015
0.9875003929
0.9896789172
0.9905818341
0.9905494838
0.989953029
0.9898597601
0.9908436297
0.9917373269
0.9923493876
0.9925535773
0.9921050649
0.9915595757
0.9913047715
0.9914032154
0.9920331872
0.993382407
0.995461494
0.9980154697
0.9999048896
1.00089084
1.001090055
1.000412628
0.9991396055
0.9974337873
0.9964398577
0.9972788173
0.9789454359
0.9811902777
0.9798207809
0.9778183059
0.9771569563
0.9787424419
0.9831234435
0.9885533881
0.9907728105
0.9908269811
0.9904269691
0.9903101408
0.9917625797
0.9934619817
0.9942647958
0.9941138733
0.9931033222
0.9921960454
0.9916963566
0.9918131734
0.9923674782
0.9931247148
0.9936751656
0.9944748836
0.9963162432
0.9988476075
1.000739598
1.001258023
1.000661345
0.9997378363
0.9988908679
0.9983910158
0.9794592609
0.9827181634
0.9819772163
0.978168695
0.9765214548
0.9771369522
0.9802484848
0.9860501254
0.9903247439
0.9914889131
0.9910607623
0.9910018714
0.9924644485
0.993647873
0.9943042973
0.9940277516
0.9928309138
0.9913695244
0.9905863321
0.9911041535
0.9917950988
0.9922723573
0.9920502558
0.9913970533
0.9912005861
0.9923190253
0.9946233958
0.9978219061
1.000613085
1.001730977
1.001780712
1.000749079
0.9779069627
0.9815342795
0.9825370694
0.9807290678
0.9778542007
0.9775719871
0.9799043143
0.983541965
0.9874209713
0.9906725593
0.9917680673
0.9923928022
0.9929921811
0.9936974641
0.9937857513
0.9933752674
0.9922997313
0.9913112955
0.9908577961
0.9913798965
0.9919486114
0.9921536919
0.9914871893
0.9898571788
0.9891842598
0.9898248174
0.9913394059
0.9940824672
0.9977550149
1.001219295
1.002820038
1.002199957
0.9759291815
0.9791889837
0.981097749
0.981514773
0.9806390353
0.9795017265
0.9799978458
0.9824120164
0.9846341693
0.9876561414
0.9911597677
0.9933257814
0.993814634
0.9935512974
0.9931145261
0.9926923074
0.9925370016
0.9925137334
0.9923498338
0.9926021009
0.9927292503
0.9922566189
0.990827698
0.9885163063
0.9882341511
0.9889509855
0.9905089635
0.9927681112
0.9954983444
0.9986821571
1.00167581
1.002204866
0.9742757044
0.9768597164
0.978761245
0.9808147112
0.9823487268
0.9822810184
0.9814195666
0.9806761749
0.9818424736
0.9847303655
0.9890742365
0.9930612693
0.9939511469
0.9932495074
0.9924739554
0.9919505896
0.9921151587
0.9929098624
0.993912531
0.9952773955
0.9954923873
0.9939373312
0.9910138346
0.9889133312
0.9885047891
0.9891334296
0.990706783
0.9927844123
0.9944378369
0.9961507814
0.9985380294
1.001276734
0.9744667667
0.976230245
0.9774823089
0.9795203677
0.9823781047
0.9835052946
0.9827368263
0.9810062079
0.9807452779
0.9829774474
0.9869753236
0.9919147556
0.9934893075
0.9929348372
0.9917173415
0.991019815
0.9913877594
0.9927370281
0.9947743752
0.9967419075
0.9977204477
0.9967835843
0.9948188341
0.9926387758
0.9911859257
0.9908670928
0.9914827137
0.9926806882
0.9939403373
0.995187655
0.996240862
0.9989767591
0.9755111485
0.9773064505
0.9777851805
0.9789828281
0.9811942536
0.9831427698
0.9830180045
0.9819545176
0.981222554
0.98199687
0.9852267494
0.9905506322
0.9928725851
0.9926429579
0.991394831
0.9905174123
0.9908234979
0.9924367923
0.9943120923
0.9962789269
0.9979873802
0.9983136333
0.9978294223
0.9969338721
0.9961499774
0.995188417
0.9943857332
0.9937516108
0.9937810757
0.9946670075
0.9954749576
0.9974205463
0.9777492088
0.9797585164
0.9795478841
0.9794374717
0.9803408192
0.9819904216
0.9823637711
0.9827716111
0.9824282922
0.9827104125
0.9845215647
0.9887355716
0.9920869408
0.9926466664
0.9920999039
0.9910572669
0.9905700603
0.990894896
0.9925759711
0.9953256389
0.9972024859
0.9989093236
0.99988524
1.000091905
1.0001038
0.9993202125
0.9984228839
0.9973672124
0.9963947588
0.9955909849
0.995347837
0.9968114098
0.9797665657
0.9820936491
0.9820730178
0.9799513473
0.9790622946
0.9791036691
0.9815301927
0.983141005
0.9834793047
0.9837553143
0.9849676238
0.9876961772
0.9913461651
0.9931156605
0.993348585
0.9926697834
0.9908304417
0.9899113147
0.9903980985
0.9929698867
0.9962507322
0.9988623085
1.001093077
1.002042513
1.002389511
1.001793268
1.00124807
1.000775944
1.000195503
0.9987322526
0.9967879877
0.9966987734
0.9802916413
0.9830916204
0.983444525
0.981269605
0.9789551752
0.978136967
0.9787827229
0.9825419326
0.9839418941
0.9844785906
0.985527438
0.9875507253
0.9910734654
0.994153009
0.9949265168
0.994364948
0.9921272009
0.9896894957
0.9888831492
0.9900453495
0.9942956129
0.9987793911
1.00139883
1.003027262
1.003508132
1.003157491
1.003143485
1.003178342
1.002950517
1.002019248
1.000008446
0.9977652899
0.9801189013
0.9832837253
0.9838729409
0.9828961007
0.9805483695
0.9785265454
0.9781919618
0.9796986026
0.9842162723
0.9852250429
0.986065224
0.9877361305
0.9910012757
0.993994105
0.9949421594
0.9945138524
0.9926231186
0.9895416649
0.9878593477
0.9881757944
0.9907236174
0.9961799288
1.00087223
1.002890132
1.003408071
1.003166208
1.003326229
1.003648346
1.003816214
1.003633863
1.002609958
1.000081969
0.9763774049
0.9816044678
0.9842607965
0.9841264972
0.9828992555
0.9802651101
0.978997247
0.9791442575
0.9820936399
0.9855049292
0.9864955224
0.9878483237
0.9897556752
0.9919604647
0.9940091994
0.9942768396
0.9924834463
0.9904293152
0.9887562704
0.9876298473
0.9881947971
0.9910516731
0.9961594818
1.001092531
1.00281317
1.002959346
1.003285919
1.004101035
1.004558062
1.004638374
1.004028412
1.002346953
0.9730133333
0.9770745275
0.9836795248
0.985502643
0.9849957236
0.9828997288
0.9807870074
0.9799504844
0.9808203924
0.9843252457
0.986534038
0.9879776731
0.9893697236
0.9899519009
0.990312346
0.9912268431
0.9916422306
0.9908195474
0.9896476686
0.9880226784
0.9872169866
0.9880345965
0.9902416133
0.994554355
0.9991974237
1.001490712
1.002533761
1.003765074
1.004672983
1.005094458
1.004579423
1.003568549
0.9722488156
0.9743734634
0.9802253356
0.9862138685
0.9866085657
0.985067754
0.9830742623
0.9814604908
0.9813006047
0.9833873772
0.9867963172
0.9888392788
0.9900989242
0.9898180749
0.9887425008
0.9880736028
0.9888455862
0.9903802009
0.9904100721
0.9891252076
0.9874046375
0.9874955717
0.9880557866
0.9897846878
0.9933484897
0.9971344459
0.9989543033
1.000275393
1.001370022
1.002804844
1.004113704
1.004859386
0.9731069644
0.9744683206
0.9785602509
0.9837657973
0.9871747604
0.9868608509
0.9850700992
0.9834063924
0.9824288857
0.983384647
0.9873032508
0.9900864993
0.991249873
0.9907624736
0.9890929641
0.9876882185
0.9876454325
0.9888826575
0.9901422672
0.989981141
0.9887358336
0.9882347155
0.9880323369
0.9886466309
0.9908270973
0.9945878267
0.9969809509
0.9978268419
0.9982491756
0.9989545525
1.000836733
1.004634959
0.9750087137
0.9760052113
0.9789993987
0.982059744
0.9854326348
0.9873279603
0.9868449986
0.9853547049
0.9837622564
0.9837097426
0.9862470954
0.9902968717
0.9918886745
0.9916763383
0.9901182499
0.9890660192
0.9886957339
0.9889069281
0.9897331563
0.9904394188
0.9902533162
0.9893280696
0.9889590586
0.9893945354
0.9913794767
0.9946229129
0.997224271
0.9978088278
0.9978162344
0.9975584023
0.998013795
1.000992833
0.9773824502
0.9768153255
0.9779581426
0.9803576589
0.9816827086
0.9833534555
0.9861535706
0.9874788071
0.9867866139
0.984777549
0.9834619848
0.984228236
0.9880408814
0.9917532061
0.9929031865
0.9927285552
0.9920146962
0.990885759
0.9905164257
0.9907629705
0.9914113665
0.9917955491
0.9919703828
0.9921662281
0.9920149185
0.992982161
0.9958143866
0.998677999
0.9994127232
0.9993343006
0.9985817827
0.9978281414
0.9983592658
0.9777653202
0.9780342266
0.9792965788
0.9814840585
0.9819313658
0.9826341145
0.984856182
0.9870228508
0.9869844021
0.985372773
0.9829228415
0.9824635823
0.9841069858
0.9888940256
0.9935656325
0.9949923601
0.9942931065
0.9933594182
0.9928490638
0.9924779285
0.9928901663
0.9936037671
0.9942061276
0.9945984922
0.9948705483
0.9957449865
0.9975770295
1.000495762
1.001796949
1.001824998
1.000739814
0.9990344686
0.9982739363
0.9769396939
0.9785727586
0.9798588229
0.9817891902
0.9825520843
0.9833739088
0.9849472456
0.9868043821
0.9874952006
0.9862266942
0.9836243497
0.9820530839
0.9821842553
0.9846455088
0.9905456502
0.9952460313
0.9959502033
0.9953394047
0.9943595481
0.99393425
0.9945367113
0.9953198114
0.9959145277
0.9965142855
0.9974441588
0.9981285027
0.9991394025
1.00108118
1.002998454
1.003346849
1.002371049
1.00041808
0.9987773974
0.974240097
0.9771477294
0.9798049646
0.9820787801
0.983895104
0.9851459456
0.9859337096
0.9869892722
0.9881401554
0.9874209893
0.9851776071
0.9830318636
0.9821767371
0.9829836566
0.9866625258
0.9915981894
0.9945246001
0.9950068369
0.9943703646
0.9944965897
0.9956172469
0.996972798
0.9975520525
0.998247074
0.9995388645
1.000151731
1.000206593
1.000381247
1.001668712
1.002662061
1.002505739
1.000957843
0.9989788774
0.9728537779
0.9746319355
0.9787601539
0.9825098134
0.98531094
0.987321738
0.9873628124
0.9875622484
0.9885036437
0.9887315919
0.9872027449
0.9851072473
0.9837199968
0.9833987956
0.9849763468
0.9876394944
0.9901404347
0.9913529209
0.9912794812
0.9918739331
0.9933941742
0.9962774453
0.998676698
1.00000411
1.001376954
1.001847254
1.001025649
0.9992315258
0.9987822841
0.9993168794
0.9999579862
0.9999640351
0.9992343016
0.9734071736
0.9745479722
0.9772728566
0.9821580225
0.9861036931
0.9886617221
0.9885764367
0.9880223667
0.988469234
0.9897863022
0.9891666586
0.9872471193
0.9857629992
0.9848873451
0.985436886
0.986354353
0.9871794948
0.9877932253
0.9877546084
0.9879298623
0.9886490711
0.9908706996
0.9956009955
1.000161992
1.002854557
1.003503818
1.00191403
0.9987606321
0.996396474
0.9954928631
0.9954677942
0.996759391
0.9991150535
0.9758006223
0.9760746333
0.9775541711
0.9811944643
0.9859205534
0.9887853197
0.9889968855
0.9880889697
0.9882736222
0.9900018005
0.9908748502
0.9894764085
0.9876862289
0.9868550419
0.9861224912
0.9863106385
0.9870805142
0.9876567491
0.9875900362
0.9869455217
0.986406353
0.9870551531
0.9899939018
0.9957459321
1.001742938
1.004150602
1.002648213
0.9988073325
0.995019388
0.9928860289
0.9923234704
0.9931463705
0.9978592318
0.9790000594
0.9782650837
0.9789209112
0.9809613969
0.9845824585
0.9877171896
0.9888324483
0.9883412651
0.9882819912
0.9888184333
0.9908189996
0.9911362199
0.9893243924
0.987761094
0.9868188113
0.9871521658
0.9883449786
0.9889442349
0.988837605
0.9878188676
0.9868588123
0.9867313388
0.9877768438
0.9907157542
0.9961129249
1.000779485
1.001757631
0.9991474574
0.9952576247
0.9928762254
0.9921434835
0.9923535443
0.9961153186
0.9811180629
0.9808868225
0.9804557398
0.9811523612
0.9831329186
0.9859636857
0.9882353902
0.9890678731
0.989054534
0.9886191904
0.9888079736
0.9900574081
0.9904434049
0.9897946163
0.9900806119
0.9906237595
0.9913643861
0.9911818873
0.9905358509
0.9894641363
0.9880183126
0.9873711475
0.9879230074
0.9895373544
0.9923082899
0.9955737756
0.9986585957
0.9987804294
0.996276979
0.9940246949
0.9932103233
0.9932029597
0.9957040375
0.9828197683
0.9826896921
0.9824084375
0.9819167954
0.9826589169
0.98499166
0.9882874336
0.9903564072
0.9903761894
0.9893134181
0.9880627173
0.9874180971
0.9893767349
0.9915663336
0.9922301543
0.9934999307
0.9952179096
0.9957343835
0.9953906519
0.9940885053
0.9922022757
0.9902979396
0.9899180075
0.9909428126
0.9917924293
0.9929209884
0.9949929844
0.997041178
0.9966852825
0.9952736136
0.994839051
0.9950578054
0.9965735661
0.9837320845
0.9844774436
0.9841570221
0.9833371655
0.9835807733
0.9857263718
0.9896436484
0.9922826283
0.992208787
0.9905956432
0.9881591848
0.9861255282
0.9868120163
0.991147135
0.9940305076
0.9959197297
0.9982841408
0.9993019168
0.9991160589
0.9982234799
0.9972049834
0.9958063797
0.9942179282
0.9937050793
0.9927039007
0.9928195998
0.9935017451
0.9952487623
0.9968863092
0.9970953418
0.9970172582
0.9973230801
0.9977634303
0.9819507572
0.9858118106
0.9860319933
0.9853129016
0.9853039932
0.9869965341
0.991149395
0.9939631888
0.9938556524
0.9921750201
0.9890586161
0.9865680255
0.9862343424
0.9887107428
0.9942162187
0.9978797977
1.000673112
1.001916389
1.00185737
1.001409728
1.00086713
0.9998987768
0.9981711732
0.9952037171
0.9942165829
0.9941266487
0.9938850349
0.9946247447
0.9965719349
0.9982039091
0.9987895882
0.9992011953
0.9990280156
0.9805244909
0.98517431
0.98687062
0.9870312785
0.9866554298
0.9877079691
0.9913734233
0.9946191371
0.9947535195
0.9931676659
0.9906546378
0.9882681762
0.9873359494
0.9880670303
0.9917351862
0.9980841147
1.002334149
1.003917694
1.00418535
1.004243817
1.003931671
1.00289927
1.001211727
0.9993119795
0.9974420885
0.9952633193
0.9949223827
0.9954315733
0.9966981776
0.9981420428
0.9993552001
1.000002422
0.9997572001
0.9813941423
0.9845016541
0.9863923202
0.9870328031
0.9871246766
0.9877246406
0.9904891634
0.9934481944
0.9945371501
0.9937526819
0.992307532
0.9907360128
0.9893251239
0.9893220178
0.9905271083
0.9946712852
1.001239173
1.005020098
1.006138924
1.006547654
1.006316537
1.005344069
1.003752228
1.00184547
1.000024412
0.9985920377
0.9975394727
0.9972998764
0.9980552639
0.9988826372
0.9997730899
1.000108651
0.999206714
0.9834814913
0.9856040685
0.9869067297
0.9873319139
0.9876349329
0.9874745122
0.9886459043
0.9903014376
0.9922021572
0.9936485391
0.9939783616
0.993528287
0.9923532392
0.9912023827
0.991048719
0.992195188
0.9956616508
1.000761093
1.004931003
1.00696181
1.007467848
1.007119468
1.005857799
1.004117589
1.002611109
1.001215596
0.9999114942
0.9997189085
0.9999332516
1.000142524
1.000236979
0.9996267793
0.9980771031
0.986259136
0.9875092861
0.988175694
0.9880686716
0.9878878957
0.9873352706
0.9872630855
0.9876118821
0.9888752311
0.9915365114
0.9947476103
0.9957623977
0.9946816966
0.9933368652
0.9926693625
0.992072737
0.9916758391
0.9928790914
0.9958087441
0.9988460367
1.001505906
1.004204463
1.005773116
1.005692387
1.004696827
1.003469789
1.002386199
1.001700254
1.001407344
1.001284637
1.000831064
0.9997694089
0.998314373
0.9857070559
0.9887279198
0.9895456175
0.9894299867
0.9887108972
0.9878642815
0.9872649905
0.986819175
0.9866101126
0.9873865927
0.9893978803
0.9922183208
0.9950158253
0.9957920703
0.9952656326
0.9945154973
0.9928423417
0.9903879206
0.9882836975
0.9881331495
0.9894522937
0.9916889559
0.9952593165
0.9994594073
1.002563505
1.003948519
1.004291383
1.003922262
1.002995535
1.002525427
1.002254855
1.001800225
1.001077227
0.9997077696
0.9830609823
0.9895726836
0.9906132553
0.9900504812
0.988898091
0.9881256645
0.9881261815
0.9880520277
0.9875859097
0.9876804601
0.9889457116
0.9901838479
0.992129544
0.9948079652
0.996056507
0.9956885172
0.9940261108
0.9908833891
0.9872569735
0.9852624217
0.9850720627
0.9859001562
0.9884510477
0.9922002795
0.9956974776
0.9981677928
1.000311014
1.002300579
1.003444464
1.003693649
1.003561466
1.003527676
1.003210489
1.001925692
0.9802415083
0.9870318232
0.9896141065
0.9891776118
0.9883019863
0.9882942702
0.9893241871
0.9899697278
0.9898705715
0.98915224
0.9893928204
0.9893064658
0.9897374735
0.9920572416
0.9948477951
0.9954753388
0.9948548466
0.9918655106
0.9877517055
0.9843505523
0.9832650123
0.98397623
0.9859437841
0.9885408956
0.9912723469
0.9938869707
0.9961654234
0.998722886
1.002546385
1.004833058
1.005424691
1.00564509
1.005665673
1.004319658
0.9795196066
0.9840319671
0.9877785197
0.9879058934
0.9872558593
0.987325569
0.9888469621
0.9909456075
0.9917090862
0.9910196423
0.9902167732
0.9895440839
0.9892003292
0.9902869444
0.9930051288
0.9943945372
0.9944536958
0.9925652659
0.9891427532
0.9855872357
0.9848248997
0.9857517724
0.9872004333
0.9887975158
0.9906854104
0.9930002045
0.9948453979
0.9968342001
1.000591581
1.005393165
1.007643997
1.008142166
1.008384916
1.006798554
0.9801736024
0.9828164197
0.9868015273
0.9875630563
0.9869622692
0.986449456
0.9870431256
0.9893865185
0.9914145422
0.9915088473
0.9904191932
0.9897335582
0.9892542493
0.9903734426
0.992987917
0.9941356536
0.9939105352
0.9927978472
0.9909604498
0.9887315518
0.9878109639
0.9887294136
0.9894301142
0.9899782414
0.9910983278
0.9928798986
0.9945301845
0.9965386081
0.999797508
1.00489842
1.00898646
1.010330421
1.01077543
1.009155742
0.9812044463
0.9829601317
0.9866737873
0.9881575553
0.9877432955
0.9867561585
0.986010179
0.9865586751
0.9884176807
0.9896282211
0.9895951567
0.9896759057
0.9904713382
0.9925392857
0.9947442808
0.9953165383
0.9945339049
0.9934577826
0.99257084
0.9908191596
0.9895607328
0.9905467208
0.9916012927
0.9918303846
0.9924559808
0.9935811817
0.9952450683
0.9974230795
0.999962711
1.003585667
1.00796972
1.010735791
1.012056768
1.010952736
)
;

boundaryField
{
    inlet
    {
        type            fixedValue;
        value           nonuniform 0();
    }
    outlet
    {
        type            zeroGradient;
    }
    bottom
    {
        type            slip;
    }
    top
    {
        type            slip;
    }
    obstacle
    {
        type            zeroGradient;
    }
    defaultFaces
    {
        type            empty;
    }
    procBoundary11to5
    {
        type            processor;
        value           nonuniform List<scalar> 
33
(
0.4936465191
0.4899462843
0.4889956256
0.4865692443
0.4829975306
0.48068118
0.4810915285
0.4933027897
0.5951150052
0.8629500386
1.0710237
1.084418419
1.075203391
1.061347457
1.048730847
1.035831368
1.023354162
0.9980218479
0.5431020029
0.5369637988
0.5319618229
0.5273988656
0.5229956163
0.5180458593
0.5144552192
0.5114714894
0.5083618968
0.5044181238
0.5008401665
0.4975969555
0.4942244386