/*--------------------------------*- C++ -*----------------------------------*\
  =========                 |
  \\      /  F ield         | OpenFOAM: The Open Source CFD Toolbox
   \\    /   O peration     | Website:  https://openfoam.org
    \\  /    A nd           | Version:  7
     \\/     M anipulation  |
\*---------------------------------------------------------------------------*/
FoamFile
{
    version     2.0;
    format      ascii;
    class       volVectorField;
    location    "1.6";
    object      U;
}
// * * * * * * * * * * * * * * * * * * * * * * * * * * * * * * * * * * * * * //

dimensions      [0 1 -1 0 0 0 0];

internalField   nonuniform List<vector> 
138
(
(2.994019123 -0.01590708225 0)
(2.96151162 -0.09129539 0)
(2.943285319 -0.1475616928 0)
(2.910702085 -0.2382265482 0)
(2.903463023 -0.2329939515 0)
(2.908048982 -0.2218982414 0)
(2.918114179 -0.200674257 0)
(2.999786386 -0.0004724140211 0)
(2.992498506 -0.01657774654 0)
(2.972917759 -0.0745219382 0)
(2.93335739 -0.1775921145 0)
(2.914351273 -0.205209684 0)
(2.910472489 -0.2218988708 0)
(2.908282143 -0.2246009911 0)
(2.919438658 -0.198986715 0)
(2.943544391 -0.1433866961 0)
(2.99676738 -0.007492538332 0)
(2.96410639 -0.07937993861 0)
(2.949733836 -0.1419216085 0)
(2.906822421 -0.2548308454 0)
(2.896354023 -0.24436917 0)
(2.901131405 -0.2353242031 0)
(2.915913546 -0.2038460513 0)
(2.940886315 -0.1507211204 0)
(2.9743282 -0.06906500746 0)
(2.979316606 -0.04949244122 0)
(2.925663717 -0.1803201874 0)
(2.918246479 -0.2155870465 0)
(2.905247616 -0.2371295758 0)
(2.904109687 -0.2376673616 0)
(2.918320771 -0.2048235804 0)
(2.945627442 -0.1400270247 0)
(2.981304476 -0.04769706806 0)
(3.002015987 0.0111577847 0)
(2.940467961 -0.1577066572 0)
(2.900510772 -0.2719119175 0)
(2.897586265 -0.2564448806 0)
(2.903527703 -0.2458821061 0)
(2.919939589 -0.2118790645 0)
(2.955609114 -0.1261705119 0)
(2.987715931 -0.05142768324 0)
(3.009693944 0.05206921938 0)
(3.043544665 0.1768753099 0)
(2.922701869 -0.2199355807 0)
(2.900323205 -0.2537059866 0)
(2.902884619 -0.2495297095 0)
(2.923183194 -0.2093581089 0)
(2.962047242 -0.1234689923 0)
(2.993348451 -0.03632936664 0)
(3.032720069 0.09324425501 0)
(3.024207268 0.09672724521 0)
(3.071809268 0.2207548659 0)
(2.89605618 -0.2761791427 0)
(2.900745646 -0.263901772 0)
(2.920473009 -0.2135877881 0)
(2.958386323 -0.1119206588 0)
(3.007526222 0.01721592859 0)
(3.03482295 0.1234831991 0)
(3.066102322 0.2598309187 0)
(3.095384403 0.3150598642 0)
(3.103351886 0.3068389053 0)
(2.895504471 -0.2676553482 0)
(2.908922072 -0.2178043542 0)
(2.931068141 -0.1097338986 0)
(2.957408491 0.01220901153 0)
(2.998895417 0.1566512778 0)
(3.009019582 0.1832920532 0)
(3.046973872 0.2960147136 0)
(3.068067983 0.3453655387 0)
(3.065768969 0.3378899582 0)
(2.891458881 -0.2388264219 0)
(2.886394237 -0.06542200889 0)
(2.899067088 0.1801346675 0)
(2.903885498 0.2456677808 0)
(2.939195085 0.3697956611 0)
(2.959212734 0.3484154011 0)
(2.995634365 0.3495391196 0)
(2.994906124 0.3396823476 0)
(3.014136169 0.2479659092 0)
(2.954747962 0.03114495079 0)
(2.958675229 0.04298606282 0)
(2.972445568 0.2927631975 0)
(2.92319254 0.3616189068 0)
(2.907316301 0.4138533464 0)
(2.925014843 0.3894241282 0)
(2.933403917 0.3308168726 0)
(2.911243529 0.1566590357 0)
(2.895303049 0.07891896936 0)
(3.046168253 0.4280832322 0)
(3.677722886 0.426971672 0)
(3.539998381 0.3923034457 0)
(3.201167684 0.4001325714 0)
(2.988027176 0.4218812841 0)
(2.89684455 0.3525290274 0)
(2.887339452 0.1995852305 0)
(2.872143578 0.0334235123 0)
(2.703668873 -0.005966383085 0)
(3.129104139 0.4484222761 0)
(3.626133947 0.4255365092 0)
(3.54761455 0.3980849991 0)
(3.220878839 0.4030095233 0)
(2.996118556 0.4167651898 0)
(2.894741182 0.3315237483 0)
(2.87252174 0.145890037 0)
(2.84150992 0.01779154162 0)
(2.721435413 -0.005800322839 0)
(3.186337488 0.4509549331 0)
(3.561076708 0.421405292 0)
(3.543773813 0.4006587209 0)
(3.23877963 0.416884717 0)
(3.005933781 0.4151238144 0)
(2.879835578 0.2961916918 0)
(2.841717751 0.1274639999 0)
(2.804143805 0.01947233869 0)
(2.749231391 0.0005699487789 0)
(3.231040063 0.4511573167 0)
(3.513665022 0.4174973717 0)
(3.531533529 0.4027483473 0)
(3.257260362 0.4200437063 0)
(3.017260279 0.4078016789 0)
(2.868737982 0.2643619637 0)
(2.792094956 0.08017769373 0)
(2.779059499 0.013917978 0)
(2.772921966 0.009598643181 0)
(3.271159817 0.4547089508 0)
(3.483933319 0.4106953835 0)
(3.516443675 0.401769406 0)
(3.263532278 0.4297902679 0)
(3.025849452 0.4028949806 0)
(2.857467158 0.2216305373 0)
(2.759745704 0.03491508662 0)
(2.763856351 -0.003355819511 0)
(2.791281015 0.007664289214 0)
(3.304725146 0.4544586431 0)
(3.464270346 0.4082181477 0)
(3.498190689 0.4007450937 0)
(3.271738409 0.4279236086 0)
(3.032361917 0.380005674 0)
)
;

boundaryField
{
    inlet
    {
        type            fixedValue;
        value           nonuniform 0();
    }
    outlet
    {
        type            inletOutlet;
        inletValue      nonuniform 0();
        value           nonuniform 0();
    }
    bottom
    {
        type            slip;
    }
    top
    {
        type            slip;
    }
    obstacle
    {
        type            slip;
    }
    defaultFaces
    {
        type            empty;
    }
    procBoundary9to3
    {
        type            processor;
        value           nonuniform List<vector> 10((2.999026599 -0.002523204818 0) (2.989843272 -0.02279519354 0) (2.96971321 -0.08199212466 0) (2.931556804 -0.1835744959 0) (2.917523214 -0.1983790098 0) (2.914127471 -0.2129635581 0) (2.91279224 -0.2159526126 0) (2.999993632 -1.3851594e-05 0) (2.99908427 -0.002248725938 0) (2.99908427 -0.002248725938 0));
    }
    procBoundary9to4
    {
        type            processor;
        value           nonuniform List<vector> 3((2.940208151 -0.1499481966 0) (2.96688259 -0.08454987564 0) (3.00171881 0.008766088614 0));
    }
    procBoundary9to8
    {
        type            processor;
        value           uniform (3.000000414 7.449735251e-07 0);
    }
    procBoundary9to10
    {
        type            processor;
        value           nonuniform List<vector> 
12
(
(3.024554321 0.08138675649 0)
(3.057703376 0.1954016781 0)
(3.085492295 0.2758950107 0)
(3.100581941 0.3054576425 0)
(3.069989384 0.28596406 0)
(3.012443239 0.1488810026 0)
(2.841330926 -0.0113023225 0)
(2.71597816 -0.01353110581 0)
(2.728958971 -0.01111044114 0)
(2.748931257 -0.006575335101 0)
(2.772559347 -0.006450846584 0)
(2.798014664 -0.008429671111 0)
)
;
    }
    procBoundary9to14
    {
        type            processor;
        value           nonuniform List<vector> 8((2.99986073 -0.0002587683894 0) (2.994199463 -0.0115658669 0) (2.961788191 -0.0853629857 0) (2.926288747 -0.1955168708 0) (2.903836565 -0.2797401955 0) (2.897236941 -0.2652308528 0) (2.873758304 -0.2718966626 0) (2.8607437 -0.2642633298 0));
    }
    procBoundary9to15
    {
        type            processor;
        value           nonuniform List<vector> 10((2.849758294 0.1829828483 0) (2.75515581 0.005743449046 0) (2.77384525 -0.01686467233 0) (2.806155143 -0.005649924332 0) (3.329945694 0.4519703625 0) (3.451816767 0.4050082327 0) (3.479424977 0.4010051473 0) (3.278396223 0.4279712814 0) (2.849758294 0.1829828483 0) (3.041345013 0.3598933002 0));
    }
}


// ************************************************************************* //
