/*--------------------------------*- C++ -*----------------------------------*\
  =========                 |
  \\      /  F ield         | OpenFOAM: The Open Source CFD Toolbox
   \\    /   O peration     | Website:  https://openfoam.org
    \\  /    A nd           | Version:  7
     \\/     M anipulation  |
\*---------------------------------------------------------------------------*/
FoamFile
{
    version     2.0;
    format      ascii;
    class       volScalarField;
    location    "1";
    object      T;
}
// * * * * * * * * * * * * * * * * * * * * * * * * * * * * * * * * * * * * * //

dimensions      [0 0 0 1 0 0 0];

internalField   nonuniform List<scalar> 
2222
(
0.8755209543
0.8735869323
0.8714757955
0.8678699188
0.8649504814
0.8630119241
0.9869199372
0.9760477277
0.967925732
0.9637417792
0.9583877047
0.9489559582
0.9433017403
0.9398863028
0.9346561101
0.927058921
0.9230089556
0.9199920999
0.9148573171
0.9088040913
0.9056485764
0.9030534309
0.8985269432
0.8938092563
0.8911325025
0.8886512267
0.8842543519
0.880480676
0.878235212
0.8760204513
0.8722884054
0.8694166876
0.8675503554
0.8654470158
0.8618853719
0.8590516714
0.8571789389
0.9768360104
0.9656802258
0.9581164185
0.954304403
0.9489884523
0.9397870219
0.9347016508
0.9314897664
0.9262611359
0.9190772733
0.9154134267
0.9125532638
0.9074554049
0.9016769294
0.898607532
0.895997542
0.891399028
0.8868854618
0.8843594399
0.881954544
0.8776474414
0.8741069629
0.8719758332
0.8698079938
0.8661437341
0.8634618891
0.8617122352
0.8596645168
0.8562037024
0.8535680579
0.8518245684
0.9673809718
0.9560067013
0.9490640821
0.9454518556
0.9400071564
0.9311215255
0.926508249
0.9233923291
0.9180183172
0.9110584706
0.9075639786
0.9047550795
0.8996080602
0.8941520964
0.8913322404
0.888810088
0.8842230935
0.8799608493
0.8775740934
0.8752249594
0.8710011043
0.8676686675
0.8656455264
0.8634970225
0.8598629592
0.8572667418
0.8555457791
0.85353682
0.850174078
0.8477350626
0.8461128459
0.9571597454
0.9458889954
0.9397179896
0.9364261749
0.931040392
0.9227114878
0.9185414581
0.9154505734
0.9098428799
0.9030998779
0.8997940031
0.8970517268
0.8919266014
0.8868427524
0.8842570372
0.8818236362
0.8772715861
0.8732528317
0.8709687632
0.8686517625
0.8645202864
0.8614225406
0.8595362974
0.8574473874
0.8539311759
0.8515476592
0.8499203089
0.8478977758
0.8446172027
0.8422899633
0.8406863042
0.94760192
0.9363975458
0.9307100854
0.9274279847
0.9217851486
0.9138257526
0.9101652183
0.9072509576
0.9015864071
0.8952275871
0.8920731202
0.8893512667
0.8841886622
0.8794651121
0.877122417
0.8747857647
0.8703116113
0.8665524774
0.864357767
0.8620466453
0.8579734388
0.8550237727
0.8531811469
0.8510661741
0.8475567665
0.8452651678
0.8437283846
0.841763491
0.8386719033
0.8365628466
0.835157662
0.9374005141
0.9266275503
0.9216438187
0.9184987864
0.9127754277
0.905435777
0.9022052262
0.8994174682
0.8937195676
0.8877106518
0.8846266933
0.8818671153
0.8766811035
0.8723244605
0.8701690163
0.8678957712
0.8634975239
0.8599781497
0.8578587605
0.8555359548
0.8515121014
0.8488091923
0.8471395094
0.8450947529
0.8417361755
0.8397018607
0.8382102051
0.8363223844
0.8333396606
0.8312223297
0.8296596662
0.9273802719
0.9172670291
0.9128158301
0.909730703
0.9038084085
0.8968933812
0.8939078423
0.8911680598
0.8854605797
0.8799444759
0.8770589318
0.8742990149
0.8690857869
0.8650706388
0.8630703505
0.8608352153
0.8565179716
0.8532458763
0.8512377441
0.8489028837
0.844958753
0.8423524807
0.8407080171
0.8386709949
0.8354300323
0.8335207821
0.8321811876
0.8302338386
0.8273355017
0.8254623389
0.8240917925
0.9175917227
0.9083470534
0.9042905069
0.9011344807
0.894895858
0.8884171471
0.885681786
0.8830178524
0.8774040194
0.8723631044
0.8696445216
0.8668799789
0.8616806775
0.8580052952
0.8561338343
0.8539314391
0.8497314748
0.8467294097
0.8448359894
0.842536434
0.8387014512
0.8364148825
0.8348864194
0.832809401
0.8296421867
0.8279126567
0.8266497643
0.8248557934
0.8221852599
0.8202211617
0.8189312156
0.9071233532
0.8985525491
0.8950849232
0.8920852262
0.8857859942
0.8798731926
0.8773244758
0.8746805179
0.8691393818
0.864598574
0.8621104914
0.8593723664
0.8542429148
0.8509011177
0.849134472
0.8469307391
0.8428343461
0.8400312188
0.8382213627
0.8358663248
0.8321389328
0.8299485365
0.828530921
0.82660287
0.8236816621
0.8221405314
0.8208715009
0.8191038366
0.8164224738
0.8147415367
0.813183649
0.8970284201
0.88932439
0.8862967825
0.8833987453
0.8770657624
0.8716636932
0.8692128217
0.8665504382
0.8611276565
0.8570439481
0.8547353684
0.8520027684
0.8469592428
0.8439406277
0.8422621836
0.8400579261
0.8360948907
0.8335902887
0.8319511499
0.8296728831
0.8262096831
0.8242703945
0.8228485768
0.8207407902
0.8179094055
0.8162944615
0.8151856097
0.8132341386
0.8107570875
0.8092125955
0.8076037055
0.8868365515
0.8798389651
0.8771281087
0.8742795077
0.8680126007
0.8632198912
0.8609122958
0.8582099341
0.8528897686
0.8492384063
0.8471141841
0.844381766
0.8394689454
0.836766041
0.8352064227
0.8330037629
0.829197784
0.8268430678
0.825204739
0.8228812908
0.8194735261
0.8177927677
0.8165592492
0.814649741
0.8119621876
0.8107395643
0.8096496436
0.8079085404
0.805479737
0.8033247566
0.8013057458
0.8769231521
0.8706071697
0.8681365381
0.8653211478
0.859183193
0.8549353013
0.852744231
0.850020638
0.844878342
0.8416285369
0.8396509489
0.8369055044
0.8321536841
0.8297778906
0.8283536958
0.8261865983
0.8226175664
0.8205986419
0.8191540999
0.816798362
0.8137052536
0.812113715
0.8109208366
0.8090184171
0.8065096231
0.8051348145
0.8036986215
0.8013306576
0.7984269862
0.797213577
0.7966699544
0.8666581991
0.8611065549
0.8588757306
0.8560803937
0.8501945653
0.8465157587
0.8444852772
0.8417445422
0.836818753
0.8339062351
0.8320363914
0.8292457115
0.8246800638
0.8225735555
0.8212298782
0.8190709573
0.8157274338
0.8138059255
0.8123841598
0.8100975376
0.8071544612
0.8057727474
0.8047238254
0.8026421425
0.8005533014
0.799142752
0.7976861043
0.7943841447
0.7933076537
0.7941674268
0.8004574977
0.8569214806
0.852065691
0.8499827164
0.8471917796
0.8416081031
0.8383887638
0.8364623955
0.8337069104
0.8290448834
0.8264055182
0.8245943368
0.8217386641
0.8174234167
0.8156289236
0.8144534364
0.8123620507
0.8093503077
0.8077244698
0.8062898663
0.8038400798
0.8010440066
0.7999876821
0.7989543709
0.7971335124
0.7944824723
0.7930981826
0.7911782828
0.7903624206
0.7926426907
0.8163188123
0.8733858427
0.8469190392
0.8427842121
0.8408402272
0.8380134037
0.8327676325
0.8299754105
0.8281686316
0.8253886389
0.8209813995
0.818625285
0.816908528
0.8139838413
0.8099148984
0.8083226493
0.807196965
0.8051223463
0.8023841002
0.800906367
0.7997773276
0.797407539
0.7949924466
0.7937671766
0.7924441581
0.7896476919
0.7874518195
0.7879418165
0.789212255
0.8035891153
0.8459343518
0.9212220269
0.9894614179
0.8372287921
0.8337264359
0.8319165496
0.8290947404
0.8242128472
0.8217812301
0.8200858197
0.81729093
0.8131605496
0.8110515206
0.809447805
0.806555488
0.8029122919
0.8017090568
0.8007252945
0.7987477113
0.7962596053
0.794866805
0.7934740476
0.7911736181
0.7886127504
0.7871810199
0.7855911347
0.7831424592
0.7839487294
0.7908130267
0.8279904264
0.9008658888
0.9709363546
0.993809467
1.01190283
0.8272851401
0.8244112508
0.8227668622
0.8199593255
0.8154883491
0.8133484936
0.8117536451
0.8089358744
0.8050993884
0.803223643
0.8017019857
0.7987263265
0.7954849251
0.7943121994
0.7934086839
0.7914446034
0.7892840683
0.7881972505
0.7869362036
0.7840301375
0.7816769614
0.7809007019
0.7807971007
0.7829635342
0.8088740537
0.8703678327
0.9421212344
0.9863785697
1.023744505
1.028589546
1.026347389
0.8178279664
0.8154603686
0.8139611662
0.8112131687
0.8071528361
0.8052421183
0.8037053645
0.8008481797
0.7973118163
0.795761794
0.7944158641
0.7915910443
0.7889171616
0.7881666574
0.7873016886
0.7853312833
0.7834383233
0.7819093054
0.7801771993
0.7764135433
0.7764320877
0.778079785
0.7930253636
0.8387859674
0.9228918772
0.99583645
1.021555201
1.022928257
1.028975092
1.034097558
1.033931748
0.8083003885
0.8063753861
0.8049838413
0.8022458415
0.7986113596
0.7969117987
0.7954349416
0.7924778897
0.7892814237
0.787879376
0.7865789328
0.783763291
0.7815013952
0.7808320673
0.7800513443
0.7782433342
0.7759541676
0.7746548046
0.7722458196
0.7726158601
0.7795437612
0.8225009697
0.8983982898
0.9724668373
0.996538182
1.019078225
1.03176815
1.029171109
1.029704565
1.032592659
1.034296218
0.7990725668
0.7975266638
0.7962723722
0.7936377046
0.7903741688
0.7887766972
0.7873408381
0.7844379277
0.7817405746
0.780736702
0.7796216981
0.7769945108
0.775281702
0.7743941428
0.7731601771
0.7703937943
0.7690041533
0.7693820412
0.7722005893
0.8039414573
0.8716158332
0.9469728381
0.9939462037
1.03132561
1.033053428
1.032062487
1.031839848
1.02866484
1.028228638
1.030002175
1.03338843
0.7895546233
0.7883073207
0.7871790295
0.7845687156
0.781771068
0.7804776053
0.7790024311
0.7756105321
0.7734855939
0.7727338687
0.7716928743
0.7695491612
0.7674899432
0.7665954635
0.7648267058
0.764005532
0.7659387649
0.7834085981
0.8387691388
0.9323234615
1.005410989
1.025504531
1.028114583
1.035981697
1.039402863
1.038627266
1.035605471
1.031663618
1.030589016
1.031480041
1.033252208
0.7804904567
0.7794989805
0.7784520016
0.7760034207
0.7736567948
0.7725311565
0.7708901543
0.7673512986
0.7664122759
0.7660696367
0.7651008365
0.762446398
0.7603037048
0.7599618707
0.7608345068
0.7707836538
0.8240273856
0.900760756
0.9797256144
1.003870243
1.026681901
1.03505266
1.033280461
1.035126936
1.03867662
1.038839109
1.037858576
1.035954363
1.034888402
1.035063838
1.035470612
0.7709518445
0.7701476432
0.7692639193
0.7668731422
0.7651301748
0.764169055
0.7621867232
0.7588640628
0.7576257872
0.757407862
0.7563425302
0.7536067594
0.7542167031
0.7602397654
0.805263821
0.8844263628
0.9577314847
1.007213975
1.038555887
1.037316227
1.035384712
1.034493533
1.032253455
1.032613595
1.035711406
1.038469451
1.038456621
1.03816922
1.038066414
1.037871575
1.037904497
0.7617874078
0.7610080141
0.7601925123
0.757956017
0.7570844485
0.7564783696
0.7547624157
0.751617166
0.7502252852
0.7498711892
0.7496644011
0.7532215007
0.7793045844
0.8550769776
0.9537421352
1.015331795
1.025917639
1.03211658
1.042229341
1.043246584
1.041553801
1.037820242
1.035206889
1.035299072
1.036714757
1.038000052
1.038794112
1.039092249
1.039376094
1.039672849
1.039728325
0.7520601059
0.751381079
0.750441908
0.7485266085
0.7479496061
0.7472372478
0.7453422379
0.7419189324
0.7420963672
0.7442190992
0.7607755513
0.8372718508
0.9241962548
0.9975989538
1.012939164
1.030237188
1.0344503
1.035536748
1.041272531
1.043464181
1.042894505
1.041826018
1.040859786
1.0406378
1.041161386
1.041016799
1.040887254
1.040698929
1.040813489
1.041241888
1.041587838
0.7430846314
0.7422081147
0.7407739522
0.7397936329
0.7398141119
0.7393876604
0.7368943056
0.7368954235
0.7478193615
0.8123782612
0.9014976204
0.9707715676
1.023693562
1.045085756
1.041336226
1.0403677
1.0406339
1.040606773
1.042547783
1.044677598
1.045117208
1.0455222
1.046008315
1.046638688
1.046644061
1.046296059
1.045551204
1.044869241
1.04440955
1.044407837
1.044624127
0.7333173708
0.7328675988
0.7316437641
0.7297042931
0.7291433348
0.7295100212
0.7374006
0.7812993189
0.8833363611
0.9656196815
1.02517312
1.037578976
1.046288341
1.055388556
1.05425139
1.051773893
1.050899378
1.050110435
1.049562219
1.050004657
1.050121528
1.050390034
1.05112084
1.052157197
1.052723433
1.05262316
1.052165324
1.051625443
1.051183807
1.050855615
1.050800855
0.724156749
0.7241137094
0.7226669219
0.7223710952
0.7245776998
0.763953149
0.864732605
0.959626009
1.011970789
1.031835027
1.05036634
1.056529567
1.05991618
1.061982052
1.06135672
1.059576065
1.059374642
1.059462796
1.059440879
1.0591781
1.058196806
1.057522429
1.057844831
1.058594486
1.059391568
1.059852253
1.05974154
1.059655057
1.059708123
1.059556124
1.059382228
0.7138825026
0.7135927218
0.7134276138
0.7299507413
0.8241138278
0.9509341497
1.024683975
1.053614261
1.058798398
1.060820701
1.067827002
1.068928111
1.068353684
1.068268223
1.068336842
1.068598852
1.069183238
1.06973118
1.069579938
1.069029099
1.068066784
1.067026058
1.066737345
1.066821961
1.067020468
1.067337069
1.067622652
1.067955691
1.068463684
1.068522834
1.068425329
0.7060170475
0.70654859
0.774257897
0.9285975423
1.027899801
1.054175699
1.064949664
1.079002591
1.080437717
1.077315618
1.078050332
1.078181429
1.077750277
1.076901606
1.07678515
1.076962435
1.077364233
1.07795315
1.0780742
1.077880044
1.077356474
1.076331351
1.075613465
1.075167708
1.074794481
1.074524975
1.074565958
1.074801245
1.075333159
1.075841767
1.076035024
0.7029363347
0.703064136
0.7229790646
0.9545043581
1.065755856
1.092805641
1.083174544
1.075213184
1.08601209
1.084738234
1.082437393
1.082225195
1.082503637
1.081853412
1.080660964
1.080460391
1.080597986
1.080923423
1.081629817
1.081955044
1.081779156
1.081150007
1.080475272
1.079996218
1.0795
1.078923525
1.07833544
1.07778116
1.077754873
1.078276869
1.078869258
1.079105185
0.7024797764
0.7029461797
0.7831215954
1.018115752
1.061943502
1.087443131
1.078335385
1.073408702
1.084747167
1.083873569
1.081423345
1.08132543
1.081763922
1.081216775
1.080178358
1.080058781
1.080264971
1.08072839
1.08109468
1.081445864
1.081342872
1.080753248
1.080216136
1.079872999
1.07944928
1.07890497
1.078275399
1.077877382
1.077692719
1.078004264
1.078479133
1.078570075
0.7020103556
0.7040380533
0.8748583182
1.028867158
1.06063
1.078491166
1.071997375
1.068490245
1.080311315
1.080113144
1.078188535
1.078520445
1.079663929
1.079272613
1.07837985
1.078347624
1.078669185
1.079315353
1.079888001
1.080252323
1.080315153
1.079721445
1.07930056
1.079160369
1.078905914
1.078481637
1.077880323
1.07776422
1.077677207
1.077799558
1.077792259
1.077865079
0.7019886227
0.7161020896
0.9447146885
1.037820557
1.062190167
1.072542694
1.065140325
1.063230215
1.075466556
1.075698331
1.074181429
1.0746644
1.0760441
1.076105255
1.075644781
1.075767125
1.076208791
1.076793059
1.077421007
1.077871574
1.078203229
1.07787999
1.077628432
1.077588743
1.07748829
1.077237979
1.076723843
1.076924362
1.077051035
1.0772124
1.077389852
1.077316328
0.702317899
0.7803919636
0.9973177796
1.053697835
1.06306877
1.07183296
1.063436965
1.059372978
1.07094591
1.071250413
1.070030912
1.070592813
1.072161808
1.072630609
1.072305566
1.072566194
1.073187164
1.073821382
1.074495649
1.075064568
1.075477454
1.075434335
1.075564805
1.07561358
1.075513812
1.075350817
1.074908477
1.075120617
1.075480806
1.075884336
1.076314723
1.07653014
0.7034039702
0.8621728958
1.044834733
1.065507329
1.063437689
1.070814257
1.063279234
1.057999594
1.06885672
1.068552882
1.067130772
1.06798179
1.069348628
1.069839347
1.069557438
1.069737516
1.070282094
1.070793988
1.071452976
1.07208369
1.072451295
1.072640405
1.073031235
1.073311294
1.073340918
1.073197847
1.072846329
1.072960268
1.073342674
1.073962986
1.074671555
1.075133923
0.7183484837
0.9374661056
1.056110773
1.065251527
1.062389127
1.070085016
1.062710849
1.058117814
1.068141682
1.067878004
1.066260708
1.06709465
1.068062865
1.068411743
1.067937864
1.068002489
1.068435334
1.068613396
1.069044342
1.069654177
1.069973732
1.070246846
1.070820328
1.07128247
1.071375654
1.071238636
1.070835048
1.070858335
1.071119106
1.071876638
1.072809315
1.07348358
0.7808173857
1.013719685
1.058387965
1.063388144
1.058842545
1.068861926
1.062394814
1.057917882
1.067252367
1.067212225
1.065505674
1.066028196
1.066829453
1.067061645
1.06662055
1.066691602
1.067109731
1.067298697
1.067601884
1.068155674
1.068453314
1.068692702
1.069198429
1.069726157
1.069836205
1.069703496
1.06924442
1.06901356
1.069252106
1.0699355
1.070858195
1.071520255
0.8566288822
1.040046367
1.05341297
1.059102156
1.056249111
1.0672765
1.062274417
1.057670499
1.066622573
1.066624968
1.064768944
1.06520679
1.066111681
1.066282903
1.065961755
1.066014196
1.066146014
1.066232519
1.066569046
1.067020798
1.067330639
1.067573826
1.068177502
1.068630291
1.068692987
1.068581039
1.068098024
1.067622693
1.067918747
1.068514009
1.069292218
1.069851492
0.723888693
0.9661309694
1.046741572
1.055162329
1.056592726
1.056505336
1.067111724
1.062175582
1.057510219
1.06602967
1.06610068
1.064217438
1.064885987
1.065900939
1.066094789
1.065926313
1.0659728
1.065773823
1.065530469
1.065775594
1.066108229
1.066501472
1.066813167
1.067512697
1.068021044
1.068025504
1.067995375
1.067575806
1.066862984
1.067033646
1.067493669
1.068032782
1.068397173
0.7809468618
1.022915178
1.045632734
1.061470856
1.057364946
1.057355324
1.067293217
1.063006592
1.057547268
1.065909949
1.06590744
1.063979083
1.064819812
1.065944059
1.066028342
1.065800488
1.065824378
1.065573511
1.065221775
1.065311119
1.065599151
1.066147784
1.066533032
1.067281861
1.067763165
1.067875573
1.06791454
1.067412965
1.06643873
1.066324805
1.066493151
1.066886022
1.067163326
0.876887985
1.027484082
1.052244587
1.065427267
1.060835572
1.060477434
1.068533612
1.064075834
1.057987921
1.065941109
1.065891332
1.064008991
1.064830464
1.065784907
1.065745037
1.065447913
1.065466337
1.065271134
1.064970055
1.065038401
1.065368312
1.066088427
1.066563398
1.06727592
1.067497609
1.067567079
1.067545125
1.067066029
1.06624136
1.065760046
1.065743639
1.066071681
1.066320394
0.9691683665
1.037812632
1.06293103
1.065508957
1.062620173
1.061884986
1.068977144
1.064185713
1.058486214
1.065874513
1.065970456
1.064089261
1.064648354
1.065529871
1.065494403
1.065149249
1.065119267
1.064960691
1.064717065
1.064799986
1.065136379
1.065870112
1.066632622
1.06728036
1.067265735
1.067260863
1.067129071
1.066638156
1.066045431
1.065564121
1.065440649
1.065544728
1.065897416
1.002540174
1.05395632
1.065113787
1.064276646
1.062558837
1.061772925
1.068847505
1.064089524
1.058542607
1.065756091
1.065877214
1.063942328
1.064458995
1.065294633
1.065195147
1.064827447
1.064771679
1.064635197
1.064430418
1.064496298
1.064840282
1.065579326
1.066444945
1.067163
1.067153787
1.06711538
1.06690475
1.066400884
1.065850468
1.065578383
1.065483504
1.065458022
1.065817435
1.028039888
1.06374364
1.06467766
1.060698765
1.061954065
1.061633879
1.068814382
1.064059806
1.058529161
1.065445269
1.065707646
1.063771395
1.064169472
1.065011302
1.065024113
1.064743201
1.064660754
1.064456598
1.064183525
1.064194462
1.064501721
1.06519492
1.066170444
1.066973984
1.067119851
1.067076217
1.066849304
1.06642467
1.065872652
1.065517544
1.065518733
1.065614255
1.0659519
1.056374223
1.064978807
1.063046591
1.060086771
1.060313538
1.059942274
1.067785963
1.063596006
1.05848302
1.064992945
1.065398532
1.063550995
1.063932611
1.064871372
1.064926094
1.064693753
1.064617155
1.064425582
1.064110085
1.063967241
1.064195584
1.064880189
1.065901986
1.066826249
1.067084509
1.067075392
1.066885084
1.066348778
1.065702024
1.065377837
1.065420654
1.065693013
1.066058655
1.062815242
1.065170812
1.059170645
1.060918014
1.060084527
1.0577882
1.066094251
1.063432523
1.05854032
1.064725155
1.065206051
1.063432502
1.06382668
1.064842528
1.06493355
1.064720575
1.064641874
1.064433466
1.064055812
1.063934657
1.064114437
1.064791683
1.065823828
1.066795902
1.066949156
1.06691835
1.066687041
1.06602978
1.065323191
1.06503803
1.065210446
1.065550031
1.049081093
1.063829906
1.060495593
1.058746974
1.063340449
1.060785182
1.057529201
1.065633204
1.063467412
1.058865824
1.064680393
1.06514619
1.063428394
1.063823767
1.064795065
1.064852481
1.064597153
1.064551081
1.064467924
1.06402571
1.063907048
1.06408585
1.064771596
1.065839507
1.066818768
1.06684081
1.066691782
1.066419177
1.065743027
1.064976612
1.064639574
1.064837534
1.065298763
1.058325862
1.059442368
1.057752199
1.060495521
1.064253408
1.062046838
1.057980312
1.06570543
1.06370929
1.059360271
1.064618131
1.065193934
1.063575173
1.063850292
1.064642375
1.064653645
1.064381153
1.064335587
1.064345026
1.064039352
1.063950664
1.064143089
1.064813255
1.06586592
1.066785246
1.066802966
1.066595062
1.066159202
1.065437844
1.064599647
1.064327967
1.064491807
1.06490874
1.058123967
1.055296346
1.059262295
1.063976774
1.064193874
1.062393945
1.059608372
1.066317383
1.063990174
1.059498174
1.064424711
1.065255986
1.06364322
1.063755271
1.064451884
1.064403026
1.064107085
1.064126986
1.064151962
1.063942183
1.063938459
1.064113162
1.06468264
1.065722001
1.066648677
1.066712636
1.06659534
1.066084091
1.065239787
1.064400645
1.064145794
1.064254283
1.064601042
1.052408334
1.056969063
1.063859511
1.064334291
1.062614109
1.06230622
1.06093099
1.066957842
1.064013739
1.059384714
1.064142278
1.065101611
1.063527415
1.063589922
1.064301919
1.064276125
1.063966121
1.064020695
1.064021403
1.063841932
1.063827444
1.063935806
1.064411749
1.065452276
1.066446363
1.066588663
1.066479274
1.066019073
1.065318111
1.064388697
1.064078106
1.064139115
1.064410319
1.053283448
1.061969342
1.065602806
1.063899118
1.060758739
1.061709238
1.060879681
1.067069662
1.063946642
1.05918398
1.06376725
1.064855656
1.063303873
1.063359861
1.064076116
1.064112828
1.06384812
1.063917329
1.063974641
1.063833728
1.063742919
1.063730458
1.064163068
1.065199225
1.066159355
1.066370888
1.066298716
1.065881498
1.065219332
1.064519617
1.064310765
1.064274254
1.064372003
1.059003907
1.065251359
1.065151651
1.061456885
1.060601038
1.061062937
1.06061241
1.066858553
1.063767245
1.059056591
1.06319432
1.064553458
1.063052445
1.063129097
1.063867565
1.063936277
1.063733647
1.063857914
1.063997411
1.063854994
1.063672112
1.063580685
1.064027947
1.065014734
1.065763382
1.065933679
1.065990121
1.065634291
1.065012581
1.06449683
1.06452459
1.064607766
1.064621241
1.063990902
1.064815303
1.063054259
1.060069632
1.061546087
1.061001394
1.060023431
1.066468835
1.06353277
1.058925884
1.062880302
1.064323154
1.06287835
1.06296139
1.063732491
1.06380327
1.063663834
1.063852934
1.064099117
1.063953812
1.063692129
1.06362386
1.064040828
1.064931518
1.065411724
1.065396455
1.065336065
1.065141408
1.064621391
1.064342433
1.064442267
1.064798872
1.065024504
1.063944376
1.063316318
1.060448119
1.060165767
1.062751127
1.061202247
1.059096988
1.065827021
1.063236972
1.058806832
1.06261279
1.06415312
1.062829782
1.062913971
1.063553445
1.063548401
1.063414272
1.063639066
1.06402565
1.063974934
1.063791814
1.063724843
1.064069387
1.064810908
1.065112595
1.065005378
1.064736787
1.064441134
1.064001785
1.063960797
1.064230537
1.06470238
1.065095236
1.063238938
1.062436287
1.059819882
1.060304413
1.061397993
1.062596606
1.061567473
1.058851454
1.064744184
1.062745939
1.058904439
1.06247628
1.064042422
1.062828769
1.062802336
1.063281827
1.063220517
1.063087793
1.063315281
1.063745321
1.063767091
1.063694156
1.063626596
1.063973921
1.064604504
1.064949771
1.064783316
1.064274664
1.063707654
1.063445428
1.063477519
1.064008297
1.064503179
1.064950097
1.061698011
1.058355399
1.059055331
1.061305621
1.062101339
1.061919016
1.061504538
1.058716756
1.064132672
1.062468456
1.059066102
1.062217553
1.063846729
1.062680518
1.062516628
1.062965896
1.062914847
1.062815155
1.063080863
1.063497502
1.063480363
1.063407358
1.063319013
1.06364044
1.064288768
1.064631578
1.064510039
1.063806366
1.063188777
1.063043892
1.063172942
1.063565374
1.064087283
1.064650871
1.056792601
1.057046683
1.059963653
1.062496483
1.061754553
1.060653195
1.061288772
1.059029451
1.063915681
1.062147429
1.058943753
1.061898542
1.063531045
1.062358146
1.062161318
1.062625265
1.062638331
1.06259716
1.062923675
1.063376079
1.063330286
1.063163266
1.063013058
1.063303397
1.063923201
1.064181216
1.064073211
1.063270673
1.062750538
1.06269688
1.06287694
1.063266119
1.063841378
1.064403324
1.055281129
1.057931043
1.06223706
1.062291594
1.060734111
1.06005138
1.061070508
1.059282464
1.063836012
1.061943961
1.058747796
1.061554978
1.063196459
1.062077072
1.061863668
1.062341823
1.06242097
1.062455004
1.062884701
1.063372017
1.063292776
1.063015411
1.062840164
1.063059625
1.063499869
1.063617688
1.063425399
1.062565072
1.062516032
1.062521927
1.062690026
1.063164493
1.063779566
1.064280708
1.056799382
1.0616962
1.062804183
1.061889757
1.059543059
1.059846559
1.060785048
1.059110396
1.063865706
1.061966254
1.058659548
1.061220528
1.062960502
1.061914649
1.061698768
1.062197584
1.062291093
1.062357718
1.062887791
1.063465404
1.063370829
1.063041424
1.062835614
1.06287976
1.063033062
1.062956183
1.062658218
1.062558396
1.062506803
1.062764978
1.062946761
1.063382937
1.063925546
1.064355962
1.06069931
1.062988629
1.062829621
1.060471634
1.059527492
1.06056355
1.060483858
1.058796401
1.064047379
1.062169205
1.058587749
1.061002965
1.062799538
1.061901088
1.061685655
1.062055687
1.062055747
1.062103545
1.062694531
1.063467225
1.063467761
1.063183177
1.062876104
1.062731663
1.062637995
1.062338769
1.062131727
1.062255392
1.062514263
1.062919613
1.063399493
1.063927675
1.064412599
1.064595041
1.062462644
1.062737958
1.061306582
1.059976349
1.059931222
1.061057218
1.060285416
1.058586043
1.064025663
1.062451854
1.058819661
1.060960029
1.062705964
1.062013614
1.061636217
1.061846222
1.061803353
1.061837365
1.062421646
1.063201223
1.063318991
1.063162064
1.062797982
1.062569013
1.062369368
1.061966065
1.061773116
1.061916707
1.062286701
1.062876578
1.063562929
1.064349031
1.064868343
1.064858144
1.062258425
1.061422684
1.060462366
1.060384286
1.060662778
1.060914261
1.060215169
1.058521019
1.063848364
1.062452078
1.059211388
1.060995416
1.062633135
1.062035611
1.061521237
1.061696535
1.061600626
1.061626754
1.062295957
1.062972278
1.063033572
1.062913772
1.062585311
1.0624066
1.062135897
1.061669947
1.061416679
1.061588563
1.06202642
1.062707737
1.063722955
1.064546147
1.065026681
1.06133833
1.060408959
1.060142221
1.060992638
1.061394021
1.060850495
1.060578295
1.06012115
1.058492686
1.063565295
1.06224665
1.059383144
1.060890293
1.062531269
1.062003126
1.061463875
1.061595551
1.061506697
1.061547686
1.062285519
1.062858237
1.06291492
1.062740822
1.062354199
1.062174625
1.061909062
1.061355351
1.061007972
1.061162994
1.061646252
1.062609082
1.063633416
1.064407957
1.064935121
1.057696002
1.058465426
1.060503885
1.062077295
1.061709232
1.060858284
1.060204045
1.060351268
1.058414945
1.063244501
1.062006026
1.059263722
1.06067225
1.062399564
1.061931439
1.061429921
1.061529439
1.061431268
1.061506142
1.062328003
1.062974334
1.062952077
1.062660601
1.062255431
1.06197352
1.061716375
1.06116175
1.060646946
1.060741339
1.061292358
1.062300826
1.063367541
1.064180937
1.064823583
1.055281181
1.058110099
1.061357689
1.062357077
1.061722331
1.06042501
1.060347742
1.060833704
1.058345197
1.062675291
1.061650386
1.059085647
1.060363311
1.062205512
1.061824424
1.061402133
1.061477406
1.061430434
1.06155583
1.06235533
1.063109413
1.063091387
1.062765328
1.062233328
1.061881116
1.061642466
1.061109116
1.060536262
1.06057536
1.060995645
1.061946324
1.063143662
1.064087504
1.064616719
1.055099288
1.059106869
1.061981428
1.062027807
1.061228721
1.060344706
1.060648379
1.061107304
1.058256057
1.062120638
1.061399263
1.058921489
1.060097903
1.061967953
1.061738545
1.061437238
1.061394771
1.061324358
1.061459789
1.062201415
1.063123662
1.063166309
1.062932423
1.062350386
1.061848215
1.061625534
1.061109298
1.06057111
1.06058959
1.060921088
1.061752607
1.062961608
1.063965105
1.064506333
1.057116574
1.060226054
1.061414123
1.061282161
1.06041288
1.060537322
1.061364196
1.061269634
1.058242059
1.062062467
1.061316573
1.058774429
1.059917118
1.061714594
1.061636565
1.061471411
1.061377434
1.061276088
1.061340774
1.0619743
1.062871834
1.063079317
1.062968206
1.062552598
1.061993345
1.061809728
1.061336441
1.060739625
1.060647019
1.060922363
1.06171557
1.062925364
1.063950646
1.064525986
1.059173834
1.060123859
1.060352723
1.059914611
1.060089094
1.060898174
1.061688183
1.061256311
1.058402218
1.062189398
1.061579471
1.059054134
1.059902084
1.061466076
1.061564148
1.061439903
1.061419801
1.061306463
1.061334078
1.061951299
1.062510256
1.062741627
1.062891253
1.062631739
1.062190711
1.062089192
1.061822135
1.061169656
1.060836822
1.06103781
)
;

boundaryField
{
    inlet
    {
        type            fixedValue;
        value           nonuniform 0();
    }
    outlet
    {
        type            inletOutlet;
        inletValue      nonuniform 0();
        value           nonuniform 0();
    }
    bottom
    {
        type            slip;
    }
    top
    {
        type            slip;
    }
    obstacle
    {
        type            zeroGradient;
    }
    defaultFaces
    {
        type            empty;
    }
    procBoundary10to4
    {
        type            processor;
        value           nonuniform List<scalar> 
32
(
0.8814509061
0.8793878168
0.877183815
0.8734964697
0.8704046483
0.8683631509
0.9961193201
0.9852564627
0.9765610348
0.9722714883
0.9671393857
0.9578243206
0.9518175771
0.9483201417
0.9432134932
0.9353641397
0.9309094173
0.927702667
0.922547197
0.9161933299
0.9128924818
0.9102600607
0.9057693073
0.9008569952
0.8980145605
0.8954470105
0.8909795104
0.886980146
0.8846023755
0.8823334739
0.8785176333
0.8785176333
)
;
    }
    procBoundary10to5
    {
        type            processor;
        value           uniform 0.8610069781;
    }
    procBoundary10to9
    {
        type            processor;
        value           nonuniform List<scalar> 
55
(
0.9923387443
0.9826201603
0.9733914734
0.9632891099
0.9541057465
0.9439877065
0.9341537283
0.9243245886
0.9141716364
0.9041875332
0.8941502809
0.88447625
0.8742271153
0.8643768726
0.8541360485
0.844163684
0.8337630407
0.823818691
0.813632796
0.8038719905
0.7936613641
0.7840361478
0.7739801995
0.7644767082
0.7544213563
0.745045623
0.7341688129
0.724023543
0.7136676001
0.7058009357
0.7058009357
0.7029612129
0.7025019617
0.702063811
0.7019947989
0.702098609
0.7023093398
0.7027268021
0.7029366384
0.7042311492
0.7042311492
0.7034715583
0.7034768752
0.7060446117
0.7270883542
0.8039365507
0.8979504931
0.9563631418
1.004943553
1.004943553
0.893351425
0.9759583076
1.031568718
1.0461281
1.043318239
)
;
    }
    procBoundary10to11
    {
        type            processor;
        value           nonuniform List<scalar> 
70
(
0.8552092032
0.8499005709
0.8442786831
0.8388257629
0.8334072025
0.8277411359
0.8223788922