/*--------------------------------*- C++ -*----------------------------------*\
  =========                 |
  \\      /  F ield         | OpenFOAM: The Open Source CFD Toolbox
   \\    /   O peration     | Website:  https://openfoam.org
    \\  /    A nd           | Version:  7
     \\/     M anipulation  |
\*---------------------------------------------------------------------------*/
FoamFile
{
    version     2.0;
    format      ascii;
    class       volScalarField;
    location    "2";
    object      T;
}
// * * * * * * * * * * * * * * * * * * * * * * * * * * * * * * * * * * * * * //

dimensions      [0 0 0 1 0 0 0];

internalField   nonuniform List<scalar> 
22
(
0.9708950262
0.9774892121
0.9743851577
0.9769625399
0.9654418483
0.9794036022
1.002158213
0.9979914769
1.016740599
1.022547528
1.016694749
1.034913256
1.035746918
1.028419637
1.027772893
1.037952936
1.038556109
1.030526944
1.034411276
1.041342704
1.042262899
1.040759319
)
;

boundaryField
{
    inlet
    {
        type            fixedValue;
        value           nonuniform 0();
    }
    outlet
    {
        type            inletOutlet;
        inletValue      nonuniform 0();
        value           nonuniform 0();
    }
    bottom
    {
        type            slip;
    }
    top
    {
        type            slip;
    }
    obstacle
    {
        type            zeroGradient;
    }
    defaultFaces
    {
        type            empty;
    }
    procBoundary10to4
    {
        type            processor;
        value           nonuniform List<scalar> 4(0.9874906512 1.006774657 0.9793324633 0.9793324633);
    }
    procBoundary10to5
    {
        type            processor;
        value           nonuniform List<scalar> 2(0.9741384196 0.9875126904);
    }
    procBoundary10to9
    {
        type            processor;
        value           nonuniform List<scalar> 5(0.9993357427 0.9603473711 0.9690076605 0.9690076605 0.9590216549);
    }
    procBoundary10to11
    {
        type            processor;
        value           nonuniform List<scalar> 6(1.013427759 1.025239633 1.025184838 1.028612726 1.033527976 1.033527976);
    }
    procBoundary10to15
    {
        type            processor;
        value           nonuniform List<scalar> 3(0.9805814281 0.9980259921 1.015419556);
    }
    procBoundary10to16
    {
        type            processor;
        value           nonuniform List<scalar> 4(1.045169444 1.046330055 1.045169444 1.047106437);
    }
}


// ************************************************************************* //
