/*--------------------------------*- C++ -*----------------------------------*\
  =========                 |
  \\      /  F ield         | OpenFOAM: The Open Source CFD Toolbox
   \\    /   O peration     | Website:  https://openfoam.org
    \\  /    A nd           | Version:  7
     \\/     M anipulation  |
\*---------------------------------------------------------------------------*/
FoamFile
{
    version     2.0;
    format      ascii;
    class       volScalarField;
    location    "2.6";
    object      p;
}
// * * * * * * * * * * * * * * * * * * * * * * * * * * * * * * * * * * * * * //

dimensions      [1 -1 -2 0 0 0 0];

internalField   nonuniform List<scalar> 
555
(
1.000562307
1.004569631
1.026326451
1.099881564
1.263518182
1.490283545
1.676673009
1.869727389
1.930537434
1.92068759
1.885660088
1.843960049
1.797475722
1.730458313
1.657952859
1.550409537
1.004739463
1.023141791
1.086887646
1.190503509
1.316593495
1.443175593
1.590835296
1.696117856
1.789727768
1.85073882
1.852046811
1.831729108
1.779567973
1.710394251
1.650875651
1.552395586
1.025910398
1.079089867
1.188625076
1.307844532
1.363808954
1.40246666
1.466706098
1.552685501
1.675106416
1.787670937
1.818559699
1.795288465
1.739224639
1.689436895
1.646430768
1.555913226
1.086647015
1.193908709
1.287569132
1.363068305
1.388253042
1.394171364
1.407682381
1.439360787
1.503102542
1.58813942
1.67467094
1.704642073
1.698883426
1.682932621
1.652341752
1.57078516
1.189864177
1.309641094
1.37827993
1.386178787
1.391430292
1.390266375
1.382174672
1.371534737
1.379295377
1.421268656
1.502269979
1.589580852
1.654541079
1.643973761
1.601655314
1.529004056
1.292950957
1.361343535
1.397732749
1.397089826
1.395174008
1.384402129
1.363200435
1.333556002
1.306441953
1.308787937
1.339376535
1.409094628
1.508626579
1.555402516
1.550880247
1.521512968
1.380684634
1.386041486
1.393927802
1.396748275
1.38824713
1.36637031
1.334163238
1.301342529
1.264839432
1.239496697
1.24129489
1.269700566
1.340093206
1.422732211
1.503528417
1.490192352
1.402379485
1.400584184
1.397506596
1.388785973
1.36721979
1.336580321
1.300721432
1.266454145
1.234668423
1.201179707
1.179498202
1.182072332
1.203812247
1.265466207
1.376356379
1.415792558
1.399798171
1.40076774
1.391004824
1.368521981
1.337169038
1.301490192
1.268115208
1.233384257
1.203606282
1.175500096
1.144252796
1.123276119
1.124294821
1.148407728
1.20601829
1.313193947
1.400905183
1.391515882
1.369306955
1.337299927
1.301952175
1.267757596
1.232843974
1.203489295
1.173699448
1.147545093
1.119370284
1.087561098
1.071202505
1.072372574
1.088388188
1.182662478
1.394471381
1.371203734
1.33811074
1.304256529
1.268137422
1.233222364
1.20159072
1.172984405
1.145627218
1.11541181
1.091447826
1.065145316
1.035967577
1.019728598
1.020375581
1.068941703
1.373448906
1.341001516
1.304639891
1.269382712
1.233240037
1.200589548
1.173705155
1.143277936
1.112746289
1.087066313
1.061605817
1.040622629
1.01345988
0.9829671135
0.9736959153
0.9891478774
1.342160916
1.307240887
1.270811201
1.232332565
1.200548698
1.171885204
1.141349495
1.109683766
1.081614349
1.060430468
1.035903473
1.009341659
0.989374389
0.960574005
0.9431399536
0.9351518259
1.308117277
1.270948838
1.233607073
1.199170631
1.171185857
1.139862656
1.10452042
1.079557933
1.056365882
1.031172235
1.0064096
0.9789963281
0.9620234158
0.941803254
0.9210455945
0.8976143768
1.272458341
1.232162759
1.197840024
1.169593041
1.136836735
1.102532533
1.074766619
1.053245821
1.028166257
0.9977548417
0.9763335606
0.9546595583
0.9372286059
0.9193338759
0.8968044078
0.8693349698
1.232931375
1.196647287
1.167672027
1.136496568
1.098073058
1.071026212
1.049459005
1.021320492
0.9944337136
0.9685397458
0.9501804411
0.9319841915
0.9102738568
0.8902418376
0.872040103
0.8467959424
1.195115889
1.166463283
1.133309633
1.096015607
1.066190004
1.044371278
1.018998727
0.9861353849
0.9643932602
0.9440964675
0.9239916413
0.9048342492
0.8799600117
0.8627697753
0.8503947179
0.8263272302
1.163504609
1.131366133
1.092714869
1.060734929
1.040518028
1.012223162
0.9822634179
0.9566087861
0.936940069
0.9171244421
0.8951414135
0.8749884275
0.8550711812
0.8417916169
0.8285074889
0.8030081018
1.127946215
1.089213539
1.057501471
1.033739798
1.008896435
0.9746791854
0.9498140384
0.9303627011
0.9082816699
0.8887634758
0.867305069
0.848417039
0.8338876176
0.8190097881
0.8034387881
0.7799182799
1.086614276
1.052494387
1.028475534
1.001754032
0.9695437352
0.9410333487
0.9223973271
0.9021956356
0.880295342
0.8613931401
0.8404513624
0.8244960691
0.8110813253
0.7939433712
0.7792989707
0.7568313665
1.049405968
1.020486687
0.9964493739
0.9630021278
0.9336533238
0.9146473168
0.8946460634
0.8740728238
0.8518757299
0.8323817351
0.8150605588
0.8019753792
0.7885458038
0.7717429491
0.7576322615
0.7337947391
1.015185814
0.9871680841
0.9577636642
0.9274423718
0.9043688541
0.8884959398
0.8654306073
0.844121872
0.8242975078
0.8062107807
0.7934985208
0.7796803224
0.762935362
0.745913501
0.7306975998
0.7061382188
0.9791554221
0.9515930799
0.9211390364
0.8966862995
0.8784652491
0.8580700785
0.834189293
0.814612752
0.7989728848
0.7849510137
0.7714743927
0.7558926139
0.7360524047
0.7195620164
0.7046547047
0.6872206884
0.9437024029
0.9154651309
0.887535642
0.8687908095
0.8501607475
0.8271668823
0.8051669931
0.7905949885
0.7748045599
0.7602037527
0.7441992457
0.7242469632
0.706563507
0.6909108468
0.6751821246
0.6735734722
0.908340818
0.8808978569
0.8565717722
0.8407856935
0.8178613443
0.7954384751
0.7809339494
0.7663943375
0.7511893293
0.7342794424
0.7157184149
0.6965684871
0.6831349208
0.6752950785
0.6682754555
0.6725979794
0.8712971687
0.8476625321
0.830504139
0.8100997687
0.7867086263
0.7685553968
0.754954666
0.7380017846
0.7204836691
0.7032407337
0.6824888315
0.6683788921
0.6620559802
0.6644001654
0.6669038817
0.7139385208
0.8360321663
0.8183104496
0.8006299575
0.7772368806
0.7580207349
0.7455889697
0.7284370221
0.7101315226
0.6929256797
0.6748294548
0.665474951
0.6605478894
0.6596403035
0.6674085126
0.6986696634
0.8095119202
0.8067795814
0.7911788381
0.7665601024
0.744141888
0.7300476529
0.7147254954
0.6964038458
0.6767843344
0.6607702266
0.6520881535
0.6546883739
0.6594438048
0.6801598544
0.7306596984
0.8167052663
0.9291414212
0.778484881
0.7587206976
0.7351532948
0.7177091069
0.7044952215
0.686676614
0.667486401
0.6574702748
0.6504495865
0.6501736153
0.6587624627
0.6935424046
0.7777989937
0.8684223773
0.9294892408
0.9665903943
0.7460979529
0.7211978294
0.7001600554
0.6878342111
0.6706420118
0.652796277
0.6428611779
0.645448053
0.6497925477
0.6698221679
0.7318582714
0.8166620237
0.8884150727
0.9471604308
0.9783889731
0.9822404425
0.7134505388
0.6888333728
0.6747943856
0.6612822284
0.6484205321
0.6406521646
0.6406388268
0.6507003328
0.6892149575
0.7650202866
0.8697200538
0.954283948
0.9721562906
0.9867235098
0.9964826251
0.9974292181
0.6746821217
0.654727211
0.6442733915
0.6340173171
0.6350653731
0.6395735481
0.6607843818
0.7319633825
0.8194148715
0.9092938229
0.9399673428
0.9772265101
0.9877505903
0.9942680769
0.9985796468
0.9995093361
0.6448895298
0.6372259356
0.6318956852
0.6305884257
0.6380772738
0.6850040014
0.7650924624
0.8577269655
0.9338711324
0.9873272047
0.9840737241
0.989317159
0.9916611334
0.9918138415
0.9931224692
0.9961219817
0.6209763309
0.6242616798
0.6301275545
0.6558058751
0.7152501947
0.8224955046
0.9269081011
0.9634583047
0.9823647442
0.9974199251
0.9990427921
0.998331288
0.9970704954
0.9947823577
0.9922948026
0.9936078331
0.6189180378
0.6307553212
0.6844755455
0.7690207774
0.8727210371
0.9169105999
0.9666698544
0.9789293431
0.984773355
0.9921300043
0.9978021155
)
;

boundaryField
{
    inlet
    {
        type            fixedValue;
        value           nonuniform 0();
    }
    outlet
    {
        type            zeroGradient;
    }
    bottom
    {
        type            slip;
    }
    top
    {
        type            slip;
    }
    obstacle
    {
        type            zeroGradient;
    }
    defaultFaces
    {
        type            empty;
    }
    procBoundary5to4
    {
        type            processor;
        value           nonuniform List<scalar> 
34
(
1.000041453
1.000511486
1.004039824
1.022333559
1.081045122
1.197563139
1.316365227
1.371386846
1.388267124
1.40361962
1.404707206
1.395685186
1.375195774
1.34486321
1.310229046
1.272679781
1.232403138
1.195808639
1.161376064
1.124706314
1.082978345
1.043236465
1.00771266
0.9696402535
0.9347562572
0.900669428
0.8632800337
0.8272401234
0.7929154409
0.7633434225
0.7354230236
0.6971494263
0.6640162856
0.6288359678
)
;
    }
    procBoundary5to10
    {
        type            processor;
        value           uniform 0.6179068452;
    }
    procBoundary5to11
    {
        type            processor;
        value           nonuniform List<scalar> 
17
(
0.9992292423
0.9987990071
0.9978680978
0.9956599079
0.9955119514
0.651292278
0.720162397
0.8278846646
0.9194791411
0.9805866855
0.983590129
0.9897853394
0.9876188308
0.9853912056
0.9876214791
0.9992292423
0.9933628919
)
;
    }
}


// ************************************************************************* //
