/*--------------------------------*- C++ -*----------------------------------*\
  =========                 |
  \\      /  F ield         | OpenFOAM: The Open Source CFD Toolbox
   \\    /   O peration     | Website:  https://openfoam.org
    \\  /    A nd           | Version:  7
     \\/     M anipulation  |
\*---------------------------------------------------------------------------*/
FoamFile
{
    version     2.0;
    format      ascii;
    class       volScalarField;
    location    "2";
    object      rho;
}
// * * * * * * * * * * * * * * * * * * * * * * * * * * * * * * * * * * * * * //

dimensions      [1 -3 0 0 0 0 0];

internalField   nonuniform List<scalar> 
2225
(
0.882208215
0.8742015474
0.8709554158
0.8672519133
0.860139261
0.8597062303
0.8631566133
0.8814616186
0.9429924286
1.075493025
1.238530109
1.3023308
1.339887346
1.380198133
1.388729656
1.389559463
0.9919138018
0.9788562129
0.9726067836
0.9702829769
0.9639610382
0.9522012713
0.9466762311
0.94446219
0.938599801
0.928004424
0.9230511661
0.9211848634
0.9163550626
0.9072069436
0.9020933825
0.9007501354
0.8974529892
0.8893372081
0.8831442678
0.8814271349
0.876456187
0.867613554
0.8657483003
0.8663654984
0.8699194931
0.8982864141
0.974070766
1.11891422
1.262864048
1.343060228
1.376987797
1.392498172
1.00891873
0.999179679
0.9868155655
0.9826134577
0.9791666851
0.970420906
0.9592969978
0.9558852332
0.9532104197
0.9458027415
0.9356288714
0.9326332426
0.9304555871
0.9240802602
0.914732628
0.9113177698
0.9094603582
0.9046627007
0.8961522561
0.892171133
0.8905312554
0.8848985724
0.8753405468
0.8717646091
0.8705775188
0.8715367094
0.8779559237
0.9229069389
1.015092437
1.137820353
1.263707473
1.362687792
1.023312359
1.01828846
1.006901007
0.9961335912
0.9930828561
0.9888060746
0.978345281
0.969085233
0.9666072229
0.9626318391
0.953012898
0.9443413213
0.9420270573
0.9388351094
0.9307765486
0.9224826938
0.9204421733
0.9181157042
0.9116469566
0.9034619073
0.901350462
0.8993369373
0.8927814105
0.8841985671
0.8813347422
0.87837325
0.8749862438
0.8764782605
0.8881008252
0.9431300209
1.055098613
1.234763057
1.037258934
1.033484886
1.026447841
1.013520724
1.005656863
1.002578427
0.9961614717
0.9842600769
0.9774034744
0.9750443572
0.9699234506
0.9592476882
0.952869897
0.9511785728
0.9469541548
0.9374917657
0.9309780536
0.9292466049
0.925909905
0.9178350963
0.9110106047
0.9098666317
0.9071512808
0.8991903644
0.8929322638
0.8896728
0.8841567209
0.8783824425
0.8790203866
0.8830492091
0.9018280743
1.033028586
1.054147169
1.047107695
1.042908684
1.034137866
1.021049251
1.015405126
1.012178179
1.00429401
0.9922323974
0.9877718859
0.9850994103
0.9779725171
0.9669373529
0.9622933138
0.9600168142
0.954165355
0.9439936337
0.9394920978
0.9378329049
0.9332169333
0.9242530126
0.9195322381
0.9182704887
0.9143221267
0.9059472683
0.9022043835
0.8995852979
0.8924475837
0.8861801615
0.8857796531
0.885236847
0.9108377281
1.075107075
1.062135838
1.057035493
1.051807093
1.040662952
1.029017834
1.025031212
1.020544255
1.010231528
0.999396735
0.9960997346
0.9925830592
0.9838372132
0.9736701528
0.9709530134
0.9683305258
0.9610537189
0.9514404156
0.9483531249
0.9461492565
0.939893966
0.9308116944
0.9280834372
0.9261851924
0.9201402422
0.9128855853
0.9106488141
0.9069811711
0.8996070235
0.893725556
0.8885016326
0.8906159611
1.095374895
1.081872855
1.070791291
1.06641395
1.060006054
1.047399432
1.037500878
1.034227692
1.028919756
1.017248671
1.00845077
1.006050815
1.001516835
0.9910938538
0.9825504867
0.9800803363
0.9761987333
0.9670848803
0.9588599074
0.9567423607
0.9537024204
0.9457514768
0.9380154077
0.9364063605
0.9336577405
0.9259122764
0.9207720782
0.9192037034
0.9143383822
0.9075294292
0.9026654641
0.8974391484
1.111945309
1.102718088
1.088214354
1.079902283
1.075592426
1.067224355
1.053772443
1.046608756
1.043164219
1.035761753
1.023174098
1.01663933
1.013878539
1.007711477
0.9964557044
0.9903363793
0.9882024314
0.9833578006
0.9732850633
0.9670784374
0.965340723
0.9611712556
0.9517619763
0.9462252055
0.9446536522
0.9400472003
0.9317943208
0.9287164364
0.9263381175
0.9207194729
0.9154627407
0.9079237689
1.126460878
1.120518568
1.109644572
1.095398772
1.088881672
1.0840239
1.074048752
1.060838098
1.055413172
1.051589081
1.042825546
1.030433646
1.025902553
1.022943871
1.015271583
1.003987435
0.9995884694
0.9968563532
0.9900456431
0.979562673
0.9752648665
0.9731210992
0.9672206946
0.9574776032
0.9543053322
0.9524314731
0.9458512289
0.9389112116
0.9368752061
0.933007481
0.9276739034
0.9204261132
1.142400673
1.135537151
1.12859611
1.11554301
1.102915555
1.097902194
1.091979257
1.079932854
1.068449146
1.064357713
1.059385522
1.048475717
1.037626383
1.034173785
1.030003495
1.020348989
1.010247302
1.007261351
1.004080931
0.9959121852
0.98618528
0.9836491024
0.9810431888
0.9733017998
0.9648021873
0.9626149686
0.9593342115
0.9512538927
0.9464177558
0.9438477346
0.9395925636
0.931707832
1.162658914
1.150092871
1.14395304
1.13588807
1.121753825
1.110986745
1.10637243
1.099244067
1.086060685
1.076392519
1.072727717
1.066750593
1.054729442
1.045666471
1.04283633
1.037882412
1.026895139
1.018681823
1.016298881
1.011862992
1.001792323
0.9938468194
0.9916775522
0.9877477082
0.9782657383
0.9722977808
0.9705877706
0.9655734209
0.9577055373
0.9542098341
0.9511526552
0.9435100064
1.184196273
1.168748811
1.158390134
1.15239849
1.14245092
1.127608469
1.119350181
1.114686887
1.105690157
1.091969577
1.084792831
1.08098285
1.073153068
1.060404572
1.053797638
1.050691394
1.043797522
1.031943553
1.025812871
1.02340364
1.017852574
1.006944102
1.00144087
0.9995654561
0.9941234919
0.9843402482
0.9805327744
0.9778916797
0.9711297664
0.9644642835
0.9614339192
0.9546446642
1.201758355
1.189928625
1.174856065
1.166250047
1.159863902
1.148537249
1.134206526
1.127538562
1.122286961
1.111806874
1.098558892
1.092960649
1.088629531
1.079364735
1.066838651
1.061905598
1.058585111
1.050443481
1.038666823
1.034600721
1.031874309
1.024374193
1.013614401
1.009782961
1.007000251
0.9992505706
0.9907144838
0.9882983079
0.984454277
0.9769296385
0.9722380794
0.9657349605
1.217944019
1.209466893
1.195930134
1.181736129
1.174574809
1.167281654
1.153979244
1.141137575
1.135786994
1.129507498
1.117101182
1.105507094
1.101165705
1.095868469
1.084668859
1.073663306
1.070006083
1.065575369
1.05534835
1.044845912
1.041730938
1.038096925
1.028917293
1.019647819
1.017377785
1.013715266
1.004537121
0.998332024
0.9958030435
0.9904180379
0.9840784933
0.9763266914
1.233225058
1.224614483
1.215299318
1.200977013
1.188402847
1.181893183
1.17358494
1.159465871
1.148419659
1.143464757
1.13606462
1.122670608
1.112840889
1.108884468
1.102548699
1.09023826
1.080799811
1.077670574
1.072505507
1.061090171
1.05254021
1.050224856
1.045507668
1.034761254
1.02773955
1.025384474
1.019697604
1.010098704
1.005803609
1.002224938
0.9966348385
0.9876507539
1.252792681
1.240203859
1.232256485
1.221884486
1.206694405
1.195980611
1.189695257
1.179769233
1.164891853
1.156080224
1.151123066
1.141969553
1.127968561
1.120469857
1.116509077
1.108537044
1.095493281
1.088476392
1.085254897
1.078251727
1.065967496
1.059647755
1.056964221
1.050419881
1.039254063
1.034773357
1.032067377
1.024830591
1.016666833
1.012958684
1.009040338
0.9999879186
1.272545749
1.257579113
1.246309638
1.238245858
1.226724655
1.211841123
1.202781511
1.196170972
1.185024611
1.170620797
1.163405263
1.158001423
1.147547949
1.133938151
1.127946421
1.123501949
1.114173723
1.101294407
1.095903393
1.092367786
1.084067641
1.071949915
1.067647438
1.064653965
1.056310458
1.04613114
1.043023036
1.038992845
1.030440492
1.023602372
1.019858531
1.011538058
1.290019886
1.277889965
1.263118748
1.25322302
1.245084669
1.232308532
1.218018136
1.210364003
1.203149678
1.190237017
1.176892815
1.171008219
1.164767285
1.152448507
1.140163056
1.135489971
1.130255391
1.119073031
1.107511975
1.103511301
1.099062862
1.088678955
1.078038372
1.074863345
1.070559597
1.060282936
1.05229811
1.049516272
1.044248103
1.035861913
1.030854698
1.023135545
1.30506939
1.295314402
1.282395673
1.268241742
1.259189424
1.250302493
1.236623941
1.223637174
1.216731733
1.208638158
1.194942571
1.183170299
1.177852345
1.170686431
1.157489273
1.146782233
1.142562801
1.136359303
1.124074595
1.114089273
1.110681681
1.105307217
1.093657361
1.084962331
1.082353075
1.076859856
1.065886423
1.060160846
1.056838125
1.050084906
1.043097106
1.034211859
1.321298876
1.310414473
1.300570791
1.287139291
1.273897389
1.26565641
1.256196296
1.241720696
1.230261404
1.223869949
1.214621268
1.199965091
1.19010496
1.185009505
1.176388867
1.162278944
1.153727317
1.149665135
1.14197414
1.128742264
1.121107216
1.11780341
1.110765736
1.098262688
1.092121344
1.089099537
1.081454927
1.071060526
1.066621232
1.062075407
1.055696519
1.045720693
1.338633363
1.325793593
1.315517131
1.305290977
1.291472087
1.279271713
1.271197123
1.26071039
1.246101921
1.236113661
1.229569889
1.219214514
1.20477396
1.19652505
1.191152193
1.181389694
1.167480443
1.160526666
1.156119686
1.147143219
1.133934753
1.128055384
1.124404989
1.11588812
1.103711108
1.099270166
1.095568655
1.086629583
1.077915092
1.073677624
1.068912144
1.058522588
1.35378458
1.342505295
1.330240478
1.320447264
1.309914685
1.295991322
1.284891374
1.277032322
1.265730423
1.251270769
1.242724969
1.236033043
1.224300118
1.210300022
1.203505325
1.197642671
1.186162704
1.172971193
1.167527493
1.162517758
1.151683711
1.139434248
1.135106362
1.130706137
1.120215802
1.109701625
1.106300842
1.101164576
1.091363504
1.083908243
1.079633379
1.070212474
1.366459858
1.357358958
1.346217648
1.334588133
1.325115117
1.314151597
1.300382644
1.290219211
1.282033015
1.269792395
1.256055515
1.248401708
1.241000623
1.228350005
1.215552358
1.209595578
1.202971881
1.190564742
1.178682279
1.173989396
1.168172089
1.156211642
1.14544552
1.141793573
1.136350938
1.12476266
1.116181877
1.112749723
1.106527682
1.097015979
1.091262586
1.082419365
1.377730033
1.36954227
1.360721406
1.349816956
1.338822231
1.32957269
1.318295409
1.304897378
1.295574164
1.287182572
1.274237245
1.261460079
1.25464046
1.246651496
1.23296462
1.221609337
1.21625391
1.208627284
1.19497687
1.184917731
1.180671713
1.173597551
1.16041585
1.151845899
1.148421468
1.141452033
1.129379526
1.122909047
1.118862706
1.111230284
1.103344752
1.093266188
1.386805036
1.380073093
1.372424292
1.363886857
1.353291566
1.342919131
1.333777379
1.32220129
1.309376383
1.300617795
1.291645742
1.27818471
1.266561394
1.259920677
1.250945436
1.236965026
1.227139978
1.221791737
1.213139156
1.199322951
1.190928744
1.186581939
1.17836178
1.165080777
1.158297324
1.154421983
1.146114022
1.134756486
1.129260021
1.124177518
1.117208679
1.105749858
1.392977614
1.388445369
1.382246095
1.375111409
1.366866431
1.356658432
1.346854804
1.337778368
1.326049322
1.313883589
1.305569556
1.296152973
1.282433274
1.272017333
1.265624754
1.255784463
1.241622574
1.233323763
1.227944092
1.217941899
1.204115648
1.1973787
1.192706013
1.182807988
1.170039491
1.164818328
1.16021715
1.150510369
1.140580331
1.135165118
1.129877233
1.118339197
1.396763119
1.394025106
1.389929053
1.384254364
1.377605366
1.369675992
1.35990303
1.35062303
1.341555889
1.329768632
1.318337099
1.310219825
1.3001653
1.286504597
1.277142561
1.270432263
1.259598255
1.245947108
1.238757832
1.232842153
1.221847348
1.208878655
1.203221494
1.197867502
1.186964094
1.175473943
1.1708495
1.16526078
1.155327486
1.146379893
1.141211444
1.130883286
1.398765182
1.397331799
1.394944093
1.391267159
1.38609803
1.379916192
1.37232151
1.363029567
1.354208872
1.345154608
1.333449363
1.322720934
1.314726607
1.304177764
1.290801052
1.282397268
1.275532429
1.263825361
1.250900297
1.244700943
1.238329654
1.226089669
1.214313316
1.209431922
1.20319768
1.191116985
1.181306273
1.176778991
1.170183381
1.16004387
1.152846633
1.14254566
1.399617149
1.399018789
1.397815381
1.395746597
1.392466682
1.38778475
1.382047273
1.374815061
1.366020178
1.357618765
1.348571667
1.337056022
1.326997811
1.318955401
1.307893633
1.295055589
1.28730436
1.279852912
1.267453197
1.255594104
1.249798932
1.242574487
1.229832804
1.219495018
1.214746337
1.207565104
1.195517801
1.187009052
1.181979771
1.174460216
1.166122653
1.154369054
1.39990847
1.39970921
1.399226474
1.398223858
1.396442754
1.393537737
1.389316852
1.384011386
1.377157815
1.368876169
1.360842123
1.351842869
1.340621795
1.331141996
1.323026443
1.311607976
1.299428177
1.292208221
1.284347414
1.27141971
1.260725162
1.255310045
1.2473316
1.234090061
1.225219306
1.220408121
1.212192281
1.200314244
1.192768962
1.18695592
1.17983126
1.167021141
1.399986575
1.39993472
1.399781306
1.399395219
1.398566231
1.397043552
1.394487532
1.39070351
1.385811865
1.379360532
1.371582975
1.36389371
1.354967122
1.34412018
1.335140643
1.326859167
1.315188829
1.303760279
1.296775468
1.288234665
1.27515862
1.265555902
1.259949063
1.251072862
1.238176998
1.230373196
1.225002718
1.216140897
1.205334642
1.197832601
1.192013639
1.179956048
1.400002383
1.399992255
1.399954309
1.399837278
1.399531175
1.398851175
1.397558448
1.39532594
1.391949626
1.387461277
1.381419634
1.374145121
1.366768124
1.357974681
1.347550809
1.338978405
1.33054273
1.318784245
1.308097628
1.301262916
1.292220111
1.279180518
1.270588725
1.264891379
1.255298911
1.242854562
1.235793251
1.229947959
1.220671984
1.210365862
1.203734256
1.19233781
1.400004759
1.400003298
1.399996276
1.399968785
1.399880344
1.399639825
1.399086426
1.397997228
1.396060491
1.393065556
1.388963556
1.383344571
1.376550771
1.369482155
1.360861295
1.350898642
1.342650876
1.334039377
1.322337575
1.312347907
1.305436695
1.295818154
1.283176801
1.275250778
1.269020358
1.258904279
1.247389749
1.240471037
1.233927473
1.224512956
1.216129002
1.204067531
1.400005019
1.400004867
1.400003911
1.399999094
1.399979379
1.39991318
1.399725898
1.399279225
1.39836835
1.396700824
1.394057321
1.390330959
1.385130403
1.378809764
1.372030685
1.36364701
1.354148895
1.346156186
1.337416229
1.325905188
1.316506785
1.309489481
1.299508758
1.287373739
1.279922378
1.273353377
1.263013623
1.252268912
1.245380197
1.238146093
1.229945842
1.216651761
1.400005039
1.400005028
1.400004934
1.400004316
1.400001048
1.399987055
1.399937983
1.399793494
1.399435944
1.398680226
1.397254711
1.394935502
1.391566909
1.386787187
1.380911571
1.374434787
1.366319736
1.357295626
1.349491543
1.340662143
1.32946116
1.320525516
1.31326599
1.303021959
1.291561505
1.284212854
1.277058369
1.266793937
1.256883172
1.24940879
1.2425394
1.229370489
1.40000504
1.40000504
1.400005033
1.400004976
1.400004581
1.400002388
1.399992559
1.399956543
1.399846096
1.399562346
1.398940244
1.397731048
1.395707394
1.392682092
1.388311131
1.38286924
1.376687206
1.368897912
1.360315039
1.352670317
1.3438185
1.333009228
1.324395125
1.316915997
1.306642385
1.295802492
1.288424939
1.280920823
1.271032299
1.261409732
1.254546959
1.24210293
1.40000504
1.40000504
1.40000504
1.400005036
1.400005002
1.400004752
1.400003297
1.399996465
1.399970296
1.399886667
1.399663405
1.399155584
1.39813723
1.396383384
1.39368055
1.3897117
1.38467633
1.378807547
1.371364688
1.363213664
1.355687091
1.346890149
1.336518489
1.328105012
1.320359945
1.310203569
1.299949443
1.292322582
1.284451283
1.274715771
1.266547824
1.253849017
1.40000504
1.40000504
1.40000504
1.40000504
1.400005038
1.400005018
1.400004862
1.400003907
1.399999208
1.399980386
1.399917671
1.399743543
1.399332448
1.398481539
1.396970571
1.394573231
1.390985851
1.386348807
1.380786265
1.373733995
1.365970861
1.358565444
1.349893483
1.339975622
1.331652643
1.32371051
1.313831628
1.304024085
1.296202708
1.287894634
1.279640006
1.266201617
1.40000504
1.40000504
1.40000504
1.40000504
1.40000504
1.400005039
1.400005027
1.400004931
1.400004312
1.400001115
1.399987715
1.399941145
1.399806542
1.399476632
1.398771028
1.397478375
1.395364801
1.392144231
1.387881258
1.38264514
1.375981202
1.368604396
1.36129869
1.352830175
1.343349943
1.335061485
1.326937596
1.317373421
1.308013324
1.299664004
1.292133575
1.278591533
1.40000504
1.40000504
1.40000504
1.40000504
1.40000504
1.40000504
1.400005033
1.400004974
1.400004577
1.400002427
1.399992987
1.399958746
1.399855663
1.399593138
1.399012918
1.397913968
1.396064896
1.393187045
1.38928875
1.384374466
1.378121822
1.371093259
1.363920927
1.355685891
1.346628123
1.338343616
1.330105451
1.320944805
1.311641384
1.30407909
1.290894778
1.40000504
1.40000504
1.40000504
1.40000504
1.40000504
1.40000504
1.40000504
1.400005036
1.400005001
1.400004749
1.400003319
1.39999674
1.399971817
1.399893613
1.399686577
1.399213193
1.398286159
1.396678041
1.394125598
1.390568102
1.38599217
1.380133213
1.373460133
1.366424935
1.358463986
1.349787787
1.341510655
1.333264937
1.324151308
1.316127713
1.302787346
1.40000504
1.40000504
1.40000504
1.40000504
1.40000504
1.40000504
1.40000504
1.40000504
1.400005038
1.400005017
1.400004859
1.400003919
1.399999384
1.399981428
1.399922669
1.399760857
1.399377856
1.398601467
1.397213617
1.394960348
1.391736504
1.387485404
1.382033054
1.375685879
1.368839629
1.361146492
1.352815631
1.344639262
1.336148995
1.328297867
1.314796446
1.40000504
1.40000504
1.40000504
1.40000504
1.40000504
1.40000504
1.40000504
1.40000504
1.40000504
1.400005039
1.400005027
1.400004929
1.400004318
1.400001226
1.399988426
1.399944698
1.39981943
1.399512022
1.398867157
1.397677162
1.395701724
1.392791549
1.388872769
1.383798765
1.377797235
1.371150002
1.363729124
1.355762364
1.347448447
1.339970665
1.326675973
1.40000504
1.40000504
1.40000504
1.40000504
1.40000504
1.40000504
1.40000504
1.40000504
1.40000504
1.40000504
1.40000504
1.400005032
1.400004973
1.40000458
1.400002496
1.399993467
1.39996125
1.399865156
1.399620642
1.399088827
1.398077241
1.396352819
1.393746857
1.390144526
1.385450121
1.379777208
1.37336624
1.366255535
1.358355014
1.35112713
1.338206478
1.40000504
1.40000504
1.40000504
1.40000504
1.40000504
1.40000504
1.40000504
1.40000504
1.40000504
1.40000504
1.40000504
1.40000504
1.400005036
1.400005
1.400004751
1.400003362
1.399997061
1.399973565
1.399900548
1.399707728
1.399272911
1.398418573
1.396925076
1.394600168
1.391317588
1.386972887
1.381638774
1.375522128
1.368477902
1.361732809
1.349323518
1.40000504
1.40000504
1.40000504
1.40000504
1.40000504
1.40000504
1.40000504
1.40000504
1.40000504
1.40000504
1.40000504
1.40000504
1.40000504
1.400005038
1.400005016
1.40000486
1.400003945
1.399999595
1.399982639
1.399927674
1.399777019
1.399424313
1.39870887
1.397421729
1.395365341
1.3923836
1.388381314
1.383409672
1.377402202
1.37142804
1.359877115
1.40000504
1.40000504
1.40000504
1.40000504
1.40000504
1.40000504
1.40000504
1.40000504
1.40000504
1.40000504
1.40000504
1.40000504
1.40000504
1.40000504
1.400005039
1.400005026
1.400004929
1.400004333
1.400001364
1.399989254
1.399948295
1.399831576
1.399548184
1.398952962
1.397852801
1.396042085
1.393352898
1.389699154
1.38491731
1.379900108
1.369581042
1.40000504
1.40000504
1.40000504
1.40000504
1.40000504
1.40000504
1.40000504
1.40000504
1.40000504
1.40000504
1.40000504
1.40000504
1.40000504
1.40000504
1.40000504
1.400005039
1.400005032
1.400004973
1.400004589
1.400002584
1.399994027
1.399963807
1.399874237
1.399648359
1.399157715
1.398222324
1.396639144
1.394243943
1.390797202
1.386901024
1.378164093
1.40000504
1.40000504
1.40000504
1.40000504
1.40000504
1.40000504
1.40000504
1.40000504
1.40000504
1.40000504
1.40000504
1.40000504
1.40000504
1.40000504
1.40000504
1.40000504
1.40000504
1.400005036
1.400005
1.400004756
1.400003418
1.399997435
1.39997537
1.399907243
1.399728925
1.399327495
1.39853741
1.397172926
1.39496631
1.392237349
1.38535763
1.40000504
1.40000504
1.40000504
1.40000504
1.40000504
1.40000504
1.40000504
1.40000504
1.40000504
1.40000504
1.40000504
1.40000504
1.40000504
1.40000504
1.40000504
1.40000504
1.40000504
1.40000504
1.400005038
1.400005016
1.400004863
1.40000398
1.399999844
1.399983895
1.399932592
1.399793043
1.399466893
1.398810789
1.3975894
1.395905808
1.39096385
1.40000504
1.40000504
1.40000504
1.40000504
1.40000504
1.40000504
1.40000504
1.40000504
1.40000504
1.40000504
1.40000504
1.40000504
1.40000504
1.40000504
1.40000504
1.40000504
1.40000504
1.40000504
1.40000504
1.400005039
1.400005026
1.400004931
1.400004355
1.400001527
1.39999012
1.399951875
1.399843388
1.399583796
1.399014859
1.398124588
1.394949764
1.40000504
1.40000504
1.40000504
1.40000504
1.40000504
1.40000504
1.40000504
1.40000504
1.40000504
1.40000504
1.40000504
1.40000504
1.40000504
1.40000504
1.40000504
1.40000504
1.40000504
1.40000504
1.40000504
1.40000504
1.400005039
1.400005032
1.400004974
1.400004603
1.40000269
1.399994626
1.399966294
1.399883977
1.399666634
1.39927382
1.397483709
1.40000504
1.40000504
1.40000504
1.40000504
1.40000504
1.40000504
1.40000504
1.40000504
1.40000504
1.40000504
1.40000504
1.40000504
1.40000504
1.40000504
1.40000504
1.40000504
1.40000504
1.40000504
1.40000504
1.40000504
1.40000504
1.40000504
1.400005036
1.400005
1.400004764
1.400003487
1.399997819
1.399977426
1.399911064
1.399770194
1.398897644
1.40000504
1.40000504
1.40000504
1.40000504
1.40000504
1.40000504
1.40000504
1.40000504
1.40000504
1.40000504
1.40000504
1.40000504
1.40000504
1.40000504
1.40000504
1.40000504
1.40000504
1.40000504
1.40000504
1.40000504
1.40000504
1.40000504
1.40000504
1.400005038
1.400005017
1.400004868
1.40000402
1.400000169
1.399984373
1.399944345
1.399580044
1.40000504
1.40000504
1.40000504
1.40000504
1.40000504
1.40000504
1.40000504
1.40000504
1.40000504
1.40000504
1.40000504
1.40000504
1.40000504
1.40000504
1.40000504
1.40000504
1.40000504
1.40000504
1.40000504
1.40000504
1.40000504
1.40000504
1.40000504
1.40000504
1.400005039
1.400005026
1.400004934
1.400004392
1.400001531
1.399992734
1.399862503
1.40000504
1.40000504
1.40000504
1.40000504
1.40000504
1.40000504
1.40000504
1.40000504
1.40000504
1.40000504
1.40000504
1.40000504
1.40000504
1.40000504
1.40000504
1.40000504
1.40000504
1.40000504
1.40000504
1.40000504
1.40000504
1.40000504
1.40000504
1.40000504
1.40000504
1.400005039
1.400005032
1.400004977
1.400004592
1.40000313
1.399962833
1.40000504
1.40000504
1.40000504
1.40000504
1.40000504
1.40000504
1.40000504
1.40000504
1.40000504
1.40000504
1.40000504
1.40000504
1.40000504
1.40000504
1.40000504
1.40000504
1.40000504
1.40000504
1.40000504
1.40000504
1.40000504
1.40000504
1.40000504
1.40000504
1.40000504
1.40000504
1.40000504
1.400005036
1.400004998
1.400004818
1.399993779
1.40000504
1.40000504
1.40000504
1.40000504
1.40000504
1.40000504
1.40000504
1.40000504
1.40000504
1.40000504
1.40000504
1.40000504
1.40000504
1.40000504
1.40000504
1.40000504
1.40000504
1.40000504
1.40000504
1.40000504
1.40000504
1.40000504
1.40000504
1.40000504
1.40000504
1.40000504
1.40000504
1.40000504
1.400005037
1.400005021
1.400002261
1.40000504
1.40000504
1.40000504
1.40000504
1.40000504
1.40000504
1.40000504
1.40000504
1.40000504
1.40000504
1.40000504
1.40000504
1.40000504
1.40000504
1.40000504
1.40000504
1.40000504
1.40000504
1.40000504
1.40000504
1.40000504
1.40000504
1.40000504
1.40000504
1.40000504
1.40000504
1.40000504
1.40000504
1.40000504
1.400005039
1.400004389
1.40000504
1.40000504
1.40000504
1.40000504
1.40000504
1.40000504
1.40000504
1.40000504
1.40000504
1.40000504
1.40000504
1.40000504
1.40000504
1.40000504
1.40000504
1.40000504
1.40000504
1.40000504
1.40000504
1.40000504
1.40000504
1.40000504
1.40000504
1.40000504
1.40000504
1.40000504
1.40000504
1.40000504
1.40000504
1.40000504
1.400004892
1.40000504
1.40000504
1.40000504
1.40000504
1.40000504
1.40000504
1.40000504
1.40000504
1.40000504
1.40000504
1.40000504
1.40000504
1.40000504
1.40000504
1.40000504
1.40000504
1.40000504
1.40000504
1.40000504
1.40000504
1.40000504
1.40000504
1.40000504
1.40000504
1.40000504
1.40000504
1.40000504
1.40000504
1.40000504
1.40000504
1.400005007
1.40000504
1.40000504
1.40000504
1.40000504
1.40000504
1.40000504
1.40000504
1.40000504
1.40000504
1.40000504
1.40000504
1.40000504
1.40000504
1.40000504
1.40000504
1.40000504
1.40000504
1.40000504
1.40000504
1.40000504
1.40000504
1.40000504
1.40000504
1.40000504
1.40000504
1.40000504
1.40000504
1.40000504
1.40000504
1.40000504
1.400005033
1.40000504
1.40000504
1.40000504
1.40000504
1.40000504
1.40000504
1.40000504
1.40000504
1.40000504
1.40000504
1.40000504
1.40000504
1.40000504
1.40000504
1.40000504
1.40000504
1.40000504
1.40000504
1.40000504
1.40000504
1.40000504
1.40000504
1.40000504
1.40000504
1.40000504
1.40000504
1.40000504
1.40000504
1.40000504
1.40000504
1.400005039
1.40000504
1.40000504
1.40000504
1.40000504
1.40000504
1.40000504
1.40000504
1.40000504
1.40000504
1.40000504
1.40000504
1.40000504
1.40000504
1.40000504
1.40000504
1.40000504
1.40000504
1.40000504
1.40000504
1.40000504
1.40000504
1.40000504
1.40000504
1.40000504
1.40000504
1.40000504
1.40000504
1.40000504
1.40000504
1.40000504
1.40000504
1.40000504
1.40000504
1.40000504
1.40000504
1.40000504
1.40000504
1.40000504
1.40000504
1.40000504
1.40000504
1.40000504
1.40000504
1.40000504
1.40000504
1.40000504
1.40000504
1.40000504
1.40000504
1.40000504
1.40000504
1.40000504
1.40000504
1.40000504
1.40000504
1.40000504
1.40000504
1.40000504
1.40000504
1.40000504
1.40000504
1.40000504
1.40000504
1.40000504
1.40000504
1.40000504
1.40000504
1.40000504
1.40000504
1.40000504
1.40000504
1.40000504
1.40000504
1.40000504
1.40000504
1.40000504
1.40000504
1.40000504
1.40000504
1.40000504
1.40000504
1.40000504
1.40000504
1.40000504
1.40000504
1.40000504
1.40000504
1.40000504
1.40000504
1.40000504
1.40000504
1.40000504
1.40000504
1.40000504
1.40000504
1.40000504
1.40000504
1.40000504
1.40000504
1.40000504
1.40000504
1.40000504
1.40000504
1.40000504
1.40000504
1.40000504
1.40000504
1.40000504
1.40000504
1.40000504
1.40000504
1.40000504
1.40000504
1.40000504
1.40000504
1.40000504
1.40000504
1.40000504
1.40000504
1.40000504
1.40000504
1.40000504
1.40000504
1.40000504
1.40000504
1.40000504
1.40000504
1.40000504
1.40000504
1.40000504
1.40000504
1.40000504
1.40000504
1.40000504
1.40000504
1.40000504
1.40000504
1.40000504
1.40000504
1.40000504
1.40000504
1.40000504
1.40000504
1.40000504
1.40000504
1.40000504
1.40000504
1.40000504
1.40000504
1.40000504
1.40000504
1.40000504
1.40000504
1.40000504
1.40000504
1.40000504
1.40000504
1.40000504
1.40000504
1.40000504
1.40000504
1.40000504
1.40000504
1.40000504
1.40000504
1.40000504
1.40000504
1.40000504
1.40000504
1.40000504
1.40000504
1.40000504
1.40000504
1.40000504
1.40000504
1.40000504
1.40000504
1.40000504
1.40000504
1.40000504
1.40000504
1.40000504
1.40000504
1.40000504
1.40000504
1.40000504
1.40000504
1.40000504
1.40000504
1.40000504
1.40000504
1.40000504
1.40000504
1.40000504
1.40000504
1.40000504
1.40000504
1.40000504
1.40000504
1.40000504
1.40000504
1.40000504
1.40000504
1.40000504
1.40000504
1.40000504
1.40000504
1.40000504
1.40000504
1.40000504
1.40000504
1.40000504
1.40000504
1.40000504
1.40000504
1.40000504
1.40000504
)
;

boundaryField
{
    inlet
    {
        type            calculated;
        value           nonuniform 0();
    }
    outlet
    {
        type            calculated;
        value           nonuniform List<scalar> 
71
(
1.389637119
1.392482586
1.362508771
1.234813522
1.033051295
0.9108426035
0.8906159766
0.8974349112
0.90791421
0.9204214066
0.9317151631
0.9435192577
0.9546443788
0.9657255713
0.9763202985
0.9876566152
0.9999965988
1.011539434
1.023127563
1.034205515
1.045725428
1.0585315
1.070213599
1.08240997
1.093259815
1.105757329
1.118348349
1.130879944
1.142535381
1.154368343
1.167030409
1.179959653
1.192331037
1.204062169
1.216656368
1.229375811
1.242100193
1.253844565
1.266203305
1.278594468
1.290893673
1.302785912
1.314797147
1.326676407
1.338206144
1.349323485
1.359877203
1.36958102
1.378164087
1.385357633
1.390963849
1.394949764
1.39748371
1.398897644
1.399580044
1.399862503
1.399962833
1.399993779
1.400002261
1.400004389
1.400004892
1.400005007
1.400005033
1.400005039
1.40000504
1.40000504
1.40000504
1.40000504
1.40000504
1.40000504
1.40000504
)
;
    }
    bottom
    {
        type            calculated;
        value           nonuniform 0();
    }
    top
    {
        type            calculated;
        value           nonuniform List<scalar> 
31
(
1.40000504
1.40000504
1.40000504
1.40000504
1.40000504
1.40000504
1.40000504
1.40000504
1.40000504
1.40000504
1.40000504
1.40000504
1.40000504
1.40000504
1.40000504
1.40000504
1.40000504
1.40000504
1.40000504
1.40000504
1.40000504
1.40000504
1.40000504
1.40000504
1.40000504
1.40000504
1.40000504
1.40000504
1.40000504
1.40000504
1.40000504
)
;
    }
    obstacle
    {
        type            calculated;
        value           nonuniform 0();
    }
    defaultFaces
    {
        type            empty;
    }
    procBoundary35to29
    {
        type            processor;
        value           nonuniform List<scalar> 
33
(
0.8649450889
0.8615895584
0.8592901901
0.8559026484
0.8564046163
0.8655965584
0.9215839129
1.031324857
1.165951427
1.261645593
1.35313423
1.370679968
1.370714986
1.380907577
1.381958039
1.38088307
0.9707968052
0.9617743186
0.9591897243
0.9544507489
0.9436098649
0.9358711614
0.934144157
0.9302709938
0.9206821443
0.9136183917
0.9118794907
0.9085624945
0.9004934305
0.8931931056
0.891599918
0.889257393
0.889257393
)
;
    }
    procBoundary35to34
    {
        type            processor;
        value           nonuniform List<scalar> 
71
(
0.9989562955
1.013085081
1.027419728
1.046495975
1.068397422
1.087062007
1.102641784
1.117505853
1.135059951
1.156674981
1.177065859
1.194822788
1.209805887
1.227408038
1.247152106
1.26754463
1.284070111
1.299655155
1.316718995
1.334616786
1.349986732
1.363180202
1.375217503
1.385000709
1.391790938
1.396099392
1.398457953
1.399500609
1.399873627
1.399978637
1.400001029
1.400004591
1.400005004
1.400005038
1.40000504
1.40000504
1.40000504
1.40000504
1.40000504
1.40000504
1.40000504
1.40000504
1.40000504
1.40000504
1.40000504
1.40000504
1.40000504
1.40000504
1.40000504
1.40000504
1.40000504
1.40000504
1.40000504
1.40000504
1.40000504
1.40000504
1.40000504
1.40000504
1.40000504
1.40000504
1.40000504
1.40000504
1.40000504
1.40000504
1.40000504
1.40000504