/*--------------------------------*- C++ -*----------------------------------*\
  =========                 |
  \\      /  F ield         | OpenFOAM: The Open Source CFD Toolbox
   \\    /   O peration     | Website:  https://openfoam.org
    \\  /    A nd           | Version:  7
     \\/     M anipulation  |
\*---------------------------------------------------------------------------*/
FoamFile
{
    version     2.0;
    format      ascii;
    class       volScalarField;
    location    "1";
    object      T;
}
// * * * * * * * * * * * * * * * * * * * * * * * * * * * * * * * * * * * * * //

dimensions      [0 0 0 1 0 0 0];

internalField   nonuniform List<scalar> 
555
(
0.8967557409
0.8883523171
0.8809399542
0.8764810243
0.8733639394
0.9940215324
0.9804889405
0.9659691667
0.9510636432
0.9428783638
0.9335801586
0.9217774735
0.9131881868
0.9047657708
0.8946029798
0.8870959197
0.8812707403
0.8740672118
0.8706913076
0.8715623348
0.8741566229
0.9737571485
0.9619607817
0.9468805225
0.9341974963
0.9257447426
0.9150720536
0.9054065661
0.8988194318
0.8922855234
0.8823215047
0.8770145353
0.8722532446
0.8684303462
0.8690997491
0.8760658611
0.9006715518
0.9532696654
0.9440967901
0.9308514355
0.9197927011
0.9099312828
0.8984149319
0.8873236369
0.8820583622
0.8743307491
0.8684237811
0.8670333487
0.8673149508
0.8704461837
0.8842637393
0.917204577
0.9591391154
0.9345241421
0.9228830867
0.9085341959
0.8992694356
0.8935557358
0.8846064954
0.8770894291
0.8717469378
0.8652374436
0.8634945585
0.8650148194
0.8730770736
0.9009075397
0.9364812883
0.9718915928
0.9853423043
0.9164347953
0.9054151899
0.8913582165
0.8819158577
0.8757909565
0.8657703262
0.8635911487
0.8615365343
0.8617105721
0.8660240977
0.88691632
0.9207569104
0.9584880118
0.9897686378
1.003764054
1.002305264
0.8942537439
0.8869667247
0.8772182923
0.8715779883
0.8642670091
0.8589315993
0.8581679275
0.8599739918
0.8705134692
0.900504812
0.9464496619
0.9831313364
0.990748383
0.9996565686
1.007109245
1.006425366
0.877919733
0.8663807784
0.8580718226
0.8561882881
0.8553956944
0.856247061
0.8619042738
0.8859232753
0.9223282951
0.9614991857
0.9812498084
0.9979819911
1.002023846
1.004341824
1.005862128
1.006238467
0.8654313621
0.8556140484
0.853079038
0.8530162744
0.8549925835
0.8705035487
0.9023621535
0.9466913183
0.9849548822
1.002268331
1.002265503
1.004593781
1.007038067
1.007943791
1.007472961
1.00698106
0.8499519087
0.8495607432
0.8515019701
0.8606516018
0.8887776511
0.9305183995
0.9710662731
0.9840294372
0.9960243964
1.007290974
1.006310725
1.006577332
1.007836259
1.008581176
1.008695084
1.00816866
0.848061564
0.8510231789
0.8731040472
0.9103293399
0.9535600075
0.9819623688
1.003447168
1.006413346
1.005293766
1.006967175
1.006948364
1.006749024
1.007218008
1.008203422
1.009017491
1.009045965
0.8614233415
0.8911039
0.9395154836
0.9806533907
1.000546307
1.001451311
1.006832243
1.009972361
1.009938753
1.009655093
1.008922099
1.007924054
1.007928825
1.008423012
1.009472122
1.010136551
0.9217737964
0.9711504529
0.9868320747
1.001281704
1.007701088
1.007139316
1.007999932
1.009710038
1.010823168
1.010823574
1.010792783
1.010347918
1.010354805
1.010559344
1.011012078
1.011532725
0.9835349782
1.005465213
1.007626003
1.00855206
1.010412851
1.011312976
1.01093394
1.01119203
1.011647855
1.012010011
1.012195973
1.012168074
1.012329524
1.01255098
1.012774283
1.012866784
1.004625434
1.012499181
1.014333465
1.012730974
1.012612119
1.012937115
1.012841916
1.01266643
1.012765131
1.013000119
1.013308138
1.013483414
1.013595456
1.01368019
1.013720665
1.013713403
1.011666649
1.01238168
1.013423794
1.014089145
1.01414932
1.014132523
1.014000433
1.013764244
1.013664003
1.01373117
1.013990689
1.014198404
1.014293212
1.014294695
1.01424723
1.014187127
1.013611655
1.012292004
1.013385054
1.01447668
1.01445081
1.014223125
1.013916887
1.013531075
1.01322621
1.013101202
1.013254601
1.013503853
1.01376
1.013906009
1.014145532
1.014532915
1.013423862
1.012187942
1.013459585
1.014480149
1.014436025
1.014217818
1.01395728
1.01344114
1.013060495
1.01280958
1.012743607
1.012874811
1.013093112
1.013329966
1.013618689
1.014291333
1.012986488
1.012171297
1.013684584
1.014378353
1.014348644
1.01421685
1.013799054
1.01346353
1.013044708
1.012776625
1.012541795
1.012622042
1.012850468
1.013230329
1.0134943
1.013918001
1.011496368
1.011359674
1.013161202
1.013684387
1.013690434
1.013649826
1.013473901
1.01335437
1.013371292
1.013474663
1.013182946
1.013014432
1.013023762
1.013153008
1.013331158
1.013651065
1.009600799
1.009865664
1.011932147
1.012497531
1.012489953
1.012606175
1.012657039
1.012746229
1.012781106
1.013109309
1.013003898
1.012832272
1.012837742
1.012878101
1.012971046
1.013100692
1.007969871
1.008232551
1.010248831
1.010994334
1.010997138
1.011188535
1.011326495
1.011468762
1.011778271
1.012372049
1.012339628
1.012254366
1.012258351
1.012233319
1.012269144
1.01199984
1.006642537
1.00682102
1.008680134
1.009493138
1.009498504
1.009722143
1.009924048
1.009937014
1.010200032
1.010860268
1.01134687
1.011391516
1.011315414
1.011218524
1.011104108
1.010593707
1.006029146
1.005890653
1.007545126
1.008203061
1.008197715
1.008438441
1.00860751
1.008580695
1.008685512
1.009094064
1.009892218
1.010251768
1.010174534
1.010027689
1.009732314
1.009311186
1.006377828
1.005933239
1.005654545
1.007162863
1.007606818
1.0074047
1.007425357
1.007496666
1.007417514
1.007417884
1.007599123
1.008169012
1.008730182
1.008908761
1.0088508
1.00866934
1.008444007
1.005801152
1.00565158
1.005724071
1.007140146
1.007352611
1.007049456
1.006791311
1.006584906
1.006364522
1.006227508
1.006259384
1.006431518
1.006971909
1.007520294
1.007740702
1.007799014
1.007988693
1.005047954
1.005029089
1.005342057
1.006712731
1.00672983
1.006376595
1.006066309
1.005753009
1.005324509
1.005076168
1.005020622
1.005083352
1.005491936
1.006078508
1.006578286
1.006956669
1.007236998
1.003855632
1.003896001
1.004646824
1.005839542
1.005813724
1.005373856
1.00508372
1.004745283
1.004233737
1.003922876
1.003809323
1.003795967
1.004118643
1.004631262
1.005289149
1.005739555
1.006013878
1.0025006
1.002448768
1.003178244
1.004225887
1.004364247
1.004005891
1.003837612
1.003544468
1.00315794
1.003103514
1.003122459
1.00287278
1.002735756
1.00310063
1.003588612
1.004018161
1.004233788
1.001253878
1.000806839
1.001510912
1.002427006
1.002429066
1.002215456
1.00230391
1.002237021
1.002104372
1.002253679
1.00235092
1.002092808
1.001631751
1.001449582
1.001633056
1.001877792
0.999611143
0.9991916242
0.999591611
1.000305095
1.000207571
1.000088408
1.000343136
1.00047422
1.000462179
1.000649613
1.000725956
1.000575649
1.000200169
0.9997276604
0.999566377
0.999690928
0.997254455
0.9973398869
0.9978995777
0.9981716659
0.9977984234
0.9976215963
0.9978898004
0.9981615343
0.9982488577
0.9984285187
0.9985019969
0.9983768762
0.9980995464
0.9977805361
0.9974791246
0.9975282375
0.9927373506
0.9942903779
0.9948717306
0.995713819
0.9959130358
0.9954761019
0.994900873
0.9949914224
0.9953363676
0.9955064959
0.9956675623
0.9956730757
0.9956784114
0.9956850736
0.995642219
0.9954603527
0.9953704634
0.98984001
0.9912155316
0.9919389587
0.9930096321
0.9932346765
0.9928145081
0.9921638918
0.9920336439
0.9923250036
0.9925130296
0.9928166125
0.9929613403
0.9932056259
0.9934235676
0.9935327706
0.9935425209
0.9933941661
0.9871886309
0.9884271598
0.988940282
0.9900045466
0.9904418437
0.9901511
0.989643956
0.9893802147
0.9895709799
0.9899055408
0.990321524
0.9905643304
0.9909402859
0.9912484496
0.9914246541
)
;

boundaryField
{
    inlet
    {
        type            fixedValue;
        value           nonuniform 0();
    }
    outlet
    {
        type            inletOutlet;
        inletValue      nonuniform 0();
        value           nonuniform 0();
    }
    bottom
    {
        type            slip;
    }
    top
    {
        type            slip;
    }
    obstacle
    {
        type            zeroGradient;
    }
    defaultFaces
    {
        type            empty;
    }
    procBoundary10to4
    {
        type            processor;
        value           nonuniform List<scalar> 
17
(
0.9079613923
0.9003226013
0.8923766986
0.8850975267
0.8776540973
1.012751295
0.9986008002
0.9851029536
0.9703274578
0.95857059
0.9479809579
0.9344270555
0.9263786368
0.9195642824
0.9118115085
0.903110374
0.903110374
)
;
    }
    procBoundary10to5
    {
        type            processor;
        value           uniform 0.8738347176;
    }
    procBoundary10to9
    {
        type            processor;
        value           nonuniform List<scalar> 
27
(
1.010560262
0.9913153095
0.9677960839
0.9471058031
0.9267765032
0.9012181575
0.8857128501
0.8704060154
0.8521240629
0.8488335272
0.8477828087
0.8753687766
0.9499423254
1.000598835
1.013960295
1.013732085
1.013931595
1.013224272
1.011910548
1.010141259
1.008547462
1.007337773
1.006773607
1.006773607
1.003699382
1.003602836
1.003007515
)
;
    }
    procBoundary10to11
    {
        type            processor;
        value           nonuniform List<scalar> 
34
(
0.8860546828
0.9353147724
0.9896265875
0.9982400959
1.003782939
1.006437087
1.006698164
1.006587058
1.007340334
1.008685521
1.01008356
1.011544337
1.012876844
1.013682932
1.014099704
1.014841774
1.01516007
1.014700954
1.013916993
1.012849976
1.011383159
1.01000362
1.009003396
1.008500463
1.008332992
1.007550212
1.006242967
1.004475689
1.002134597
1.002134597
0.9998990922
0.9975819053
0.9953136883
0.9932558723
)
;
    }
    procBoundary10to15
    {
        type            processor;
        value           nonuniform List<scalar> 9(1.00202579 1.000826464 0.9996107303 0.9979824423 0.9956504863 0.9956504863 0.9934925026 0.9904932813 0.9881344251);
    }
    procBoundary10to16
    {
        type            processor;
        value           nonuniform List<scalar> 
18
(
0.9917010655
0.9916923656
0.9853299719
0.9862072486
0.9865222415
0.9874890028
0.9878683239
0.9876463416
0.9875463335
0.9873279936
0.9874023309
0.9878294749
0.9883038338
0.9885631226
0.9892459555
0.9896539725
0.9917010655
0.9897965
)
;
    }
}


// ************************************************************************* //
