/*--------------------------------*- C++ -*----------------------------------*\
  =========                 |
  \\      /  F ield         | OpenFOAM: The Open Source CFD Toolbox
   \\    /   O peration     | Website:  https://openfoam.org
    \\  /    A nd           | Version:  7
     \\/     M anipulation  |
\*---------------------------------------------------------------------------*/
FoamFile
{
    version     2.0;
    format      ascii;
    class       volScalarField;
    location    "3";
    object      rho;
}
// * * * * * * * * * * * * * * * * * * * * * * * * * * * * * * * * * * * * * //

dimensions      [1 -3 0 0 0 0 0];

internalField   nonuniform List<scalar> 
2222
(
1.40000504
1.40000504
1.400005055
1.400005452
1.40001457
1.400134242
1.401450289
1.409876946
1.447850703
1.550183069
1.754990519
1.963679748
2.136940701
2.281062917
2.331335035
2.326797213
2.319871124
2.304906362
2.285057445
2.261217371
2.235340587
2.210222958
2.184695539
2.157993481
2.130801935
2.10324057
2.074535099
2.045149524
2.015952241
1.986618209
1.960740081
1.917008218
1.400005041
1.400005053
1.400005528
1.400014154
1.400155492
1.40132263
1.409917396
1.440914658
1.526360554
1.642624631
1.764914835
1.903726922
2.042858315
2.133877956
2.227626922
2.274982216
2.302941985
2.297569829
2.279458775
2.257732476
2.234729307
2.210186398
2.183425982
2.15651171
2.129456466
2.101327583
2.07237703
2.043680739
2.015204469
1.985968224
1.960019756
1.91657432
1.400005056
1.400005462
1.400015587
1.400134677
1.401536227
1.408819207
1.444294153
1.51770909
1.632026795
1.738932843
1.784542661
1.839497497
1.916871508
2.02036339
2.147938728
2.23460237
2.278769491
2.278226312
2.270242176
2.252834393
2.233325941
2.208905519
2.18143027
2.155328297
2.12832081
2.099403232
2.07064208
2.043040049
2.015213555
1.985958204
1.9601303
1.917172891
1.400005556
1.400014149
1.400162747
1.401281784
1.410388652
1.44043472
1.523464347
1.644954193
1.72021355
1.785581719
1.794042128
1.803596817
1.831950076
1.896060325
1.990320813
2.098339497
2.194121465
2.232621003
2.247942165
2.247132923
2.236273011
2.213107186
2.187393269
2.162746857
2.135193447
2.105754877
2.077982834
2.051626178
2.024397866
1.995502649
1.970409066
1.928245471
1.400016018
1.400141116
1.401559466
1.40881574
1.444754299
1.524523146
1.628605272
1.738138685
1.785346674
1.806698782
1.807503298
1.807013253
1.809120965
1.823125215
1.864557372
1.953857571
2.07176322
2.158283653
2.229371541
2.22435386
2.20727865
2.186970769
2.168814788
2.14521497
2.115379326
2.088447841
2.064191873
2.037748233
2.008965495
1.980475314
1.956666644
1.915682233
1.400167191
1.401348716
1.410422062
1.440790477
1.524389827
1.648894764
1.73218336
1.775585919
1.796043762
1.810729157
1.81161466
1.810392884
1.807843926
1.802820699
1.806779318
1.834607665
1.899813967
2.004818256
2.128809753
2.154566172
2.17783399
2.176255952
2.162865797
2.136420535
2.108432909
2.084567455
2.060302345
2.031954103
2.003025892
1.975775546
1.952311658
1.911369432
1.401555368
1.409389203
1.443963033
1.527848475
1.633270519
1.736153698
1.790429443
1.805829291
1.805730323
1.80879185
1.810065444
1.808779365
1.803869533
1.795563958
1.78120258
1.781499338
1.797160345
1.85646936
1.962424793
2.069556575
2.155364005
2.155129021
2.139394607
2.114822743
2.098266945
2.079117281
2.051734382
2.021212743
1.995717641
1.971348873
1.947902626
1.906663733
1.410273384
1.44276009
1.524060947
1.651965972
1.738370332
1.776335054
1.798785131
1.811782668
1.811376169
1.810044935
1.809238119
1.80526301
1.796579647
1.784549288
1.769913232
1.754531974
1.751989338
1.763618248
1.811628187
1.916198578
2.031348006
2.078012076
2.104768362
2.102779439
2.093730555
2.07117787
2.042357353
2.014419616
1.991443821
1.96680273
1.942945558
1.902297376
1.443851487
1.52953169
1.64051826
1.734978013
1.786401611
1.804717733
1.810370504
1.811631666
1.811291441
1.810143655
1.805864025
1.797513878
1.785757412
1.772061865
1.757780004
1.74226097
1.727167717
1.721836513
1.730704476
1.775054151
1.864800183
1.980729062
2.064840531
2.089248849
2.076144186
2.048920561
2.029741324
2.01293421
1.99038492
1.961405394
1.937747381
1.899363206
1.527607456
1.647686353
1.747747972
1.778018502
1.794287945
1.810588098
1.813699025
1.813008116
1.811472491
1.806856874
1.798487302
1.787144476
1.773580936
1.759273724
1.744615886
1.729954796
1.714014136
1.698250826
1.690681496
1.697018662
1.73483666
1.823611692
1.923879291
2.014162382
2.033915392
2.033189157
2.02760512
2.013722816
1.987513291
1.955481357
1.933233239
1.897121838
1.644757039
1.73177934
1.789766959
1.809248719
1.808999878
1.810472624
1.81224899
1.811605179
1.808071121
1.800168347
1.78872588
1.775188851
1.760928238
1.74589773
1.731568992
1.7160187
1.700550613
1.683982606
1.668481773
1.659418081
1.665285672
1.694948248
1.77537727
1.890800095
1.975379292
2.022647375
2.016267199
1.990584257
1.96693737
1.949555321
1.930709822
1.891802682
1.750661355
1.776518727
1.794957422
1.813073846
1.81455113
1.812942137
1.811320324
1.808137935
1.801003998
1.790057874
1.776509024
1.762125754
1.747466848
1.73263001
1.717065495
1.701228157
1.685500426
1.670633358
1.654525689
1.639381822
1.62899624
1.63307776
1.661253227
1.734253977
1.837469036
1.949995994
1.964421469
1.965878406
1.96176724
1.950536716
1.929055436
1.886427899
1.792482276
1.808822699
1.808411779
1.811411773
1.813722889
1.812676706
1.808658657
1.801078688
1.790594172
1.777481953
1.763316536
1.748419221
1.733762126
1.717733193
1.701555208
1.686082524
1.67150366
1.65611948
1.640786545
1.625304742
1.611114565
1.600511039
1.604081016
1.625494994
1.696978387
1.811068011
1.894010531
1.952254418
1.95053996
1.930700777
1.908146746
1.877161087
1.796516499
1.813839639
1.81395562
1.813196487
1.812919214
1.809932252
1.802415208
1.791509914
1.77866421
1.764146877
1.749373429
1.734590412
1.718378213
1.702162026
1.686603445
1.672248705
1.656432766
1.640710886
1.62649035
1.612962691
1.597881684
1.582643535
1.571234219
1.573730246
1.595995841
1.657840707
1.765733194
1.873596184
1.902440846
1.90525826
1.899365875
1.876822552
1.809141992
1.812325484
1.814023386
1.813843044
1.810915913
1.803849622
1.793231919
1.780057808
1.765285068
1.750403711
1.735314866
1.719230668
1.702622287
1.687177175
1.673002661
1.656798278
1.640594906
1.626370946
1.613495174
1.598802093
1.583044813
1.568508088
1.554862454
1.544493121
1.546270562
1.563688301
1.627684705
1.730839868
1.825157992
1.885392575
1.885149987
1.864834648
1.814653475
1.814393998
1.814491602
1.811986497
1.805070781
1.794578675
1.781556001
1.766520117
1.75141994
1.736354247
1.720011156
1.703154156
1.688065355
1.673576432
1.657496196
1.640730282
1.626266925
1.613737125
1.598100229
1.582187724
1.568276955
1.556200509
1.542775222
1.527245617
1.516213582
1.518185141
1.53616813
1.592193101
1.702413796
1.793922421
1.847719019
1.84349454
1.814934386
1.815250096
1.812896857
1.806283675
1.796033558
1.783118522
1.768045341
1.752487181
1.737294499
1.720630703
1.70366787
1.688900786
1.674617037
1.658093901
1.640653141
1.626614909
1.61381724
1.598142723
1.581023994
1.567157066
1.556183394
1.542732521
1.527770235
1.513881433
1.500627112
1.491767772
1.49272169
1.510100738
1.563695597
1.660389633
1.775309901
1.818992498
1.815438622
1.813450756
1.807252138
1.797176851
1.784425433
1.769509632
1.753869728
1.738342646
1.721657533
1.704291027
1.689452876
1.675499273
1.658532391
1.640654054
1.6266879
1.61415801
1.598288323
1.580259233
1.566422151
1.5557801
1.541975702
1.526461522
1.512752545
1.502333529
1.490087578
1.474667802
1.464558933
1.466114115
1.48041449
1.538775917
1.635702455
1.748543868
1.813981653
1.807828704
1.798145164
1.785512917
1.770660154
1.755084038
1.739482921
1.722785375
1.705370792
1.689999206
1.675851347
1.659073115
1.640799567
1.626735773
1.614196113
1.597959842
1.579419383
1.565986228
1.555531604
1.541943647
1.524790868
1.511190486
1.501732711
1.489858047
1.475961706
1.461332109
1.448057915
1.440234505
1.44183387
1.458358702
1.506060491
1.642080243
1.808631587
1.798898705
1.786532907
1.771558256
1.756151634
1.740809094
1.723923849
1.706458354
1.69086032
1.676346362
1.659427579
1.641049941
1.626605768
1.613945903
1.597230137
1.578551649
1.565370007
1.55541423
1.541847926
1.523574579
1.509692525
1.500619334
1.488966864
1.474016542
1.459434365
1.449374623
1.43814865
1.424493991
1.41573016
1.41725958
1.429674587
1.524561746
1.799778484
1.787530563
1.77266072
1.756894882
1.741945043
1.725232265
1.707310423
1.691818653
1.677245907
1.660012224
1.641051856
1.626310025
1.613632444
1.596924734
1.577589155
1.564589506
1.554783807
1.541114401
1.522725296
1.508426946
1.499369142
1.488065617
1.471469469
1.456810729
1.447979363
1.437713114
1.42575184
1.411976077
1.399215371
1.392748541
1.393395138
1.43745822
1.788442407
1.773913025
1.757934979
1.742769421
1.726600593
1.708458601
1.692493459
1.678050933
1.660536755
1.641147162
1.625967427
1.613480923
1.596904564
1.576992099
1.563422853
1.553804255
1.540162384
1.521581671
1.507193635
1.498412133
1.486648545
1.468850415
1.454385483
1.445896498
1.436866685
1.423820546
1.409496972
1.400460274
1.389519512
1.376388079
1.370932939
1.384232203
1.775093577
1.759259273
1.743719071
1.727789161
1.709830852
1.693186965
1.678491932
1.661150656
1.641290528
1.625876388
1.613248227
1.59684999
1.576579733
1.562252348
1.552746089
1.539484982
1.520237201
1.505532486
1.496882451
1.485348555
1.467088522
1.451318813
1.444095243
1.435645729
1.421015869
1.407585877
1.397554883
1.388431697
1.379533375
1.364301436
1.354757435
1.352273305
1.760767648
1.745198272
1.729008811
1.711129416
1.693828828
1.67883952
1.661695375
1.641639793
1.625589457
1.612896927
1.596633574
1.576455052
1.561505062
1.55171962
1.5386656
1.519204116
1.503275356
1.494856825
1.484020656
1.465426502
1.449123894
1.441861706
1.433508349
1.419740063
1.404123859
1.394884683
1.387297058
1.375393076
1.365369715
1.353310454
1.34339507
1.33206914
1.746802942
1.730502678
1.712308168
1.694704396
1.679228391
1.662345083
1.641911882
1.625009692
1.612415469
1.596594264
1.576424686
1.561053122
1.550670724
1.537486768
1.518134168
1.501352089
1.492749917
1.482370753
1.464249634
1.446891758
1.439227641
1.431761069
1.417239562
1.401559876
1.392792395
1.384012332
1.37435534
1.361039884
1.35054727
1.342086944
1.332080284
1.317599031
1.732062955
1.71358358
1.695605523
1.679775198
1.66267316
1.642291559
1.624394202
1.611831207
1.596887363
1.57647258
1.560116159
1.549610295
1.536345258
1.516960027
1.49981307
1.49070334
1.480588061
1.462758181
1.444613368
1.43692543
1.429333192
1.415803076
1.399458442
1.389445852
1.382469618
1.370347969
1.358306011
1.347605131
1.337625349
1.330023616
1.320976599
1.305542227
1.715001677
1.696410569
1.680322928
1.662975965
1.642562235
1.62432782
1.611166565
1.596784909
1.576659395
1.55883664
1.548172474
1.535630149
1.516041263
1.497895388
1.488510251
1.478623064
1.461268127
1.442666861
1.434141486
1.427429893
1.414111188
1.396609005
1.38750882
1.378877933
1.36847181
1.355081782
1.343614585
1.335377165
1.326426743
1.318115664
1.308775188
1.293289122
1.696924155
1.680686506
1.663695961
1.642874252
1.624305752
1.61070786
1.596138176
1.576722396
1.55805897
1.546619414
1.534628156
1.515370306
1.495691129
1.485821684
1.476694893
1.460227055
1.440578876
1.431654235
1.424851845
1.412188491
1.394883387
1.383662833
1.37715645
1.365478539
1.352197789
1.341148902
1.331096946
1.32409329
1.315422684
1.304332271
1.294794546
1.280997555
1.680622265
1.664728498
1.643747117
1.623699515
1.61018265
1.595855246
1.576456413
1.557607921
1.545227948
1.533055028
1.514499208
1.493781082
1.483137011
1.474721003
1.459356972
1.43906045
1.428514543
1.422103979
1.410202327
1.391703707
1.381425689
1.373847737
1.363561965
1.350086779
1.337371933
1.328399238
1.32018703
1.312713075
1.301693319
1.289688741
1.282718456
1.269909888
1.664917509
1.645279352
1.623227008
1.609076883
1.596036779
1.576601377
1.556398651
1.543563692
1.53151078
1.513380771
1.492427517
1.480722195
1.472494577
1.458294103
1.437479892
1.425567914
1.419112125
1.407775317
1.390180831
1.377380522
1.371271288
1.360873873
1.347034942
1.335214285
1.324301845
1.317069518
1.309452979
1.298929402
1.286321849
1.278126998
1.271833215
1.25742116
1.646218671
1.624250664
1.607796928
1.595373062
1.577131986
1.554821955
1.541127081
1.53017439
1.51287744
1.491073072
1.478150842
1.470016868
1.456726117
1.43629485
1.422670427
1.416314543
1.405844601
1.387295085
1.374538231
1.367410744
1.358154671
1.34481605
1.331643866
1.3218524
1.313532267
1.3064641
1.296261023
1.282682934
1.273872648
1.26777818
1.25948183
1.24413824
1.625638008
1.607495139
1.593804062
1.577035027
1.554379572
1.538443985
1.528273349
1.512623718
1.489775151
1.475104274
1.467301398
1.455285199
1.435228207
1.419968064
1.413349834
1.403461007
1.385640779
1.370224589
1.364081385
1.35548115
1.341795935
1.329324837
1.31870331
1.31058141
1.302934964
1.292778298
1.279083384
1.269438462
1.263962717
1.25548022
1.244994695
1.231494112
1.607575344
1.592743818
1.576057884
1.55468411
1.536646105
1.525593787
1.511477369
1.489121672
1.472081969
1.46445378
1.453780645
1.434420454
1.417006376
1.409691651
1.401029648
1.38330785
1.367112432
1.360061832
1.352508587
1.340057698
1.325828461
1.315836242
1.30701615
1.299145979
1.289352295
1.275585296
1.265503037
1.260439578
1.252764003
1.240306905
1.231895882
1.220765278
1.592545346
1.57559638
1.554029271
1.535230435
1.52299068
1.5095155
1.488917711
1.470091816
1.461499682
1.45175916
1.433484458
1.413967703
1.405732666
1.397837815
1.38230003
1.363650343
1.356242271
1.34926774
1.337105926
1.323397462
1.311607615
1.303208395
1.295394834
1.286024573
1.27271667
1.261332415
1.256211345
1.249207617
1.236743938
1.226095742
1.220923069
1.209632544
1.575780816
1.552889515
1.533023147
1.52094496
1.508027453
1.488489043
1.468651325
1.458449626
1.449040554
1.432223081
1.411579513
1.401780772
1.394843982
1.380624126
1.361443918
1.351775799
1.345472885
1.33458978
1.319976341
1.30825275
1.299223737
1.291896775
1.282980567
1.269677814
1.257045485
1.251502627
1.245677873
1.233610043
1.221626488
1.21583226
1.210685384
1.197804286
1.552960447
1.530371938
1.518693868
1.50701113
1.487731156
1.466633364
1.455198926
1.446195312
1.430905281
1.40986914
1.398141612
1.391251194
1.378863705
1.358864634
1.347342862
1.341613212
1.331648086
1.31746203
1.304832341
1.295734119
1.287859646
1.278969357
1.265918234
1.252694111
1.246505099
1.241242407
1.230904886
1.217323497
1.211095976
1.205993398
1.198821219
1.185055034
1.529171218
1.515402001
1.505114681
1.487171713
1.464323156
1.451884681
1.443479654
1.429435462
1.408339366
1.39403054
1.387132551
1.376216854
1.357025008
1.343147489
1.337568252
1.329388179
1.314761355
1.301229456
1.291709144
1.283512421
1.27461506
1.262283918
1.248843929
1.242245459
1.237247422
1.228086447
1.214325823
1.206465914
1.202043665
1.194115096
1.184658083
1.171983297
1.511671425
1.502175523
1.486950038
1.463319557
1.448303194
1.440349105
1.427517848
1.406373626
1.389924878
1.382651229
1.373490938
1.355961659
1.339565571
1.333360111
1.325858975
1.312236369
1.296546979
1.287048047
1.279385918
1.270501139
1.25881069
1.245321044
1.237727449
1.232819796
1.224411127
1.210943593
1.201476857
1.197407348
1.190326303
1.179217665
1.171774518
1.161215405
1.498717394
1.486331533
1.46377915
1.444565066
1.436208678
1.425035714
1.404715902
1.385992154
1.378495682
1.370461254
1.354887248
1.336442887
1.328400861
1.321976669
1.309068681
1.292646095
1.282657103
1.275758209
1.266928258
1.255120334
1.241682041
1.232932455
1.228169446
1.220838845
1.207428265
1.196399346
1.192552017
1.18672979
1.175125874
1.166018102
1.16098496
1.150022746
1.484204609
1.464130134
1.441353144
1.431258306
1.422044956
1.40397978
1.38290905
1.373886777
1.366878763
1.352980236
1.333314113
1.323295696
1.317593989
1.306599376
1.289154348
1.278292223
1.271635205
1.262500103
1.250472408
1.237712323
1.228070955
1.222600542
1.216424624
1.204522024
1.191532904
1.187109966
1.18282553
1.17237885
1.160909223
1.155367991
1.150115519
1.138403357
1.463040496
1.439605464
1.426529938
1.418391663
1.40351205
1.380927616
1.368591502
1.362178689
1.350512793
1.330901603
1.318134128
1.313145384
1.304015275
1.286529616
1.273000983
1.266952994
1.258198826
1.245882466
1.234326
1.224726173
1.217836974
1.211686647
1.201755604
1.187648438
1.181381461
1.177623184
1.169113719
1.155584749
1.148963716
1.14458348
1.138187219
1.12638725
1.438880818
1.423060631
1.414091179
1.401345928
1.379890386
1.363432804
1.356890324
1.347625325
1.329450249
1.313468055
1.307740507
1.300419375
1.283994978
1.267098325
1.261313087
1.254291469
1.241749602
1.230077792
1.22118773
1.213385617
1.20635526
1.19769377
1.184476605
1.175641376
1.171840969
1.16514159
1.152742721
1.143647864
1.13978666
1.133575171
1.125386224
1.114670019
1.420052434
1.409830393
1.397713925
1.378597234
1.359998438
1.351962901
1.344045121
1.328424909
1.309241042
1.301450627
1.295400164
1.281897446
1.262525164
1.255177052
1.250100693
1.238698565
1.225264646
1.216759141
1.209459132
1.201850709
1.192994225
1.18084362
1.170419269
1.166172784
1.160308598
1.149450933
1.139100749
1.134447711
1.129075383
1.119834814
1.113287021
1.104411179
1.405802453
1.394418255
1.376637402
1.357819158
1.347804994
1.339799631
1.325929054
1.305874335
1.294931918
1.28958949
1.279004681
1.260120677
1.24905131
1.244444118
1.23520468
1.220419803
1.211160001
1.20437773
1.196786547
1.188169021
1.176769909
1.165665003
1.160767369
1.155969086
1.145951944
1.134501855
1.129328836
1.125004612
1.116546587
1.107880906
1.103056055
1.093384109
1.39184396
1.37516548
1.354961244
1.343214568
1.3351267
1.32238013
1.302973651
1.289612294
1.284205345
1.275716313
1.258574303
1.24387833
1.23871476
1.231252905
1.216853034
1.205539626
1.1990043
1.191497018
1.182947525
1.172548084
1.161133903
1.154865801
1.150696927
1.14218351
1.129551084
1.123486519
1.120238176
1.113032912
1.102505225
1.096365955
1.091827818
1.081728719
1.373656557
1.351407012
1.337231737
1.330052434
1.3191225
1.300673181
1.285209683
1.278883416
1.271273237
1.255927484
1.238838736
1.232387882
1.226229775
1.213530033
1.20000155
1.193715899
1.186674445
1.177378865
1.168305024
1.157652955
1.149224304
1.14461236
1.138432324
1.126416221
1.117114033
1.113782162
1.108381139
1.096930468
1.089942556
1.086691368
1.082047165
1.071450517
1.349821469
1.331130342
1.324416992
1.316032079
1.298848582
1.280201454
1.272368236
1.265810429
1.252607195
1.234519709
1.226389293
1.221441726
1.210883105
1.195829666
1.188771481
1.182851031
1.172448466
1.162044681
1.153217615
1.144054383
1.137530358
1.132192116
1.1231677
1.111493222
1.106925451
1.102970113
1.094134711
1.084537207
1.081378618
1.077286039
1.07040511
1.058584006
1.327904738
1.317788954
1.310839065
1.296453129
1.274901704
1.264770967
1.259587934
1.249127706
1.231321729
1.220313106
1.215587445
1.207138881
1.191743425
1.181947481
1.177358579
1.168548139
1.155664082
1.147544134
1.140346311
1.131991326
1.125647053
1.118620801
1.108668682
1.102096424
1.098467588
1.091661152
1.08036433
1.074748154
1.070800686
1.06334473
1.055589616
1.045474633
1.311374419
1.303962797
1.292619986
1.271899457
1.257629892
1.253324521
1.245783543
1.229492901
1.214645055
1.209342904
1.202566254
1.18791147
1.174126813
1.169841199
1.163759172
1.150942264
1.141344013
1.135859619
1.128338609
1.120349255
1.113379613
1.105270497
1.097607168
1.092753182
1.086269996
1.075026519
1.067602906
1.064000527
1.057581505
1.048627688
1.042494656
1.032595221
1.297266385
1.288024221
1.270916429
1.252828085
1.246465167
1.240276897
1.226412063
1.208464191
1.201281801
1.196057975
1.184474333
1.167999101
1.162452456
1.158316752
1.148597434
1.136498008
1.130321448
1.12431972
1.115980378
1.108197868
1.099575579
1.091193642
1.085419458
1.079402571
1.069928455
1.061968219
1.059508713
1.054896725
1.044946663
1.036705862
1.029946777
1.022777615
1.283583263
1.268626324
1.248993226
1.239151335
1.233635566
1.222818788
1.20434758
1.194040469
1.189890318
1.18141131
1.165371873
1.155916198
1.15202122
1.144041928
1.131066238
1.1230196
1.11726991
1.109488394
1.101799172
1.09311602
1.084170471
1.078732852
1.074571779
1.067322692
1.057896416
1.053919623
1.049813952
1.040563088
1.02873533
1.020849543
1.014255746
1.015872785
1.264378701
1.244771233
1.232007573
1.226243178
1.217841583
1.201969434
1.187754746
1.182828664
1.176676435
1.162945739
1.149269226
1.145058913
1.138659406
1.126059323
1.116027731
1.1104384
1.102922693
1.095512079
1.089091627
1.081334817
1.074220125
1.069690717
1.064131762
1.053537883
1.046092819
1.041461562
1.034605995
1.021246443
1.015400336
1.013702176
1.011834115
1.024811064
1.24028026
1.226638833
1.220523903
1.21327398
1.200167103
1.184122069
1.176126015
1.170233288
1.15833004
1.141787173
1.136243765
1.132106169
1.121730059
1.110004459
1.105330767
1.099131537
1.090317607
1.084326568
1.077984665
1.069224084
1.061783882
1.056467594
1.04794627
1.036962424
1.031170912
1.025663765
1.015042562
1.00696331
1.008138035
1.010486279
1.016799814
1.085587249
1.221210841
1.214171003
1.206881703
1.194948914
1.17918781
1.168590158
1.162563725
1.153400235
1.137337375
1.128575445
1.125793372
1.118763905
1.106173808
1.099752951
1.095118242
1.0854504
1.076321862
1.070167333
1.062675193
1.052836884
1.048200394
1.043326646
1.033440345
1.025829506
1.019763774
1.013099175
1.006730493
1.005520069
1.008233435
1.025959705
1.074758438
1.211072332
1.206830318
1.200334
1.188900128
1.173207991
1.16225899
1.156116004
1.148249217
1.134781561
1.122934005
1.118833429
1.113179567
1.100919071
1.090955474
1.087187267
1.079445244
1.067336874
1.06109591
1.056956266
1.049029424
1.041590523
1.037140146
1.029640267
1.019934803
1.011613649
1.005003916
1.002236337
1.003292058
1.011116382
1.04804901
1.122500626
1.208329316
1.318881861
1.192233346
1.183391906
1.167611412
1.155533548
1.150418841
1.14404733
1.132026878
1.11790343
1.111583635
1.106231126
1.09535918
1.081645018
1.077608541
1.072990729
1.063568872
1.055845681
1.052174167
1.046792399
1.03685183
1.029773672
1.0223719
1.013943268
1.005539904
1.001861951
0.9995672509
1.001524014
1.021138512
1.072746342
1.175257643
1.280011585
1.344428682
1.379244289
1.179185711
1.166344219
1.149736408
1.1421091
1.136586028
1.125673356
1.110250445
1.102733705
1.098378839
1.089968961
1.076656795
1.07157481
1.068342755
1.060748305
1.051271034
1.044914435
1.039820154
1.030139358
1.02002513
1.011279185
1.003185561
0.9962566322
0.9958885794
0.9974008985
1.007020116
1.041325177
1.125840488
1.2258658
1.297774302
1.341032024
1.372727187
1.385234327
1.162437912
1.145500837
1.132680911
1.127522062
1.119681614
1.103881519
1.094376316
1.092405519
1.086989828
1.07480493
1.065685759
1.062295382
1.055250068
1.044746036
1.035225379
1.030315496
1.022177456
1.013655821
1.00435968
0.9987198879
0.9962348027
0.9936238079
0.9956605154
1.015556311
1.077208976
1.170763646
1.266628168
1.351970144
1.378280806
1.376334843
1.380285279
1.382594568
1.141796863
1.123621569
1.117310165
1.113673091
1.103301074
1.088060295
1.083474329
1.080579313
1.071551799
1.058181692
1.052529891
1.046569603
1.036497762
1.028091373
1.022979575
1.016177737
1.006111844
0.998592014
0.9902003756
0.9907408785
0.9925321623
1.002633105
1.036867958
1.121640566
1.235723844
1.332608189
1.355585085
1.378980204
1.3908347
1.389947307
1.389796805
1.38843238
1.123825198
1.109733415
1.105407633
1.100336854
1.086151117
1.07344959
1.069373187
1.0635818
1.049316918
1.04240446
1.039922886
1.033576366
1.023823635
1.016308097
1.010928819
0.999941963
0.993427779
0.989450086
0.9875471286
0.9905177526
1.010125326
1.077628648
1.169657103
1.268283884
1.31945096
1.363716706
1.369009127
1.37649412
1.385206079
1.389100001
1.391055452
1.392078971
1.105664351
1.093923746
1.089198864
1.081148567
1.064548946
1.057817569
1.055550104
1.047991019
1.036381149
1.03239745
1.028650651
1.019609721
1.007490098
1.000241013
0.9908940386
0.9826269305
0.9840101518
0.9859770397
0.9968172154
1.042113912
1.123782526
1.231113256
1.327174942
1.370744221
1.37331865
1.381810712
1.384397834
1.385443818
1.387623872
1.389106184
1.390299429
1.391961439
1.085457144
1.077035717
1.072934282
1.064284767
1.05140461
1.047264025
1.04441072
1.034548496
1.024137122
1.018084808
1.01064067
0.9972816426
0.9903253316
0.9863877792
0.9808551589
0.9805456011
0.9841703892
1.007859368
1.080163619
1.182589542
1.290224355
1.321188077
1.357620551
1.384942494
1.385871373
1.388838485
1.391866604
1.392428672
1.391988277
1.391263391
1.390613405
1.390437659
1.070643352
1.063636591
1.059232438
1.05030078
1.039295094
1.034338351
1.027662841
1.015552398
1.005882496
1.000219463
0.9910212767
0.9818662736
0.9778206122
0.9776196608
0.978686725
0.989532258
1.038861965
1.122832282
1.235674954
1.319962165
1.377506181
1.380107189
1.381383079
1.385248753
1.386363596
1.388942362
1.391642357
1.392002972
1.391934218
1.391530841
1.391104131
1.390044603
1.057038583
1.048801782
1.042766071
1.031196993
1.022347259
1.017486888
1.010377079
0.9998732617
0.9928840608
0.9862257577
0.9759013206
0.973946058
0.9742280457
0.9780730373
1.006800577
1.073648257
1.191331973
1.300129633
1.359561729
1.369939199
1.386668631
1.390203859
1.389486066
1.389322935
1.388804574
1.388181409
1.388580208
1.389073487
1.390019656
1.391007166
1.39096501
1.390357387
1.037062393
1.031749261
1.026489063
1.016653126
1.009753461
1.003945774
0.9962477778
0.9838862137
0.9764147398
0.969515402
0.9689048106
0.9712289359
0.9860125025
1.038767373
1.133414555
1.251603151
1.301859037
1.349216148
1.374067194
1.3717291
1.377605173
1.384788729
1.389288965
1.390358041
1.390257295
1.389135069
1.387915044
1.387953162
1.388636213
1.389834842
1.390630288
1.390619216
1.02314832
1.0189422
1.013565568
1.004266283
0.9941170999
0.9866397269
0.9746401768
0.9672875997
0.9673131249
0.9674515053
0.9717970451
1.006513801
1.081491145
1.196080093
1.299945032
1.367629626
1.372840755
1.378515451
1.382604398
1.380297332
1.381871095
1.385920579
1.388260053
1.389586819
1.390152995
1.38984155
1.388958035
1.388806291
1.389103783
1.389704211
1.390081221
1.39031615
1.009643505
1.003171871
0.9953006159
0.9816870358
0.9737076246
0.9693746681
0.9632624144
0.9633158146
0.966048746
0.9841963917
1.035598082
1.150427009
1.262512214
1.326027614
1.347281378
1.378898136
1.386054807
1.387200956
1.388934837
1.390678793
1.390425101
1.389832513
1.389018209
1.388705832
1.389084347
1.389398646
1.389418329
1.389575286
1.389757844
1.389771217
1.389748591
1.389700348
0.9897902833
0.984557723
0.9764922557
0.9659106863
0.9640180276
0.9621221239
0.9609386301
0.9673441192
1.005964693
1.092528829
1.204091635
1.278400222
1.346437677
1.378131851
1.371644744
1.377184792
1.383795528
1.387404967
1.389740204
1.39150549
1.391843136
1.391301911
1.389984095
1.388924829
1.388238354
1.388538974
1.388984521
1.389349188
1.389725171
1.389726795
1.389570139
1.389318731
0.9760542087
0.9708161007
0.9603875465
0.9547293694
0.9560416638
0.9587148112
0.9801245452
1.038676462
1.152634287
1.274154269
1.355448554
1.367549097
1.380811383
1.390749248
1.390463204
1.386303812
1.386760813
1.38693458
1.387633111
1.388741096
1.389873894
1.390253013
1.389699848
1.388971045
1.388271286
1.38788629
1.387985375
1.388260448
1.388788914
1.389260872
1.389315736
1.38922189
0.9602981512
0.9540214666
0.9503727269
0.9514498662
0.9629939498
1.00396428
1.100245804
1.213049088
1.299981826
1.334552988
1.37766486
1.382923236
1.387034013
1.391046581
)
;

boundaryField
{
    inlet
    {
        type            calculated;
        value           nonuniform 0();
    }
    outlet
    {
        type            calculated;
        value           nonuniform List<scalar> 
69
(
1.917007081
1.916572771
1.917170446
1.928241918
1.915678682
1.911366397
1.906663633
1.902298865
1.899362851
1.897118665
1.891802389
1.886431611
1.877161613
1.876821579
1.864834951
1.843495725
1.818992706
1.74854353
1.642082026
1.524558569
1.437456292
1.384237973
1.35227378
1.332066249
1.317597367
1.305544019
1.293293938
1.280993315
1.269905415
1.257431577
1.244152146
1.231491836
1.220751826
1.209626565
1.197810111
1.185067616
1.17198546
1.161206572
1.150021482
1.138407475
1.126392132
1.114665694
1.104401314
1.093386538
1.081732654
1.071459161
1.058598113
1.045466584
1.032579001
1.022775159
1.015873396
1.024814645
1.085594816
1.211073465
1.318797017
1.379241753
1.385272228
1.382614237
1.388428026
1.392076355
1.391965015
1.39044885
1.390052695
1.390359359
1.39061912
1.390317135
1.389702726
1.389319422
1.389220842
)
;
    }
    bottom
    {
        type            calculated;
        value           nonuniform List<scalar> 
32
(
1.40000504
1.40000504
1.400005055
1.400005452
1.40001457
1.400134242
1.401450289
1.409876946
1.447850703
1.550183069
1.754990519
1.963679748
2.136940701
2.281062917
2.331335035
2.326797213
2.319871124
2.304906362
2.285057445
2.261217371
2.235340587
2.210222958
2.184695539
2.157993481
2.130801935
2.10324057
2.074535099
2.045149524
2.015952241
1.986618209
1.960740081
1.917008218
)
;
    }
    top
    {
        type            calculated;
        value           nonuniform 0();
    }
    obstacle
    {
        type            calculated;
        value           nonuniform 0();
    }
    defaultFaces
    {
        type            empty;
    }
    procBoundary5to4
    {
        type            processor;
        value           nonuniform List<scalar> 
69
(
1.40000504
1.40000504
1.400005041
1.400005054
1.400005472
1.400014413
1.400146983
1.401423855
1.409838563
1.443460754
1.530034139
1.648967607
1.735527212
1.777221861
1.807460082
1.813618785
1.812317867
1.815042115
1.816409706
1.814715435
1.809346215
1.800674863
1.789566995
1.776380803
1.762141895
1.74822857
1.733666508
1.716665905
1.697785374
1.680587882
1.664520614
1.646390113
1.625776278
1.60666598
1.591520606
1.575132362
1.554069077
1.529389371
1.508727007
1.49530491
1.48063067
1.46076209
1.43719053
1.415829987
1.400909611
1.387409938
1.370323431
1.349363639
1.326637764
1.306141174
1.292432664
1.278413348
1.259102506
1.237303545
1.216250505
1.197296686
1.184149945
1.169786649
1.153116756
1.136412972
1.120101108
1.10187879
1.084184602
1.06983432
1.0503215
1.033376579
1.019380601
0.9990994414
0.9826447501
)
;
    }
    procBoundary5to10
    {
        type            processor;