/*--------------------------------*- C++ -*----------------------------------*\
  =========                 |
  \\      /  F ield         | OpenFOAM: The Open Source CFD Toolbox
   \\    /   O peration     | Website:  https://openfoam.org
    \\  /    A nd           | Version:  7
     \\/     M anipulation  |
\*---------------------------------------------------------------------------*/
FoamFile
{
    version     2.0;
    format      ascii;
    class       volScalarField;
    location    "1.4";
    object      p;
}
// * * * * * * * * * * * * * * * * * * * * * * * * * * * * * * * * * * * * * //

dimensions      [1 -1 -2 0 0 0 0];

internalField   nonuniform List<scalar> 
558
(
1.417307653
1.446517878
1.445270674
1.445815711
1.440186946
1.42094194
1.385378324
1.339384872
1
1
1.000000004
1.000000347
1.000011205
1.000285071
1.002582917
1.021506882
1.075270963
1.200526712
1.349119935
1.407938376
1.428361834
1.445912332
1.445446625
1.438698919
1.418164634
1.382685559
1
1
1
1.000000007
1.000000459
1.000016496
1.000256437
1.00334568
1.01841095
1.084528145
1.200622146
1.316043327
1.418066621
1.443015369
1.44111275
1.442138251
1.436100572
1.415684094
1
1
1
1
1.000000014
1.000000642
1.000017085
1.000334419
1.002922408
1.022121457
1.076838011
1.202813184
1.349744894
1.401299291
1.423565677
1.441932898
1.442269599
1.43484259
1
1
1
1
1
1.000000018
1.000000833
1.000021825
1.000318379
1.003574052
1.019677785
1.085827325
1.201651322
1.318262859
1.415325003
1.438440967
1.436921118
1.439136716
1
1
1
1
1
1
1.00000003
1.000000986
1.000023562
1.000378216
1.003272342
1.022659843
1.078496719
1.204577018
1.344153768
1.394631296
1.421016396
1.439752364
1
1
1
1
1
1
1.000000001
1.000000031
1.000001227
1.000026297
1.000372926
1.003704685
1.020732901
1.085394549
1.200039078
1.31839166
1.412932196
1.43491143
1
1
1
1
1
1
1
1.000000001
1.000000045
1.000001243
1.000029191
1.000401612
1.00358465
1.022597574
1.079580459
1.205824827
1.337246825
1.391137841
1
1
1
1
1
1
1
1
1.000000001
1.000000042
1.000001564
1.000029636
1.00042055
1.003810085
1.021658478
1.085403768
1.199427897
1.31879905
1
1
1
1
1
1
1
1
1
1.000000001
1.000000059
1.00000144
1.000034257
1.000417048
1.003918326
1.022339796
1.0818903
1.205524282
1
1
1
1
1
1
1
1
1
1
1.000000001
1.000000049
1.000001798
1.00003143
1.000457208
1.003850809
1.02238332
1.085632499
1
1
1
1
1
1
1
1
1
1
1
1.000000001
1.000000065
1.000001523
1.000037192
1.000419616
1.00415816
1.021948272
1
1
1
1
1
1
1
1
1
1
1
1
1.000000002
1.000000052
1.000001939
1.000032034
1.000484008
1.003826435
1
1
1
1
1
1
1
1
1
1
1
1
1
1.000000001
1.000000071
1.00000161
1.000039263
1.000422356
1
1
1
1
1
1
1
1
1
1
1
1
1
1
1.000000002
1.000000058
1.000002097
1.000032875
1
1
1
1
1
1
1
1
1
1
1
1
1
1
1
1.000000001
1.000000078
1.000001751
1
1
1
1
1
1
1
1
1
1
1
1
1
1
1
1
1.000000002
1.000000065
1
1
1
1
1
1
1
1
1
1
1
1
1
1
1
1
1
1.000000002
1
1
1
1
1
1
1
1
1
1
1
1
1
1
1
1
1
1
1
1
1
1
1
1
1
1
1
1
1
1
1
1
1
1
1
1
1
1
1
1
1
1
1
1
1
1
1
1
1
1
1
1
1
1
1
1
1
1
1
1
1
1
1
1
1
1
1
1
1
1
1
1
1
1
1
1
1
1
1
1
1
1
1
1
1
1
1
1
1
1
1
1
1
1
1
1
1
1
1
1
1
1
1
1
1
1
1
1
1
1
1
1
1
1
1
1
1
1
1
1
1
1
1
1
1
1
1
1
1
1
1
1
1
1
1
1
1
1
1
1
1
1
1
1
1
1
1
1
1
1
1
1
1
1
1
1
1
1
1
1
1
1
1
1
1
1
1
1
1
1
1
1
1
1
1
1
1
1
1
1
1
1
1
1
1
1
1
1
1
1
1
1
1
1
1
1
1
1
1
1
1
1
1
1
1
1
1
1
1
1
1
1
1
1
1
1
1
1
1
1
1
1
1
1
1
1
1
1
1
1
1
1
1
1
1
1
1
1
1
1
1
1
1
1
)
;

boundaryField
{
    inlet
    {
        type            fixedValue;
        value           nonuniform 0();
    }
    outlet
    {
        type            zeroGradient;
    }
    bottom
    {
        type            slip;
    }
    top
    {
        type            slip;
    }
    obstacle
    {
        type            zeroGradient;
    }
    defaultFaces
    {
        type            empty;
    }
    procBoundary33to26
    {
        type            processor;
        value           nonuniform List<scalar> 
13
(
1
1
1
1
1
1
1
1
1
1
1
1
1
)
;
    }
    procBoundary33to27
    {
        type            processor;
        value           nonuniform List<scalar> 
19
(
1.431643961
1.446798115
1.448393617
1.442039224
1.422565223
1.387975496
1.340569516
1.289681532
1
1.000000001
1.000000154
1.000010467
1.000189056
1.003046522
1.017218299
1.083485955
1.202036297
1.316245295
1.316245295
)
;
    }
    procBoundary33to32
    {
        type            processor;
        value           nonuniform List<scalar> 
17
(
1
1
1
1
1
1
1
1
1
1
1
1
1
1
1
1
1
)
;
    }
    procBoundary33to34
    {
        type            processor;
        value           nonuniform List<scalar> 
32
(
1.287761995
1.33728625
1.379791112
1.412752607
1.43245494
1.44027488
1.435220128
1.422259831
1.413359494
1.331547334
1.197429329
1.084390191
1.023125541
1.004342659
1.000513454
1.000041607
1.000002278
1.000000083
1.000000002
1
1
1
1
1
1
1
1
1
1
1
1
1
)
;
    }
}


// ************************************************************************* //
