/*--------------------------------*- C++ -*----------------------------------*\
  =========                 |
  \\      /  F ield         | OpenFOAM: The Open Source CFD Toolbox
   \\    /   O peration     | Website:  https://openfoam.org
    \\  /    A nd           | Version:  7
     \\/     M anipulation  |
\*---------------------------------------------------------------------------*/
FoamFile
{
    version     2.0;
    format      ascii;
    class       volScalarField;
    location    "0.1";
    object      T;
}
// * * * * * * * * * * * * * * * * * * * * * * * * * * * * * * * * * * * * * //

dimensions      [0 0 0 1 0 0 0];

internalField   nonuniform List<scalar> 
2222
(
1
1
1
1
1
1
1
1
1
1
1
1
1
1
1
1
1
1
1
1
1
1
1
1
1
1
1
1
1
1
1
1
1
1
1
1
1
1
1
1
1
1
1
1
1
1
1
1
1
1
1
1
1
1
1
1
1
1
1
1
1
1
1
1
1
1
1
1
1
1
1
1
1
1
1
1
1
1
1
1
1
1
1
1
1
1
1
1
1
1
1
1
1
1
1
1
1
1
1
1
1
1
1
1
1
1
1
1
1
1
1
1
1
1
1
1
1
1
1
1
1
1
1
1
1
1
1
1
1
1
1
1
1
1
1
1
1
1
1
1
1
1
1
1
1
1
1
1
1
1
1
1
1
1
1
1
1
1
1
1
1
1
1
1
1
1
1
1
1
1
1
1
1
1
1
1
1
1
1
1
1
1
1
1
1
1
1
1
1
1
1
1
1
1
1
1
1
1
1
1
1
1
1
1
1
1
1
1
1
1
1
1
1
1
1
1
1
1
1
1
1
1
1
1
1
1
1
1
1
1
1
1
1
1
1
1
1
1
1
1
1
1
1
1
1
1
1
1
1
1
1
1
1
1
1
1
1
1
1
1
1
1
1
1
1
1
1
1
1
1
1
1
1
1
1
1
1
1
1
1
1
1
1
1
1
1
1
1
1
1
1
1
1
1
1
1
1
1
1
1
1
1
1
1
1
1
1
1
1
1
1
1
1
1
1
1
1
1
1
1
1
1
1
1
1
1
1
1
1
1
1
1
1
1
1
1
1
1
1
1
1
1
1
1
1
1
1
1
1
1
1
1
1
1
1
1
1
1
1
1
1
1
1
1
1
1
1
1
1
1
1
1
1
1
1
1
1
1
1
1
1
1
1
1
1
1
1
1
1
1
1
1
1
1
1
1
1
1
1
1
1
1
1
1
1
1
1
1
1
1
1
1
1
1
1
1
1
1
1
1
1
1
1
1
1
1
1
1
1
1
1
1
1
1
1
1
1
1
1
1
1
1
1
1
1
1
1
1
1
1
1
1
1
1
1
1
1
1
1
1
1
1
1
1
1
1
1
1
1
1
1
1
1
1
1
1
1
1
1
1
1
1
1
0.9999999992
0.9999999941
0.9999999772
0.9999999397
1
1
1
1
1
1
1
1
1
1
1
1
1
1
1
1
1
1
1
1
1
1
1
1
1
1
1
1
1
1
1
1
1
1
1
1
1
1
1
1
1
1
1
1
0.9999999946
0.9999999784
0.9999999499
0.9997818986
1.00608291
1.036441304
1.112035346
1.224836154
1.351969697
1.478568296
1
1
1
1
1
1
1
1
1
1
1
1
1
1
1
1
1
1
1
1
1
1
1
1
1
1
1
1
1
1
1
1
1
1
1
1
1
1
1.000000001
0.9999999964
0.9999999861
0.9999999601
0.9998547604
1.003399514
1.029596755
1.102402551
1.224248332
1.366506807
1.497686902
1.607477401
1.701393646
1.778834679
1.833869887
1.878733138
1.909566064
1.92622768
1.942979751
1
1
1
1
1
1
1
1
1
1
1
1
1
1
1
1
1
1
1
1
1
1
1
1
1
1
1
1
1
1
1
1
1
1
1
0.9999999945
0.9999999732
0.9999999423
0.9997876533
1.015166578
1.072346155
1.182723026
1.323071996
1.465039413
1.586138481
1.685278585
1.763632865
1.835070543
1.878374889
1.905687777
1.915835703
1.921495281
1.930446617
1.944665108
1.957671591
1.964651341
1.97011058
1.973666535
1.977325872
1
1
1
1
1
1
1
1
1
1
1
1
1
1
1
1
1
1
1
1
1
1
1
1
1
1
1
1
1
1
0.9999999985
0.9999999894
0.9999999634
0.9998673128
1.002757657
1.033264068
1.116283787
1.248169589
1.390626533
1.537256669
1.655797611
1.740416828
1.805614292
1.856287175
1.884599969
1.903236929
1.908382127
1.912877736
1.918504878
1.930725346
1.946135977
1.955355766
1.958847658
1.957879297
1.959988665
1.963637875
1.968357542
1.972476327
1.977177245
1.980897505
1.983676538
1
1
1
1
1
1
1
1
1
1
1
1
1
1
1
1
1
1
1
1
1
1
1
1
1
1.000000001
0.9999999961
0.9999999816
0.9999999515
0.999710291
1.009908678
1.056875157
1.167802438
1.315573762
1.455608796
1.591443677
1.698823665
1.769430147
1.824423422
1.870058691
1.897990019
1.912496306
1.921231424
1.924588252
1.927742487
1.933566023
1.939250128
1.942315716
1.942238921
1.944145516
1.949893503
1.955989682
1.957827319
1.956116102
1.956325946
1.958268362
1.961425567
1.964856508
1.968262184
1.971741416
1.975436105
1.97889214
1.981637803
1.983924532
1
1
1
1
1
1
1
1
1
1
1
1
1
1
1
1
1
1
1
1
1
1
0.9999999934
0.9999999701
0.9999956344
1.000306071
1.023579933
1.088779181
1.215274462
1.371800439
1.514622446
1.624962554
1.730469087
1.790774371
1.840454426
1.885031765
1.904450197
1.912556211
1.911369015
1.901451171
1.901669432
1.907919508
1.915279729
1.919471357
1.924530457
1.932458858
1.941098609
1.945011412
1.943280107
1.942499698
1.943183851
1.944913277
1.948416219
1.95192188
1.95648576
1.960559079
1.963152103
1.965065058
1.967333776
1.969778712
1.972473953
1.975107559
1.977350693
1.979211805
1.9811547
1.982508611
1
1
1
1
1
1
1
1
1
1
1
1
1
1
1
1
1
0.9999999997
0.9999999897
0.9999999637
0.9998542774
1.003067027
1.038957924
1.128971978
1.264848465
1.42824168
1.566127504
1.665850214
1.751701563
1.811219738
1.84540302
1.875725792
1.907122924
1.913604169
1.911481381
1.901465545
1.902729814
1.906551823
1.9135198
1.913819765
1.912858738
1.914842437
1.918862101
1.920072451
1.921387916
1.925266619
1.931150387
1.935814827
1.938260905
1.937967092
1.938881036
1.941973904
1.947088302
1.952882752
1.958922447
1.963313174
1.966104753
1.968157531
1.969658474
1.971500241
1.97364476
1.97554583
1.976931636
1.978556014
1.980072043
1.980825265
1.982298214
1
1
1
1
1
1
1
1
1
1
1
1
1
0.9999999988
0.9999999864
0.9999999598
0.9997454986
1.006480719
1.05667927
1.173659009
1.314196591
1.473614726
1.608001178
1.701427084
1.781968249
1.840618571
1.855504537
1.869398821
1.89042309
1.908910512
1.91113905
1.909569114
1.909496767
1.911253044
1.907289892
1.901952729
1.902485645
1.909101838
1.917534741
1.921973122
1.922614858
1.924115341
1.927237468
1.927133134
1.926362843
1.927227879
1.929537967
1.932366871
1.935472552
1.938150531
1.941247832
1.945442639
1.949832618
1.954336256
1.958690072
1.961734867
1.964545069
1.9669037
1.96865562
1.970301781
1.972012484
1.973631335
1.97505195
1.976498386
1.977801058
1.97944189
1.981461003
1
1
1
1
1
1
1
1
1.000000001
0.9999999972
0.9999999827
0.9999999563
0.9996877725
1.011225619
1.067680221
1.198151265
1.358991304
1.495945167
1.636635945
1.728143968
1.792939372
1.857751152
1.88903057
1.885532156
1.886997385
1.89267229
1.900526179
1.9089594
1.912386882
1.914613752
1.912533159
1.9064642
1.903386528
1.90469565
1.907125168
1.90981149
1.912496965
1.916113233
1.91880115
1.920679141
1.921533854
1.922562743
1.924714605
1.927906048
1.929579503
1.930627
1.93148138
1.933296847
1.935999232
1.939183724
1.943066384
1.946982269
1.949550318
1.95196587
1.954108252
1.956681118
1.959704181
1.962153925
1.964160441
1.965947978
1.96750838
1.968916746
1.970400948
1.971974345
1.973499326
1.975236414
1.978068504
1
1
1
1
1.000000002
0.9999999962
0.9999999815
0.9999999491
0.9996569476
1.017072652
1.081294469
1.214949246
1.389740331
1.531776888
1.646782347
1.747142088
1.801514185
1.84591408
1.893279046
1.902981668
1.901457303
1.89703945
1.895765061
1.895934103
1.902698779
1.908377561
1.910731802
1.91064941
1.910699385
1.909696398
1.905573745
1.903031221
1.903282536
1.906997796
1.912532065
1.91567582
1.915569082
1.915926501
1.915372858
1.91480585
1.915338593
1.916634804
1.919349553
1.923914316
1.927488841
1.929671016
1.931473731
1.933191214
1.934925447
1.937676546
1.940747757
1.943292151
1.94562599
1.948196585
1.951522794
1.954896656
1.957682665
1.959513454
1.960845062
1.962042849
1.963092538
1.96418625
1.965446879
1.966766406
1.968140893
1.969481084
1.972651649
1.000000001
0.9999999981
0.999999979
0.999999951
0.9996551512
1.01825525
1.097360559
1.227771559
1.407060489
1.562435713
1.668990979
1.764577649
1.82299618
1.848853942
1.875922474
1.902650457
1.906928122
1.907192903
1.904324592
1.902447654
1.89824567
1.898472678
1.900657782
1.905902218
1.909682237
1.91033277
1.909751878
1.906456834
1.903711501
1.903700996
1.904793224
1.906060139
1.908364946
1.911000271
1.913125197
1.913636632
1.912335768
1.911059114
1.911286001
1.912753967
1.915075021
1.916318794
1.917557724
1.919195138
1.92169214
1.925091299
1.92826347
1.930722091
1.931990581
1.933790386
1.936087673
1.939269949
1.943418972
1.947344344
1.950819122
1.953866369
1.956081599
1.957493443
1.958463215
1.959183015
1.959962452
1.961025336
1.962271355
1.963512881
1.964836357
1.966052553
1.968312114
0.9996886155
1.011457463
1.090122739
1.230968667
1.399253359
1.574199071
1.688329974
1.775817682
1.850746023
1.872527029
1.878666199
1.890190382
1.902053104
1.909110706
1.910690711
1.910409681
1.907642163
1.903072789
1.899522049
1.898414193
1.898797731
1.90294354
1.907362099
1.908827035
1.90876471
1.907582432
1.90406977
1.901704373
1.9016563
1.903469224
1.907039295
1.909438131
1.9097023
1.90937105
1.908180311
1.906853165
1.906875971
1.908405427
1.911069779
1.913534967
1.916452843
1.917430335
1.91771448
1.918614698
1.919996198
1.921827217
1.924473258
1.927236454
1.930132389
1.933038191
1.936125864
1.939723322
1.943558883
1.946729605
1.949544476
1.951822966
1.953422359
1.954470705
1.955333288
1.956267939
1.957360319
1.958641903
1.960135292
1.96168733
1.963436868
1.964772419
1.966847007
1.37892173
1.545683884
1.689965489
1.769587185
1.842368103
1.897063043
1.899824734
1.896683819
1.897092673
1.897427803
1.904180436
1.908675286
1.909226899
1.908749904
1.907004701
1.903465336
1.898622065
1.897285069
1.898126944
1.900719928
1.903806358
1.905400112
1.9059522
1.905180055
1.902644504
1.900581612
1.900264195
1.9008053
1.902541475
1.905291862
1.907066139
1.907415472
1.906179349
1.903687265
1.902879142
1.903758981
1.905843483
1.908373742
1.91054273
1.91250907
1.91486178
1.91630592
1.917106385
1.918039787
1.919282034
1.920940334
1.923598838
1.926817805
1.930279982
1.933933085
1.937523364
1.941028663
1.9443096
1.946808887
1.948407181
1.949755091
1.951121445
1.952334945
1.953542196
1.954853324
1.95624136
1.957763631
1.959467237
1.961230558
1.963234713
1.964665099
1.967083757
1.821843887
1.877549818
1.910961966
1.911634774
1.908888998
1.904035908
1.898521408
1.898474574
1.902021817
1.90525246
1.906623968
1.906416476
1.904996834
1.900488691
1.896617296
1.895436884
1.895606806
1.897256617
1.900393784
1.902178891
1.902309701
1.901480754
1.898908041
1.896483011
1.896215002
1.897279761
1.89922354
1.901318144
1.902482552
1.903142144
1.902990588
1.901582659
1.900354835
1.900375826
1.901678584
1.904249099
1.906730994
1.907860188
1.908802074
1.909930986
1.911506317
1.913825562
1.916272621
1.917816735
1.919270351
1.921273295
1.924028046
1.927567485
1.931783699
1.936253798
1.940366772
1.943781305
1.945941517
1.947256166
1.948237672
1.949487801
1.950941566
1.952328199
1.953745512
1.955300206
1.956976948
1.958686769
1.960595192
1.962456434
1.964529587
1.965984585
1.968517827
1.914993492
1.914124989
1.912528746
1.907079544
1.902396827
1.899978747
1.899417367
1.901629954
1.904052644
1.904521311
1.903451301
1.900975735
1.897013803
1.894284058
1.89339439
1.893948893
1.896117012
1.898101233
1.89864823
1.898288229
1.896500373
1.893521724
1.892348976
1.89253395
1.89399174
1.896514174
1.898358224
1.899074187
1.899030338
1.898103126
1.897079211
1.897153716
1.898489116
1.900475117
1.902790927
1.905111444
1.906782941
1.906913341
1.906851775
1.907255962
1.909004081
1.912109178
1.915270961
1.917909937
1.92029004
1.923360076
1.926962262
1.930941201
1.935843065
1.940964855
1.945270454
1.948461608
1.950380144
1.951698383
1.953128987
1.954317324
1.955393727
1.956526697
1.957830138
1.959369344
1.961104801
1.9628871
1.964751184
1.96649373
1.968374221
1.969814314
1.972213222
1.919716581
1.91527795
1.91017806
1.905649299
1.903269259
1.903303028
1.904310384
1.904653467
1.904542814
1.902506047
1.898973512
1.895602006
1.893731352
1.893559029
1.894686828
1.896250387
1.896659547
1.896280228
1.894939704
1.892742163
1.8911075
1.890689111
1.891113634
1.892840625
1.894827537
1.895891079
1.896211296
1.895662668
1.894392729
1.894101743
1.895038316
1.897263986
1.899815888
1.901982402
1.903903509
1.905422158
1.906324642
1.906835522
1.908101936
1.910616531
1.912435599
1.914746997
1.917712574
1.921025127
1.924796973
1.929468592
1.934410106
1.939498742
1.945079361
1.950442861
1.95465413
1.957553289
1.960044228
1.961953564
1.963147413
1.963940513
1.964536565
1.965165595
1.966080079
1.967486317
1.969275024
1.97119637
1.972993596
1.974651618
1.976290367
1.977827882
1.980099179
1.924353224
1.919164527
1.915114332
1.912379027
1.911700932
1.911771285
1.911555174
1.909888224
1.906129355
1.902223627
1.898779356
1.896438058
1.896060112
1.896754049
1.897899564
1.898088615
1.897076915
1.89505831
1.893059921
1.892035362
1.892064868
1.892891421
1.894173383
1.895083685
1.895657259
1.895643875
1.895080343
1.894504063
1.894613874
1.895515382
1.897442973
1.899953777
1.902454506
1.904303749
1.905603644
1.906790177
1.908312333
1.910613009
1.913964302
1.918323944
1.921078057
1.923566916
1.927011788
1.931145501
1.936339241
1.94246747
1.948662447
1.954607007
1.96018757
1.965009836
1.968925364
1.97200683
1.97390273
1.975051866
1.975704956
1.9760167
1.976165387
1.976490665
1.977423945
1.979084988
1.981055501
1.983148236
1.985099904
1.987002857
1.988737551
1.990462419
1.992197959
1.936335874
1.932219
1.930301324
1.929402287
1.928608524
1.92709408
1.923305366
1.918103229
1.913188263
1.909300952
1.906905615
1.906264845
1.906392177
1.906681164
1.905968599
1.903528996
1.90100203
1.898856858
1.897484553
1.897303909
1.897865326
1.898923995
1.899675309
1.899738212
1.899077009
1.898352719
1.897964525
1.898162284
1.899278001
1.901310102
1.903356041
1.90512452
1.906752677
1.908226137
1.909756481
1.91230338
1.915987919
1.920405501
1.925140752
1.930263143
1.934366949
1.938495143
1.942935306
1.947617827
1.95344741
1.960185277
1.967017182
1.973267585
1.978536347
1.982479553
1.985653448
1.987749667
1.98827997
1.988163037
1.987777789
1.987632457
1.987804437
1.988554405
1.989934152
1.99169297
1.993429869
1.99523781
1.996946469
1.998721014
2.000436968
2.002327271
2.004142553
1.961576479
1.958978643
1.957301527
1.955708072
1.953222345
1.948554357
1.942752185
1.937354615
1.932665424
1.929454309
1.928044794
1.927476913
1.926461417
1.923659701
1.91975232
1.91651983
1.914100918
1.912814595
1.912346979
1.912359686
1.912415341
1.912064563
1.910437493
1.908609765
1.907287373
1.906697329
1.907026551
1.90861608
1.910841512
1.912613655
1.913553714
1.91460131
1.915492593
1.916718477
1.91955613
1.924092174
1.929620335
1.934467757
1.939527207
1.944813027
1.949824802
1.954507743
1.959579885
1.965358101
1.971746198
1.97841239
1.984781296
1.990177319
1.994209456
1.997036082
1.998117188
1.997912835
1.997068588
1.996370111
1.996368547
1.997087879
1.998625284
2.000152736
2.001272542
2.002225744
2.002942108
2.003831253
2.004970034
2.00644501
2.008325725
2.009996106
2.012382254
1.998089075
1.995163863
1.991896024
1.987973937
1.982670367
1.976874907
1.971739401
1.967425909
1.964375898
1.962691899
1.961751829
1.960284377
1.955766334
1.949374105
1.944019019
1.940527327
1.939031335
1.938336557
1.937849002
1.936769855
1.934630005
1.931240092
1.927804455
1.924947706
1.923056959
1.92270625
1.923147874
1.924626062
1.926378334
1.926946908
1.927224818
1.927498048
1.928179608
1.930122139
1.933877472
1.939503741
1.944123613
1.947896005
1.95218949
1.956282676
1.960430151
1.965672212
1.972081035
1.979233835
1.985864618
1.99151839
1.996223342
1.999573981
2.001572055
2.002155116
2.001956086
2.001702454
2.001690467
2.002099353
2.003034493
2.00419352
2.005313874
2.006144323
2.006566651
2.007018823
2.007605119
2.008522701
2.009844674
2.011436734
2.013155501
2.014491056
2.016894516
2.031519176
2.02646523
2.020252397
2.013102476
2.005929841
2.00049193
1.997755855
1.996420037
1.995452803
1.994365096
1.99238785
1.988042072
1.981510189
1.974698649
1.968684406
1.965606999
1.965092672
1.964837022
1.963265647
1.959621306
1.954531502
1.949734115
1.946097617
1.944256807
1.943636863
1.943207726
1.942370461
1.941196893
1.939733812
1.938752282
1.938429239
1.938966052
1.941150955
1.943982721
1.94722812
1.950747687
1.953092258
1.955169295
1.958353673
1.962532208
1.967344446
1.973138302
1.979698828
1.986216884
1.991467752
1.995682848
1.999017522
2.001158433
2.002264472
2.00305117
2.003490588
2.003778079
2.00428329
2.005101601
2.005851689
2.006290364
2.006298142
2.006282676
2.006588848
2.007403173
2.008387857
2.009646934
2.01119457
2.012796722
2.014164783
2.015181256
2.017441038
2.046943659
2.040076487
2.033023922
2.026471969
2.021240495
2.017794357
2.016187824
2.015180499
2.013338836
2.0095685
2.004291546
1.999014988
1.993863246
1.989251016
1.986046446
1.984593235
1.983801907
1.981697302
1.976891892
1.971038637
1.965636302
1.961827324
1.959948898
1.959218484
1.958549684
1.956520982
1.95262584
1.949350741
1.946956866
1.945651336
1.945824762
1.947561731
1.950222897
1.952445045
1.953553308
1.953969278
1.954030009
1.955814281
1.9604671
1.966465669
1.971231727
1.976842434
1.98240509
1.987275098
1.991740497
1.99560225
1.998787527
2.000676732
2.001744351
2.002481011
2.002888064
2.003223595
2.003621301
2.003965062
2.003978243
2.003707284
2.003565465
2.003787142
2.004615556
2.005821288
2.007022951
2.008209571
2.009308503
2.01033694
2.01124591
2.012111713
2.015021223
2.041145055
2.035992141
2.031183407
2.026966743
2.02141643
2.016022127
2.011726216
2.007283673
2.00295501
1.999772013
1.997459126
1.996248772
1.995517977
1.994412092
1.991906873
1.985988769
1.978904168
1.972725375
1.968782398
1.967101697
1.966829463
1.966119367
1.963838495
1.959294217
1.954285228
1.950227713
1.948323104
1.948773675
1.950518779
1.952605312
1.95333884
1.952704005
1.95225917
1.952251454
1.953924343
1.957166687
1.961937165
1.966971303
1.971475748
1.976415359
1.980897508
1.985164598
1.989246352
1.992595539
1.994863579
1.996263862
1.997049293
1.99742711
1.997706177
1.997887096
1.997931255
1.997452104
1.99670643
1.996611407
1.997090365
1.998158672
1.999279074
2.000442821
2.001377235
2.002124207
2.002622981
2.003054979
2.003642784
2.004494104
2.00900073
2.024946471
2.020675951
2.016468769
2.012153501
2.007709869
2.003671387
2.000184616
1.997821897
1.995963778
1.994050762
1.991747834
1.988818074
1.984280126
1.979307632
1.975700503
1.973156185
1.970739442
1.968239161
1.965278553
1.962003479
1.957988691
1.953898866
1.950828945
1.949413273
1.948945373
1.948653453
1.948758231
1.947991342
1.946607431
1.946086026
1.946999083
1.950263188
1.953586644
1.956250235
1.959324607
1.962910431
1.966929761
1.971261752
1.975733238
1.979613887
1.982513826
1.984442241
1.985430537
1.985938645
1.986044122
1.985983315
1.985997639
1.985988693
1.985581435
1.985286225
1.985543267
1.986096467
1.986876067
1.987948644
1.98898043
1.989753255
1.990204819
1.990438766
1.990606488
1.99108223
1.992015336
1.992951677
1.998762803
1.99760538
1.99444664
1.991984322
1.990290475
1.989290226
1.988339012
1.986977464
1.984788485
1.98110094
1.976663962
1.972447979
1.969443375
1.967130155
1.965061794
1.962905194
1.960380002
1.957624815
1.954677823
1.951685351
1.949009872
1.947090426
1.945998279
1.945389166
1.944872064
1.943743837
1.942715917
1.942224401
1.942884785
1.946123617
1.949389069
1.951303226
1.953693621
1.956474929
1.959608741
1.963662469
1.96783719
1.971262187
1.972646562
1.973157766
1.973294155
1.973108642
1.972698758
1.972255379
1.971760846
1.971506095
1.971621956
1.97225272
1.973207334
1.974448817
1.975668992
1.976478678
1.976891477
1.977217953
1.977358335
1.977421109
1.977875927
1.978744483
1.980018529
1.981091733
1.986734918
1.976121431
1.975647282
1.975420219
1.975008476
1.973999773
1.972149329
1.969728531
1.967270431
1.96497574
1.962836478
1.960603831
1.958205395
1.955843146
1.953671705
1.951684175
1.949819039
1.948083108
1.946414171
1.94454157
1.942526793
1.94037459
1.938080315
1.936943516
1.937048322
1.938252199
1.940073173
1.942552737
1.94442775
1.945315251
1.946810105
1.949596483
1.953787748
1.958347801
1.962136749
1.964032095
1.96416327
1.964067041
1.963900784
1.963498204
1.963034086
1.962756315
1.962739731
1.962895241
1.963473657
1.964471456
1.965549563
1.966435524
1.967089815
1.967492583
1.967786198
1.967985992
1.968247773
1.96877294
1.969727966
1.97088986
1.972343294
1.973446741
1.977571083
1.971582802
1.971458764
1.970749042
1.969086562
1.966803046
1.964901889
1.963181182
1.961651024
1.960213639
1.958481117
1.956268818
1.953958177
1.952017764
1.950444401
1.949125896
1.947832447
1.946119095
1.943701601
1.940499418
1.937966748
1.936850149
1.937349246
1.939356112
1.941589124
1.94117395
1.940897946
1.941628632
1.944586658
1.949354996
1.953679858
1.957463215
1.960032041
1.960761096
1.960620361
1.960497858
1.960441929
1.960355999
1.96018319
1.960159345
1.960311203
1.960781266
1.961536785
1.96236783
1.9630745
1.963394208
1.963199281
1.962946505
1.962862988
1.963134903
1.964027506
1.965289568
1.966763478
1.968184397
1.969620182
1.970649589
1.973127647
)
;

boundaryField
{
    inlet
    {
        type            fixedValue;
        value           nonuniform 0();
    }
    outlet
    {
        type            inletOutlet;
        inletValue      nonuniform 0();
        value           nonuniform 0();
    }
    bottom
    {
        type            slip;
    }
    top
    {
        type            slip;
    }
    obstacle
    {
        type            zeroGradient;
    }
    defaultFaces
    {
        type            empty;
    }
    procBoundary14to7
    {
        type            processor;
        value           nonuniform List<scalar> 
17
(
1
1
1
1
1
1
1
1
1
1
1
1
1
1
1
1
1
)
;
    }
    procBoundary14to8
    {
        type            processor;
        value           nonuniform List<scalar> 
90
(
1
1
1
1
1
1
1
1
1
1
1
1
1
1
1
1
1
1
1
1
1
1
1
1
1
1
1
1
1
1
1
1
1
1
1
1
1
1
1
1
1
1
1
1
1
1
1
1
1
1
1
1
1
1
1
1
1
1
1
1
1
1
1
1
1
1
1
1
0.9998366002
0.9998366002
1.004123236
1.591846277
1.591846277
1.686789457
1.762507834
1.95073172
1.95073172
1.955963707
1.980041753
1.980041753
1.981797709
1.986099209
1.986099209
1.987635185
1.988669661
1.985942856
1.985942856
1.987346987
1.985405079
1.985405079
)
;
    }
    procBoundary14to9
    {
        type            processor;
        value           nonuniform List<scalar> 
21
(
1.982981112
1.980826241
1.976044764
1.970697264
1.967157943
1.965691046
1.965149708
1.965795811
1.969704156
1.975621016
1.981238626
1.983341096
1.978246198
1.966150864
1.945768922
1.917961713
1.882600365
1.841410136
1.798486483
1.769795936
1.803214265
)
;
    }
    procBoundary14to13
    {
        type            processor;
        value           nonuniform List<scalar> 
22
(
1
1
1
1
1
1
1
1
1
1
1
0.9999999544
1.207245143
1.771419788
1.914645447
1.922607284
1.929990434
1.941455347
1.965450463
2.001375965
2.035294608
2.052360267
)
;
    }
    procBoundary14to20
    {
        type            processor;
        value           nonuniform List<scalar> 
16
(
2.048895367
2.0455022
2.0455022
2.033498769
2.029321066
2.029321066
2.008552933
2.004711206
2.000975468
2.000975468
1.979986275
1.977511396
1.977511396
1.971025763
1.971386892
1.971386892
)
;
    }
}


// ************************************************************************* //
