/*--------------------------------*- C++ -*----------------------------------*\
  =========                 |
  \\      /  F ield         | OpenFOAM: The Open Source CFD Toolbox
   \\    /   O peration     | Website:  https://openfoam.org
    \\  /    A nd           | Version:  7
     \\/     M anipulation  |
\*---------------------------------------------------------------------------*/
FoamFile
{
    version     2.0;
    format      ascii;
    class       volScalarField;
    location    "3";
    object      T;
}
// * * * * * * * * * * * * * * * * * * * * * * * * * * * * * * * * * * * * * //

dimensions      [0 0 0 1 0 0 0];

internalField   nonuniform List<scalar> 
2222
(
1.007330546
1.006901074
1.006406985
1.006112418
1.005926251
1.00588876
1.005962681
1.006103865
1.006308588
1.00652771
1.006556124
1.006480034
1.006327766
1.006278472
1.006303472
1.006361666
1.006431082
1.006478531
0.8583534524
0.8586067978
0.8597794303
0.8694602933
0.8979942336
0.9357477028
0.969220173
0.9959957616
1.004407817
1.001976513
1.003666457
1.004588739
1.004745954
1.004977289
1.005961174
1.006524517
1.006620532
1.006613038
1.006529099
1.006408804
1.006413327
1.006459008
1.006523955
1.006692608
1.006836576
1.006804367
1.006723186
1.006717512
1.006718933
1.006696244
1.006679893
1.006683371
0.8583495802
0.8637955308
0.8813449385
0.920524888
0.9611455765
0.9892443889
0.9934082973
1.001025608
1.006884669
1.006962532
1.006557435
1.006227542
1.005725918
1.005274872
1.005596771
1.006238931
1.006663571
1.006897614
1.00695767
1.007013611
1.007038229
1.007016822
1.006930646
1.006968283
1.007056293
1.007046981
1.006983699
1.00698705
1.00698998
1.006970518
1.006905814
1.006864509
0.86939073
0.9015087122
0.9409752597
0.9717335799
0.9861536833
0.9998245317
1.002119929
1.003775323
1.005843719
1.007321947
1.00746457
1.007360089
1.007092665
1.006682578
1.006595414
1.006847355
1.006975437
1.007051884
1.007167923
1.007293732
1.007366262
1.007343538
1.007224089
1.007218981
1.007215816
1.007193033
1.007140951
1.007149801
1.00717095
1.007143247
1.007074998
1.007053912
0.9203945019
0.9624049548
0.9949746685
1.001519156
1.002198805
1.004892515
1.007372783
1.007224395
1.007143913
1.007223752
1.007375231
1.007569306
1.007608126
1.00767813
1.007666271
1.007635907
1.007432448
1.00713562
1.007133441
1.007198372
1.007320682
1.007334253
1.007343134
1.007353649
1.007350821
1.007336753
1.00728289
1.007239527
1.007250428
1.00723108
1.007228805
1.007262276
0.9788167922
0.9887191726
1.001622125
1.005931363
1.005505225
1.006531874
1.007923319
1.008156279
1.007978618
1.007499938
1.007307895
1.007360473
1.007438113
1.007588648
1.007661302
1.007659627
1.00757777
1.007337244
1.007240618
1.007269683
1.007327286
1.007359578
1.007406674
1.007490309
1.007507627
1.007495915
1.007452932
1.007397038
1.007399152
1.007402335
1.007417941
1.00745866
1.00571929
1.00409913
1.005084638
1.00586515
1.005499851
1.005794657
1.006504316
1.007388031
1.007675047
1.007612274
1.007521369
1.007367457
1.007187245
1.007215985
1.007314294
1.007394194
1.007460347
1.007456308
1.007435739
1.007478596
1.007533298
1.007547679
1.007573742
1.007617829
1.007621139
1.007619065
1.007595738
1.00754896
1.00754884
1.007569953
1.007596522
1.007594021
1.00776698
1.008422066
1.008079774
1.00733477
1.006431932
1.005868494
1.005862363
1.006474916
1.007215329
1.007482365
1.007542621
1.007492694
1.007360865
1.007251147
1.007259396
1.007329646
1.00743321
1.007518528
1.007564399
1.007617278
1.00770001
1.007711371
1.007708184
1.00769203
1.007670826
1.007675382
1.007667094
1.007637724
1.007639451
1.007673855
1.007705382
1.00767336
1.005681726
1.008134582
1.008155955
1.007861901
1.007297857
1.006508137
1.006319817
1.006627211
1.007172037
1.007432935
1.007591864
1.007640365
1.007612401
1.007516273
1.007448795
1.007508475
1.00751581
1.007526212
1.007550253
1.007586358
1.007652594
1.007711312
1.007702819
1.007690577
1.00768048
1.007685631
1.007697757
1.007692237
1.007688893
1.007714861
1.007755967
1.007721007
1.004318914
1.006660131
1.007502067
1.007541335
1.007464709
1.007333421
1.00726358
1.007270866
1.007359656
1.007444092
1.007532126
1.007617214
1.007707897
1.007685765
1.007619773
1.007600149
1.007552606
1.007492865
1.007485157
1.007492852
1.007558246
1.00765786
1.007676376
1.007676881
1.007686713
1.007706171
1.007739422
1.007751342
1.007745477
1.007751948
1.007774255
1.007750365
1.005943079
1.006568246
1.007126884
1.0072153
1.007247926
1.007257091
1.00729739
1.007334182
1.007394552
1.007442433
1.007453637
1.007498729
1.007630063
1.007727776
1.007702156
1.007633843
1.007560509
1.007470503
1.007429648
1.007444913
1.007514403
1.007609091
1.007657893
1.007673642
1.007692847
1.007726973
1.007772589
1.007799524
1.007797334
1.007792826
1.00778851
1.007757037
1.007398001
1.007361893
1.007391663
1.007275574
1.007074101
1.006940702
1.007012297
1.007150359
1.007237798
1.007372879
1.007488719
1.007560997
1.007588484
1.007608216
1.007578678
1.007517873
1.00749352
1.007462508
1.007445112
1.007463901
1.007527321
1.007614492
1.007656233
1.00767309
1.007699688
1.007739799
1.007802817
1.007845715
1.007834052
1.007814421
1.007798069
1.007753359
1.007433764
1.007508206
1.007419802
1.007334848
1.007098841
1.006899167
1.006914456
1.007020739
1.007192554
1.007363532
1.007512167
1.007605715
1.007666853
1.007682942
1.007652032
1.007606895
1.007580626
1.007510131
1.007501102
1.007507489
1.007526417
1.007596016
1.007653746
1.007679344
1.007705536
1.007744181
1.007810686
1.0078572
1.007843175
1.007814139
1.007785878
1.007730929
1.006723444
1.00691638
1.007171133
1.00730588
1.00727383
1.007176921
1.007179432
1.007217579
1.007306097
1.007420148
1.007544451
1.007638934
1.007709571
1.007769426
1.00776272
1.007738832
1.007691682
1.007598057
1.007558481
1.00754585
1.007547554
1.007588567
1.007669088
1.007708219
1.007728334
1.007756365
1.007810167
1.007843207
1.007826681
1.007776957
1.007735856
1.007683011
1.006579613
1.006712462
1.007033344
1.007346578
1.00748113
1.007578842
1.007585218
1.007560663
1.007505544
1.00750607
1.007562384
1.007634906
1.007693827
1.007789997
1.007849891
1.00784086
1.007790394
1.007694441
1.007619537
1.007583745
1.007581128
1.007608785
1.00768945
1.007757591
1.007774552
1.007793366
1.007822049
1.007827583
1.007797852
1.007742402
1.007692929
1.007652247
1.006996596
1.007085614
1.007341726
1.007541449
1.007623544
1.007709748
1.007715875
1.007674099
1.007567723
1.007520326
1.007550268
1.007633555
1.007700691
1.007816079
1.007919386
1.007917905
1.007876457
1.007775446
1.007672174
1.007641697
1.007642197
1.007671722
1.007728005
1.007783957
1.007809287
1.007827754
1.007828977
1.007824282
1.007798282
1.007745431
1.007687466
1.007656791
1.007618999
1.007640136
1.007715862
1.007763162
1.007751467
1.007756497
1.007760618
1.007702735
1.007581386
1.0075333
1.007581438
1.007697967
1.007770855
1.007890097
1.00798993
1.007985892
1.007944245
1.007848373
1.007752267
1.00773364
1.00773527
1.00776099
1.007798082
1.007834714
1.007855578
1.00785857
1.007853338
1.007831444
1.007791123
1.007744572
1.007697076
1.007683148
1.007798042
1.007802839
1.007840658
1.007873616
1.007847029
1.007807174
1.007789753
1.007729288
1.007641969
1.007622447
1.00768475
1.007792892
1.00787151
1.007969918
1.008044712
1.00804278
1.008014229
1.007937642
1.00786633
1.007824981
1.007825529
1.007836535
1.007863129
1.00789133
1.007906503
1.007904076
1.007893398
1.007861271
1.007805507
1.007756928
1.007725379
1.00772726
1.00778578
1.007816125
1.007857755
1.007905876
1.007928097
1.007924084
1.007916705
1.007857168
1.007759376
1.007729381
1.007759583
1.007827157
1.007907733
1.008009814
1.008092671
1.008097534
1.008081939
1.008020686
1.007955555
1.007897993
1.007885206
1.007886939
1.007901281
1.007923548
1.007945383
1.007940401
1.007926696
1.007894491
1.007844833
1.007789999
1.007773037
1.007781334
1.007785037
1.007806777
1.007873241
1.007943001
1.007983601
1.007999283
1.007978518
1.007917661
1.007821289
1.007756793
1.007766113
1.007807789
1.007893597
1.008008351
1.008100066
1.00811886
1.008111693
1.008071154
1.008004731
1.007937741
1.007914412
1.007912255
1.007922239
1.007939908
1.007967466
1.00796279
1.007949879
1.007924476
1.00788643
1.007832502
1.007829158
1.00784332
1.00791003
1.007926911
1.007965873
1.007984861
1.007996477
1.007996949
1.007984349
1.007936118
1.007850315
1.007779663
1.007774606
1.007798805
1.007875677
1.007985177
1.008078269
1.008119738
1.008119181
1.008093795
1.008029771
1.007953339
1.007924977
1.00792047
1.007929721
1.007948187
1.007986802
1.007983557
1.007973995
1.007954836
1.007922486
1.007880748
1.007884777
1.00790671
1.008024521
1.00801963
1.008007236
1.00797454
1.007976909
1.007983336
1.007973011
1.007937316
1.007878981
1.007822092
1.007806631
1.007822489
1.007885508
1.007980328
1.008071024
1.00811534
1.00811916
1.008107512
1.008058591
1.007980811
1.007944851
1.007928618
1.007935603
1.007950479
1.008001872
1.008002631
1.007998747
1.007987256
1.007966348
1.007936242
1.007942043
1.007967806
1.008080382
1.008053508
1.008005152
1.007959842
1.007950086
1.007961926
1.007986275
1.007975533
1.007939469
1.00790087
1.007874622
1.007879738
1.007921162
1.008002307
1.008088531
1.008139665
1.008149105
1.008142595
1.008105422
1.008028294
1.007983638
1.007947049
1.00794421
1.007947977
1.007996818
1.008021401
1.008022029
1.008027651
1.008022359
1.007997993
1.008006476
1.008037899
1.008125575
1.008057824
1.007997576
1.007969047
1.007974325
1.007999686
1.008042684
1.008044167
1.008031523
1.008013563
1.007961478
1.007955667
1.00798232
1.008050013
1.008130698
1.008202153
1.008232315
1.008226282
1.008194107
1.008123902
1.008047305
1.007990993
1.00797391
1.007975227
1.008008474
1.00806288
1.008069417
1.008088395
1.008102939
1.008086246
1.00809459
1.008129252
1.0082289
1.008152963
1.008077675
1.008060808
1.008069792
1.008102881
1.008154229
1.008193965
1.008197142
1.008178014
1.008119207
1.008097923
1.00811599
1.008167482
1.008234715
1.008311471
1.008342326
1.008338124
1.008308902
1.008242686
1.008161404
1.008106497
1.008084806
1.008087698
1.008114473
1.008172569
1.008189318
1.00820601
1.008231418
1.008233222
1.008235903
1.008263399
1.008404097
1.008374312
1.008317903
1.008297929
1.00830006
1.008324382
1.008364309
1.008403771
1.00841339
1.008405415
1.008361641
1.008335173
1.00834921
1.008389605
1.008443262
1.008506023
1.008519005
1.008509154
1.008473119
1.00841526
1.008360076
1.008340833
1.008338461
1.008344914
1.008371665
1.008416207
1.008430353
1.008434197
1.008450777
1.00846422
1.008460387
1.008484764
1.008745038
1.008756415
1.008717189
1.0086842
1.00869031
1.008713961
1.008745495
1.00877433
1.008785521
1.0087825
1.008734555
1.008694799
1.008702385
1.008730907
1.008770279
1.008807053
1.008822936
1.008816672
1.008784941
1.008726611
1.008705168
1.008712797
1.008741253
1.008757132
1.008778775
1.008813119
1.008814783
1.008803924
1.008808983
1.008827491
1.008828678
1.00884246
1.009185264
1.009234641
1.009224101
1.009218761
1.009227513
1.009243731
1.0092674
1.009275549
1.009293342
1.009310636
1.009299052
1.009286474
1.009292153
1.009309468
1.009323126
1.009336427
1.009358791
1.009360361
1.009345464
1.009304414
1.00928886
1.009284619
1.009294572
1.009296735
1.009292917
1.00931054
1.009320624
1.009315586
1.009311212
1.00931896
1.009338835
1.009356181
1.009886697
1.009954483
1.009962321
1.009952907
1.009935489
1.009924653
1.009925147
1.009923329
1.009929211
1.009949745
1.009960218
1.009972261
1.009991949
1.010002805
1.010001501
1.010003844
1.010028218
1.010046751
1.010040245
1.010021139
1.010005764
1.009982724
1.009967105
1.009947154
1.009912664
1.009913287
1.009926695
1.009937131
1.009939092
1.009940837
1.009955646
1.009971277
1.010676749
1.010760076
1.010789685
1.010781883
1.01074281
1.010695469
1.010658848
1.010629221
1.010628572
1.010635235
1.010652259
1.010674899
1.010713282
1.010721496
1.010717674
1.010715782
1.010731629
1.010751296
1.010748501
1.010731579
1.010708787
1.010676812
1.010645532
1.010604123
1.010561718
1.010561661
1.010579927
1.010603614
1.010621396
1.010630626
1.010642473
1.010648728
1.011332955
1.011434024
1.011464332
1.011434399
1.011338737
1.011219558
1.011105466
1.011011035
1.010980312
1.011001755
1.011055097
1.011128464
1.011210728
1.011299062
1.011346343
1.011350061
1.01133841
1.011318461
1.011271302
1.011214044
1.011176073
1.011156526
1.011130585
1.011133106
1.011144448
1.011159723
1.011147338
1.011136158
1.011132494
1.011140362
1.011159462
1.011183075
1.011342498
1.011668654
1.012118078
1.01247347
1.012486237
1.012360473
1.012096003
1.011664438
1.011102829
1.010751633
1.010717827
1.010812655
1.01099713
1.011330697
1.01170577
1.011988538
1.012031136
1.011991938
1.011843026
1.011627302
1.011341044
1.01111648
1.011058257
1.011100823
1.011250412
1.011309051
1.011372214
1.011462242
1.011500529
1.011484883
1.011398914
1.011378642
1.011124212
1.011209518
1.011376309
1.0119323
1.012465293
1.012529522
1.012464026
1.012350964
1.012050012
1.011506276
1.011046074
1.01093715
1.011058128
1.011205196
1.011408254
1.011690119
1.011989913
1.012075023
1.012051034
1.011983325
1.011837771
1.011510112
1.011200256
1.011190901
1.011219476
1.011186905
1.011239168
1.011419303
1.01161302
1.011663812
1.011618673
1.011542379
1.011224274
1.011208917
1.011191485
1.01136424
1.011920377
1.012535045
1.012630161
1.01255821
1.012381348
1.012182435
1.011854671
1.011431338
1.011218386
1.011338756
1.011425697
1.01153211
1.011732371
1.012013011
1.012173443
1.012196605
1.012152362
1.012011451
1.011659681
1.011344689
1.011295326
1.011275663
1.011326531
1.011422359
1.011600312
1.011775587
1.011789564
1.011743586
1.011357416
1.011309293
1.011313088
1.011321741
1.011430903
1.011985644
1.012504961
1.012672313
1.012632052
1.012516405
1.012367917
1.012095557
1.011702876
1.011517352
1.011530164
1.011615184
1.011684297
1.011814561
1.01201767
1.01229019
1.012334358
1.012258538
1.01209733
1.011774171
1.011487585
1.011403151
1.01144269
1.011532754
1.011633114
1.011791433
1.011923726
1.011884624
1.011765068
1.011512653
1.011406703
1.011290725
1.011255286
1.011413545
1.011995174
1.012527625
1.012690626
1.012636637
1.012546044
1.012518058
1.012275608
1.011890085
1.011671822
1.011694386
1.011728055
1.011736504
1.011819893
1.012039358
1.012345347
1.012425019
1.012363839
1.012212686
1.011947849
1.011710558
1.011632181
1.011650659
1.011730496
1.011817301
1.011931036
1.011968964
1.012602732
1.012092972
1.011541075
1.011277638
1.011235566
1.01134986
1.011548299
1.011976423
1.012323866
1.012512457
1.012607834
1.012587896
1.012504017
1.0122946
1.011950638
1.011782712
1.011792546
1.011830834
1.011808979
1.011839629
1.012023998
1.012369189
1.012463182
1.012411721
1.012338611
1.01215985
1.011953008
1.011848733
1.011838042
1.011901215
1.011962457
1.011985003
1.012961189
1.012842699
1.012299891
1.01152883
1.011287801
1.011225228
1.011280577
1.011523725
1.011848117
1.012239144
1.012557093
1.012584815
1.01263779
1.012575147
1.012312836
1.012014954
1.01190852
1.011869505
1.011829091
1.011799735
1.011820653
1.011976296
1.012325119
1.012539738
1.012544068
1.012409681
1.012265251
1.012144001
1.01202987
1.011997878
1.012028274
1.0120313
1.013163433
1.013226609
1.012974264
1.012406177
1.011464098
1.011140243
1.011172219
1.011346924
1.011633435
1.011923686
1.012329531
1.01266182
1.012624666
1.012578983
1.012529491
1.012363742
1.01205722
1.011830256
1.011825133
1.011795459
1.011799055
1.011841083
1.011990796
1.012381252
1.012573417
1.012502506
1.012407851
1.012345265
1.012266219
1.012161007
1.012089383
1.012080599
1.013045343
1.013108856
1.013240441
1.012948551
1.012265286
1.011360884
1.011201889
1.011243484
1.011493654
1.011727516
1.01200129
1.012420151
1.01255616
1.012596056
1.012580548
1.012514111
1.01235066
1.012042721
1.011894195
1.011795683
1.011785018
1.011831198
1.01188434
1.012016175
1.012362035
1.012499003
1.012507306
1.01248403
1.012405988
1.012345381
1.012241555
1.012185478
1.012633264
1.012888744
1.013120924
1.013146176
1.012916014
1.012234336
1.011461839
1.011303287
1.011401538
1.011602456
1.011875431
1.012099799
1.012481719
1.012607823
1.012583337
1.012524984
1.012505492
1.012415661
1.012230811
1.011960795
1.011824272
1.011816229
1.011847752
1.011904468
1.012025427
1.012285159
1.012512718
1.012494185
1.012469275
1.012468748
1.012417747
1.012334535
1.011955952
1.01284154
1.012906315
1.013061163
1.012952147
1.012756312
1.012195035
1.011671066
1.01158971
1.011665084
1.011788819
1.011986787
1.01220723
1.012453729
1.012511247
1.012536572
1.012605961
1.012621749
1.012587555
1.012387727
1.012109804
1.011949765
1.011885451
1.011880908
1.011920933
1.012005016
1.012289197
1.012421265
1.012497443
1.012505497
1.012503685
1.012433964
1.011433891
1.01191728
1.012817315
1.012951441
1.013024366
1.013023721
1.012719216
1.012239416
1.011987683
1.011854678
1.011812525
1.011946539
1.012096602
1.012155466
1.012312264
1.012483268
1.012566148
1.012647447
1.012703331
1.012657731
1.012522346
1.012357493
1.012158349
1.011938497
1.011903934
1.01200226
1.01208911
1.012301908
1.01241984
1.012515691
1.012555432
1.012502451
1.011197235
1.011293361
1.011881152
1.012809471
1.012989369
1.012918896
1.012897288
1.012610169
1.012226599
1.012094395
1.012000323
1.011981032
1.012032726
1.01203492
1.012025839
1.012240783
1.01255073
1.012704382
1.012808527
1.012802731
1.012762096
1.012653705
1.012521889
1.012257713
1.012045603
1.011997946
1.012082481
1.012249755
1.012329594
1.012399287
1.012542798
1.0125355
1.011144003
1.011207397
1.011283234
1.011843114
1.012738989
1.012901661
1.012823754
1.012730461
1.012465296
1.012325113
1.012275529
1.012196349
1.012121123
1.012013366
1.01197883
1.011976699
1.012246574
1.012674442
1.012817772
1.012833783
1.012791219
1.012727017
1.0126734
1.012567721
1.012422283
1.012127101
1.012125239
1.012225708
1.012315598
1.012344396
1.012422982
1.012498057
1.01158458
1.01122506
1.011170708
1.011234641
1.011784864
1.012702959
1.012833423
1.012749065
1.012552018
1.012438974
1.012460072
1.012450723
1.012377662
1.012179427
1.012021958
1.011975785
1.011965367
1.012187585
1.012663003
1.012855021
1.012850754
1.012818801
1.012775149
1.012731258
1.012668533
1.012492252
1.012265034
1.012271254
1.01237431
1.012402565
1.012389874
1.012421374
1.012470817
1.011608758
1.011229997
1.01121426
1.011243541
1.011729518
1.012609302
1.012746739
1.012559023
1.012507863
1.012545475
1.012552399
1.012554865
1.012498664
1.012348547
1.012077835
1.011962593
1.011887326
1.012139492
1.012671278
1.012864166
1.012869532
1.012841284
1.012806116
1.012748461
1.012645384
1.012476233
1.012366513
1.012444067
1.01246847
1.012388477
1.012375103
1.013092328
1.012796655
1.012314939
1.011645548
1.011168946
1.011052972
1.011161261
1.011751282
1.012436123
1.012610129
1.012609007
1.012635591
1.012637674
1.012656455
1.012648099
1.012598588
1.012447002
1.012077965
1.011855838
1.011912621
1.012117782
1.012480047
1.012655394
1.012749422
1.012804149
1.012788647
1.012748955
1.012665214
1.012479564
1.012456504
1.012459703
1.012422733
1.01240527
1.013266674
1.013053656
1.012764627
1.012289525
1.011546432
1.011157663
1.011242094
1.011296726
1.011754058
1.012325841
1.012604275
1.012696095
1.012709458
1.012737607
1.012763245
1.012754843
1.012679679
1.012470182
1.012010761
1.011823481
1.011923549
1.012060337
1.012234265
1.012378154
1.012545286
1.012755079
1.01283853
1.012803141
1.01266358
1.012488421
1.012498161
1.012513386
1.012449489
1.01335416
1.013213279
1.012934677
1.012700873
1.012303203
1.011621241
1.011255533
1.011414478
1.011483227
1.011829083
1.012166069
1.012392725
1.01246488
1.012572423
1.012751021
1.012857839
1.012823224
1.012741738
1.012415702
1.011945638
1.011895911
1.011958841
1.012077947
1.012192971
1.012274758
1.012396058
1.012749164
1.012886902
1.012796991
1.012658614
1.012592195
1.012613356
1.01248846
1.012864117
1.01320047
1.013066136
1.012910712
1.012644091
1.012240217
1.011675033
1.011530284
1.0116723
1.01179066
1.011873454
1.012017758
1.012076275
1.012157685
1.012329356
1.012692862
1.012920787
1.012888891
1.01262991
1.012335416
1.012076462
1.01213518
1.012275789
1.012329129
1.012296599
1.012201661
1.012353916
1.01278609
1.012896688
1.012809535
1.012729824
1.012697589
1.012584058
1.011842544
1.012654873
1.013156038
1.013068554
1.012873018
1.012641997
1.01233707
1.011942225
1.011826206
1.011824063
1.011927474
1.012024239
1.011970852
1.011944949
1.012007272
1.012201267
1.012691698
1.012912849
1.012803924
1.01258278
1.012344512
1.012356096
1.01245959
1.012506937
1.012406
1.012204086
1.012119758
1.012395267
1.01283308
1.012904003
1.012820066
1.012768545
1.012717129
1.011457244
1.011789195
1.012648007
1.013140306
1.013102321
1.012939188
1.012749916
1.012409595
1.01213924
1.012070306
1.012078661
1.012170412
1.012143121
1.012141259
1.012163818
1.012059503
1.012208417
1.012752646
1.012951867
1.012775177
1.012583816
1.012487986
1.01242819
1.012480298
1.01245759
1.01237165
1.012286156
1.012266313
1.012470175
1.012763688
1.012814296
1.012809319
1.012812044
1.011705701
1.011656972
1.011800607
1.012668434
1.013185325
1.013167887
1.013012202
1.012793682
1.012489346
1.012363927
1.012409583
1.012342521
1.012439864
1.012443666
1.012258024
1.012151804
1.01214692
1.012358245
1.012942554
1.012974789
1.012800857
1.012527598
1.012456109
1.012484214
1.012542273
1.01255942
1.012492303
1.012253913
1.012217239
1.012447906
1.012660624
1.012690669
1.012736136
1.011882758
1.01161372
1.01155452
1.0118504
1.012600506
1.013188077
1.013227708
1.01303859
1.012828158
1.012708107
1.012687684
1.012682306
1.012673717
1.012626421
1.012537676
1.012305883
1.012125188
1.012168919
1.012663556
1.013105808
1.01301315
1.012785142
1.012612604
1.012546288
1.012586805
1.012669249
1.012487386
1.012357852
1.012399505
1.012446014
1.012535976
1.012556205
1.012566994
1.012139745
1.011920986
1.011744164
1.011484638
1.011748213
1.012561191
1.013190032
1.013187813
1.013072481
1.012927612
1.01292918
1.01293137
1.012871182
1.012829453
1.012797567
1.01265446
1.012366861
1.012223454
1.01233983
1.01296416
1.013173325
1.013036442
1.012827702
1.012615775
1.012557702
1.012588415
1.012583399
1.012617364
1.012620145
1.01250788
1.012469843
1.012538684
1.012534314
1.012618605
1.012329303
1.012059659
1.011851784
1.011667369
1.011804859
1.012424291
1.012917846
1.013037509
1.013070888
1.013146052
1.013039394
1.013075765
1.013047861
1.013006397
1.012879269
1.012713213
1.012405666
1.012292526
1.012514425
1.01308929
1.013210756
1.013003515
1.012709947
1.012625885
1.012661919
1.012747162
1.012805751
1.012646182
1.012516399
1.012593725
1.012648468
1.012624242
1.013135712
1.012797313
1.012334435
1.01225736
1.011746245
1.011746007
1.011847163
1.012165417
1.012562208
1.012971486
1.013124852
1.013066895
1.013075644
1.013092648
1.01301038
1.013041785
1.012961054
1.012683935
1.012215274
1.012263433
1.012649977
1.013117479
1.013119102
1.013015095
1.012818799
1.012819522
1.012850242
1.012767783
1.012692802
1.012700298
1.012763344
1.012768334
1.012732291
1.013421163
1.013163777
1.01283781
1.012246546
1.011904682
1.011781732
1.011715243
1.011757127
1.012097191
1.012372032
1.012655732
1.012893389
1.01282725
1.012804704
1.012856364
1.013009741
1.013010867
1.012830751
1.012395383
1.012123207
1.012245155
1.012749436
1.013186756
1.013215043
1.013058397
1.012953021
1.012837239
1.012818906
1.012839637
1.012849472
1.012736874
1.012730011
1.012743781
1.013522343
1.013454725
1.013184188
1.012665277
1.012406972
1.012099096
1.012068295
1.012138306
1.011944268
1.01196054
1.012283973
1.012520889
1.012587871
1.012576567
1.012637286
1.012770828
1.012920013
1.012895806
1.012674444
1.01236849
1.012269947
1.01234344
1.012749893
1.013134341
1.013144965
1.012972181
1.012906041
1.012932146
1.012922401
1.012800001
1.012693264
1.01265192
1.012658153
1.013511053
1.013610844
1.013480524
1.013155911
1.012767559
1.012435166
1.012467132
1.012507696
1.012260797
1.012319668
1.012177093
1.012219978
1.012449374
1.0124935
1.012548996
1.012607017
1.01275023
1.012906524
1.012870068
1.012671544
1.012339095
1.012115192
1.012208462
1.012627721
1.012962454
1.012929395
1.012977232
1.012944376
1.012851409
1.012793439
1.01277515
1.012715594
1.012638407
1.012880231
1.013452159
1.013609948
1.013451882
1.013051247
1.012820499
1.012634944
1.012514463
1.012620109
1.012681348
1.01247808
1.012494188
1.012587909
1.012633641
1.012520033
1.012466863
1.012622335
1.012799353
1.01294136
1.01280429
1.012472025
1.0123899
1.01234636
1.012322924
1.012520585
1.012722093
1.012820261
1.012839995
1.012823337
1.012885429
1.012906522
1.012833485
1.012664334
1.012142862
1.012663445
1.013363178
1.013431898
1.01329172
1.013102717
1.012843993
1.012683875
1.012829455
1.012736158
1.012815802
1.01280696
1.012762561
1.012788973
1.012667713
1.012618293
1.012590022
1.012673532
1.012969096
1.012944187
1.012864031
1.01273635
1.012542813
1.012287434
1.012354446
1.012388953
1.012458693
1.012642259
1.012796823
1.012905027
1.012935484
1.012873331
1.012707945
1.012093576
1.011870957
1.012109454
1.012638935
1.013189761
1.013444731
1.013363181
1.013220193
1.013066239
1.012865257
1.012815125
1.013007973
1.012832863
1.012764618
1.012793044
1.012853049
1.012807773
1.012681033
1.012698895
1.012965012
1.013131856
1.013123172
1.012897871
1.012524879
1.012428837
1.012393712
1.012281247
1.012365205
1.012480748
1.012645607
1.012772391
1.012808272
1.012815606
1.012738934
1.012427191
1.01221072
1.012104825
1.012261192
1.012579903
1.013158936
1.013487958
1.01345636
1.013310851
1.013074027
1.013076054
1.012970871
1.012864464
1.012848687
1.012828025
1.012830523
1.012779194
1.012761926
1.012707604
1.012791081
1.013107511
1.013195792
1.01296322
1.012839217
1.012713251
1.012515844
1.01246967
1.012386185
1.012374889
1.012501507
1.012611047
1.012639095
1.012639337
1.012592611
1.012371042
1.012570757
1.012271345
1.012043302
1.012061614
1.012489003
1.012976155
1.013162552
1.013118184
1.013210617
1.013237355
1.01310453
1.013111943
1.013022119
1.012889974
1.012802198
1.012765016
1.012704976
1.012582895
1.012542833
1.012735434
1.013046739
1.01316814
1.013128647
1.012981504
1.012795143
1.012734906
1.012504169
1.012479281
1.012516252
1.012565867
1.012555499
1.012511815
1.012438962
1.012720717
1.012523886
1.012486897
1.012354742
1.012282067
1.012037399
1.012240606
1.012475758
1.012613709
1.012809393
1.012885891
1.013114776
1.013263278
1.013156058
1.012981698
1.012873023
1.01280329
1.012679719
1.012532652
1.012425932
1.012411801
1.012715744
1.013217952
1.013293877
1.013165177
1.013024943
1.012884746
1.012785129
1.012674823
1.012591409
1.012604954
1.012595941
1.012556492
1.012453602
1.013159345
1.012713251
1.012696048
1.012671395
1.012514654
1.012259772
1.012250947
1.01227036
1.012385522
1.012242254
1.012308518
1.012561111
1.01284776
1.013054307
1.013039157
1.012997728
1.012901275
1.012760373
1.012597209
1.012454688
1.012363743
1.012376467
1.01267667
1.013052956
1.013193759
1.013083001
1.012906492
1.012979012
1.012835153
1.012688751
1.012654854
1.012655852
1.01264719
1.012554231
1.013412041
1.013093299
1.01284594
1.012701556
1.012364331
1.012505298
1.012316725
1.012202185
1.012211302
1.012301492
1.012291099
1.012092808
1.012212026
1.012615775
1.012990623
1.013027008
1.012964698
1.012892349
1.012752674
1.012573422
1.012430302
1.01224317
1.012199093
1.01255167
1.012996753
1.013090439
1.012999509
1.012980609
1.012898889
1.012786063
1.013396666
1.013329949
1.012970611
1.012658038
)
;

boundaryField
{
    inlet
    {
        type            fixedValue;
        value           nonuniform 0();
    }
    outlet
    {
        type            inletOutlet;
        inletValue      uniform 1;
        value           nonuniform List<scalar> 
68
(
1.011367125
1.011505854
1.011725198
1.011880367
1.011990219
1.01200814
1.012039126
1.012086915
1.012176201
1.012315743
1.012425527
1.012499988
1.012535227
1.012519625
1.012436432
1.012383529
1.012410742
1.012444528
1.012468467
1.012551115
1.012700992
1.01281326
1.012781971
1.012592807
1.012529532
1.012605091
1.012710355
1.012746929
1.012677566
1.012634968
1.012630823
1.012691074
1.012754499
1.012633916
1.01245663
1.012438696
1.012525476
1.006479568
1.006683576
1.006864246
1.007054369
1.007263629
1.007459711
1.007594115
1.007672943
1.007720529
1.007749777
1.007756449
1.007752463
1.007729484
1.007681529
1.007651673
1.007656925
1.007683548
1.007727646
1.007781781
1.007843863
1.00790727
1.007968291
1.008038312
1.008129721
1.008263855
1.008485258
1.008842773
1.00935659
1.009971578
1.010648635
1.011185178
)
;
    }
    bottom
    {
        type            slip;
    }
    top
    {
        type            slip;
    }
    obstacle
    {
        type            zeroGradient;
    }
    defaultFaces
    {
        type            empty;
    }
    procBoundary11to5
    {
        type            processor;
        value           nonuniform List<scalar> 
33
(
1.006590066
1.005518026
1.005634882
1.005658148
1.005776641
1.006016329
1.006293405
1.00640136
1.006373202
1.006323479
1.006223598
1.006118571
1.006011546
1.00601793
1.006073563
1.006156009
1.006235494
1.006246991
0.862487554
0.8602196586
0.8588626553
0.8592561757
0.863587746
0.8789223361
0.9139387092
0.9518923928
0.979654404
0.9901433616
1.003225773
1.004557304
1.005724915
1.006864947
1.006864947
)
;
    }
    procBoundary11to10
    {
        type            processor;
        value           nonuniform List<scalar> 
70
(
0.8579707902
0.8574109316
0.8584084717
0.884359496
0.9456701066
0.9883294286
1.003094805
1.003365788
1.003497617
1.006005479
1.007374666
1.007378086
1.006714825
1.006697812
1.007216972
1.007694261
1.007813271
1.007772755
1.00780717
1.00794393
1.008053913
1.008090756
1.008190473
1.008274017
1.008427645
1.008663032
1.009099118
1.009827245
1.010616945
1.011256413
1.011143596
1.011112137
1.011207821
1.011443123
1.012175187
1.012825419
1.01294707
1.012909778
1.012783112
1.011987849
1.011455072
1.011256828
1.011157822
1.011587978
1.012509211
1.013045689
1.013045689
1.013420169
1.013400509
1.012979332
1.011939112
1.011521639
1.011404002
1.011621673
1.01212915
1.012545739
1.012903304
1.013287325
1.01354845
1.013523688
1.012977312
1.012224269
1.011837912
1.011837912
1.012404064
1.012393999
1.012783789
1.013174944
1.013416376
1.013351447
)
;
    }
    procBoundary11to16
    {