/*--------------------------------*- C++ -*----------------------------------*\
  =========                 |
  \\      /  F ield         | OpenFOAM: The Open Source CFD Toolbox
   \\    /   O peration     | Website:  https://openfoam.org
    \\  /    A nd           | Version:  7
     \\/     M anipulation  |
\*---------------------------------------------------------------------------*/
FoamFile
{
    version     2.0;
    format      ascii;
    class       volScalarField;
    location    "3";
    object      p;
}
// * * * * * * * * * * * * * * * * * * * * * * * * * * * * * * * * * * * * * //

dimensions      [1 -1 -2 0 0 0 0];

internalField   nonuniform List<scalar> 
2223
(
0.4823000838
0.4782315649
0.4720387238
0.4693353113
0.4679907865
0.464603365
0.4591252903
0.4579210916
0.4575492825
0.4549745396
0.450236156
0.4476794821
0.4465142868
0.4441085397
0.4397289891
0.4382461734
0.4382343961
0.4368333423
0.4332111872
0.4301853891
0.4327348781
0.7017153568
0.5281509671
0.5258586454
0.5232282817
0.5161194126
0.5098646705
0.5090933914
0.5070748583
0.5007670737
0.4946116286
0.4926997337
0.4905264511
0.484925534
0.4797759803
0.4793623842
0.4781648036
0.4736207837
0.4685896652
0.4668482554
0.4651485383
0.460998072
0.4561505437
0.4555194572
0.4548737078
0.4518451651
0.447376535
0.4459311385
0.4449181628
0.4417735745
0.437642058
0.4355455666
0.4468491163
0.5437549002
0.5389840377
0.5379582696
0.534106863
0.5256625041
0.5206246687
0.5188471247
0.5150914679
0.5073731442
0.5037239011
0.5031549883
0.5004686325
0.4940558494
0.4899547763
0.4885274166
0.4856691282
0.4795776935
0.4759581153
0.4756375068
0.4740906834
0.469433113
0.4658349972
0.4647815136
0.4629338142
0.4585501848
0.4545033817
0.4541625717
0.4533509258
0.4499702705
0.4457354061
0.4461270382
0.5638888657
0.5541599353
0.5503752754
0.5479635687
0.5418487147
0.5330440441
0.5307730428
0.5294853993
0.5246268796
0.5171919759
0.5144268768
0.512591623
0.5078155101
0.5007052284
0.4986404242
0.497795164
0.4944333757
0.4885046026
0.4860762206
0.4847892763
0.4813660076
0.475483489
0.4729743515
0.472422746
0.4704558549
0.4658210556
0.4632716928
0.4625867493
0.4604275934
0.4562063707
0.4523296787
0.5800599923
0.571178349
0.5626696412
0.5609884853
0.5584325566
0.5509018238
0.5437515803
0.5417591882
0.5388280076
0.5316428441
0.5249207231
0.5236247493
0.5217715461
0.5160515159
0.5103141385
0.5088237129
0.5067208457
0.5012826462
0.4953512825
0.4939706371
0.4927703759
0.488755922
0.4836797147
0.4823398911
0.4810295017
0.4772899918
0.4718447441
0.4699531607
0.4691381603
0.4661844376
0.4618816604
0.5949965751
0.5904275301
0.5803508693
0.5742957429
0.5722556793
0.5675264225
0.5581014509
0.5526707141
0.5512594233
0.5477247832
0.5397853244
0.5354011981
0.5340568027
0.5304974481
0.5230813641
0.5183266241
0.5171792416
0.5147203755
0.5086239796
0.5046585416
0.5037594872
0.501412407
0.4957893259
0.4911495295
0.4899804729
0.4884383007
0.4841622133
0.4798674135
0.479215887
0.478031544
0.4739959951
0.6087938775
0.6060458363
0.598999546
0.5882329071
0.5840453411
0.5818534865
0.5758808683
0.5667150598
0.5637311106
0.5617781864
0.5560535724
0.5475108616
0.5442360159
0.542587633
0.5380556731
0.5306495115
0.5282449466
0.5269866157
0.5228919242
0.5159428498
0.5127035347
0.5114745486
0.5083826938
0.5023364076
0.4997685471
0.4990439442
0.496526583
0.4910672386
0.4873400956
0.4864010928
0.4843316113
0.6235987322
0.6197315986
0.6161155239
0.607259705
0.597870695
0.5954501586
0.5923032669
0.5840569272
0.5755851506
0.5730924077
0.5703212412
0.5631831765
0.5559325028
0.5544441338
0.5522570931
0.5459217319
0.538903895
0.5367696876
0.5347790614
0.5295061468
0.5231311464
0.5217974199
0.5204732527
0.5160125239
0.5099058561
0.5076254502
0.5061698156
0.5026536047
0.4968183487
0.4949605723
0.4944140803
0.6419590333
0.6331665649
0.630567289
0.625708408
0.6151485031
0.6075621921
0.6050851982
0.6005655437
0.590974319
0.5849481046
0.5834198829
0.5796105386
0.5710615619
0.565154468
0.5633116097
0.5598782536
0.5522603005
0.5470878915
0.5460806734
0.5435446957
0.5370556387
0.5316657694
0.5300815052
0.5277269082
0.5220355192
0.516879236
0.5160226744
0.5145751077
0.5101279775
0.5048194201
0.5031171713
0.6637692793
0.6512388341
0.644420425
0.6412428285
0.6344240785
0.6230234986
0.617867739
0.6155355954
0.6094899335
0.5994430495
0.5948858564
0.5925476528
0.5869792347
0.5777783438
0.5741322975
0.572661156
0.5682140252
0.5601576514
0.5562867007
0.5545929988
0.5505684276
0.5431529215
0.5395556138
0.5386108743
0.5357243203
0.5293991782
0.5254366026
0.5240818084
0.5214123297
0.5157384419
0.5114298566
0.6807199614
0.6711053554
0.6588442833
0.6542627292
0.6506999205
0.6421386454
0.631602548
0.627942253
0.6245925652
0.6165325923
0.6070453216
0.6042927061
0.6017445367
0.5947990834
0.5863897998
0.5837197238
0.581227784
0.5749005242
0.566975309
0.5646718225
0.5629706297
0.5579730127
0.5508715384
0.5483578903
0.5466535122
0.542169267
0.5353111157
0.5327463715
0.5316848079
0.5285666094
0.5226417148
0.696146697
0.6908778165
0.6797754062
0.6690650231
0.6654144272
0.6605693028
0.6500338068
0.6408220367
0.6379294469
0.6336997656
0.6241804942
0.6164318933
0.614094652
0.6101971347
0.6014743643
0.594279652
0.5923857189
0.589394705
0.581984839
0.5755322312
0.5738045724
0.5710659086
0.564403195
0.5578918442
0.5562390724
0.5543136874
0.5489831102
0.5429771862
0.5412856284
0.5394966814
0.5348980093
0.7116026075
0.7068570762
0.6995498014
0.6867356986
0.6782035381
0.6746866991
0.6683392797
0.656825338
0.6501318383
0.6474307256
0.6416567776
0.6311026683
0.6251888744
0.6229306877
0.6179812247
0.6085638541
0.603512343
0.6016551208
0.5972046772
0.5886180933
0.5834967001
0.5818365972
0.5783495637
0.5709147251
0.5661655337
0.5648496896
0.5618837175
0.5552261034
0.550057789
0.5486360653
0.546460382
0.7295361481
0.7213120298
0.7165442977
0.7079936361
0.6950904752
0.6886998264
0.6849895123
0.6769886269
0.6652572582
0.6600849428
0.6568231625
0.6494009815
0.6388503643
0.6347931972
0.6321240107
0.6254561512
0.6158951674
0.6120644757
0.6097416928
0.6040773425
0.5954486648
0.592225152
0.590457446
0.5856222135
0.5776612558
0.5739699658
0.5723633536
0.5685024869
0.561393116
0.557954505
0.5567435293
0.752114077
0.7386370724
0.7321128418
0.7263800131
0.7154634598
0.7033198747
0.6982428023
0.6934209457
0.6834048686
0.6727767482
0.6691409561
0.6652116611
0.6561979187
0.6467422941
0.6436355353
0.6401622416
0.6320412734
0.6235212836
0.6210615577
0.6182145959
0.6110412985
0.6030559119
0.6004676714
0.5979675097
0.5918305609
0.5843115889
0.5821489532
0.580342568
0.5752441356
0.5681812612
0.5654653582
0.7718614573
0.7588163286
0.7468949797
0.741326777
0.734701082
0.7227548972
0.712241318
0.7080598492
0.7024266418
0.6911966993
0.6821654185
0.6789146321
0.6737787402
0.6633282631
0.6554389986
0.6528189036
0.6483305642
0.638929389
0.6318673677
0.6295210888
0.6255727522
0.6171463071
0.6105584562
0.6087852948
0.6057438551
0.5984848518
0.5920074826
0.5900871999
0.5874346431
0.5811199812
0.5748452811
0.7897279852
0.780941934
0.7667886382
0.7569054497
0.7516073693
0.7432601617
0.7301118402
0.7216246427
0.7172983517
0.7097717328
0.6975763838
0.6905685868
0.6872778442
0.6807570314
0.669766797
0.6639021693
0.6611819871
0.6553560016
0.6453181329
0.6400768079
0.6378849967
0.6329280929
0.6238895468
0.6188719382
0.6168666641
0.6125609347
0.6043293925
0.5993363251
0.5978219404
0.5945084496
0.5873846913
0.8050529729
0.7984958453
0.7879576679
0.7736768459
0.7655374438
0.7598958145
0.7502512554
0.7373744663
0.7306306698
0.7260912617
0.7174266103
0.7054552062
0.7000946862
0.6964202049
0.6883957967
0.6774797114
0.6729513631
0.6697468586
0.6624372506
0.6525516133
0.6486631812
0.6459137464
0.6394529105
0.6303162345
0.6266709458
0.624524442
0.6192415823
0.6109059309
0.6073251093
0.6054750115
0.6009134534
0.8236595199
0.8145543469
0.8076960837
0.7956301958
0.782077575
0.7754938898
0.7691990491
0.7577207713
0.7456856294
0.740151463
0.7345882869
0.7239324655
0.7129630346
0.70858018
0.7039267069
0.6942756869
0.684538392
0.6811634167
0.677266895
0.6685950073
0.6596983421
0.6567826657
0.6535003672
0.6458458688
0.6376005515
0.6349674433
0.6321714091
0.6254374372
0.6174838987
0.6148522143
0.6126286394
0.8466590419
0.8314984614
0.8234881734
0.815564286
0.8020536175
0.7897968913
0.7838049671
0.7764084531
0.7639695456
0.7534885107
0.7485865237
0.7422134651
0.7307568426
0.7213020689
0.7175349183
0.7120705962
0.7013638324
0.6930356753
0.6899676186
0.6850396431
0.6751427861
0.6676642731
0.6650917486
0.6608054768
0.6519255738
0.6448568635
0.6425725474
0.6390715301
0.6313167864
0.6245651023
0.6226368841
0.8679728748
0.8536260116
0.8396980485
0.8324288901
0.8235385367
0.8091123691
0.7986550996
0.7930997399
0.7844742431
0.7712091954
0.762522005
0.7576699865
0.7496997324
0.7373432097
0.7296800196
0.7257183845
0.7186327325
0.7071951112
0.700699296
0.6976107478
0.6914781967
0.681067678
0.6752956822
0.6727354996
0.6674452177
0.6579831518
0.652568459
0.6504256098
0.6459143907
0.63731606
0.6318721359
0.8856830596
0.8755498823
0.8604341154
0.8479539214
0.8407772774
0.8304821567
0.8157595468
0.8067913133
0.800792186
0.79073068
0.7776399593
0.7704501204
0.7652691426
0.7562290768
0.7441732135
0.7380026105
0.7338290078
0.725700076
0.7144001231
0.7093219027
0.7059108735
0.6984701208
0.6880566247
0.6835728648
0.6806093671
0.6739584726
0.6643994919
0.6601977716
0.6576830056
0.6520157769
0.6431697145
0.9036676673
0.8937092531
0.8827350005
0.8673409034
0.8562442906
0.8489253728
0.837404193
0.8230325681
0.8155061785
0.809148942
0.797724974
0.7853793353
0.7794285673
0.7735853726
0.7628815904
0.7515885695
0.7464914045
0.7414350936
0.7315641974
0.7211083193
0.7169971122
0.7128133933
0.7039681217
0.6944385011
0.6910307386
0.6875454626
0.6797496147
0.6708913869
0.6678250088
0.6649355935
0.6581009622
0.9246594924
0.9111467068
0.9013588196
0.8895452876
0.8743305005
0.8643790887
0.8565047373
0.8437435911
0.830268618
0.8234649345
0.8160873988
0.8035336068
0.7924166832
0.7869916089
0.7802526606
0.7687563002
0.7587966646
0.7543036727
0.7485784919
0.7379271159
0.7287304549
0.7252208114
0.7203500619
0.7104710117
0.7021084506
0.6991228605
0.6947830179
0.6857638233
0.6779786839
0.6753149272
0.6716090296
0.9445476094
0.9310714745
0.9184354534
0.9086265911
0.8961066735
0.881443582
0.8723154562
0.8637962389
0.8501319637
0.837901543
0.8316442925
0.8233964307
0.8100634374
0.8005388616
0.7954702905
0.7876092702
0.7752400733
0.7668706261
0.7624852243
0.7553845303
0.7437801532
0.7361954074
0.7326439537
0.7264487286
0.7157677209
0.7090328451
0.7061598045
0.7008637097
0.6911897653
0.6849271952
0.6825461013
0.9609803599
0.9503766349
0.9373178903
0.9254686782
0.9155215485
0.9024715255
0.8886089998
0.8799729748
0.8705957123
0.8563613352
0.8454601085
0.8391390075
0.8296199557
0.8160659667
0.8078639644
0.8024711696
0.7934386084
0.7811487397
0.7741799098
0.7696078733
0.7615987144
0.7500694297
0.7438724547
0.7402062027
0.73308259
0.7222664042
0.7168974057
0.7138603651
0.7074229422
0.6974167392
0.6924165271
0.9752323755
0.9661305218
0.9558566419
0.9433719429
0.9322005343
0.9220651805
0.9087222074
0.8957611698
0.8873439551
0.8771285842
0.862741499
0.853095582
0.8466363279
0.8360318626
0.8227530623
0.8158733396
0.8102179119
0.7999147079
0.7880673311
0.7823029999
0.7772207126
0.7676734876
0.7565720503
0.7515272605
0.7472109085
0.73852893
0.7281739799
0.7239034072
0.7203194725
0.7126550297
0.7030728213
0.9866172142
0.9792048556
0.9708361617
0.960998069
0.949193414
0.9386028981
0.9282857941
0.9148840338
0.9028191322
0.8943944439
0.8833257909
0.8691822627
0.8605322143
0.8535255278
0.8417923563
0.8292586041
0.8230663422
0.8165876717
0.8052710573
0.794420065
0.7893163278
0.7835585154
0.7732287389
0.7631470213
0.758825538
0.7539862817
0.7444753875
0.7350195947
0.7315172408
0.7274354354
0.7186941482
0.9938872011
0.989231233
0.9827397095
0.9751053678
0.9658035227
0.9547447665
0.9446591812
0.9342152551
0.920977676
0.909716423
0.9011357935
0.8893528636
0.875756185
0.8678478044
0.860294911
0.8477025625
0.8362357674
0.830641656
0.8234748616
0.811277752
0.8017575955
0.7971095612
0.790425178
0.7790289552
0.770313796
0.7663012075
0.7603663767
0.7497136021
0.7416408061
0.738344724
0.733233089
0.9977434287
0.9953562381
0.9914591584
0.985845656
0.9789503371
0.9702695541
0.95999007
0.9503632491
0.9398796622
0.9269868895
0.9164055019
0.9075643201
0.895211231
0.8823791231
0.8749001166
0.8665598069
0.8533733489
0.843074331
0.8374861992
0.8292336294
0.8166661076
0.8084039441
0.8036499901
0.7960012174
0.7844271435
0.7770588853
0.7730557662
0.7663429395
0.7554242832
0.7486579953
0.7454709305
0.9993724498
0.9984006547
0.9965325463
0.9933288288
0.9885400698
0.9823833408
0.974390743
0.9649028571
0.9557140624
0.9452991266
0.9328860845
0.9228510412
0.9137081345
0.901004873
0.8890181658
0.8817452468
0.8726578095
0.8592153992
0.8500965274
0.8445042798
0.8353100077
0.8227109159
0.8157680378
0.8109106816
0.8020999951
0.7904962927
0.7844239271
0.7801438628
0.7720600026
0.7610673714
0.7555915864
0.9998734579
0.999589621
0.9988895648
0.9974575009
0.9948726692
0.9908458445
0.9854200915
0.9781593112
0.9694633757
0.960716011
0.9504848353
0.9386400067
0.929032469
0.9195799297
0.9067352228
0.8956030606
0.8883116595
0.8783994639
0.8650582098
0.8569156511
0.8508886342
0.8406230825
0.8284759429
0.8223711657
0.8169262029
0.8071406488
0.7961759293
0.7909915338
0.7862518358
0.7773665446
0.7669599784
0.9999823346
0.9999246516
0.9997380119
0.9992454094
0.9981710645
0.996125457
0.9927916828
0.9880773404
0.9815720052
0.973658784
0.9653727309
0.9554388931
0.944213792
0.934940365
0.9252135344
0.9124394238
0.9020778424
0.8946397164
0.8840095881
0.8710534895
0.8637150496
0.8572976273
0.8461425078
0.8347698196
0.8294387417
0.8235130001
0.8126989073
0.8026853927
0.7981895445
0.7927817311
0.7826589346
0.9999983821
0.9999905357
0.9999563377
0.9998368635
0.9994985951
0.9987104965
0.9971239188
0.9944090327
0.9903756648
0.9846274784
0.9774851224
0.9696890045
0.9601545239
0.9495721572
0.9405703959
0.9306324181
0.918100765
0.9084025964
0.9006939691
0.8894214911
0.8770937683
0.8702710559
0.8631803644
0.8512871513
0.8408969199
0.8357934479
0.8289937395
0.8175708588
0.8086877573
0.8043871216
0.7982221507
0.9999999063
0.999999228
0.9999950804
0.9999753995
0.999901009
0.9996745187
0.9991097449
0.9979045855
0.9957325241
0.9923372326
0.9873311368
0.9809415291
0.973670544
0.9646222342
0.9546864982
0.9459216698
0.9358607929
0.9237116134
0.9145409697
0.9065148145
0.8947726883
0.8831960828
0.8767039997
0.8689939623
0.8566099144
0.8473186428
0.8424291915
0.8348691618
0.8229951192
0.8154003131
0.8112232739
0.9999999967
0.9999999606
0.9999996436
0.9999975209
0.9999865353
0.9999415177
0.9997937911
0.9993987198
0.9985029813
0.9967973199
0.9939883723
0.9896920437
0.9840344256
0.9773201684
0.9688292256
0.9595341019
0.9509972873
0.9409145871
0.9292374644
0.9204760691
0.912092255
0.9000495318
0.8892819587
0.8828859797
0.8744098831
0.8618423578
0.8535586111
0.8484377744
0.8398935983
0.8280697224
0.821494239
0.9999999999
0.9999999988
0.999999984
0.999999841
0.99999879
0.9999928472
0.9999663923
0.9998726128
0.9996030943
0.9989521486
0.9976390448
0.9953567286
0.9917265829
0.9867722457
0.9806431888
0.972761201
0.9640977761
0.9558008769
0.9458032912
0.9346551053
0.9261899685
0.9174637471
0.9053144248
0.8953234409
0.8888961835
0.8797289111
0.8672423467
0.8598841991
0.854577047
0.8451637293
0.8336671944
1
1
0.9999999996
0.9999999937
0.9999999314
0.9999994284
0.9999963153
0.9999812308
0.9999233409
0.999744176
0.9992820893
0.9982919143
0.9964726471
0.9934539886
0.9891701944
0.9836426458
0.9764073117
0.968364807
0.9603359571
0.9505280503
0.9399304385
0.9316813577
0.9226354091
0.9105567955
0.9012694242
0.8946602868
0.8847912973
0.8726728441
0.8660011309
0.860183499
0.8499062528
1
1
1
0.9999999999
0.9999999976
0.9999999715
0.9999997389
0.999998161
0.9999898224
0.9999551036
0.9998391522
0.9995189974
0.9987884568
0.9973667047
0.9948990581
0.9912443119
0.986326419
0.9797564386
0.9723292024
0.9646048291
0.9550820681
0.9450401414
0.9369440993
0.9276417715
0.9157873481
0.9070931839
0.9002331881
0.8897823631
0.8782137981
0.8720753715
0.8658051522
1
1
1
1
1
0.9999999991
0.9999999885
0.9999998848
0.9999991116
0.9999946465
0.9999744347
0.9999014397
0.999685151
0.9991582521
0.9980701071
0.9960880997
0.9930165187
0.9887008136
0.9828047573
0.9759854408
0.9686103924
0.9594559325
0.9499575641
0.9419822984
0.9324903118
0.9209859897
0.9127677152
0.9055790434
0.8946450367
0.8837806758
0.8779312825
1
1
1
1
1
1
0.9999999997
0.9999999956
0.9999999509
0.9999995849
0.9999972708
0.9999858592
0.9999412
0.999798843
0.9994277441
0.9986126578
0.9970504365
0.9945090324
0.9907789692
0.9855480769
0.9793348504
0.9723515155
0.9636355033
0.9546668413
0.9467958787
0.9372062991
0.9261318492
0.9182778496
0.9107386143
0.8994843721
0.8893696795
0.8836789512
1
1
1
1
1
1
1
0.9999999999
0.9999999983
0.9999999798
0.9999998126
0.9999986527
0.9999924093
0.9999658779
0.9998746808
0.9996196671
0.9990227543
0.9978151157
0.9957483018
0.9925732667
0.9879921463
0.9823762372
0.9758297874
0.9676055924
0.9591500838
0.9513916573
0.9417913751
0.9312040904
0.9236088697
0.9157038406
0.9042827271
0.8949263266
1
1
1
1
1
1
1
1
1
0.9999999994
0.999999992
0.9999999183
0.9999993565
0.9999960492
0.9999807571
0.9999239412
0.9997531353
0.9993260539
0.9984116519
0.9967604051
0.9941027827
0.9901412573
0.9851175777
0.9790413412
0.9713528725
0.9633965074
0.9557698569
0.9462579309
0.9361722368
0.928757192
0.9205055688
0.9090902919
1
1
1
1
1
1
1
1
1
1
0.9999999998
0.9999999969
0.9999999656
0.9999997029
0.9999980078
0.9999894634
0.9999550723
0.9998436558
0.9995454282
0.9988676694
0.9975736813
0.9953862589
0.99200963
0.9875617804
0.9819890028
0.9748622618
0.9673973425
0.9599358937
0.9505964209
0.9410195009
0.9337136453
0.9251516118
1
1
1
1
1
1
1
1
1
1
1
0.9999999999
0.9999999989
0.999999986
0.9999998674
0.9999990276
0.9999944031
0.9999741936
0.9999034832
0.9997003847
0.9992092269
0.9982150749
0.9964475928
0.9936100328
0.9897223608
0.9846680182
0.9781262663
0.9711447125
0.9638893812
0.9548089379
0.9457188667
0.9384822716
1
1
1
1
1
1
1
1
1
1
1
1
1
0.9999999996
0.9999999945
0.9999999429
0.9999995409
0.9999971182
0.9999855988
0.9999419718
0.9998072157
0.9994594512
0.9987117154
0.9973096973
0.9949636174
0.9916074156
0.9870852027
0.9811321154
0.9746379696
0.967630382
0.9588755116
0.950261203
1
1
1
1
1
1
1
1
1
1
1
1
1
1
0.9999999999
0.9999999979
0.9999999763
0.9999997905
0.9999985629
0.999992199
0.9999660553
0.9998790087
0.9996387072
0.9990884056
0.997998428
0.9960894772
0.9932356747
0.9892387646
0.9838805894
0.9778703931
0.9711599094
0.9627907154
1
1
1
1
1
1
1
1
1
1
1
1
1
1
1
1
0.9999999993
0.9999999905
0.9999999077
0.9999993065
0.9999959017
0.9999806976
0.9999260113
0.9997640792
0.9993683373
0.9985379119
0.9970126459
0.9946206539
0.9911413551
0.9863630018
0.9808473287
0.9744727793
1
1
1
1
1
1
1
1
1
1
1
1
1
1
1
1
1
0.9999999997
0.9999999963
0.9999999607
0.9999996764
0.9999979138
0.9999893406
0.9999559534
0.9998496616
0.9995717198
0.9989527156
0.9977557008
0.9957851341
0.9927967366
0.9885894889
0.9835617884
1
1
1
1
1
1
1
1
1
1
1
1
1
1
1
1
1
1
0.9999999999
0.9999999986
0.9999999839
0.9999998542
0.9999989721
0.9999942891
0.9999745006
0.9999065934
0.9997162079
0.9992648686
0.998344191
0.9967472029
0.9942233213
0.9905568242
1
1
1
1
1
1
1
1
1
1
1
1
1
1
1
1
1
1
1
1
0.9999999995
0.9999999936
0.9999999366
0.9999995102
0.9999970348
0.9999856589
0.9999434825
0.9998163734
0.9994949949
0.9988008547
0.997531396
0.9954312466
1
1
1
1
1
1
1
1
1
1
1
1
1
1
1
1
1
1
1
1
1
0.9999999998
0.9999999976
0.9999999734
0.9999997746
0.9999985094
0.9999921731
0.9999667291
0.9998841255
0.9996607223
0.9991488425
0.9981581016
1
1
1
1
1
1
1
1
1
1
1
1
1
1
1
1
1
1
1
1
1
1
0.9999999999
0.9999999991
0.9999999893
0.9999998999
0.9999992754
0.999995859
0.9999809663
0.9999287513
0.9997773829
0.9994081499
1
1
1
1
1
1
1
1
1
1
1
1
1
1
1
1
1
1
1
1
1
1
1
1
0.9999999997
0.9999999958
0.9999999571
0.9999996596
0.9999978782
0.9999894281
0.9999573639
0.9998574392
1
1
1
1
1
1
1
1
1
1
1
1
1
1
1
1
1
1
1
1
1
1
1
1
1
0.9999999999
0.9999999984
0.9999999823
0.9999998456
0.9999989481
0.9999943047
0.9999751893
1
1
1
1
1
1
1
1
1
1
1
1
1
1
1
1
1
1
1
1
1
1
1
1
1
1
1
0.9999999994
0.999999993
0.9999999325
0.9999994958
0.9999970267
1
1
1
1
1
1
1
1
1
1
1
1
1
1
1
1
1
1
1
1
1
1
1
1
1
1
1
1
0.9999999998
0.9999999973
0.9999999715
0.9999997665
1
1
1
1
1
1
1
1
1
1
1
1
1
1
1
1
1
1
1
1
1
1
1
1
1
1
1
1
1
0.9999999999
0.999999999
0.9999999884
1
1
1
1
1
1
1
1
1
1
1
1
1
1
1
1
1
1
1
1
1
1
1
1
1
1
1
1
1
1
1
0.9999999996
1
1
1
1
1
1
1
1
1
1
1
1
1
1
1
1
1
1
1
1
1
1
1
1
1
1
1
1
1
1
1
1
1
1
1
1
1
1
1
1
1
1
1
1
1
1
1
1
1
1
1
1
1
1
1
1
1
1
1
1
1
1
1
1
1
1
1
1
1
1
1
1
1
1
1
1
1
1
1
1
1
1
1
1
1
1
1
1
1
1
1
1
1
1
1
1
1
1
1
1
1
1
1
1
1
1
1
1
1
1
1
1
1
1
1
1
1
1
1
1
1
1
1
1
1
1
1
1
1
1
1
1
1
1
1
1
1
1
1
1
1
1
1
1
1
1
1
1
1
1
1
1
1
1
1
1
1
1
1
1
1
1
1
1
1
1
1
1
1
1
1
1
1
1
1
1
1
1
1
1
1
1
1
1
1
1
1
1
1
1
1
1
1
1
1
1
1
1
1
1
1
1
1
1
1
1
1
1
1
1
1
1
1
1
1
1
1
1
1
1
1
1
1
1
1
1
1
1
1
1
1
1
1
1
1
1
1
1
1
1
1
1
1
1
1
1
1
1
1
1
1
1
1
1
1
1
1
1
1
1
1
1
1
1
1
1
1
1
1
1
1
1
1
1
1
1
1
1
1
1
1
1
1
1
1
1
1
1
1
1
1
1
1
1
1
1
1
1
1
1
1
1
1
1
1
1
1
1
1
1
1
1
1
1
1
1
1
1
1
1
1
1
1
1
1
1
1
1
1
1
1
1
1
1
1
1
1
1
1
1
1
1
1
1
1
1
1
1
1
1
1
1
1
1
1
1
1
1
1
1
1
1
1
1
1
1
1
1
1
1
1
1
1
1
1
1
1
1
1
1
1
1
1
1
)
;

boundaryField
{
    inlet
    {
        type            fixedValue;
        value           nonuniform 0();
    }
    outlet
    {
        type            zeroGradient;
    }
    bottom
    {
        type            slip;
    }
    top
    {
        type            slip;
    }
    obstacle
    {
        type            zeroGradient;
    }
    defaultFaces
    {
        type            empty;
    }
    procBoundary34to27
    {
        type            processor;
        value           nonuniform List<scalar> 9(0.5362291105 0.5533498388 0.5702168294 0.583729061 0.5972017284 0.6137774101 0.6349471519 0.6535234072 0.6708171044);
    }
    procBoundary34to28
    {
        type            processor;
        value           nonuniform List<scalar> 
32
(
0.4685551572
0.4627811447
0.460271888
0.4599304438
0.4576540977
0.4525072547
0.4488028582
0.447581539
0.4457706635
0.4414112691
0.4389505678
0.4390537353
0.4380018743
0.4345345504
0.4313939145
0.43032531
0.4290409386
0.4259389969
0.422140083
0.4242974232
0.5547146419
1.652839672
0.5155925909
0.5139213432
0.5083996336
0.5003365734
0.4972639775
0.4957164855
0.491297253
0.4845780508
0.4832624287
0.4832624287
)
;
    }
    procBoundary34to29
    {
        type            processor;
        value           uniform 1.910170193;
    }
    procBoundary34to33
    {
        type            processor;
        value           nonuniform List<scalar> 
61
(
0.6853574509
0.7011932701
0.7220116077
0.7434888443
0.7637018897
0.7794397052
0.7959863375
0.8159370378
0.839561757
0.8598853197
0.877304673
0.8960779287
0.9180965133
0.9383519941
0.9553798131
0.9708212041
0.983593478
0.9920832441
0.9968781725
0.9990622984
0.9997929919
0.9999679799
0.9999967166
0.999999785
0.9999999913
0.9999999998
1
1
1
1
1
1
1
1
1
1
1
1
1
1
1
1
1
1
1
1
1
1
1
1
1
1
1
1
1
1
1
1
1
1
1
)
;
    }
    procBoundary34to35
    {
        type            processor;
        value           nonuniform List<scalar> 
71
(
0.9461489446
0.485507588
0.4531804418
0.459097135
0.4696621568
0.4798424732
0.4915644596
0.5017023783
0.5107592475
0.5195461521
0.5286948418
0.54116098
0.5536097956
0.5637632526
0.5732008655
0.582334076
0.5932511652
0.6070275709
0.6197638144
0.629945895
0.6392038475
0.6496989897
0.6635946998
0.6780796968
0.6897585804
0.699319655
0.709898417
0.7235176722
0.7396053382
0.7519973414
0.7624303975
0.7732334738
0.7876332109
0.8040883295
0.8169932475
0.8280862081
0.839090423
0.8548203735
0.8709942084
0.8709942084
0.8761270046
0.8892061966
0.900423236
0.9138871865
0.9296620237
0.9430598403
0.9546211619
0.9665360252
0.9775712385
0.9860263057
0.9922828437
0.996442815
0.9986512139
0.9995974512
0.9999110161
0.9999859755
0.999998497
0.9999998956
0.9999999955
0.9999999999
1
1
1
1
1
1
1
1
1
1
1
)
;
    }
}


// ************************************************************************* //
