/*--------------------------------*- C++ -*----------------------------------*\
  =========                 |
  \\      /  F ield         | OpenFOAM: The Open Source CFD Toolbox
   \\    /   O peration     | Website:  https://openfoam.org
    \\  /    A nd           | Version:  7
     \\/     M anipulation  |
\*---------------------------------------------------------------------------*/
FoamFile
{
    version     2.0;
    format      ascii;
    class       volScalarField;
    location    "4.3";
    object      rho;
}
// * * * * * * * * * * * * * * * * * * * * * * * * * * * * * * * * * * * * * //

dimensions      [1 -3 0 0 0 0 0];

internalField   nonuniform List<scalar> 
2222
(
0.8534691653
0.8461430829
0.839475239
0.8334982699
1.117774525
1.101545288
1.084977097
1.065779537
1.049374507
1.034798153
1.020974868
1.006000241
0.9935112634
0.9823379776
0.9719200925
0.9611485972
0.9515436359
0.9419740652
0.9324018945
0.9230922901
0.9149667151
0.9066833606
0.8984115462
0.8902992227
0.8848185713
0.879182631
0.8732616925
0.8655323193
0.858497835
0.8538714719
0.8484561731
0.8418475902
0.8331953954
0.8282393048
0.8231041677
1.09293563
1.077888951
1.062410372
1.044026621
1.028120717
1.014411456
1.001498894
0.9873787321
0.9755009068
0.9651631232
0.9553049938
0.9450933463
0.9358182889
0.9267686272
0.917936803
0.9086609018
0.9001355838
0.892157587
0.8845780463
0.8771215206
0.8720611021
0.8668275691
0.8612934281
0.8544259509
0.8475684358
0.8423129989
0.8372516572
0.830603235
0.8214222888
0.8171980314
0.8140352611
1.068812719
1.054261879
1.039283838
1.021738809
1.006572556
0.9936759299
0.9814265338
0.967878504
0.9566360805
0.9470822061
0.9378897681
0.9283215847
0.9194210792
0.9107991893
0.9020832832
0.8926332096
0.8845793984
0.8774076212
0.8704713363
0.8632571089
0.8584550914
0.8536581706
0.8481555801
0.84120354
0.8345369576
0.8293517548
0.824603777
0.8187621885
0.8105529984
0.805576039
0.8036116205
1.044702463
1.030997053
1.016906429
1.000550991
0.986215788
0.9742027715
0.9627645149
0.9498579276
0.9392593291
0.9303598498
0.9212574673
0.911850536
0.9033853788
0.8947363509
0.8863400986
0.8780220586
0.870539269
0.8634362701
0.8565992903
0.849507708
0.845051908
0.8404537314
0.8351348598
0.8284118245
0.8226758927
0.8180413251
0.813472834
0.8083516117
0.7998696959
0.7937225153
0.7928775772
1.020809745
1.008159454
0.9949516238
0.978994839
0.9645886168
0.9529597951
0.9420710269
0.9302824927
0.9204908555
0.9125806511
0.9046469693
0.8960375183
0.8873849519
0.8792377887
0.8714328192
0.8632385485
0.8554337192
0.8486350221
0.8424586885
0.835899662
0.831787067
0.8278176389
0.823024931
0.8170385993
0.8116480976
0.8071390375
0.8023720551
0.7972650612
0.7884170767
0.7828371025
0.7825365615
0.9980442592
0.9859740762
0.9732037118
0.957816483
0.9444339251
0.9345252507
0.9251764458
0.9143134091
0.9043392362
0.8962416317
0.8878870564
0.8787507359
0.8708347361
0.8634496724
0.8560278759
0.8483656643
0.8412898712
0.8351180872
0.829358954
0.8231803391
0.819149606
0.815316364
0.8106003585
0.8046674216
0.7992672643
0.7947825019
0.7898317096
0.7846432296
0.7768346708
0.773048894
0.771444147
0.9745802112
0.9630013499
0.9510954404
0.9370093051
0.9240361286
0.9141845729
0.9051681771
0.894276521
0.8849803951
0.8782292883
0.8712024229
0.8638206243
0.8568532119
0.8495241812
0.8420359106
0.8341908854
0.8269219225
0.8206234576
0.8151123785
0.8094334865
0.8059684318
0.8024199423
0.7983684836
0.7922535329
0.7866790796
0.7830649459
0.7793206921
0.7744260785
0.767435452
0.7624117687
0.7596577074
0.9516602609
0.9412615017
0.9305605553
0.9173918114
0.9048625687
0.8954733527
0.8867950511
0.8774638351
0.8693389076
0.8629554631
0.8561013477
0.848490551
0.8404914916
0.8328949688
0.8252355082
0.8174145288
0.8110883111
0.8062478815
0.8019648334
0.7972636122
0.7936120517
0.790351173
0.7859987071
0.7802761692
0.775650764
0.7725474502
0.7688851928
0.7630537073
0.7533438044
0.7504961176
0.7516416211
0.9293655485
0.9189652099
0.9083803415
0.895646041
0.8835543829
0.8757347579
0.8687850915
0.8607993125
0.8528762477
0.846604714
0.8397630994
0.8318326592
0.8246757506
0.8184721819
0.8123137238
0.8059076158
0.7998840835
0.7950598715
0.7903626139
0.7843560806
0.7808264104
0.7773770139
0.7735336058
0.7686979065
0.7643193602
0.7611990003
0.7564205904
0.7480345896
0.7417786743
0.7438935512
0.7570334834
0.9079592223
0.8982718073
0.8884903104
0.8766938042
0.8655595505
0.8578170987
0.850605386
0.8419825667
0.8341067553
0.8287998032
0.8231127078
0.8168788168
0.8108983164
0.805045491
0.7987460551
0.7917527814
0.785152661
0.7794123629
0.7740202905
0.7693464813
0.7672192147
0.7649424844
0.7621542838
0.7571992517
0.7520815818
0.7478461087
0.7430064057
0.7392699566
0.7407618821
0.7736901123
0.8816990262
0.8850285341
0.8757919355
0.8666243283
0.8558291466
0.8453462786
0.8387271823
0.8325358173
0.8254063355
0.8188803157
0.8142420573
0.8087936812
0.8026877014
0.7961556913
0.789633679
0.7826837131
0.7753816619
0.7692232105
0.7657202055
0.7628558963
0.760116708
0.7572400999
0.7547002771
0.7507651248
0.7437993916
0.7387870461
0.735900945
0.7350036915
0.7417322119
0.7954301387
0.9716904657
1.166988683
0.8648515155
0.8566326586
0.848148443
0.8377325075
0.8273750918
0.8208348809
0.814942725
0.8082942262
0.8016812015
0.7972924779
0.7923463498
0.7863782138
0.7800690626
0.7744071255
0.7691777345
0.7632351375
0.7585408799
0.7555849948
0.7526381143
0.7477331129
0.7443960739
0.7408855155
0.7360503692
0.7276526876
0.72733687
0.7294914572
0.7471372839
0.8515798142
1.043249294
1.166467076
1.263814017
0.8427400718
0.8349807233
0.8274658032
0.8178660298
0.8080383073
0.802733371
0.7977383115
0.7917588697
0.7859645381
0.782078291
0.7775591675
0.7720166602
0.766218304
0.7611048262
0.7559504283
0.7503247115
0.7454029725
0.7417456851
0.7369554646
0.7321838049
0.7298595321
0.7273726098
0.7236341904
0.7208096976
0.7252475411
0.7659265117
0.9066667239
1.119667193
1.26406288
1.274904701
1.29100644
0.822799987
0.8151938172
0.8078593299
0.7990508425
0.790146542
0.7852806302
0.7809102404
0.775625084
0.7697556381
0.7661223844
0.7618217649
0.7566423806
0.7514112192
0.7466795234
0.7412163573
0.7353822387
0.7304213544
0.7270810227
0.7242776507
0.7208021989
0.7182235985
0.7168974403
0.7164627209
0.727600839
0.8181649737
0.984628017
1.172315631
1.230808726
1.292704807
1.294593345
1.295866267
0.8002996413
0.7943482022
0.7888492815
0.7818381625
0.7737800738
0.7687883524
0.7641263809
0.7583468248
0.7528367414
0.7500989141
0.7465452052
0.742475929
0.737934673
0.7326060608
0.7276810801
0.7219158553
0.7177905675
0.7154804327
0.7133142839
0.7079394396
0.7090451056
0.7115705629
0.7505439805
0.8775102359
1.083898475
1.237210516
1.292871631
1.275777718
1.284838281
1.292993977
1.296814857
0.7814999564
0.7758647453
0.770487932
0.7635134613
0.7554798325
0.7510881278
0.7470948646
0.7430097096
0.7389930271
0.7365794913
0.7334489504
0.7291863505
0.7236231062
0.7182645506
0.7135487126
0.7094905574
0.70525888
0.7028384227
0.6982256113
0.6984820336
0.7080805908
0.7849367715
0.9683457664
1.169027783
1.218125523
1.271399985
1.302794571
1.297137311
1.289294684
1.290462818
1.293407895
0.7617447721
0.7568132534
0.7521081453
0.7458963768
0.7383661771
0.7345702456
0.7310788213
0.727194204
0.7228607577
0.7203538765
0.7171344672
0.7126070274
0.7069498573
0.7038362684
0.7001445591
0.6954556314
0.6900218262
0.6902364434
0.6919419986
0.7266863001
0.8449854799
1.046632202
1.194551774
1.287680903
1.281727138
1.282582877
1.293748356
1.293777577
1.291669957
1.289177278
1.288823518
0.7415050463
0.7369835654
0.7329581272
0.7278108712
0.7220308759
0.7187743757
0.7158201927
0.7118000542
0.7068512431
0.704867343
0.7023594187
0.6988189541
0.6956200986
0.6915612568
0.6871516091
0.679974692
0.6800665898
0.6880608224
0.7480329692
0.9438665379
1.152699221
1.264610393
1.276641857
1.296980956
1.296929398
1.286423461
1.286525244
1.28880621
1.288836448
1.288547134
1.287788573
0.7209155715
0.7192555639
0.7170626906
0.713238993
0.7078103512
0.7042298836
0.7003681997
0.6956356298
0.6915182814
0.6901007224
0.6880872679
0.685520909
0.6811152614
0.6761929878
0.6717709903
0.6720188853
0.6909026681
0.8073877748
1.031274635
1.151839551
1.239555264
1.289178157
1.282664074
1.286011531
1.289141919
1.28589966
1.28478122
1.285753979
1.286966138
1.287113409
1.286818661
0.7047686147
0.7029403688
0.7008714136
0.695874533
0.6884819676
0.6860992184
0.6833697584
0.6805568015
0.6778843095
0.6760209964
0.6734212142
0.6695687245
0.6627115855
0.6631883149
0.6690980224
0.7193099522
0.8815506422
1.106642546
1.25572915
1.261624361
1.268447522
1.277824249
1.274079172
1.271888187
1.276005644
1.281580206
1.28337789
1.283420609
1.283538983
1.284036258
1.284190533
0.6862188867
0.6831870034
0.6805434696
0.6764193726
0.6722025255
0.6718057966
0.6709702663
0.6684622543
0.664259823
0.6600692611
0.6569204547
0.6522245524
0.6535001784
0.673297758
0.7940301064
0.981962306
1.164089191
1.220298534
1.274843095
1.280065849
1.27739214
1.275266512
1.272752278
1.270589128
1.272864037
1.276934819
1.279655503
1.280186137
1.279662057
1.279714468
1.280036823
0.6666908579
0.6651090384
0.6642593226
0.6621787898
0.6589706351
0.6585152751
0.6570682303
0.6535715378
0.6468081867
0.6431749514
0.6436347094
0.6469534404
0.7053643344
0.8713791695
1.080857302
1.231280149
1.274277067
1.257817218
1.265733787
1.275141753
1.277072836
1.275729663
1.275613738
1.274753023
1.275098773
1.27566681
1.276320084
1.276766027
1.276334505
1.275510756
1.275425417
0.6491740573
0.6476365418
0.6474021257
0.6447146612
0.640961981
0.6408225278
0.6395665716
0.6359325157
0.6314314474
0.6328358433
0.6494285289
0.749376418
0.9832535396
1.192197285
1.227141359
1.263519822
1.283730009
1.277857399
1.269229437
1.269573856
1.271895797
1.274659058
1.275920258
1.275968613
1.275600146
1.274879885
1.273405276
1.273138596
1.272841925
1.272265289
1.271855137
0.6354449653
0.6332840145
0.631358407
0.6276249932
0.6249383979
0.6248678295
0.6245666386
0.6231533183
0.6261443909
0.6828107173
0.8418118429
1.072662821
1.164135581
1.244720553
1.241420086
1.251768992
1.272895093
1.274184905
1.269365123
1.266688563
1.26527089
1.267362009
1.27054736
1.272628398
1.273051518
1.272295048
1.270289513
1.269514455
1.269263139
1.269242795
1.268853693
0.6187150224
0.613855198
0.6117912553
0.6108699108
0.6095536634
0.6104660003
0.612667932
0.6324051945
0.7385704485
0.9666109029
1.165378966
1.251924548
1.244062861
1.2504601
1.248471372
1.250280747
1.259362885
1.268389913
1.268167458
1.265163031
1.263174562
1.260753571
1.26176763
1.263529168
1.264903048
1.265872209
1.265842914
1.265768127
1.26578242
1.265973243
1.265728139
0.5980630747
0.5986221225
0.5991803888
0.5970378994
0.5972057789
0.6012097404
0.6547307181
0.8378431208
1.084174919
1.157992427
1.219456741
1.268158543
1.26147486
1.254273162
1.252181334
1.251504836
1.25476206
1.26161644
1.263707849
1.263126651
1.261807449
1.258259218
1.255137564
1.255024096
1.255806653
1.258055149
1.260729132
1.261577622
1.26163653
1.261473508
1.261456152
0.5900509723
0.5890188296
0.5857590548
0.5848157311
0.6026315193
0.7088923573
0.9458064428
1.14688064
1.242347368
1.237863428
1.233637552
1.250276565
1.251802653
1.249034579
1.249487666
1.250762445
1.252770061
1.255643419
1.256850726
1.257496236
1.257023558
1.254764182
1.251365041
1.250647141
1.25094783
1.252594583
1.255145893
1.256007886
1.255983072
1.255632474
1.255709142
0.5735661162
0.5738236318
0.5755712595
0.6236548022
0.8183414143
1.047527355
1.18664306
1.209258761
1.244860344
1.250248956
1.243921036
1.24198176
1.239966534
1.239977541
1.241747151
1.24602481
1.247723481
1.248361396
1.248653131
1.24877348
1.248932628
1.248256764
1.247141071
1.247051089
1.24724713
1.247915003
1.249299866
1.249859902
1.249808407
1.249506543
1.249539344
0.5643624275
0.5741961566
0.6794688778
0.9344715304
1.137389557
1.219455295
1.231039045
1.223180802
1.228080361
1.238295736
1.236034036
1.235154295
1.233037454
1.231187389
1.232134957
1.236607315
1.241313378
1.241369357
1.241081473
1.240365585
1.240315184
1.240560304
1.240991076
1.241637989
1.242287635
1.242551226
1.242720469
1.242743635
1.242769597
1.242857639
1.243269803
0.5824675726
0.7899943525
1.081830237
1.176577895
1.197992738
1.232030198
1.23224916
1.222142356
1.219128199
1.223917314
1.228008307
1.228495751
1.227741536
1.225373563
1.225183294
1.227994966
1.232574227
1.234318637
1.234225898
1.233156362
1.23207629
1.232089423
1.232739404
1.233577601
1.234626872
1.235201104
1.235291676
1.235222087
1.235460833
1.2363685
1.237679484
0.5591023299
0.752121429
1.093331682
1.198313682
1.229359961
1.193476046
1.225906041
1.228862743
1.219935872
1.215311691
1.218193621
1.224131614
1.224524397
1.224020401
1.222218124
1.222581917
1.225311218
1.22908281
1.230814843
1.230587144
1.229471475
1.228252427
1.228270281
1.228979369
1.229537793
1.230616826
1.231357761
1.231285994
1.231251612
1.231637431
1.232386231
1.233443051
0.571082699
0.9105843344
1.167635333
1.21213873
1.23003148
1.195540921
1.226522
1.228677675
1.219720519
1.215280692
1.218280225
1.224136503
1.2244735
1.224062943
1.222697102
1.223207576
1.225943046
1.229389565
1.23039289
1.229997121
1.228794674
1.227895483
1.228244906
1.228788317
1.229060601
1.229858726
1.230654645
1.23069511
1.230818327
1.231213501
1.232062566
1.232485059
0.6363578114
1.049835598
1.190776655
1.226101171
1.235727075
1.200102552
1.229929903
1.230070027
1.221143557
1.215671734
1.218674073
1.22463329
1.224691127
1.224180204
1.223363782
1.22428482
1.227006279
1.230054057
1.230875438
1.230333655
1.22884199
1.227632598
1.227954943
1.228719769
1.229344589
1.229719688
1.230238931
1.230139404
1.230223755
1.230772514
1.231897108
1.232545733
0.7751633142
1.13502611
1.201395201
1.232032605
1.242236201
1.205432578
1.234159939
1.232704662
1.223407674
1.217611017
1.220108454
1.226324467
1.226127672
1.225050359
1.224618484
1.225747806
1.228449224
1.231539767
1.232225956
1.231564743
1.229517579
1.227785627
1.22778829
1.228668603
1.229545754
1.229738775
1.230061108
1.229666369
1.229640123
1.230332921
1.231664456
1.232643942
0.8813241712
1.152447443
1.204414894
1.235080247
1.246221697
1.210306427
1.237656645
1.236572377
1.227134566
1.220471978
1.223426773
1.229006706
1.228740364
1.226894801
1.226423672
1.227822796
1.230299302
1.232989111
1.233860246
1.233153654
1.231298852
1.22885003
1.228121724
1.228820098
1.229943256
1.230626284
1.22999331
1.229467816
1.229489789
1.230153892
1.231451585
1.232432929
1.028622046
1.181954626
1.210509705
1.236720926
1.246837461
1.211943819
1.240736499
1.239451991
1.22977488
1.223577949
1.226568441
1.231952217
1.232131315
1.231173233
1.230106955
1.230885163
1.23276814
1.234652126
1.235071911
1.234133887
1.232488064
1.230864974
1.229729751
1.229300205
1.230158251
1.231314399
1.231366037
1.230534495
1.230105659
1.23044346
1.231677737
1.232522112
1.147461437
1.227589526
1.214915506
1.238611323
1.248431326
1.214818431
1.242672579
1.243437168
1.233307353
1.22657472
1.229627502
1.234750474
1.234815302
1.234335105
1.233860799
1.234828737
1.236433196
1.237737289
1.237358781
1.235880569
1.234027916
1.232818566
1.23204558
1.231414585
1.231210423
1.232277643
1.232955787
1.232542772
1.232096594
1.232070429
1.232372656
1.232982976
1.176494728
1.239385466
1.21990041
1.239491076
1.251554071
1.218654747
1.241972119
1.244739904
1.235393294
1.228737247
1.231547608
1.236142106
1.236393989
1.236564668
1.236797263
1.238017975
1.239538579
1.240423392
1.240123884
1.23864944
1.236727262
1.235239714
1.234106905
1.233299683
1.233129555
1.234007606
1.235260827
1.235882565
1.235992517
1.236286731
1.236188009
1.235196095
1.190986312
1.240120749
1.220665891
1.24065094
1.25302631
1.219439318
1.241215727
1.244170649
1.23517937
1.229438602
1.232311038
1.237289752
1.237895583
1.238647483
1.239355704
1.24078638
1.242069079
1.242595579
1.242444833
1.241243797
1.239410381
1.237654226
1.236336053
1.235298483
1.235160004
1.235986362
1.237590359
1.239854431
1.241787312
1.242401134
1.242345142
1.240597575
1.086636371
1.22172576
1.235159479
1.220336637
1.240967667
1.252837109
1.219253963
1.240482304
1.243975931
1.23515253
1.230319585
1.233606176
1.238952455
1.239538274
1.239790597
1.240373089
1.241642897
1.242832369
1.244115241
1.244549004
1.243363114
1.241234344
1.239382174
1.238154599
1.237232849
1.237154113
1.237908206
1.239403434
1.242391871
1.246694992
1.24853557
1.248724895
1.246936709
1.143342732
1.246316064
1.225284053
1.220011279
1.24117077
1.252189394
1.219209818
1.24032055
1.244882627
1.23608017
1.231763698
1.234828698
1.239194335
1.240193206
1.240332843
1.240908879
1.242150992
1.24341286
1.244928793
1.245149871
1.243844972
1.242054771
1.240476333
1.239462362
1.238752266
1.23886125
1.239731861
1.241400453
1.244996632
1.249617493
1.252494581
1.253070155
1.251929305
1.219425804
1.248690611
1.225780316
1.220915739
1.241057763
1.252030168
1.220200518
1.24018943
1.245993064
1.237407081
1.232724472
1.235170757
1.239106094
1.240230309
1.241345506
1.242293566
1.243718825
1.244909797
1.245435287
1.245028288
1.244076915
1.242853131
1.241588781
1.240687477
1.239883287
1.24001813
1.241004558
1.242725405
1.246081352
1.251353622
1.255198095
1.255626946
1.254762432
1.242666024
1.246226904
1.232514394
1.223497194
1.241396258
1.252658887
1.222382653
1.240005389
1.246192796
1.237949686
1.232994999
1.235309768
1.23900774
1.24066106
1.242817574
1.244267298
1.245357085
1.245764276
1.245743468
1.245340297
1.244946935
1.244075594
1.242888934
1.241719717
1.240586846
1.240765325
1.241824024
1.243684528
1.24717542
1.252057642
1.256083178
1.256760539
1.256263753
1.24584124
1.234285207
1.239604818
1.224524551
1.241469313
1.25397418
1.223448972
1.239647961
1.246194805
1.238103932
1.233367096
1.235760378
1.239737695
1.242031474
1.243869865
1.245314381
1.245806814
1.246069204
1.246135442
1.246270426
1.245762809
1.244625943
1.243508841
1.24216574
1.240947262
1.241187949
1.242246386
1.244488847
1.248107398
1.252726803
1.256860608
1.257721538
1.257192465
1.2326698
1.227364278
1.239452172
1.224402782
1.241404126
1.25435565
1.223547646
1.238908958
1.245639222
1.238388723
1.234194694
1.23690262
1.241315459
1.243243732
1.244139303
1.245471697
1.245862972
1.246108446
1.246638216
1.24695169
1.246222335
1.244796407
1.243521166
1.242274648
1.241264544
1.241615175
1.242756206
1.244952138
1.248122001
1.252995402
1.257101941
1.257962416
1.257529811
1.223826259
1.229941633
1.23860347
1.223903644
1.241127293
1.254318502
1.223322526
1.237889432
1.245628922
1.239008552
1.235402623
1.238240697
1.242294852
1.243861774
1.244381201
1.245578962
1.245997938
1.246354257
1.247095313
1.247151566
1.246454446
1.245152274
1.243680102
1.242402729
1.241622254
1.242050597
1.24307432
1.244485485
1.246804577
1.251126055
1.255619357
1.257943776
1.257993135
1.228793388
1.239829914
1.234723776
1.222551213
1.240262035
1.253510144
1.223344218
1.237069908
1.245813288
1.240006673
1.23624965
1.238605957
1.242427111
1.244179506
1.244895502
1.246126724
1.246575267
1.247022303
1.247557488
1.247267758
1.246643886
1.245641843
1.24429161
1.242667432
1.241953943
1.242356171
1.243151321
1.243832549
1.24440644
1.246097866
1.249064181
1.252909235
1.234725002
1.242399159
1.243501353
1.232050448
1.223087868
1.240443391
1.253122655
1.223792523
1.236714197
1.246034415
1.240630523
1.236526506
1.238652551
1.242275685
1.244600943
1.246009058
1.24740391
1.247744988
1.247923251
1.247875895
1.247429453
1.24696745
1.246394544
1.245440022
1.243359203
1.24224875
1.242497175
1.243068563
1.243492376
1.243980242
1.243729343
1.244431972
1.245946582
1.249791641
1.245217992
1.243525499
1.233043834
1.224623245
1.240773935
1.253285955
1.224956488
1.236559323
1.246147447
1.240852668
1.236648853
1.238736179
1.242285264
1.245347058
1.247173371
1.248417618
1.248508884
1.248368268
1.247946229
1.247772118
1.247520015
1.247104842
1.246291479
1.244369991
1.24273541
1.242635905
1.242963425
1.243408807
1.243713338
1.242743631
1.242484318
1.243086361
1.250248225
1.244641956
1.239185015
1.236439937
1.2273854
1.241512249
1.253587987
1.225957113
1.23640139
1.246176078
1.241275367
1.236895302
1.239145993
1.243059322
1.246217911
1.247607846
1.248715946
1.248771361
1.248703174
1.248291441
1.24798368
1.247567976
1.24698795
1.246389165
1.244995554
1.243619331
1.243125196
1.243068275
1.243507724
1.243610353
1.242587033
1.242388908
1.241960802
1.246963927
1.238639446
1.234870644
1.239982542
1.228303849
1.241679154
1.253649
1.226076461
1.23581958
1.246080729
1.241678807
1.237935463
1.240472931
1.244252804
1.246545401
1.247532332
1.24863206
1.248755353
1.248748684
1.248612429
1.248402037
1.247576204
1.246788353
1.246186751
1.245227314
1.244400006
1.243987648
1.243771202
1.244012495
1.243881893
1.242830486
1.242341765
1.241926543
1.237477162
1.233439427
1.23566997
1.240623006
1.228340091
1.241702597
1.253519882
1.225938392
1.234997483
1.245872532
1.242273325
1.239324231
1.241478151
1.244779119
1.246660194
1.247370922
1.248621741
1.248799588
1.248813036
1.248895674
1.248755477
1.2478435
1.246718495
1.246070176
1.245335086
1.244993789
1.244876261
1.244855209
1.245155307
1.244673529
1.242933533
1.2421875
1.242251806
1.236456567
1.235057298
1.240851012
1.240762676
1.227659105
1.241358991
1.253244749
1.226090161
1.23514868
1.24599045
1.243057219
1.239806133
1.241494686
1.244804949
1.24681979
1.247500547
1.248936222
1.249120993
1.24910908
1.249292249
1.248973732
1.248274338
1.24702854
1.246036827
1.245595326
1.245503749
1.245538659
1.245622749
1.246220144
1.245943811
1.243986343
1.242511691
1.24264152
1.239287711
1.240559729
1.245534142
1.23938606
1.226940789
1.24159479
1.252927317
1.226594659
1.235440285
1.246137562
1.243270408
1.239776553
1.241366879
1.244868402
1.247037759
1.248091549
1.249556103
1.249658899
1.249436306
1.249408714
1.24929407
1.248731988
1.247773679
1.246552038
1.246061759
1.245899747
1.245840899
1.245966812
1.246711848
1.246827682
1.245628346
1.243783337
1.243542002
1.24495726
1.244136681
1.245942955
1.238345848
1.227452882
1.242062497
1.252632634
1.227535996
1.235773423
1.246259887
1.243280715
1.239812998
1.241453954
1.245293159
1.247172106
1.248795057
1.249964229
1.249871242
1.249447479
1.249284461
1.249156811
1.249023134
1.248223683
1.247309906
1.246607696
1.246152165
1.245901824
1.246144086
1.247172711
1.24766672
1.246901178
1.245299506
1.244900664
1.249511776
1.24498645
1.243446362
1.244091962
1.23859782
1.228918638
1.242577107
1.252400814
1.228117286
1.236015925
1.246314204
1.243532914
1.240281719
1.242117365
1.245828722
1.247156943
1.248889316
1.250181197
1.250058197
1.249432001
1.249225329
1.248967633
1.248680184
1.248159792
1.247761312
1.247197044
1.246468028
1.246099509
1.246479406
1.247758791
1.248177137
1.247434901
1.246100778
1.246014801
1.248575418
1.243668547
1.241129271
1.241245868
1.240156107
1.229823643
1.24263965
1.252209655
1.228374453
1.236168861
1.246379784
1.243943753
1.241577648
1.243345175
1.246019602
1.247017415
1.248794099
1.250179449
1.250181384
1.249793215
1.249539676
1.248924882
1.248267326
1.247722013
1.247736313
1.247584735
1.246980739
1.246613952
1.247155139
1.248369392
1.24850218
1.247949001
1.246928389
1.2467567
1.244469114
1.240049004
1.239653587
1.241175553
1.24157915
1.22989565
1.242546403
1.251898428
1.228484018
1.235983592
1.246465736
1.244680081
1.242960141
1.244012154
1.246173846
1.246756535
1.248227946
1.250093431
1.250256822
1.250115562
1.249982566
1.249252199
1.248076779
1.247551811
1.247688064
1.247846984
1.247776109
1.247727891
1.248205587
1.249076556
1.249199422
1.248761115
1.247689707
1.247364417
1.241891847
1.240214269
1.240658002
1.242608803
1.241595875
1.229694856
1.242096889
1.251405966
1.228325455
1.235538369
1.246501335
1.245231262
1.24323645
1.244127991
1.246250785
1.246542679
1.247987015
1.250003577
1.250381191
1.250451334
1.250281599
1.249491965
1.248330063
1.247680378
1.247874947
1.248143699
1.248601297
1.249289681
1.249912913
1.250578805
1.250878895
1.250398865
1.248825808
1.248053903
1.242682535
1.241538823
1.24325828
1.244822257
1.241373731
1.228685957
1.241292244
1.250699035
1.228152073
1.235505496
1.246517635
1.245283352
1.243281219
1.244138166
1.246166249
1.246786917
1.248350866
1.250139897
1.250318125
1.25021611
1.250248194
1.24962642
1.248666918
1.248255011
1.248539141
1.248689129
1.249040393
1.250242694
1.251655302
1.252878269
1.253359926
1.252933534
1.25104308
1.249334696
1.246335356
1.24468581
1.245780123
1.245296564
1.239832276
1.227965864
1.24104621
1.249794712
1.228393408
1.235755483
1.246577212
1.24524504
1.243334975
1.244260669
1.24610165
1.246975885
1.248907271
1.250507396
1.250579788
1.2501232
1.249705879
1.249273538
1.248824825
1.248745181
1.249033331
1.248921095
1.249151901
1.250513132
1.252664133
1.254592094
1.255184923
1.254860504
1.253039827
1.25117962
1.24822205
1.245416068
1.246162215
1.245319619
1.238540191
1.228247707
1.241212568
1.248795741
1.228849406
1.235953206
1.24665386
1.24542236
1.243552859
1.244626377
1.246056723
1.247100191
1.249181044
1.250868326
1.250745993
1.250209843
1.249490057
1.248406968
1.248581677
1.248892387
1.249272124
1.249126913
1.24940796
1.250935708
1.253648378
1.255750285
1.256183718
1.255516428
1.254046453
1.252531931
1.247079101
1.244244167
1.245258709
1.242969628
1.238980263
1.228882613
1.241693746
1.248026222
1.228912353
1.235921432
1.246712651
1.245865388
1.244292416
1.245050779
1.245861741
1.246692828
1.24911176
1.250945324
1.250898935
1.250428858
1.24960902
1.248202363
1.247776342
1.248329199
1.249273857
1.249359285
1.249992651
1.25199206
1.254698855
1.256363214
1.256558156
1.256034808
1.255051065
1.24723837
1.243258614
1.241638983
1.242314335
1.241433811
1.23987834
1.229382363
1.242513092
1.247458964
1.228925435
1.235601635
1.246329223
1.246565033
1.245085791
1.245345736
1.245893202
1.246490075
1.248428238
1.25072383
1.251094357
1.250703783
1.249977309
1.24844663
1.247341835
1.247579359
1.248629399
1.249478591
1.250674814
1.253027573
1.255110157
1.256627272
1.256799792
1.256459287
1.25554623
1.243811554
1.241135294
1.241169416
1.241047292
1.241778312
1.240264562
1.229639297
1.243147064
1.246922368
1.22885241
1.235289934
1.246160848
1.247310478
1.245353258
1.245521683
1.245933283
1.246594324
1.248274001
1.250266015
1.250983246
1.250867863
1.25014306
1.248688573
1.247224069
1.247406546
1.248294334
1.249633839
1.251412772
1.252624074
1.254333022
1.256056566
1.256753531
1.256547329
1.255721238
1.244400741
1.242004212
1.242204408
1.241458338
1.242843202
1.240255559
1.229316728
1.243388659
1.246371896
1.228907651
1.235534543
1.24647731
1.247110766
1.245251298
1.245483329
1.246225136
1.247149741
1.248734277
1.250196062
1.25058037
1.250311229
1.249924588
1.248738787
1.247725894
1.247764553
1.248641328
1.249544311
1.250828382
1.252071401
1.253311277
1.254621159
1.255668867
1.255764945
1.255509002
1.24571874
1.243805534
1.243959163
1.242036492
1.243442176
1.239801342
1.228672061
1.243271881
1.246072775
1.229437329
1.236169712
1.247085017
1.24704485
1.245168202
1.245295231
1.246390033
1.247791743
1.249554939
1.250626291
1.250503007
1.249689836
1.248575877
1.248420458
1.248161673
1.248336437
1.249146907
1.249809892
1.250751969
1.251813218
1.252890606
1.253919983
1.254421231
1.254256871
1.25419834
1.24737444
1.245843478
1.24479884
1.242191199
1.243608748
1.238983553
1.228668732
1.242926923
1.246106431
1.230165664
1.236993813
1.247620011
1.247351535
1.245314868
1.24529351
1.246150217
1.248087494
1.250251966
1.251221008
1.25087975
1.249721813
1.247557795
1.247317536
1.248208778
1.248673599
1.249592465
1.25016088
1.251126789
1.25217345
1.253329493
1.254070229
1.254107632
1.253710544
1.253186124
1.246867772
1.245715416
1.244452172
1.241345064
1.242858576
1.238839082
1.229103496
1.243010254
1.24603547
1.231192584
1.237228168
1.247885907
1.247881105
1.245728575
1.24554621
1.246167477
1.247846762
1.250493655
1.251548398
1.2513021
1.249963369
1.247582498
1.246491472
1.247192837
1.248544503
1.249880373
1.251139853
1.251966841
1.252930235
1.254113667
1.254379994
1.254375226
)
;

boundaryField
{
    inlet
    {
        type            calculated;
        value           nonuniform 0();
    }
    outlet
    {
        type            calculated;
        value           nonuniform 0();
    }
    bottom
    {
        type            calculated;
        value           nonuniform 0();
    }
    top
    {
        type            calculated;
        value           nonuniform 0();
    }
    obstacle
    {
        type            calculated;
        value           nonuniform 0();
    }
    defaultFaces
    {
        type            empty;
    }
    procBoundary10to4
    {
        type            processor;
        value           nonuniform List<scalar> 
32
(
0.8657141578
0.8588483836
0.849781531
0.8452761668
1.142169524
1.125307341
1.107921054
1.087805306
1.070983757
1.055853282
1.041278741
1.025225301
1.01209862
1.000604321
0.9899595878
0.9792606999
0.9695549947
0.9595382053
0.9494671673
0.9395253011
0.9306053042
0.9219141765
0.9136862613
0.9052037805
0.8991174831
0.8933016857
0.8872380727
0.8785853486
0.8710770986
0.8660722536
0.8601584329
0.8601584329
)
;
    }
    procBoundary10to5
    {
        type            processor;
        value           uniform 0.8312278177;
    }
    procBoundary10to9
    {
        type            processor;
        value           nonuniform List<scalar> 
55
(
1.135911211
1.110037609
1.085200636
1.060542814
1.035756436
1.012156803
0.9885692228
0.9652481647
0.9418532077
0.9202361209
0.8971002963
0.8757939185
0.8533527731
0.8335140416
0.8106665251
0.7908802151
0.7703397353
0.7518559128
0.7303628323
0.711237967
0.6953707884
0.6760718151
0.6557775374
0.6402319268
0.6256106794
0.6005394486
0.5908470145
0.5772695544
0.563535759
0.5583220299
0.5583220299
0.5573978887
0.5574623622
0.5582694912
0.5600368494
0.5689652379
0.6265173998
0.7291395142
0.8952457168
1.037723839
1.037723839
0.7421392233
0.8995075586
0.9812747373
1.094712262
1.204052655
1.229665815
1.218368894
1.219604907
1.219604907
1.198879502
1.246357244
1.255927965
1.255037519
1.244200531
)
;
    }
    procBoundary10to11
    {
        type            processor;
        value           nonuniform List<scalar> 
70
(
0.8202045356
0.8101105762
0.7996582634
0.79032367
0.7800820432
0.7690528636
0.7585752033
0.755965797