/*--------------------------------*- C++ -*----------------------------------*\
  =========                 |
  \\      /  F ield         | OpenFOAM: The Open Source CFD Toolbox
   \\    /   O peration     | Website:  https://openfoam.org
    \\  /    A nd           | Version:  7
     \\/     M anipulation  |
\*---------------------------------------------------------------------------*/
FoamFile
{
    version     2.0;
    format      ascii;
    class       volVectorField;
    location    "1";
    object      U;
}
// * * * * * * * * * * * * * * * * * * * * * * * * * * * * * * * * * * * * * //

dimensions      [0 1 -1 0 0 0 0];

internalField   nonuniform List<vector> 
2222
(
(3 2.596628847e-15 0)
(3 2.762112217e-15 0)
(3 3.575764621e-15 0)
(3 4.538729448e-15 0)
(3 -7.101501892e-15 0)
(3 -7.816287681e-15 0)
(3 -8.504921634e-15 0)
(3 -8.416125993e-15 0)
(3 -7.060258172e-15 0)
(3 -6.283278381e-15 0)
(3 -6.272754677e-15 0)
(3 -5.668874531e-15 0)
(3 -5.285160202e-15 0)
(3 -4.787731684e-15 0)
(3 -4.424867061e-15 0)
(3 -3.676993073e-15 0)
(3 -1.854990128e-15 0)
(3 -9.013954099e-16 0)
(3 -2.080987477e-16 0)
(3 -1.730401422e-16 0)
(3 6.718879853e-17 0)
(3 5.990969661e-16 0)
(3 1.496922197e-15 0)
(3 2.117954527e-15 0)
(3 1.393499914e-15 0)
(3 1.14083655e-15 0)
(3 3.454051065e-16 0)
(3 -4.928357437e-17 0)
(3 -6.894258658e-16 0)
(3 -1.590432646e-16 0)
(3 7.70198475e-16 0)
(3 1.081462583e-15 0)
(3 3.184736556e-16 0)
(3 1.049431832e-15 0)
(3 -6.829852171e-15 0)
(3 -5.692766347e-15 0)
(3 -5.13868065e-15 0)
(3 -3.976743804e-15 0)
(3 -1.925802037e-15 0)
(3 -1.142358408e-15 0)
(3 -9.626254702e-16 0)
(3 -9.130754543e-16 0)
(3 -4.461620357e-16 0)
(3 -8.139215479e-16 0)
(3 -1.162176178e-15 0)
(3 -2.763708677e-15 0)
(3 -3.942349313e-15 0)
(3 -4.752605912e-15 0)
(3 -5.021542912e-15 0)
(3 -5.532596611e-15 0)
(3 -5.918608904e-15 0)
(3 -6.469829907e-15 0)
(3 -6.501457055e-15 0)
(3 -6.728191157e-15 0)
(3 -7.11946897e-15 0)
(3 -7.558508124e-15 0)
(3 -5.849740855e-15 0)
(3 -5.045304276e-15 0)
(3 -5.466443778e-15 0)
(3 -6.581335548e-15 0)
(3 -8.697806527e-15 0)
(3 -9.470170978e-15 0)
(3 -9.174327118e-15 0)
(3 -7.502970712e-15 0)
(3 -6.824605645e-15 0)
(3 -5.30709061e-15 0)
(3 -4.504787704e-15 0)
(3 -4.006469833e-15 0)
(3 -4.345071291e-15 0)
(3 -3.980898133e-15 0)
(3 -3.122693221e-15 0)
(3 -2.124076289e-15 0)
(3 -8.114536743e-16 0)
(3 1.409990356e-16 0)
(3 -1.493103324e-16 0)
(3 -9.84691437e-16 0)
(3 4.01217275e-17 0)
(3 7.213242556e-16 0)
(3 2.286735473e-15 0)
(3 2.853664099e-15 0)
(3 3.109243899e-15 0)
(3 1.855294205e-15 0)
(3 -7.152460557e-16 0)
(3 -2.386502149e-15 0)
(3 -2.026240871e-15 0)
(3 -1.601879741e-15 0)
(3 -1.957655578e-15 0)
(3 -2.066182227e-15 0)
(3 -2.771154155e-15 0)
(3 -2.611408871e-15 0)
(3 -3.317191802e-15 0)
(3 -2.952939665e-15 0)
(3 -2.685334859e-15 0)
(3 -3.050992995e-15 0)
(3 -3.987282946e-15 0)
(3 -4.813934315e-15 0)
(3 -5.641158108e-15 0)
(3 -6.426076151e-15 0)
(3 -7.684512582e-15 0)
(3 -8.263953271e-15 0)
(3 -7.735009381e-15 0)
(3 -7.744725516e-15 0)
(3 -7.222211501e-15 0)
(3 -6.25999739e-15 0)
(3 -5.119214771e-15 0)
(3 -5.08386953e-15 0)
(3 -5.318722474e-15 0)
(3 -4.72266613e-15 0)
(3 -4.552692899e-15 0)
(3 -4.083065296e-15 0)
(3 -4.062566548e-15 0)
(3 -3.892212354e-15 0)
(3 -3.327817872e-15 0)
(3 -3.24925679e-15 0)
(3 -3.921416065e-15 0)
(3 -4.033986851e-15 0)
(3 -4.702824029e-15 0)
(3 -7.31181468e-15 0)
(3 -8.643459697e-15 0)
(3 -8.596879447e-15 0)
(3 -8.074362299e-15 0)
(3 -7.453437658e-15 0)
(3 -5.874239717e-15 0)
(3 -5.159296154e-15 0)
(3 -4.765892892e-15 0)
(3 -4.455101889e-15 0)
(3 -4.530185277e-15 0)
(3 -4.699425487e-15 0)
(3 -5.197099576e-15 0)
(3 -5.454133037e-15 0)
(3 -5.90024588e-15 0)
(3 -5.403945372e-15 0)
(3 -4.108814049e-15 0)
(3 -3.934351496e-15 0)
(3 -4.105792094e-15 0)
(3 -3.409172058e-15 0)
(3 -2.374925956e-15 0)
(3 -2.37900772e-15 0)
(3 -2.356094638e-15 0)
(3 -2.409958313e-15 0)
(3 -2.429683304e-15 0)
(3 -2.13571734e-15 0)
(3 -1.900569251e-15 0)
(3 -7.854676849e-16 0)
(3 -1.100859357e-16 0)
(3 1.045097308e-15 0)
(3 1.699116111e-15 0)
(3 2.148773766e-15 0)
(3 1.66112104e-15 0)
(3 8.742402918e-16 0)
(3 4.067805853e-16 0)
(3 7.517007013e-16 0)
(3 -9.371508656e-16 0)
(3 -2.211550593e-15 0)
(3 -2.777736503e-15 0)
(3 -1.634104283e-15 0)
(3 -1.843816132e-15 0)
(3 -2.077235909e-15 0)
(3 -2.214752233e-15 0)
(3 -2.766178676e-15 0)
(3 -2.771310674e-15 0)
(3 -2.323315166e-15 0)
(3 -1.625750537e-15 0)
(3 -1.263624662e-15 0)
(3 -1.898781649e-15 0)
(3 -4.118037117e-15 0)
(3 -5.129740863e-15 0)
(3 -5.779139014e-15 0)
(3 -5.76981462e-15 0)
(3 -6.55950533e-15 0)
(3 -6.652919782e-15 0)
(3 -6.070203833e-15 0)
(3 -6.032211789e-15 0)
(3 -5.955315536e-15 0)
(3 -6.532810674e-15 0)
(3 -6.177453896e-15 0)
(3 -5.685231402e-15 0)
(3 -5.532203881e-15 0)
(3 -5.001638024e-15 0)
(3 -4.325459657e-15 0)
(3 -3.762568179e-15 0)
(3 -3.860975446e-15 0)
(3 -4.317984224e-15 0)
(3 -5.946018863e-15 0)
(3 -7.925766631e-15 0)
(3 -8.339945606e-15 0)
(3 -7.272917551e-15 0)
(3 -6.258638502e-15 0)
(3 -5.792615182e-15 0)
(3 -5.689584842e-15 0)
(3 -4.232174505e-15 0)
(3 -2.522396157e-15 0)
(3 -2.304579627e-15 0)
(3 -2.350812842e-15 0)
(3 -2.539439456e-15 0)
(3 -3.365881367e-15 0)
(3 -5.141841657e-15 0)
(3 -4.989212481e-15 0)
(3 -4.547293736e-15 0)
(3 -4.597893522e-15 0)
(3 -3.228407342e-15 0)
(3 -1.632977215e-15 0)
(3 -7.326065614e-16 0)
(3 -6.200791541e-16 0)
(3 -5.435438859e-16 0)
(3 -5.689034864e-16 0)
(3 -8.09692038e-16 0)
(3 -7.657496908e-16 0)
(3 -9.460419125e-16 0)
(3 -1.139154153e-15 0)
(3 -1.558840581e-15 0)
(3 -1.939518096e-15 0)
(3 -1.472326253e-15 0)
(3 3.967847356e-16 0)
(3 7.199964449e-16 0)
(3 -4.977262832e-16 0)
(3 -1.521794137e-15 0)
(3 -2.861287107e-15 0)
(3 -3.354219116e-15 0)
(3 -3.140218644e-15 0)
(3 -3.499226003e-15 0)
(3 7.325505959e-16 0)
(3 8.011212979e-16 0)
(3 3.486201013e-16 0)
(3 4.07832375e-16 0)
(3 9.164931656e-16 0)
(3 1.711746736e-15 0)
(3 2.618568877e-15 0)
(3 2.987230098e-15 0)
(3 2.57940598e-15 0)
(3 1.848435682e-15 0)
(3 2.334877573e-16 0)
(3 -3.187586053e-16 0)
(3 1.675073688e-16 0)
(3 -1.593282044e-15 0)
(3 -3.820523691e-15 0)
(3 -5.37861369e-15 0)
(3 -6.990117266e-15 0)
(3 -7.308981654e-15 0)
(3 -7.257875357e-15 0)
(3 -6.888649573e-15 0)
(3 -5.79642758e-15 0)
(3 -5.117480546e-15 0)
(3 -5.174054478e-15 0)
(3 -5.835647736e-15 0)
(3 -6.48644569e-15 0)
(3 -5.842711742e-15 0)
(3 -5.095983382e-15 0)
(3 -4.773737115e-15 0)
(3 -4.313608459e-15 0)
(3 -4.072637328e-15 0)
(3 -3.900563152e-15 0)
(3 -3.784246442e-15 0)
(3 -3.608290108e-15 0)
(3 -3.654007465e-15 0)
(3 -3.483940828e-15 0)
(3 -2.962829501e-15 0)
(3 -2.990002418e-15 0)
(3 -9.322061153e-16 0)
(3 2.25075146e-16 0)
(3 1.59599898e-15 0)
(3 7.425504339e-16 0)
(3 -5.736850861e-16 0)
(3 -1.151640968e-15 0)
(3 -1.134843694e-15 0)
(3 -3.463900175e-16 0)
(3 6.298982607e-16 0)
(3 1.494899951e-15 0)
(3 1.658423368e-15 0)
(3 1.853245959e-15 0)
(3 6.845723644e-16 0)
(3 -7.30331079e-17 0)
(3 -9.362493703e-16 0)
(3 -9.840459429e-16 0)
(3 -9.423738777e-16 0)
(3 -1.42345931e-15 0)
(3 -2.051083216e-15 0)
(3 -2.324544356e-15 0)
(3 -2.438099543e-15 0)
(3 -2.673960926e-15 0)
(3 -2.670151366e-15 0)
(3 -2.780488301e-15 0)
(3 -4.213541174e-15 0)
(3 -5.779033925e-15 0)
(3 -6.192530617e-15 0)
(3 -5.956829962e-15 0)
(3 -6.225503517e-15 0)
(3 3.189356627e-15 0)
(3 3.709789189e-15 0)
(3 3.793152965e-15 0)
(3 4.493417037e-15 0)
(3 5.840453016e-15 0)
(3 6.857382834e-15 0)
(3 6.859996279e-15 0)
(3 6.315345595e-15 0)
(3 4.648925668e-15 0)
(3 4.027444751e-15 0)
(3 3.437398402e-15 0)
(3 3.163668877e-15 0)
(3 3.408075335e-15 0)
(3 6.040608123e-16 0)
(3 -2.526691142e-15 0)
(3 -3.05047411e-15 0)
(3 -4.5957802e-15 0)
(3 -6.228094415e-15 0)
(3 -7.25278888e-15 0)
(3 -7.098329229e-15 0)
(3 -6.44699325e-15 0)
(3 -6.203439985e-15 0)
(3 -6.058664302e-15 0)
(3 -6.043548563e-15 0)
(3 -5.743218271e-15 0)
(3 -5.55065715e-15 0)
(3 -4.240873569e-15 0)
(3 -2.289742576e-15 0)
(3 -1.768132154e-15 0)
(3 -6.628867001e-16 0)
(3 -3.280341364e-17 0)
(3 5.729060362e-16 0)
(3 6.604616917e-16 0)
(3 6.799828233e-16 0)
(3 3.488381485e-16 0)
(3 1.329623632e-16 0)
(3 1.923329604e-16 0)
(3 2.675142545e-15 0)
(3 5.522301817e-15 0)
(3 6.003072931e-15 0)
(3 5.590939948e-15 0)
(3 5.215219994e-15 0)
(3 4.9878833e-15 0)
(3 4.618145107e-15 0)
(3 4.405305616e-15 0)
(3 2.715729675e-15 0)
(3 1.350145479e-15 0)
(3 1.698879603e-15 0)
(3 1.496204947e-15 0)
(3 1.055972908e-15 0)
(3 8.567794287e-16 0)
(3 2.54498961e-16 0)
(3 -2.072932112e-16 0)
(3 -1.321889784e-15 0)
(3 -2.374590941e-15 0)
(3 -2.993435841e-15 0)
(3 -2.977138774e-15 0)
(3 -3.440655416e-15 0)
(3 -4.605873799e-15 0)
(3 -4.942761509e-15 0)
(3 -4.684180651e-15 0)
(3 -4.404495953e-15 0)
(3 -4.59178728e-15 0)
(3 -6.278452345e-15 0)
(3 -8.591215847e-15 0)
(3 -7.050509561e-15 0)
(3 2.033005891e-15 0)
(3 2.989901236e-15 0)
(3 3.747668099e-15 0)
(3 4.427422274e-15 0)
(3 5.259399779e-15 0)
(3 6.268456941e-15 0)
(3 6.65487714e-15 0)
(3 6.992924248e-15 0)
(3 7.435578932e-15 0)
(3 7.14457414e-15 0)
(3 6.815395735e-15 0)
(3 6.084970448e-15 0)
(3 4.759610894e-15 0)
(3 3.380484876e-15 0)
(3 1.892559398e-15 0)
(3 5.243644575e-16 0)
(3 -6.523509539e-16 0)
(3 -2.209648038e-15 0)
(3 -4.2121238e-15 0)
(3 -5.043623839e-15 0)
(3 -6.660433223e-15 0)
(3 -6.940578461e-15 0)
(3 -7.090085785e-15 0)
(3 -6.643243538e-15 0)
(3 -5.494399191e-15 0)
(3 -3.582119941e-15 0)
(3 -9.933651689e-16 0)
(3 4.245730088e-17 0)
(3 4.835802422e-17 0)
(3 1.510318939e-15 0)
(3 2.311505585e-15 0)
(3 2.184684777e-15 0)
(3 2.037898398e-15 0)
(3 1.570370721e-15 0)
(3 1.706647498e-15 0)
(3 2.184803908e-15 0)
(3 3.319627097e-15 0)
(3 4.250583491e-15 0)
(3 5.606756419e-15 0)
(3 5.401902952e-15 0)
(3 5.31797299e-15 0)
(3 6.083386432e-15 0)
(3 6.203226683e-15 0)
(3 5.459770451e-15 0)
(3 3.351321335e-15 0)
(3 1.746783155e-15 0)
(3 3.212978161e-16 0)
(3 -6.156633522e-16 0)
(3 -6.341641294e-16 0)
(3 3.902141571e-16 0)
(3 9.322723743e-16 0)
(3 1.215849689e-15 0)
(3 6.321074688e-16 0)
(3 -3.871609206e-16 0)
(3 -2.058111161e-15 0)
(3 -2.841762247e-15 0)
(3 -2.849069314e-15 0)
(3 -4.062906716e-15 0)
(3 -4.928773252e-15 0)
(3 -5.049606055e-15 0)
(3 -4.253937566e-15 0)
(3 -3.559412907e-15 0)
(3 -4.459009174e-15 0)
(3 -7.088158231e-15 0)
(3 -7.441170677e-15 0)
(3 -4.178304328e-15 0)
(3 3.790928039e-15 0)
(3 3.625734578e-15 0)
(3 2.939882193e-15 0)
(3 2.551765583e-15 0)
(3 2.421990306e-15 0)
(3 2.008828514e-15 0)
(3 2.303054169e-15 0)
(3 5.788224922e-15 0)
(3 6.270977344e-15 0)
(3 6.808499335e-15 0)
(3 6.66456891e-15 0)
(3 6.63985138e-15 0)
(3 5.005445263e-15 0)
(3 4.185393514e-15 0)
(3 3.750146151e-15 0)
(3 3.277414787e-15 0)
(3 1.807287748e-15 0)
(3 2.95919676e-16 0)
(3 -1.944045209e-15 0)
(3 -3.338851335e-15 0)
(3 -4.560608722e-15 0)
(3 -4.792178434e-15 0)
(3 -4.373399324e-15 0)
(3 -3.935025546e-15 0)
(3 -2.819580465e-15 0)
(3 -1.572971723e-15 0)
(3 -4.091280714e-16 0)
(3 -8.587388258e-16 0)
(3 -1.83196162e-15 0)
(3 -1.718694116e-15 0)
(3 -9.5062458e-16 0)
(3 -3.589109392e-16 0)
(3 -2.862008562e-16 0)
(3 -3.998373191e-16 0)
(3 1.640126922e-16 0)
(3 2.261910874e-15 0)
(3 2.707936359e-15 0)
(3 2.866521404e-15 0)
(3 3.084510086e-15 0)
(3 4.316559023e-15 0)
(3 5.053072655e-15 0)
(3 5.534405807e-15 0)
(3 5.552959867e-15 0)
(3 4.607026957e-15 0)
(3 4.136559854e-15 0)
(3 3.943587871e-15 0)
(3 2.520674275e-15 0)
(3 1.330001541e-15 0)
(3 -1.971748893e-16 0)
(3 -2.486541884e-16 0)
(3 -1.355680171e-16 0)
(3 -3.874700083e-16 0)
(3 -1.140162129e-15 0)
(3 -1.823016215e-15 0)
(3 -2.10396186e-15 0)
(3 -2.985940626e-15 0)
(3 -3.79383846e-15 0)
(3 -4.213616548e-15 0)
(3 -4.469341394e-15 0)
(3 -4.309840567e-15 0)
(3 -5.064115992e-15 0)
(3 -4.679425864e-15 0)
(3 -4.836724611e-15 0)
(3 -4.958959278e-15 0)
(3 -5.217333841e-15 0)
(3 -4.770584388e-15 0)
(3 4.001151352e-15 0)
(3 3.661496984e-15 0)
(3 2.868703894e-15 0)
(3 1.748747506e-15 0)
(3 9.234025621e-16 0)
(3 1.127826812e-15 0)
(3 2.110554381e-15 0)
(3 2.619467051e-15 0)
(3 3.636978947e-15 0)
(3 3.772381771e-15 0)
(3 4.661691571e-15 0)
(3 3.817635469e-15 0)
(3 2.979114346e-15 0)
(3 1.944769119e-15 0)
(3 8.727927949e-16 0)
(3 3.532109773e-16 0)
(3 4.937038289e-16 0)
(3 8.564799411e-16 0)
(3 -9.455342846e-16 0)
(3 -2.144711816e-15 0)
(3 -3.18824565e-15 0)
(3 -3.094331848e-15 0)
(3 -2.829493168e-15 0)
(3 -8.846626578e-16 0)
(3 2.216330195e-16 0)
(3 6.697502067e-16 0)
(3 1.021513486e-15 0)
(3 7.888499791e-16 0)
(3 -4.605917941e-16 0)
(3 -9.263685161e-16 0)
(3 -9.517813584e-16 0)
(3 -8.937494254e-16 0)
(3 -2.535505618e-16 0)
(3 1.157709221e-15 0)
(3 2.385825845e-15 0)
(3 4.231739839e-15 0)
(3 4.718078339e-15 0)
(3 4.240314202e-15 0)
(3 3.963414239e-15 0)
(3 4.416214263e-15 0)
(3 5.000720209e-15 0)
(3 3.654664457e-15 0)
(3 3.210234776e-15 0)
(3 3.243295946e-15 0)
(3 3.43350437e-15 0)
(3 4.14364471e-15 0)
(3 4.415985586e-15 0)
(3 3.989896605e-15 0)
(3 3.594141771e-15 0)
(3 2.531863808e-15 0)
(3 1.047559626e-15 0)
(3 7.834112545e-17 0)
(3 -8.554277627e-16 0)
(3 -1.259821749e-15 0)
(3 -1.758156004e-15 0)
(3 -2.433580382e-15 0)
(3 -3.118738194e-15 0)
(3 -2.88654164e-15 0)
(3 -2.294134199e-15 0)
(3 -2.355723771e-15 0)
(3 -3.731174591e-15 0)
(3 -4.344146637e-15 0)
(3 -3.778091868e-15 0)
(3 -2.76490619e-15 0)
(3 -2.674775016e-15 0)
(3 -4.49882774e-15 0)
(3 -1.135472356e-15 0)
(3 -9.548420987e-16 0)
(3 -2.292544941e-16 0)
(3 -2.901168931e-16 0)
(3 5.86768146e-19 0)
(3 1.047194247e-15 0)
(3 1.048947646e-15 0)
(3 9.900766783e-16 0)
(3 1.540642838e-15 0)
(3 5.667846117e-16 0)
(3 9.04588337e-16 0)
(3 8.653923841e-16 0)
(3 8.56321923e-16 0)
(3 6.707308063e-16 0)
(3 1.649880792e-16 0)
(3 -1.716502425e-16 0)
(3 9.866333599e-17 0)
(3 1.399936001e-16 0)
(3 -1.973577378e-16 0)
(3 -1.491832311e-15 0)
(3 -1.84080362e-15 0)
(3 -1.776110979e-15 0)
(3 -1.067741733e-15 0)
(3 -2.500725173e-16 0)
(3 5.43519126e-16 0)
(3 1.964450372e-16 0)
(3 -1.266416749e-17 0)
(3 1.279599322e-15 0)
(3 2.852224636e-15 0)
(3 2.447794413e-15 0)
(3 1.921655798e-15 0)
(3 1.766825903e-15 0)
(3 2.850078515e-15 0)
(3 4.416483445e-15 0)
(3 5.05635398e-15 0)
(3 5.244463053e-15 0)
(3 5.020250062e-15 0)
(3 4.985166868e-15 0)
(3 4.379155899e-15 0)
(3 3.717337215e-15 0)
(3 3.444246746e-15 0)
(3 3.468319998e-15 0)
(3 3.308059883e-15 0)
(3 2.96419588e-15 0)
(3 2.800309385e-15 0)
(3 3.096138889e-15 0)
(3 3.818333412e-15 0)
(3 4.89926696e-15 0)
(3 4.377090657e-15 0)
(3 3.043369836e-15 0)
(3 2.236569541e-15 0)
(3 1.347705072e-15 0)
(3 3.662264235e-16 0)
(3 2.392787552e-16 0)
(3 -3.870459536e-16 0)
(3 -7.17018939e-16 0)
(3 -1.493065925e-15 0)
(3 -1.965621734e-15 0)
(3 -2.236523491e-15 0)
(3 -2.439903732e-15 0)
(3 -1.985825316e-15 0)
(3 -2.200260814e-15 0)
(3 -1.885120968e-15 0)
(3 -1.717191462e-15 0)
(3 -9.533112601e-16 0)
(3 -2.149288406e-16 0)
(3 -4.621217289e-15 0)
(3 -3.161056038e-15 0)
(3 -1.524284855e-15 0)
(3 -6.848612558e-16 0)
(3 -2.431639798e-16 0)
(3 -5.686198173e-16 0)
(3 -8.761781885e-16 0)
(3 -7.529157427e-16 0)
(3 -1.078192947e-15 0)
(3 -3.407948714e-16 0)
(3 3.144083307e-16 0)
(3 1.247137718e-15 0)
(3 1.731895862e-15 0)
(3 1.95416425e-15 0)
(3 2.220358859e-15 0)
(3 2.279782704e-15 0)
(3 1.541685799e-15 0)
(3 9.332029663e-16 0)
(3 7.854126771e-16 0)
(3 5.224033831e-16 0)
(3 8.889377772e-16 0)
(3 9.967068134e-16 0)
(3 1.219935046e-15 0)
(3 1.083969826e-15 0)
(3 5.796689619e-16 0)
(3 7.106047131e-16 0)
(3 9.556488701e-16 0)
(3 1.450226951e-15 0)
(3 2.279895823e-15 0)
(3 3.106478553e-15 0)
(3 3.630813955e-15 0)
(3 3.450115692e-15 0)
(3 4.46791716e-15 0)
(3 4.662849416e-15 0)
(3 5.201677278e-15 0)
(3 5.293048436e-15 0)
(3 5.057779542e-15 0)
(3 4.866384572e-15 0)
(3 4.723224836e-15 0)
(3 4.248728313e-15 0)
(3 3.59584227e-15 0)
(3 3.466505687e-15 0)
(3 3.645942649e-15 0)
(3 2.569849492e-15 0)
(3 2.109695642e-15 0)
(3 1.921461059e-15 0)
(3 2.156700918e-15 0)
(3 2.125071076e-15 0)
(3 9.226553213e-16 0)
(3 -1.508639001e-16 0)
(3 -4.51102179e-16 0)
(3 1.482286415e-17 0)
(3 5.893566535e-16 0)
(3 4.262636351e-16 0)
(3 -4.672462986e-17 0)
(3 -7.961342757e-16 0)
(3 -2.236865345e-15 0)
(3 -3.723723966e-15 0)
(3 -3.615513243e-15 0)
(3 -2.035009526e-15 0)
(3 2.452684108e-16 0)
(3 1.486516967e-15 0)
(3 1.365489647e-15 0)
(3 6.128541804e-16 0)
(3 4.121091074e-16 0)
(3 1.822849999e-15 0)
(3 -1.080621608e-15 0)
(3 -4.188152328e-16 0)
(3 -1.507246234e-17 0)
(3 -9.663295225e-17 0)
(3 -5.981057171e-16 0)
(3 -1.296088618e-15 0)
(3 -1.471733309e-15 0)
(3 -1.6461548e-15 0)
(3 -1.220124717e-15 0)
(3 -3.411035449e-16 0)
(3 1.202921395e-16 0)
(3 1.036652607e-15 0)
(3 1.316739638e-15 0)
(3 1.57925742e-15 0)
(3 1.592624408e-15 0)
(3 1.634505883e-15 0)
(3 1.891497562e-15 0)
(3 2.064250178e-15 0)
(3 2.009569408e-15 0)
(3 3.155872419e-15 0)
(3 3.63513221e-15 0)
(3 4.136928591e-15 0)
(3 4.35522798e-15 0)
(3 3.314940866e-15 0)
(3 1.967884355e-15 0)
(3 2.209095823e-15 0)
(3 2.710965583e-15 0)
(3 2.671008824e-15 0)
(3 3.115084112e-15 0)
(3 4.129000259e-15 0)
(3 6.458323468e-15 0)
(3 7.360224306e-15 0)
(3 7.124254289e-15 0)
(3 6.203735889e-15 0)
(3 5.471535106e-15 0)
(3 4.40441804e-15 0)
(3 4.246586608e-15 0)
(3 3.166864051e-15 0)
(3 2.794095926e-15 0)
(3 2.647289153e-15 0)
(3 2.331653508e-15 0)
(3 2.382778961e-15 0)
(3 2.493703554e-15 0)
(3 2.073482643e-15 0)
(3 1.536857204e-15 0)
(3 1.199422425e-15 0)
(3 4.220670532e-16 0)
(3 -7.232693645e-16 0)
(3 -1.544286843e-15 0)
(3 -2.703105575e-15 0)
(3 -2.655894222e-15 0)
(3 -2.06519849e-15 0)
(3 -1.420056353e-15 0)
(3 -1.270293395e-15 0)
(3 -1.24654661e-15 0)
(3 -1.982005205e-15 0)
(3 -3.000828825e-15 0)
(3 -4.468352229e-15 0)
(3 -2.467524045e-15 0)
(3 -1.27870743e-15 0)
(3 -7.768448572e-16 0)
(3 -1.128082628e-16 0)
(3 4.259187073e-16 0)
(3 1.56478497e-15 0)
(3 1.396964101e-15 0)
(3 1.584068923e-15 0)
(3 2.985663264e-16 0)
(3 -2.010127465e-16 0)
(3 -4.382499822e-16 0)
(3 6.570569674e-16 0)
(3 1.333691577e-15 0)
(3 2.091852442e-15 0)
(3 2.269930047e-15 0)
(3 1.830309544e-15 0)
(3 1.15399485e-15 0)
(3 6.45392616e-16 0)
(3 9.342483518e-17 0)
(3 5.695662287e-16 0)
(3 1.872260093e-15 0)
(3 2.473178218e-15 0)
(3 2.621735389e-15 0)
(3 2.718585035e-15 0)
(3 2.900310588e-15 0)
(3 2.814177899e-15 0)
(3 3.244068875e-15 0)
(3 4.286869237e-15 0)
(3 5.246852069e-15 0)
(3 5.982584743e-15 0)
(3 6.010463129e-15 0)
(3 5.199125778e-15 0)
(3 5.553987104e-15 0)
(3 5.288916044e-15 0)
(3 5.314333956e-15 0)
(3 5.402982519e-15 0)
(3 5.419081974e-15 0)
(3 5.826443819e-15 0)
(3 6.403861326e-15 0)
(3 7.109677167e-15 0)
(3 5.752808554e-15 0)
(3 3.984540933e-15 0)
(3 3.393412071e-15 0)
(3 3.180567458e-15 0)
(3 2.490681209e-15 0)
(3 1.707587604e-15 0)
(3 1.281390628e-15 0)
(3 1.251758937e-15 0)
(3 1.195051413e-15 0)
(3 1.433329875e-15 0)
(3 1.569793214e-15 0)
(3 1.382287972e-15 0)
(3 7.622340414e-16 0)
(3 3.708493789e-16 0)
(3 -8.483514492e-16 0)
(3 -1.687287775e-15 0)
(3 -3.325386112e-15 0)
(3 -3.838421738e-15 0)
(3 -3.691590791e-15 0)
(3 -3.168541992e-15 0)
(3 -2.763864389e-15 0)
(3 -1.91083912e-15 0)
(3 -8.472048083e-16 0)
(3 -6.09677095e-16 0)
(3 -8.99218133e-16 0)
(3 -7.924934495e-16 0)
(3 9.22985182e-17 0)
(3 3.001901375e-16 0)
(3 8.825197752e-17 0)
(3 -1.336841735e-16 0)
(3 -1.735769282e-16 0)
(3 2.332367232e-17 0)
(3 -1.711326394e-17 0)
(3 8.56198007e-17 0)
(3 1.622295013e-15 0)
(3 1.954276348e-15 0)
(3 1.585818793e-15 0)
(3 1.901118999e-15 0)
(3 2.402614405e-15 0)
(3 2.252166031e-15 0)
(3 1.69395674e-15 0)
(3 1.362731151e-15 0)
(3 9.50377722e-16 0)
(3 2.017617151e-18 0)
(3 3.447126101e-17 0)
(3 8.20297828e-16 0)
(3 1.302568815e-15 0)
(3 1.763384254e-15 0)
(3 3.596641402e-15 0)
(3 4.111646891e-15 0)
(3 4.111258613e-15 0)
(3 4.033241054e-15 0)
(3 4.517958164e-15 0)
(3 4.92644037e-15 0)
(3 5.677264994e-15 0)
(3 6.293677583e-15 0)
(3 6.248381986e-15 0)
(3 7.243814153e-15 0)
(3 8.249563395e-15 0)
(3 8.113270782e-15 0)
(3 7.67814658e-15 0)
(3 7.314143896e-15 0)
(3 7.121800128e-15 0)
(3 6.606055145e-15 0)
(3 5.832583637e-15 0)
(3 6.06376518e-15 0)
(3 5.074890565e-15 0)
(3 4.256456439e-15 0)
(3 4.163189839e-15 0)
(3 4.148015182e-15 0)
(3 3.774545261e-15 0)
(3 3.672496709e-15 0)
(3 3.133839143e-15 0)
(3 2.379234095e-15 0)
(3 2.446860321e-15 0)
(3 1.423450593e-15 0)
(3 3.869680062e-16 0)
(3 3.420244801e-16 0)
(3 2.20111508e-16 0)
(3 -8.800252781e-17 0)
(3 -2.00976994e-15 0)
(3 -2.892829407e-15 0)
(3 -3.206472677e-15 0)
(3 -3.420027374e-15 0)
(3 -3.800610912e-15 0)
(3 -3.387336171e-15 0)
(3 -3.122662226e-15 0)
(3 -1.870806538e-15 0)
(3 -8.201629603e-16 0)
(3 -1.241152837e-16 0)
(3 -9.50637192e-17 0)
(3 2.23728129e-16 0)
(3 2.348340693e-15 0)
(3 2.486398449e-15 0)
(3 2.062968516e-15 0)
(3 6.737143999e-16 0)
(3 -3.174209845e-16 0)
(3 -1.36678706e-15 0)
(3 -1.44829652e-15 0)
(3 -1.506833953e-15 0)
(3 2.32299761e-15 0)
(3 2.30906471e-15 0)
(3 1.691737428e-15 0)
(3 1.416029765e-15 0)
(3 1.324862862e-15 0)
(3 9.296851015e-16 0)
(3 8.586019227e-17 0)
(3 -1.872774266e-16 0)
(3 -5.271046448e-16 0)
(3 -6.227286733e-16 0)
(3 -3.457774345e-16 0)
(3 6.487170968e-16 0)
(3 9.195040975e-16 0)
(3 1.552885268e-15 0)
(3 2.693875113e-15 0)
(3 3.793025794e-15 0)
(3 4.027500567e-15 0)
(3 5.25733781e-15 0)
(3 6.819194805e-15 0)
(3 7.319469592e-15 0)
(3 7.290364972e-15 0)
(3 7.843103588e-15 0)
(3 8.112440328e-15 0)
(3 9.460048145e-15 0)
(3 9.834305623e-15 0)
(3 9.693534674e-15 0)
(3 9.376820647e-15 0)
(3 9.141618042e-15 0)
(3 9.259770653e-15 0)
(3 9.008384662e-15 0)
(3 8.658264762e-15 0)
(3 8.489931972e-15 0)
(3 8.42152215e-15 0)
(3 8.429845602e-15 0)
(3 7.695928089e-15 0)
(3 6.51709309e-15 0)
(3 6.580686369e-15 0)
(3 6.518729739e-15 0)
(3 6.030158805e-15 0)
(3 4.954628093e-15 0)
(3 3.715937249e-15 0)
(3 2.1394443e-15 0)
(3 6.991496149e-16 0)
(3 2.801522889e-16 0)
(3 6.49344317e-17 0)
(3 -1.939840466e-15 0)
(3 -3.968505423e-15 0)
(3 -4.388819749e-15 0)
(3 -3.814068231e-15 0)
(3 -3.175664408e-15 0)
(3 -2.308990158e-15 0)
(3 -1.986643821e-15 0)
(3 -2.055010015e-15 0)
(3 -2.426626283e-15 0)
(3 -2.189085798e-15 0)
(3 -1.599578029e-15 0)
(3 -4.94237688e-16 0)
(3 1.195321606e-15 0)
(3 1.16960241e-15 0)
(3 1.265708257e-15 0)
(3 9.187657732e-16 0)
(3 6.13683637e-16 0)
(3 -5.350613522e-16 0)
(3 -7.172961434e-16 0)
(3 1.177042098e-16 0)
(3 -7.373271998e-16 0)
(3 2.096413772e-15 0)
(3 1.830519333e-15 0)
(3 1.997958438e-15 0)
(3 1.92675966e-15 0)
(3 1.401586514e-15 0)
(3 1.336720778e-15 0)
(3 7.551925149e-16 0)
(3 7.338322249e-16 0)
(3 6.746333057e-16 0)
(3 6.345657373e-16 0)
(3 9.198832022e-16 0)
(3 1.627192723e-15 0)
(3 1.827385933e-15 0)
(3 2.190795594e-15 0)
(3 2.659578565e-15 0)
(3 3.677941124e-15 0)
(3 4.361518649e-15 0)
(3 5.392337152e-15 0)
(3 6.285196577e-15 0)
(3 6.593745434e-15 0)
(3 7.103262279e-15 0)
(3 8.006578236e-15 0)
(3 8.131759752e-15 0)
(3 8.44064983e-15 0)
(3 9.20018656e-15 0)
(3 9.564645258e-15 0)
(3 9.924487264e-15 0)
(3 1.040513152e-14 0)
(3 9.492156012e-15 0)
(3 8.783067254e-15 0)
(3 8.62045797e-15 0)
(3 9.011434835e-15 0)
(3 9.428385328e-15 0)
(3 7.082543219e-15 0)
(3 5.897755902e-15 0)
(3 5.084239794e-15 0)
(3 4.559622602e-15 0)
(3 4.910637807e-15 0)
(3 4.621955343e-15 0)
(3 3.204846422e-15 0)
(3 2.280339643e-15 0)
(3 1.474034409e-15 0)
(3 5.972417269e-16 0)
(3 -8.857921485e-16 0)
(3 -2.754868568e-15 0)
(3 -3.363631629e-15 0)
(3 -4.051519683e-15 0)
(3 -4.068145268e-15 0)
(3 -4.264247335e-15 0)
(3 -3.371810993e-15 0)
(3 -3.096332083e-15 0)
(3 -2.181324336e-15 0)
(3 -2.276188493e-15 0)
(3 -3.086530481e-15 0)
(3 -2.997687097e-15 0)
(3 -2.075923623e-15 0)
(3 -3.742540829e-16 0)
(3 6.657381168e-16 0)
(3 4.167424202e-16 0)
(3 7.461426148e-16 0)
(3 4.797717506e-16 0)
(3 3.552189806e-16 0)
(3 1.983103747e-16 0)
(3 5.9704412e-16 0)
(3 2.5823163e-16 0)
(3 4.191263477e-16 0)
(3 3.902388859e-15 0)
(3 3.945318407e-15 0)
(3 3.120556656e-15 0)
(3 2.118591382e-15 0)
(3 7.308261145e-16 0)
(3 -4.51887428e-17 0)
(3 6.04546168e-16 0)
(3 5.535363452e-16 0)
(3 1.13797433e-15 0)
(3 1.911233553e-15 0)
(3 2.365158182e-15 0)
(3 2.122074849e-15 0)
(3 1.60516929e-15 0)
(3 2.018606965e-15 0)
(3 2.552204668e-15 0)
(3 3.332276833e-15 0)
(3 5.781302947e-15 0)
(3 6.441745581e-15 0)
(3 6.917076094e-15 0)
(3 6.292707326e-15 0)
(3 5.898791941e-15 0)
(3 6.0693669e-15 0)
(3 7.04515198e-15 0)
(3 8.220792368e-15 0)
(3 9.046709065e-15 0)
(3 9.802687056e-15 0)
(3 1.07402813e-14 0)
(3 1.097712224e-14 0)
(3 1.081965919e-14 0)
(3 1.066502637e-14 0)
(3 1.024440144e-14 0)
(3 9.889123504e-15 0)
(3 9.091957847e-15 0)
(3 8.351193005e-15 0)
(3 7.585219227e-15 0)
(3 7.146427904e-15 0)
(3 4.167901327e-15 0)
(3 2.248060392e-15 0)
(3 1.711841427e-15 0)
(3 8.747090356e-16 0)
(3 2.284421061e-16 0)
(3 -7.780248557e-16 0)
(3 -1.155897432e-15 0)
(3 -2.405394142e-15 0)
(3 -2.664392239e-15 0)
(3 -3.018277156e-15 0)
(3 -2.316444417e-15 0)
(3 -1.70801726e-15 0)
(3 -2.005350052e-15 0)
(3 -1.547737786e-15 0)
(3 -2.07035626e-15 0)
(3 -2.712985809e-15 0)
(3 -2.836803221e-15 0)
(3 -2.506661999e-15 0)
(3 -2.949687672e-15 0)
(3 -3.56278599e-15 0)
(3 -2.579945103e-15 0)
(3 -2.065731494e-15 0)
(3 -2.069456973e-15 0)
(3 -2.22219202e-15 0)
(3 -1.848210002e-15 0)
(3 -1.371154051e-15 0)
(3 -3.818984706e-16 0)
(3 3.208471831e-17 0)
(3 -2.56356922e-16 0)
(3 2.996471928e-16 0)
(3 3.664028223e-15 0)
(3 3.612503937e-15 0)
(3 3.408088034e-15 0)
(3 2.771012586e-15 0)
(3 1.352358912e-15 0)
(3 7.329557468e-16 0)
(3 1.076068664e-15 0)
(3 1.64253192e-15 0)
(3 2.158917074e-15 0)
(3 2.495741558e-15 0)
(3 2.505296986e-15 0)
(3 2.582218278e-15 0)
(3 2.493105682e-15 0)
(3 2.579099312e-15 0)
(3 3.474912863e-15 0)
(3 3.667763247e-15 0)
(3 5.792454314e-15 0)
(3 6.945104362e-15 0)
(3 8.091968957e-15 0)
(3 8.256013436e-15 0)
(3 8.380242542e-15 0)
(3 8.764278472e-15 0)
(3 9.131764711e-15 0)
(3 9.01545261e-15 0)
(3 8.505098487e-15 0)
(3 8.914417771e-15 0)
(3 9.530780977e-15 0)
(3 1.028742625e-14 0)
(3 1.09666773e-14 0)
(3 1.021641466e-14 0)
(3 9.830874442e-15 0)
(3 8.089158372e-15 0)
(3 6.864545279e-15 0)
(3 7.161087787e-15 0)
(3 6.664069689e-15 0)
(3 5.766098717e-15 0)
(3 4.933611031e-15 0)
(3 3.831246642e-15 0)
(3 3.349893569e-15 0)
(3 3.419379415e-15 0)
(3 2.14024636e-15 0)
(3 6.853867986e-16 0)
(3 4.065123814e-18 0)
(3 -3.634834882e-16 0)
(3 -6.366463356e-16 0)
(3 -2.919367136e-16 0)
(3 2.762612674e-16 0)
(3 6.877759466e-17 0)
(3 1.713403645e-17 0)
(3 2.173174103e-16 0)
(3 -5.207361691e-16 0)
(3 -1.925033615e-15 0)
(3 -3.379583813e-15 0)
(3 -4.015591591e-15 0)
(3 -4.382559101e-15 0)
(3 -5.231364348e-15 0)
(3 -5.161347937e-15 0)
(3 -5.20863557e-15 0)
(3 -4.949899083e-15 0)
(3 -4.081840448e-15 0)
(3 -3.100528048e-15 0)
(3 -2.75720264e-15 0)
(3 -1.672927762e-15 0)
(3 -6.473676449e-16 0)
(3 7.860334053e-16 0)
(3 3.811833398e-16 0)
(3 3.395341916e-15 0)
(3 2.092580485e-15 0)
(3 1.818218212e-15 0)
(3 1.849416573e-15 0)
(3 1.827114776e-15 0)
(3 1.331948682e-15 0)
(3 1.020983733e-15 0)
(3 1.334250277e-15 0)
(3 1.853791729e-15 0)
(3 2.118016352e-15 0)
(3 2.748263393e-15 0)
(3 4.744715161e-15 0)
(3 5.902409997e-15 0)
(3 5.563920903e-15 0)
(3 6.045865195e-15 0)
(3 7.604469991e-15 0)
(3 8.022933205e-15 0)
(3 8.355470801e-15 0)
(3 9.012665177e-15 0)
(3 1.033714358e-14 0)
(3 1.101856605e-14 0)
(3 1.131582187e-14 0)
(3 1.036954212e-14 0)
(3 9.496760659e-15 0)
(3 8.028169253e-15 0)
(3 7.29529135e-15 0)
(3 7.952979672e-15 0)
(3 9.100568062e-15 0)
(3 9.199511254e-15 0)
(3 8.567257185e-15 0)
(3 8.436557951e-15 0)
(3 8.056981238e-15 0)
(3 7.290976836e-15 0)
(3 6.278241246e-15 0)
(3 5.411511429e-15 0)
(3 4.688094728e-15 0)
(3 3.699275451e-15 0)
(3 2.772638835e-15 0)
(3 2.447062193e-15 0)
(3 2.251394511e-15 0)
(3 1.826261379e-15 0)
(3 1.778399267e-15 0)
(3 1.180450894e-15 0)
(3 7.738065487e-16 0)
(3 3.501323192e-16 0)
(3 1.026998338e-16 0)
(3 7.732198205e-17 0)
(3 1.389800664e-17 0)
(3 4.125926122e-16 0)
(3 -3.022111219e-16 0)
(3 -7.3036046e-16 0)
(3 -5.657796148e-16 0)
(3 -1.344612594e-15 0)
(3 -2.804485347e-15 0)
(3 -2.86006504e-15 0)
(3 -2.382429357e-15 0)
(3 -2.168395802e-15 0)
(3 -1.873850566e-15 0)
(3 -1.815097662e-15 0)
(3 -1.644747648e-15 0)
(3 -1.374548944e-15 0)
(3 -1.614958612e-15 0)
(3 -1.538303242e-15 0)
(3 -1.959611854e-15 0)
(3 -2.430074487e-15 0)
(3 -2.461714063e-15 0)
(3 5.780024044e-15 0)
(3 4.121027299e-15 0)
(3 2.934079396e-15 0)
(3 1.167682629e-15 0)
(3 8.930612982e-16 0)
(3 6.809144377e-16 0)
(3 2.253918337e-15 0)
(3 4.848655618e-15 0)
(3 5.7111031e-15 0)
(3 6.040438272e-15 0)
(3 6.398419489e-15 0)
(3 7.949994612e-15 0)
(3 8.36275506e-15 0)
(3 9.609183132e-15 0)
(3 1.038120797e-14 0)
(3 9.983033521e-15 0)
(3 9.844802991e-15 0)
(3 9.49585451e-15 0)
(3 9.131617975e-15 0)
(3 9.829830309e-15 0)
(3 1.071202044e-14 0)
(3 1.049893258e-14 0)
(3 9.343734845e-15 0)
(3 8.932130317e-15 0)
(3 8.457538621e-15 0)
(3 7.756337683e-15 0)
(3 6.863885172e-15 0)
(3 6.423008962e-15 0)
(3 6.606828996e-15 0)
(3 6.649558593e-15 0)
(3 6.965925732e-15 0)
(3 6.887202509e-15 0)
(3 6.750590538e-15 0)
(3 6.880380847e-15 0)
(3 5.647972722e-15 0)
(3 4.317665907e-15 0)
(3 3.073784565e-15 0)
(3 2.313335783e-15 0)
(3 2.289007682e-15 0)
(3 2.520807218e-15 0)
(3 1.75668445e-15 0)
(3 1.347230031e-15 0)
(3 3.816468953e-16 0)
(3 -2.501940458e-16 0)
(3 -6.615786259e-17 0)
(3 -1.403208587e-15 0)
(3 -1.509866512e-15 0)
(3 -1.152285123e-15 0)
(3 -9.137663282e-16 0)
(3 -8.436718573e-16 0)
(3 -5.342804102e-16 0)
(3 7.683059968e-16 0)
(3 1.732373907e-15 0)
(3 2.249866042e-15 0)
(3 1.770942148e-15 0)
(3 1.413795162e-15 0)
(3 7.706214736e-16 0)
(3 4.403189917e-16 0)
(3 3.774754445e-16 0)
(3 8.134707321e-16 0)
(3 1.087238343e-15 0)
(3 1.452039792e-15 0)
(3 8.48113262e-16 0)
(3 -4.350437152e-16 0)
(3 -1.337670491e-15 0)
(3 -1.560443986e-15 0)
(3 1.348972085e-16 0)
(3 -7.628530809e-16 0)
(3 4.636563742e-16 0)
(3 2.015450743e-15 0)
(3 2.266709568e-15 0)
(3 3.824170733e-15 0)
(3 4.82657861e-15 0)
(3 5.34859075e-15 0)
(3 6.120999967e-15 0)
(3 7.376794874e-15 0)
(3 7.493682592e-15 0)
(3 8.027918301e-15 0)
(3 8.91547942e-15 0)
(3 1.058463468e-14 0)
(3 1.123550092e-14 0)
(3 1.146864562e-14 0)
(3 1.171723991e-14 0)
(3 1.144757116e-14 0)
(3 1.01317229e-14 0)
(3 1.014067985e-14 0)
(3 1.004230438e-14 0)
(3 9.748277077e-15 0)
(3 9.600957038e-15 0)
(3 9.211538188e-15 0)
(3 8.277988509e-15 0)
(3 7.660744739e-15 0)
(3 7.216864248e-15 0)
(3 6.463052875e-15 0)
(3 5.564507007e-15 0)
(3 6.251973582e-15 0)
(3 5.182543451e-15 0)
(3 4.547780254e-15 0)
(3 3.755422334e-15 0)
(3 4.126234129e-15 0)
(3 4.232004236e-15 0)
(3 4.214546573e-15 0)
(3 3.90770077e-15 0)