/*--------------------------------*- C++ -*----------------------------------*\
  =========                 |
  \\      /  F ield         | OpenFOAM: The Open Source CFD Toolbox
   \\    /   O peration     | Website:  https://openfoam.org
    \\  /    A nd           | Version:  7
     \\/     M anipulation  |
\*---------------------------------------------------------------------------*/
FoamFile
{
    version     2.0;
    format      ascii;
    class       volScalarField;
    location    "0.7";
    object      T;
}
// * * * * * * * * * * * * * * * * * * * * * * * * * * * * * * * * * * * * * //

dimensions      [0 0 0 1 0 0 0];

internalField   nonuniform List<scalar> 
2222
(
1.011877765
1.010149923
1.009990032
1.011115301
1.011914733
1.011682843
1.011051375
0.8939955727
0.870874296
0.845513931
0.8317076681
0.8281573461
0.8296337401
0.8338044368
0.8387127883
0.841387581
0.8422985803
0.8427713983
0.8438653369
0.8445812658
0.8448841373
0.8452709309
0.845620575
0.8462050781
0.8486626308
0.8624850532
0.9042573961
0.9657968758
0.9991092799
1.008099769
1.010065348
1.011408172
1.012068899
1.010136615
1.010013839
1.011375462
1.011780554
1.011436265
1.01073686
0.9037932318
0.9008690001
0.8922034493
0.8702577123
0.8449316734
0.831169646
0.8278152195
0.8294831907
0.8339455448
0.8389787514
0.8417175576
0.8425192667
0.8428301228
0.8438686029
0.8445972656
0.8449218818
0.8453253534
0.8456942887
0.8460755083
0.8475095581
0.8557928693
0.8904464437
0.9569805038
0.9987782259
1.008569585
1.010467265
1.011538456
1.012253302
1.010177789
1.010092264
1.011407725
1.011509867
1.011142439
1.010419928
0.903233937
0.8997191997
0.890154615
0.86925476
0.8439810948
0.8303086283
0.8273647714
0.8292176829
0.8338846596
0.8392212194
0.8421089622
0.842768812
0.8429114293
0.8438797693
0.8446359489
0.8450193153
0.8454619812
0.8458262972
0.845923408
0.8467690432
0.8522697878
0.8769091374
0.9351625486
0.9906953756
1.007701187
1.010332187
1.01162449
1.012378365
1.010053979
1.009821284
1.011179101
1.011147027
1.011024069
1.010342424
0.9032230358
0.8988504727
0.8886038463
0.8678430634
0.8424542074
0.829028649
0.8266543587
0.8286633913
0.8338832318
0.8395541368
0.8425560646
0.8431196386
0.8431550742
0.8440584965
0.8448503316
0.8453574962
0.8457401126
0.8458465487
0.8457955757
0.8462989265
0.8502112157
0.8673279714
0.9138817808
0.973874977
1.004666848
1.010233977
1.011725475
1.012240158
1.009771279
1.009443544
1.010853919
1.010909822
1.01106592
1.010370728
0.9036385063
0.8981772951
0.8871690643
0.8659716686
0.8404643575
0.8274760989
0.8256969613
0.8282439027
0.8340430232
0.8398886919
0.8429385281
0.8434264142
0.8435406509
0.8444859851
0.8453185286
0.8456741917
0.8458165926
0.8457954877
0.8457374218
0.8460082173
0.848434898
0.8622503873
0.9046520487
0.9615297819
0.9981380096
1.008931011
1.010910793
1.011777186
1.009538031
1.009094122
1.010434368
1.010896692
1.011270334
1.010473684
1.010584892
0.9046834832
0.8977821468
0.8859920124
0.8638652617
0.8382776103
0.8259382609
0.82496688
0.8279649072
0.8342385899
0.8402433554
0.8432356649
0.8436411782
0.8437843094
0.844712765
0.8455003303
0.8457692219
0.8457789725
0.8457672248
0.8457261921
0.8458563162
0.8473829762
0.8570373851
0.8952855265
0.9556961458
0.9942122434
1.007044062
1.010051213
1.01139864
1.009309013
1.008993345
1.010331561
1.01108407
1.011366051
1.010470808
1.010442352
0.9059568737
0.8976268081
0.8850595105
0.8616779302
0.8362550304
0.8248033593
0.8245652484
0.8278722556
0.834405948
0.8406186135
0.8434957944
0.8438188417
0.8439366612
0.8448070447
0.8455418415
0.8457788225
0.8457642589
0.8458089489
0.8457875861
0.8457226478
0.8464805739
0.8518552783
0.8794821969
0.9456444158
0.993368871
1.006461116
1.009862268
1.011409404
1.009699133
1.008996624
1.01038348
1.011216489
1.011349621
1.010463477
1.010287303
0.9073174818
0.8976470855
0.8843705848
0.8601264335
0.8345630633
0.823804292
0.8240256931
0.8276139245
0.8344747394
0.8408715962
0.8437532131
0.8440053367
0.8440683568
0.8448723688
0.8455616014
0.8458483438
0.8459449745
0.8460864035
0.8459180768
0.8456405792
0.8460353977
0.8499450403
0.8683133977
0.9227538905
0.9855416289
1.007150694
1.009868193
1.012099191
1.010107147
1.008988544
1.010491907
1.011156822
1.011277016
1.0103718
1.009920764
0.9088783803
0.8978805325
0.8838503854
0.8586458824
0.8329330108
0.8224508659
0.8229500196
0.827109491
0.8342928474
0.8408873026
0.8440076962
0.8442503219
0.8442752024
0.845068329
0.845756284
0.8461278178
0.8463087133
0.846259447
0.8459282262
0.845567918
0.8458279989
0.8486095743
0.8629995568
0.9041743835
0.9676001178
1.004409658
1.009889273
1.012593035
1.010439372
1.008717158
1.010365247
1.010909068
1.011074285
1.010004787
1.009566565
0.91144426
0.8982349916
0.8834869934
0.8574572527
0.8313245473
0.8205007297
0.8215342033
0.8264598357
0.834011038
0.8408262187
0.8442085431
0.8445169766
0.8445414469
0.8453405313
0.846082277
0.8464412843
0.8464996836
0.8462583816
0.8459038327
0.8455679222
0.8456663178
0.8470783073
0.8579346585
0.8951203369
0.9515203417
0.9963430223
1.009767424
1.012883563
1.010726587
1.00844599
1.010201038
1.010552728
1.010987209
1.009603305
1.009445412
0.9141041612
0.8989664357
0.8832486491
0.856573337
0.8300584736
0.8189406136
0.8206106886
0.8262469476
0.8339733981
0.8408285953
0.8443423573
0.8447546989
0.8447277649
0.8454604993
0.8462006268
0.8465395461
0.8465678134
0.8462249677
0.8459176324
0.8456964156
0.8455300274
0.8463060124
0.8526694357
0.8840783005
0.9438653258
0.9888650302
1.008126331
1.012828638
1.010696
1.008147922
1.00992712
1.010475493
1.010959378
1.009570454
1.009508738
0.9166052877
0.8998781472
0.8831324078
0.8559124382
0.8295315366
0.8180216587
0.8200121059
0.8262459901
0.8340233678
0.8408379937
0.844490487
0.8449716926
0.8448417135
0.8455213326
0.8462570214
0.8465570116
0.8466548503
0.8463082354
0.8460728579
0.8457985456
0.8454943808
0.8459238961
0.8501329829
0.8715546543
0.931952404
0.9845404449
1.005613825
1.011848558
1.010546578
1.008219527
1.009942113
1.010386263
1.011192138
1.009927724
1.009955879
0.9188984148
0.901009898
0.8831088205
0.8556483508
0.8289914177
0.816931571
0.8190879331
0.8260205112
0.8340326763
0.8408388793
0.8446427979
0.8451703751
0.8449792822
0.8456210672
0.8463798867
0.8466625764
0.8468603458
0.8465743051
0.8462249794
0.8458514572
0.8454676138
0.8456234749
0.8487324281
0.8641785932
0.9114239231
0.9785910648
1.004407962
1.01088937
1.010807482
1.008273086
1.009905189
1.01042555
1.011721687
1.010492702
1.010352186
1.010423135
0.92093563
0.902197476
0.8830584283
0.8552431239
0.8292115807
0.8160012165
0.818003312
0.8255236974
0.8338167973
0.840594494
0.844652576
0.845383324
0.8451837355
0.8458079777
0.8465633967
0.8468361357
0.847015679
0.8466704651
0.8462570939
0.8459156498
0.845471368
0.8453966164
0.8471344826
0.8589039985
0.8965234635
0.9619343451
1.002103996
1.009672397
1.010905786
1.008398687
1.010077866
1.010782763
1.012037379
1.010877731
1.010586568
1.010551648
0.9224839328
0.9035387224
0.8822346597
0.854702238
0.8293601182
0.8154445016
0.8172220887
0.8249842557
0.8334730338
0.8400945089
0.8444071746
0.8456329609
0.8453946353
0.84602302
0.8467125846
0.8469261257
0.8470547255
0.846653688
0.8462382849
0.8460433136
0.8455578321
0.8452765317
0.8461792736
0.8539360828
0.8870536365
0.9446414103
0.9938983421
1.009800242
1.01162796
1.008654394
1.010242079
1.010855242
1.012197691
1.011104362
1.010685442
1.010612841
0.9233826873
0.9056103059
0.8810423881
0.853992512
0.829839104
0.8152970378
0.8167606157
0.8246216147
0.833404622
0.8398074829
0.8439594766
0.8456766331
0.8455634062
0.8461876051
0.8468451414
0.8469974064
0.8471144615
0.8467191109
0.8462632549
0.8461183538
0.8456537952
0.8452076278
0.845732587
0.8507042338
0.8756733249
0.9349225065
0.9836207238
1.009413993
1.012635949
1.008654733
1.010797178
1.011375931
1.012653579
1.01156842
1.010887096
1.010742149
0.9235950216
0.9077912198
0.878793472
0.8532691728
0.8306011363
0.8151819393
0.8161702661
0.8241055879
0.8333364835
0.8395729851
0.8436451468
0.845648466
0.8457463274
0.846356442
0.8470170342
0.8471474041
0.8472992861
0.8469385044
0.8463400431
0.8461304204
0.8456613915
0.8451969741
0.8453831978
0.8487465145
0.8661655286
0.9209960293
0.9761840381
1.007977425
1.013294535
1.009269697
1.011548733
1.011809301
1.013068391
1.012040368
1.01113283
1.010916043
0.9216052196
0.9109142545
0.873920432
0.8513074346
0.8314083729
0.8150584612
0.8157992425
0.8231550275
0.8330423698
0.8392328739
0.8432972178
0.8454254827
0.8458527573
0.8465833574
0.8472153602
0.8473239677
0.847426609
0.8470250014
0.8463572112
0.8461740737
0.8456634293
0.8451747352
0.8451181224
0.8472827417
0.8603217877
0.9025977677
0.970685227
1.005543033
1.01310253
1.009759102
1.012069487
1.012235347
1.013465882
1.012255509
1.011301975
1.011125659
0.9173601318
0.9146128979
0.868108423
0.8489711026
0.8323369173
0.8151378811
0.8156287271
0.8223264965
0.8328115559
0.8388274729
0.8427160514
0.8451648209
0.8459422104
0.8467570725
0.8473885185
0.8475041727
0.8475611727
0.8471196526
0.8463764332
0.8462154432
0.8456933609
0.8451652108
0.8450016417
0.8462064754
0.8553709417
0.8904927535
0.9588188284
1.000481665
1.013273202
1.009754078
1.012092584
1.012260102
1.01336845
1.012215771
1.011362692
1.011331971
0.9111021129
0.9171269239
0.8592882648
0.8471440117
0.8335583181
0.8154428047
0.8155878115
0.8218419445
0.8328751399
0.8385319627
0.8422181534
0.8447505958
0.8459343417
0.8468361479
0.8475411565
0.8476772784
0.8477080443
0.8472910504
0.8463730396
0.8460989775
0.8457217028
0.8452124722
0.8449380545
0.8456342052
0.8519343232
0.8795333339
0.9408252358
0.9965275623
1.013863605
1.009628604
1.011867424
1.012247184
1.013351179
1.012337651
1.011505984
1.011420685
0.9084717408
0.9183184748
0.8472455782
0.8427107579
0.8350557469
0.8171534124
0.8159427632
0.8212235109
0.8324066172
0.8379129364
0.8416263155
0.844241468
0.845765235
0.8470048358
0.8477374777
0.8478794202
0.8478907815
0.8475133872
0.8464958264
0.8460997856
0.8457999492
0.845314193
0.84487335
0.8450380287
0.848735079
0.8677971392
0.9192679028
0.9863826317
1.010896013
1.008320901
1.011016587
1.012411923
1.013435842
1.012308236
1.011577666
1.011313771
1.049387043
0.9059276207
0.8313590359
0.8355793838
0.8339870353
0.8245798298
0.8243203991
0.8278456334
0.8315104502
0.8350826983
0.8384149233
0.8408915901
0.8428304469
0.8452958887
0.8471801813
0.847559338
0.8473249117
0.8469830423
0.8464292488
0.8459067014
0.8457195655
0.8452408469
0.8449485164
0.8445591603
0.8448861411
0.8502385758
0.8725271438
0.9278415889
0.9771350224
0.9901456062
1.004572703
1.00902405
1.009877952
1.010714748
1.010095912
1.009864421
1.010373427
1.102237548
1.044413536
0.9694615326
0.9158240492
0.8762344901
0.8429389571
0.8426885989
0.847130947
0.8489809667
0.8483162083
0.8456429644
0.8437056937
0.8432053795
0.8440506321
0.8462887497
0.8469925104
0.8466496711
0.8464635863
0.8465056636
0.8461338498
0.8457806398
0.8455318317
0.845022699
0.8442059548
0.8436284646
0.8436884375
0.8450780812
0.8573593649
0.8931549504
0.9464268641
0.9877243897
0.9960559518
1.002831241
1.007218444
1.006553779
1.007119912
1.008558687
1.114140382
1.094684278
1.049418861
0.9874869009
0.9390341426
0.898127407
0.8768994284
0.8759718651
0.8685546444
0.8553855715
0.8455402152
0.8436562908
0.8423342176
0.8429905779
0.8444329543
0.8443635406
0.8438329412
0.8439137783
0.8444660866
0.8445269424
0.8443644499
0.8443094103
0.8441538618
0.8438166112
0.8434072778
0.8431209241
0.8429059848
0.8433492408
0.8480746452
0.8753636426
0.9212028712
0.960844141
0.9929932864
1.001786665
1.002140331
1.006008427
1.008784566
1.115512993
1.110878013
1.092117529
1.051195185
1.00515876
0.967195871
0.9221717707
0.8951241744
0.8795693476
0.8571567865
0.8519881036
0.8547576216
0.8515966256
0.8463111783
0.8437380557
0.8429895096
0.8421411175
0.8422351026
0.8433333016
0.8434537514
0.8430330617
0.8427941605
0.8428202393
0.8427828121
0.8427359455
0.8427662897
0.8428008198
0.8428265215
0.842989132
0.8457309556
0.8576705784
0.8964024739
0.942208112
0.9773135123
0.9929674386
1.004878182
1.006919268
1.115500238
1.11468009
1.10829476
1.089203831
1.053407244
1.013153686
0.9757933464
0.9316121539
0.9114935722
0.8946341616
0.8785546184
0.8701486311
0.8611087485
0.8495600333
0.8436067744
0.8440824335
0.842476457
0.8418803485
0.8426939278
0.8425248784
0.8417119182
0.8416623397
0.8419472226
0.8421304965
0.8422797658
0.8425581082
0.842859145
0.8428638077
0.8428861201
0.8430471365
0.8438974746
0.8504362256
0.8707654319
0.9140265615
0.9580511479
0.9895100448
0.9939700935
1.115450961
1.115327366
1.113690653
1.106147295
1.08710184
1.054791732
1.022617776
0.9838778461
0.951404577
0.9313229596
0.9033771486
0.8814019112
0.8755496407
0.8641254271
0.8570403821
0.8571131361
0.8529108841
0.8460212876
0.8442772128
0.8432398873
0.841815308
0.8417974425
0.8424855063
0.8428448596
0.842572722
0.8424493971
0.8425960551
0.8426891652
0.8427735312
0.8428881915
0.8429252534
0.8431611973
0.8451631204
0.8564304149
0.8892367301
0.9316515696
0.9670066866
1.115387765
1.115384219
1.115055326
1.112659586
1.104231558
1.085298417
1.05746331
1.02658966
0.989342021
0.9627805009
0.9403560652
0.9139011854
0.9057661509
0.894451067
0.8754717147
0.8663652835
0.862277339
0.8525049059
0.8477766417
0.8486049946
0.8465445486
0.8438146645
0.8441708966
0.8439223214
0.8427670562
0.8421371929
0.8424768278
0.8429768605
0.8429672742
0.8429143819
0.8428724845
0.8426955224
0.8426391011
0.8433347311
0.8484996484
0.8658983604
0.9065061373
1.11532806
1.115327069
1.115302463
1.114729699
1.111625047
1.102459908
1.084002203
1.059490069
1.029248225
0.9983372138
0.9766613199
0.9501335419
0.9281008675
0.9140001114
0.8948622065
0.8791116671
0.8781011686
0.8716546889
0.8621377531
0.8592040884
0.8552705458
0.8482709034
0.8458885164
0.8454369634
0.8435908864
0.8422382387
0.8426653028
0.8432567363
0.842953534
0.8424545577
0.8424660603
0.842518887
0.8424316474
0.8424526204
0.8426655152
0.8441803908
0.8539423877
1.115237547
1.11526063
1.115254646
1.115199376
1.114331908
1.110602529
1.100781547
1.08338849
1.060138221
1.031967959
1.006588833
0.9815988337
0.9543237384
0.9400154273
0.9264432544
0.9079335724
0.898285433
0.8891227237
0.8732940758
0.8655781422
0.8642119501
0.8582649641
0.8510795609
0.8514337178
0.8498687477
0.8455256068
0.844932552
0.844629328
0.8432599305
0.8422633345
0.8422842567
0.8425317503
0.842629522
0.8425739275
0.8426555892
0.8426933744
0.8431129608
1.115162193
1.115190354
1.115205652
1.115181574
1.114998049
1.113789489
1.109486543
1.099358682
1.082849335
1.060205418
1.035517901
1.012626025
0.9858439155
0.9662558503
0.9515570612
0.9300066983
0.9135974418
0.9066446212
0.8936808595
0.880565729
0.8791090274
0.8743521531
0.8635599625
0.8589953272
0.8569489018
0.8514547631
0.8473392474
0.8475915668
0.8468436166
0.8435865777
0.8429727188
0.8432896846
0.8429306432
0.8423232293
0.8423020262
0.8424979472
0.8425290207
1.115050774
1.115094271
1.115135955
1.115142693
1.115092014
1.114765396
1.113212933
1.108393857
1.098243494
1.082006608
1.060439302
1.038879513
1.015179056
0.9906395915
0.9743976898
0.9561518902
0.9360228243
0.9288347622
0.9191326129
0.9020202104
0.8923027765
0.8861234568
0.8740270397
0.8648073793
0.8649666103
0.8623312745
0.8545015745
0.853639858
0.8528738861
0.8485894842
0.8459735707
0.8454667222
0.8444563713
0.8426109188
0.8423276359
0.8424927853
0.8424103693
1.114877408
1.115008171
1.115082304
1.115074758
1.115059195
1.115003696
1.114574524
1.112684679
1.10739538
1.097138666
1.080892659
1.061287078
1.040989861
1.017020754
0.9980147734
0.9825192092
0.9611693935
0.9461094999
0.9356717793
0.9189744769
0.9057365782
0.9023544905
0.8950039936
0.8823919835
0.8781543176
0.8742280354
0.8649634058
0.8587898003
0.8576605555
0.8542805418
0.8484627917
0.848427397
0.8487259214
0.8462424062
0.8440757901
0.8437222328
0.842998936
1.114815375
1.114928926
1.114986916
1.114976035
1.114997302
1.115068627
1.1150157
1.114444854
1.112151647
1.106400738
1.095831061
1.080053489
1.062310599
1.041743999
1.020243886
1.004009153
0.9849978255
0.9653929472
0.9550931225
0.9423756577
0.9254324161
0.9187740849
0.9115965555
0.8973179379
0.8881177025
0.8851079043
0.8781311791
0.8673393884
0.8659070771
0.864075506
0.8568719173
0.8540400444
0.8539559354
0.8515994212
0.847889686
0.8468919039
0.8464128764
1.114718292
1.114754974
1.114808096
1.11487068
1.115006649
1.115163333
1.115153733
1.114967225
1.11408096
1.111329299
1.105231627
1.094475206
1.079768436
1.062742238
1.042454441
1.02449096
1.007817003
0.9871905991
0.9737235376
0.9626671368
0.9447975294
0.9318691976
0.925347827
0.9135688937
0.900923946
0.8992977618
0.8951408485
0.8838447342
0.8768169392
0.8739255414
0.8674646115
0.8593153983
0.85817852
0.8564425233
0.8506484123
0.8486777985
0.8492494453
1.114450726
1.11449982
1.114640078
1.114909534
1.115105046
1.115228671
1.115201239
1.115130606
1.114696063
1.113481474
1.110401665
1.10406911
1.093460344
1.079639771
1.062471041
1.04401308
1.027958972
1.008901082
0.9910197118
0.9797464578
0.9651381652
0.9490642138
0.9425192987
0.9340778322
0.9184523323
0.9105933733
0.9057272104
0.8951349053
0.8853848084
0.8839500301
0.880677758
0.871090373
0.8665887337
0.86515647
0.8595746493
0.8537838913
0.8535692347
1.114362252
1.114468771
1.11479721
1.115045987
1.115121615
1.115180471
1.115156952
1.114995417
1.1147997
1.114303787
1.112959681
1.109685758
1.103109407
1.09277003
1.079094401
1.062171827
1.046076523
1.0295113
1.010333998
0.9971041413
0.9846255617
0.9669076851
0.956320571
0.9488575136
0.9353285127
0.9231029392
0.9186542091
0.911108498
0.8988435844
0.8958229067
0.8930189413
0.8843265364
0.8757753022
0.8736201075
0.8698913958
0.8619793097
0.8594853895
1.115033778
1.114962409
1.114949608
1.114983548
1.115071305
1.115048935
1.114876895
1.114620685
1.1145502
1.114466691
1.1140694
1.112674848
1.109138209
1.10228491
1.092038905
1.078142581
1.062560338
1.047548607
1.029573509
1.013729136
1.001918834
0.9856002964
0.9705341648
0.9632708664
0.9531605365
0.93903991
0.9329186854
0.9267344634
0.9135454874
0.9046343797
0.9016682266
0.8952311204
0.8846801655
0.8821276336
0.8802609118
0.8734803005
0.8669698578
1.116038632
1.115368978
1.114925378
1.114907423
1.114850003
1.114601268
1.11433353
1.114337796
1.114406872
1.114590397
1.114544032
1.114082311
1.112442265
1.108488479
1.101434286
1.09105041
1.077398933
1.063394392
1.047749555
1.030359927
1.017878811
1.004470765
0.9873504891
0.9776797785
0.9688163818
0.953791646
0.9437153353
0.9386940478
0.9292049728
0.917078978
0.9137807326
0.9095232437
0.898718416
0.8922458826
0.8901826082
0.884850009
0.8756747031
1.114610367
1.114969735
1.115225318
1.115028559
1.114445971
1.113977298
1.114036092
1.114219134
1.114533462
1.114796346
1.114780617
1.114600065
1.113906091
1.111948137
1.107694365
1.100555584
1.08996727
1.077236086
1.063815663
1.047376988
1.03280531
1.020871435
1.004730689
0.9913773497
0.9831936864
0.9704979516
0.9567287681
0.9514244537
0.9445538177
0.9315415957
0.9242816166
0.9201906406
0.9111014292
0.9007673281
0.8984777836
0.8952205529
0.8862871561
1.111085867
1.115644951
1.115992744
1.115021313
1.113623193
1.113654333
1.11394765
1.114460122
1.114736876
1.114909177
1.114917615
1.114845943
1.114533049
1.113624883
1.111380492
1.10693933
1.099630195
1.089125578
1.077287177
1.063402945
1.047914899
1.035656812
1.021839674
1.005931518
0.9966950481
0.9868805591
0.9717697761
0.9630490175
0.9569348168
0.9451858553
0.9339729802
0.930400437
0.9248991295
0.9139363412
0.9091875089
0.9065870622
0.899302472
1.108189795
1.115932953
1.115490937
1.113566271
1.113524671
1.114091783
1.114560332
1.114659333
1.114769638
1.114921391
1.114923697
1.114909663
1.114815444
1.114418953
1.1133345
1.110853704
1.106230706
1.098688451
1.088622526
1.077007027
1.062757386
1.049469539
1.037430207
1.021837265
1.009317143
1.000556285
0.9872416235
0.9747805553
0.9690284843
0.9605377769
0.9473315054
0.9413895163
0.9368238469
0.9265161947
0.917184571
0.9145052723
0.9100019466
1.083551014
1.109286688
1.109922233
1.111941393
1.114630254
1.115545329
1.115203346
1.1146302
1.114696461
1.114871679
1.114934602
1.114931793
1.114926463
1.114847872
1.114354295
1.113077721
1.110371174
1.105493284
1.097856109
1.088211338
1.076294207
1.062798608
1.051021458
1.037642255
1.023008283
1.013317921
1.002514892
0.9879500309
0.9801177108
0.9736448355
0.9614160847
0.9513553702
0.9469629554
0.9395422432
0.9275705963
0.9237160421
0.9211888402
1.044002007
1.087066376
1.102932881
1.11315116
1.115736319
1.11524793
1.114481778
1.11458576
1.11488074
1.115048175
1.115075579
1.115064701
1.115046244
1.115006369
1.114880103
1.114292262
1.11284311
1.109925515
1.104781956
1.097233766
1.087658681
1.075613572
1.063543334
1.051692018
1.037303592
1.025577826
1.016257992
1.002889725
0.9910996164
0.9847214195
0.9752197253
0.9624734469
0.9572923601
0.9525627947
0.9418120399
0.9329071729
0.9296975973
1.011016275
1.045523562
1.081747687
1.110151995
1.112175938
1.112623543
1.113768357
1.115035094
1.115314062
1.115297103
1.115273748
1.115251664
1.115222935
1.115178263
1.115097616
1.114835822
1.114141667
1.1126083
1.109533773
1.104219902
1.096746534
1.086922114
1.075390713
1.064300836
1.051479703
1.03800832
1.028392559
1.017438196
1.003728563
0.9956428467
0.9883816647
0.9757743564
0.9664874805
0.9622408181
0.954371837
0.942726971
0.9382417103
1.001143695
1.012786356
1.046425867
1.088441328
1.102500283
1.110895843
1.115572758
1.115727945
1.115441055
1.115321764
1.115219062
1.115246464
1.115348375
1.115372603
1.115348446
1.115197429
1.11479814
1.114027116
1.112422847
1.109165519
1.103748109
1.096172658
1.086178859
1.07554965
1.064495547
1.051190925
1.039936552
1.030356412
1.017265989
1.006158941
0.9996494099
0.9898599934
0.9772898459
0.9715772467
0.9661279427
0.9551103053
0.9471161304
1.000047492
1.001975894
1.015830997
1.046773203
1.081100842
1.106699846
1.113431134
1.113794769
1.114668597
1.115204626
1.115101247
1.115194821
1.115490799
1.11554818
1.115540619
1.115472259
1.115227389
1.114750363
1.113944583
1.112223734
1.108755563
1.103244631
1.09546239
1.08573769
1.075765184
1.064079197
1.051560971
1.042052914
1.031139273
1.017829393
1.009774128
1.002262457
0.9899396103
0.9810460917
0.9765112012
0.9680654986
0.9562651869
1.000000783
1.000195242
1.002954922
1.015586882
1.048825074
1.08512409
1.099582481
1.108832794
1.114426749
1.115077767
1.114994608
1.115166983
1.115515329
1.115581645
1.115591222
1.11556223
1.115491466
1.115203289
1.114688905
1.113862497
1.111988028
1.108338454
1.102696776
1.094767513
1.085617672
1.075710933
1.063551521
1.052750277
1.043430025
1.030886483
1.020025183
1.013199502
1.003086013
0.9908564953
0.9854131113
0.9796733739
0.9683082708
1.000000005
1.000013122
1.000340077
1.003115691
1.017860342
1.047163728
1.07957975
1.105488215
1.1115897
1.112823584
1.11423301
1.115034021
1.115177254
1.11534364
1.115566537
1.115565412
1.115543613
1.115455286
1.115069313
1.11459763
1.11373788
1.111684776
1.107906369
1.102109309
1.09424678
1.085562423
1.075195346
1.063542788
1.054202235
1.043655987
1.030953518
1.02303638
1.015370127
1.002949992
0.9942365023
0.9895411108
0.980768787
1
1.000000649
1.000023509
1.000408241
1.003725472
1.017131465
1.048175666
1.085603808
1.099188468
1.107903439
1.113471423
1.114283199
1.114539101
1.114961681
1.115371569
1.115437421
1.115456401
1.115460031
1.115273434
1.114885398
1.114513316
1.113579373
1.11135543
1.107450621
1.101482851
1.093889449
1.085242992
1.074404654
1.064164058
1.055089905
1.043056844
1.032484635
1.025679084
1.01568813
1.003940232
0.9983535886
0.9919314316
1
1.000000022
1.000001063
1.000034481
1.000503725
1.003734909
1.018758525
1.048130132
1.079826757
1.104552589
1.109946609
1.111886601
1.113754677
1.114593881
1.11487143
1.115112191
1.115314152
1.115340649
1.115277353
1.115006332
1.114749659
1.114408561
1.113349161
1.110970956
1.106896974
1.100843651
1.093519949
1.084487274
1.073913262
1.064949948
1.054939941
1.042865489
1.034913468
1.027121964
1.015092142
1.006899868
1.001802728
1
1
1.00000003
1.000002135
1.000042868
1.000548602
1.004238645
1.018006702
1.048942597
1.085144831
1.097621837
1.106947822
1.11295803
1.11379763
1.114071511
1.114632896
1.115082541
1.115125986
1.115134241
1.115097436
1.114903036
1.114766714
1.114364968
1.113105384
1.110540122
1.106249785
1.100235359
1.092911381
1.083492491
1.07398353
1.065294715
1.054047998
1.043928573
1.036982826
1.026937271
1.01583719
1.010358963
1
1
1.000000001
1.000000091
1.000002533
1.000052561
1.000623747
1.004104263
1.019391567
1.048259304
1.079228627
1.103823729
1.109606858
1.111403522
1.113356453
1.114711537
1.11471043
1.114616771
1.114746134
1.115014796
1.115015209
1.114930781
1.114776037
1.114192157
1.112723065
1.109977484
1.105528547
1.09960143
1.092006491
1.082734999
1.074275927
1.064826874
1.053497242
1.045705972
1.037859734
1.026235646
1.018432741
1
1
1
1.000000003
1.000000098
1.000003639
1.000058389
1.000635481
1.004534113
1.018369413
1.049116471
1.084071921
1.097096833
1.106767331
1.112695596
1.114579045
1.114210308
1.114168784
1.114349732
1.114909642
1.11500445
1.114977991
1.11489544
1.114613203
1.113841761
1.112240081
1.10934102
1.104837628
1.098896523
1.090995727
1.082425083
1.074240584
1.063745806
1.054085123
1.047151136
1.03735409
1.026959493
1
1
1
1
1.000000002
1.000000172
1.000003824
1.00006547
1.00070091
1.004326156
1.019735413
1.047675168
1.078822145
1.103910777
1.109363239
1.111826758
1.113508883
1.114026781
1.114040044
1.114459217
1.114990816
1.114993197
1.114937777
1.114775034
1.114381267
1.113517739
1.111799562
1.108733393
1.104200564
1.098060038
1.090126256
1.082314475
1.073542646
1.063018072
1.055382077
1.047590601
1.036567407
1
1
1
1
1
1.000000005
1.000000166
1.000004914
1.000069552
1.000697133
1.004671187
1.018330126
1.048390004
1.084082786
1.097010551
1.10691701
1.112722127
1.113397781
1.113482746
1.114170497
1.115027675
1.115036441
1.114977103
1.114814009
1.114621564
1.114215093
1.1132764
1.111390492
1.108166655
1.103558672
1.097129166
1.089582888
1.082024492
1.072448393
1.063355634
1.056440418
1.046893932
1
1
1
1
1
1
1.000000005
1.000000249
1.00000477
1.000074259
1.000727395
1.004372529
1.019281716
1.047225063
1.078872605
1.103748516
1.108362113
1.110856226
1.112934347
1.11447809
1.114629898
1.114662924
1.114844465
1.114843282
1.114770473
1.114564497
1.114076808
1.113006913
1.11095238
1.107643484
1.102868072
1.096303219
1.089296269
1.081346816
1.071744212
1.064286238
1.056625359
1
1
1
1
1
1
1
1.000000008
1.000000213
1.000005592
1.000073097
1.000708619
1.004565218
1.018076404
1.048061133
1.083203166
1.095877017
1.106328867
1.112336108
1.114088112
1.113952651
1.114270188
1.114837352
1.11490689
1.114862019
1.114745326
1.114488606
1.113904949
1.112714009
1.110547434
1.107165842
1.102145928
1.095760223
1.088996375
1.080444089
1.071845678
1.065003744
1
1
1
1
1
1
1
1
1.000000006
1.000000282
1.000005081
1.00007661
1.000722664
1.004328294
1.01908093
1.046426552
1.078472512
1.103107128
1.108415155
1.111525996
1.113242332
1.114091846
1.114412732
1.114830588
1.114848406
1.1148088
1.114691436
1.114366075
1.113695083
1.112424258
1.110200493
1.106690813
1.101500264
1.09543536
1.088409527
1.079708336
1.072432477
1
1
1
1
1
1
1
1
1
1.000000009
1.000000236
1.000005976
1.000075331
1.000718947
1.004575579
1.017889542
1.047915652
1.081994903
1.095593916
1.106976326
1.112773657
1.11316842
1.113597203
1.114799374
1.1149232
1.114871746
1.114810534
1.114591276
1.114185556
1.11351097
1.11220672
1.109895304
1.1061585
1.100955047
1.095041337
1.087498762
1.079570778
1
1
1
1
1
1
1
1
1
1
1.000000007
1.000000319
1.000005488
1.000081073
1.000736535
1.004385309
1.019028248
1.045921923
1.078276089
1.103359003
1.108109763
1.110864784
1.112991313
1.114681659
1.114892518
1.11489516
1.114859871
1.114687398
1.11439
1.114066342
1.113390536
1.111969226
1.109471523
1.105525047
)
;

boundaryField
{
    inlet
    {
        type            fixedValue;
        value           nonuniform 0();
    }
    outlet
    {
        type            inletOutlet;
        inletValue      nonuniform 0();
        value           nonuniform 0();
    }
    bottom
    {
        type            slip;
    }
    top
    {
        type            slip;
    }
    obstacle
    {
        type            zeroGradient;
    }
    defaultFaces
    {
        type            empty;
    }
    procBoundary27to20
    {
        type            processor;
        value           nonuniform List<scalar> 
31
(
1.11585355
1.115848292
1.115774823
1.115655767
1.115503163
1.115406953
1.115351354
1.11529474
1.115186174
1.115125942
1.115031718
1.114825063
1.114643283
1.114774599
1.114710963
1.114432345
1.114900641
1.116271775
1.115178478
1.107793576
1.097499652
1.060912308
1.017324572
1.001256342
1.000006962
0.9999999844
0.9999999965
0.9999999998
1
1
1
)
;
    }
    procBoundary27to21
    {
        type            processor;
        value           nonuniform List<scalar> 
36
(
1.011759737
1.010266114
1.010158849
1.011152243
1.011678196
1.011792179
1.011319726
0.8956719263
0.8707742118
0.8466057735
0.8322396193
0.8284689984
0.8297400187
0.8335503551
0.8383279049
0.8410345452
0.8419976839
0.8426092831
0.8437742747
0.8445031325
0.844855326
0.8452212949
0.8456387666
0.8464852283
0.8504591705
0.8672739288
0.9147099632
0.971909817
1.001880482
1.008096122
1.009865267
1.011466054
1.011466054
0.9048425528
0.9022841543
0.9022841543
)
;
    }
    procBoundary27to26
    {
        type            processor;
        value           nonuniform List<scalar> 9(1 1 1 1 1 1 1 1 1);
    }
    procBoundary27to28
    {
        type            processor;
        value           nonuniform List<scalar> 
55
(
1.010884616
1.010540694
1.010424471
1.010372262
1.010508312
1.010508312
1.01119237
1.010983456
1.010575161
1.010015539
1.009749166
1.009658004
1.009702364
1.010189188
1.010189188
1.011772108
1.01183123
1.011704569
1.011668328
1.01168863
1.011827902
1.012018826
1.011997348
1.0117134
1.0117134
1.011413945
1.0100851
1.00899679
1.006464153
1.001597981
0.9963099189
0.9473803341
0.8782422886
0.8463354747
0.8425979539
0.8422554899
0.8422928971
0.8444294396
0.8482393954
0.8524969699
0.8586612729
0.866086662
0.8723731853
0.8803385772
0.8899428375
0.9002718502
0.9136192527
0.9237806824
0.9347818333