/*--------------------------------*- C++ -*----------------------------------*\
  =========                 |
  \\      /  F ield         | OpenFOAM: The Open Source CFD Toolbox
   \\    /   O peration     | Website:  https://openfoam.org
    \\  /    A nd           | Version:  7
     \\/     M anipulation  |
\*---------------------------------------------------------------------------*/
FoamFile
{
    version     2.0;
    format      ascii;
    class       volScalarField;
    location    "4.2";
    object      rho;
}
// * * * * * * * * * * * * * * * * * * * * * * * * * * * * * * * * * * * * * //

dimensions      [1 -3 0 0 0 0 0];

internalField   nonuniform List<scalar> 
22
(
1.040895162
1.329739065
1.050211938
1.283069959
1.052549463
1.258357933
1.049890133
1.219030006
1.356478
1.040080584
1.17167512
1.344036527
1.029313611
1.133702994
1.320639836
1.020146588
1.1005081
1.288581464
1.01124025
1.070240265
1.248865209
0.9962275663
)
;

boundaryField
{
    inlet
    {
        type            calculated;
        value           nonuniform 0();
    }
    outlet
    {
        type            calculated;
        value           nonuniform 0();
    }
    bottom
    {
        type            calculated;
        value           nonuniform 0();
    }
    top
    {
        type            calculated;
        value           nonuniform 0();
    }
    obstacle
    {
        type            calculated;
        value           nonuniform List<scalar> 9(1.040895162 1.050211938 1.052549463 1.049890133 1.040080584 1.029313611 1.020146588 1.01124025 0.9962275663);
    }
    defaultFaces
    {
        type            empty;
    }
    procBoundary21to15
    {
        type            processor;
        value           nonuniform List<scalar> 2(1.038557626 1.316281678);
    }
    procBoundary21to22
    {
        type            processor;
        value           nonuniform List<scalar> 7(1.35006598 1.354728875 1.353824753 1.353824753 1.347687561 1.356325595 1.362896574);
    }
    procBoundary21to27
    {
        type            processor;
        value           nonuniform List<scalar> 4(1.043620445 1.209149814 1.043620445 1.025544912);
    }
    procBoundary21to28
    {
        type            processor;
        value           nonuniform List<scalar> 2(1.360279555 1.354682428);
    }
}


// ************************************************************************* //
