/*--------------------------------*- C++ -*----------------------------------*\
  =========                 |
  \\      /  F ield         | OpenFOAM: The Open Source CFD Toolbox
   \\    /   O peration     | Website:  https://openfoam.org
    \\  /    A nd           | Version:  7
     \\/     M anipulation  |
\*---------------------------------------------------------------------------*/
FoamFile
{
    version     2.0;
    format      ascii;
    class       volScalarField;
    location    "4";
    object      p;
}
// * * * * * * * * * * * * * * * * * * * * * * * * * * * * * * * * * * * * * //

dimensions      [1 -1 -2 0 0 0 0];

internalField   nonuniform List<scalar> 
2225
(
0.9944277848
1.000180406
1.007526413
1.008315809
1.006960994
1.003320594
1.002610877
1.003016683
1.004194337
1.004891985
1.004739123
1.004543821
1.004326526
1.00418281
1.004170622
1.00424225
0.6274682617
0.621892545
0.615706047
0.6094682961
0.6025345782
0.5958632391
0.5899483621
0.5904171912
0.5918444323
0.5977509686
0.6274006473
0.6912182308
0.7941645637
0.8820714231
0.9511338896
0.966680735
0.9870465108
1.009352013
1.010703576
1.008026799
1.001914356
1.001346928
1.002962762
1.005466222
1.005927139
1.00523464
1.004574133
1.00444906
1.00458529
1.004650187
1.00441519
1.004128121
0.6392308759
0.6343227808
0.629439155
0.6242235743
0.6180996956
0.612276547
0.6049690947
0.5997179698
0.5962528655
0.5936643586
0.5947752933
0.6037328785
0.6439429763
0.7236949327
0.8238959899
0.917672536
0.974571375
1.000659031
0.9995895397
0.9934203172
0.9967838842
1.002680175
1.007663742
1.007268657
1.005416544
1.00361163
1.004079001
1.005118428
1.005181858
1.00492811
1.00406643
1.003810235
0.6489099559
0.644781666
0.6402645101
0.6352439634
0.6303614134
0.6247558456
0.6186954206
0.6122604754
0.6048749571
0.5992293457
0.5957319718
0.5966714265
0.6000231506
0.6159842486
0.6635146982
0.7561005329
0.8501106085
0.9244801091
0.9555187587
0.9808139091
1.004869154
1.01004767
1.008828944
1.004348224
1.001423615
1.002671046
1.005540947
1.006210309
1.005648031
1.004367592
1.003636851
1.003691811
0.6563058134
0.6532299771
0.6494829666
0.6456915661
0.6414063372
0.6368434551
0.6323118846
0.6265810976
0.6209643732
0.6145874174
0.6078911133
0.6036094551
0.6012614425
0.6008032153
0.6040639501
0.628271883
0.6881913422
0.7786936774
0.8847570827
0.963215435
0.992963712
1.003564847
0.9964324769
0.9943962205
0.9991792778
1.005283762
1.00718134
1.006416799
1.003935819
1.003411027
1.003729332
1.004230375
0.6610576169
0.6591577846
0.6567854082
0.6537845119
0.6502344901
0.6465377857
0.6421508679
0.637747543
0.6328894381
0.6270423275
0.6214222111
0.6143452233
0.6074655894
0.6025900772
0.6032659219
0.6051117187
0.6133716689
0.6447301923
0.7142945609
0.8095714358
0.8925583773
0.9476837717
0.9689531951
0.9908384659
1.008364508
1.0083911
1.006544661
1.002347354
1.002693609
1.004382607
1.005688077
1.004872638
0.6631769528
0.6624843266
0.6612962232
0.6594738566
0.6572073796
0.6542773056
0.6510160389
0.6474977561
0.6433617338
0.6392838071
0.6345224185
0.6286779548
0.623245011
0.616300621
0.6111966069
0.6088439621
0.6064592017
0.6078685081
0.6195107187
0.6615798844
0.7430648324
0.8425932962
0.936358274
0.9810157733
1.002066199
1.000564173
0.9941443444
0.9980327478
1.004632035
1.007993578
1.006604843
1.003523383
0.6636852543
0.6636143548
0.6633005175
0.6626140985
0.66143804
0.659749608
0.6576047713
0.654807888
0.6517036655
0.648153236
0.6440308362
0.6398874032
0.6349658065
0.629015911
0.6230678037
0.6161540803
0.6106052382
0.608454733
0.6094348127
0.6135921423
0.6319331578
0.6854876173
0.7750689989
0.8666507702
0.9326134258
0.9623187403
0.981741302
1.006382722
1.010014696
1.007546934
1.001465446
1.001768374
0.663765539
0.6638092945
0.6637901553
0.6636527028
0.6633130015
0.6626857549
0.6616218236
0.660075499
0.6580272671
0.6553542312
0.6524453576
0.6490727419
0.6451731586
0.6413007888
0.6361670365
0.6306515576
0.6248558172
0.6189747435
0.6150809252
0.6124097734
0.6127545955
0.618371094
0.6458979681
0.7119042097
0.8032229342
0.9048237173
0.9661615207
0.9973199956
1.001835365
0.9926873928
0.9950582186
1.002784607
0.6637800407
0.6637719896
0.6637306903
0.6637387002
0.663735571
0.6636512142
0.6633809122
0.6628190399
0.6618194927
0.6603543171
0.6583777959
0.6558016553
0.6530367134
0.6495998603
0.6459281807
0.6416351609
0.6364130088
0.6310092552
0.6241877021
0.6181171143
0.614022112
0.6146663086
0.616882331
0.6275120415
0.6662085721
0.7403236647
0.8337227563
0.9123736067
0.9522339467
0.9728411098
0.9994175585
1.007759561
0.6635356399
0.6635852261
0.6636125266
0.6636676357
0.6637462911
0.66380635
0.6637945777
0.6637093294
0.6634576717
0.6629369555
0.661988488
0.6606416422
0.6587201148
0.656392485
0.6537149648
0.6504365902
0.6469836276
0.6426537734
0.637658338
0.6322892701
0.6258865598
0.6214930758
0.6193364745
0.6180856668
0.6203403102
0.6358311133
0.687120355
0.7680574249
0.8665934587
0.950010238
0.9880977477
1.002062131
0.663208612
0.6633919834
0.6635648502
0.6636926783
0.6637550618
0.6638001142
0.663820408
0.6638231028
0.6638062816
0.66371595
0.6634722912
0.6629628041
0.662085882
0.6608087656
0.6589899144
0.6568371523
0.6541351644
0.6509759974
0.6474191558
0.6429334904
0.6377520303
0.6317366141
0.6256344987
0.6200990872
0.6204159426
0.6215579598
0.6276081877
0.6513509952
0.7106961879
0.8026385308
0.8814329193
0.9525566298
0.6625590394
0.6628500591
0.663200353
0.6634654472
0.6635452892
0.663629444
0.6637505861
0.663817333
0.6638235146
0.6638103105
0.6637651637
0.663668855
0.6634481114
0.6629903924
0.6622234395
0.6610294935
0.6593727194
0.6573368055
0.6547534052
0.6517676527
0.6483239753
0.6436980862
0.639005037
0.6327415603
0.6281186585
0.6253730329
0.6232969469
0.6241173158
0.6328267363
0.6680840859
0.7338786216
0.8679639905
0.6618583403
0.6620143091
0.6622777276
0.6626704582
0.6630526919
0.6633220229
0.6635289631
0.6637214914
0.6637974363
0.6637856439
0.6637489926
0.6637102272
0.6636852462
0.6636228601
0.6634540816
0.6630637462
0.6623576013
0.6612326109
0.6596685639
0.6577396315
0.6552062775
0.6523413055
0.6485970134
0.6438569049
0.6386122281
0.632297136
0.6273138112
0.6246694526
0.6254020267
0.6285160152
0.6415051823
0.7252030335
0.6617046869
0.6616679619
0.6617430982
0.662029659
0.6625327043
0.663047366
0.6633278854
0.6634722638
0.6636262891
0.6636759296
0.6636609232
0.6636384064
0.6636415988
0.6636710328
0.6636896888
0.6636472048
0.6634934684
0.663118485
0.6624839146
0.6614678648
0.6601122612
0.6582765204
0.6558385082
0.653089616
0.6491088772
0.6446827969
0.6395278602
0.6340472003
0.6305688235
0.6290027346
0.6286978712
0.6479392922
0.662214698
0.6619215621
0.6618714543
0.6619413117
0.6621744939
0.6624831094
0.6628292933
0.6630314879
0.6632369805
0.6635159
0.6636108623
0.663562279
0.6635149716
0.6635485498
0.6636222857
0.6636573393
0.663645753
0.6635959552
0.663466636
0.6631891894
0.6626678172
0.6617476363
0.6604557907
0.6585680315
0.6562313133
0.6532478549
0.6491106822
0.6446590308
0.6387652013
0.6331839396
0.6296124446
0.6318008853
0.6631253187
0.6626694798
0.6621994231
0.6621050148
0.6622092444
0.6624016612
0.6624061418
0.6624446177
0.6624940706
0.6626800309
0.66303332
0.6632288208
0.6632983409
0.6633594791
0.6634517614
0.663540919
0.6636282712
0.6636667606
0.66365973
0.6636188695
0.6635054621
0.6632480294
0.6627212696
0.6618544616
0.6606301894
0.6588643651
0.6566749324
0.6536603666
0.6496332157
0.6450898897
0.6399717249
0.6358467133
0.6634755562
0.6631217191
0.662333625
0.662025625
0.6621008474
0.6622898287
0.6622892506
0.6621874532
0.6620220751
0.6620477386
0.6622531643
0.662615644
0.6629409495
0.6631455126
0.6632804488
0.6634425968
0.66361709
0.6636684049
0.6636535797
0.6636334448
0.6636007407
0.6635618549
0.663470382
0.6632429593
0.6627670787
0.6620175532
0.6608464229
0.6591779756
0.6569068424
0.6537901053
0.6498627922
0.6425834825
0.6647915766
0.664581475
0.6637129032
0.6627096522
0.6624683578
0.6625142213
0.6624341572
0.6622399069
0.6620249807
0.6619235875
0.6619798999
0.6621706341
0.6624209442
0.6626288688
0.66284599
0.6631114762
0.6633545501
0.6635380862
0.6635580466
0.6635426702
0.6635147153
0.6635347072
0.6635496965
0.6635307173
0.6634590398
0.6632612839
0.6628598895
0.6621832066
0.6611248964
0.6595419076
0.6575171875
0.6522212833
0.668170747
0.6679343203
0.6672886098
0.6657265163
0.6640174099
0.663435423
0.6633220281
0.6631305237
0.6626727239
0.6622069627
0.6621708427
0.6622397082
0.6622261052
0.6622306598
0.6623107766
0.6624819408
0.6627664767
0.6630790258
0.6632871295
0.6633745328
0.6634649882
0.6635678068
0.6635893504
0.6635757241
0.663559044
0.6635321607
0.6634908769
0.66333606
0.6630108257
0.6623894434
0.6615196501
0.6585350937
0.672353026
0.6696193102
0.6692139187
0.668171812
0.6658239229
0.6638766496
0.6636044518
0.6637128514
0.6632302941
0.6625070302
0.6622610995
0.6622169722
0.6621555524
0.6621439419
0.6621322985
0.6621707682
0.6623399439
0.6626288461
0.6629455494
0.6631409728
0.6632777639
0.6634188004
0.6635171778
0.663513976
0.6635020065
0.6634491329
0.6634440846
0.6635203723
0.6635397841
0.6634516097
0.663219857
0.662012386
0.68151822
0.6753135431
0.6725302749
0.6720528774
0.670509384
0.6669831363
0.6645654046
0.6642759047
0.6638166803
0.6628726681
0.6623416147
0.6623407189
0.6624289705
0.6623728687
0.6622740588
0.6622640922
0.6623399993
0.6624446815
0.6625333746
0.6625994778
0.662647259
0.6627421262
0.6629375007
0.6631355569
0.6633228295
0.663382993
0.6634181085
0.6635001231
0.663586718
0.6636139068
0.6635916743
0.6632800748
0.6908411767
0.6863280001
0.6796325237
0.676677539
0.6755473127
0.6730785786
0.6687666056
0.6667545074
0.6667949033
0.6661060287
0.6642253814
0.6635370044
0.6636119557
0.6634497463
0.6628976113
0.6624281445
0.6622866384
0.6623297713
0.6623509498
0.6622861606
0.6622275118
0.6622661508
0.6624266996
0.6627509714
0.6630945682
0.6633314763
0.6634304178
0.6635347101
0.6636126071
0.663640416
0.6636297147
0.6635719656
0.6972825522
0.6941116155
0.6887870972
0.6809536512
0.6782815562
0.6777097852
0.6750521847
0.6705760786
0.6698402201
0.6694468181
0.6674126968
0.6651341511
0.6643618351
0.6640761319
0.6633645446
0.6624619058
0.6622836281
0.6623564817
0.6624256118
0.6623426893
0.6621839235
0.6620951381
0.6621597364
0.6623426587
0.6626052701
0.6629002253
0.6631542572
0.6633387478
0.6635074202
0.663596077
0.6635948803
0.6635621314
0.7074942906
0.7028215935
0.6999058711
0.6943324409
0.6868411135
0.684081996
0.6820893702
0.6773759866
0.6724906845
0.6715985784
0.6705174738
0.6676521113
0.6652190403
0.6648361418
0.6648048438
0.6641398269
0.6631418598
0.6629636322
0.6630807096
0.662964983
0.6625853922
0.6622829026
0.662263169
0.6623455775
0.6624191672
0.6625302869
0.6626945644
0.6628663827
0.6630782529
0.6632885874
0.6634031132
0.6634593393
0.7213884644
0.7136866802
0.7082498827
0.7041263786
0.6976904546
0.690810837
0.6884686993
0.6861538306
0.680506427
0.6763278766
0.6758400289
0.6741545607
0.6700351754
0.6679033437
0.6678578509
0.6673616443
0.6657518398
0.6641327743
0.6636698492
0.6634994885
0.6629604511
0.6624200621
0.6622058596
0.662233848
0.6623093545
0.6624077454
0.6624864253
0.6625611551
0.6626910171
0.662935643
0.6631659833
0.6633168851
0.7326957477
0.7261448122
0.7194816466
0.7139486084
0.7092213833
0.7022128265
0.6965503479
0.6944060074
0.6905290106
0.683637517
0.6802915505
0.6789358742
0.6756957565
0.6709462071
0.6692570879
0.6689948146
0.667825072
0.6651975922
0.6635848993
0.6634002874
0.6631641386
0.6625708086
0.6622963624
0.6623389179
0.6624445132
0.6625120014
0.6625594549
0.6627011164
0.6627294914
0.6627019106
0.6627719218
0.6629391432
0.7463529924
0.7387777774
0.7322723877
0.7261634434
0.7205898518
0.7144674734
0.7068061941
0.7017773925
0.6987196752
0.6934140875
0.6860741589
0.6835471395
0.6821972943
0.6785412593
0.6730143762
0.67145713
0.6710785309
0.6694324386
0.6662143051
0.6648362094
0.6650410834
0.6646561509
0.6636597155
0.6632713499
0.6633281199
0.6632889792
0.6630768901
0.6629254528
0.6628269867
0.6627294625
0.6625473595
0.6625289776
0.7579670351
0.7512402473
0.7426933556
0.736401465
0.7313301114
0.7258672154
0.7190058961
0.7116941868
0.708073743
0.7049697845
0.6984880648
0.6914107086
0.6894463511
0.6875955371
0.6824341423
0.676785098
0.6754319384
0.6743703819
0.67143399
0.6681419998
0.6675347759
0.6672142676
0.6659548802
0.6643441582
0.6639259645
0.663794848
0.6633690569
0.6628245498
0.6627388108
0.6626954377
0.6625164795
0.662349991
0.7681462048
0.7643312213
0.757285663
0.7483623956
0.7427560191
0.7382504765
0.7321470025
0.7239035614
0.7169654958
0.7133854086
0.7090921094
0.7013391989
0.6945353387
0.6927430312
0.690055412
0.683722272
0.678096841
0.6771039517
0.6756013273
0.671744064
0.6687255904
0.6685494511
0.6680604094
0.665977267
0.6643529752
0.6641963805
0.6640265822
0.663336586
0.6629981914
0.6629418983
0.6627362932
0.6624989459
0.7789923202
0.7736523307
0.7696578658
0.7618333046
0.7523935753
0.74729645
0.7431987235
0.7368085404
0.7282368333
0.7224111997
0.7193922586
0.7149170841
0.7067230592
0.700500953
0.6984724422
0.6951854261
0.6881069412
0.6830331596
0.6820651144
0.680058991
0.6751655052
0.6723487889
0.6722238364
0.671021294
0.6679221212
0.6664953351
0.6664925821
0.6658354961
0.6645754396
0.6640036303
0.6636520236
0.6629906741
0.7946357713
0.78387061
0.7793487711
0.7753762048
0.7671190332
0.7578700282
0.7536714485
0.7496833614
0.7423924962
0.733405787
0.7283277048
0.7249525319
0.7191880805
0.7103737947
0.7053021435
0.7032364382
0.6990085061
0.6913631101
0.6877471195
0.6866815592
0.6833840033
0.6777188127
0.6755201543
0.6748193861
0.6723839474
0.6689979293
0.668134264
0.6677647634
0.6663236008
0.6649180781
0.6641930954
0.6632885602
0.8085076962
0.7989927493
0.7888581711
0.7849762482
0.7804708449
0.7712395258
0.7624299564
0.7586239256
0.7542796964
0.7464906005
0.7380058729
0.7336808411
0.730182406
0.7239645093
0.7153151434
0.710900327
0.7081980451
0.7027525588
0.6948020814
0.6917963417
0.6900398896
0.6854714636
0.6792475861
0.6777438768
0.6765800929
0.6729006939
0.6692997424
0.6689205313
0.6681086854
0.6661013526
0.6648391739
0.6641008528
0.8181975619
0.813176994
0.8032804693
0.7939848644
0.7904236261
0.78556492
0.7759000354
0.7678804175
0.7646364177
0.7600522212
0.7515803268
0.7436774105
0.7398275618
0.7357393393
0.7283525599
0.7202707632
0.7167410813
0.7137828886
0.7074571443
0.7000265374
0.6977687195
0.6955044972
0.6898007175
0.684278036
0.6830574353
0.6810730785
0.6762209863
0.6731295488
0.6724163606
0.6705969457
0.6683862867
0.666774409
0.8280851336
0.823883989
0.8181139595
0.8073773325
0.7993219827
0.7959083437
0.7901748633
0.7799480193
0.7729620943
0.7695615175
0.7641126909
0.7553140652
0.7484049864
0.7448136182
0.7401582124
0.7321348965
0.725021902
0.7221192207
0.7183512308
0.7107527173
0.7040949562
0.7018988068
0.6986115494
0.6916835464
0.6874909473
0.6864504003
0.6834341534
0.678160291
0.6758566582
0.6744600572
0.6720896101
0.6688817175
0.8414682428
0.8330783001
0.8288414591
0.8222849089
0.811489045
0.8045583683
0.8010147721
0.7946218539
0.7843700226
0.7784598177
0.775193078
0.7692590379
0.7602353929
0.7544039621
0.7509548061
0.745373373
0.7366495597
0.7306213298
0.7276721149
0.7230505345
0.7149769021
0.7095453694
0.7072074961
0.7028275841
0.6953018314
0.6915973898
0.6897179227
0.6855355904
0.6803899648
0.678313487
0.6768191132
0.6735353948
0.8572274095
0.8458476395
0.8385807152
0.8342441706
0.826680824
0.8157686042
0.8099900519
0.806221985
0.798715308
0.788633697
0.7836562256
0.7798918587
0.7728576386
0.7638366051
0.7590037777
0.7555351003
0.7493836047
0.7406443289
0.7359173383
0.7330669324
0.727515132
0.7193152033
0.7153331525
0.7128514656
0.7075252123
0.7003529697
0.6973783712
0.6949215509
0.6900949134
0.6854559149
0.6832551267
0.679495037
0.8696222527
0.8610836768
0.8499465741
0.8436003767
0.838849899
0.8304614431
0.8200625828
0.8150628944
0.810862145
0.8026848027
0.793148515
0.789078901
0.7852017197
0.7774534513
0.7688070485
0.7648618099
0.7611269181
0.753913173
0.745439128
0.7413807129
0.7378169701
0.7308655902
0.7228703118
0.7196057938
0.7164157876
0.7101767762
0.7040578706
0.7012669031
0.6978337567
0.6927401199
0.6889050416
0.6839130617
0.8803111555
0.8745478748
0.8652462623
0.8545226434
0.8489784607
0.8438598036
0.8345318716
0.8247909298
0.8204394025
0.8156820914
0.8064432086
0.7977253488
0.794083783
0.789555675
0.7809324517
0.772974424
0.7695199091
0.7653601878
0.757454848
0.7499867324
0.74698611
0.7432164036
0.7356706352
0.7288036538
0.7256432827
0.721542995
0.7148499483
0.7095519735
0.706309315
0.7022913797
0.6981762748
0.6920541654
0.8922078353
0.8852200984
0.8789537275
0.8689452965
0.8589103495
0.8537708645
0.8480089585
0.838146791
0.8293647724
0.8252652727
0.8199139798
0.8102232321
0.8024233432
0.7991574232
0.7942213026
0.7851125776
0.778143022
0.7750878142
0.7703147624
0.7614825669
0.7548479431
0.7519666777
0.7472162149
0.739004229
0.7335934202
0.7305334953
0.7255325472
0.7188956767
0.7143630104
0.7104220091
0.7062632385
0.6994328972
0.8966249624
0.8901184573
0.8834813377
0.8729494603
0.8637187574
0.8588748141
0.8525233345
0.8420811878
0.8343484873
0.8304539252
0.8242808957
0.8140251579
0.8072876852
0.8039976976
0.7981972022
0.7885989349
0.7827342183
0.7797636773
0.7742594503
0.7652428281
0.7598565878
0.7569317696
0.7513676948
0.7431875818
0.7387924237
0.735360089
0.7296860142
0.7235929685
0.7191066371
0.7150623884
0.7074818517
0.9112137442
0.9010702705
0.8947506707
0.8875321668
0.8767078861
0.8683558081
0.8634943654
0.8563550759
0.8457653696
0.838914907
0.8348715354
0.8280662731
0.8178791322
0.8121790511
0.8088096649
0.8023446497
0.7926017199
0.7876835185
0.7847501911
0.7785246683
0.7695526414
0.7653198158
0.7621018201
0.7553177867
0.747624967
0.7439192675
0.7399547939
0.7339087452
0.728347338
0.724546136
0.7173637769
0.925465137
0.9151267092
0.9055571169
0.8993706532
0.891638286
0.8806705944
0.8731282532
0.8682857005
0.8604831562
0.8498697897
0.8439545677
0.8397453722
0.8319791491
0.8218910572
0.8170954958
0.8134855525
0.8060618955
0.796590819
0.7924537773
0.7890061299
0.7817236601
0.7732355604
0.7698524088
0.7662523359
0.7588937995
0.7521187696
0.7485646373
0.7439079589
0.7374115709
0.7326254704
0.7254444865
0.9372899016
0.9293802331
0.9189784439
0.9099858521
0.9037603852
0.8954721979
0.8845969748
0.8777239426
0.8725514098
0.8640099943
0.8537505573
0.8484889224
0.8439395412
0.8355389571
0.8259451983
0.8217520797
0.8177528934
0.8097060527
0.8008157339
0.7974200475
0.7937292068
0.7856430053
0.7780091256
0.7750799428
0.7708121682
0.7629011187
0.7571625734
0.753693759
0.7485415512
0.7429971786
0.734977511
0.9488905462
0.9412706993
0.9331650031
0.9228246949
0.9143573894
0.9080661807
0.8993009157
0.8886647294
0.8823617058
0.8769847844
0.8677815385
0.8580106844
0.8533494211
0.8484471706
0.8392399311
0.8303276785
0.8266090068
0.8220867174
0.8131152844
0.8051476203
0.8020347177
0.7975509589
0.7887902949
0.7822465665
0.7793321233
0.7742655552
0.7663453797
0.7613837397
0.7575278137
0.7528009765
0.7443617813
0.9612575791
0.9525553526
0.9451056885
0.9368469554
0.9266466709
0.9186196691
0.9121483956
0.9029438923
0.892729837
0.8868399384
0.8809914513
0.8712505079
0.8620816269
0.8576695627
0.8522364142
0.8426344218
0.8346514148
0.8310990494
0.8259897478
0.8166002868
0.8095534336
0.8066623047
0.801624953
0.7926587799
0.7872787114
0.7842438381
0.7785172554
0.7710468215
0.7661382892
0.7622447476
0.7539514353
0.9722856956
0.9644061547
0.9560909456
0.9487778312
0.9404118167
0.9304715412
0.9228262224
0.9161515553
0.9065819956
0.8968154872
0.8912633712
0.8850872693
0.874933139
0.8665272002
0.8622932718
0.8562992697
0.8462032625
0.8391839298
0.8357899123
0.8299310364
0.8201478449
0.8142000177
0.8110615378
0.8050136792
0.796116493
0.7915478923
0.788116578
0.782009726
0.7750878668
0.7708543258
0.7633892365
0.981223431
0.9749983463
0.9674339423
0.9595177235
0.9523159359
0.9438784331
0.9342118219
0.9269086079
0.9200211262
0.9102132245
0.9009684306
0.8954785542
0.8887364168
0.8783741693
0.8707792844
0.8665421004
0.8598960323
0.849740944
0.8434961919
0.8398549782
0.8333033932
0.8236742831
0.8187566839
0.8154316609
0.8087656819
0.8004446055
0.7961917457
0.7921776845
0.7857156296
0.7800363378
0.7721461568
0.9885440634
0.9834581858
0.9775577518
0.9703281444
0.9627972846
0.9557294858
0.9472791506
0.9379495722
0.9308614923
0.9237440417
0.9138002421
0.905137354
0.8997443945
0.8925249244
0.8820370533
0.8751479973
0.8708579602
0.8636185224
0.8535112903
0.8481189288
0.8442969665
0.8368589791
0.8275321476
0.8232671197
0.8194777616
0.8121367278
0.8045455225
0.8004420911
0.7957682651
0.7900674528
0.7812210531
0.9939005436
0.990172858
0.9855230016
0.9799541135
0.9730943586
0.9659374654
0.9589968055
0.950603971
0.9416181977
0.9347301932
0.9273516774
0.9173630523
0.9092202477
0.9037797947
0.8960775909
0.8857317013
0.8794237086
0.874806958
0.8668836827
0.8571717878
0.8523257121
0.8481001332
0.8401559436
0.8315023231
0.8275657956
0.8232401881
0.8157011587
0.8088243967
0.8043175683
0.7998632479
0.7909945516
0.9971878858
0.9949410003
0.9916397093
0.9874036611
0.9822011977
0.9757151803
0.9689261273
0.9621315888
0.9538373956
0.9452322721
0.9384658036
0.9308910028
0.9209493383
0.9132848259
0.9077356539
0.8996007186
0.8895249113
0.8837224097
0.8788654782
0.8703872945
0.8611374739
0.8567608924
0.8521288812
0.843615004
0.8356890247
0.8318093033
0.8269774932
0.8194686272
0.8129269934
0.8086575867
0.8003102647
0.9989208645
0.997764457
0.9958454342
0.9929385582
0.9891178669
0.9842783523
0.9782013949
0.9717612253
0.9651222305
0.9569888408
0.9487301031
0.9420840618
0.9343200532
0.9245648907
0.9172697154
0.911510471
0.9029648371
0.8933091797
0.8878578776
0.8825696267
0.8736783308
0.8650490639
0.8607507983
0.8555849066
0.8469729708
0.8397641337
0.8356364346
0.8303926876
0.8231187328
0.8175666829
0.8092925757
0.9996700808
0.9991830516
0.9982424086
0.996618484
0.9940896812
0.9906546659
0.9862024687
0.9805229263
0.9744453993
0.9679870138
0.960056147
0.9521430266
0.9455300636
0.9376481474
0.9281395079
0.9212075521
0.9152199437
0.9063804017
0.8971452833
0.8919198776
0.8862966542
0.8771325467
0.8691399769
0.8648759416
0.859287837
0.850693841
0.8439572693
0.839546277
0.8338137206
0.8276303786
0.8183556251
0.9999216685
0.9997639932
0.9993893955
0.9986325731
0.9972764992
0.9950909171
0.9920397333
0.9879578887
0.9827022584
0.9769555176
0.9707027262
0.963041415
0.955456185
0.9488794888
0.9408760733
0.9316738875
0.9249808078
0.9187684082
0.9097416382
0.9010125878
0.8958193369
0.8897544399
0.8805245042
0.8730630658
0.8685586469
0.8625612369
0.854345284
0.8479529003
0.8429374046
0.8376749912
0.8280249684
0.9999860865
0.9999474878
0.9998336226
0.9995493642
0.9989489312
0.9978273773
0.9959630374
0.9932623373
0.9895700574
0.9847176586
0.9793256069
0.9732779482
0.9658990705
0.9586508024
0.9520940117
0.9440867299
0.93518396
0.9286623366
0.9222039536
0.9131249493
0.904819331
0.8996025069
0.8932554744
0.8841373965
0.8770703621
0.8723333887
0.8660714182
0.8582830773
0.8518165408
0.8470340612
0.8378260401
0.9999982236
0.9999913324
0.9999653827
0.999884463
0.9996720837
0.9992014826
0.9982870879
0.9967085478
0.9943504601
0.9910170614
0.9865929929
0.9815292191
0.9757367467
0.968673285
0.9617036306
0.9551894104
0.9472004342
0.9386508788
0.9322103756
0.9255600013
0.9165262722
0.9086052203
0.9031888414
0.8965409638
0.8877266035
0.8808698109
0.8757538971
0.8693732266
0.8618658061
0.8561768613
0.8470360747
0.9999998419
0.9999989806
0.9999947051
0.9999775789
0.9999210744
0.9997647666
0.9994015407
0.9986639043
0.9973467014
0.9952976068
0.9923338166
0.9882989416
0.9835956472
0.9780581287
0.9713331877
0.9646502537
0.9581678509
0.9503089414
0.9420358383
0.9356253238
0.9288148556
0.9199539528
0.9123151422
0.906713633
0.8998975044
0.8914666281
0.884679133
0.8792317695
0.8726283238
0.8662813799
0.8565164526
0.9999999905
0.9999999172
0.999999428
0.9999968309
0.9999857502
0.9999469812
0.9998339108
0.9995573147
0.9989715679
0.9978810482
0.9961287381
0.9934992052
0.9898748306
0.9854943661
0.9802668849
0.9738896587
0.9674453541
0.9610563035
0.9533315627
0.9453910796
0.9389309528
0.9320159961
0.9233863348
0.915932802
0.9100692687
0.9031328206
0.895099478
0.8884073292
0.8823941294
0.8765068344
0.8662605345
0.9999999996
0.9999999955
0.9999999577
0.9999996862
0.9999981428
0.9999911171
0.9999650138
0.9998845546
0.9996774279
0.9992177153
0.9983292726
0.996837856
0.9945476708
0.9912836239
0.9872695158
0.9823311083
0.9763324211
0.9701348409
0.9638200565
0.95634175
0.9486147656
0.9421415805
0.935154828
0.926838867
0.9194945728
0.913381151
0.9064031945
0.8987724394
0.8918949697
0.8863249325
0.8762792667
1
0.9999999998
0.9999999979
0.9999999789
0.9999998318
0.9999989345
0.999994571
0.9999773219
0.999921089
0.9997682764
0.9994133953
0.9986962152
0.9974484299
0.9954573307
0.9925736877
0.9888736868
0.9842892573
0.9786419884
0.9726884319
0.9665142367
0.9592532162
0.9518085086
0.9452332555
0.938246719
0.9302198703
0.9229763806
0.9166028787
0.9096810491
0.9021505629
0.8960370378
0.8859508462
1
1
0.9999999999
0.9999999991
0.9999999897
0.9999999118
0.9999994014
0.9999967457
0.9999855697
0.999946923
0.9998361739
0.9995655575
0.9989965797
0.9979583097
0.9962609721
0.9937050729
0.990365989
0.986089691
0.980836653
0.9751261493
0.9690770006
0.9621352599
0.9548669502
0.9482835634
0.9412880969
0.9335730206
0.9263669202
0.9198347914
0.912757196
0.9062943741
0.8957905615
1
1
1
1
0.9999999996
0.9999999951
0.9999999547
0.9999996706
0.9999980869
0.9999909814
0.9999649092
0.999885844
0.9996831275
0.9992357044
0.9983886625
0.9969418293
0.9947281663
0.9916885915
0.9877885158
0.9828775056
0.9774424106
0.9715735024
0.9648684691
0.9578918863
0.9512175491
0.9443139982
0.936825721
0.9297434145
0.9228468754
0.9165939073
0.9058331847
1
1
1
1
1
0.9999999998
0.9999999977
0.9999999772
0.9999998224
0.9999988969
0.9999944656
0.9999771816
0.9999217316
0.9997718443
0.9994263401
0.9987389152
0.9975329891
0.9956038863
0.9929132859
0.9893136544
0.9848063537
0.9796302225
0.973945049
0.9675633326
0.9607512359
0.9541459525
0.9472448641
0.9400672039
0.9328329955
0.926650656
0.9159182666
1
1
1
1
1
1
0.9999999999
0.999999999
0.9999999888
0.9999999061
0.9999993763
0.9999966641
0.9999854215
0.9999471296
0.9998382958
0.9995740468
0.9990276151
0.9980216433
0.9963851271
0.9939734294
0.9907499182
0.986559947
0.9817013511
0.9762436515
0.9700810813
0.9635829007
0.9569382691
0.9502230209
0.942990849
0.9366647748
0.9258715102
1
1
1
1
1
1
1
1
0.9999999995
0.9999999946
0.9999999514
0.9999996543
0.9999980269
0.9999908407
0.9999648962
0.9998868708
0.9996887228
0.9992563948
0.9984381242
0.9970368369
0.9949488136
0.99200472
0.9882191667
0.9836255511
0.9784121491
0.9725676505
0.9661965806
0.9597856452
0.9528818534
0.9466633622
0.9357945528
1
1
1
1
1
1
1
1
1
0.9999999998
0.9999999975
0.9999999754
0.9999998122
0.9999988551
0.99999435
0.9999770552
0.999922184
0.9997749951
0.9994407665
0.9987732867
0.9976115048
0.995769421
0.9931875853
0.9896860668
0.985448521
0.9804918757
0.974854548
0.9688538935
0.9622591204
0.9563171812
0.9455274035
1
1
1
1
1
1
1
1
1
1
0.9999999999
0.9999999988
0.9999999878
0.9999999001
0.9999993491
0.9999965772
0.9999852765
0.999947214
0.9998401763
0.9995828666
0.999053954
0.9980776015
0.9965217732
0.9941876476
0.9910863443
0.9871053216
0.9824329772
0.9771439903
0.9710581681
0.9654496465
0.9548134549
1
1
1
1
1
1
1
1
1
1
1
1
0.9999999995
0.9999999941
0.9999999481
0.9999996376
0.9999979681
0.99999071
0.9999648606
0.9998877668
0.9996947583
0.9992734996
0.9984845632
0.9971336837
0.9951364292
0.992276204
0.9886717042
0.9842605032
0.9789606661
0.9737898606
0.9633402484
1
1
1
1
1
1
1
1
1
1
1
1
1
0.9999999998
0.9999999972
0.9999999736
0.9999998027
0.9999988181
0.9999942593
0.9999769742
0.9999228104
0.9997786893
0.9994548702
0.9988050617
0.9976942045
0.9958945467
0.9933864409
0.9899387728
0.9855393435
0.9808497684
0.9705384657
1
1
1
1
1
1
1
1
1
1
1
1
1
1
0.9999999999
0.9999999987
0.9999999869
0.9999998942
0.9999993203
0.9999964677
0.9999849507
0.9999463028
0.9998383018
0.9995765672
0.9990380906
0.9980220815
0.9963859124
0.9938246131
0.9902458953
0.9859913545
0.9758951265
1
1
1
1
1
1
1
1
1
1
1
1
1
1
1
1
0.9999999995
0.9999999939
0.9999999465
0.9999996262
0.999997891
0.9999902121
0.9999622775
0.9998760839
0.9996532004
0.9991393363
0.9981423252
0.9963159092
0.9934382128
0.9895762677
0.9796627308
)
;

boundaryField
{
    inlet
    {
        type            fixedValue;
        value           nonuniform 0();
    }
    outlet
    {
        type            zeroGradient;
    }
    bottom
    {
        type            slip;
    }
    top
    {
        type            slip;
    }
    obstacle
    {
        type            zeroGradient;
    }
    defaultFaces
    {
        type            empty;
    }
    procBoundary35to29
    {
        type            processor;
        value           nonuniform List<scalar> 
33
(
1.00534328
1.002806746
1.0043109
1.006621903
1.006471195
1.005510853
1.003662497
1.00318004
1.003364784
1.004095475
1.004804348
1.004693765
1.004414125
1.004116333
1.004027799
1.004216565
0.615153089
0.609019121
0.6028293501
0.5958661305
0.5909242434
0.5887029589
0.5875056329
0.5902346679
0.6112396703
0.6622808225
0.7611739061
0.8738271689
0.9543560575
0.9871109457
1.004935676
1.000224437
1.000224437
)
;
    }
    procBoundary35to34
    {
        type            processor;
        value           nonuniform List<scalar> 
71
(
0.6328640415
0.6436767452
0.6527141196
0.6588756449
0.662312963
0.6635329399
0.6636886756
0.6636930309
0.6636948505
0.6634660952
0.6630256124
0.6622989678
0.6617803249
0.661790001
0.6624850003
0.6633021545
0.6632024888
0.6652489513
0.6707705675
0.677893983
0.6853408476
0.6926558487
0.7018323184
0.7152585397
0.7285800551
0.7397857381
0.7524600126
0.762257456
0.7743244443
0.7899603497
0.8029498599
0.8130071457
0.8227586772
0.8375907464
0.8525806918
0.8648690782
0.8752094001
0.8878602445
0.9033447118
0.9073092198
0.9073092198
0.9213887104
0.9331577835
0.9451145873
0.9580046008
0.9693994693
0.978806403
0.9867368758
0.9927080395
0.9964978129
0.9985911166
0.9995450187
0.9998849608
0.9999780685
0.9999969691
0.9999997055
0.9999999806
0.9999999992
1
1
1
1
1
1
1
1
1
1
1