/*--------------------------------*- C++ -*----------------------------------*\
  =========                 |
  \\      /  F ield         | OpenFOAM: The Open Source CFD Toolbox
   \\    /   O peration     | Website:  https://openfoam.org
    \\  /    A nd           | Version:  7
     \\/     M anipulation  |
\*---------------------------------------------------------------------------*/
FoamFile
{
    version     2.0;
    format      ascii;
    class       volScalarField;
    location    "2.9";
    object      p;
}
// * * * * * * * * * * * * * * * * * * * * * * * * * * * * * * * * * * * * * //

dimensions      [1 -1 -2 0 0 0 0];

internalField   nonuniform List<scalar> 5(1.023543695 1.012188721 1.028462166 1.010717878 1.027321463);

boundaryField
{
    inlet
    {
        type            fixedValue;
        value           nonuniform 0();
    }
    outlet
    {
        type            zeroGradient;
    }
    bottom
    {
        type            slip;
    }
    top
    {
        type            slip;
    }
    obstacle
    {
        type            zeroGradient;
    }
    defaultFaces
    {
        type            empty;
    }
    procBoundary17to10
    {
        type            processor;
        value           nonuniform List<scalar> 3(1.017188931 1.034744462 1.049418194);
    }
    procBoundary17to11
    {
        type            processor;
        value           nonuniform List<scalar> 2(0.9734450667 0.9978784619);
    }
    procBoundary17to23
    {
        type            processor;
        value           nonuniform List<scalar> 3(1.010354466 1.010354466 1.027877582);
    }
}


// ************************************************************************* //
