/*--------------------------------*- C++ -*----------------------------------*\
  =========                 |
  \\      /  F ield         | OpenFOAM: The Open Source CFD Toolbox
   \\    /   O peration     | Website:  https://openfoam.org
    \\  /    A nd           | Version:  7
     \\/     M anipulation  |
\*---------------------------------------------------------------------------*/
FoamFile
{
    version     2.0;
    format      ascii;
    class       volScalarField;
    location    "4";
    object      p;
}
// * * * * * * * * * * * * * * * * * * * * * * * * * * * * * * * * * * * * * //

dimensions      [1 -1 -2 0 0 0 0];

internalField   nonuniform List<scalar> 
555
(
0.6307413147
0.7453487663
0.8799163701
0.9620633027
0.9916311885
1.003374111
0.9885661744
0.9789704151
0.5200065958
0.5024675544
0.5236387884
0.5536984134
0.5498623218
0.5356773317
0.536164103
0.5409126892
0.557784522
0.6055928015
0.7265709591
0.8620210239
0.9550348445
0.9913251151
1.002762043
0.9908925969
0.9796156296
0.5230394555
0.5015040051
0.5197079295
0.5520481998
0.5520622191
0.5348217654
0.534543329
0.5388318738
0.55365277
0.5901285545
0.6925059417
0.84627478
0.9573853209
0.9897800194
0.9994840535
0.9934908363
0.9787552155
0.5265904882
0.5011015536
0.5159289725
0.5497871289
0.5542424563
0.5344725463
0.5341655939
0.5380136028
0.5509677441
0.5803022744
0.655469177
0.8108563981
0.9475748205
0.9815398367
0.9982183537
0.995293316
0.9766249915
0.5306579181
0.5017684449
0.5124891264
0.5474321011
0.5566091698
0.5350805599
0.5340704735
0.5368615257
0.5459538771
0.5682482558
0.6308421531
0.7634104487
0.9101503776
0.9749507582
0.9982807999
0.995994753
0.9744675122
0.9942052083
0.5352033687
0.5027339093
0.5093189356
0.5454544163
0.55897782
0.5357912249
0.5327656357
0.5344348906
0.5420957929
0.5587756239
0.6078059971
0.7312555597
0.8760293177
0.9710087387
1.001207095
0.9968742203
0.9729796257
0.993464537
0.5402254379
0.5047367448
0.504980443
0.5432566141
0.56107038
0.5363293011
0.5317019969
0.5330114289
0.5406016313
0.5548052124
0.5919350406
0.6961068886
0.8513885904
0.961923571
1.001824254
0.9984945573
0.971566779
0.9938285414
0.5453511488
0.5077969203
0.5007515426
0.54177116
0.5635256621
0.5387575952
0.5316473844
0.5320590324
0.5390746934
0.5517960511
0.5803141004
0.654928996
0.8196808603
0.9440075662
1.001288514
1.000602744
0.970163505
0.9947172923
0.5499206964
0.5114115532
0.4950223694
0.5390598374
0.5662087953
0.5412207613
0.531767045
0.530896634
0.5367897645
0.5470517495
0.5692272063
0.6298238331
0.7735600426
0.9203977837
0.9936971156
1.002305287
0.9690541709
0.9958907274
0.554109289
0.5153196511
0.4914789789
0.5387545503
0.5687421816
0.5441951875
0.5317541748
0.5295589909
0.53498557
0.5437809771
0.5616044051
0.6139127291
0.7310360894
0.8932270171
0.979744748
1.002619178
0.9670910223
0.9960170665
0.5573901157
0.5185227466
0.490612801
0.5427655744
0.5719400434
0.5475417243
0.5315223792
0.5284659593
0.5337327934
0.5419393371
0.5568592913
0.5958315908
0.6997506922
0.8619143519
0.9698075477
1.004637762
0.9661298315
0.9964309203
0.580873395
0.5256169014
0.4766921034
0.5377929467
0.5750644569
0.5529767283
0.5329917896
0.5276625155
0.5321028794
0.5394876385
0.5508146273
0.5775875439
0.6571778614
0.8084591783
0.9519173506
1.004454796
0.9636309447
0.9954443065
1.091633812
0.6685997223
0.5677041227
0.5806068843
0.5853563912
0.564616216
0.5354173356
0.5272713663
0.5297347314
0.534933285
0.5404479993
0.5492476674
0.5753557291
0.6716822687
0.8442741014
0.9171187998
0.9532425159
0.9991747061
1.383835795
1.152167109
0.9085664737
0.7543949035
0.6378502579
0.5635451682
0.5418354188
0.5364090851
0.5396429548
0.5451392792
0.542519431
0.5374846846
0.5357672099
0.5494008506
0.6058283001
0.7421952469
0.8850722637
0.9632822916
1.442830464
1.361062581
1.171156148
0.9532940512
0.7707272726
0.6605710069
0.629947027
0.608051193
0.5824331781
0.5557599438
0.5379088251
0.5343528781
0.537568435
0.5376939558
0.5406609669
0.5742061379
0.6705394815
0.8061105063
1.447084785
1.427249898
1.344169218
1.176649405
1.007194866
0.8553275786
0.7410073629
0.680591406
0.6199378847
0.5632891458
0.5587044178
0.5648413562
0.5627770301
0.5521127664
0.5420973395
0.5430032139
0.5592447966
0.6101768878
1.44844409
1.442169865
1.414439033
1.330719692
1.192234924
1.034221862
0.8875053498
0.7825089915
0.7204277063
0.6635579361
0.6234416053
0.6010539925
0.5847248011
0.5637500676
0.5456445363
0.5471040693
0.5505667948
0.5533130822
1.454527641
1.448926584
1.438008736
1.403160947
1.320547376
1.19908552
1.065852828
0.9281988525
0.8432268224
0.7805902857
0.6998774862
0.6289154536
0.6114878888
0.6037271764
0.5816689093
0.5740297996
0.5672048206
0.5552187505
1.460662236
1.456362152
1.44815749
1.431187251
1.391456474
1.313845748
1.207438858
1.087267507
0.9556683206
0.8659690415
0.8093780627
0.7302923409
0.6845472895
0.6693979478
0.6379136467
0.5979270974
0.5825819986
0.5703742585
1.471632685
1.466983808
1.458694735
1.447409377
1.428149104
1.386435095
1.310299534
1.21524306
1.102327304
0.9791636693
0.9086619452
0.8458685543
0.7604633404
0.7093316993
0.6852575215
0.6414931378
0.6203598951
0.6158711998
1.472447886
1.466860484
1.456903449
1.454764804
1.447095129
1.425945038
1.380532509
1.305195791
1.215772984
1.111021833
1.004510917
0.9347571513
0.862169393
0.7828018641
0.7535471835
0.7233977038
0.67646283
0.6502679874
1.44465536
1.449672274
1.457240251
1.462563206
1.458647943
1.44604885
1.420152367
1.372602545
1.30241047
1.219989136
1.119927898
1.027674644
0.962372048
0.8859676423
0.8207200046
0.780629122
0.7324544988
0.688221695
1.373050122
1.434447544
1.466379668
1.465672248
1.461602797
1.454663548
1.442186487
1.41675324
1.369678616
1.302781791
1.222292235
1.128779059
1.047269098
0.9744479834
0.8986123517
0.8456720974
0.8067897927
0.7605926809
1.187611903
1.328095838
1.443742922
1.454259209
1.454306122
1.457050468
1.455129554
1.442710373
1.414080848
1.365452283
1.300482799
1.222689448
1.138118693
1.062401773
0.989808412
0.922850867
0.8730889956
0.8248559383
1.039958813
1.186811435
1.371315217
1.433610067
1.452589288
1.462235426
1.461309228
1.456805059
1.440419013
1.409525453
1.361340344
1.29767184
1.223156996
1.145377256
1.072749511
1.003264076
0.9405602304
0.8893682193
1.003510491
1.062333063
1.196240131
1.325890714
1.422444366
1.456273638
1.454690933
1.453518308
1.451586635
1.437837887
1.406502716
1.357335853
1.295275716
1.223647235
1.15130806
1.081585377
1.017043371
0.9601366837
1.000138836
1.011657577
1.060412719
1.193527821
1.3588723
1.430104791
1.444157621
1.451906316
1.45555265
1.450525703
1.434597574
1.402233721
1.352992968
1.292462624
1.22513437
1.155540844
1.089516197
1.027962234
1.000002876
1.001248369
1.011244192
1.074800727
1.199653146
1.319076315
1.422888608
1.455887522
1.454142808
1.451540827
1.447319865
1.431108472
1.397475844
1.348579685
1.289992445
1.2259846
1.159640775
1.096646602
1.000000034
1.000080836
1.001273144
1.017316644
1.069572346
1.198682947
1.352566195
1.423550012
1.435743252
1.446660732
1.452312922
1.446143162
1.427877583
1.393928082
1.346005267
1.28875127
1.226849072
1.161640987
1
1.000003106
1.000092839
1.002417701
1.015089753
1.081049131
1.202416976
1.318582115
1.414475653
1.451677115
1.451096434
1.448942638
1.44388025
1.425926974
1.390925082
1.342729422
1.287521028
1.22626454
1
1.00000007
1.000004504
1.000205323
1.002041529
1.020320051
1.07287566
1.198185241
1.345752444
1.424549556
1.435782201
1.445845757
1.44961239
1.442575302
1.422629182
1.387281554
1.339742984
1.286308099
1
1.000000001
1.000000157
1.000010631
1.000177231
1.003082435
1.016896837
1.083206448
1.203996023
1.31616262
)
;

boundaryField
{
    inlet
    {
        type            fixedValue;
        value           nonuniform 0();
    }
    outlet
    {
        type            zeroGradient;
    }
    bottom
    {
        type            slip;
    }
    top
    {
        type            slip;
    }
    obstacle
    {
        type            zeroGradient;
    }
    defaultFaces
    {
        type            empty;
    }
    procBoundary27to20
    {
        type            processor;
        value           nonuniform List<scalar> 
16
(
1.456909371
1.450190709
1.446725043
1.447236811
1.451823712
1.464814731
1.462956357
1.468367057
1.468042895
1.397592466
1.244979732
1.067655497
1.00481253
1.000019957
0.9999999845
0.9999999982
)
;
    }
    procBoundary27to21
    {
        type            processor;
        value           nonuniform List<scalar> 
18
(
0.6503860611
0.7849745901
0.9159340284
0.9748866171
0.9905821585
1.002974723
0.9876418322
0.9790687717
0.5174696902
0.503961633
0.527329436
0.5551683354
0.5473857808
0.5358768832
0.538562921
0.5458778959
0.5676821757
0.5676821757
)
;
    }
    procBoundary27to26
    {
        type            processor;
        value           nonuniform List<scalar> 4(0.9999999999 1 1 1);
    }
    procBoundary27to28
    {
        type            processor;
        value           nonuniform List<scalar> 
28
(
0.9945053055
0.9956421221
0.9956839031
0.9954254219
0.9954254219
0.9903574066
0.989066393
0.9898523487
0.9911842148
0.9927935744
0.9930659002
0.9935220621
0.9926274206
0.9943209923
0.9709232073
0.8927844347
0.7302088751
0.5806403151
0.5541579345
0.5584586825
0.5977123699
0.6306031642
0.6732708247
0.7281216035
0.7751216497
0.8393408837
0.9083069586
0.9732858491
)
;
    }
    procBoundary27to33
    {
        type            processor;
        value           nonuniform List<scalar> 
19
(
1.409486152
1.449564219
1.448571521
1.445616224
1.439153647
1.419533941
1.38382409
1.337319524
1
1
1.000000004
1.000000351
1.000010278
1.000297346
1.002512777
1.022186089
1.076360485
1.409486152
1.199833397
)
;
    }
    procBoundary27to34
    {
        type            processor;
        value           nonuniform List<scalar> 4(1.040655764 1.103880566 1.165211141 1.226669683);
    }
}


// ************************************************************************* //
