/*--------------------------------*- C++ -*----------------------------------*\
  =========                 |
  \\      /  F ield         | OpenFOAM: The Open Source CFD Toolbox
   \\    /   O peration     | Website:  https://openfoam.org
    \\  /    A nd           | Version:  7
     \\/     M anipulation  |
\*---------------------------------------------------------------------------*/
FoamFile
{
    version     2.0;
    format      ascii;
    class       volVectorField;
    location    "3.1";
    object      U;
}
// * * * * * * * * * * * * * * * * * * * * * * * * * * * * * * * * * * * * * //

dimensions      [0 1 -1 0 0 0 0];

internalField   nonuniform List<vector> 
22
(
(2.999661286 -0.0003946079567 0)
(2.997027946 -0.003066039863 0)
(2.985749441 -0.01532667001 0)
(2.967034488 -0.02596856656 0)
(2.998193397 -0.004452301196 0)
(2.990753079 -0.02419706244 0)
(2.983559947 -0.0535392811 0)
(2.976658127 -0.0622066033 0)
(2.979676935 -0.04890045834 0)
(2.973331142 -0.08912256389 0)
(2.966603523 -0.0817625861 0)
(2.968371381 -0.0792570446 0)
(2.968650747 -0.08207749717 0)
(2.973398529 -0.07254359304 0)
(2.96375509 -0.09804667209 0)
(2.969860471 -0.0795673548 0)
(2.988075174 -0.03366048141 0)
(2.972098307 -0.07857694361 0)
(2.992779633 -0.004174902356 0)
(3.0097785 0.03572915253 0)
(2.989783153 -0.004138798753 0)
(2.994240751 0.02418317236 0)
)
;

boundaryField
{
    inlet
    {
        type            fixedValue;
        value           nonuniform 0();
    }
    outlet
    {
        type            inletOutlet;
        inletValue      nonuniform 0();
        value           nonuniform 0();
    }
    bottom
    {
        type            slip;
    }
    top
    {
        type            slip;
    }
    obstacle
    {
        type            slip;
    }
    defaultFaces
    {
        type            empty;
    }
    procBoundary4to3
    {
        type            processor;
        value           nonuniform List<vector> 6((2.999986929 -1.387460805e-05 0) (2.999845789 -0.0003992364601 0) (2.990277549 -0.02420343422 0) (2.990277549 -0.02420343422 0) (2.976182216 -0.06291424774 0) (2.962249449 -0.1028073536 0));
    }
    procBoundary4to5
    {
        type            processor;
        value           nonuniform List<vector> 6((2.956285473 -0.03536635333 0) (2.972191992 -0.06481021027 0) (2.970555051 -0.06931867675 0) (2.989170645 -0.03323191899 0) (3.000308361 0.01572000489 0) (3.004894353 0.08625070122 0));
    }
    procBoundary4to9
    {
        type            processor;
        value           nonuniform List<vector> 2((2.961876381 -0.09652976187 0) (2.965925227 -0.08442429029 0));
    }
    procBoundary4to10
    {
        type            processor;
        value           nonuniform List<vector> 4((3.011775223 0.06214830397 0) (3.006287559 0.1303583596 0) (3.011775223 0.06214830397 0) (3.017701721 0.1084655633 0));
    }
}


// ************************************************************************* //
