/*--------------------------------*- C++ -*----------------------------------*\
  =========                 |
  \\      /  F ield         | OpenFOAM: The Open Source CFD Toolbox
   \\    /   O peration     | Website:  https://openfoam.org
    \\  /    A nd           | Version:  7
     \\/     M anipulation  |
\*---------------------------------------------------------------------------*/
FoamFile
{
    version     2.0;
    format      ascii;
    class       volScalarField;
    location    "4.6";
    object      rho;
}
// * * * * * * * * * * * * * * * * * * * * * * * * * * * * * * * * * * * * * //

dimensions      [1 -3 0 0 0 0 0];

internalField   nonuniform List<scalar> 
22
(
1.562012041
1.490222649
1.577076627
1.572387237
1.522644686
1.629063659
1.618553982
1.517999183
1.360754629
1.664551224
1.520183076
1.294617851
1.196661152
1.5598041
1.206408453
1.142729174
1.187589574
1.025614712
1.028432997
1.15380714
0.9962351355
1.04511259
)
;

boundaryField
{
    inlet
    {
        type            calculated;
        value           nonuniform 0();
    }
    outlet
    {
        type            calculated;
        value           nonuniform 0();
    }
    bottom
    {
        type            calculated;
        value           nonuniform 0();
    }
    top
    {
        type            calculated;
        value           nonuniform 0();
    }
    obstacle
    {
        type            calculated;
        value           nonuniform List<scalar> 2(1.025614712 0.9962351355);
    }
    defaultFaces
    {
        type            empty;
    }
    procBoundary9to3
    {
        type            processor;
        value           nonuniform List<scalar> 5(1.539664246 1.413867513 1.493562965 1.56700488 1.56700488);
    }
    procBoundary9to4
    {
        type            processor;
        value           nonuniform List<scalar> 2(1.514532534 1.402203013);
    }
    procBoundary9to8
    {
        type            processor;
        value           uniform 1.406520077;
    }
    procBoundary9to10
    {
        type            processor;
        value           nonuniform List<scalar> 5(1.28363325 1.212744674 1.274001487 1.30840087 1.30840087);
    }
    procBoundary9to14
    {
        type            processor;
        value           nonuniform List<scalar> 3(1.479852408 1.665293534 1.930205895);
    }
    procBoundary9to15
    {
        type            processor;
        value           nonuniform List<scalar> 4(1.211940929 1.011178832 1.211940929 1.069498591);
    }
}


// ************************************************************************* //
