/*--------------------------------*- C++ -*----------------------------------*\
  =========                 |
  \\      /  F ield         | OpenFOAM: The Open Source CFD Toolbox
   \\    /   O peration     | Website:  https://openfoam.org
    \\  /    A nd           | Version:  7
     \\/     M anipulation  |
\*---------------------------------------------------------------------------*/
FoamFile
{
    version     2.0;
    format      ascii;
    class       volVectorField;
    location    "5";
    object      U;
}
// * * * * * * * * * * * * * * * * * * * * * * * * * * * * * * * * * * * * * //

dimensions      [0 1 -1 0 0 0 0];

internalField   nonuniform List<vector> 5((3.00165108 0.03358756378 0) (2.969409221 0.07911622222 0) (2.97684658 0.01677146737 0) (2.90236341 0.0511155314 0) (2.929466086 0.01131755052 0));

boundaryField
{
    inlet
    {
        type            fixedValue;
        value           nonuniform 0();
    }
    outlet
    {
        type            inletOutlet;
        inletValue      nonuniform 0();
        value           nonuniform 0();
    }
    bottom
    {
        type            slip;
    }
    top
    {
        type            slip;
    }
    obstacle
    {
        type            slip;
    }
    defaultFaces
    {
        type            empty;
    }
    procBoundary10to4
    {
        type            processor;
        value           uniform (3.008260165 0.07822311783 0);
    }
    procBoundary10to15
    {
        type            processor;
        value           nonuniform List<vector> 4((3.003141442 0.1095499572 0) (3.003141442 0.1095499572 0) (2.866763719 0.207795446 0) (2.833211708 0.1427154789 0));
    }
    procBoundary10to16
    {
        type            processor;
        value           nonuniform List<vector> 2((2.836808601 0.03638889093 0) (2.891305203 0.006038591121 0));
    }
    procBoundary10to17
    {
        type            processor;
        value           nonuniform List<vector> 3((2.984138143 -0.0008924874006 0) (2.968087834 -0.004372778277 0) (2.936113969 -0.002228653491 0));
    }
}


// ************************************************************************* //
