/*--------------------------------*- C++ -*----------------------------------*\
  =========                 |
  \\      /  F ield         | OpenFOAM: The Open Source CFD Toolbox
   \\    /   O peration     | Website:  https://openfoam.org
    \\  /    A nd           | Version:  7
     \\/     M anipulation  |
\*---------------------------------------------------------------------------*/
FoamFile
{
    version     2.0;
    format      ascii;
    class       volVectorField;
    location    "3.9";
    object      U;
}
// * * * * * * * * * * * * * * * * * * * * * * * * * * * * * * * * * * * * * //

dimensions      [0 1 -1 0 0 0 0];

internalField   nonuniform List<vector> 5((2.987020145 -0.01663283457 0) (2.989242719 -0.02774937713 0) (2.996999623 -0.01692092455 0) (2.994499428 -0.004290652255 0) (3.008265618 0.07821590147 0));

boundaryField
{
    inlet
    {
        type            fixedValue;
        value           nonuniform 0();
    }
    outlet
    {
        type            inletOutlet;
        inletValue      nonuniform 0();
        value           nonuniform 0();
    }
    bottom
    {
        type            slip;
    }
    top
    {
        type            slip;
    }
    obstacle
    {
        type            slip;
    }
    defaultFaces
    {
        type            empty;
    }
    procBoundary4to3
    {
        type            processor;
        value           nonuniform List<vector> 2((2.994614844 -0.007672786967 0) (2.995979333 -0.03548005112 0));
    }
    procBoundary4to5
    {
        type            processor;
        value           nonuniform List<vector> 3((2.984151347 -0.008989971576 0) (2.992246901 -0.007241644985 0) (3.003331367 0.01044433268 0));
    }
    procBoundary4to9
    {
        type            processor;
        value           nonuniform List<vector> 2((2.993029845 -0.03664405107 0) (2.98006087 -0.04205775759 0));
    }
    procBoundary4to10
    {
        type            processor;
        value           uniform (3.001434137 0.03307627285 0);
    }
    procBoundary4to11
    {
        type            processor;
        value           nonuniform List<vector> 2((3.002438365 0.01541541143 0) (2.996944772 0.02750333317 0));
    }
    procBoundary4to15
    {
        type            processor;
        value           uniform (3.010293005 0.1127467014 0);
    }
}


// ************************************************************************* //
