/*--------------------------------*- C++ -*----------------------------------*\
  =========                 |
  \\      /  F ield         | OpenFOAM: The Open Source CFD Toolbox
   \\    /   O peration     | Website:  https://openfoam.org
    \\  /    A nd           | Version:  7
     \\/     M anipulation  |
\*---------------------------------------------------------------------------*/
FoamFile
{
    version     2.0;
    format      ascii;
    class       volScalarField;
    location    "0.8";
    object      p;
}
// * * * * * * * * * * * * * * * * * * * * * * * * * * * * * * * * * * * * * //

dimensions      [1 -1 -2 0 0 0 0];

internalField   nonuniform List<scalar> 
22
(
0.9999999902
1.000000085
1.000001432
0.9999999959
0.9999999958
0.9999999967
0.9999999951
0.9999999998
0.999999999
0.9999999987
0.999999998
1
1
1
1
1
1
1
1
1
1
1
)
;

boundaryField
{
    inlet
    {
        type            fixedValue;
        value           nonuniform 0();
    }
    outlet
    {
        type            zeroGradient;
    }
    bottom
    {
        type            slip;
    }
    top
    {
        type            slip;
    }
    obstacle
    {
        type            zeroGradient;
    }
    defaultFaces
    {
        type            empty;
    }
    procBoundary25to19
    {
        type            processor;
        value           nonuniform List<scalar> 7(1.000020356 1.000155371 1.000663003 1 1 1 1);
    }
    procBoundary25to24
    {
        type            processor;
        value           nonuniform List<scalar> 2(1 1);
    }
    procBoundary25to26
    {
        type            processor;
        value           nonuniform List<scalar> 4(1.000011576 1.000011576 1.000000017 0.999999998);
    }
    procBoundary25to30
    {
        type            processor;
        value           uniform 1;
    }
    procBoundary25to31
    {
        type            processor;
        value           nonuniform List<scalar> 8(0.9999999999 0.9999999997 1 0.9999999999 1 1 1 1);
    }
}


// ************************************************************************* //
