/*--------------------------------*- C++ -*----------------------------------*\
  =========                 |
  \\      /  F ield         | OpenFOAM: The Open Source CFD Toolbox
   \\    /   O peration     | Website:  https://openfoam.org
    \\  /    A nd           | Version:  7
     \\/     M anipulation  |
\*---------------------------------------------------------------------------*/
FoamFile
{
    version     2.0;
    format      ascii;
    class       volVectorField;
    location    "3";
    object      U;
}
// * * * * * * * * * * * * * * * * * * * * * * * * * * * * * * * * * * * * * //

dimensions      [0 1 -1 0 0 0 0];

internalField   nonuniform List<vector> 
2223
(
(3 -5.818776441e-15 0)
(3 -6.136120968e-15 0)
(3 -6.460133774e-15 0)
(3 -7.082062276e-15 0)
(3 -7.240262353e-15 0)
(3 -6.914502749e-15 0)
(3 -2.422646474e-15 0)
(3 4.038583217e-15 0)
(3 7.224146058e-15 0)
(3 1.017272687e-14 0)
(3 1.091267958e-14 0)
(3 1.229474493e-14 0)
(3 1.308888526e-14 0)
(3 1.451688567e-14 0)
(3 1.557395582e-14 0)
(3 1.637606045e-14 0)
(3 1.917122061e-14 0)
(3 2.174478315e-14 0)
(3 2.319243885e-14 0)
(3 2.258642755e-14 0)
(3 2.103466316e-14 0)
(3 2.054626414e-14 0)
(3 2.198907808e-14 0)
(3 2.206920124e-14 0)
(3 1.81354771e-14 0)
(3 1.660924469e-14 0)
(3 1.534623357e-14 0)
(3 1.502573045e-14 0)
(3 1.392171316e-14 0)
(3 1.182893978e-14 0)
(3 9.326408099e-15 0)
(3 9.022746133e-15 0)
(3 6.495854753e-15 0)
(3 5.98382984e-15 0)
(3 8.640830165e-15 0)
(3 1.09886162e-14 0)
(3 9.472495484e-15 0)
(3 7.889596953e-15 0)
(3 7.964766829e-15 0)
(3 7.118611087e-15 0)
(3 5.859895286e-15 0)
(3 5.111032771e-15 0)
(3 5.059523883e-15 0)
(3 7.878183986e-15 0)
(3 8.810618235e-15 0)
(3 -2.884249525e-15 0)
(3 -3.076963957e-15 0)
(3 -2.885585345e-15 0)
(3 -1.832421851e-15 0)
(3 -2.510213033e-15 0)
(3 -3.608550206e-15 0)
(3 -4.974480343e-15 0)
(3 -5.481083085e-15 0)
(3 -6.595405039e-15 0)
(3 -8.617240554e-15 0)
(3 -8.603862888e-15 0)
(3 -7.416134999e-15 0)
(3 -3.199941728e-15 0)
(3 -3.50909358e-15 0)
(3 -5.32035615e-15 0)
(3 -6.806398668e-15 0)
(3 -7.365512711e-15 0)
(3 -6.737548262e-15 0)
(3 -4.6753762e-15 0)
(3 -1.738439937e-15 0)
(3 -1.618695742e-16 0)
(3 1.327200127e-15 0)
(3 2.272810242e-15 0)
(3 2.131208051e-15 0)
(3 1.676492244e-15 0)
(3 1.638650793e-15 0)
(3 1.71350228e-15 0)
(3 4.849912567e-15 0)
(3 8.368051395e-15 0)
(3 1.178286438e-14 0)
(3 1.424737172e-14 0)
(3 1.512511567e-14 0)
(3 1.624051597e-14 0)
(3 1.838550198e-14 0)
(3 1.961433222e-14 0)
(3 1.935908269e-14 0)
(3 1.64479214e-14 0)
(3 1.362281352e-14 0)
(3 1.488530317e-14 0)
(3 1.752825614e-14 0)
(3 1.807860978e-14 0)
(3 1.736493221e-14 0)
(3 1.516018609e-14 0)
(3 1.461546276e-14 0)
(3 1.476957809e-14 0)
(3 1.420879003e-14 0)
(3 1.291874953e-14 0)
(3 1.186367068e-14 0)
(3 9.752992528e-15 0)
(3 7.578015555e-15 0)
(3 6.509818346e-15 0)
(3 4.018228174e-15 0)
(3 3.215184944e-15 0)
(3 2.670874727e-15 0)
(3 1.997460082e-15 0)
(3 1.697608746e-15 0)
(3 1.906471977e-15 0)
(3 3.547390171e-15 0)
(3 3.956265118e-15 0)
(3 4.726019742e-15 0)
(3 4.472070904e-15 0)
(3 4.344021881e-15 0)
(3 4.052397365e-15 0)
(3 5.227103591e-15 0)
(3 5.234102837e-15 0)
(3 6.848955567e-15 0)
(3 5.266689935e-15 0)
(3 3.693173052e-15 0)
(3 5.459980182e-15 0)
(3 7.635840379e-15 0)
(3 8.092441749e-15 0)
(3 7.632725426e-15 0)
(3 5.749915178e-15 0)
(3 2.966907349e-15 0)
(3 1.051604103e-15 0)
(3 -1.917776891e-15 0)
(3 -2.538398096e-15 0)
(3 3.45443457e-16 0)
(3 3.30325367e-15 0)
(3 5.105969401e-15 0)
(3 7.194890529e-15 0)
(3 7.279559576e-15 0)
(3 7.488660827e-15 0)
(3 7.641409472e-15 0)
(3 6.799803321e-15 0)
(3 6.517190686e-15 0)
(3 6.81129826e-15 0)
(3 8.416112518e-15 0)
(3 9.649303291e-15 0)
(3 9.819232531e-15 0)
(3 1.005868756e-14 0)
(3 1.123425982e-14 0)
(3 1.272636513e-14 0)
(3 1.503793378e-14 0)
(3 1.621297585e-14 0)
(3 1.726555671e-14 0)
(3 1.710332466e-14 0)
(3 1.654509984e-14 0)
(3 1.750739766e-14 0)
(3 1.856849433e-14 0)
(3 1.881119236e-14 0)
(3 1.619028525e-14 0)
(3 1.180760156e-14 0)
(3 9.505853734e-15 0)
(3 9.802174527e-15 0)
(3 1.05691471e-14 0)
(3 1.125866668e-14 0)
(3 1.11153197e-14 0)
(3 1.05318845e-14 0)
(3 9.457730726e-15 0)
(3 8.053964256e-15 0)
(3 5.452040423e-15 0)
(3 -1.325965168e-16 0)
(3 -3.693167127e-15 0)
(3 -3.892086843e-15 0)
(3 -3.731267437e-15 0)
(3 -3.540707766e-15 0)
(3 -4.346404203e-15 0)
(3 -5.620243373e-15 0)
(3 -5.797688502e-15 0)
(3 -5.72016718e-15 0)
(3 -6.246673746e-15 0)
(3 -5.827857302e-15 0)
(3 -3.342528514e-15 0)
(3 -1.406055899e-15 0)
(3 -1.268210597e-15 0)
(3 -1.304581228e-15 0)
(3 -1.261222353e-15 0)
(3 -1.555686924e-15 0)
(3 -3.116594058e-15 0)
(3 -3.979191112e-15 0)
(3 -1.749969673e-15 0)
(3 1.128453556e-14 0)
(3 1.204780778e-14 0)
(3 1.181677532e-14 0)
(3 1.07101378e-14 0)
(3 1.088547962e-14 0)
(3 1.111191477e-14 0)
(3 1.179623206e-14 0)
(3 9.585112631e-15 0)
(3 6.073706485e-15 0)
(3 7.398173654e-15 0)
(3 1.254021225e-14 0)
(3 1.295637928e-14 0)
(3 1.407781795e-14 0)
(3 1.464874241e-14 0)
(3 1.511437828e-14 0)
(3 1.652996878e-14 0)
(3 1.792561706e-14 0)
(3 1.981352963e-14 0)
(3 2.081658661e-14 0)
(3 2.095950648e-14 0)
(3 1.980327718e-14 0)
(3 1.763280953e-14 0)
(3 1.510857047e-14 0)
(3 1.521480071e-14 0)
(3 1.573946386e-14 0)
(3 1.656267702e-14 0)
(3 1.853112869e-14 0)
(3 1.865916632e-14 0)
(3 1.949764644e-14 0)
(3 2.092661665e-14 0)
(3 2.051150183e-14 0)
(3 1.636473565e-14 0)
(3 1.161882575e-14 0)
(3 9.010363024e-15 0)
(3 6.365568219e-15 0)
(3 7.101661617e-15 0)
(3 5.348992524e-15 0)
(3 3.151451122e-15 0)
(3 1.516408705e-15 0)
(3 -1.028650526e-15 0)
(3 -4.362217479e-15 0)
(3 -5.177152458e-15 0)
(3 -4.225252623e-15 0)
(3 -1.710570037e-15 0)
(3 -2.156808458e-15 0)
(3 -3.602045229e-15 0)
(3 -6.355936702e-15 0)
(3 -1.037309053e-14 0)
(3 -1.098890225e-14 0)
(3 -1.06393205e-14 0)
(3 -1.047950065e-14 0)
(3 -1.034693666e-14 0)
(3 -1.127555887e-14 0)
(3 -1.346763348e-14 0)
(3 -1.352725095e-14 0)
(3 -1.350790589e-14 0)
(3 -1.506111234e-14 0)
(3 -1.47825923e-14 0)
(3 -1.281974243e-14 0)
(3 -1.159011218e-14 0)
(3 -9.940875592e-15 0)
(3 -9.972615279e-15 0)
(3 -9.34244796e-15 0)
(3 -1.018342638e-14 0)
(3 -1.118280506e-14 0)
(3 -1.137686984e-14 0)
(3 1.253914834e-14 0)
(3 1.360938776e-14 0)
(3 1.469538526e-14 0)
(3 1.531201718e-14 0)
(3 1.336772244e-14 0)
(3 1.10544116e-14 0)
(3 1.042301234e-14 0)
(3 1.203396708e-14 0)
(3 1.375195601e-14 0)
(3 1.735792729e-14 0)
(3 2.056940215e-14 0)
(3 2.121041126e-14 0)
(3 2.056978468e-14 0)
(3 1.917565199e-14 0)
(3 1.851430813e-14 0)
(3 2.011188004e-14 0)
(3 2.180404231e-14 0)
(3 2.294679724e-14 0)
(3 2.322501908e-14 0)
(3 2.275826702e-14 0)
(3 2.13261433e-14 0)
(3 1.784036112e-14 0)
(3 1.496708418e-14 0)
(3 1.313753798e-14 0)
(3 1.222707184e-14 0)
(3 1.362593229e-14 0)
(3 1.334228861e-14 0)
(3 1.334646712e-14 0)
(3 1.431676075e-14 0)
(3 1.496412407e-14 0)
(3 1.378080032e-14 0)
(3 9.492890506e-15 0)
(3 5.999440711e-15 0)
(3 1.885703945e-15 0)
(3 -4.720006436e-16 0)
(3 -7.912514983e-16 0)
(3 -3.807798958e-15 0)
(3 -5.561978456e-15 0)
(3 -6.601625285e-15 0)
(3 -8.036135174e-15 0)
(3 -1.292041965e-14 0)
(3 -1.606939659e-14 0)
(3 -1.608679106e-14 0)
(3 -1.600325689e-14 0)
(3 -1.56523045e-14 0)
(3 -1.321168724e-14 0)
(3 -1.025760835e-14 0)
(3 -1.024226028e-14 0)
(3 -1.147662725e-14 0)
(3 -1.17246512e-14 0)
(3 -1.221568379e-14 0)
(3 -1.207038821e-14 0)
(3 -1.297764933e-14 0)
(3 -1.381367495e-14 0)
(3 -1.35795908e-14 0)
(3 -1.450180271e-14 0)
(3 -1.436198605e-14 0)
(3 -1.704391521e-14 0)
(3 -1.859553639e-14 0)
(3 -1.854843541e-14 0)
(3 -1.68775455e-14 0)
(3 -1.508241469e-14 0)
(3 -1.281845452e-14 0)
(3 -1.07265279e-14 0)
(3 -1.046283325e-14 0)
(3 -1.061961268e-14 0)
(3 6.636612828e-15 0)
(3 1.046838453e-14 0)
(3 1.514723573e-14 0)
(3 1.965737666e-14 0)
(3 2.034169522e-14 0)
(3 1.927280584e-14 0)
(3 1.757025471e-14 0)
(3 1.725233414e-14 0)
(3 1.818506237e-14 0)
(3 2.053723212e-14 0)
(3 2.205406731e-14 0)
(3 2.272903815e-14 0)
(3 2.209542979e-14 0)
(3 2.136332393e-14 0)
(3 2.102541191e-14 0)
(3 1.861222523e-14 0)
(3 1.831926186e-14 0)
(3 1.597688743e-14 0)
(3 1.512571028e-14 0)
(3 1.155101462e-14 0)
(3 1.089764941e-14 0)
(3 9.341926174e-15 0)
(3 1.064998214e-14 0)
(3 1.209006729e-14 0)
(3 1.317739385e-14 0)
(3 1.187553471e-14 0)
(3 1.088899279e-14 0)
(3 1.007616579e-14 0)
(3 9.923741564e-15 0)
(3 8.068011589e-15 0)
(3 3.674678567e-15 0)
(3 1.028513027e-15 0)
(3 -1.343625596e-16 0)
(3 -1.528987567e-15 0)
(3 -5.709472628e-15 0)
(3 -7.839427305e-15 0)
(3 -8.344266102e-15 0)
(3 -1.10684502e-14 0)
(3 -1.215641102e-14 0)
(3 -1.23842796e-14 0)
(3 -1.542813961e-14 0)
(3 -1.686954456e-14 0)
(3 -1.990120135e-14 0)
(3 -2.170380374e-14 0)
(3 -2.260100745e-14 0)
(3 -1.885932142e-14 0)
(3 -1.629591242e-14 0)
(3 -1.636961853e-14 0)
(3 -1.787122633e-14 0)
(3 -1.784971027e-14 0)
(3 -1.432567282e-14 0)
(3 -1.209154616e-14 0)
(3 -1.063560128e-14 0)
(3 -9.897089112e-15 0)
(3 -9.435638134e-15 0)
(3 -8.644989793e-15 0)
(3 -1.183654547e-14 0)
(3 -1.675846295e-14 0)
(3 -2.033337889e-14 0)
(3 -2.032079228e-14 0)
(3 -1.914046561e-14 0)
(3 -1.691296375e-14 0)
(3 -1.478493185e-14 0)
(3 -1.371657275e-14 0)
(3 -1.158804836e-14 0)
(3 -1.092367313e-14 0)
(3 8.939029315e-15 0)
(3 9.806980761e-15 0)
(3 1.160895402e-14 0)
(3 1.478696638e-14 0)
(3 1.777457284e-14 0)
(3 1.86918315e-14 0)
(3 1.840068007e-14 0)
(3 1.829062019e-14 0)
(3 1.86002716e-14 0)
(3 1.719538537e-14 0)
(3 1.594453251e-14 0)
(3 1.713637077e-14 0)
(3 2.018851029e-14 0)
(3 2.097722349e-14 0)
(3 2.06489471e-14 0)
(3 1.711780839e-14 0)
(3 1.333368605e-14 0)
(3 9.96187607e-15 0)
(3 4.908436093e-15 0)
(3 1.683817087e-15 0)
(3 1.274026358e-16 0)
(3 -1.438355084e-15 0)
(3 -1.391609273e-15 0)
(3 -3.488748842e-16 0)
(3 3.220206474e-16 0)
(3 2.984736544e-16 0)
(3 2.181444249e-16 0)
(3 -2.616054063e-15 0)
(3 -4.320681804e-15 0)
(3 -7.043064862e-15 0)
(3 -9.090061262e-15 0)
(3 -9.939148035e-15 0)
(3 -9.778476377e-15 0)
(3 -1.011342038e-14 0)
(3 -1.226723726e-14 0)
(3 -1.348222786e-14 0)
(3 -1.533804226e-14 0)
(3 -1.564414244e-14 0)
(3 -1.767259716e-14 0)
(3 -1.987983721e-14 0)
(3 -2.0765697e-14 0)
(3 -2.109482844e-14 0)
(3 -2.130855047e-14 0)
(3 -2.181412433e-14 0)
(3 -2.209261038e-14 0)
(3 -2.160868049e-14 0)
(3 -2.101169918e-14 0)
(3 -1.968667419e-14 0)
(3 -1.951161105e-14 0)
(3 -1.871435473e-14 0)
(3 -1.471746875e-14 0)
(3 -1.272224545e-14 0)
(3 -9.490198669e-15 0)
(3 -8.950859197e-15 0)
(3 -9.235398303e-15 0)
(3 -9.606283236e-15 0)
(3 -1.169310208e-14 0)
(3 -1.435322595e-14 0)
(3 -1.492651509e-14 0)
(3 -1.3785542e-14 0)
(3 -1.349399089e-14 0)
(3 -1.380712943e-14 0)
(3 -1.395945839e-14 0)
(3 -1.35160601e-14 0)
(3 -1.254948949e-14 0)
(3 -1.235129527e-14 0)
(3 4.525372716e-15 0)
(3 5.674864604e-15 0)
(3 8.04220852e-15 0)
(3 1.104689149e-14 0)
(3 1.28267677e-14 0)
(3 1.598773644e-14 0)
(3 2.031027979e-14 0)
(3 2.140356195e-14 0)
(3 2.0253418e-14 0)
(3 1.536981528e-14 0)
(3 1.223273756e-14 0)
(3 1.306682872e-14 0)
(3 1.499087131e-14 0)
(3 1.736106707e-14 0)
(3 1.566782034e-14 0)
(3 1.179459248e-14 0)
(3 6.985104958e-15 0)
(3 3.710044096e-15 0)
(3 -1.351328432e-15 0)
(3 -5.162187413e-15 0)
(3 -8.82032025e-15 0)
(3 -9.597189483e-15 0)
(3 -1.076405594e-14 0)
(3 -1.029646492e-14 0)
(3 -9.146623386e-15 0)
(3 -8.057077944e-15 0)
(3 -7.773183052e-15 0)
(3 -1.127282044e-14 0)
(3 -1.376376849e-14 0)
(3 -1.49130387e-14 0)
(3 -1.622779088e-14 0)
(3 -1.639525565e-14 0)
(3 -1.736262801e-14 0)
(3 -1.828160089e-14 0)
(3 -1.979182124e-14 0)
(3 -2.119711921e-14 0)
(3 -2.25066976e-14 0)
(3 -2.361307206e-14 0)
(3 -2.479614151e-14 0)
(3 -2.668707422e-14 0)
(3 -2.750269755e-14 0)
(3 -2.734139273e-14 0)
(3 -2.651510605e-14 0)
(3 -2.593099453e-14 0)
(3 -2.422867941e-14 0)
(3 -2.210213025e-14 0)
(3 -1.946043227e-14 0)
(3 -1.773752577e-14 0)
(3 -1.526520543e-14 0)
(3 -1.44715743e-14 0)
(3 -1.410307307e-14 0)
(3 -1.285488868e-14 0)
(3 -1.177811118e-14 0)
(3 -8.64219736e-15 0)
(3 -7.79336437e-15 0)
(3 -8.685288272e-15 0)
(3 -9.776275287e-15 0)
(3 -1.055767108e-14 0)
(3 -1.139288953e-14 0)
(3 -1.146496251e-14 0)
(3 -1.133040446e-14 0)
(3 -1.099377777e-14 0)
(3 -1.09887956e-14 0)
(3 -1.125155038e-14 0)
(3 -1.065837798e-14 0)
(3 -9.710925861e-15 0)
(3 1.086827267e-14 0)
(3 1.136710564e-14 0)
(3 1.319596325e-14 0)
(3 1.404825448e-14 0)
(3 1.379354008e-14 0)
(3 1.412978107e-14 0)
(3 1.395513746e-14 0)
(3 1.341493627e-14 0)
(3 1.189148919e-14 0)
(3 9.162610027e-15 0)
(3 5.330349274e-15 0)
(3 5.114214898e-15 0)
(3 4.938859478e-15 0)
(3 7.664956451e-15 0)
(3 1.041867393e-14 0)
(3 8.247439557e-15 0)
(3 4.372672644e-15 0)
(3 1.377609576e-15 0)
(3 -4.271997252e-15 0)
(3 -1.206103877e-14 0)
(3 -1.507124265e-14 0)
(3 -1.423670326e-14 0)
(3 -1.406326501e-14 0)
(3 -1.560580666e-14 0)
(3 -1.662189218e-14 0)
(3 -1.672862756e-14 0)
(3 -1.772224793e-14 0)
(3 -1.900249281e-14 0)
(3 -2.033143866e-14 0)
(3 -2.162805412e-14 0)
(3 -2.339195414e-14 0)
(3 -2.458540928e-14 0)
(3 -2.464045453e-14 0)
(3 -2.499937821e-14 0)
(3 -2.669844866e-14 0)
(3 -2.696466752e-14 0)
(3 -2.744818443e-14 0)
(3 -2.82205246e-14 0)
(3 -2.876404764e-14 0)
(3 -2.735529678e-14 0)
(3 -2.436957405e-14 0)
(3 -2.24039107e-14 0)
(3 -2.30339432e-14 0)
(3 -2.308070017e-14 0)
(3 -2.203995867e-14 0)
(3 -2.171117851e-14 0)
(3 -1.95231401e-14 0)
(3 -1.866802039e-14 0)
(3 -1.772971503e-14 0)
(3 -1.508262015e-14 0)
(3 -1.496018448e-14 0)
(3 -1.553228793e-14 0)
(3 -1.533688573e-14 0)
(3 -1.224733821e-14 0)
(3 -1.117451818e-14 0)
(3 -1.181468454e-14 0)
(3 -1.043938732e-14 0)
(3 -8.395718433e-15 0)
(3 -8.321784739e-15 0)
(3 -9.805871096e-15 0)
(3 -1.079475272e-14 0)
(3 -1.038498516e-14 0)
(3 -9.638756778e-15 0)
(3 -9.257528568e-15 0)
(3 -8.335250785e-15 0)
(3 -6.194765984e-15 0)
(3 2.004909631e-14 0)
(3 1.931693016e-14 0)
(3 1.663853569e-14 0)
(3 1.42154938e-14 0)
(3 1.276039578e-14 0)
(3 1.210257216e-14 0)
(3 1.137406385e-14 0)
(3 1.009765994e-14 0)
(3 8.548175081e-15 0)
(3 8.151569683e-15 0)
(3 7.634057758e-15 0)
(3 6.828310245e-15 0)
(3 5.427866651e-15 0)
(3 4.437376771e-15 0)
(3 5.158240634e-15 0)
(3 4.959881061e-15 0)
(3 5.775539702e-16 0)
(3 -4.009410756e-15 0)
(3 -1.131985159e-14 0)
(3 -1.616416834e-14 0)
(3 -1.646727707e-14 0)
(3 -1.829414785e-14 0)
(3 -1.836625699e-14 0)
(3 -1.974409274e-14 0)
(3 -2.037978896e-14 0)
(3 -2.066430772e-14 0)
(3 -2.236256188e-14 0)
(3 -2.1896456e-14 0)
(3 -2.189156546e-14 0)
(3 -2.218978215e-14 0)
(3 -2.366360946e-14 0)
(3 -2.414783497e-14 0)
(3 -2.405425545e-14 0)
(3 -2.467623023e-14 0)
(3 -2.349407442e-14 0)
(3 -2.266727344e-14 0)
(3 -2.403205419e-14 0)
(3 -2.448702479e-14 0)
(3 -2.470407959e-14 0)
(3 -2.438227463e-14 0)
(3 -2.20320706e-14 0)
(3 -2.045559633e-14 0)
(3 -1.947606767e-14 0)
(3 -1.893140095e-14 0)
(3 -1.896256441e-14 0)
(3 -1.873490453e-14 0)
(3 -1.802964328e-14 0)
(3 -1.793231174e-14 0)
(3 -1.744053848e-14 0)
(3 -1.556048367e-14 0)
(3 -1.570797154e-14 0)
(3 -1.78999808e-14 0)
(3 -1.94185925e-14 0)
(3 -1.855498148e-14 0)
(3 -1.777645689e-14 0)
(3 -1.54653682e-14 0)
(3 -1.242593416e-14 0)
(3 -9.921598435e-15 0)
(3 -7.863268641e-15 0)
(3 -7.556330128e-15 0)
(3 -7.780097924e-15 0)
(3 -8.646873583e-15 0)
(3 -7.682499399e-15 0)
(3 -6.088450464e-15 0)
(3 -4.505115243e-15 0)
(3 -2.767489461e-15 0)
(3 2.13259205e-14 0)
(3 2.127461447e-14 0)
(3 1.846823228e-14 0)
(3 1.47350942e-14 0)
(3 1.156406725e-14 0)
(3 8.572376817e-15 0)
(3 7.658845536e-15 0)
(3 6.347585303e-15 0)
(3 5.865130338e-15 0)
(3 7.52644134e-15 0)
(3 9.382505912e-15 0)
(3 1.002293041e-14 0)
(3 9.421355298e-15 0)
(3 6.555618122e-15 0)
(3 3.647646211e-15 0)
(3 2.745683954e-15 0)
(3 -2.218750369e-15 0)
(3 -7.501291916e-15 0)
(3 -1.372084595e-14 0)
(3 -1.759837151e-14 0)
(3 -1.882874077e-14 0)
(3 -1.88411034e-14 0)
(3 -1.987803955e-14 0)
(3 -2.123896312e-14 0)
(3 -2.277128394e-14 0)
(3 -2.315557695e-14 0)
(3 -2.3295847e-14 0)
(3 -2.209578731e-14 0)
(3 -2.094023894e-14 0)
(3 -1.951243385e-14 0)
(3 -1.877111999e-14 0)
(3 -1.788162283e-14 0)
(3 -1.756274664e-14 0)
(3 -1.761520874e-14 0)
(3 -1.782854129e-14 0)
(3 -1.846908646e-14 0)
(3 -1.965568684e-14 0)
(3 -1.996152219e-14 0)
(3 -2.018609609e-14 0)
(3 -2.097719788e-14 0)
(3 -2.179815539e-14 0)
(3 -2.293144032e-14 0)
(3 -2.230456482e-14 0)
(3 -2.085040275e-14 0)
(3 -2.077316026e-14 0)
(3 -1.867504519e-14 0)
(3 -1.851334197e-14 0)
(3 -1.881498541e-14 0)
(3 -1.884074468e-14 0)
(3 -1.893251925e-14 0)
(3 -1.868189995e-14 0)
(3 -2.091963676e-14 0)
(3 -2.151995714e-14 0)
(3 -2.196591141e-14 0)
(3 -2.147515322e-14 0)
(3 -1.802260476e-14 0)
(3 -1.469189798e-14 0)
(3 -1.227033496e-14 0)
(3 -9.829726199e-15 0)
(3 -9.170074262e-15 0)
(3 -9.325382212e-15 0)
(3 -5.933576095e-15 0)
(3 -3.334853872e-15 0)
(3 -1.340022901e-15 0)
(3 -1.087517366e-15 0)
(3 -4.231110187e-16 0)
(3 1.950359055e-14 0)
(3 1.788985417e-14 0)
(3 1.607492723e-14 0)
(3 1.464266907e-14 0)
(3 1.301242479e-14 0)
(3 1.132329455e-14 0)
(3 9.933605947e-15 0)
(3 1.034920674e-14 0)
(3 1.148086188e-14 0)
(3 1.31998455e-14 0)
(3 1.342856341e-14 0)
(3 1.324904409e-14 0)
(3 1.029842442e-14 0)
(3 3.644269764e-15 0)
(3 -4.013580709e-15 0)
(3 -8.091882707e-15 0)
(3 -9.667854448e-15 0)
(3 -9.76935663e-15 0)
(3 -8.893587388e-15 0)
(3 -9.527445146e-15 0)
(3 -1.175895887e-14 0)
(3 -1.474693742e-14 0)
(3 -1.593367108e-14 0)
(3 -1.774643304e-14 0)
(3 -1.92899555e-14 0)
(3 -1.988659183e-14 0)
(3 -2.04392455e-14 0)
(3 -2.080336834e-14 0)
(3 -2.061653951e-14 0)
(3 -1.947332814e-14 0)
(3 -1.733593043e-14 0)
(3 -1.697748337e-14 0)
(3 -1.668655916e-14 0)
(3 -1.516848546e-14 0)
(3 -1.499909094e-14 0)
(3 -1.665775512e-14 0)
(3 -1.740451436e-14 0)
(3 -1.735351517e-14 0)
(3 -1.646293336e-14 0)
(3 -1.620550434e-14 0)
(3 -1.674729095e-14 0)
(3 -1.590459669e-14 0)
(3 -1.647606629e-14 0)
(3 -1.745033276e-14 0)
(3 -1.73841502e-14 0)
(3 -1.802441249e-14 0)
(3 -2.02110355e-14 0)
(3 -2.041193971e-14 0)
(3 -2.163382593e-14 0)
(3 -2.159187013e-14 0)
(3 -2.191156224e-14 0)
(3 -1.942429577e-14 0)
(3 -1.780083402e-14 0)
(3 -1.645783788e-14 0)
(3 -1.582894143e-14 0)
(3 -1.598614487e-14 0)
(3 -1.540729965e-14 0)
(3 -1.001095556e-14 0)
(3 -5.949487505e-15 0)
(3 -5.359400227e-15 0)
(3 -3.299102379e-15 0)
(3 -2.229678783e-15 0)
(3 -2.493508825e-15 0)
(3 -2.164962666e-15 0)
(3 -1.83244326e-15 0)
(3 -4.818573396e-16 0)
(3 6.763250618e-15 0)
(3 7.369290337e-15 0)
(3 8.109462222e-15 0)
(3 8.82276123e-15 0)
(3 9.70733065e-15 0)
(3 1.009639973e-14 0)
(3 1.090738701e-14 0)
(3 1.304201594e-14 0)
(3 1.389911835e-14 0)
(3 1.281064156e-14 0)
(3 8.141167838e-15 0)
(3 4.139542995e-15 0)
(3 7.36278238e-16 0)
(3 -4.272214621e-15 0)
(3 -7.784620109e-15 0)
(3 -1.101430671e-14 0)
(3 -1.102913983e-14 0)
(3 -9.26511725e-15 0)
(3 -8.001833074e-15 0)
(3 -8.046314578e-15 0)
(3 -7.968930978e-15 0)
(3 -9.929207018e-15 0)
(3 -1.128861399e-14 0)
(3 -1.100962618e-14 0)
(3 -1.039626761e-14 0)
(3 -1.07367074e-14 0)
(3 -1.347606659e-14 0)
(3 -1.607102167e-14 0)
(3 -1.72810202e-14 0)
(3 -1.750086016e-14 0)
(3 -1.68712376e-14 0)
(3 -1.573364496e-14 0)
(3 -1.46285597e-14 0)
(3 -1.440729878e-14 0)
(3 -1.408061717e-14 0)
(3 -9.500632519e-15 0)
(3 -8.546238891e-15 0)
(3 -1.058217896e-14 0)
(3 -1.326389917e-14 0)
(3 -1.342995143e-14 0)
(3 -1.498649035e-14 0)
(3 -1.490222713e-14 0)
(3 -1.468565162e-14 0)
(3 -1.420940222e-14 0)
(3 -1.557462147e-14 0)
(3 -1.848831736e-14 0)
(3 -2.160502894e-14 0)
(3 -2.202788865e-14 0)
(3 -2.190289916e-14 0)
(3 -2.161116614e-14 0)
(3 -2.142387757e-14 0)
(3 -2.092355662e-14 0)
(3 -1.968720984e-14 0)
(3 -1.846744161e-14 0)
(3 -1.713352865e-14 0)
(3 -1.700005275e-14 0)
(3 -1.637531992e-14 0)
(3 -9.964443121e-15 0)
(3 -4.956081487e-15 0)
(3 -2.911970541e-15 0)
(3 -1.632307299e-15 0)
(3 -1.73826801e-15 0)
(3 -4.144614541e-15 0)
(3 -5.105585409e-15 0)
(3 -4.66492082e-15 0)
(3 -4.460102893e-15 0)
(3 9.127912419e-15 0)
(3 1.03261866e-14 0)
(3 1.340571964e-14 0)
(3 1.729714013e-14 0)
(3 1.799845049e-14 0)
(3 1.939277894e-14 0)
(3 2.066585327e-14 0)
(3 2.197829859e-14 0)
(3 2.009078501e-14 0)
(3 1.766802354e-14 0)
(3 1.249648525e-14 0)
(3 8.022343829e-15 0)
(3 2.856751891e-15 0)
(3 2.183925195e-15 0)
(3 -1.872930192e-16 0)
(3 -3.875600155e-15 0)
(3 -7.097570181e-15 0)
(3 -8.638725e-15 0)
(3 -9.024847126e-15 0)
(3 -7.839906102e-15 0)
(3 -7.61826696e-15 0)
(3 -7.540559166e-15 0)
(3 -6.425982997e-15 0)
(3 -4.762858024e-15 0)
(3 -4.701264367e-15 0)
(3 -4.962282596e-15 0)
(3 -5.756678709e-15 0)
(3 -7.851877072e-15 0)
(3 -9.411171903e-15 0)
(3 -1.07692525e-14 0)
(3 -1.008916251e-14 0)
(3 -8.288848253e-15 0)
(3 -5.418730513e-15 0)
(3 -3.719724573e-15 0)
(3 -2.341216383e-15 0)
(3 -1.199839323e-15 0)
(3 -1.300037131e-15 0)
(3 -1.774827589e-15 0)
(3 -3.369940819e-15 0)
(3 -6.518987178e-15 0)
(3 -8.04617116e-15 0)
(3 -9.587391121e-15 0)
(3 -9.957490371e-15 0)
(3 -1.067608886e-14 0)
(3 -1.243515647e-14 0)
(3 -1.457110394e-14 0)
(3 -1.701557118e-14 0)
(3 -2.118561436e-14 0)
(3 -2.188187052e-14 0)
(3 -2.200116142e-14 0)
(3 -2.1573049e-14 0)
(3 -2.170305673e-14 0)
(3 -2.093701153e-14 0)
(3 -1.978010422e-14 0)
(3 -2.007604021e-14 0)
(3 -2.030703094e-14 0)
(3 -1.798833252e-14 0)
(3 -1.368138047e-14 0)
(3 -1.008373138e-14 0)
(3 -9.905726058e-15 0)
(3 -1.048765654e-14 0)
(3 -1.096575466e-14 0)
(3 -1.030669197e-14 0)
(3 -9.967308959e-15 0)
(3 -8.841563805e-15 0)
(3 -7.863288337e-15 0)
(3 7.764105855e-15 0)
(3 8.715382809e-15 0)
(3 9.907412002e-15 0)
(3 1.125933593e-14 0)
(3 1.24396144e-14 0)
(3 1.48185628e-14 0)
(3 1.676893436e-14 0)
(3 1.56004634e-14 0)
(3 1.356928722e-14 0)
(3 1.134789692e-14 0)
(3 8.631165083e-15 0)
(3 6.799925594e-15 0)
(3 2.636152142e-15 0)
(3 -1.036918609e-16 0)
(3 -1.66516533e-15 0)
(3 -3.269003471e-15 0)
(3 -3.547984702e-15 0)
(3 -6.29586518e-15 0)
(3 -1.067922765e-14 0)
(3 -1.164941016e-14 0)
(3 -1.179681119e-14 0)
(3 -1.054663637e-14 0)
(3 -7.15790476e-15 0)
(3 -3.413061047e-15 0)
(3 -1.597997599e-15 0)
(3 -7.048384723e-16 0)
(3 3.236018049e-17 0)
(3 -4.916150482e-16 0)
(3 -1.795517803e-15 0)
(3 -2.623636491e-15 0)
(3 -1.401887241e-15 0)
(3 5.01871399e-16 0)
(3 2.56877729e-15 0)
(3 3.28122029e-15 0)
(3 3.646556489e-15 0)
(3 3.506051913e-15 0)
(3 3.089538104e-15 0)
(3 3.565337559e-15 0)
(3 3.324241523e-15 0)
(3 2.128644632e-15 0)
(3 6.851573476e-16 0)
(3 -2.703743282e-15 0)
(3 -4.254166929e-15 0)
(3 -6.260100242e-15 0)
(3 -8.66333053e-15 0)
(3 -8.997080911e-15 0)
(3 -9.739932333e-15 0)
(3 -1.131261718e-14 0)
(3 -1.481891077e-14 0)
(3 -1.597792632e-14 0)
(3 -1.603945051e-14 0)
(3 -1.493879806e-14 0)
(3 -1.311933657e-14 0)
(3 -1.216833334e-14 0)
(3 -1.278622419e-14 0)
(3 -1.46793294e-14 0)
(3 -1.528196457e-14 0)
(3 -1.497415904e-14 0)
(3 -1.464571111e-14 0)
(3 -1.836720045e-14 0)
(3 -1.891267571e-14 0)
(3 -1.802448799e-14 0)
(3 -1.484486908e-14 0)
(3 -1.307619576e-14 0)
(3 -1.280559144e-14 0)
(3 -1.142062059e-14 0)
(3 8.366423386e-16 0)
(3 3.858733465e-15 0)
(3 4.93115116e-15 0)
(3 4.887886114e-15 0)
(3 4.80666095e-15 0)
(3 4.867103312e-15 0)
(3 4.533213531e-15 0)
(3 2.941250593e-15 0)
(3 1.442478837e-15 0)
(3 8.755100854e-16 0)
(3 -1.059022729e-15 0)
(3 -1.43347391e-15 0)
(3 -3.348416e-15 0)
(3 -5.026488434e-15 0)
(3 -6.386807065e-15 0)
(3 -7.14124402e-15 0)
(3 -8.206387495e-15 0)
(3 -1.004784499e-14 0)
(3 -1.21842503e-14 0)
(3 -1.451607385e-14 0)
(3 -1.430658529e-14 0)
(3 -1.108418895e-14 0)
(3 -7.633064985e-15 0)
(3 -3.783751314e-15 0)
(3 -2.397657737e-15 0)
(3 -1.466897806e-15 0)
(3 -7.530781394e-17 0)
(3 8.481594615e-16 0)
(3 6.829938332e-16 0)
(3 4.676634861e-16 0)
(3 2.956899932e-15 0)
(3 6.097085636e-15 0)
(3 6.93405563e-15 0)
(3 7.149340977e-15 0)
(3 8.669473988e-15 0)
(3 8.966508107e-15 0)
(3 9.014426487e-15 0)
(3 8.44162356e-15 0)
(3 8.344241958e-15 0)
(3 6.83665762e-15 0)
(3 4.451995425e-15 0)
(3 1.726839061e-15 0)
(3 -1.840240662e-15 0)
(3 -2.473212065e-15 0)
(3 -2.77290757e-15 0)
(3 -3.092194303e-15 0)
(3 -3.632051841e-15 0)
(3 -4.531899207e-15 0)
(3 -5.991165587e-15 0)
(3 -8.111334468e-15 0)
(3 -9.907080459e-15 0)
(3 -9.969796503e-15 0)
(3 -1.254418333e-14 0)
(3 -1.468989026e-14 0)
(3 -1.421915637e-14 0)
(3 -1.541066076e-14 0)
(3 -1.567248895e-14 0)
(3 -1.636288294e-14 0)
(3 -1.732197764e-14 0)
(3 -1.753418596e-14 0)
(3 -1.782075892e-14 0)
(3 -1.760827876e-14 0)
(3 -1.662008144e-14 0)
(3 -1.280767722e-14 0)
(3 -1.072123892e-14 0)
(3 -1.195175382e-14 0)
(3 -7.004267843e-15 0)
(3 -4.94971353e-15 0)
(3 -4.296403862e-15 0)
(3 -2.935199578e-15 0)
(3 -2.619757709e-15 0)
(3 -3.557950458e-15 0)
(3 -6.115580436e-15 0)
(3 -6.836920813e-15 0)
(3 -6.895231765e-15 0)
(3 -8.100167276e-15 0)
(3 -8.247441129e-15 0)
(3 -8.04982884e-15 0)
(3 -7.89859986e-15 0)
(3 -9.166405708e-15 0)
(3 -1.014800718e-14 0)
(3 -1.13924123e-14 0)
(3 -1.112426201e-14 0)
(3 -9.239547602e-15 0)
(3 -8.236729206e-15 0)
(3 -7.826339061e-15 0)
(3 -8.060632713e-15 0)
(3 -6.21111083e-15 0)
(3 -5.888486388e-15 0)
(3 -4.741833444e-15 0)
(3 -4.048675113e-15 0)
(3 -3.304027044e-15 0)
(3 -3.021458923e-15 0)
(3 -1.506442162e-15 0)
(3 -3.500159359e-18 0)
(3 3.043722511e-15 0)
(3 6.644068821e-15 0)
(3 7.022873579e-15 0)
(3 6.601672257e-15 0)
(3 7.553622252e-15 0)
(3 8.828793462e-15 0)
(3 8.929792635e-15 0)
(3 8.906930045e-15 0)
(3 8.037093246e-15 0)
(3 7.970817506e-15 0)
(3 7.785492844e-15 0)
(3 8.02958186e-15 0)
(3 6.216443295e-15 0)
(3 4.434824961e-15 0)
(3 4.671355796e-15 0)
(3 4.886326548e-15 0)
(3 3.033694646e-15 0)
(3 1.007499359e-15 0)
(3 -7.960525634e-16 0)
(3 -1.454045388e-15 0)
(3 -2.247616538e-15 0)
(3 -3.29208649e-15 0)
(3 -3.502247739e-15 0)
(3 -5.580393986e-15 0)
(3 -7.659576506e-15 0)
(3 -8.474308402e-15 0)
(3 -9.601953315e-15 0)
(3 -1.084143218e-14 0)
(3 -1.194833066e-14 0)
(3 -1.255866972e-14 0)
(3 -1.240935609e-14 0)
(3 -1.207512559e-14 0)
(3 -1.211323887e-14 0)
(3 -1.16919737e-14 0)
(3 -1.006392763e-14 0)
(3 -1.006258626e-14 0)
(3 -1.18579989e-14 0)
(3 -1.194135164e-14 0)
(3 -1.400330937e-14 0)
(3 -1.428951779e-14 0)
(3 -1.218398223e-14 0)
(3 -1.195711969e-14 0)
(3 -1.353034595e-14 0)
(3 -1.387248589e-14 0)
(3 -1.391172425e-14 0)
(3 -1.365478408e-14 0)
(3 -1.260682722e-14 0)
(3 -1.172942936e-14 0)
(3 -1.185072885e-14 0)
(3 -1.203367754e-14 0)
(3 -1.208272045e-14 0)
(3 -1.371086722e-14 0)
(3 -1.656163475e-14 0)
(3 -1.519335532e-14 0)
(3 -1.003371556e-14 0)
(3 -6.723226279e-15 0)
(3 -4.418752442e-15 0)
(3 -5.467895224e-15 0)
(3 -6.226833187e-15 0)
(3 -6.451124963e-15 0)
(3 -7.521737861e-15 0)
(3 -7.376199676e-15 0)
(3 -6.457487016e-15 0)
(3 -6.559860804e-15 0)
(3 -6.479800766e-15 0)
(3 -2.931075582e-15 0)
(3 1.147667221e-15 0)
(3 2.411893229e-15 0)
(3 2.152058989e-15 0)
(3 3.025303665e-15 0)
(3 5.201246049e-15 0)
(3 6.153224325e-15 0)
(3 6.470212264e-15 0)
(3 7.287759675e-15 0)
(3 6.429407106e-15 0)
(3 5.636378704e-15 0)
(3 6.044475472e-15 0)
(3 7.03400402e-15 0)
(3 8.162664818e-15 0)
(3 8.083231499e-15 0)
(3 7.015675661e-15 0)
(3 4.379494548e-15 0)
(3 3.541996707e-15 0)
(3 2.70709155e-15 0)
(3 1.680373601e-15 0)
(3 2.625091849e-15 0)
(3 3.105361213e-15 0)
(3 2.421607669e-15 0)
(3 3.151968327e-15 0)
(3 1.347759763e-15 0)
(3 8.072137322e-16 0)
(3 -1.614859766e-15 0)
(3 -4.36762622e-15 0)
(3 -6.944226496e-15 0)
(3 -7.336437212e-15 0)
(3 -8.65081179e-15 0)
(3 -9.857257083e-15 0)
(3 -9.332945306e-15 0)
(3 -9.45470573e-15 0)
(3 -1.042455369e-14 0)
(3 -1.160922999e-14 0)
(3 -1.14224594e-14 0)
(3 -1.116411917e-14 0)
(3 -1.657845482e-14 0)
(3 -1.852353464e-14 0)
(3 -1.955292529e-14 0)
(3 -1.993197544e-14 0)
(3 -1.719535779e-14 0)
(3 -1.378612293e-14 0)
(3 -1.605121066e-14 0)
(3 -1.681668168e-14 0)
(3 -1.668266001e-14 0)
(3 -1.720380863e-14 0)
(3 -1.684775098e-14 0)
(3 -1.498440994e-14 0)
(3 -1.455619536e-14 0)
(3 -1.345402252e-14 0)
(3 -1.296405138e-14 0)
(3 -1.157610876e-14 0)
(3 -1.205018194e-14 0)
(3 -9.760044684e-15 0)
(3 -6.540514602e-15 0)
(3 -4.681596624e-15 0)
(3 -3.774548909e-15 0)
(3 -4.893026612e-15 0)
(3 -6.48994034e-15 0)
(3 -8.309758479e-15 0)
(3 -8.925523079e-15 0)
(3 -9.344294493e-15 0)
(3 -8.400891124e-15 0)
(3 -7.935477537e-15 0)
(3 -8.325496072e-15 0)
(3 -9.294507846e-15 0)
(3 -8.976888849e-15 0)
(3 -8.283459743e-15 0)
(3 -6.501417884e-15 0)
(3 -5.443510065e-15 0)
(3 -2.979765587e-15 0)
(3 -1.686765685e-15 0)
(3 -6.132804244e-16 0)
(3 1.243708996e-15 0)
(3 2.721848854e-15 0)
(3 3.623825816e-15 0)
(3 4.28911718e-15 0)
(3 3.919902094e-15 0)
(3 3.729437722e-15 0)
(3 3.224844014e-15 0)
(3 2.490157871e-15 0)
(3 1.741611343e-15 0)
(3 2.739062685e-15 0)
(3 4.377925186e-15 0)
(3 4.864742754e-15 0)
(3 3.968673145e-15 0)
(3 2.366400215e-15 0)
(3 3.987849204e-15 0)
(3 1.417334906e-15 0)
(3 1.673800409e-15 0)
(3 5.451791332e-16 0)
(3 -1.5209675e-15 0)
(3 -1.975837706e-15 0)
(3 -1.911143801e-15 0)
(3 -3.125280244e-15 0)
(3 -4.587642716e-15 0)
(3 -6.773562234e-15 0)
(3 -8.439050486e-15 0)
(3 -8.696827772e-15 0)
(3 -6.635987582e-15 0)
(3 -5.051765337e-15 0)
(3 -4.901328577e-15 0)
(3 -1.542395891e-14 0)
(3 -1.780279998e-14 0)
(3 -2.123724871e-14 0)
(3 -2.343251276e-14 0)
(3 -2.260490799e-14 0)
(3 -2.173081688e-14 0)
(3 -2.278605893e-14 0)
(3 -2.25067942e-14 0)
(3 -2.336548289e-14 0)
(3 -2.414667172e-14 0)
(3 -1.904002031e-14 0)
(3 -1.408174105e-14 0)
(3 -1.126974452e-14 0)
(3 -8.959638747e-15 0)
(3 -7.459709041e-15 0)
(3 -4.549550273e-15 0)
(3 -4.12216859e-15 0)
(3 -2.315721483e-15 0)
(3 -7.161278272e-16 0)
(3 3.181430757e-17 0)
(3 5.038891934e-16 0)
(3 9.751897051e-16 0)
(3 4.61210221e-16 0)
(3 -9.492885526e-16 0)
(3 -2.401540666e-15 0)
(3 -5.913263064e-15 0)
(3 -7.326756411e-15 0)
(3 -9.244647562e-15 0)
(3 -1.16984794e-14 0)
(3 -1.232780673e-14 0)
(3 -1.294520126e-14 0)
(3 -1.13686666e-14 0)
(3 -1.041937513e-14 0)
(3 -9.521190488e-15 0)
(3 -7.64451744e-15 0)
(3 -6.803443531e-15 0)
(3 -5.712640817e-15 0)
(3 -3.343053323e-15 0)
(3 8.90299084e-16 0)
(3 1.952402188e-15 0)
(3 3.093080086e-15 0)
(3 3.594301063e-15 0)
(3 3.534930561e-15 0)
(3 4.166753259e-15 0)
(3 5.36651941e-15 0)
(3 6.110872944e-15 0)
(3 6.349699634e-15 0)
(3 6.150957744e-15 0)
(3 4.975281515e-15 0)
(3 3.396987012e-15 0)
(3 -4.219314311e-16 0)
(3 -1.445824256e-15 0)
(3 7.22610193e-17 0)
(3 3.057888775e-15 0)
(3 5.350894715e-15 0)
(3 7.695350198e-15 0)
(3 5.542076977e-15 0)
(3 2.002309869e-15 0)
(3 1.693912591e-16 0)
(3 -8.613404278e-16 0)
(3 -1.676137653e-15 0)
(3 -3.097439398e-15 0)
(3 -3.514753346e-15 0)
(3 -1.499317143e-16 0)
(3 9.593956322e-16 0)
(3 1.296630379e-15 0)
(3 -1.367585735e-14 0)
(3 -1.545334164e-14 0)
(3 -1.870098042e-14 0)