/*--------------------------------*- C++ -*----------------------------------*\
  =========                 |
  \\      /  F ield         | OpenFOAM: The Open Source CFD Toolbox
   \\    /   O peration     | Website:  https://openfoam.org
    \\  /    A nd           | Version:  7
     \\/     M anipulation  |
\*---------------------------------------------------------------------------*/
FoamFile
{
    version     2.0;
    format      ascii;
    class       volScalarField;
    location    "4.7";
    object      p;
}
// * * * * * * * * * * * * * * * * * * * * * * * * * * * * * * * * * * * * * //

dimensions      [1 -1 -2 0 0 0 0];

internalField   nonuniform List<scalar> 
22
(
0.6968054933
0.8477895544
0.6825201568
0.6812118828
0.7899442714
1.192576074
0.8368338146
0.776864261
0.8221109897
1.277113747
1.133711276
0.9154949907
0.8208663085
1.241016412
1.230306351
1.127928478
0.9713211712
1.09351896
1.185315444
1.180630561
1.129796811
1.014065061
)
;

boundaryField
{
    inlet
    {
        type            fixedValue;
        value           nonuniform 0();
    }
    outlet
    {
        type            zeroGradient;
    }
    bottom
    {
        type            slip;
    }
    top
    {
        type            slip;
    }
    obstacle
    {
        type            zeroGradient;
    }
    defaultFaces
    {
        type            empty;
    }
    procBoundary27to20
    {
        type            processor;
        value           nonuniform List<scalar> 2(1.574368132 1.275360529);
    }
    procBoundary27to21
    {
        type            processor;
        value           nonuniform List<scalar> 4(0.7224626794 0.8896053425 0.6563145112 0.6563145112);
    }
    procBoundary27to26
    {
        type            processor;
        value           nonuniform List<scalar> 3(1.081451201 1.006575728 1.000085505);
    }
    procBoundary27to28
    {
        type            processor;
        value           nonuniform List<scalar> 6(0.9847698404 0.9500666639 0.9500666639 0.9080562457 0.8363157886 0.8962446214);
    }
    procBoundary27to33
    {
        type            processor;
        value           nonuniform List<scalar> 5(1.096274554 1.17380611 1.168626222 1.096274554 1.000879111);
    }
    procBoundary27to34
    {
        type            processor;
        value           uniform 1.008356878;
    }
}


// ************************************************************************* //
