/*--------------------------------*- C++ -*----------------------------------*\
  =========                 |
  \\      /  F ield         | OpenFOAM: The Open Source CFD Toolbox
   \\    /   O peration     | Website:  https://openfoam.org
    \\  /    A nd           | Version:  7
     \\/     M anipulation  |
\*---------------------------------------------------------------------------*/
FoamFile
{
    version     2.0;
    format      ascii;
    class       volVectorField;
    location    "0.3";
    object      U;
}
// * * * * * * * * * * * * * * * * * * * * * * * * * * * * * * * * * * * * * //

dimensions      [0 1 -1 0 0 0 0];

internalField   nonuniform List<vector> 5((3 -2.414577121e-16 0) (2.987351912 0.004068266825 0) (2.973863226 0.004596964626 0) (3 -5.449256626e-18 0) (3 -1.993430151e-16 0));

boundaryField
{
    inlet
    {
        type            fixedValue;
        value           nonuniform 0();
    }
    outlet
    {
        type            inletOutlet;
        inletValue      nonuniform 0();
        value           nonuniform 0();
    }
    bottom
    {
        type            slip;
    }
    top
    {
        type            slip;
    }
    obstacle
    {
        type            slip;
    }
    defaultFaces
    {
        type            empty;
    }
    procBoundary19to13
    {
        type            processor;
        value           nonuniform List<vector> 4((3 1.709376693e-16 0) (3 1.201485782e-16 0) (3 1.201485782e-16 0) (2.987351912 -0.004068267405 0));
    }
    procBoundary19to18
    {
        type            processor;
        value           uniform (3 -1.527060083e-17 0);
    }
    procBoundary19to20
    {
        type            processor;
        value           uniform (2.958844337 0.01948835549 0);
    }
    procBoundary19to25
    {
        type            processor;
        value           nonuniform List<vector> 4((2.998490623 0.002446320094 0) (2.995429468 0.007859072436 0) (3 -3.349340768e-16 0) (3 9.752724318e-17 0));
    }
}


// ************************************************************************* //
