/*--------------------------------*- C++ -*----------------------------------*\
  =========                 |
  \\      /  F ield         | OpenFOAM: The Open Source CFD Toolbox
   \\    /   O peration     | Website:  https://openfoam.org
    \\  /    A nd           | Version:  7
     \\/     M anipulation  |
\*---------------------------------------------------------------------------*/
FoamFile
{
    version     2.0;
    format      ascii;
    class       volScalarField;
    location    "3.3";
    object      p;
}
// * * * * * * * * * * * * * * * * * * * * * * * * * * * * * * * * * * * * * //

dimensions      [1 -1 -2 0 0 0 0];

internalField   nonuniform List<scalar> 
2222
(
10.22848072
10.21217563
10.19500214
10.21328209
10.19709907
10.18064904
10.1638132
10.14640669
10.1282431
10.10889583
10.0891959
10.06892961
10.04802418
10.02777099
10.1960291
10.17898054
10.16205791
10.1453582
10.12857651
10.11180028
10.09412969
10.076203
10.05780392
10.03839128
10.01898577
9.999873185
9.980825546
9.961726528
9.942933391
9.924225064
9.905810571
9.887472655
10.18036534
10.16142264
10.14318774
10.12555544
10.10831692
10.09164557
10.07478903
10.05771121
10.04067625
10.02283438
10.00435769
9.986209743
9.967919867
9.949483383
9.931125
9.912582074
9.894092383
9.875394149
9.856693118
9.837479292
9.818150522
9.798520284
9.778536872
9.757817126
9.736111975
10.16967122
10.14883743
10.12865026
10.10922929
10.09052034
10.07280944
10.0555806
10.03856204
10.02132373
10.00445541
9.986649649
9.969030327
9.951294879
9.933302085
9.915171103
9.896602742
9.87782493
9.858513694
9.839059487
9.818941867
9.798509573
9.777727799
9.756593019
9.734856427
9.712357484
9.689070678
9.664331724
9.638809015
9.611404116
9.583155831
9.55292369
10.16449873
10.14108598
10.11951057
10.09894091
10.07907356
10.06006097
10.04153857
10.02387193
10.00592559
9.988169307
9.970361908
9.952450828
9.934713048
9.916560095
9.897884866
9.878625452
9.859095663
9.838927141
9.818593793
9.797505813
9.775837041
9.753540305
9.730851387
9.707688977
9.684015954
9.659921174
9.634755609
9.609133133
9.581807207
9.553746321
9.523798309
9.492883238
9.460103549
9.426285824
9.390788608
9.354068962
9.315829156
10.16661397
10.14255417
10.11924267
10.09707862
10.0756643
10.0550924
10.03518871
10.01622134
9.997678543
9.979174379
9.960356115
9.941400396
9.922409484
9.903137141
9.883344983
9.862936268
9.842176267
9.820823027
9.799318692
9.777062642
9.753986364
9.730071298
9.705732718
9.680971538
9.65592897
9.630933376
9.605391877
9.579820371
9.552745276
9.524963217
9.495316866
9.46481798
9.432482392
9.399183933
9.364160569
9.327980404
9.290336269
9.25149826
9.211546476
9.170392251
9.128394837
9.085492644
9.041996623
10.17473501
10.15146217
10.12837515
10.10596052
10.0839189
10.06231915
10.04105215
10.02057475
10.00041476
9.98088327
9.960996882
9.940894677
9.920388162
9.899470706
9.878063561
9.855958279
9.833385194
9.810207774
9.78684842
9.762291054
9.736903366
9.7112278
9.685527857
9.659687211
9.633800649
9.608202496
9.582277694
9.556458817
9.529506009
9.502141876
9.472932162
9.442898567
9.411063276
9.378367737
9.344062672
9.308799771
9.272276189
9.234850863
9.196454429
9.156956539
9.116817993
9.075864562
9.034490434
8.992618244
8.950757744
8.908619396
8.866960479
8.825196466
10.18966285
10.16855438
10.14672257
10.1249681
10.10329129
10.08158307
10.05962986
10.03799186
10.01633217
9.995105799
9.973590794
9.951932822
9.9298669
9.907455654
9.884514056
9.860784877
9.836309032
9.811151348
9.785729294
9.759208063
9.73210295
9.704643228
9.677143129
9.649683659
9.622416851
9.595627516
9.568697879
9.542477505
9.515545437
9.488549572
9.459968643
9.430638364
9.399506679
9.367436001
9.333753384
9.299284468
9.263578636
9.227120669
9.190175161
9.152551083
9.114457771
9.075772596
9.036771313
8.997389753
8.957656644
8.917461317
8.877288868
8.836762113
8.796456597
8.756510011
8.716620283
8.677834326
8.639350198
10.21480302
10.19512614
10.17420143
10.15293595
10.1315703
10.10985256
10.08756476
10.0651923
10.04227549
10.01944683
9.996167061
9.972676481
9.948739131
9.924498253
9.899830851
9.874524275
9.848435322
9.821522714
9.794349439
9.766467946
9.738516562
9.710060482
9.681462101
9.652901227
9.624565859
9.59667316
9.568718053
9.541462298
9.513570962
9.485898686
9.456970619
9.427669495
9.396791571
9.365321633
9.332431471
9.29897507
9.264301615
9.229079155
9.193388811
9.157421584
9.121186551
9.084252692
9.046884698
9.008987891
8.970584271
8.931693183
8.892709895
8.853299728
8.814033604
8.774843429
8.73539872
8.696636321
8.657585127
8.618910176
8.579983471
8.541276401
8.501902695
8.462500167
10.24406951
10.22678825
10.20790784
10.18767181
10.16682571
10.14524445
10.12273972
10.09980655
10.07594829
10.05186311
10.02698044
10.0017169
9.975837014
9.949493549
9.922755407
9.895549534
9.867643173
9.839051779
9.810243275
9.780950028
9.751794581
9.722371348
9.692959891
9.663557192
9.634295366
9.605493051
9.57700317
9.5492246
9.520808485
9.492765627
9.463431577
9.433815909
9.402743778
9.371317095
9.338704777
9.305857963
9.272190177
9.238230628
9.203469524
9.168220931
9.132685363
9.096622847
9.060264657
9.023472662
8.986224423
8.948455965
8.910446392
8.871825767
8.833282207
8.794514171
8.755277641
8.716346304
8.676632133
8.636921849
8.596807543
8.556674808
8.515987277
8.475179596
8.433840485
8.392284817
8.350047905
8.307006569
8.262547136
10.27373414
10.25820993
10.24129593
10.22265447
10.20303132
10.18237543
10.16034146
10.1373254
10.11295849
10.08803717
10.06199193
10.03534629
10.00780376
9.979716526
9.951118862
9.922156536
9.892642012
9.862497948
9.832197668
9.801508576
9.771069396
9.740598644
9.710432094
9.680322216
9.650385019
9.620797613
9.591317621
9.56253508
9.53325153
9.504521166
9.474838914
9.445358828
9.414523337
9.383394303
9.350833236
9.317976862
9.284187558
9.250391018
9.216024751
9.181365267
9.146360085
9.110802554
9.074931543
9.038534542
9.001700724
8.964429737
8.926919955
8.888780573
8.850787266
8.812306007
8.773288679
8.734197632
8.693981455
8.653551312
8.612560994
8.571354342
8.529651878
8.487684345
8.445348776
8.40292679
8.360003749
8.316361807
8.271104505
8.224482014
8.175555206
8.12670248
8.076757663
10.29961444
10.28569726
10.27054643
10.25359452
10.23533202
10.21601444
10.19518519
10.17293701
10.14891126
10.12393429
10.09744481
10.07012057
10.04161226
10.01241543
9.982543359
9.952204984
9.921438106
9.890057502
9.858566632
9.826745004
9.795201036
9.763702711
9.732773255
9.702007551
9.671511349
9.641186308
9.610871975
9.581200209
9.551161734
9.52170111
9.491203694
9.460864374
9.429110403
9.397296386
9.364303383
9.331347693
9.297481967
9.263658868
9.229253163
9.194723588
9.159795337
9.1244169
9.088686801
9.052312336
9.015441743
8.978180556
8.940604245
8.902520243
8.8646328
8.826167995
8.787377547
8.74826416
8.707995098
8.667394058
8.625991885
8.584099276
8.541607448
8.498713085
8.455500102
8.412313942
8.368774448
8.324688964
8.278830666
8.231472638
8.181389337
8.131364662
8.080385042
10.32120939
10.30847111
10.29454458
10.2793007
10.26246378
10.24445114
10.22500879
10.20394038
10.18080019
10.15639708
10.13018589
10.10297069
10.07431699
10.04482303
10.01444942
9.983431303
9.952048843
9.920070206
9.887964099
9.855562735
9.823420949
9.791244629
9.759674428
9.728229352
9.697156585
9.666159471
9.635120617
9.604447664
9.573297909
9.542572434
9.51074673
9.479219513
9.446388343
9.413729359
9.379937818
9.346337669
9.311859994
9.277511259
9.242520875
9.207441358
9.171822673
9.135856228
9.099593549
9.062855478
9.02583768
8.98857805
8.950875319
8.91289342
8.874912799
8.836313851
8.797503816
8.7581865
8.717874044
8.677164565
8.635546182
8.593289602
8.550331076
8.506896953
8.463083112
8.419308529
8.375204329
8.330675115
8.284310798
8.236373084
8.185473434
8.134547493
8.08282194
10.33911059
10.32685038
10.31347312
10.29912988
10.28334458
10.26644785
10.24854599
10.22920953
10.20770035
10.18467135
10.15948782
10.13298446
10.104751
10.07555158
10.04531863
10.01432984
9.982966674
9.951024406
9.918884744
9.886455651
9.854262414
9.821919431
9.790066008
9.758108984
9.72643718
9.694639773
9.662667022
9.630743433
9.598264614
9.566134703
9.532881864
9.499999852
9.465820575
9.431951502
9.397001912
9.362449067
9.327055796
9.291877009
9.255970729
9.220066698
9.183572847
9.14675045
9.109481344
9.071686001
9.033627408
8.995465265
8.956964135
8.918710913
8.880425024
8.841661799
8.802796423
8.763420389
8.723222404
8.682477921
8.640695909
8.598141624
8.554786684
8.510978189
8.466766859
8.422654276
8.378202726
8.333340319
8.286628195
8.238234021
8.186864727
8.135339774
8.083169368
10.35343921
10.34133982
10.32830743
10.31453234
10.29954062
10.28320667
10.26606158
10.24787105
10.22780244
10.20642919
10.18294364
10.15812119
10.13144946
10.1035978
10.07443538
10.04426943
10.01351347
9.982131735
9.950445892
9.918412381
9.886538361
9.854356824
9.822452978
9.790138243
9.757922468
9.725349766
9.692492458
9.659413637
9.62569703
9.592168982
9.557419932
9.523036673
9.487358457
9.452105366
9.415752224
9.379846154
9.343058305
9.306589401
9.26938921
9.23225987
9.194480341
9.156438222
9.117903797
9.078966407
9.039832862
9.000547859
8.960968663
8.921550642
8.882183585
8.842776385
8.803559354
8.763981719
8.723729309
8.682937058
8.641141548
8.5986553
8.555283226
8.511465917
8.467002456
8.422540859
8.377673685
8.33238226
8.285444699
8.236779957
8.185350507
8.133389797
8.080969673
10.36537632
10.35271898
10.33947151
10.32540234
10.31060214
10.29467645
10.27811996
10.26104697
10.24247756
10.22286703
10.20114905
10.17816207
10.15321674
10.12691223
10.09932744
10.07067072
10.04130494
10.01130614
9.98087071
9.949903881
9.9189016
9.887355663
9.855828316
9.823549814
9.791059471
9.757819685
9.724019827
9.689667658
9.65457689
9.619574639
9.583361614
9.547559489
9.51047837
9.473912085
9.436226179
9.39896813
9.360736304
9.322805976
9.28405537
9.245397748
9.206065225
9.166610967
9.126653965
9.086335638
9.045784827
9.004997564
8.963928815
8.92293621
8.881840922
8.841034394
8.800880363
8.760654662
8.719859587
8.678615016
8.63649679
8.593829307
8.550274052
8.506506727
8.46200064
8.417525877
8.372482068
8.326926447
8.279931293
8.231182122
8.180025337
8.127840104
8.075486867
10.37720163
10.36320076
10.34890761
10.33387689
10.31857513
10.302552
10.28590569
10.26915025
10.25148918
10.233276
10.21341161
10.19266642
10.16992752
10.14573562
10.12027973
10.09364416
10.06615109
10.03790752
10.00908446
9.979473448
9.949597473
9.918947637
9.888061807
9.856155647
9.823785408
9.790319013
9.75604851
9.720910594
9.684843608
9.648680355
9.61121535
9.574096815
9.535590631
9.497598629
9.458454013
9.419696701
9.379936435
9.340455352
9.300117871
9.259901159
9.218990324
9.178046889
9.136536151
9.09465715
9.052416459
9.009871796
8.966980199
8.924172777
8.881012731
8.837767727
8.795089224
8.753107323
8.711136768
8.669177062
8.626579214
8.583649219
8.539865821
8.496073052
8.45141244
8.406864983
8.361637681
8.316010083
8.269200037
8.220785018
8.170347425
8.118318283
8.066375446
10.38953594
10.37363014
10.35765149
10.34105141
10.32458462
10.30799173
10.29089339
10.27391631
10.25666215
10.23925187
10.22050937
10.20122867
10.18047286
10.15898226
10.136034
10.11189164
10.08666357
10.06054803
10.03376929
10.00595002
9.97761305
9.948271014
9.91840937
9.887269631
9.855419743
9.822126793
9.787754931
9.752162238
9.715386358
9.67832497
9.639887164
9.601758689
9.562100362
9.522907759
9.482463452
9.442340156
9.401181589
9.360241076
9.318416395
9.276688322
9.234242192
9.191777383
9.148661518
9.105115349
9.061021779
9.016399127
8.971228877
8.926024982
8.880587509
8.834823059
8.789036845
8.743919078
8.699390757
8.655678866
8.611740413
8.567994605
8.523645841
8.479696985
8.434907545
8.390407852
8.345087483
8.299547784
8.253061833
8.205390477
8.156078486
8.104786193
8.05369015
10.40415465
10.38610793
10.36795929
10.34928726
10.33104459
10.31318138
10.29502677
10.27707254
10.25927899
10.24189773
10.2236496
10.20543779
10.18619661
10.16663468
10.14612284
10.12490804
10.10224493
10.07854315
10.05404676
10.02833669
10.00185679
9.974130358
9.945604126
9.915583119
9.884665593
9.852057779
9.818169206
9.782719413
9.745773398
9.708263798
9.669184986
9.630312497
9.589714072
9.549499918
9.507917763
9.466603974
9.424239229
9.382044161
9.338956368
9.29590775
9.252079666
9.20816388
9.163499964
9.118313774
9.072396149
9.025669082
8.978102395
8.93024268
8.881892323
8.833594891
8.784872575
8.73609222
8.687672923
8.640813997
8.594293935
8.548870152
8.50324367
8.458556942
8.413137506
8.36835159
8.32271631
8.277236792
8.231082915
8.184375025
8.136473474
8.08636481
8.036634449
10.42131249
10.40108527
10.38065558
10.35969805
10.33928765
10.31954651
10.29983654
10.28036428
10.26151366
10.24333359
10.22491915
10.20714957
10.1886784
10.17023761
10.15126155
10.13210509
10.11211121
10.09095799
10.06882431
10.04544068
10.02113743
9.995364009
9.968561346
9.940086766
9.910572604
9.879152484
9.846265186
9.811475984
9.774865669
9.737397737
9.69810924
9.658901971
9.617737272
9.576834541
9.534403742
9.492159204
9.448828799
9.405623353
9.361507785
9.317359163
9.272335095
9.227111589
9.181037213
9.134316728
9.086720755
9.038028412
8.988230477
8.937741382
8.886298419
8.834895591
8.783473554
8.731511336
8.679390762
8.628455506
8.577994097
8.529364956
8.481103602
8.434412726
8.387398238
8.341621202
8.295184157
8.249538584
8.203553634
8.157856885
8.111441016
8.062876074
8.014794966
10.44062289
10.41870075
10.39643559
10.3733551
10.35070856
10.32871788
10.30699064
10.28546561
10.26495726
10.24563636
10.22626157
10.2078059
10.18930704
10.17143386
10.15317503
10.13495612
10.11646701
10.09725241
10.07745421
10.05647899
10.03442554
10.01088156
9.986171741
9.959594427
9.931888692
9.902128154
9.870790411
9.837270792
9.801629223
9.76480344
9.725800354
9.686648469
9.645211694
9.603864039
9.560829527
9.517921385
9.47392346
9.430017763
9.385158471
9.340186613
9.294224286
9.247933094
9.200649335
9.152558334
9.103478825
9.053076423
9.001423306
8.948703013
8.894580467
8.840043489
8.785509253
8.730669449
8.675542719
8.620702078
8.566135014
8.513264885
8.461234504
8.411141147
8.361249549
8.313143546
8.264784713
8.218024607
8.171462624
8.126301179
8.081081842
8.034236792
7.988061593
10.46179328
10.43876144
10.41527744
10.39052215
10.36596909
10.34180943
10.31799603
10.29433599
10.2714276
10.25036489
10.22962714
10.21008989
10.190593
10.17202745
10.15360436
10.13566232
10.11760152
10.09920556
10.08060381
10.06140712
10.04137427
10.01995979
9.997462183
9.97307456
9.947510796
9.919786762
9.890445343
9.858720934
9.824633539
9.789055413
9.750905719
9.712329852
9.67109305
9.629730235
9.586466559
9.543205557
9.498764537
9.454309743
9.408822411
9.36317274
9.316470682
9.26934012
9.221076479
9.171862651
9.121584053
9.069823356
9.016748182
8.962320142
8.906138504
8.849218708
8.791508122
8.733656092
8.675857318
8.618282435
8.559995389
8.503192086
8.446909687
8.392695923
8.338906799
8.287170974
8.235582409
8.186254491
8.137778566
8.091830462
8.046775448
8.001028891
7.956557518
10.48403291
10.46060912
10.43661171
10.41093592
10.38512893
10.35921156
10.33342219
10.3077553
10.28241429
10.25884076
10.23614805
10.21509323
10.19419664
10.17443662
10.15500087
10.13626342
10.11766173
10.09928806
10.0807734
10.0622143
10.04328775
10.02334227
10.00269525
9.980506571
9.957088601
9.931505476
9.904373067
9.874766867
9.842644511
9.808768176
9.771927123
9.734375358
9.693822048
9.652908447
9.609845434
9.566593905
9.521956371
9.477134192
9.431192194
9.38505096
9.337790615
9.289996104
9.240970127
9.190926466
9.139787684
9.087077616
9.033046628
8.977487831
8.919962169
8.861504812
8.801560833
8.740863085
8.68030309
8.620059767
8.559273677
8.499553315
8.439272608
8.380949738
8.32291805
8.267077205
8.21161987
8.158621946
8.106942457
8.058558069
8.012011193
7.965935745
7.92211709
10.50635128
10.48308292
10.45920961
10.43355427
10.40740216
10.38073393
10.35379786
10.32680458
10.2996734
10.27379651
10.24872063
10.22526797
10.20216794
10.18047526
10.15923449
10.13896787
10.11906855
10.09982209
10.08074559
10.0617523
10.04276738
10.02335284
10.00376384
9.983010494
9.961361119
9.937803181
9.912810832
9.88530552
9.85530207
9.823368507
9.788173346
9.752031624
9.712647741
9.672643025
9.630177184
9.587210611
9.542546092
9.497515486
9.451307195
9.404809454
9.357079907
9.308711066
9.259116724
9.208511666
9.15681709
9.10354126
9.048992243
8.992833851
8.934627859
8.875365436
8.814152404
8.751789678
8.688819159
8.625918851
8.562912475
8.500770974
8.437989263
8.376378167
8.314251127
8.254093151
8.194397253
8.137190316
8.0816843
8.029654995
7.980064979
7.931946348
7.887001608
10.52890508
10.50620952
10.48302804
10.45826779
10.43242734
10.40593716
10.37878707
10.35122186
10.32303658
10.29543014
10.26838038
10.24269732
10.21712046
10.19285068
10.1690894
10.14653245
10.12459774
10.10350485
10.08283321
10.06259011
10.0427253
10.02285944
10.0029954
9.982446542
9.961640676
9.93944558
9.916045213
9.890418156
9.862502927
9.832554327
9.799227465
9.764852451
9.727090385
9.688415582
9.646919992
9.604484734
9.560047611
9.515059387
9.468746577
9.421919239
9.373735794
9.324874646
9.274879149
9.223891124
9.171858087
9.118317162
9.063599366
9.007276354
8.948927203
8.889453024
8.827677846
8.764690902
8.700381688
8.635467872
8.570172892
8.505895742
8.440968671
8.376910193
8.31232637
8.248796077
8.184910777
8.123429138
8.063891776
8.007692724
7.954249306
7.90278657
7.854851571
10.55152149
10.52979702
10.50777588
10.48448613
10.45963212
10.43407581
10.40762471
10.38045432
10.35230497
10.32405882
10.29593913
10.26874414
10.24116437
10.21439929
10.18782392
10.16226346
10.13734309
10.11346778
10.090218
10.06784452
10.04611652
10.02477342
10.00381016
9.982607802
9.961389364
9.939138851
9.916218713
9.891629741
9.865005801
9.836614471
9.805050818
9.772699037
9.736760628
9.699621763
9.659350401
9.617752444
9.574001806
9.529398047
9.483169846
9.436142674
9.387724755
9.338610284
9.288374011
9.237117043
9.184889908
9.131270701
9.076586361
9.020385544
8.962258973
8.903012161
8.841205552
8.77828862
8.713533899
8.647665914
8.580872871
8.514768332
8.447661244
8.381661298
8.315056911
8.248986981
8.182702665
8.118063817
8.054285108
7.993648296
7.935804798
7.880461431
7.828260087
10.5745085
10.55418818
10.53365348
10.51205232
10.48868765
10.46452557
10.43937254
10.41334724
10.38612879
10.35825157
10.3300346
10.30232844
10.2737714
10.24545934
10.21678704
10.18858812
10.16064058
10.13350594
10.10693712
10.08128694
10.05645475
10.032391
10.00909545
9.986026654
9.963259255
9.93994031
9.916328351
9.89135458
9.864804788
9.837263266
9.806859988
9.776033767
9.741603044
9.706023155
9.667287429
9.627176748
9.584707147
9.540808523
9.494933418
9.447969968
9.399604518
9.350393353
9.29999474
9.248572784
9.196269287
9.142690015
9.088156375
9.03224086
8.974525803
8.915746968
8.85423996
8.79177604
8.727072322
8.661048126
8.593597348
8.526320189
8.457583299
8.389799365
8.32120024
8.253361985
8.185369311
8.118362226
8.052063926
7.988251035
7.926039796
7.866632056
7.809554143
10.57813242
10.55927401
10.53953141
10.51811852
10.49574756
10.47237681
10.44797988
10.42225131
10.39549656
10.3680537
10.34080231
10.31236921
10.28369305
10.25412071
10.22434086
10.19417084
10.16420912
10.13441995
10.10525077
10.07675506
10.04906236
10.02223252
9.995988012
9.970407308
9.944834695
9.919299293
9.89296748
9.865568565
9.837544224
9.807024379
9.776636788
9.742887998
9.708439254
9.671015785
9.632256607
9.591007771
9.548231734
9.503518688
9.45741958
9.409728041
9.360769742
9.310492409
9.259077231
9.206775987
9.153277332
9.098922215
9.043305367
8.985992279
8.927705263
8.866615029
8.804735848
8.740286279
8.674546877
8.606981044
8.539185409
8.469570034
8.400638363
8.330548982
8.261105227
8.191459436
8.12278682
8.054667297
7.988454401
7.923314011
7.860520326
7.798983538
10.52506934
10.50366959
10.48116129
10.45726188
10.43218045
10.40624016
10.38030539
10.35300928
10.32513971
10.29598794
10.26605559
10.23509189
10.20354339
10.17148585
10.13935247
10.107395
10.07585695
10.04498288
10.0147074
9.985219555
9.956082734
9.927390093
9.89862006
9.869302753
9.839796217
9.808307815
9.777312935
9.743277639
9.709317519
9.672589233
9.63475979
9.594557797
9.552951133
9.50946931
9.464526274
9.417879761
9.369693607
9.320090512
9.269082788
9.217034802
9.163715168
9.10955989
9.054200548
8.99721849
8.939345906
8.878647758
8.817308617
8.753113282
8.687794352
8.620288316
8.552301818
8.48229896
8.412783299
8.341776845
8.271311919
8.200491938
8.130396248
8.060389375
7.992125552
7.924448572
7.859368235
7.794325269
10.46536397
10.44131351
10.41713527
10.39150095
10.36510144
10.33724502
10.30829006
10.27791082
10.24629722
10.2135034
10.17979207
10.14552939
10.11094713
10.07649616
10.04224844
10.00860253
9.975351736
9.942712264
9.910369814
9.877921302
9.846044756
9.812668213
9.780153043
9.745088831
9.710322683
9.673213144
9.635873972
9.596587767
9.556152639
9.513878846
9.470127606
9.424676204
9.377632941
9.329060238
9.278908319
9.227571002
9.174760599
9.120956003
9.065807952
9.009039607
8.951395738
8.890917958
8.829904998
8.765786678
8.70077539
8.633253373
8.565098439
8.494844601
8.425023546
8.353506686
8.282537461
8.211055391
8.140127871
8.068745622
7.998564201
7.928075887
7.860644475
7.792768452
10.40024042
10.37419426
10.34691854
10.31805548
10.28756379
10.25541119
10.22160391
10.18651341
10.15024257
10.11338854
10.07606363
10.0388911
10.00181524
9.965214719
9.928972777
9.89275287
9.857397775
9.821049463
9.786329195
9.749638209
9.713600421
9.67562235
9.637756064
9.5983621
9.558588267
9.517321971
9.474817711
9.430632291
9.384874872
9.337465524
9.288408442
9.238055049
9.18607749
9.132902561
9.07815607
9.021677511
8.964190668
8.903824725
8.84293996
8.778718175
8.713800649
8.646084426
8.577629603
8.506998948
8.436750276
8.364744578
8.293438586
8.221471934
8.150000665
8.077672732
8.006070746
7.933283746
7.863491752
7.793228099
10.3524907
10.32370021
10.29302812
10.26028251
10.22574908
10.18932509
10.15163043
10.11269662
10.07330497
10.03339573
9.993534158
9.95372161
9.913767189
9.874646392
9.834778131
9.796818305
9.757544841
9.719739133
9.680568974
9.641865722
9.601882868
9.561919659
9.520753707
9.479097978
9.436016117
9.391532925
9.345409045
9.297666205
9.248489022
9.197522571
9.145117257
9.090951255
9.03488594
8.977621511
8.91740052
8.856519704
8.792085676
8.726974619
8.65880918
8.589790531
8.518475491
8.447418001
8.374600515
8.302670313
8.230156411
8.158316005
8.085456448
8.012935015
7.938467449
7.866313947
7.793047351
10.26009686
10.22464147
10.18743803
10.14838905
10.1082912
10.06693686
10.02505088
9.982604495
9.939644919
9.897210752
9.854025075
9.812626623
9.770316478
9.729875392
9.688729817
9.64870141
9.607883025
9.567400459
9.525966779
9.48437044
9.441673982
9.398169788
9.353160872
9.306650007
9.258480782
9.208466715
9.156852253
9.103421942
9.047876281
8.990891092
8.930807694
8.869781925
8.805078312
8.739540606
8.670747603
8.600979249
8.528732013
8.45651373
8.382675638
8.309811282
8.236390065
8.163919646
8.090206248
8.016474865
7.939961786
7.865435201
7.790106844
10.18022068
10.14070816
10.0993036
10.05685186
10.01312662
9.968420931
9.923684141
9.877982626
9.833609751
9.788425669
9.744981303
9.701255757
9.65918421
9.61688033
9.575338307
9.533213245
9.491305581
9.448597194
9.405571068
9.361068359
9.315461497
9.268056106
9.218976756
9.168003808
9.115104952
9.059797008
9.002948286
8.942947705
8.881744594
8.816827558
8.750763781
8.681228586
8.610537899
8.537213965
8.46350501
8.388262865
8.313999835
8.238847945
8.164848617
8.089853905
8.01489926
7.937051718
7.860742893
7.783795478
10.0426396
9.997616406
9.951903322
9.9048915
9.858562018
9.811350721
9.765337803
9.719073813
9.674435457
9.629993078
9.586788542
9.543422208
9.50051932
9.456941093
9.413451279
9.368823616
9.323685087
9.276718668
9.228374502
9.177805612
9.125401665
9.070238119
9.013416843
8.953152275
8.891519213
8.826194738
8.759504831
8.68915692
8.617345787
8.54274383
8.467353161
8.390209602
8.314011141
8.237142512
8.161674019
8.085392938
8.009221004
7.930061822
7.85168619
7.772901317
9.932499764
9.885513486
9.837420658
9.789792369
9.74173029
9.694753802
9.648001021
9.60255581
9.557291948
9.512839474
9.468015622
9.423516671
9.377959885
9.332107596
9.284459036
9.235918945
9.185132012
9.132941289
9.077738632
9.020944592
8.960397041
8.898538272
8.832695134
8.765254586
8.694033575
8.621077795
8.545110922
8.467975454
8.389233627
8.31099123
8.231971977
8.15438086
8.0762379
7.998606228
7.918256253
7.838071137
7.757510133
9.816365636
9.767634357
9.719234391
9.670739267
9.623089787
9.575634158
9.529072472
9.482356429
9.436111031
9.388977441
9.341811341
9.292854196
9.243202778
9.191096002
9.137958968
9.08183805
9.024751779
8.963814559
8.901794798
8.835520591
8.767538232
8.695487315
8.621519246
8.544380447
8.465589744
8.385005932
8.304247841
8.222865803
8.142994229
8.062738629
7.983453817
7.901814168
7.819779934
7.73729674
9.696857091
9.647693587
9.598380434
9.549610835
9.500687829
9.452214088
9.402942774
9.353693799
9.302665708
9.251103653
9.197037228
9.142241607
9.084404177
9.025995146
8.963800813
8.900804673
8.83364813
8.765267407
8.692513423
8.617839515
8.539553287
8.459248228
8.377008212
8.293875459
8.210100924
8.127507017
8.044711671
7.963367641
7.880222672
7.79635687
7.712027941
9.573973844
9.523018391
9.47212531
9.420358843
9.368479881
9.314856796
9.260761199
9.20415439
9.14697798
9.086835952
9.026465312
8.962270272
8.897485456
8.828352913
8.758517626
8.68433884
8.608882204
8.529553416
8.448085947
8.364365718
8.278969742
8.192870553
8.107424358
8.021933178
7.938231537
7.853389059
7.767714983
7.681701912
9.441395037
9.386680414
9.33018632
9.273162794
9.213728204
9.153779859
9.090854899
9.027749091
8.961011711
8.893682438
8.821865791
8.749502248
8.672698156
8.595415936
8.514355201
8.43161938
8.3463966
8.259096444
8.170888137
8.082641469
7.994375213
7.908071941
7.821232263
7.733794645
7.646212465
9.34888251
9.288900098
9.226593939
9.16365897
9.097760768
9.031355211
8.961462711
8.89124527
8.816430348
8.741067996
8.66088711
8.580447103
8.496181978
8.411181618
8.323741368
8.234451263
8.144082947
8.053095843
7.962021095
7.872921332
7.783791555
7.694644244
7.605633807
9.177158036
9.108204155
9.038372843
8.964936918
8.891247391
8.813395909
8.734851208
8.651372044
8.567336233
8.478889615
8.390284804
8.299216739
8.207010762
8.113746227
8.019709575
7.925496301
7.833174511
7.741312949
7.650251295
7.559924951
8.97218429
8.894625049
8.813402375
8.731658656
8.644891344
8.557532021
8.465081979
8.372218531
8.276335476
8.18005247
8.082533514
7.984565106
7.886454864
7.790154401
7.694880959
7.601271749
7.509552198
8.817295776
8.732035589
8.642021967
8.551288775
8.455239562
8.358489314
8.257741624
8.156637475
8.053757658
7.950741431
7.847532954
7.746224974
7.646371553
7.549124139
7.455358578
8.64327545
8.54903438
8.449375379
8.349071435
8.243791775
8.138149872
8.029606611
7.920997258
7.811574833
7.704158079
7.598358928
7.496019658
7.398992083
8.344017447
8.234367955
8.12438398
8.010400183
7.89645612
7.780360041
7.666209504
7.553309959
7.444551839
7.342431683
8.115239843
7.99586791
7.876856926
7.754334779
7.63346246
7.512849313
7.396614805
7.287911263
7.861848575
7.733008898
7.605541498
7.477300733
7.352918148
7.236604603
7.445819744
7.313252881
7.188336049
7.143036663
)
;

boundaryField
{
    inlet
    {
        type            fixedValue;
        value           nonuniform 0();
    }
    outlet
    {
        type            zeroGradient;
    }
    bottom
    {
        type            slip;
    }
    top
    {
        type            slip;
    }
    obstacle
    {
        type            zeroGradient;
    }
    defaultFaces
    {
        type            empty;
    }
    procBoundary8to1
    {
        type            processor;
        value           nonuniform List<scalar> 9(10.24404175 10.22936066 10.21385047 10.20061561 10.19194959 10.18856746 10.19023057 10.1973102 10.21030974);
    }
    procBoundary8to2
    {
        type            processor;
        value           nonuniform List<scalar> 
78
(
10.23820701
10.22095333
10.20225681
10.17701518
10.17701518
10.15775412
10.13750226
10.11618504
10.09512877
10.07354596
10.05126992
10.02993874
10.00798031
10.00798031
9.988236921
9.968382932
9.949007145
9.929983137
9.911555795
9.893580659
9.869305045
9.869305045
9.850776755
9.832287247
9.81342439
9.79417937
9.774067324
9.752840705
9.713394549
9.713394549
9.68899089
9.663611129
9.636156808
9.607762631
9.577428558
9.52174579
9.52174579
9.488755957
9.454768146
9.419203024
9.382416174
9.344112539
9.276128402
9.276128402
9.235154471
9.192724857
9.149179893
9.104633396
9.059401534
8.997913565
8.997913565
8.953878559
8.90958818
8.865893579
8.822301797
8.783847683
8.783847683
8.743134413
8.702673362
8.663558301
8.625199141
8.60179461
8.60179461
8.564265208
8.527301464
8.489421933
8.451449271
8.42227057
8.42227057
8.381642755
8.340098164
8.297752748
8.254226576
8.216861464
8.216861464
8.16934169
8.121747482
8.073119149
)
;
    }
    procBoundary8to3
    {
        type            processor;
        value           nonuniform List<scalar> 
23
(
7.961747683
7.961052492
7.959202498
7.955599479
7.950093849
7.942139973
7.931403246
7.917579821
7.900005378
7.877925068
7.85103255
7.819211762
7.783619152
7.746257736
7.710662855
7.680385866
7.658313796
7.644294282
7.636193803
7.631068918
7.626896084
7.621598579
7.613674255
)
;
    }
    procBoundary8to7
    {
        type            processor;
        value           nonuniform List<scalar> 
19
(
10.2334815
10.26043615
10.28787068
10.31231128
10.33306724
10.35065372
10.36517046
10.3781726
10.391584
10.4060095
10.42267712
10.44185917
10.46266751
10.48479389
10.50726993
10.52918497
10.55086273
10.57230238
10.593836
)
;
    }
    procBoundary8to9
    {
        type            processor;
        value           nonuniform List<scalar> 
17
(
7.601878086
7.585374644
7.563787964
7.536725564
7.504050342
7.46561877
7.421397716
7.371418399
7.315880781
7.255180038
7.190319048
7.122645236
7.054518359
6.987840735
6.923449729
6.862667677
6.803044777
)
;
    }
    procBoundary8to14
    {
        type            processor;