/*--------------------------------*- C++ -*----------------------------------*\
  =========                 |
  \\      /  F ield         | OpenFOAM: The Open Source CFD Toolbox
   \\    /   O peration     | Website:  https://openfoam.org
    \\  /    A nd           | Version:  7
     \\/     M anipulation  |
\*---------------------------------------------------------------------------*/
FoamFile
{
    version     2.0;
    format      ascii;
    class       volScalarField;
    location    "1.4";
    object      p;
}
// * * * * * * * * * * * * * * * * * * * * * * * * * * * * * * * * * * * * * //

dimensions      [1 -1 -2 0 0 0 0];

internalField   nonuniform List<scalar> 
138
(
1.000000048
1.000000257
1.000001267
1.000005399
1.000021606
1.000069586
1.000387099
1.000378006
1
1
1
1
1
1
1
1
1
1
0.9999999999
1
1.000000002
1.000000025
1.000000114
1.000003622
0.9999989805
1
1
1
1
1
1
1
1
1
1
1
1
1
0.9999999999
1.000000008
0.9999998043
1
1
1
1
1
1
1
1
1
1
1
1
1
1
1
0.9999999904
1
1
1
1
1
1
1
1
1
1
1
1
1
1
1
0.9999999998
1
1
1
1
1
1
1
1
1
1
1
1
1
1
1
1
1
1
1
1
1
1
1
1
1
1
1
1
1
1
1
1
1
1
1
1
1
1
1
1
1
1
1
1
1
1
1
1
1
1
1
1
1
1
1
1
1
1
1
1
1
1
1
1
1
)
;

boundaryField
{
    inlet
    {
        type            fixedValue;
        value           nonuniform 0();
    }
    outlet
    {
        type            zeroGradient;
    }
    bottom
    {
        type            slip;
    }
    top
    {
        type            slip;
    }
    obstacle
    {
        type            zeroGradient;
    }
    defaultFaces
    {
        type            empty;
    }
    procBoundary26to20
    {
        type            processor;
        value           nonuniform List<scalar> 
18
(
1.000032993
1.000108742
1.000309951
1.00087591
1.002105396
1.004943563
1.010440867
1.017179111
1
1
1
1
1
0.9999999999
1
1.000000001
1.000000007
1.000000007
)
;
    }
    procBoundary26to25
    {
        type            processor;
        value           nonuniform List<scalar> 9(1 1 1 1 1 1 1 1 1);
    }
    procBoundary26to27
    {
        type            processor;
        value           nonuniform List<scalar> 3(1.012655664 1.000762324 1.000019134);
    }
    procBoundary26to31
    {
        type            processor;
        value           uniform 1;
    }
    procBoundary26to32
    {
        type            processor;
        value           nonuniform List<scalar> 
17
(
1
1
1
1
1
1
1
1
1
1
1
1
1
1
1
1
1
)
;
    }
    procBoundary26to33
    {
        type            processor;
        value           nonuniform List<scalar> 6(1.000000196 1.000000001 1 1 1 1);
    }
}


// ************************************************************************* //
