/*--------------------------------*- C++ -*----------------------------------*\
  =========                 |
  \\      /  F ield         | OpenFOAM: The Open Source CFD Toolbox
   \\    /   O peration     | Website:  https://openfoam.org
    \\  /    A nd           | Version:  7
     \\/     M anipulation  |
\*---------------------------------------------------------------------------*/
FoamFile
{
    version     2.0;
    format      ascii;
    class       volScalarField;
    location    "2.9";
    object      rho;
}
// * * * * * * * * * * * * * * * * * * * * * * * * * * * * * * * * * * * * * //

dimensions      [1 -3 0 0 0 0 0];

internalField   nonuniform List<scalar> 
2222
(
2.813458282
2.819779371
2.825357209
2.829113826
2.830541541
2.824721446
2.828426779
2.83251819
2.836125221
2.839766463
2.843939965
2.845493337
2.845280148
2.844356054
2.843219408
2.843031999
2.846078393
2.843022168
2.837325373
2.834807116
2.836517667
2.841936899
2.851290727
2.859436759
2.861471326
2.861550535
2.860548837
2.856815739
2.852042848
2.850274067
2.849845332
2.849899856
2.849333987
2.845985904
2.842789131
2.837011524
2.834713144
2.836524632
2.842125271
2.851614328
2.859572762
2.861460181
2.86153297
2.860483621
2.856675056
2.851975603
2.85028358
2.849868738
2.849915953
2.849323905
2.848171744
2.847262678
2.847234696
2.847527463
2.848707838
2.850114486
2.850288669
2.850018237
2.849124616
2.847557721
2.846780295
2.846974843
2.84800776
2.850408983
2.852053359
2.851880401
2.851141631
2.849498784
2.846802215
2.844814655
2.844596973
2.844983836
2.846703457
2.849393255
2.850402321
2.850107391
2.849110331
2.847171271
2.84512329
2.844452011
2.844474784
2.845025515
2.846468085
2.848149635
2.848811231
2.848787509
2.848393139
2.847549684
2.846591419
2.845927481
2.845542302
2.845402589
2.845444579
2.845924724
2.846787555
2.847429839
2.847682763
2.847635579
2.847408495
2.846610846
2.824686929
2.828336119
2.832441845
2.836075508
2.839789273
2.844031211
2.845514639
2.845276845
2.844337353
2.843225558
2.843074068
2.843733135
2.845165379
2.847397573
2.848562016
2.848519673
2.848031974
2.846647932
2.84473259
2.844242488
2.844483899
2.845914761
2.848472718
2.849421127
2.849241805
2.848570243
2.846580543
2.843963608
2.843225901
2.843479047
2.844354754
2.846464468
2.848246896
2.848356774
2.84795004
2.846956716
2.845349702
2.844094028
2.843841142
2.843898017
2.844267694
2.845243106
2.846264189
2.846423528
2.846052785
2.84577342
2.845632406
2.845373223
2.844994912
2.844536458
2.844115875
2.843961139
2.844339785
2.845177726
2.845883363
2.846209044
2.846222241
2.846030403
2.845517057
2.844658164
2.843790882
2.843526557
2.843674894
2.844518457
2.845653581
2.846096076
2.845953714
2.813444631
2.819776499
2.825442798
2.829219068
2.830621655
2.830688453
2.829709893
2.828299344
2.824751905
2.822480149
2.824364083
2.828027444
2.833352304
2.840661926
2.845702581
2.846462039
2.846402532
2.844501094
2.839936188
2.835977305
2.835193061
2.835525892
2.837713561
2.841354896
2.842855186
2.842655169
2.841747697
2.840037224
2.837894559
2.836739658
2.83668592
2.836927274
2.838062627
2.83996839
2.84107223
2.841327723
2.841119153
2.840816513
2.840555459
2.840006625
2.839024709
2.838221781
2.838019337
2.838509169
2.83969809
2.841103378
2.841840181
2.841872969
2.841663868
2.841155133
2.839704891
2.837928848
2.837491647
2.837913473
2.839157745
2.841215224
2.842627902
2.842712167
2.842475586
2.841931104
2.840636391
2.838906045
2.838303971
2.838417388
2.839157746
2.840828361
2.842247844
2.820412345
2.808460572
2.800912119
2.799302142
2.799612117
2.802206991
2.808323682
2.810761239
2.810484852
2.811545778
2.814451292
2.817268507
2.821306338
2.828802919
2.835904509
2.837579285
2.837637972
2.835895892
2.831466164
2.827406934
2.825966317
2.826039656
2.826400139
2.828101686
2.831625957
2.834053843
2.834568083
2.834058588
2.832524775
2.831021029
2.829706728
2.828609402
2.827952086
2.827930255
2.828766215
2.830746841
2.8333754
2.834912668
2.835124
2.835094431
2.834567656
2.832774185
2.830535606
2.829571402
2.829766524
2.830903321
2.833288842
2.835614042
2.836202058
2.836005868
2.835180339
2.833509745
2.8317342
2.831237691
2.831375092
2.832212051
2.834142095
2.83614989
2.836877209
2.836806391
2.835993207
2.834649794
2.833335197
2.832764722
2.832741228
2.833007927
2.834492626
2.825666497
2.787590573
2.776860969
2.777163129
2.779874392
2.788939514
2.803031307
2.81445917
2.816778493
2.815524788
2.811547217
2.808648562
2.807570487
2.808379531
2.812173505
2.816424396
2.819695735
2.822877185
2.825037433
2.825754501
2.825193125
2.823927328
2.823832999
2.823686064
2.823392811
2.823770832
2.824968106
2.82624113
2.827258959
2.82735312
2.827033546
2.82619898
2.824146486
2.821938332
2.821191062
2.821490407
2.823109865
2.826577781
2.830065345
2.831243671
2.831148643
2.830084146
2.827734319
2.825000837
2.823810927
2.823606219
2.824104401
2.826250936
2.829211937
2.830819959
2.83107555
2.830576587
2.829161202
2.827417152
2.826409313
2.826015636
2.826027665
2.82685425
2.828393556
2.829854518
2.830685828
2.830799879
2.83048512
2.829694622
2.828677407
2.827801415
2.827779285
2.852130296
2.836864004
2.824216699
2.818542012
2.817054155
2.819105061
2.82470227
2.825374415
2.820822616
2.814664974
2.809985447
2.804988922
2.801377285
2.798979201
2.800293328
2.80241243
2.805235369
2.810022846
2.816835193
2.824649992
2.828107509
2.82896141
2.828765659
2.826022687
2.820874126
2.817119064
2.816522767
2.817045291
2.820154679
2.825474933
2.828113714
2.828263603
2.827816047
2.825012973
2.820639836
2.818895106
2.818856406
2.81949589
2.821872773
2.825402641
2.827717008
2.828246865
2.827834209
2.826082563
2.823394899
2.822095858
2.822012995
2.822300987
2.82324
2.825246026
2.827233803
2.828133941
2.828214497
2.827735415
2.826504241
2.824951572
2.823855877
2.823467643
2.823419781
2.823920481
2.825429268
2.827361991
2.82831256
2.828399751
2.828162711
2.827154241
2.825723112
2.849781958
2.858515164
2.871455285
2.869813875
2.861454757
2.852888322
2.83363045
2.810047917
2.790608601
2.79102723
2.798203861
2.805258636
2.807349916
2.808387704
2.806065391
2.802356194
2.801929885
2.803179043
2.806571923
2.815137893
2.824356998
2.82783402
2.827928729
2.826584515
2.821821814
2.815991281
2.814466524
2.815148886
2.817626073
2.822328198
2.827913624
2.830638744
2.830610336
2.829634588
2.827095677
2.82283988
2.819521706
2.818687597
2.818758394
2.819770453
2.821968475
2.825014899
2.827688841
2.828512987
2.828600568
2.827618169
2.824980745
2.822568335
2.821857597
2.821878714
2.822534766
2.82424343
2.826657006
2.828181556
2.828369533
2.828058137
2.826382941
2.823669397
2.822309967
2.822182055
2.822515712
2.823694944
2.825872129
2.827811046
2.828304438
2.828216568
2.827253194
2.37859923
2.514948486
2.675006868
2.78780213
2.789313846
2.800982011
2.805666462
2.788626306
2.786257855
2.798258427
2.810783207
2.825732269
2.837000926
2.838260589
2.835285053
2.828492159
2.819608836
2.808823907
2.803140525
2.803587517
2.806733218
2.812254859
2.819053815
2.825597428
2.829159173
2.829664211
2.828299714
2.826609835
2.824353168
2.82308431
2.822806316
2.824323966
2.827275023
2.829358595
2.830005031
2.829738498
2.828459229
2.82566923
2.822528877
2.821142122
2.82123074
2.822297365
2.824753845
2.828627747
2.831276504
2.83147469
2.830761769
2.828470677
2.824843463
2.822579295
2.822332522
2.822702165
2.824011578
2.826628736
2.82946022
2.830345504
2.83010875
2.828905493
2.826403836
2.823959162
2.823247094
2.823287238
2.823939628
2.825578476
2.827595195
2.828797634
2.829278512
1.583013076
1.735884172
1.935663182
2.183282992
2.360729758
2.536047852
2.732426502
2.762918853
2.788558007
2.823696765
2.828342472
2.830792105
2.83981202
2.844105775
2.843115607
2.838793729
2.828957482
2.816827414
2.80572536
2.800939973
2.801636665
2.804452399
2.8110364
2.821369439
2.832282221
2.838336078
2.839974507
2.839650133
2.835999461
2.828063231
2.821677644
2.820638083
2.820905975
2.823068828
2.828897909
2.835551817
2.83829237
2.838412301
2.836631221
2.831559694
2.826273726
2.82484358
2.824860568
2.825633918
2.828416151
2.831911832
2.833573578
2.833769941
2.832937293
2.830025381
2.82675082
2.825522127
2.825720491
2.826388552
2.8279895
2.830744372
2.83274997
2.832932733
2.832504476
2.830782036
2.827940649
2.825966945
2.825774458
2.825955334
2.826677122
2.828018963
2.830960906
1.402335444
1.409340165
1.428644364
1.487168359
1.593706568
1.736045053
1.971272544
2.196443332
2.373287962
2.601675617
2.676854937
2.708287529
2.749801204
2.775439505
2.785736849
2.805373408
2.82246066
2.828896748
2.831948603
2.832830568
2.831789709
2.827147314
2.824005903
2.823961818
2.826073591
2.832199118
2.83622334
2.836961055
2.836840885
2.8345518
2.827876682
2.823268462
2.823479328
2.825465482
2.829422651
2.836166954
2.843235817
2.845411441
2.844935382
2.842645674
2.837833344
2.831275092
2.827549855
2.827275204
2.827687843
2.829444584
2.833053783
2.837277888
2.83927953
2.83952136
2.838447517
2.835084004
2.831061156
2.829324435
2.829485886
2.830120555
2.831712641
2.834519896
2.836423262
2.836905894
2.836521758
2.834663927
2.831515632
2.829185172
2.828923519
2.829450496
2.831253415
1.400005695
1.400014059
1.400080156
1.400565111
1.402836683
1.409987774
1.435522621
1.503099556
1.599422065
1.768245312
1.992430914
2.186317552
2.430151508
2.577381098
2.642129367
2.724924242
2.804241788
2.814580819
2.831793486
2.845310619
2.845273132
2.842450127
2.834354098
2.817476184
2.805257501
2.806172028
2.813066377
2.824383864
2.835356903
2.841704464
2.843316697
2.843082603
2.841099304
2.838136036
2.834502064
2.833406035
2.83461001
2.838205047
2.841559016
2.843343821
2.843850054
2.843398109
2.840027574
2.834836171
2.831993435
2.831925235
2.832996106
2.835231545
2.839326906
2.842732684
2.843354723
2.843356788
2.841704119
2.837408862
2.833172994
2.832176577
2.832594176
2.833740638
2.836252811
2.839579191
2.841301334
2.841658389
2.84115708
2.838828385
2.835213547
2.832771708
2.832879401
1.400005039
1.400005037
1.400005049
1.400005066
1.400006061
1.400017156
1.400124977
1.400807635
1.403224417
1.41201061
1.443849247
1.503459879
1.613919626
1.808775475
2.001911847
2.218557054
2.441133111
2.539516696
2.638698618
2.754433778
2.790460025
2.797114874
2.8097973
2.810967563
2.804318138
2.807945634
2.816184071
2.825406648
2.836493328
2.846875267
2.854373477
2.855361346
2.854371605
2.849693608
2.840443605
2.830578836
2.827855856
2.828422122
2.831097327
2.837591291
2.847406217
2.852627608
2.853218491
2.851665688
2.846616216
2.839941191
2.835802678
2.835378692
2.835463621
2.837815336
2.843010511
2.846315227
2.847013187
2.846625266
2.84385737
2.839521606
2.836496039
2.835961538
2.836603501
2.83815087
2.841347524
2.844326563
2.845302153
2.845325173
2.844453906
2.841509047
2.837417301
1.40000504
1.40000504
1.40000504
1.40000504
1.400005039
1.400005035
1.400005066
1.400005127
1.400006451
1.400023652
1.400177853
1.400926288
1.403874978
1.416669444
1.448096346
1.50887297
1.64526812
1.828912552
2.024481564
2.272210519
2.425806044
2.549447881
2.718524258
2.784740789
2.796813781
2.825771499
2.834088448
2.832683855
2.834104471
2.836508188
2.84067763
2.846919466
2.849133061
2.848024001
2.843312349
2.835937271
2.830312788
2.830428729
2.832297187
2.836275401
2.843938514
2.852033855
2.855080815
2.855016904
2.853181617
2.849971023
2.84384814
2.837160177
2.835622275
2.835852982
2.837247886
2.841030799
2.846909214
2.850201035
2.850773989
2.850427161
2.847910931
2.843013737
2.839234573
2.838681541
2.83877443
2.839839158
2.843068133
2.846718462
2.848005092
2.848190832
2.846971633
1.40000504
1.40000504
1.40000504
1.40000504
1.40000504
1.40000504
1.40000504
1.40000504
1.400005039
1.400005034
1.40000507
1.400005143
1.40000753
1.400037492
1.400223896
1.401065837
1.405340131
1.420078097
1.452192591
1.533399046
1.675157401
1.833734937
2.073663562
2.286258042
2.438728969
2.639124547
2.737001105
2.744629258
2.770311982
2.775672042
2.777859038
2.800346442
2.827045048
2.83882962
2.847971864
2.855479452
2.855854582
2.854725145
2.851681627
2.845035422
2.8376828
2.836593331
2.839140349
2.845404616
2.851429631
2.853395959
2.853354841
2.849904125
2.843473479
2.83907016
2.838427901
2.839319113
2.841631505
2.847091122
2.852819833
2.854404269
2.853957087
2.852112777
2.847536311
2.841692942
2.839015426
2.839019195
2.839646865
2.84180788
2.846670994
2.850493544
2.852010759
1.40000504
1.40000504
1.40000504
1.40000504
1.40000504
1.40000504
1.40000504
1.40000504
1.40000504
1.400005039
1.40000504
1.400005039
1.400005038
1.400005044
1.400005034
1.40000519
1.400009857
1.400051914
1.400284692
1.401553119
1.407053457
1.421317575
1.463128386
1.564749623
1.692551869
1.88790861
2.117290371
2.297647338
2.528601438
2.675854505
2.703998945
2.755529228
2.807528894
2.823330831
2.836596774
2.851243582
2.858126124
2.85959115
2.857529166
2.84645193
2.829939617
2.823239289
2.824694349
2.829385004
2.838039057
2.850053661
2.857417844
2.858908078
2.858596992
2.854990499
2.848018642
2.84138779
2.839022869
2.838927305
2.841141355
2.846518301
2.852066
2.854138297
2.854161461
2.852365342
2.847338032
2.841849041
2.840047148
2.84035037
2.841550798
2.844794249
2.85118684
1.40000504
1.40000504
1.40000504
1.40000504
1.40000504
1.40000504
1.40000504
1.40000504
1.40000504
1.40000504
1.40000504
1.40000504
1.40000504
1.40000504
1.400005039
1.400005038
1.400005036
1.400005046
1.400005022
1.400005511
1.400012669
1.400064196
1.400415186
1.402415781
1.408517625
1.426652082
1.4835981
1.576298882
1.727568309
1.958138407
2.158788534
2.378128712
2.579202564
2.631069985
2.694905337
2.754400082
2.802692446
2.824907553
2.835781617
2.839605006
2.839373267
2.837917743
2.835841415
2.836463464
2.838597737
2.843637338
2.852981566
2.860235855
2.862284524
2.861441861
2.858148889
2.851307533
2.841661284
2.836329191
2.835910051
2.836797393
2.840458967
2.848607944
2.85602819
2.857532161
2.857238909
2.85471255
2.84871886
2.8424237
2.840480962
2.840612942
2.842717053
1.40000504
1.40000504
1.40000504
1.40000504
1.40000504
1.40000504
1.40000504
1.40000504
1.40000504
1.40000504
1.40000504
1.40000504
1.40000504
1.40000504
1.40000504
1.40000504
1.40000504
1.40000504
1.400005037
1.400005038
1.400005039
1.400005033
1.400005057
1.400006178
1.400016526
1.400095673
1.400676535
1.403046144
1.410936969
1.441475825
1.502797045
1.602651619
1.793586583
2.005646868
2.231712155
2.45937336
2.563460267
2.656570763
2.763359676
2.815999438
2.833335487
2.851893812
2.853353215
2.851678718
2.845205222
2.833436423
2.827754034
2.828996007
2.840635731
2.855361888
2.858971304
2.858985844
2.856123565
2.848494298
2.839997625
2.835975427
2.836042049
2.838208792
2.844878328
2.853961735
2.858833756
2.859352257
2.858494983
2.854577267
2.847076783
2.841139363
2.839357659
1.40000504
1.40000504
1.40000504
1.40000504
1.40000504
1.40000504
1.40000504
1.40000504
1.40000504
1.40000504
1.40000504
1.40000504
1.40000504
1.40000504
1.40000504
1.40000504
1.40000504
1.40000504
1.40000504
1.40000504
1.40000504
1.400005039
1.40000504
1.40000504
1.400005038
1.400005034
1.400005136
1.400006947
1.400025474
1.400197635
1.401039837
1.404026668
1.417452304
1.454731349
1.523184607
1.671156538
1.865706911
2.065462275
2.323828782
2.471539363
2.58977488
2.732184295
2.810278841
2.819247574
2.820497013
2.822016194
2.809203893
2.807891302
2.817233882
2.835769451
2.851809715
2.861603881
2.863965866
2.864004923
2.861177185
2.852763908
2.8415658
2.835989922
2.835490756
2.836739153
2.842703432
2.852608355
2.858823361
2.859569781
2.858610106
2.854621856
2.845079973
1.40000504
1.40000504
1.40000504
1.40000504
1.40000504
1.40000504
1.40000504
1.40000504
1.40000504
1.40000504
1.40000504
1.40000504
1.40000504
1.40000504
1.40000504
1.40000504
1.40000504
1.40000504
1.40000504
1.40000504
1.40000504
1.40000504
1.40000504
1.40000504
1.40000504
1.400005039
1.40000504
1.400005039
1.400005041
1.400005052
1.400005248
1.400008649
1.400051192
1.400340434
1.401570883
1.407478507
1.426927797
1.466625442
1.570048362
1.744430527
1.93405984
2.191038234
2.377130994
2.519835123
2.701848121
2.790887352
2.80374842
2.825078625
2.829960494
2.826073494
2.829102079
2.839757301
2.857090528
2.866802587
2.867808187
2.866085775
2.860616569
2.849751813
2.836769844
2.830781807
2.830479913
2.833091649
2.842119984
2.85486126
2.861157043
2.861650148
2.860043356
1.40000504
1.40000504
1.40000504
1.40000504
1.40000504
1.40000504
1.40000504
1.40000504
1.40000504
1.40000504
1.40000504
1.40000504
1.40000504
1.40000504
1.40000504
1.40000504
1.40000504
1.40000504
1.40000504
1.40000504
1.40000504
1.40000504
1.40000504
1.40000504
1.40000504
1.40000504
1.40000504
1.40000504
1.40000504
1.40000504
1.40000504
1.400005038
1.400005051
1.400005048
1.40000565
1.400015686
1.400098453
1.400524397
1.40297341
1.413405469
1.437680474
1.505262118
1.637077757
1.797798489
2.053397388
2.275732106
2.444743329
2.662439215
2.763245159
2.762534575
2.77991591
2.789763308
2.796682991
2.823981492
2.857229062
2.867496559
2.868495261
2.868134219
2.862504952
2.849911948
2.835486669
2.830033922
2.829917915
2.833255863
2.842764012
2.854450629
2.861280416
1.40000504
1.40000504
1.40000504
1.40000504
1.40000504
1.40000504
1.40000504
1.40000504
1.40000504
1.40000504
1.40000504
1.40000504
1.40000504
1.40000504
1.40000504
1.40000504
1.40000504
1.40000504
1.40000504
1.40000504
1.40000504
1.40000504
1.40000504
1.40000504
1.40000504
1.40000504
1.40000504
1.40000504
1.40000504
1.40000504
1.40000504
1.40000504
1.40000504
1.400005039
1.400005039
1.40000504
1.400005041
1.400005077
1.400007388
1.400033789
1.400192437
1.401161778
1.405848884
1.419027287
1.462795818
1.567945158
1.702921822
1.926383924
2.157328237
2.347152081
2.608613477
2.718229224
2.7304755
2.768977534
2.794289894
2.820595443
2.851409261
2.86705603
2.870163321
2.869848455
2.863692144
2.852453361
2.837332905
2.82838931
2.827870849
2.830073123
2.842154904
1.40000504
1.40000504
1.40000504
1.40000504
1.40000504
1.40000504
1.40000504
1.40000504
1.40000504
1.40000504
1.40000504
1.40000504
1.40000504
1.40000504
1.40000504
1.40000504
1.40000504
1.40000504
1.40000504
1.40000504
1.40000504
1.40000504
1.40000504
1.40000504
1.40000504
1.40000504
1.40000504
1.40000504
1.40000504
1.40000504
1.40000504
1.40000504
1.40000504
1.40000504
1.40000504
1.40000504
1.40000504
1.400005039
1.400005038
1.400005045
1.40000503
1.400005426
1.400012156
1.400065976
1.400480636
1.402916313
1.41023412
1.435289686
1.50703593
1.616933448
1.822930848
2.060123145
2.261550204
2.534102386
2.652794957
2.687586041
2.742531463
2.782118848
2.826623166
2.858045418
2.86818899
2.869286018
2.865115154
2.853015494
2.838005449
2.82703833
2.825303061
1.40000504
1.40000504
1.40000504
1.40000504
1.40000504
1.40000504
1.40000504
1.40000504
1.40000504
1.40000504
1.40000504
1.40000504
1.40000504
1.40000504
1.40000504
1.40000504
1.40000504
1.40000504
1.40000504
1.40000504
1.40000504
1.40000504
1.40000504
1.40000504
1.40000504
1.40000504
1.40000504
1.40000504
1.40000504
1.40000504
1.40000504
1.40000504
1.40000504
1.40000504
1.40000504
1.40000504
1.40000504
1.40000504
1.40000504
1.40000504
1.400005038
1.400005039
1.40000504
1.400005031
1.400005099
1.400007127
1.400025436
1.400180445
1.401270678
1.405296469
1.421009883
1.473010312
1.556785496
1.721816773
1.952221603
2.170316579
2.456316818
2.58423815
2.653461051
2.732153535
2.798231279
2.843212208
2.857681309
2.86484954
2.864900456
2.855680905
2.837161453
1.40000504
1.40000504
1.40000504
1.40000504
1.40000504
1.40000504
1.40000504
1.40000504
1.40000504
1.40000504
1.40000504
1.40000504
1.40000504
1.40000504
1.40000504
1.40000504
1.40000504
1.40000504
1.40000504
1.40000504
1.40000504
1.40000504
1.40000504
1.40000504
1.40000504
1.40000504
1.40000504
1.40000504
1.40000504
1.40000504
1.40000504
1.40000504
1.40000504
1.40000504
1.40000504
1.40000504
1.40000504
1.40000504
1.40000504
1.40000504
1.40000504
1.40000504
1.40000504
1.400005039
1.400005039
1.400005039
1.400005045
1.400005037
1.400005521
1.400012036
1.40007923
1.400625873
1.402750978
1.411516801
1.446149899
1.511898908
1.652390657
1.870533691
2.086518983
2.368090818
2.52366726
2.61912575
2.713804549
2.804193649
2.842958941
2.855117242
2.859543156
1.40000504
1.40000504
1.40000504
1.40000504
1.40000504
1.40000504
1.40000504
1.40000504
1.40000504
1.40000504
1.40000504
1.40000504
1.40000504
1.40000504
1.40000504
1.40000504
1.40000504
1.40000504
1.40000504
1.40000504
1.40000504
1.40000504
1.40000504
1.40000504
1.40000504
1.40000504
1.40000504
1.40000504
1.40000504
1.40000504
1.40000504
1.40000504
1.40000504
1.40000504
1.40000504
1.40000504
1.40000504
1.40000504
1.40000504
1.40000504
1.40000504
1.40000504
1.40000504
1.40000504
1.40000504
1.40000504
1.40000504
1.40000504
1.40000504
1.400005038
1.40000504
1.400005149
1.400007199
1.400033397
1.400293978
1.401506533
1.407121064
1.431159625
1.479466185
1.593365034
1.793929595
2.011162182
2.282022307
2.468452448
2.589465409
2.703026934
2.812161985
1.40000504
1.40000504
1.40000504
1.40000504
1.40000504
1.40000504
1.40000504
1.40000504
1.40000504
1.40000504
1.40000504
1.40000504
1.40000504
1.40000504
1.40000504
1.40000504
1.40000504
1.40000504
1.40000504
1.40000504
1.40000504
1.40000504
1.40000504
1.40000504
1.40000504
1.40000504
1.40000504
1.40000504
1.40000504
1.40000504
1.40000504
1.40000504
1.40000504
1.40000504
1.40000504
1.40000504
1.40000504
1.40000504
1.40000504
1.40000504
1.40000504
1.40000504
1.40000504
1.40000504
1.40000504
1.40000504
1.40000504
1.40000504
1.40000504
1.40000504
1.40000504
1.40000504
1.400005039
1.400005049
1.400005056
1.400005814
1.400017871
1.400150405
1.40079955
1.404330944
1.42053217
1.4576709
1.553923089
1.727702837
1.950600176
2.203195071
2.390224456
1.40000504
1.40000504
1.40000504
1.40000504
1.40000504
1.40000504
1.40000504
1.40000504
1.40000504
1.40000504
1.40000504
1.40000504
1.40000504
1.40000504
1.40000504
1.40000504
1.40000504
1.40000504
1.40000504
1.40000504
1.40000504
1.40000504
1.40000504
1.40000504
1.40000504
1.40000504
1.40000504
1.40000504
1.40000504
1.40000504
1.40000504
1.40000504
1.40000504
1.40000504
1.40000504
1.40000504
1.40000504
1.40000504
1.40000504
1.40000504
1.40000504
1.40000504
1.40000504
1.40000504
1.40000504
1.40000504
1.40000504
1.40000504
1.40000504
1.40000504
1.40000504
1.40000504
1.40000504
1.40000504
1.40000504
1.400005039
1.400005042
1.400005039
1.400005247
1.400011031
1.400078321
1.400464851
1.402917723
1.413347932
1.442453182
1.528217397
1.630634949
1.40000504
1.40000504
1.40000504
1.40000504
1.40000504
1.40000504
1.40000504
1.40000504
1.40000504
1.40000504
1.40000504
1.40000504
1.40000504
1.40000504
1.40000504
1.40000504
1.40000504
1.40000504
1.40000504
1.40000504
1.40000504
1.40000504
1.40000504
1.40000504
1.40000504
1.40000504
1.40000504
1.40000504
1.40000504
1.40000504
1.40000504
1.40000504
1.40000504
1.40000504
1.40000504
1.40000504
1.40000504
1.40000504
1.40000504
1.40000504
1.40000504
1.40000504
1.40000504
1.40000504
1.40000504
1.40000504
1.40000504
1.40000504
1.40000504
1.40000504
1.40000504
1.40000504
1.40000504
1.40000504
1.40000504
1.40000504
1.40000504
1.40000504
1.40000504
1.400005041
1.400005041
1.400005106
1.400007956
1.400041077
1.400277338
1.403474431
1.395607685
1.40000504
1.40000504
1.40000504
1.40000504
1.40000504
1.40000504
1.40000504
1.40000504
1.40000504
1.40000504
1.40000504
1.40000504
1.40000504
1.40000504
1.40000504
1.40000504
1.40000504
1.40000504
1.40000504
1.40000504
1.40000504
1.40000504
1.40000504
1.40000504
1.40000504
1.40000504
1.40000504
1.40000504
1.40000504
1.40000504
1.40000504
1.40000504
1.40000504
1.40000504
1.40000504
1.40000504
1.40000504
1.40000504
1.40000504
1.40000504
1.40000504
1.40000504
1.40000504
1.40000504
1.40000504
1.40000504
1.40000504
1.40000504
1.40000504
1.40000504
1.40000504
1.40000504
1.40000504
1.40000504
1.40000504
1.40000504
1.40000504
1.40000504
1.40000504
1.40000504
1.40000504
1.40000504
1.400005039
1.400005053
1.400005039
1.400018569
1.399329472
1.40000504
1.40000504
1.40000504
1.40000504
1.40000504
1.40000504
1.40000504
1.40000504
1.40000504
1.40000504
1.40000504
1.40000504
1.40000504
1.40000504
1.40000504
1.40000504
1.40000504
1.40000504
1.40000504
1.40000504
1.40000504
1.40000504
1.40000504
1.40000504
1.40000504
1.40000504
1.40000504
1.40000504
1.40000504
1.40000504
1.40000504
1.40000504
1.40000504
1.40000504
1.40000504
1.40000504
1.40000504
1.40000504
1.40000504
1.40000504
1.40000504
1.40000504
1.40000504
1.40000504
1.40000504
1.40000504
1.40000504
1.40000504
1.40000504
1.40000504
1.40000504
1.40000504
1.40000504
1.40000504
1.40000504
1.40000504
1.40000504
1.40000504
1.40000504
1.40000504
1.40000504
1.40000504
1.40000504
1.40000504
1.40000504
1.40000504
1.40000504
1.40000504
1.40000504
1.40000504
1.40000504
1.40000504
1.40000504
1.40000504
1.40000504
1.40000504
1.40000504
1.40000504
1.40000504
1.40000504
1.40000504
1.40000504
1.40000504
1.40000504
1.40000504
1.40000504
1.40000504
1.40000504
1.40000504
1.40000504
1.40000504
1.40000504
1.40000504
1.40000504
1.40000504
1.40000504
1.40000504
1.40000504
1.40000504
1.40000504
1.40000504
1.40000504
1.40000504
1.40000504
1.40000504
1.40000504
1.40000504
1.40000504
1.40000504
1.40000504
1.40000504
1.40000504
1.40000504
1.40000504
1.40000504
1.40000504
1.40000504
1.40000504
1.40000504
1.40000504
1.40000504
1.40000504
1.40000504
1.40000504
1.40000504
1.40000504
1.40000504
1.40000504
1.40000504
1.40000504
1.40000504
1.40000504
1.40000504
1.40000504
1.40000504
1.40000504
1.40000504
1.40000504
1.40000504
1.40000504
1.40000504
1.40000504
1.40000504
1.40000504
1.40000504
1.40000504
1.40000504
1.40000504
1.40000504
1.40000504
1.40000504
1.40000504
1.40000504
1.40000504
1.40000504
1.40000504
1.40000504
1.40000504
1.40000504
1.40000504
1.40000504
1.40000504
1.40000504
1.40000504
1.40000504
1.40000504
1.40000504
1.40000504
1.40000504
1.40000504
1.40000504
1.40000504
1.40000504
1.40000504
1.40000504
1.40000504
1.40000504
1.40000504
1.40000504
1.40000504
1.40000504
1.40000504
1.40000504
1.40000504
1.40000504
1.40000504
1.40000504
1.40000504
1.40000504
1.40000504
1.40000504
1.40000504
1.40000504
1.40000504
1.40000504
1.40000504
1.40000504
1.40000504
1.40000504
1.40000504
1.40000504
1.40000504
1.40000504
1.40000504
1.40000504
1.40000504
1.40000504
1.40000504
1.40000504
1.40000504
1.40000504
1.40000504
1.40000504
1.40000504
1.40000504
1.40000504
1.40000504
1.40000504
1.40000504
1.40000504
1.40000504
1.40000504
1.40000504
1.40000504
1.40000504
1.40000504
1.40000504
1.40000504
1.40000504
1.40000504
1.40000504
1.40000504
1.40000504
1.40000504
1.40000504
1.40000504
1.40000504
1.40000504
1.40000504
1.40000504
1.40000504
1.40000504
1.40000504
1.40000504
1.40000504
1.40000504
)
;

boundaryField
{
    inlet
    {
        type            calculated;
        value           nonuniform 0();
    }
    outlet
    {
        type            calculated;
        value           nonuniform 0();
    }
    bottom
    {
        type            calculated;
        value           nonuniform 0();
    }
    top
    {
        type            calculated;
        value           nonuniform 0();
    }
    obstacle
    {
        type            calculated;
        value           nonuniform List<scalar> 
84
(
2.845985904
2.842789131
2.837011524
2.834713144
2.836524632
2.842125271
2.851614328
2.859572762
2.861460181
2.86153297
2.860483621
2.856675056
2.851975603
2.85028358
2.849868738
2.849915953
2.849323905
2.848171744
2.847262678
2.847234696
2.847527463
2.848707838
2.850114486
2.850288669
2.850018237
2.849124616
2.847557721
2.846780295
2.846974843
2.84800776
2.850408983
2.852053359
2.851880401
2.851141631
2.849498784
2.846802215
2.844814655
2.844596973
2.844983836
2.846703457
2.849393255
2.850402321
2.850107391
2.849110331
2.847171271
2.84512329
2.844452011
2.844474784
2.845025515
2.846468085
2.848149635
2.848811231
2.848787509
2.848393139
2.847549684
2.846591419
2.845927481
2.845542302
2.845402589
2.845444579
2.845924724
2.846787555
2.847429839
2.847682763
2.847635579
2.847408495
2.846610846
2.846078393
2.843022168
2.837325373
2.834807116
2.836517667
2.841936899
2.851290727
2.859436759
2.861471326
2.861550535
2.860548837
2.856815739
2.852042848
2.850274067
2.849845332
2.849899856
2.849333987
)
;
    }
    defaultFaces
    {
        type            empty;
    }
    procBoundary20to13
    {
        type            processor;
        value           nonuniform List<scalar> 3(2.804928117 2.82106291 2.846675129);
    }
    procBoundary20to14
    {
        type            processor;
        value           nonuniform List<scalar> 
20
(
2.820551086
2.808519711
2.800789474
2.799108119
2.799426064
2.830651794
2.830651794
2.829730853
2.828400234
2.824956104
2.822540726
2.824346945
2.843671049
2.843671049
2.845092073
2.847352113
2.848593977
2.848566906
2.848104805
2.848200127
)
;
    }
    procBoundary20to19
    {
        type            processor;
        value           nonuniform List<scalar> 
31
(
2.846676252
2.821155051
2.804961758
2.829981662
2.864787674
2.84791251
2.786439795
2.146717243
1.468618987
1.400367016
1.40000501
1.400005037
1.40000504
1.40000504
1.40000504
1.40000504
1.40000504
1.40000504
1.40000504
1.40000504
1.40000504
1.40000504
1.40000504
1.40000504
1.40000504
1.40000504
1.40000504
1.40000504
1.40000504
1.40000504
1.40000504
)
;
    }
    procBoundary20to25
    {
        type            processor;
        value           nonuniform List<scalar> 6(1.40000504 1.40000504 1.40000504 1.40000504 1.40000504 1.40000504);
    }
    procBoundary20to26
    {
        type            processor;
        value           nonuniform List<scalar> 
73
(
1.40000504
1.40000504
1.40000504
1.40000504
1.40000504
1.400005039
1.400005047
1.399994746
1.40000504
1.40000504
1.40000504
1.40000504
1.40000504
1.40000504
1.40000504
1.40000504
1.40000504
1.40000504
1.40000504
1.40000504
1.40000504
1.40000504
1.40000504
1.40000504
1.40000504
1.40000504
1.40000504
1.40000504
1.40000504
1.40000504
1.40000504
1.40000504
1.40000504
1.40000504
1.40000504
1.40000504
1.40000504
1.40000504
1.40000504
1.40000504
1.40000504
1.40000504
1.40000504
1.40000504
1.40000504
1.40000504
1.40000504
1.40000504
1.40000504
1.40000504
1.40000504
1.40000504
1.40000504
1.40000504
1.40000504
1.40000504
1.40000504
1.40000504
1.40000504
1.40000504
1.40000504