/*--------------------------------*- C++ -*----------------------------------*\
  =========                 |
  \\      /  F ield         | OpenFOAM: The Open Source CFD Toolbox
   \\    /   O peration     | Website:  https://openfoam.org
    \\  /    A nd           | Version:  7
     \\/     M anipulation  |
\*---------------------------------------------------------------------------*/
FoamFile
{
    version     2.0;
    format      ascii;
    class       volVectorField;
    location    "2";
    object      U;
}
// * * * * * * * * * * * * * * * * * * * * * * * * * * * * * * * * * * * * * //

dimensions      [0 1 -1 0 0 0 0];

internalField   nonuniform List<vector> 
80000
(
(3 -4.344405902e-16 0)
(3 -9.253648357e-16 0)
(3 -1.63457105e-16 0)
(3 3.025442049e-16 0)
(3 -9.43778492e-17 0)
(3 6.26159877e-16 0)
(3 5.066175435e-16 0)
(3 1.116257151e-15 0)
(3 2.201476817e-15 0)
(3 2.266472117e-15 0)
(3 1.597664553e-15 0)
(3 1.173965379e-15 0)
(3 1.324300338e-15 0)
(3 1.177565875e-15 0)
(3 -4.747501199e-16 0)
(3 -1.220617211e-15 0)
(3 -2.078182613e-15 0)
(3 -3.282208406e-15 0)
(3 -2.966499821e-15 0)
(3 -2.989704833e-15 0)
(3 -2.271886283e-15 0)
(3 -1.600192407e-15 0)
(3 -1.978454189e-15 0)
(3 -3.009176745e-15 0)
(3 -2.999991042e-15 0)
(3 -2.775488541e-15 0)
(3 -2.843896565e-15 0)
(3 -2.268095537e-15 0)
(3 -1.948503287e-15 0)
(3 -1.073392309e-15 0)
(3 -3.747669209e-16 0)
(3 -6.593515348e-17 0)
(3 -1.180843894e-15 0)
(3 -2.066210663e-15 0)
(3 -2.465862651e-15 0)
(3 -3.153302197e-15 0)
(3 -1.562353602e-15 0)
(3 -1.968861755e-15 0)
(3 -1.3270536e-15 0)
(3 -1.339099729e-15 0)
(3 -1.84689443e-15 0)
(3 -1.774439444e-15 0)
(3 -1.106160983e-15 0)
(3 -2.435586216e-16 0)
(3 4.18297544e-16 0)
(3 -1.966584963e-16 0)
(3 -1.906135923e-15 0)
(3 -1.993722269e-15 0)
(3 -1.593542732e-15 0)
(3 -1.515473743e-15 0)
(3 -2.521664925e-15 0)
(3 -4.130637763e-15 0)
(3 -5.228012339e-15 0)
(3 -3.160387008e-15 0)
(3 -2.927413839e-15 0)
(3 -4.44409489e-15 0)
(3 -4.466796842e-15 0)
(3 -3.89940565e-15 0)
(3 -3.998584548e-15 0)
(3 -4.469740035e-15 0)
(3 -4.582304315e-15 0)
(3 -3.633569082e-15 0)
(3 -1.049260312e-15 0)
(3 -2.713072278e-16 0)
(3 1.46158107e-15 0)
(3 2.160936352e-15 0)
(3 2.043043239e-15 0)
(3 -8.326968995e-16 0)
(3 -2.84484373e-15 0)
(3 -3.903082635e-15 0)
(3 -4.63685032e-15 0)
(3 -3.996380518e-15 0)
(3 -3.845008317e-15 0)
(3 -2.150073708e-15 0)
(3 -1.724920459e-16 0)
(3 2.54561714e-15 0)
(3 2.202136128e-15 0)
(3 2.550051086e-15 0)
(3 7.103743495e-16 0)
(3 2.495038996e-15 0)
(3 2.459563931e-15 0)
(3 3.532231094e-15 0)
(3 3.462895743e-15 0)
(3 2.662226956e-15 0)
(3 9.136084665e-16 0)
(3 -7.579933119e-17 0)
(3 -7.97479934e-16 0)
(3 -1.822301148e-17 0)
(3 -1.679444952e-16 0)
(3 2.372754486e-18 0)
(3 9.075221998e-16 0)
(3 1.417515737e-15 0)
(3 2.025841496e-15 0)
(3 2.970008069e-15 0)
(3 3.407304544e-15 0)
(3 3.854720211e-15 0)
(3 2.381328372e-15 0)
(3 1.171077799e-15 0)
(3 1.977575726e-16 0)
(3 -5.874045e-16 0)
(3 -5.523967439e-17 0)
(3 -2.612367127e-16 0)
(3 -7.734934409e-17 0)
(3 8.052944393e-17 0)
(3 -3.950167616e-17 0)
(3 3.023793682e-16 0)
(3 -2.710493629e-16 0)
(3 2.555090414e-16 0)
(3 3.633217584e-16 0)
(3 7.435271651e-16 0)
(3 1.383215135e-15 0)
(3 1.765218365e-15 0)
(3 2.385018375e-15 0)
(3 1.379079301e-15 0)
(3 -3.727523994e-16 0)
(3 -1.430987316e-15 0)
(3 -2.753623918e-15 0)
(3 -4.273502838e-15 0)
(3 -3.264413772e-15 0)
(3 -3.753913597e-15 0)
(3 -3.68972708e-15 0)
(3 -3.432904788e-15 0)
(3 -2.681733436e-15 0)
(3 -2.343495267e-15 0)
(3 -2.047614748e-15 0)
(3 -1.420306126e-15 0)
(3 -1.046099513e-15 0)
(3 1.743185852e-16 0)
(3 9.922231914e-16 0)
(3 1.454946027e-15 0)
(3 2.668640959e-15 0)
(3 2.190364103e-15 0)
(3 8.405953825e-16 0)
(3 -1.470633973e-15 0)
(3 -2.989236771e-15 0)
(3 -3.6916494e-15 0)
(3 -2.679897583e-15 0)
(3 -3.230477815e-15 0)
(3 -1.193722957e-15 0)
(3 -1.037698929e-15 0)
(3 -1.407936426e-15 0)
(3 -1.857133982e-15 0)
(3 -2.789615109e-15 0)
(3 -1.59054562e-15 0)
(3 -1.420432825e-15 0)
(3 -1.891797741e-15 0)
(3 -3.13893284e-15 0)
(3 -4.354386174e-15 0)
(3 -3.672524171e-15 0)
(3 -3.720553805e-15 0)
(3 -3.857056787e-15 0)
(3 -7.00324139e-15 0)
(3 -8.581300125e-15 0)
(3 -7.215207773e-15 0)
(3 -4.80157319e-15 0)
(3 -4.697174682e-15 0)
(3 -3.653316151e-15 0)
(3 -3.106748904e-15 0)
(3 -3.976940929e-15 0)
(3 -5.59326156e-15 0)
(3 -6.068786034e-15 0)
(3 -6.883733719e-15 0)
(3 -5.38283457e-15 0)
(3 -2.253030077e-15 0)
(3 -4.783966196e-16 0)
(3 8.240753452e-16 0)
(3 1.114864703e-15 0)
(3 -1.401516892e-16 0)
(3 -2.543181042e-15 0)
(3 -4.242769054e-15 0)
(3 -4.90848286e-15 0)
(3 -4.521560606e-15 0)
(3 -3.508756502e-15 0)
(3 -1.46847461e-15 0)
(3 1.002165758e-15 0)
(3 3.442760691e-15 0)
(3 5.78560376e-15 0)
(3 5.776220242e-15 0)
(3 4.003436024e-15 0)
(3 3.69194907e-15 0)
(3 3.723772981e-15 0)
(3 3.564687681e-15 0)
(3 3.442718647e-15 0)
(3 2.362289072e-15 0)
(3 -4.053519955e-16 0)
(3 -2.393027802e-15 0)
(3 -1.389467759e-15 0)
(3 -9.527922023e-16 0)
(3 -1.011458137e-15 0)
(3 -3.839799429e-16 0)
(3 6.291987531e-16 0)
(3 3.59311844e-15 0)
(3 5.472521681e-15 0)
(3 5.044402599e-15 0)
(3 4.376960497e-15 0)
(3 2.958360122e-15 0)
(3 2.049665499e-15 0)
(3 5.592931868e-16 0)
(3 -9.422049912e-16 0)
(3 -1.984184582e-15 0)
(3 -1.642650035e-16 0)
(3 1.521086183e-16 0)
(3 1.92172339e-16 0)
(3 5.45485141e-16 0)
(3 1.290899582e-15 0)
(3 -1.465154029e-16 0)
(3 -6.794091731e-16 0)
(3 -2.317583542e-15 0)
(3 -2.754085428e-15 0)
(3 -1.256606606e-15 0)
(3 2.310811527e-15 0)
(3 5.048555566e-15 0)
(3 5.36006196e-15 0)
(3 4.374573199e-15 0)
(3 3.961886984e-15 0)
(3 1.45365554e-15 0)
(3 2.484718777e-16 0)
(3 3.924323862e-17 0)
(3 -4.121948732e-16 0)
(3 -1.483259667e-15 0)
(3 -1.345642027e-15 0)
(3 -1.60772631e-15 0)
(3 -1.416972237e-15 0)
(3 -1.61753292e-15 0)
(3 -1.697589883e-15 0)
(3 -9.055312847e-16 0)
(3 5.391251228e-17 0)
(3 1.785904567e-15 0)
(3 2.21591131e-15 0)
(3 2.518170264e-15 0)
(3 1.562195735e-15 0)
(3 6.288369368e-16 0)
(3 -1.154561993e-15 0)
(3 -3.333197718e-15 0)
(3 -4.03230359e-15 0)
(3 -4.577707854e-15 0)
(3 -4.149879374e-15 0)
(3 -3.877797476e-15 0)
(3 -2.508243327e-15 0)
(3 -2.100310331e-15 0)
(3 -1.852447729e-15 0)
(3 -1.638975778e-15 0)
(3 -2.01997712e-15 0)
(3 -7.578348323e-16 0)
(3 1.059730645e-15 0)
(3 1.748628547e-15 0)
(3 6.220164206e-16 0)
(3 3.281124903e-17 0)
(3 1.480326056e-16 0)
(3 -4.423683328e-16 0)
(3 -9.881804437e-16 0)
(3 -2.81220578e-15 0)
(3 -4.18355888e-15 0)
(3 -5.030353017e-15 0)
(3 -3.312536047e-15 0)
(3 3.616935829e-16 0)
(3 9.054666728e-16 0)
(3 5.106240699e-16 0)
(3 -1.442436142e-15 0)
(3 -5.364967331e-15 0)
(3 -6.231534736e-15 0)
(3 -6.097902517e-15 0)
(3 -5.759108445e-15 0)
(3 -4.333929452e-15 0)
(3 -2.700836435e-15 0)
(3 -2.650115013e-15 0)
(3 -2.651253724e-15 0)
(3 -1.038899983e-15 0)
(3 -3.186854729e-16 0)
(3 -5.399659272e-16 0)
(3 -1.143592262e-15 0)
(3 -7.974536361e-16 0)
(3 3.278549557e-16 0)
(3 6.353017002e-17 0)
(3 -1.770450565e-16 0)
(3 1.883637445e-15 0)
(3 4.315242204e-15 0)
(3 8.069843502e-15 0)
(3 8.061936925e-15 0)
(3 5.088026333e-15 0)
(3 6.553191892e-16 0)
(3 1.030037361e-15 0)
(3 1.998969135e-15 0)
(3 2.160085352e-15 0)
(3 1.715955328e-15 0)
(3 1.215077046e-15 0)
(3 1.263724484e-15 0)
(3 1.059911836e-15 0)
(3 2.039738276e-15 0)
(3 2.0586412e-15 0)
(3 3.442221935e-15 0)
(3 6.47849394e-15 0)
(3 8.280994646e-15 0)
(3 6.223046191e-15 0)
(3 2.368818527e-15 0)
(3 1.827400467e-16 0)
(3 -6.66382156e-16 0)
(3 -5.793581787e-17 0)
(3 3.260420869e-16 0)
(3 7.297301984e-16 0)
(3 -3.152688733e-16 0)
(3 -2.962808925e-16 0)
(3 6.658233939e-16 0)
(3 9.84111993e-16 0)
(3 2.237460154e-15 0)
(3 1.292783429e-15 0)
(3 1.091785303e-15 0)
(3 -3.082595488e-16 0)
(3 -3.864861998e-16 0)
(3 -2.810360261e-16 0)
(3 1.445608374e-15 0)
(3 3.356334551e-15 0)
(3 2.618300289e-15 0)
(3 2.607688575e-15 0)
(3 3.145234163e-15 0)
(3 4.409160148e-15 0)
(3 4.920073262e-15 0)
(3 4.100055621e-15 0)
(3 2.278594922e-15 0)
(3 1.469653812e-15 0)
(3 5.776396045e-16 0)
(3 -2.032731277e-16 0)
(3 -1.528469438e-15 0)
(3 -2.20649069e-15 0)
(3 -2.699825331e-15 0)
(3 -2.736155695e-15 0)
(3 -2.198325698e-15 0)
(3 -1.882139273e-15 0)
(3 -1.166563406e-15 0)
(3 -1.316965019e-15 0)
(3 -2.969610702e-15 0)
(3 -5.056846353e-15 0)
(3 -7.891070343e-15 0)
(3 -9.431147925e-15 0)
(3 -8.908017244e-15 0)
(3 -6.311515434e-15 0)
(3 -5.396562253e-15 0)
(3 -4.150353939e-15 0)
(3 -4.50731886e-15 0)
(3 -3.634532393e-15 0)
(3 -2.691960303e-15 0)
(3 -1.536350941e-15 0)
(3 -6.714774706e-16 0)
(3 -5.53885405e-16 0)
(3 1.552591101e-16 0)
(3 9.48726018e-16 0)
(3 1.987361611e-15 0)
(3 3.141684239e-15 0)
(3 3.707745101e-15 0)
(3 2.685670014e-15 0)
(3 2.026410977e-15 0)
(3 2.495867968e-15 0)
(3 4.742982819e-16 0)
(3 -7.902058691e-16 0)
(3 -8.511062535e-16 0)
(3 1.275843984e-15 0)
(3 1.090392466e-15 0)
(3 4.782872073e-17 0)
(3 -2.075261266e-15 0)
(3 -3.793586683e-15 0)
(3 -3.753052004e-15 0)
(3 -2.855960277e-15 0)
(3 -2.097911135e-15 0)
(3 -1.786840769e-15 0)
(3 -1.299714221e-15 0)
(3 -2.073186033e-15 0)
(3 -3.440681773e-15 0)
(3 -3.393708377e-15 0)
(3 -2.696907796e-15 0)
(3 -5.073470695e-16 0)
(3 1.302919683e-15 0)
(3 1.072686238e-15 0)
(3 6.606228719e-16 0)
(3 7.587222494e-16 0)
(3 2.272144322e-15 0)
(3 5.056356816e-15 0)
(3 6.725802109e-15 0)
(3 6.485030208e-15 0)
(3 4.614668797e-15 0)
(3 2.632314528e-15 0)
(3 8.04268881e-16 0)
(3 5.153588285e-16 0)
(3 1.338100784e-16 0)
(3 2.928549605e-15 0)
(3 3.368610835e-15 0)
(3 4.651143056e-15 0)
(3 3.553211873e-15 0)
(3 2.445232241e-15 0)
(3 2.247914516e-15 0)
(3 1.417210079e-15 0)
(3 2.56243448e-15 0)
(3 4.339971882e-15 0)
(3 4.274125349e-15 0)
(3 2.360042252e-15 0)
(3 3.475961583e-16 0)
(3 3.967647714e-16 0)
(3 -6.658198809e-16 0)
(3 -2.517466936e-16 0)
(3 -5.557498877e-17 0)
(3 1.503426808e-16 0)
(3 2.955013145e-16 0)
(3 2.211843323e-16 0)
(3 8.597056321e-16 0)
(3 1.36537421e-15 0)
(3 9.214822062e-16 0)
(3 2.242812434e-15 0)
(3 2.728958762e-15 0)
(3 4.047981621e-15 0)
(3 4.453777442e-15 0)
(3 2.878482352e-15 0)
(3 2.312912563e-15 0)
(3 1.665536536e-15 0)
(3 -1.00013072e-17 0)
(3 6.232990204e-16 0)
(3 5.124445104e-16 0)
(3 1.321864312e-15 0)
(3 2.143116898e-15 0)
(3 2.190834724e-15 0)
(3 2.067105943e-15 0)
(3 2.525313918e-15 0)
(3 6.212987913e-16 0)
(3 -1.564228516e-17 0)
(3 -2.673512188e-16 0)
(3 6.436127059e-16 0)
(3 7.075610189e-16 0)
(3 4.001146728e-16 0)
(3 6.981355013e-16 0)
(3 -1.169206412e-16 0)
(3 -8.974764863e-16 0)
(3 -2.848096203e-15 0)
(3 -3.703806521e-15 0)
(3 -6.359933973e-15 0)
(3 -7.620775897e-15 0)
(3 -7.522960262e-15 0)
(3 -6.445189779e-15 0)
(3 -2.833333071e-15 0)
(3 -1.825711552e-15 0)
(3 -1.81230724e-15 0)
(3 -1.023443095e-15 0)
(3 -4.999756801e-17 0)
(3 9.207802804e-16 0)
(3 8.73158738e-16 0)
(3 -6.459614073e-17 0)
(3 -1.541356684e-15 0)
(3 -1.319348535e-15 0)
(3 5.183850231e-17 0)
(3 2.234310648e-15 0)
(3 2.232794627e-15 0)
(3 2.365256611e-15 0)
(3 2.63125057e-15 0)
(3 3.243433247e-15 0)
(3 4.228197404e-15 0)
(3 4.503972255e-15 0)
(3 2.168227664e-15 0)
(3 -1.637490844e-15 0)
(3 -2.360665311e-15 0)
(3 -2.758405621e-15 0)
(3 -2.761664257e-15 0)
(3 -2.552638515e-15 0)
(3 -1.835383243e-15 0)
(3 -1.346990693e-15 0)
(3 3.636458229e-17 0)
(3 2.707270439e-16 0)
(3 8.265733827e-17 0)
(3 -3.61244868e-16 0)
(3 -5.125690346e-16 0)
(3 -1.339332605e-15 0)
(3 -2.494075991e-15 0)
(3 -3.305639057e-15 0)
(3 -4.077299555e-15 0)
(3 -4.476291109e-15 0)
(3 -3.6416809e-15 0)
(3 -2.025187002e-15 0)
(3 1.789149753e-15 0)
(3 4.040257283e-15 0)
(3 4.68970619e-15 0)
(3 7.267942871e-15 0)
(3 5.042991251e-15 0)
(3 3.717063806e-15 0)
(3 4.090379871e-15 0)
(3 5.170225847e-15 0)
(3 4.736913715e-15 0)
(3 4.386278339e-15 0)
(3 7.107373259e-15 0)
(3 7.794171584e-15 0)
(3 8.154699848e-15 0)
(3 6.950269251e-15 0)
(3 5.63031935e-15 0)
(3 2.810655242e-15 0)
(3 2.799760071e-15 0)
(3 1.648573161e-15 0)
(3 2.556318538e-16 0)
(3 -1.350312293e-15 0)
(3 -9.383735811e-16 0)
(3 -9.511290941e-16 0)
(3 -1.111557345e-15 0)
(3 -6.564215159e-16 0)
(3 -3.936571824e-16 0)
(3 -1.468762622e-15 0)
(3 -2.121480283e-15 0)
(3 -3.038789532e-16 0)
(3 7.462059267e-16 0)
(3 1.296370434e-15 0)
(3 1.189140035e-15 0)
(3 2.995523889e-16 0)
(3 1.129440258e-15 0)
(3 1.625026272e-15 0)
(3 3.047932667e-15 0)
(3 4.766392656e-15 0)
(3 4.720410125e-15 0)
(3 2.854804421e-15 0)
(3 1.367462103e-15 0)
(3 7.580247199e-16 0)
(3 5.808827615e-16 0)
(3 -9.950798988e-16 0)
(3 -2.108505461e-15 0)
(3 -1.845097239e-15 0)
(3 -1.787392083e-15 0)
(3 -9.817075933e-16 0)
(3 7.92158319e-17 0)
(3 1.448314501e-15 0)
(3 1.303676005e-15 0)
(3 7.711395169e-16 0)
(3 1.039572028e-15 0)
(3 7.038849469e-16 0)
(3 6.873243119e-16 0)
(3 1.098203014e-15 0)
(3 4.26057084e-16 0)
(3 -5.138036993e-16 0)
(3 -1.482666843e-15 0)
(3 -2.390090769e-15 0)
(3 -3.128262211e-15 0)
(3 -2.735434609e-15 0)
(3 -4.232539035e-15 0)
(3 -4.644469405e-15 0)
(3 -4.680292035e-15 0)
(3 -4.1772961e-15 0)
(3 -3.879144497e-15 0)
(3 -3.779835679e-15 0)
(3 -3.760398912e-15 0)
(3 -4.028518815e-15 0)
(3 -5.491833882e-15 0)
(3 -5.392139432e-15 0)
(3 -4.805775554e-15 0)
(3 -3.139404928e-15 0)
(3 -2.795867108e-16 0)
(3 1.174578246e-16 0)
(3 5.223260847e-16 0)
(3 5.710880915e-16 0)
(3 1.150100045e-15 0)
(3 1.2152927e-15 0)
(3 8.227823393e-16 0)
(3 4.86171767e-16 0)
(3 7.606431689e-16 0)
(3 -7.646440173e-16 0)
(3 -2.60156836e-15 0)
(3 -5.809860936e-15 0)
(3 -5.035234577e-15 0)
(3 -5.52999656e-15 0)
(3 -3.811927917e-15 0)
(3 -3.873635784e-15 0)
(3 -4.174601432e-15 0)
(3 -3.423073283e-15 0)
(3 -2.422686756e-15 0)
(3 -3.038937435e-15 0)
(3 -2.206186963e-15 0)
(3 -9.56298804e-16 0)
(3 -1.212372334e-15 0)
(3 -1.671738402e-15 0)
(3 -3.703997289e-15 0)
(3 -3.922653628e-15 0)
(3 -3.196508856e-15 0)
(3 -9.148136837e-16 0)
(3 1.578669608e-15 0)
(3 4.907507183e-15 0)
(3 3.171662323e-15 0)
(3 4.514787337e-15 0)
(3 5.265583932e-15 0)
(3 5.489072141e-15 0)
(3 6.23714658e-15 0)
(3 7.76795083e-15 0)
(3 9.328914185e-15 0)
(3 1.116955236e-14 0)
(3 1.085453898e-14 0)
(3 1.060675335e-14 0)
(3 9.005147033e-15 0)
(3 8.924039599e-15 0)
(3 7.278233197e-15 0)
(3 5.158831643e-15 0)
(3 3.404573317e-15 0)
(3 4.87625815e-16 0)
(3 -4.195973541e-15 0)
(3 -6.303781793e-15 0)
(3 -4.28449322e-15 0)
(3 -4.827639954e-15 0)
(3 -4.869439348e-15 0)
(3 -4.230093985e-15 0)
(3 -3.195985161e-15 0)
(3 -3.229681914e-15 0)
(3 -3.120090612e-15 0)
(3 1.927066155e-16 0)
(3 8.604287237e-16 0)
(3 7.20340539e-16 0)
(3 -2.929094269e-16 0)
(3 -3.849248009e-16 0)
(3 -1.262914547e-15 0)
(3 -4.354391386e-16 0)
(3 -5.746937699e-16 0)
(3 -8.146725945e-16 0)
(3 -1.431464547e-15 0)
(3 -1.977382423e-15 0)
(3 -2.408126114e-15 0)
(3 -2.021056693e-15 0)
(3 -2.386654757e-15 0)
(3 -2.126379353e-15 0)
(3 -2.605763353e-15 0)
(3 -2.217607683e-15 0)
(3 -2.959283321e-15 0)
(3 -2.476899527e-15 0)
(3 -1.720126696e-15 0)
(3 -1.141718814e-15 0)
(3 -1.377709742e-15 0)
(3 -1.470871778e-15 0)
(3 -2.709595487e-15 0)
(3 -2.794941717e-15 0)
(3 -2.574984283e-15 0)
(3 -2.390707964e-15 0)
(3 -2.408896194e-15 0)
(3 -1.716224313e-15 0)
(3 5.535276784e-16 0)
(3 -5.714403093e-16 0)
(3 1.4502635e-16 0)
(3 1.45970623e-15 0)
(3 1.12731131e-15 0)
(3 -8.799552642e-16 0)
(3 -2.830017238e-15 0)
(3 -2.677621672e-15 0)
(3 -1.997768989e-15 0)
(3 -2.336217006e-15 0)
(3 -2.84442585e-15 0)
(3 -1.636932858e-15 0)
(3 -2.130551526e-15 0)
(3 -1.492336571e-15 0)
(3 -1.548229138e-15 0)
(3 -1.764817228e-15 0)
(3 -1.324648339e-15 0)
(3 -2.119594509e-15 0)
(3 -2.740815608e-15 0)
(3 -2.578293873e-15 0)
(3 -9.235161e-16 0)
(3 -9.031293587e-16 0)
(3 -5.947359768e-16 0)
(3 4.451136584e-16 0)
(3 1.801164104e-15 0)
(3 8.626412432e-16 0)
(3 -6.128107338e-16 0)
(3 -3.284404297e-15 0)
(3 -4.628144192e-15 0)
(3 -6.098015491e-15 0)
(3 -7.123629561e-15 0)
(3 -6.986253499e-15 0)
(3 -7.133636292e-15 0)
(3 -6.995664615e-15 0)
(3 -4.243709751e-15 0)
(3 -4.05739604e-15 0)
(3 -1.164877131e-15 0)
(3 1.24587932e-15 0)
(3 1.543525128e-15 0)
(3 -5.180817608e-16 0)
(3 -1.165355326e-15 0)
(3 -1.511889931e-15 0)
(3 -1.292308266e-15 0)
(3 -1.851759509e-15 0)
(3 -1.442016869e-15 0)
(3 -2.638818687e-16 0)
(3 -4.895131068e-16 0)
(3 -3.228113107e-16 0)
(3 1.606059164e-15 0)
(3 2.358108442e-15 0)
(3 3.238404499e-15 0)
(3 8.023166218e-15 0)
(3 1.302006173e-14 0)
(3 1.415868168e-14 0)
(3 1.021916081e-14 0)
(3 8.567463917e-15 0)
(3 8.415136841e-15 0)
(3 6.819253809e-15 0)
(3 6.571505422e-15 0)
(3 6.153441916e-15 0)
(3 3.976865249e-15 0)
(3 1.464152803e-15 0)
(3 -4.089643524e-15 0)
(3 -7.517405378e-15 0)
(3 -8.891561483e-15 0)
(3 -7.872187612e-15 0)
(3 -6.234301713e-15 0)
(3 -5.633663098e-15 0)
(3 -4.082658247e-15 0)
(3 -2.219584833e-15 0)
(3 -2.002760664e-15 0)
(3 1.891516926e-16 0)
(3 -1.293260009e-15 0)
(3 -2.07124689e-15 0)
(3 -3.495027286e-15 0)
(3 -3.733572877e-15 0)
(3 -5.395224018e-15 0)
(3 -5.013234816e-15 0)
(3 -5.525234636e-15 0)
(3 -6.015049726e-15 0)
(3 -6.046003798e-15 0)
(3 -6.381395646e-15 0)
(3 -6.134953069e-15 0)
(3 -6.079530314e-15 0)
(3 -5.403089398e-15 0)
(3 -3.736555334e-15 0)
(3 -3.577019748e-15 0)
(3 -4.116319e-15 0)
(3 -4.348203236e-15 0)
(3 -3.097024869e-15 0)
(3 -3.706677122e-15 0)
(3 -4.202876529e-15 0)
(3 -4.007871052e-15 0)
(3 -4.511786225e-15 0)
(3 -4.829293003e-15 0)
(3 -5.655925566e-15 0)
(3 -4.222016609e-15 0)
(3 -3.280434976e-15 0)
(3 -2.66711304e-15 0)
(3 -1.6041933e-15 0)
(3 6.580968902e-16 0)
(3 2.628457248e-15 0)
(3 2.690179664e-15 0)
(3 2.952008172e-15 0)
(3 4.868950124e-15 0)
(3 4.933664479e-15 0)
(3 2.610123888e-15 0)
(3 1.774623135e-15 0)
(3 1.634988097e-15 0)
(3 1.539831142e-15 0)
(3 1.043379426e-15 0)
(3 -3.091332487e-16 0)
(3 1.407089715e-15 0)
(3 1.855087508e-15 0)
(3 1.868286278e-15 0)
(3 5.200524802e-16 0)
(3 -1.981291813e-15 0)
(3 -2.29538548e-15 0)
(3 -2.48388007e-15 0)
(3 -3.051353016e-15 0)
(3 -2.117054271e-15 0)
(3 -1.316129554e-15 0)
(3 1.054565747e-15 0)
(3 2.907514783e-15 0)
(3 2.827523424e-15 0)
(3 2.456820983e-15 0)
(3 7.968931676e-16 0)
(3 -6.662070265e-16 0)
(3 -3.787454231e-15 0)
(3 -4.855574585e-15 0)
(3 -4.969022365e-15 0)
(3 -3.772562291e-15 0)
(3 -2.989038187e-15 0)
(3 -4.632920727e-16 0)
(3 3.562566212e-16 0)
(3 2.305463173e-15 0)
(3 4.081523145e-15 0)
(3 5.501787308e-15 0)
(3 5.887213323e-15 0)
(3 2.376478182e-15 0)
(3 7.0414793e-16 0)
(3 -2.801711191e-16 0)
(3 -1.313143706e-15 0)
(3 -1.997276668e-15 0)
(3 -4.139334174e-15 0)
(3 -4.163442569e-15 0)
(3 -3.166900424e-15 0)
(3 -3.716311104e-15 0)
(3 -1.828101659e-15 0)
(3 5.433093347e-16 0)
(3 4.073931541e-15 0)
(3 8.126657115e-15 0)
(3 1.176525257e-14 0)
(3 1.242489312e-14 0)
(3 1.128863922e-14 0)
(3 9.969371305e-15 0)
(3 9.630255882e-15 0)
(3 7.441851078e-15 0)
(3 3.37319254e-15 0)
(3 2.397280557e-15 0)
(3 1.417680891e-15 0)
(3 -1.842574622e-15 0)
(3 -3.666287952e-15 0)
(3 -5.673872756e-15 0)
(3 -6.668878372e-15 0)
(3 -6.069705305e-15 0)
(3 -5.028975854e-15 0)
(3 -2.902505267e-15 0)
(3 -4.698966144e-16 0)
(3 2.873537405e-15 0)
(3 2.467176116e-15 0)
(3 -4.300168267e-16 0)
(3 -1.016531288e-15 0)
(3 -1.878598977e-15 0)
(3 -2.358997783e-15 0)
(3 -4.171450243e-15 0)
(3 -4.396388415e-15 0)
(3 -5.48524703e-15 0)
(3 -5.228736097e-15 0)
(3 -5.216963728e-15 0)
(3 -4.706920648e-15 0)
(3 -4.948628174e-15 0)
(3 -4.479747338e-15 0)
(3 -4.577843836e-15 0)
(3 -5.128129388e-15 0)
(3 -5.619906606e-15 0)
(3 -5.713971813e-15 0)
(3 -6.31266354e-15 0)
(3 -5.00790453e-15 0)
(3 -2.39116322e-15 0)
(3 -1.253552613e-15 0)
(3 1.313655666e-18 0)
(3 1.072620303e-16 0)
(3 -6.933063345e-16 0)
(3 -3.068478637e-16 0)
(3 -3.820442328e-16 0)
(3 -5.094352847e-16 0)
(3 -3.726288322e-16 0)
(3 -6.415258308e-16 0)
(3 -8.959207401e-16 0)
(3 -2.166796659e-15 0)
(3 -7.388238984e-16 0)
(3 -5.545457651e-16 0)
(3 -8.183091427e-16 0)
(3 1.080213326e-16 0)
(3 1.061267128e-15 0)
(3 1.229538688e-15 0)
(3 8.20815555e-16 0)
(3 1.957832623e-15 0)
(3 2.085514176e-15 0)
(3 2.502060208e-16 0)
(3 -1.847986496e-15 0)
(3 -2.36581821e-15 0)
(3 -2.948475439e-15 0)
(3 -2.784856297e-15 0)
(3 -3.256561892e-15 0)
(3 -3.901470079e-15 0)
(3 -3.181687378e-15 0)
(3 -1.609325942e-15 0)
(3 -1.528981891e-15 0)
(3 -1.556167107e-15 0)
(3 4.634018236e-16 0)
(3 1.756091013e-15 0)
(3 2.29002135e-15 0)
(3 1.455121333e-15 0)
(3 8.147507638e-16 0)
(3 -7.354835714e-16 0)
(3 -2.124860362e-15 0)
(3 -3.00664824e-15 0)
(3 -3.28236529e-15 0)
(3 -1.420769584e-15 0)
(3 -1.083380278e-15 0)
(3 5.594138225e-16 0)
(3 3.153726598e-15 0)
(3 1.89304015e-15 0)
(3 2.445933591e-15 0)
(3 2.339330922e-15 0)
(3 2.752429034e-15 0)
(3 3.179517821e-15 0)
(3 2.43414086e-15 0)
(3 2.481086452e-15 0)
(3 1.541809506e-15 0)
(3 -1.130138777e-15 0)
(3 -4.648385437e-15 0)
(3 -5.609005551e-15 0)
(3 -3.107482885e-15 0)
(3 2.174521371e-17 0)
(3 1.321576302e-15 0)
(3 3.054210473e-15 0)
(3 5.24911206e-15 0)
(3 7.951939454e-15 0)
(3 9.457611182e-15 0)
(3 1.170555201e-14 0)
(3 1.288465402e-14 0)
(3 1.245136286e-14 0)
(3 1.030310973e-14 0)
(3 8.320895758e-15 0)
(3 5.165759042e-15 0)
(3 2.17334065e-15 0)
(3 -1.270822096e-16 0)
(3 6.841259453e-16 0)
(3 -1.664017736e-15 0)
(3 -4.053196291e-15 0)
(3 -6.440716539e-15 0)
(3 -6.400310085e-15 0)
(3 -5.633637465e-15 0)
(3 -4.062591689e-15 0)
(3 -2.172146825e-15 0)
(3 -2.209319616e-16 0)
(3 1.002665941e-15 0)
(3 1.282557838e-15 0)
(3 2.482521266e-17 0)
(3 1.603916679e-16 0)
(3 -8.048417622e-16 0)
(3 -7.795181046e-16 0)
(3 -1.534037159e-15 0)
(3 -1.851867289e-15 0)
(3 -5.842441142e-16 0)
(3 -1.680071655e-18 0)
(3 -5.090121774e-17 0)
(3 -1.668569141e-15 0)
(3 -1.689011302e-15 0)
(3 -1.648814781e-15 0)
(3 -1.655553861e-15 0)
(3 -2.299705255e-15 0)
(3 -2.702903148e-15 0)
(3 -3.451526343e-15 0)
(3 -3.164237583e-15 0)
(3 -1.087132801e-15 0)
(3 -4.833973548e-16 0)
(3 5.614626531e-16 0)
(3 3.186879192e-15 0)
(3 3.171423602e-15 0)
(3 2.753267861e-15 0)
(3 2.679715846e-15 0)
(3 2.915903233e-15 0)
(3 2.464359857e-15 0)
(3 1.72902017e-15 0)
(3 1.518228976e-15 0)
(3 -1.169034828e-15 0)
(3 -3.619990918e-15 0)
(3 -3.525753127e-15 0)
(3 -4.002838976e-15 0)
(3 -5.681383957e-15 0)
(3 -5.803917951e-15 0)
(3 -4.941888406e-15 0)
(3 -2.745586535e-15 0)
(3 -1.742930365e-16 0)
(3 8.528221462e-16 0)
(3 5.600207498e-16 0)
(3 -1.412208769e-15 0)
(3 -1.605052712e-15 0)
(3 -2.905976557e-15 0)
(3 -4.704630385e-15 0)
(3 -4.800539607e-15 0)
(3 -3.464007642e-15 0)
(3 -3.087168253e-15 0)
(3 -3.759159991e-15 0)
(3 -2.629333677e-15 0)
(3 3.166427319e-16 0)
(3 1.686782242e-15 0)
(3 2.263690919e-15 0)
(3 2.783763756e-15 0)
(3 2.021463724e-15 0)
(3 -2.383542117e-16 0)
(3 -1.97618545e-15 0)
(3 -2.171449904e-15 0)
(3 -1.138322342e-15 0)
(3 -9.344168307e-16 0)
(3 2.656351343e-16 0)
(3 1.218341981e-15 0)
(3 7.159304365e-16 0)
(3 8.623160511e-16 0)
(3 8.577062062e-16 0)
(3 1.085919526e-15 0)
(3 2.118194191e-15 0)
(3 2.391348955e-15 0)
(3 -8.006123246e-16 0)
(3 -2.206757307e-15 0)
(3 -1.442179741e-15 0)
(3 -9.617043137e-16 0)
(3 -1.915524388e-15 0)
(3 -4.940129107e-15 0)
(3 -5.328901436e-15 0)
(3 -4.261699397e-15 0)
(3 -2.483496439e-15 0)
(3 4.491649878e-16 0)
(3 4.091591457e-15 0)
(3 4.20133922e-15 0)
(3 6.910647841e-15 0)
(3 7.314295132e-15 0)
(3 8.063982201e-15 0)
(3 9.715445338e-15 0)
(3 1.120635188e-14 0)
(3 1.141806605e-14 0)
(3 8.152759473e-15 0)
(3 3.600324761e-15 0)
(3 2.944817974e-15 0)
(3 2.655506113e-15 0)
(3 1.10174894e-15 0)
(3 7.444502505e-16 0)
(3 1.002539487e-15 0)
(3 -1.719409303e-15 0)
(3 -4.677030269e-15 0)
(3 -4.820096154e-15 0)
(3 -2.889842213e-15 0)
(3 -1.682830434e-15 0)
(3 1.992300706e-15 0)
(3 2.881571832e-15 0)
(3 3.277419193e-15 0)
(3 3.990766771e-15 0)
(3 5.625061561e-16 0)
(3 9.913487563e-16 0)
(3 1.489147361e-15 0)
(3 1.971789105e-15 0)
(3 2.507471167e-15 0)
(3 2.405177067e-15 0)
(3 1.228680177e-15 0)
(3 2.522393121e-16 0)
(3 5.335640555e-16 0)
(3 -2.497852345e-16 0)
(3 1.794680435e-17 0)
(3 -4.756223899e-16 0)
(3 -9.193269573e-16 0)
(3 -6.517831511e-16 0)
(3 8.805517062e-16 0)
(3 6.174693496e-16 0)
(3 8.97474058e-16 0)
(3 2.234996139e-15 0)
(3 2.650879214e-15 0)
(3 3.378687814e-15 0)
(3 2.80368325e-15 0)
(3 2.923962392e-15 0)
(3 3.970716475e-15 0)
(3 3.911694424e-15 0)
(3 3.498150021e-15 0)
(3 3.188833715e-15 0)
(3 1.337287186e-15 0)
(3 -2.313649514e-16 0)
(3 -1.854396263e-15 0)
(3 -3.819807389e-15 0)
(3 -4.036630125e-15 0)
(3 -3.718869145e-15 0)
(3 -5.055412262e-15 0)
(3 -4.820783022e-15 0)
(3 -3.167702345e-15 0)
(3 -2.928223399e-15 0)
(3 -1.496574526e-16 0)
(3 -5.450171816e-16 0)
(3 -1.96674809e-15 0)
(3 -2.987469e-15 0)
(3 -3.539549207e-15 0)
(3 -4.062840612e-15 0)
(3 -3.772719201e-15 0)
(3 -3.70918409e-15 0)
(3 -3.130400024e-15 0)
(3 -2.82826624e-15 0)
(3 -2.241024035e-15 0)
(3 -7.585066656e-16 0)
(3 1.700872824e-15 0)
(3 2.437748026e-15 0)
(3 3.014253519e-15 0)
(3 2.167312402e-15 0)
(3 1.687080682e-15 0)
(3 9.940576908e-16 0)
(3 3.382853049e-16 0)
(3 3.8734146e-16 0)
(3 6.115990671e-16 0)
(3 5.222949593e-16 0)
(3 1.261621451e-15 0)
(3 1.602210856e-15 0)
(3 2.267177397e-15 0)
(3 7.689026601e-16 0)
(3 -2.782950111e-16 0)
(3 1.591991583e-15 0)
(3 2.377230761e-15 0)
(3 7.445985326e-16 0)
(3 -1.177021945e-15 0)
(3 -4.084632855e-15 0)
(3 -3.179682579e-15 0)
(3 -3.914226526e-15 0)
(3 -4.674866615e-15 0)
(3 -4.893226382e-15 0)
(3 -3.887614369e-15 0)
(3 -2.083919113e-15 0)
(3 -1.450420709e-15 0)
(3 -9.580687961e-16 0)
(3 9.673291175e-16 0)
(3 3.836438386e-15 0)
(3 5.633816675e-15 0)
(3 5.437395898e-15 0)
(3 6.050115111e-15 0)
(3 6.524821646e-15 0)
(3 7.073945619e-15 0)
(3 8.985203061e-15 0)
(3 7.46648464e-15 0)
(3 1.913736994e-15 0)
(3 4.818611328e-16 0)
(3 -9.08200863e-16 0)
(3 -2.022125336e-15 0)
(3 -2.70722737e-15 0)
(3 -2.814607997e-15 0)
(3 -2.298826278e-15 0)
(3 -1.708210499e-15 0)
(3 -1.148978707e-15 0)
(3 4.980805504e-16 0)
(3 3.651781692e-15 0)
(3 7.756744199e-15 0)
(3 8.301215273e-15 0)
(3 8.092345187e-15 0)
(3 5.970876718e-15 0)
(3 4.442011472e-16 0)
(3 8.528014757e-16 0)
(3 1.662179337e-15 0)
(3 1.576377253e-15 0)
(3 2.381707433e-15 0)
(3 2.68125398e-15 0)
(3 6.497403002e-16 0)
(3 -1.159488836e-15 0)
(3 -5.657070534e-16 0)
(3 1.514967658e-15 0)
(3 1.153310523e-15 0)
(3 1.150060642e-15 0)
(3 9.285434416e-16 0)
(3 4.919160814e-16 0)
(3 8.729510471e-16 0)
(3 1.677456024e-15 0)
(3 2.787649862e-15 0)
(3 3.193462876e-15 0)
(3 4.38978824e-15 0)
(3 5.430978069e-15 0)
(3 4.996901328e-15 0)
(3 5.851746126e-15 0)
(3 7.22533758e-15 0)
(3 7.352551567e-15 0)
(3 5.5230024e-15 0)
(3 4.431936467e-15 0)
(3 3.400832758e-15 0)
(3 1.977598288e-15 0)
(3 1.987708447e-15 0)
(3 1.193332956e-15 0)
(3 1.075432027e-15 0)
(3 7.03964258e-16 0)
(3 2.324553954e-16 0)
(3 -9.666824385e-16 0)
(3 -1.007949039e-15 0)
(3 -2.113642037e-15 0)
(3 -1.894422923e-15 0)
(3 -2.310907342e-15 0)
(3 -2.825476025e-15 0)
(3 -2.857591467e-15 0)
(3 -3.459135735e-15 0)
(3 -2.511282185e-15 0)
(3 -1.484156489e-15 0)
(3 -1.699865085e-15 0)
(3 -1.7089564e-15 0)
(3 -1.104838969e-15 0)
(3 -7.00721854e-16 0)
(3 8.873353684e-16 0)
(3 1.446346474e-15 0)
(3 1.463360974e-15 0)
(3 3.562459703e-15 0)
(3 9.897850899e-16 0)
(3 8.667716631e-16 0)
(3 2.576723243e-15 0)
(3 2.50593935e-15 0)
(3 1.451738378e-15 0)
(3 -1.543593293e-17 0)
(3 5.652483703e-16 0)
(3 9.469610299e-16 0)
(3 -4.854016818e-16 0)
(3 -2.208240448e-15 0)
(3 -4.746369907e-15 0)
(3 -4.467289159e-15 0)
(3 -5.098725718e-15 0)
(3 -3.518298564e-15 0)
(3 -2.627123622e-15 0)
(3 -1.571343109e-15 0)
(3 -2.494025454e-15 0)
(3 -3.202245714e-15 0)
(3 -3.846636864e-15 0)
(3 -3.844167138e-15 0)
(3 -2.571042463e-15 0)
(3 -2.047409012e-15 0)
(3 -1.172574822e-15 0)
(3 -9.809249144e-16 0)
(3 -1.029530456e-15 0)
(3 -7.967360241e-16 0)
(3 2.974147739e-15 0)
(3 7.365203115e-15 0)
(3 9.462066205e-15 0)
(3 1.007172584e-14 0)
(3 1.000539744e-14 0)
(3 6.240149652e-15 0)
(3 3.468740068e-15 0)
(3 3.493219185e-15 0)
(3 2.332852995e-15 0)
(3 1.275370644e-15 0)
(3 -1.302484634e-16 0)
(3 -1.851753308e-15 0)
(3 -5.398163987e-15 0)
(3 -5.46224592e-15 0)
(3 -4.138315606e-15 0)
(3 -1.490282501e-15 0)
(3 -6.423311793e-16 0)
(3 2.503426655e-15 0)
(3 5.257998431e-15 0)
(3 5.658905728e-15 0)
(3 6.961324364e-15 0)
(3 5.908893213e-15 0)
(3 5.867421644e-15 0)
(3 -2.84500312e-17 0)
(3 1.520617684e-16 0)
(3 7.02810397e-16 0)
(3 3.527206992e-16 0)
(3 4.378622712e-16 0)
(3 7.531131727e-16 0)
(3 5.460453737e-16 0)
(3 2.305923727e-16 0)
(3 -3.456471037e-16 0)
(3 1.428000683e-16 0)
(3 1.733439031e-15 0)
(3 2.874237064e-15 0)
(3 3.329674504e-15 0)
(3 2.529107088e-15 0)
(3 1.672848275e-15 0)
(3 2.621477248e-15 0)
(3 4.245713813e-15 0)
(3 5.069192194e-15 0)
(3 5.219493191e-15 0)
(3 6.340046072e-15 0)
(3 6.889039646e-15 0)
(3 8.746653587e-15 0)
(3 9.05367838e-15 0)
(3 5.888018135e-15 0)
(3 4.676563772e-15 0)
(3 4.284171861e-15 0)
(3 5.163843189e-15 0)
(3 6.009181867e-15 0)
(3 5.878855056e-15 0)
(3 5.946999765e-15 0)
(3 5.280266322e-15 0)
(3 3.167153277e-15 0)
(3 4.443297393e-15 0)
(3 3.432723774e-15 0)
(3 1.775826385e-15 0)
(3 -1.166466434e-16 0)
(3 -2.648901746e-15 0)
(3 -3.15948811e-15 0)
(3 -1.179355554e-15 0)
(3 9.412032085e-16 0)
(3 -6.440906778e-17 0)
(3 -2.092245127e-16 0)
(3 -1.595712225e-15 0)
(3 1.880744463e-16 0)
(3 2.486746215e-15 0)
(3 2.921728275e-15 0)
(3 1.713106178e-15 0)
(3 1.818944699e-15 0)
(3 9.998998118e-16 0)
(3 2.020020256e-15 0)
(3 3.767272763e-15 0)
(3 3.547017599e-15 0)
(3 2.73315849e-15 0)
(3 2.842649114e-15 0)
(3 3.185413572e-15 0)
(3 3.334723046e-15 0)
(3 4.253865661e-15 0)
(3 4.561619261e-15 0)
(3 3.694110597e-15 0)
(3 3.939106939e-16 0)
(3 -3.185245442e-15 0)
(3 -7.230781224e-15 0)
(3 -8.781734927e-15 0)
(3 -9.134629767e-15 0)
(3 -8.565336446e-15 0)
(3 -6.716230337e-15 0)
(3 -5.544989159e-15 0)
(3 -4.557718169e-15 0)
(3 -5.288552101e-15 0)
(3 -4.622072477e-15 0)
(3 -2.581803099e-15 0)
(3 6.092889776e-16 0)
(3 1.989056805e-15 0)
(3 1.378195418e-15 0)
(3 2.457977539e-16 0)
(3 -1.261790977e-16 0)
(3 6.13583839e-16 0)
(3 2.787133177e-15 0)
(3 4.870660828e-15 0)
(3 9.406204898e-15 0)
(3 1.097542057e-14 0)
(3 8.720488927e-15 0)
(3 2.893712589e-15 0)
(3 9.902324854e-16 0)
(3 1.259027768e-15 0)
(3 -2.45566871e-16 0)
(3 -1.543664289e-15 0)
(3 -2.820472931e-15 0)
(3 -4.902956561e-15 0)
(3 -5.382719051e-15 0)
(3 -3.464065534e-15 0)
(3 -6.068265027e-16 0)
(3 2.103312424e-15 0)
(3 3.457219795e-15 0)
(3 2.83500801e-15 0)
(3 2.024581959e-15 0)
(3 9.796312493e-16 0)
(3 1.296098154e-15 0)
(3 2.022128023e-15 0)
(3 4.143784344e-15 0)
(3 -1.743133863e-16 0)
(3 2.502323405e-16 0)
(3 4.792847559e-16 0)
(3 3.992482275e-16 0)
(3 -3.564962715e-16 0)
(3 -1.032720585e-15 0)
(3 9.512602495e-17 0)
(3 -6.860857743e-17 0)