/*--------------------------------*- C++ -*----------------------------------*\
  =========                 |
  \\      /  F ield         | OpenFOAM: The Open Source CFD Toolbox
   \\    /   O peration     | Website:  https://openfoam.org
    \\  /    A nd           | Version:  7
     \\/     M anipulation  |
\*---------------------------------------------------------------------------*/
FoamFile
{
    version     2.0;
    format      ascii;
    class       volScalarField;
    location    "3.2";
    object      T;
}
// * * * * * * * * * * * * * * * * * * * * * * * * * * * * * * * * * * * * * //

dimensions      [0 0 0 1 0 0 0];

internalField   nonuniform List<scalar> 
2222
(
1.239434993
1.238924851
1.238204905
1.237291726
1.236316055
1.235355923
1.234744016
1.23398245
1.232849323
1.233383513
1.247474989
1.354731225
1.469118747
1.45957509
1.4535671
1.454812803
1.448174368
1.25131477
1.250489674
1.249986409
1.249759658
1.249973543
1.249999601
1.24971588
1.249137982
1.248419927
1.2477329
1.2471775
1.24684698
1.246644146
1.246422436
1.24614572
1.245780977
1.245299165
1.244624164
1.243914594
1.243176157
1.242534652
1.24203012
1.241604936
1.241165353
1.2406635
1.239980253
1.23923301
1.238416745
1.237839132
1.237216621
1.23648293
1.237092681
1.24828269
1.358375245
1.485034584
1.465658981
1.452544637
1.453700927
1.448293726
1.249892571
1.249491056
1.249413668
1.249683771
1.249863123
1.249858346
1.249627156
1.249166598
1.248539708
1.247935113
1.247441523
1.247103014
1.246871469
1.246606067
1.246279968
1.245801513
1.245108364
1.24437399
1.24365326
1.243234341
1.242894313
1.242459268
1.24197212
1.241419047
1.240737937
1.240087343
1.2395524
1.238979454
1.238464845
1.237947719
1.238333767
1.246972062
1.355720928
1.498959793
1.469716398
1.453492654
1.455140688
1.450078797
1.24578887
1.245453681
1.245499708
1.245853617
1.246234177
1.246550812
1.24677388
1.24692487
1.24699245
1.246997173
1.246937193
1.246833575
1.246650309
1.246412644
1.24609698
1.24560011
1.244896131
1.244172415
1.243656421
1.243417518
1.24316787
1.242727626
1.242162764
1.24153608
1.24085334
1.240205152
1.239978475
1.239535575
1.239094879
1.238528162
1.238665865
1.246655788
1.344399337
1.508030957
1.475974374
1.460404849
1.459505739
1.452121069
1.237669774
1.237623045
1.237879808
1.238641783
1.239425963
1.240153321
1.240730126
1.241263586
1.241732562
1.242148971
1.242564346
1.242972683
1.243326176
1.243509436
1.243488585
1.243231006
1.24283046
1.24244684
1.242256763
1.242207952
1.242183901
1.242037534
1.241630395
1.241059797
1.240504199
1.239934537
1.239587348
1.239459371
1.239246811
1.238521515
1.238097005
1.244438123
1.325855575
1.506017058
1.488509494
1.470583515
1.464358295
1.453656235
1.225848827
1.226570044
1.227570282
1.229043082
1.230680983
1.232102904
1.232988629
1.23346115
1.233648281
1.233860606
1.234229816
1.234725213
1.235367038
1.235983615
1.236412956
1.236564235
1.236616453
1.236749114
1.237060164
1.237465172
1.237745412
1.237907688
1.237887701
1.23780495
1.237799716
1.237798362
1.237703032
1.237875743
1.237926988
1.237437696
1.236903101
1.240844413
1.309394096
1.508605643
1.50232945
1.482532819
1.468791816
1.454728878
1.206189559
1.20742742
1.20911338
1.211360195
1.213994163
1.21653956
1.218609539
1.220026237
1.220853456
1.221433739
1.22196522
1.222586934
1.223405988
1.224332586
1.225164918
1.225812514
1.226408128
1.227213283
1.228275048
1.229273442
1.229960317
1.230292919
1.230422345
1.230574764
1.230846585
1.231289935
1.231792081
1.232208853
1.232530973
1.23266058
1.23283329
1.235728603
1.289984042
1.510069552
1.517999776
1.493321957
1.471590857
1.454506929
1.181782432
1.183326771
1.185472917
1.18830179
1.191545901
1.194696276
1.197289449
1.199154172
1.200478946
1.201672089
1.202818023
1.203948235
1.205239984
1.206674416
1.208106187
1.209391032
1.210722634
1.212401866
1.214325907
1.216068974
1.217484647
1.218443433
1.219055642
1.219505353
1.219905425
1.22044179
1.221253404
1.222073498
1.222802657
1.223310511
1.224024359
1.227007297
1.274302906
1.50471648
1.530545312
1.503080723
1.472359555
1.45336767
1.155224928
1.156879961
1.159226397
1.162341523
1.165914402
1.169363042
1.172100681
1.174104713
1.175601306
1.177090769
1.178605329
1.180245381
1.182075855
1.183999718
1.185906597
1.187852741
1.189997875
1.192398672
1.194755514
1.196919337
1.198834784
1.200388821
1.20170631
1.202863923
1.203885853
1.204891371
1.205886158
1.207024183
1.208332488
1.209532065
1.210852814
1.213810498
1.251348799
1.489252268
1.540325463
1.509352657
1.476032135
1.454560638
1.12973781
1.13129533
1.133593777
1.136624979
1.140118132
1.143539615
1.146422079
1.148554893
1.150229649
1.151816731
1.153394011
1.155092054
1.157029965
1.159147332
1.161313454
1.163735109
1.166507251
1.169320323
1.171890962
1.174232562
1.17634067
1.178207898
1.17990907
1.181500649
1.183031483
1.184541695
1.18604102
1.18755843
1.189314598
1.191088323
1.193286194
1.196330254
1.227831088
1.456971426
1.544856167
1.518913033
1.486958552
1.459935381
1.107658223
1.108902092
1.11079466
1.113258013
1.116157122
1.119067265
1.121731328
1.123728371
1.125425616
1.126939999
1.128450509
1.130095015
1.132013976
1.134206661
1.136613109
1.139378429
1.142332821
1.145082456
1.147600389
1.149996327
1.152262989
1.154250002
1.155981228
1.157663887
1.159386664
1.161130365
1.162872234
1.164756524
1.167064876
1.169420189
1.172177957
1.175118558
1.200144453
1.398445321
1.541066758
1.530718977
1.499722857
1.46684966
1.089724141
1.090531797
1.091994619
1.09399586
1.096341301
1.098750305
1.100949583
1.102683036
1.104184419
1.105475722
1.106821465
1.108330587
1.110182873
1.112333578
1.114732666
1.117289682
1.119878444
1.122282938
1.124535471
1.126678397
1.12864925
1.130428793
1.132085282
1.13378004
1.135546984
1.137410248
1.139413661
1.141710115
1.144448741
1.147033421
1.14982022
1.152481813
1.172133421
1.336093315
1.533839493
1.541509288
1.514543695
1.473776528
1.076682298
1.077248738
1.078427463
1.080164527
1.082079171
1.083989396
1.085653213
1.086997202
1.08803866
1.08889707
1.089834072
1.090900607
1.09223265
1.093864601
1.09588565
1.098258842
1.100610198
1.102616925
1.104432338
1.106137163
1.107805095
1.109449673
1.110978173
1.112431196
1.113997924
1.115799209
1.117869283
1.120255133
1.122965294
1.125366278
1.127859241
1.130246722
1.145336162
1.280103992
1.519905646
1.55339101
1.529255864
1.480103294
1.068921881
1.069193768
1.069610804
1.070340092
1.071344107
1.072505197
1.073586426
1.07435864
1.074904766
1.07539444
1.075993943
1.076737359
1.077756442
1.079082147
1.080781982
1.082767528
1.084672463
1.086324362
1.087759908
1.089232317
1.09078013
1.09210028
1.093134847
1.094144046
1.09541507
1.096999151
1.09891181
1.101146229
1.10364815
1.105817161
1.107828495
1.109873646
1.120901218
1.227925113
1.503367274
1.56380868
1.540366775
1.48528358
1.062818434
1.062651421
1.062660955
1.062945314
1.063544069
1.064202547
1.064639116
1.065032554
1.065530141
1.066117288
1.066824364
1.06780605
1.069097722
1.070655428
1.072026348
1.073168148
1.074132859
1.075083369
1.076245896
1.077295886
1.078093066
1.078886283
1.079883081
1.081132652
1.082607548
1.084322926
1.086172462
1.087967575
1.089417364
1.090751199
1.092382438
1.100456735
1.182207295
1.47366704
1.564387265
1.546909306
1.492370305
1.057878047
1.057710577
1.057589153
1.057632732
1.057968123
1.058413592
1.058767106
1.05914434
1.059661968
1.060295732
1.061102296
1.062017858
1.06295839
1.063778528
1.06440082
1.064993453
1.065643764
1.066241823
1.066954215
1.067665398
1.068371457
1.069258255
1.07050419
1.07188541
1.073166499
1.074365265
1.075431204
1.07642243
1.077097697
1.077788269
1.079043567
1.084997123
1.144912735
1.425255351
1.555891188
1.549082992
1.502797073
1.055196391
1.05511487
1.054995329
1.05503822
1.055277411
1.055660733
1.056100544
1.056617226
1.057083168
1.057464271
1.057913065
1.05816384
1.058295932
1.058551548
1.058893207
1.0592508
1.059725076
1.060329741
1.060992009
1.061790476
1.062887877
1.064037462
1.064948788
1.065486313
1.065900438
1.066325502
1.066701673
1.067180488
1.067647022
1.068306541
1.069283258
1.073701293
1.115641769
1.370888145
1.533432117
1.549675341
1.51237244
1.05415926
1.054370225
1.05436239
1.054448417
1.054578845
1.054809597
1.055092067
1.055350554
1.05538326
1.055285691
1.055224181
1.055175351
1.055087104
1.05503156
1.055159019
1.055454194
1.055975956
1.056790519
1.057791079
1.058976924
1.059872133
1.060300487
1.060361829
1.060371659
1.06042069
1.060552585
1.060652106
1.060790546
1.061101888
1.061753027
1.06253798
1.06574462
1.096105784
1.317720603
1.502979869
1.550168171
1.521559811
1.053399145
1.053653407
1.053680777
1.053630634
1.053621642
1.053708962
1.053883584
1.054004801
1.053910998
1.053705232
1.05333633
1.052935279
1.052514026
1.052354081
1.052601121
1.053218817
1.053993404
1.055151174
1.056319335
1.056947466
1.05718505
1.057237749
1.057181522
1.056956242
1.056656264
1.056374993
1.056419106
1.056820856
1.057311682
1.057877511
1.058511729
1.061110115
1.085310997
1.275173328
1.47434997
1.552185154
1.533596312
1.052721582
1.053144571
1.053138014
1.053030881
1.052990496
1.052999189
1.053080099
1.053096155
1.05294622
1.052505793
1.051937222
1.051521838
1.051224158
1.051208696
1.051503732
1.052121566
1.053343981
1.054543571
1.05507758
1.055391638
1.055501741
1.055220453
1.054624579
1.054086426
1.053880769
1.054084976
1.054421528
1.054878631
1.055437121
1.056035827
1.05665696
1.058639005
1.078631412
1.240403695
1.448558792
1.552916872
1.542861847
1.051983064
1.052407267
1.052461716
1.052308042
1.052261141
1.052314303
1.052414742
1.052347976
1.052138219
1.051649141
1.051206715
1.050984841
1.050868584
1.050981266
1.05143452
1.052286831
1.053281648
1.053916125
1.054222053
1.054339407
1.054185262
1.053456139
1.052663478
1.052591672
1.05278958
1.053219477
1.053845318
1.054396866
1.05487468
1.055450751
1.056043642
1.057255152
1.07316705
1.211176479
1.420866374
1.549347116
1.543203034
1.051360119
1.051712481
1.051783592
1.051728441
1.051765728
1.051959911
1.052151489
1.0520605
1.051798475
1.051269497
1.050753626
1.050528292
1.050531394
1.050671538
1.051133582
1.051950351
1.052834973
1.053390431
1.053580184
1.05349779
1.052854597
1.052243155
1.05210169
1.052184747
1.052868685
1.05341018
1.053657371
1.053805205
1.054291517
1.05501121
1.055436228
1.056376045
1.068170482
1.187745057
1.382004399
1.531465385
1.540675027
1.051032607
1.051424755
1.051655568
1.051698312
1.051823976
1.052038567
1.052224653
1.052149335
1.051948501
1.051506241
1.050937794
1.050552696
1.050481697
1.050567065
1.050921301
1.051602166
1.052347355
1.052782911
1.052840615
1.052524763
1.051983399
1.051877023
1.052237592
1.052596964
1.052857151
1.053087522
1.053138675
1.053236609
1.053721725
1.05441603
1.054850853
1.055556658
1.06397131
1.165063369
1.342611832
1.497322513
1.534883353
1.051018862
1.051381462
1.051809402
1.051996874
1.052127415
1.052270021
1.052345034
1.052243126
1.052070825
1.051725078
1.051109644
1.050470955
1.050259174
1.050306561
1.050577112
1.051178205
1.051759118
1.052009052
1.051967858
1.051746981
1.051737012
1.052033708
1.052458617
1.052859628
1.052912479
1.052749721
1.052674389
1.052807842
1.053338059
1.053927052
1.054196114
1.054771213
1.060946857
1.142118051
1.306312232
1.457339657
1.52649172
1.051163042
1.051590172
1.052100431
1.052364951
1.052410577
1.052384449
1.052286084
1.05214466
1.051941577
1.051587342
1.050952392
1.050251901
1.050102916
1.050126662
1.05033136
1.05075638
1.051088428
1.051273958
1.051362167
1.051504261
1.051846524
1.05234996
1.052775121
1.052895304
1.05270617
1.05239046
1.052319044
1.052562096
1.053183497
1.053646388
1.053769051
1.054109968
1.058791583
1.123854706
1.278170896
1.418967495
1.515471776
1.051359344
1.051838288
1.052275034
1.052425904
1.052289315
1.052120737
1.05201623
1.051947397
1.051744204
1.051404051
1.050845076
1.05031773
1.050260627
1.050255727
1.050360904
1.050581108
1.050801407
1.05100789
1.051316871
1.051764154
1.052310405
1.052689084
1.052841944
1.052751846
1.052459435
1.052264401
1.052278588
1.052613186
1.053178994
1.053427557
1.053485022
1.053715521
1.057151559
1.112614356
1.257484145
1.3905955
1.504936932
1.051893151
1.05217897
1.052184903
1.051939118
1.051853231
1.052025452
1.052101483
1.051940515
1.051666076
1.051206511
1.050834011
1.050688589
1.050613869
1.050610215
1.050726041
1.050966889
1.051320593
1.051841698
1.05241571
1.052801043
1.052908289
1.052813105
1.052589124
1.052439021
1.052391379
1.052529852
1.05289663
1.053288732
1.053411533
1.053342505
1.053485704
1.055846358
1.103408118
1.23885796
1.371994208
1.498507704
1.051873077
1.051960675
1.051990081
1.051996982
1.052246462
1.052660308
1.052751939
1.052578449
1.052304742
1.051918193
1.051548509
1.051186262
1.051036989
1.050979367
1.051104817
1.051531296
1.052095158
1.052675032
1.05305664
1.05312791
1.053032661
1.052755205
1.05257864
1.052596051
1.052720347
1.052927378
1.053248135
1.053522508
1.053536332
1.0533734
1.05330406
1.054774219
1.092936843
1.228047843
1.360772155
1.498108558
1.05205791
1.052172078
1.052375928
1.052798702
1.053359812
1.053738679
1.053723979
1.053525458
1.053191139
1.052727992
1.052159374
1.051636367
1.051405849
1.051321019
1.051600798
1.052294234
1.052926804
1.053317365
1.053427595
1.053336918
1.053072318
1.052799416
1.052775805
1.052924562
1.053087337
1.053276518
1.053543818
1.053668482
1.053591164
1.053270052
1.053086866
1.054110923
1.081509822
1.217291941
1.340796565
1.483670791
1.053061311
1.053258846
1.053600867
1.054158887
1.054697536
1.054858215
1.0547427
1.054456199
1.053989651
1.05334175
1.052482301
1.051847627
1.051617855
1.051659746
1.052253764
1.053087421
1.053624952
1.053758659
1.053670277
1.053454086
1.053155049
1.053089924
1.053225232
1.053371993
1.053464854
1.053617782
1.053807018
1.053777297
1.053612868
1.053152032
1.05291477
1.053942421
1.072888976
1.204066582
1.320812893
1.456711596
1.054721171
1.054897709
1.055218271
1.05564046
1.055918211
1.055830063
1.05558088
1.055099206
1.054350673
1.053448237
1.052631133
1.052320594
1.052318465
1.052596237
1.053317116
1.05402882
1.054258313
1.054131881
1.053852212
1.053588612
1.053518606
1.053684415
1.053852815
1.053914236
1.053972484
1.054064696
1.054086957
1.053921918
1.05352414
1.053082609
1.053167664
1.054438176
1.06882043
1.186379404
1.300805762
1.42906603
1.056482508
1.056593699
1.056826187
1.057034244
1.056898498
1.056565834
1.056297342
1.055799328
1.055089365
1.054385462
1.053987285
1.053833325
1.053871498
1.054197163
1.054685257
1.054982242
1.054803086
1.05444855
1.054235698
1.054285802
1.054521418
1.054745317
1.054826631
1.054817384
1.054823894
1.054745455
1.05454956
1.054133676
1.053658554
1.053791501
1.054390108
1.055628326
1.067281461
1.171691515
1.286321118
1.404989196
1.05820476
1.058219711
1.058265387
1.058195242
1.058027638
1.058091603
1.057985584
1.057637908
1.057131847
1.056522712
1.056030791
1.055865293
1.055801867
1.055935475
1.056117245
1.05590356
1.055699601
1.055707438
1.055822031
1.055943759
1.056181416
1.056237074
1.056197186
1.056100558
1.05596194
1.05563838
1.055163996
1.054803127
1.054863529
1.055368551
1.056012441
1.056996306
1.06642598
1.162142933
1.27709451
1.39048295
1.060041875
1.059946487
1.059827325
1.059807186
1.060060006
1.060337396
1.060245443
1.059922454
1.059466876
1.058951913
1.058341706
1.057894339
1.057704196
1.057658503
1.057504018
1.057374901
1.057524624
1.057666022
1.057792091
1.057956118
1.05793111
1.057824644
1.057697092
1.057533088
1.057287536
1.056843425
1.056432889
1.05629958
1.056523625
1.057167868
1.05755779
1.058299718
1.065394156
1.15285608
1.267224727
1.383931976
1.061752356
1.061595572
1.061559423
1.061733051
1.062085028
1.062467258
1.062450195
1.062243514
1.061823827
1.061083729
1.060323719
1.059707689
1.059370415
1.059224691
1.059244989
1.059396433
1.059574759
1.059785435
1.059835728
1.05974004
1.059531715
1.059361513
1.059238782
1.059119298
1.058863736
1.058456575
1.05816487
1.058158575
1.058354585
1.058708567
1.058936154
1.059454911
1.064402632
1.139729467
1.259386537
1.3808894
1.062966482
1.062792342
1.062910937
1.063367853
1.063953311
1.064393921
1.064296637
1.063952526
1.063405059
1.062556108
1.06164401
1.061112066
1.060962662
1.060998386
1.061155944
1.061362819
1.061687822
1.061722751
1.061550128
1.061236351
1.061016403
1.061035407
1.060978157
1.060830736
1.060511486
1.060116929
1.059825116
1.059755929
1.059881229
1.060006166
1.06014631
1.060614014
1.064191295
1.1243558
1.251399963
1.371108993
1.063486482
1.063386059
1.063724543
1.064392962
1.065083817
1.065305292
1.065188547
1.064799183
1.064045645
1.063160992
1.062656754
1.062478221
1.062454329
1.06255083
1.062838329
1.063243624
1.063359368
1.063174044
1.062801636
1.06255224
1.06261138
1.062671141
1.062632933
1.06241614
1.061989846
1.061565823
1.061233048
1.06110151
1.061129236
1.061358463
1.061601939
1.062052427
1.064748624
1.110805231
1.240646539
1.360822795
1.063626841
1.06377135
1.064179233
1.064895632
1.065475375
1.065423842
1.065184994
1.064703873
1.064156599
1.063796181
1.063579272
1.063547433
1.063680857
1.064016509
1.064428378
1.064551485
1.064406008
1.064024583
1.063752239
1.063841522
1.063987637
1.064064048
1.064016606
1.063723434
1.063299488
1.062886946
1.062534253
1.062397387
1.062472593
1.062763953
1.063032503
1.063340937
1.065530027
1.10078381
1.228419646
1.346297525
1.063847652
1.064062041
1.06445224
1.064884901
1.065153025
1.065023429
1.064900304
1.064731538
1.064561086
1.06436857
1.064399526
1.064596874
1.064936282
1.065221004
1.065247256
1.065212784
1.064831592
1.064513472
1.064657794
1.064914239
1.065189418
1.06521192
1.065051431
1.064719368
1.064344647
1.063975251
1.063660054
1.063539072
1.063639334
1.06398599
1.064049185
1.064171801
1.065915256
1.093402317
1.217689083
1.333848573
1.063947653
1.064182925
1.064541742
1.064820521
1.064895211
1.064950058
1.064991166
1.06495313
1.064878208
1.064999611
1.065242039
1.065468028
1.065576479
1.065647184
1.065623953
1.065232139
1.064929866
1.065047846
1.065349115
1.065806374
1.066032053
1.065987746
1.065729487
1.065405162
1.065088681
1.064808299
1.064586542
1.064545477
1.064710763
1.064762972
1.064551496
1.064440549
1.065757846
1.087752455
1.208499031
1.328767787
1.064320341
1.064585198
1.064733427
1.0648012
1.064900795
1.065036788
1.065141537
1.065319662
1.065612929
1.065708634
1.065678046
1.065785865
1.065712359
1.065275564
1.065124038
1.06526042
1.065575102
1.066065032
1.066445079
1.066552714
1.066467329
1.066219084
1.065960748
1.065736508
1.065591123
1.065517054
1.065456558
1.065316897
1.065091643
1.064567999
1.064636898
1.065623848
1.083573542
1.199117549
1.326469041
1.064515572
1.064632702
1.064671364
1.064753651
1.064968944
1.065189761
1.065422311
1.065656934
1.06573771
1.065749107
1.065653283
1.065403748
1.065305193
1.065310223
1.06538101
1.065771468
1.066259373
1.066710468
1.066896004
1.066916747
1.066816089
1.066694202
1.066626825
1.066522784
1.066360863
1.066212812
1.065872955
1.065524391
1.064997633
1.064972926
1.065140406
1.066069641
1.080574221
1.188129027
1.324941947
1.064532191
1.064615425
1.064715885
1.064808729
1.064967316
1.065173002
1.065329862
1.065502131
1.065614525
1.065394227
1.065086798
1.065155297
1.065323131
1.065523411
1.065901711
1.066540516
1.06708744
1.067298034
1.067284402
1.06722103
1.067174995
1.067183733
1.067146784
1.067082357
1.066758186
1.066370431
1.066041467
1.065458686
1.065376065
1.065469221
1.065735055
1.066702405
1.078250493
1.175880326
1.322940482
1.064380382
1.064479427
1.06463966
1.064696081
1.064724607
1.06487318
1.064992372
1.065067933
1.065039395
1.064995324
1.064970957
1.065173124
1.065581162
1.066153447
1.066816268
1.067352659
1.067576408
1.067581315
1.067474226
1.067450314
1.067469616
1.067479604
1.067306435
1.067067729
1.066788414
1.06624563
1.065819481
1.06564975
1.065773977
1.06610644
1.066580387
1.06762261
1.076510877
1.163503046
1.318494316
1.064183788
1.064362176
1.064495936
1.064482659
1.064380031
1.064408311
1.064495697
1.064564747
1.064670607
1.064805798
1.065099735
1.065625619
1.06624618
1.066851207
1.067344832
1.067531034
1.067581725
1.067538222
1.067498759
1.067529294
1.067554161
1.067502317
1.067291277
1.066890908
1.066532554
1.066173391
1.065797274
1.06583388
1.066183174
1.066965971
1.067811612
1.068717123
1.075253542
1.15102038
1.310499757
1.064052767
1.064325173
1.064377586
1.064302889
1.064158119
1.064101476
1.064156846
1.064277181
1.064511033
1.064880041
1.06540913
1.066027758
1.066531009
1.066976946
1.06725319
1.067329891
1.067352865
1.067339331
1.067400478
1.067459439
1.067445942
1.067355228
1.067165477
1.066827301
1.066367687
1.066114456
1.066032957
1.066220685
1.067007099
1.0682724
1.068764146
1.069130278
1.074155529
1.138470101
1.303725341
1.064068873
1.064328467
1.064291696
1.064176156
1.06407285
1.063975097
1.064069951
1.064285174
1.064600694
1.065024131
1.065455056
1.065961296
1.066396809
1.066774185
1.066905868
1.066944403
1.066967621
1.067018942
1.067159615
1.067272257
1.06724385
1.067085238
1.066798052
1.066501663
1.066244336
1.066084852
1.066317774
1.067098447
1.068273666
1.068873359
1.06889783
1.069050723
1.073029542
1.125843318
1.300233028
1.064189813
1.064270953
1.064193222
1.064086014
1.064023574
1.064042037
1.064178254
1.064292544
1.064498576
1.064795847
1.065158312
1.065638231
1.06611992
1.066481863
1.066540464
1.06655211
1.066646032
1.066794325
1.066967885
1.067092246
1.067074587
1.066886621
1.066499593
1.066214358
1.066230577
1.066549067
1.06735541
1.068369393
1.068840158
1.068808375
1.068595275
1.06869401
1.071658903
1.113522497
1.297561111
1.064014913
1.064139229
1.064088884
1.06403264
1.064018637
1.06405077
1.064073206
1.064042437
1.064157141
1.064409606
1.064818031
1.065317663
1.065862067
1.066192786
1.066219977
1.066241532
1.066452034
1.066713972
1.066918057
1.067006745
1.066992702
1.066835571
1.066570476
1.066470267
1.066763213
1.067603642
1.068516989
1.068805856
1.068727152
1.068449491
1.067994059
1.067826681
1.069824929
1.102636715
1.293885906
1.06363194
1.063901784
1.063960698
1.063977679
1.063982851
1.063953551
1.063818751
1.063785234
1.063932085
1.064176928
1.064596775
1.06510761
1.065608754
1.065786131
1.065852592
1.0659868
1.066334729
1.066761404
1.067039485
1.067150501
1.067162368
1.067003936
1.066905999
1.06716036
1.067837093
1.068437854
1.06865004
1.068616973
1.068338298
1.067892111
1.067137445
1.067244457
1.069063765
1.094694858
1.288134894
1.063309608
1.063652783
1.063816919
1.063939834
1.063963764
1.063810187
1.063594715
1.063647592
1.063908888
1.06418525
1.064459694
1.064879354
1.065191904
1.065331567
1.065441778
1.065785266
1.066369671
1.066983258
1.067271006
1.067368123
1.067391959
1.067344904
1.067489461
1.067878826
1.068229734
1.06834627
1.068293109
1.068157715
1.067758223
1.066885499
1.066536173
1.066925831
1.068573818
1.089195758
1.280024847
1.063099573
1.063574254
1.063839373
1.063979745
1.06396463
1.063696853
1.063470593
1.063601673
1.063928269
1.064248869
1.064312914
1.064501294
1.06475591
1.064848128
1.065094277
1.065700476
1.066574285
1.067139586
1.067244589
1.067276137
1.06732881
1.067459935
1.067668858
1.067799008
1.06785664
1.067869539
1.067771417
1.067415662
1.066403635
1.065898557
1.06636369
1.066706701
1.06808293
1.0848119
1.269885532
1.063012568
1.063555885
1.063811018
1.063982844
1.063944304
1.063680439
1.063547347
1.063701514
1.063920588
1.064193745
1.064224816
1.064176953
1.064266557
1.064511101
1.064937439
1.065813772
1.066665394
1.066971122
1.066969891
1.066981566
1.067074807
1.067235624
1.067394725
1.067484322
1.067405301
1.067290482
1.066889542
1.06586218
1.065341349
1.065647947
1.066093605
1.06651172
1.06769273
1.080788303
1.258904591
1.062863583
1.063341281
1.063521568
1.063682758
1.06376565
1.063667723
1.063645605
1.063637418
1.063718122
1.063952489
1.064132817
1.064087286
1.064067681
1.064315542
1.06498212
1.06588873
1.066378407
1.066597219
1.066619683
1.06667957
1.066766278
1.066817999
1.066927667
1.067014403
1.066963282
1.066430425
1.065164444
1.06437678
1.06461358
1.065275419
1.065898906
1.066360419
1.067309968
1.077069522
1.247927629
1.063039161
1.063195056
1.063377662
1.063601662
1.063605612
1.063579373
1.063412229
1.063409717
1.063593817
1.063940209
1.064014586
1.064098527
1.064453888
1.065151337
1.065640258
1.065956394
1.06620479
1.066285699
1.066400537
1.066450377
1.06642148
1.066418501
1.066281073
1.065803779
1.064745596
1.064182444
1.064211069
1.064346395
1.064990711
1.065949064
1.066223133
1.067062601
1.074248087
1.23714354
1.062817687
1.063009751
1.063307008
1.063579847
1.063570527
1.063414954
1.063141028
1.063173041
1.063360212
1.063785711
1.064090333
1.064397602
1.064785958
1.06505531
1.065246467
1.065538581
1.065763086
1.065979638
1.066134046
1.066156801
1.066047003
1.065820248
1.065185821
1.063958337
1.063389626
1.063534782
1.063881279
1.064364864
1.065046691
1.065946062
1.066320957
1.067026476
1.072622968
1.226930617
1.062608051
1.062891024
1.063318039
1.063697492
1.06365299
1.063272928
1.06296383
1.063038782
1.06332148
1.063842527
1.064312314
1.064644042
1.06483578
1.06492316
1.064842865
1.064976045
1.065396391
1.065734022
1.065903705
1.065912385
1.065665384
1.064941194
1.063773599
1.063212406
1.063223586
1.063247181
1.063560211
1.064352514
1.065592189
1.066534539
1.066812871
1.067276915
1.07160942
1.217643357
1.062466663
1.062955901
1.063423607
1.063818771
1.063723792
1.063204954
1.062992878
1.063130252
1.063489328
1.063970558
1.064287579
1.064454719
1.064567253
1.064651527
1.064710376
1.064767594
1.065160572
1.065587683
1.065759044
1.065752842
1.06522324
1.063945333
1.063058221
1.062954356
1.06313397
1.063408442
1.063930826
1.065248903
1.066543383
1.067003257
1.067068653
1.067269465
1.070661672
1.208697376
1.062508363
1.063014398
1.06338182
1.063737312
1.063656762
1.063195429
1.063136937
1.063313134
1.063557912
1.063806113
1.064010018
1.064116602
1.064133745
1.064226029
1.064360029
1.064591554
1.065124984
1.065632646
1.065764432
1.065586611
1.064843836
1.063690868
1.062785405
1.062628244
1.06285423
1.063590537
1.064963717
1.066339157
1.066774341
1.066848995
1.066813188
1.066916154
1.069641901
1.198714613
1.062360562
1.062767195
1.063137251
1.063523641
1.063489039
1.06319591
1.063121001
1.063246147
1.063351304
1.063483892
1.063640732
1.063796884
1.06384156
1.063888309
1.064115171
1.064561857
1.065308354
1.065646699
1.065630893
1.065286019
1.064477837
1.063460255
1.06290487
1.062913059
1.063389981
1.064683144
1.066010551
1.06643348
1.066524838
1.066494928
1.066450993
1.066541262
1.068549214
1.186392543
1.061999069
1.062396599
1.062841437
1.063343451
1.063337262
1.063158667
1.063008808
1.062994162
1.063013954
1.063074604
1.063298418
1.063536929
1.063627962
1.063725857
1.064066554
1.064801379
1.065362247
1.065429111
1.065329424
1.064941958
1.064107459
1.063294168
1.063132292
1.063485275
1.064391822
1.065431019
1.065947589
1.066138191
1.066184804
1.066140492
1.066045562
1.06609175
1.067349006
1.17247716
1.061615428
1.061947807
1.062598445
1.06327504
1.063274576
1.063154605
1.062924961
1.062758013
1.062753316
1.062850335
1.063097293
1.063415393
1.063608278
1.063781475
1.064234199
1.064867133
1.06513356
1.065158316
1.065050119
1.06459283
1.063814728
1.063453737
1.063694096
1.064338177
1.0649773
1.065383248
1.065625193
1.065757588
1.065789654
1.065771708
1.065797391
1.065891227
1.06664528
1.160716347
)
;

boundaryField
{
    inlet
    {
        type            fixedValue;
        value           nonuniform 0();
    }
    outlet
    {
        type            inletOutlet;
        inletValue      uniform 1;
        value           nonuniform List<scalar> 
62
(
1.448337685
1.450475455
1.452378426
1.453790441
1.454425819
1.453780515
1.452877388
1.455117492
1.460851631
1.467568051
1.47384858
1.479280174
1.484011643
1.492398252
1.503058074
1.512741444
1.52272486
1.535699995
1.542662198
1.542230672
1.539120013
1.533287525
1.525130181
1.514849928
1.505965112
1.50272358
1.501149392
1.481571493
1.454239238
1.426455156
1.404932934
1.391073511
1.387005822
1.381554339
1.371088184
1.359386291
1.343823553
1.333403596
1.329537149
1.32736132
1.32570887
1.323237883
1.317679385
1.309435862
1.303908325
1.301102809
1.29846005
1.294425785
1.288151361
1.279530563
1.269193988
1.25841654
1.247716867
1.23718386
1.227298539
1.218278082
1.209285955
1.198824519
1.185820706
1.171918079
1.160905037
1.447713435
)
;
    }
    bottom
    {
        type            slip;
    }
    top
    {
        type            slip;
    }
    obstacle
    {
        type            zeroGradient;
    }
    defaultFaces
    {
        type            empty;
    }
    procBoundary23to17
    {
        type            processor;
        value           nonuniform List<scalar> 
40
(
1.23430675
1.233545365
1.232432426
1.231180043
1.229959477
1.22889018
1.228092124
1.22711313
1.225512799
1.226036307
1.242036537
1.347997882
1.454819616
1.453516575
1.453293034
1.454360006
1.447950307
1.250721021
1.249812562
1.249214784
1.248962895
1.249148618
1.249121273
1.248697473
1.247925706
1.247019964
1.246278162
1.245766843
1.245543279
1.245412207
1.245214881
1.244826312
1.244323
1.243736889
1.242987414
1.242226351
1.241399103
1.24053617
1.239879513
1.239879513
)
;
    }
    procBoundary23to22
    {
        type            processor;
        value           nonuniform List<scalar> 
65
(
1.252195382
1.25059562
1.25059562
1.246345043
1.237889876
1.225345659
1.205130142
1.180496357
1.153921458
1.128680954
1.106871941
1.089171774
1.076233899
1.068487341
1.062683729
1.062683729
1.057904987
1.055107108
1.053711615
1.052906149
1.052116229
1.051439104
1.05090133
1.050576314
1.050601524
1.050692987
1.05084892
1.051537823
1.051537823
1.051705929
1.052047409
1.053036045
1.05468841
1.056542856
1.058397363
1.060308749
1.062075362
1.063307478
1.063844438
1.063745798
1.063862085
1.063981018
1.064143302
1.064143302
1.064398252
1.064470817
1.064299956
1.063986454
1.06375553
1.063672611
1.063653397
1.063421088
1.063033107
1.062694796
1.062454893
1.062314989
1.06218568
1.062658464
1.062658464
1.062484361
1.062244897
1.061929418
1.061675664
1.061485236
1.061225867
)
;
    }
    procBoundary23to28
    {
        type            processor;
        value           uniform 1.060926662;
    }
    procBoundary23to29
    {