/*--------------------------------*- C++ -*----------------------------------*\
  =========                 |
  \\      /  F ield         | OpenFOAM: The Open Source CFD Toolbox
   \\    /   O peration     | Website:  https://openfoam.org
    \\  /    A nd           | Version:  7
     \\/     M anipulation  |
\*---------------------------------------------------------------------------*/
FoamFile
{
    version     2.0;
    format      ascii;
    class       volScalarField;
    location    "3.5";
    object      p;
}
// * * * * * * * * * * * * * * * * * * * * * * * * * * * * * * * * * * * * * //

dimensions      [1 -1 -2 0 0 0 0];

internalField   nonuniform List<scalar> 
22
(
0.8493594001
0.6699581081
0.722501127
0.8898781979
0.677790787
0.7472500483
0.930780061
0.685699462
0.7803130193
0.9698994097
0.6945825369
0.8266692207
1.003267084
0.7051091557
0.8797085669
1.027359821
0.7169513363
0.9259153039
0.7297947434
0.9573352249
0.7293991209
1.012580177
)
;

boundaryField
{
    inlet
    {
        type            fixedValue;
        value           nonuniform 0();
    }
    outlet
    {
        type            zeroGradient;
    }
    bottom
    {
        type            slip;
    }
    top
    {
        type            slip;
    }
    obstacle
    {
        type            zeroGradient;
    }
    defaultFaces
    {
        type            empty;
    }
    procBoundary15to9
    {
        type            processor;
        value           nonuniform List<scalar> 4(0.7895827152 0.6563049258 0.6977037588 0.6977037588);
    }
    procBoundary15to10
    {
        type            processor;
        value           nonuniform List<scalar> 3(0.984746891 1.000475983 1.010535755);
    }
    procBoundary15to16
    {
        type            processor;
        value           nonuniform List<scalar> 7(1.017401969 1.018157737 1.021206592 1.040993699 1.040993699 1.044786556 1.043934375);
    }
    procBoundary15to21
    {
        type            processor;
        value           nonuniform List<scalar> 2(0.7283819487 1.037619289);
    }
}


// ************************************************************************* //
