/*--------------------------------*- C++ -*----------------------------------*\
  =========                 |
  \\      /  F ield         | OpenFOAM: The Open Source CFD Toolbox
   \\    /   O peration     | Website:  https://openfoam.org
    \\  /    A nd           | Version:  7
     \\/     M anipulation  |
\*---------------------------------------------------------------------------*/
FoamFile
{
    version     2.0;
    format      ascii;
    class       volVectorField;
    location    "4.4";
    object      U;
}
// * * * * * * * * * * * * * * * * * * * * * * * * * * * * * * * * * * * * * //

dimensions      [0 1 -1 0 0 0 0];

internalField   nonuniform List<vector> 
2223
(
(3 -1.313766067e-15 0)
(3 -1.370827351e-15 0)
(3 -4.90934362e-15 0)
(3 -6.596899321e-15 0)
(3 -6.41748095e-15 0)
(3 -6.608763424e-15 0)
(3 -7.050130484e-15 0)
(3 -7.464525503e-15 0)
(3 -5.570814382e-15 0)
(3 -1.827073196e-15 0)
(3 -7.661131195e-16 0)
(3 -3.717140918e-16 0)
(3 2.567996422e-16 0)
(3 4.803701308e-16 0)
(3 -2.840063615e-17 0)
(3 -1.05477381e-15 0)
(3 -5.613194257e-15 0)
(3 -4.226205464e-15 0)
(3 -3.857235821e-15 0)
(3 -4.079028005e-15 0)
(3 -3.017876786e-15 0)
(3 -1.095257787e-15 0)
(3 1.813039923e-16 0)
(3 1.611282812e-17 0)
(3 2.178347211e-15 0)
(3 4.508221964e-15 0)
(3 4.529873559e-15 0)
(3 3.986352763e-15 0)
(3 2.142717737e-15 0)
(3 1.824810328e-15 0)
(3 4.393527162e-16 0)
(3 -1.353890592e-15 0)
(3 -3.575893568e-15 0)
(3 -4.806535905e-15 0)
(3 -2.780178561e-15 0)
(3 -1.257737532e-15 0)
(3 -2.943380043e-15 0)
(3 -4.714160214e-15 0)
(3 -6.301307718e-15 0)
(3 -7.03233647e-15 0)
(3 -8.069388517e-15 0)
(3 -8.271722269e-15 0)
(3 -7.645396486e-15 0)
(3 -4.598219841e-15 0)
(3 -1.349764918e-15 0)
(3 -4.923564465e-16 0)
(3 3.097017993e-17 0)
(3 8.079303922e-18 0)
(3 3.576014448e-16 0)
(3 -1.60042622e-16 0)
(3 -5.741636676e-15 0)
(3 -4.194508932e-15 0)
(3 -2.264198634e-15 0)
(3 -1.253304496e-15 0)
(3 2.231492816e-16 0)
(3 2.349359053e-15 0)
(3 1.572371751e-15 0)
(3 5.430803288e-16 0)
(3 5.31776992e-16 0)
(3 2.768471219e-15 0)
(3 3.903760741e-15 0)
(3 4.532616915e-15 0)
(3 1.453979106e-15 0)
(3 -2.027068159e-16 0)
(3 -1.445289643e-15 0)
(3 -1.071218264e-15 0)
(3 -1.23242316e-15 0)
(3 -3.155658037e-16 0)
(3 -8.878082172e-17 0)
(3 -1.64131208e-15 0)
(3 -2.780909941e-15 0)
(3 -4.934230107e-15 0)
(3 -7.061871022e-15 0)
(3 -6.623342203e-15 0)
(3 -5.544217684e-15 0)
(3 -6.004296469e-15 0)
(3 -5.287746121e-15 0)
(3 -4.542161528e-15 0)
(3 -3.789265604e-15 0)
(3 -3.663747134e-15 0)
(3 -4.020815943e-15 0)
(3 -2.530308543e-15 0)
(3 -1.794199627e-15 0)
(3 5.491444951e-16 0)
(3 -2.574693256e-16 0)
(3 1.156948161e-15 0)
(3 2.224867861e-15 0)
(3 2.199378731e-15 0)
(3 1.788327253e-15 0)
(3 6.887318694e-16 0)
(3 6.152456612e-16 0)
(3 9.218991727e-16 0)
(3 5.680827344e-16 0)
(3 8.819656153e-16 0)
(3 1.139336335e-15 0)
(3 1.662862469e-15 0)
(3 1.831419982e-15 0)
(3 1.581718992e-15 0)
(3 2.282101413e-16 0)
(3 -1.644278683e-15 0)
(3 -1.619021677e-15 0)
(3 -6.312095341e-16 0)
(3 -9.535362764e-16 0)
(3 -2.740768148e-15 0)
(3 -4.578821412e-15 0)
(3 -5.862043184e-15 0)
(3 -6.459743415e-15 0)
(3 -6.031840963e-15 0)
(3 -4.260097971e-15 0)
(3 -3.212796298e-15 0)
(3 -2.571177053e-15 0)
(3 -4.446569628e-15 0)
(3 -4.755003413e-15 0)
(3 -5.477671556e-15 0)
(3 -5.149815509e-15 0)
(3 -2.944932507e-15 0)
(3 -4.07846241e-16 0)
(3 1.411193639e-15 0)
(3 9.509953632e-16 0)
(3 1.083013706e-15 0)
(3 7.99488249e-16 0)
(3 -3.87301939e-16 0)
(3 -7.124674435e-16 0)
(3 -1.999058726e-15 0)
(3 -2.360125912e-15 0)
(3 -2.489519412e-15 0)
(3 -4.006089274e-15 0)
(3 -4.194257307e-15 0)
(3 -4.294333494e-15 0)
(3 -2.876317959e-15 0)
(3 -1.592806652e-15 0)
(3 -8.00255381e-16 0)
(3 -1.274512605e-15 0)
(3 -3.382644069e-15 0)
(3 -3.746147762e-15 0)
(3 -3.331375942e-15 0)
(3 -2.263747343e-15 0)
(3 -2.180904681e-15 0)
(3 -2.545832692e-15 0)
(3 -2.522660263e-15 0)
(3 -2.807822761e-15 0)
(3 -3.280283549e-15 0)
(3 -3.305229797e-15 0)
(3 -1.596345504e-15 0)
(3 -1.972826631e-15 0)
(3 -3.6183234e-15 0)
(3 -5.15851961e-15 0)
(3 -5.778538566e-15 0)
(3 -5.753055182e-15 0)
(3 -4.838261837e-15 0)
(3 -4.611121851e-15 0)
(3 -2.507168472e-15 0)
(3 -3.416549935e-15 0)
(3 -3.312314424e-15 0)
(3 -4.396499283e-15 0)
(3 -6.5191898e-15 0)
(3 -7.370030316e-15 0)
(3 -7.840466051e-15 0)
(3 -6.871280889e-15 0)
(3 -6.084266381e-15 0)
(3 -7.019828598e-15 0)
(3 -7.829870506e-15 0)
(3 -8.260748814e-15 0)
(3 -6.969297612e-15 0)
(3 -6.287173824e-15 0)
(3 -5.894853359e-15 0)
(3 -5.026881279e-15 0)
(3 -3.971053716e-15 0)
(3 -3.887396934e-15 0)
(3 -4.657570542e-15 0)
(3 -3.84776506e-15 0)
(3 -2.631001807e-15 0)
(3 -6.914830673e-16 0)
(3 -7.532801363e-16 0)
(3 -1.186893902e-15 0)
(3 -1.972933702e-15 0)
(3 -7.299414734e-16 0)
(3 -1.474450606e-15 0)
(3 -2.883204142e-15 0)
(3 -2.829819251e-15 0)
(3 -2.853985784e-15 0)
(3 -3.116632793e-15 0)
(3 -4.238566902e-15 0)
(3 -4.912252414e-15 0)
(3 -4.461457381e-15 0)
(3 -3.399790923e-15 0)
(3 -7.326671678e-15 0)
(3 -6.970242336e-15 0)
(3 -8.131552951e-15 0)
(3 -8.030134319e-15 0)
(3 -8.606537732e-15 0)
(3 -9.224970407e-15 0)
(3 -9.530110182e-15 0)
(3 -9.198524245e-15 0)
(3 -7.848102211e-15 0)
(3 -8.444745956e-15 0)
(3 -8.62159779e-15 0)
(3 -9.650750304e-15 0)
(3 -8.557251489e-15 0)
(3 -6.291235325e-15 0)
(3 -6.046640245e-15 0)
(3 -5.999194693e-15 0)
(3 -3.656935355e-15 0)
(3 -5.497273565e-16 0)
(3 6.202248969e-16 0)
(3 4.473216052e-16 0)
(3 7.113195299e-16 0)
(3 8.313469875e-16 0)
(3 1.540103026e-15 0)
(3 1.583511266e-15 0)
(3 -4.917295497e-16 0)
(3 -1.03846185e-15 0)
(3 -1.101167317e-15 0)
(3 -8.962496092e-16 0)
(3 -7.588783086e-16 0)
(3 -1.60185114e-15 0)
(3 -1.429207402e-15 0)
(3 -8.231268424e-16 0)
(3 5.824816792e-16 0)
(3 1.492310983e-15 0)
(3 -8.180072431e-15 0)
(3 -9.971454493e-15 0)
(3 -1.100768202e-14 0)
(3 -1.075802451e-14 0)
(3 -1.02180087e-14 0)
(3 -1.002630845e-14 0)
(3 -1.062896382e-14 0)
(3 -1.092675296e-14 0)
(3 -1.051258007e-14 0)
(3 -9.453110046e-15 0)
(3 -8.751575071e-15 0)
(3 -7.411057786e-15 0)
(3 -5.783385429e-15 0)
(3 -3.880048917e-15 0)
(3 -3.279515535e-15 0)
(3 -3.408641919e-15 0)
(3 -2.874495317e-15 0)
(3 -5.762368109e-16 0)
(3 2.828179125e-15 0)
(3 3.810618427e-15 0)
(3 3.235975772e-15 0)
(3 2.513616449e-15 0)
(3 2.753331895e-15 0)
(3 2.407445919e-15 0)
(3 1.515537954e-15 0)
(3 1.715648666e-15 0)
(3 1.001740655e-15 0)
(3 9.120446704e-16 0)
(3 8.828902263e-16 0)
(3 1.116467508e-15 0)
(3 1.64989335e-15 0)
(3 1.452962779e-15 0)
(3 1.621722075e-15 0)
(3 2.360568954e-15 0)
(3 -1.127398638e-14 0)
(3 -1.127488917e-14 0)
(3 -1.22695417e-14 0)
(3 -1.249158927e-14 0)
(3 -1.199763693e-14 0)
(3 -1.107075441e-14 0)
(3 -1.033182056e-14 0)
(3 -1.0831816e-14 0)
(3 -1.008887008e-14 0)
(3 -9.388676464e-15 0)
(3 -8.167238836e-15 0)
(3 -5.461223674e-15 0)
(3 -5.213758689e-15 0)
(3 -4.296653004e-15 0)
(3 -3.789571316e-15 0)
(3 -1.264178532e-15 0)
(3 3.804572563e-16 0)
(3 1.603156731e-15 0)
(3 1.729340813e-15 0)
(3 2.389051471e-15 0)
(3 2.68128735e-15 0)
(3 2.837093057e-15 0)
(3 2.296858479e-15 0)
(3 1.164375216e-15 0)
(3 2.575562846e-15 0)
(3 3.505720634e-15 0)
(3 4.127477445e-15 0)
(3 4.410906183e-15 0)
(3 4.386080457e-15 0)
(3 4.431758403e-15 0)
(3 2.975326072e-15 0)
(3 2.200454337e-15 0)
(3 1.186542903e-15 0)
(3 1.324142417e-15 0)
(3 -6.966014589e-15 0)
(3 -7.722569462e-15 0)
(3 -7.946453715e-15 0)
(3 -8.655593857e-15 0)
(3 -9.35790878e-15 0)
(3 -9.782465518e-15 0)
(3 -8.447373011e-15 0)
(3 -7.08646252e-15 0)
(3 -7.510285164e-15 0)
(3 -8.580739917e-15 0)
(3 -8.740340676e-15 0)
(3 -8.476362863e-15 0)
(3 -7.736529887e-15 0)
(3 -6.341658421e-15 0)
(3 -5.24442077e-15 0)
(3 -1.92808464e-15 0)
(3 5.666259237e-17 0)
(3 1.052046918e-15 0)
(3 1.1461692e-15 0)
(3 1.294026418e-15 0)
(3 1.552041577e-15 0)
(3 2.436378988e-15 0)
(3 2.062215245e-15 0)
(3 1.777893225e-15 0)
(3 1.680175107e-15 0)
(3 1.738037282e-15 0)
(3 1.960777854e-15 0)
(3 1.384182027e-15 0)
(3 6.622325879e-16 0)
(3 2.319475515e-16 0)
(3 7.21350979e-17 0)
(3 8.146929199e-16 0)
(3 1.021864635e-15 0)
(3 -7.86688644e-16 0)
(3 -1.611792073e-15 0)
(3 -2.92912636e-15 0)
(3 -2.965713201e-15 0)
(3 -3.461024098e-15 0)
(3 -3.52902519e-15 0)
(3 -4.012741165e-15 0)
(3 -3.953447589e-15 0)
(3 -2.806152877e-15 0)
(3 -3.579291399e-15 0)
(3 -3.965104004e-15 0)
(3 -3.837108379e-15 0)
(3 -2.970411262e-15 0)
(3 -2.60751222e-15 0)
(3 -1.990516556e-15 0)
(3 -1.002447337e-15 0)
(3 -4.392844566e-16 0)
(3 -1.5082719e-16 0)
(3 5.042886332e-16 0)
(3 2.49907529e-16 0)
(3 -7.437571211e-18 0)
(3 1.462636534e-16 0)
(3 -2.346643759e-16 0)
(3 -3.276703772e-16 0)
(3 6.286504074e-16 0)
(3 1.779063664e-16 0)
(3 -1.469703166e-15 0)
(3 -2.131653539e-15 0)
(3 -2.022246097e-15 0)
(3 -1.613074971e-15 0)
(3 -1.319460135e-15 0)
(3 -1.590155206e-15 0)
(3 -1.900717363e-15 0)
(3 -1.454284268e-15 0)
(3 -9.81509954e-16 0)
(3 -1.644853433e-16 0)
(3 7.144204501e-17 0)
(3 1.611965654e-16 0)
(3 9.108716414e-16 0)
(3 2.157340904e-15 0)
(3 2.433234055e-15 0)
(3 2.771418275e-15 0)
(3 2.881641129e-15 0)
(3 2.126597583e-15 0)
(3 2.117635024e-15 0)
(3 1.738577362e-15 0)
(3 8.517766597e-16 0)
(3 -5.832608623e-17 0)
(3 -2.473540577e-16 0)
(3 -2.875810474e-16 0)
(3 -9.276994635e-17 0)
(3 9.943868865e-16 0)
(3 4.054889137e-16 0)
(3 -2.419370804e-16 0)
(3 -2.046199628e-16 0)
(3 -5.250799115e-16 0)
(3 -1.281690165e-15 0)
(3 -2.225529736e-15 0)
(3 -2.77606185e-15 0)
(3 -3.150250006e-15 0)
(3 -3.819208968e-15 0)
(3 -4.703836944e-15 0)
(3 -5.889381577e-15 0)
(3 -5.837533125e-15 0)
(3 -4.748987547e-15 0)
(3 -4.619418556e-15 0)
(3 -4.731366522e-15 0)
(3 -4.808112914e-15 0)
(3 -3.610023123e-15 0)
(3 2.155434822e-15 0)
(3 3.098705485e-15 0)
(3 4.299605242e-15 0)
(3 5.96686442e-15 0)
(3 7.261247141e-15 0)
(3 7.859431747e-15 0)
(3 7.624599807e-15 0)
(3 7.005306041e-15 0)
(3 6.831309538e-15 0)
(3 6.273920656e-15 0)
(3 4.378423909e-15 0)
(3 1.798738693e-15 0)
(3 8.648426247e-16 0)
(3 3.050136441e-16 0)
(3 2.250330195e-16 0)
(3 7.937561244e-17 0)
(3 5.253079543e-16 0)
(3 -2.30738498e-16 0)
(3 -2.930591508e-16 0)
(3 -7.508584203e-16 0)
(3 -1.069395698e-15 0)
(3 -1.070660247e-15 0)
(3 -1.625562261e-15 0)
(3 -2.995331536e-15 0)
(3 -3.957442196e-15 0)
(3 -5.468567541e-15 0)
(3 -5.715267896e-15 0)
(3 -7.074221621e-15 0)
(3 -7.389916648e-15 0)
(3 -7.552775285e-15 0)
(3 -7.324371676e-15 0)
(3 -7.572247551e-15 0)
(3 -7.474813348e-15 0)
(3 -7.773121956e-15 0)
(3 5.000062384e-15 0)
(3 5.278107049e-15 0)
(3 5.769601879e-15 0)
(3 6.209295713e-15 0)
(3 5.630697747e-15 0)
(3 5.579223452e-15 0)
(3 5.425314696e-15 0)
(3 6.218209854e-15 0)
(3 6.502587426e-15 0)
(3 7.269406884e-15 0)
(3 7.115147501e-15 0)
(3 6.242461093e-15 0)
(3 5.505777499e-15 0)
(3 5.135451829e-15 0)
(3 4.740551405e-15 0)
(3 3.63407054e-15 0)
(3 1.736024254e-15 0)
(3 -1.966746789e-16 0)
(3 -3.245501988e-16 0)
(3 -1.696340165e-15 0)
(3 -2.345202763e-15 0)
(3 -2.712038328e-15 0)
(3 -3.056402754e-15 0)
(3 -4.937453767e-15 0)
(3 -6.303996746e-15 0)
(3 -7.135767856e-15 0)
(3 -7.422122127e-15 0)
(3 -7.536030112e-15 0)
(3 -7.490244082e-15 0)
(3 -7.832210989e-15 0)
(3 -8.029372616e-15 0)
(3 -7.717066371e-15 0)
(3 -8.513244085e-15 0)
(3 -1.02603511e-14 0)
(3 4.580859561e-15 0)
(3 5.967100789e-15 0)
(3 6.572280829e-15 0)
(3 6.520560092e-15 0)
(3 4.541033878e-15 0)
(3 4.234046731e-15 0)
(3 4.421546759e-15 0)
(3 5.440097331e-15 0)
(3 7.401631101e-15 0)
(3 7.809978905e-15 0)
(3 7.304519818e-15 0)
(3 6.851920426e-15 0)
(3 6.670126864e-15 0)
(3 5.5989743e-15 0)
(3 4.165705504e-15 0)
(3 3.883122986e-15 0)
(3 2.627273581e-15 0)
(3 7.870679729e-16 0)
(3 4.094453582e-16 0)
(3 -8.019707986e-17 0)
(3 -1.6479517e-15 0)
(3 -2.675662415e-15 0)
(3 -3.007581423e-15 0)
(3 -4.374222428e-15 0)
(3 -5.245696858e-15 0)
(3 -5.152839899e-15 0)
(3 -5.964742591e-15 0)
(3 -5.573092123e-15 0)
(3 -5.551842307e-15 0)
(3 -6.836131381e-15 0)
(3 -7.872560837e-15 0)
(3 -8.36447159e-15 0)
(3 -9.473366453e-15 0)
(3 -9.5514484e-15 0)
(3 3.792510764e-15 0)
(3 4.028109199e-15 0)
(3 4.155182183e-15 0)
(3 4.712320068e-15 0)
(3 6.033570488e-15 0)
(3 6.396656706e-15 0)
(3 6.865924321e-15 0)
(3 6.544195248e-15 0)
(3 6.960649018e-15 0)
(3 6.450614487e-15 0)
(3 5.888137611e-15 0)
(3 5.148360967e-15 0)
(3 4.275733788e-15 0)
(3 3.156327211e-15 0)
(3 2.681294213e-15 0)
(3 2.593073916e-15 0)
(3 1.947348556e-15 0)
(3 1.605890307e-15 0)
(3 7.962411493e-16 0)
(3 -2.175894149e-16 0)
(3 -1.170807731e-15 0)
(3 -2.128685536e-15 0)
(3 -2.594219729e-15 0)
(3 -2.715748093e-15 0)
(3 -2.936809516e-15 0)
(3 -1.974265515e-15 0)
(3 -1.650757671e-15 0)
(3 -1.917135123e-15 0)
(3 -2.176778059e-15 0)
(3 -2.746718088e-15 0)
(3 -3.400866222e-15 0)
(3 -4.319158733e-15 0)
(3 -5.729232755e-15 0)
(3 -6.906514634e-15 0)
(3 4.012065154e-15 0)
(3 3.777059618e-15 0)
(3 3.205522181e-15 0)
(3 3.242817543e-15 0)
(3 4.517711672e-15 0)
(3 5.035904072e-15 0)
(3 4.799314019e-15 0)
(3 3.957286195e-15 0)
(3 2.463683543e-15 0)
(3 1.92220971e-15 0)
(3 1.860738064e-15 0)
(3 7.600705526e-16 0)
(3 9.380021789e-16 0)
(3 1.307078488e-15 0)
(3 1.133574119e-15 0)
(3 4.25151197e-16 0)
(3 1.899358456e-16 0)
(3 1.3407602e-16 0)
(3 -1.067094297e-15 0)
(3 -2.731880056e-15 0)
(3 -3.694885543e-15 0)
(3 -3.652576924e-15 0)
(3 -3.04834313e-15 0)
(3 -2.156734371e-15 0)
(3 -2.487998237e-15 0)
(3 -2.472060831e-15 0)
(3 -1.561874871e-15 0)
(3 -1.222973106e-15 0)
(3 -1.026316664e-15 0)
(3 -1.614248813e-15 0)
(3 -1.946314022e-15 0)
(3 -2.529357395e-15 0)
(3 -3.299137183e-15 0)
(3 -3.57782404e-15 0)
(3 3.89160239e-15 0)
(3 4.137443037e-15 0)
(3 5.010515202e-15 0)
(3 5.440900318e-15 0)
(3 4.791894017e-15 0)
(3 3.748472697e-15 0)
(3 2.470527761e-15 0)
(3 3.357708644e-16 0)
(3 -1.25544157e-15 0)
(3 -1.464659457e-15 0)
(3 -1.76031471e-15 0)
(3 -1.446676638e-15 0)
(3 -8.876702431e-16 0)
(3 -5.884825829e-17 0)
(3 1.507573393e-16 0)
(3 -1.704693818e-15 0)
(3 -2.881929781e-15 0)
(3 -4.067004924e-15 0)
(3 -4.648172184e-15 0)
(3 -4.236979453e-15 0)
(3 -4.922273703e-15 0)
(3 -5.934063895e-15 0)
(3 -3.991457643e-15 0)
(3 -2.356320339e-15 0)
(3 -3.825687579e-16 0)
(3 2.17560891e-17 0)
(3 1.244225472e-15 0)
(3 1.398319209e-15 0)
(3 7.898511697e-16 0)
(3 -2.137202905e-16 0)
(3 -5.43723263e-16 0)
(3 -2.109815608e-16 0)
(3 -7.156010329e-17 0)
(3 -9.159663124e-16 0)
(3 2.846594951e-16 0)
(3 1.839466641e-15 0)
(3 2.338976875e-15 0)
(3 2.616791188e-15 0)
(3 3.039017225e-15 0)
(3 1.640116807e-15 0)
(3 -3.945337995e-17 0)
(3 -3.540046159e-16 0)
(3 -1.141929776e-15 0)
(3 -1.396493088e-15 0)
(3 -1.36249161e-15 0)
(3 -6.549586709e-16 0)
(3 -4.377322656e-16 0)
(3 -1.794112312e-15 0)
(3 -2.566540768e-15 0)
(3 -3.013355901e-15 0)
(3 -3.755548055e-15 0)
(3 -4.614548964e-15 0)
(3 -4.888723773e-15 0)
(3 -5.275109855e-15 0)
(3 -3.465739707e-15 0)
(3 -2.332899684e-15 0)
(3 -1.203213956e-15 0)
(3 6.178022351e-16 0)
(3 2.264077843e-15 0)
(3 3.588700939e-15 0)
(3 4.117699484e-15 0)
(3 3.707032353e-15 0)
(3 3.233399534e-15 0)
(3 2.671858487e-15 0)
(3 2.685259489e-15 0)
(3 3.264663597e-15 0)
(3 3.175767369e-15 0)
(3 2.483866137e-15 0)
(3 1.430497281e-15 0)
(3 1.840266805e-15 0)
(3 1.274821001e-15 0)
(3 8.716069631e-16 0)
(3 4.690590243e-16 0)
(3 -6.217271141e-16 0)
(3 -5.717279856e-16 0)
(3 1.30214341e-16 0)
(3 3.459283106e-16 0)
(3 9.059029141e-16 0)
(3 2.215484027e-15 0)
(3 2.04673435e-15 0)
(3 1.456539528e-15 0)
(3 6.030952216e-16 0)
(3 1.558769082e-16 0)
(3 -5.235698782e-16 0)
(3 -7.671903448e-16 0)
(3 -6.7287497e-16 0)
(3 -3.116181866e-16 0)
(3 1.048614225e-15 0)
(3 1.866535197e-15 0)
(3 2.32630249e-15 0)
(3 2.757467339e-15 0)
(3 4.121695851e-15 0)
(3 5.548843944e-15 0)
(3 6.490731281e-15 0)
(3 7.108716497e-15 0)
(3 6.962479148e-15 0)
(3 6.930439501e-15 0)
(3 6.030117686e-15 0)
(3 5.349099925e-15 0)
(3 4.47054877e-15 0)
(3 3.073153452e-15 0)
(3 2.651795092e-15 0)
(3 7.081062335e-17 0)
(3 -1.058087903e-15 0)
(3 -2.845371152e-15 0)
(3 -3.392656342e-15 0)
(3 -3.130253922e-15 0)
(3 -2.647191568e-15 0)
(3 -1.53957223e-15 0)
(3 1.862637837e-16 0)
(3 1.686087083e-15 0)
(3 2.93346622e-15 0)
(3 3.137109861e-15 0)
(3 2.795834134e-15 0)
(3 2.845401945e-15 0)
(3 2.903818908e-15 0)
(3 3.10331452e-15 0)
(3 2.603068588e-15 0)
(3 1.830246166e-15 0)
(3 2.541650616e-15 0)
(3 3.821311806e-15 0)
(3 5.418711495e-15 0)
(3 5.535933825e-15 0)
(3 5.613897763e-15 0)
(3 7.058300594e-15 0)
(3 7.098209114e-15 0)
(3 7.037811418e-15 0)
(3 7.313737813e-15 0)
(3 8.085657828e-15 0)
(3 8.590140279e-15 0)
(3 8.461548868e-15 0)
(3 8.849758474e-15 0)
(3 7.663539624e-15 0)
(3 6.156999461e-15 0)
(3 3.025936024e-15 0)
(3 1.876805789e-15 0)
(3 1.851314118e-16 0)
(3 -2.737137264e-16 0)
(3 -8.715697145e-16 0)
(3 -1.669142604e-15 0)
(3 -1.977135777e-15 0)
(3 -2.220088571e-15 0)
(3 -2.416362869e-15 0)
(3 -1.891517682e-15 0)
(3 -9.217719549e-16 0)
(3 -6.812927957e-16 0)
(3 -5.45540707e-16 0)
(3 -3.652456909e-17 0)
(3 4.620112047e-16 0)
(3 1.451110766e-15 0)
(3 2.648799664e-15 0)
(3 3.111071721e-15 0)
(3 3.719770204e-15 0)
(3 4.049315127e-15 0)
(3 4.412777921e-15 0)
(3 4.261668409e-15 0)
(3 5.122802149e-15 0)
(3 6.315173098e-15 0)
(3 7.498483582e-15 0)
(3 7.723230535e-15 0)
(3 7.317541069e-15 0)
(3 6.529100171e-15 0)
(3 5.862152796e-15 0)
(3 6.013547593e-15 0)
(3 6.222091966e-15 0)
(3 5.760934237e-15 0)
(3 4.942737e-15 0)
(3 3.981659016e-15 0)
(3 2.577706233e-15 0)
(3 2.550091429e-15 0)
(3 5.767267369e-16 0)
(3 2.11949864e-15 0)
(3 3.4230231e-15 0)
(3 3.337555797e-15 0)
(3 1.466667601e-15 0)
(3 2.592840121e-17 0)
(3 -6.842421642e-16 0)
(3 -1.070350404e-15 0)
(3 -1.503289994e-15 0)
(3 -1.46113843e-15 0)
(3 -1.072885259e-15 0)
(3 -7.895610678e-16 0)
(3 -4.202238767e-16 0)
(3 -5.190538392e-16 0)
(3 9.878991768e-16 0)
(3 2.246779324e-15 0)
(3 3.82340867e-15 0)
(3 4.69439898e-15 0)
(3 4.862880808e-15 0)
(3 5.819671127e-15 0)
(3 6.294564183e-15 0)
(3 6.153921165e-15 0)
(3 5.982919472e-15 0)
(3 6.323404521e-15 0)
(3 6.252371313e-15 0)
(3 6.083867402e-15 0)
(3 5.114598654e-15 0)
(3 3.823389813e-15 0)
(3 3.191933806e-15 0)
(3 2.895736345e-15 0)
(3 3.299586471e-15 0)
(3 3.681858835e-15 0)
(3 3.826208309e-15 0)
(3 4.112788216e-15 0)
(3 -3.96859036e-15 0)
(3 -3.789438164e-15 0)
(3 -2.98213409e-15 0)
(3 -9.946032577e-16 0)
(3 -3.29906778e-16 0)
(3 2.224135324e-16 0)
(3 3.423290493e-16 0)
(3 -3.326720256e-16 0)
(3 -4.852040098e-16 0)
(3 -2.166041635e-16 0)
(3 -5.296912504e-16 0)
(3 -8.889273401e-16 0)
(3 -1.257854156e-15 0)
(3 -1.035964816e-15 0)
(3 -3.499227476e-16 0)
(3 7.35725414e-16 0)
(3 2.872771141e-15 0)
(3 4.83972152e-15 0)
(3 6.61140808e-15 0)
(3 7.375925721e-15 0)
(3 6.739685626e-15 0)
(3 6.194007812e-15 0)
(3 5.845035884e-15 0)
(3 5.407465222e-15 0)
(3 4.868434836e-15 0)
(3 3.585138606e-15 0)
(3 2.575496183e-15 0)
(3 2.516683523e-15 0)
(3 2.524472799e-15 0)
(3 2.994226599e-15 0)
(3 3.377391593e-15 0)
(3 3.3243314e-15 0)
(3 3.556427924e-15 0)
(3 3.062318495e-15 0)
(3 -4.05248568e-15 0)
(3 -4.087428973e-15 0)
(3 -3.563699336e-15 0)
(3 -3.146973928e-15 0)
(3 -3.039254296e-15 0)
(3 -2.527267577e-15 0)
(3 -2.455276122e-15 0)
(3 -2.281626115e-15 0)
(3 -1.615921319e-15 0)
(3 -1.313788936e-15 0)
(3 -9.149514477e-16 0)
(3 -3.153367424e-16 0)
(3 3.691310137e-16 0)
(3 2.265257985e-15 0)
(3 2.954161797e-15 0)
(3 3.131409127e-15 0)
(3 5.48774148e-15 0)
(3 6.687568588e-15 0)
(3 8.163744651e-15 0)
(3 8.258401678e-15 0)
(3 8.323255885e-15 0)
(3 8.32014882e-15 0)
(3 8.293307662e-15 0)
(3 7.083659446e-15 0)
(3 6.60617504e-15 0)
(3 5.393179042e-15 0)
(3 4.746376653e-15 0)
(3 4.887669285e-15 0)
(3 4.800255995e-15 0)
(3 4.494119984e-15 0)
(3 3.356627354e-15 0)
(3 2.879217613e-15 0)
(3 2.799465349e-15 0)
(3 2.761316764e-15 0)
(3 -1.426037042e-15 0)
(3 -1.60805474e-15 0)
(3 -1.797134192e-15 0)
(3 -2.687009497e-15 0)
(3 -4.177479322e-15 0)
(3 -4.327380712e-15 0)
(3 -3.711685204e-15 0)
(3 -2.9593871e-15 0)
(3 -2.487396707e-15 0)
(3 -1.872456369e-15 0)
(3 -8.084687648e-16 0)
(3 8.321992633e-16 0)
(3 2.263459761e-15 0)
(3 3.014829837e-15 0)
(3 3.701673941e-15 0)
(3 5.061256906e-15 0)
(3 6.149342069e-15 0)
(3 6.756914003e-15 0)
(3 7.956508751e-15 0)
(3 9.320437943e-15 0)
(3 1.111110174e-14 0)
(3 1.129222519e-14 0)
(3 1.141627238e-14 0)
(3 1.006296223e-14 0)
(3 9.020344888e-15 0)
(3 7.918810716e-15 0)
(3 7.283303397e-15 0)
(3 5.677742055e-15 0)
(3 4.25951434e-15 0)
(3 3.053492674e-15 0)
(3 2.466658344e-15 0)
(3 2.743501222e-15 0)
(3 2.193529555e-15 0)
(3 2.125756365e-15 0)
(3 2.340970015e-15 0)
(3 1.76797859e-15 0)
(3 6.593287561e-16 0)
(3 5.16023656e-17 0)
(3 -2.121611828e-16 0)
(3 -5.498852108e-16 0)
(3 -8.422706875e-16 0)
(3 -1.028632118e-15 0)
(3 -7.630772702e-16 0)
(3 7.418167379e-16 0)
(3 1.03031105e-15 0)
(3 1.060021024e-15 0)
(3 1.343911732e-15 0)
(3 2.101021384e-15 0)
(3 2.888529496e-15 0)
(3 4.533748346e-15 0)
(3 6.532778417e-15 0)
(3 6.646682529e-15 0)
(3 7.370502565e-15 0)
(3 8.015637283e-15 0)
(3 8.633012954e-15 0)
(3 9.183421621e-15 0)
(3 7.905577031e-15 0)
(3 7.754751763e-15 0)
(3 7.381844241e-15 0)
(3 6.742443425e-15 0)
(3 4.788795337e-15 0)
(3 3.190536665e-15 0)
(3 2.114977885e-15 0)
(3 2.016253586e-15 0)
(3 2.333141628e-15 0)
(3 2.744364381e-15 0)
(3 3.195877858e-15 0)
(3 2.228319225e-15 0)
(3 3.076574691e-15 0)
(3 2.238147947e-15 0)
(3 1.22723816e-15 0)
(3 1.16139304e-15 0)
(3 1.492629321e-15 0)
(3 1.804731841e-15 0)
(3 8.727773798e-16 0)
(3 1.005945495e-15 0)
(3 1.837371013e-15 0)
(3 1.936489911e-15 0)
(3 1.370506341e-15 0)
(3 1.174598812e-15 0)
(3 1.626719399e-15 0)
(3 2.606244607e-15 0)
(3 3.692623397e-15 0)
(3 4.59115709e-15 0)
(3 6.100849008e-15 0)
(3 7.171585594e-15 0)
(3 5.463216079e-15 0)
(3 4.14405903e-15 0)
(3 4.269595204e-15 0)
(3 5.04924011e-15 0)
(3 6.71858721e-15 0)
(3 7.191579945e-15 0)
(3 6.559252625e-15 0)
(3 4.960898041e-15 0)
(3 4.623449688e-15 0)
(3 5.320534174e-15 0)
(3 6.62838114e-15 0)
(3 7.265805691e-15 0)
(3 5.502620422e-15 0)
(3 2.788213457e-15 0)
(3 2.136773121e-15 0)
(3 3.679467224e-15 0)
(3 1.623515399e-15 0)
(3 4.805078742e-16 0)
(3 8.927196023e-17 0)
(3 3.49965515e-16 0)
(3 9.048759038e-16 0)
(3 1.247854371e-15 0)
(3 1.412010724e-15 0)
(3 1.821123864e-15 0)
(3 1.723962742e-15 0)
(3 1.43093205e-15 0)
(3 1.145502755e-15 0)
(3 1.741179858e-15 0)
(3 2.641497105e-15 0)
(3 3.057694039e-15 0)
(3 3.087248073e-15 0)
(3 3.011894098e-15 0)
(3 3.126316587e-15 0)
(3 3.458242704e-15 0)
(3 3.130394259e-15 0)
(3 2.44488913e-15 0)
(3 2.546865478e-15 0)
(3 4.005700299e-15 0)
(3 5.712808294e-15 0)
(3 7.21271801e-15 0)
(3 6.54378195e-15 0)
(3 4.924437661e-15 0)
(3 4.32944637e-15 0)
(3 4.650685782e-15 0)
(3 5.305179843e-15 0)
(3 5.852054493e-15 0)
(3 5.772846154e-15 0)
(3 4.9197176e-15 0)
(3 5.394255699e-15 0)
(3 6.731479532e-15 0)
(3 1.041199774e-15 0)
(3 2.646604217e-16 0)
(3 -2.128474816e-16 0)
(3 -3.304774967e-16 0)
(3 -4.711916743e-16 0)
(3 -5.030666043e-17 0)
(3 7.764235396e-17 0)
(3 -3.590383391e-16 0)
(3 -1.348895087e-15 0)
(3 -1.279366851e-15 0)
(3 -9.539605969e-16 0)
(3 -9.365077326e-16 0)
(3 4.297349562e-17 0)
(3 5.901348164e-16 0)
(3 5.600998544e-16 0)
(3 4.997931503e-17 0)
(3 -1.50662869e-16 0)
(3 -5.778596892e-16 0)
(3 -1.537092581e-16 0)
(3 1.374046786e-15 0)
(3 2.010223751e-15 0)
(3 2.210995898e-15 0)
(3 2.826780396e-15 0)
(3 3.479175687e-15 0)
(3 4.22980381e-15 0)
(3 5.368313954e-15 0)
(3 5.992675563e-15 0)
(3 5.960492116e-15 0)
(3 6.088632893e-15 0)
(3 6.445906731e-15 0)
(3 7.041987871e-15 0)
(3 7.768004135e-15 0)
(3 8.644328996e-15 0)
(3 5.987526174e-15 0)
(3 2.645007559e-15 0)
(3 2.36743008e-15 0)
(3 1.468650056e-15 0)
(3 1.362758829e-16 0)
(3 -3.664249893e-16 0)
(3 -9.66012188e-16 0)
(3 -1.681644276e-15 0)
(3 -2.03295618e-15 0)
(3 -1.923669947e-15 0)
(3 -2.552031302e-15 0)
(3 -3.019996031e-15 0)
(3 -2.903246221e-15 0)
(3 -2.72161414e-15 0)
(3 -2.458430826e-15 0)
(3 -2.08334306e-15 0)
(3 -1.597085906e-15 0)
(3 -1.642255327e-15 0)
(3 -1.950428494e-15 0)
(3 -1.626480612e-15 0)
(3 -1.167601833e-16 0)
(3 1.389745327e-16 0)
(3 2.199862015e-16 0)
(3 -3.32971307e-16 0)
(3 -1.062085281e-15 0)
(3 -1.180321487e-15 0)
(3 2.837979384e-15 0)
(3 6.031931359e-15 0)
(3 6.776223109e-15 0)
(3 7.277164611e-15 0)
(3 7.101333472e-15 0)
(3 6.826439394e-15 0)
(3 7.036475243e-15 0)
(3 6.96549186e-15 0)
(3 6.679188133e-15 0)
(3 3.80302157e-15 0)
(3 1.94796021e-15 0)
(3 -6.631760002e-17 0)
(3 -1.089956854e-15 0)
(3 -6.314663232e-16 0)
(3 -6.431802008e-16 0)
(3 -9.919998013e-16 0)
(3 -9.506814527e-16 0)
(3 -6.589418078e-16 0)
(3 -1.244686516e-15 0)
(3 -1.324824163e-15 0)
(3 -1.114024654e-15 0)
(3 -1.790106321e-15 0)
(3 -1.674632728e-15 0)
(3 -1.294609223e-15 0)
(3 -9.394577337e-16 0)
(3 -1.959150309e-15 0)
(3 -2.449110676e-15 0)
(3 -1.935927769e-15 0)
(3 -7.067358038e-16 0)
(3 -8.106147113e-16 0)
(3 -9.395906927e-16 0)
(3 -1.704200966e-15 0)
(3 -3.127582604e-15 0)
(3 -3.111312436e-15 0)
(3 7.477439705e-16 0)
(3 2.678021634e-15 0)
(3 3.606982555e-15 0)
(3 5.349393343e-15 0)
(3 6.517667328e-15 0)
(3 6.324336787e-15 0)
(3 5.518785851e-15 0)
(3 4.792365359e-15 0)
(3 4.955580945e-15 0)
(3 6.592867845e-16 0)
(3 -4.210932974e-16 0)
(3 -4.302081049e-16 0)
(3 -2.081829747e-16 0)
(3 4.850401743e-16 0)
(3 8.373999315e-16 0)
(3 6.126109137e-16 0)
(3 1.192223861e-16 0)
(3 -8.226713637e-16 0)
(3 -1.310952537e-15 0)
(3 -6.231240717e-16 0)
(3 -5.384948606e-16 0)
(3 -9.642608486e-16 0)
(3 -1.25859597e-15 0)
(3 -1.014524359e-15 0)
(3 -1.161670153e-15 0)
(3 -1.368979864e-15 0)
(3 -8.175727941e-16 0)
(3 -5.182451288e-16 0)
(3 -8.463105076e-16 0)
(3 -9.319612321e-16 0)
(3 -1.243930768e-15 0)
(3 -1.33276329e-15 0)
(3 -9.506822171e-16 0)
(3 -2.655384953e-16 0)
(3 5.052083512e-16 0)
(3 1.633874384e-15 0)
(3 2.587272248e-15 0)
(3 2.418890158e-15 0)
(3 2.112253468e-15 0)
(3 2.066692917e-15 0)
(3 2.77216373e-15 0)
(3 3.084169413e-15 0)
(3 3.858396775e-15 0)
(3 8.008923496e-16 0)
(3 8.786758616e-16 0)
(3 9.894163346e-16 0)
(3 1.3216444e-15 0)
(3 1.278782962e-15 0)
(3 3.209147163e-16 0)
(3 -2.959413994e-16 0)
(3 -7.610453993e-17 0)
(3 -2.137418321e-16 0)
(3 6.747785077e-17 0)
(3 8.869609176e-16 0)
(3 9.010270069e-16 0)
(3 8.208644048e-16 0)
(3 4.413947894e-18 0)
(3 -4.243174181e-16 0)
(3 -6.512277097e-16 0)
(3 -3.561542488e-16 0)
(3 3.31126322e-16 0)
(3 2.658655574e-16 0)
(3 -1.692747355e-20 0)
(3 2.964049146e-16 0)
(3 3.709225039e-16 0)
(3 4.855624188e-16 0)
(3 9.883909301e-16 0)
(3 9.785386285e-16 0)
(3 7.894891684e-16 0)
(3 1.265173476e-15 0)
(3 1.797066921e-15 0)
(3 1.507200079e-15 0)
(3 5.568085413e-16 0)
(3 3.12023735e-16 0)
(3 9.976344084e-16 0)
(3 2.158372575e-15 0)
(3 3.545495709e-15 0)
(3 -5.640033044e-16 0)
(3 -1.789293449e-16 0)
(3 3.642917436e-16 0)
(3 1.441129475e-15 0)
(3 2.755392442e-15 0)
(3 5.826533258e-15 0)
(3 7.704385548e-15 0)
(3 4.309245959e-15 0)
(3 2.223344074e-16 0)
(3 -4.365057191e-15 0)
(3 -3.941441562e-15 0)
(3 -3.189369512e-15 0)
(3 -2.927343471e-15 0)
(3 -4.460107969e-15 0)
(3 -6.051100912e-15 0)
(3 -5.86525344e-15 0)
(3 -5.721728448e-15 0)
(3 -3.516386404e-15 0)
(3 -1.816551835e-15 0)
(3 -1.278863203e-15 0)
(3 -2.501622077e-15 0)
(3 -3.033494077e-15 0)
(3 -3.546819783e-15 0)
(3 -4.604376883e-15 0)
(3 -5.75207608e-15 0)
(3 -7.258562904e-15 0)
(3 -8.062544174e-15 0)
(3 -8.847389437e-15 0)
(3 -7.970645164e-15 0)
(3 1.971888198e-15 0)
(3 -3.507672722e-16 0)
(3 -7.398769702e-16 0)
(3 9.450551036e-16 0)
(3 1.934489457e-15 0)
(3 1.196515932e-15 0)
(3 9.494627516e-16 0)
(3 6.056841624e-16 0)
(3 -7.215790318e-17 0)
(3 5.510357414e-16 0)
(3 2.256977216e-15 0)
(3 2.319296269e-15 0)
(3 1.683243269e-15 0)
(3 1.389284101e-15 0)
(3 1.203198704e-16 0)
(3 -1.196345789e-15 0)
(3 -1.125143328e-15 0)
(3 -1.205051176e-15 0)
(3 -2.209680675e-15 0)
(3 -1.677733567e-15 0)
(3 -3.33468327e-15 0)
(3 -2.416826497e-15 0)
(3 -1.508747334e-15 0)
(3 -1.879443422e-15 0)
(3 -3.671893997e-15 0)
(3 -3.597599383e-15 0)
(3 -3.586612623e-15 0)
(3 -3.205083157e-15 0)
(3 -3.082615639e-15 0)
(3 -3.021800903e-15 0)
(3 -4.214813424e-15 0)
(3 -6.127358592e-15 0)
(3 -7.415007865e-15 0)
(3 5.120446606e-16 0)
(3 6.674984213e-16 0)
(3 8.193297865e-16 0)
(3 1.974727618e-15 0)
(3 2.534400085e-15 0)
(3 2.322395482e-15 0)
(3 1.43759596e-15 0)
(3 -5.030264987e-16 0)
(3 -2.32483014e-15 0)
(3 -2.961585447e-15 0)
(3 -2.266252385e-15 0)
(3 -1.303453818e-15 0)
(3 1.731913987e-15 0)
(3 3.911942456e-15 0)
(3 3.540602238e-15 0)
(3 1.444617568e-15 0)
(3 2.293392862e-16 0)
(3 -3.439631192e-16 0)
(3 2.370481403e-16 0)
(3 1.501455583e-15 0)
(3 1.391403367e-15 0)
(3 -4.304675937e-17 0)
(3 -1.067770012e-15 0)
(3 -1.420303254e-15 0)
(3 -1.499966319e-15 0)
(3 -1.20250023e-15 0)
(3 -3.863648947e-16 0)
(3 -2.900044726e-16 0)
(3 -1.447343103e-15 0)
(3 -1.742381223e-15 0)
(3 -1.269269662e-15 0)
(3 -1.602798377e-15 0)
(3 -9.918194793e-16 0)
(3 6.664625235e-16 0)
(3 6.586861404e-16 0)
(3 8.731167983e-16 0)
(3 1.610918204e-15 0)
(3 1.866685825e-15 0)
(3 3.084545346e-15 0)
(3 1.74040726e-15 0)
(3 4.533303619e-17 0)
(3 -1.311550074e-15 0)
(3 -2.617696214e-15 0)
(3 -4.663823214e-15 0)
(3 -5.871437564e-15 0)
(3 -2.40909474e-15 0)
(3 6.573223932e-16 0)
(3 1.082737759e-15 0)
(3 1.947299329e-15 0)
(3 1.737458333e-15 0)
(3 4.017515739e-16 0)
(3 1.838319067e-15 0)
(3 3.330325347e-15 0)
(3 5.080136291e-15 0)
(3 3.331176807e-15 0)
(3 2.0588227e-15 0)
(3 6.782108537e-16 0)
(3 6.675891467e-17 0)
(3 1.321357051e-16 0)
(3 -3.239824072e-16 0)
(3 -1.39516934e-15 0)
(3 -1.827009943e-15 0)
(3 -2.263828302e-15 0)
(3 -1.912936263e-15 0)
(3 -6.220062799e-16 0)
(3 4.791684514e-16 0)
(3 4.029200719e-15 0)
(3 1.900499699e-15 0)
(3 1.37528202e-15 0)
(3 9.866807611e-16 0)
(3 3.116751842e-16 0)
(3 6.996348259e-17 0)
(3 -1.332150237e-16 0)
(3 -2.012021054e-15 0)
(3 -2.817718969e-15 0)
(3 -3.407707227e-15 0)
(3 -6.089084051e-15 0)
(3 -6.159362006e-15 0)
(3 -5.02445902e-15 0)
(3 -3.356334303e-15 0)
(3 -1.54413831e-15 0)
(3 6.003568681e-16 0)
(3 3.727231277e-15 0)
(3 4.132807839e-15 0)
(3 4.390921048e-15 0)
(3 6.308399117e-15 0)
(3 6.161331732e-15 0)
(3 3.958708299e-15 0)
(3 4.009093827e-15 0)
(3 2.753936247e-15 0)
(3 2.418602527e-15 0)
(3 1.303849099e-15 0)
(3 -8.768513518e-16 0)
(3 -2.998631028e-15 0)
(3 -3.159548256e-15 0)
(3 -3.321322738e-15 0)
(3 -3.703781247e-15 0)
(3 -3.600800512e-15 0)
(3 -3.226158156e-15 0)
(3 5.764013868e-15 0)
(3 2.028384415e-15 0)
(3 -2.296367671e-16 0)
(3 -1.355486253e-15 0)
(3 -1.411537084e-15 0)
(3 -2.451407506e-15 0)
(3 -3.064647537e-15 0)
(3 -4.409346186e-15 0)
(3 -5.971511859e-15 0)
(3 -6.853504795e-15 0)
(3 -6.991271487e-15 0)