/*--------------------------------*- C++ -*----------------------------------*\
  =========                 |
  \\      /  F ield         | OpenFOAM: The Open Source CFD Toolbox
   \\    /   O peration     | Website:  https://openfoam.org
    \\  /    A nd           | Version:  7
     \\/     M anipulation  |
\*---------------------------------------------------------------------------*/
FoamFile
{
    version     2.0;
    format      ascii;
    class       volVectorField;
    location    "4.8";
    object      U;
}
// * * * * * * * * * * * * * * * * * * * * * * * * * * * * * * * * * * * * * //

dimensions      [0 1 -1 0 0 0 0];

internalField   nonuniform List<vector> 
2222
(
(3 4.657113004e-16 0)
(3 -2.463918935e-15 0)
(3 -2.496820762e-15 0)
(3 -3.869723945e-15 0)
(3 -4.21853472e-15 0)
(3 -6.061773569e-15 0)
(3 -7.213254159e-15 0)
(3 -7.776835379e-15 0)
(3 -7.92259302e-15 0)
(3 -8.445783837e-15 0)
(3 -9.085805874e-15 0)
(3 -9.04482745e-15 0)
(3 -7.997979158e-15 0)
(3 -9.380796799e-15 0)
(3 -1.017762022e-14 0)
(3 -1.162169999e-14 0)
(3 -1.120377763e-14 0)
(3 -9.17005585e-15 0)
(3 -7.042813357e-15 0)
(3 -5.045144074e-15 0)
(3 -3.175534352e-15 0)
(3 -1.813964208e-15 0)
(3 -8.330192794e-16 0)
(3 3.727453719e-17 0)
(3 9.432124575e-16 0)
(3 1.425363955e-15 0)
(3 7.6086758e-16 0)
(3 -5.287137051e-15 0)
(3 -4.310699863e-15 0)
(3 -3.711787647e-15 0)
(3 -3.184157726e-15 0)
(3 -3.501016622e-15 0)
(3 -5.311168609e-15 0)
(3 -8.699585886e-15 0)
(3 -8.075691187e-15 0)
(3 -8.106314195e-15 0)
(3 -8.412475431e-15 0)
(3 -5.442755097e-15 0)
(3 -2.382767581e-15 0)
(3 -1.235222883e-15 0)
(3 -1.535144267e-15 0)
(3 -2.581390372e-15 0)
(3 -3.327684431e-15 0)
(3 -3.456251708e-15 0)
(3 -1.807814622e-15 0)
(3 -3.731582262e-15 0)
(3 -5.455422547e-15 0)
(3 -4.901598383e-15 0)
(3 -3.774315866e-15 0)
(3 -1.499956651e-15 0)
(3 1.091237702e-15 0)
(3 2.299100794e-15 0)
(3 3.001337546e-15 0)
(3 2.725709671e-15 0)
(3 2.134903494e-15 0)
(3 -1.763911552e-15 0)
(3 -2.262531708e-15 0)
(3 -2.963780979e-15 0)
(3 -3.247074852e-15 0)
(3 -4.509773282e-15 0)
(3 -5.787266661e-15 0)
(3 -5.42815516e-15 0)
(3 -5.459164318e-15 0)
(3 -3.925084088e-15 0)
(3 -1.88862673e-15 0)
(3 -8.600190216e-16 0)
(3 -7.604275227e-16 0)
(3 -9.88560512e-16 0)
(3 -1.295677512e-15 0)
(3 -2.684988243e-15 0)
(3 -3.16339561e-15 0)
(3 -3.780726006e-15 0)
(3 -3.574395539e-15 0)
(3 -2.69858246e-15 0)
(3 -2.348487924e-15 0)
(3 -3.937362927e-15 0)
(3 -5.434826719e-15 0)
(3 -3.644865823e-15 0)
(3 -5.5442144e-16 0)
(3 1.190529534e-15 0)
(3 3.571018171e-15 0)
(3 4.477924733e-15 0)
(3 4.71157308e-15 0)
(3 3.32817041e-15 0)
(3 -2.036744018e-17 0)
(3 -6.221722838e-16 0)
(3 -6.660583801e-16 0)
(3 -2.623325205e-16 0)
(3 1.43859296e-15 0)
(3 2.881619345e-15 0)
(3 5.972931659e-15 0)
(3 6.408620642e-15 0)
(3 6.956460663e-15 0)
(3 -5.621301945e-15 0)
(3 -5.123369852e-15 0)
(3 -5.141460363e-15 0)
(3 -5.343678916e-15 0)
(3 -4.644352447e-15 0)
(3 -4.011498206e-15 0)
(3 -2.828781961e-15 0)
(3 -3.122949453e-15 0)
(3 -1.634930134e-15 0)
(3 1.040050808e-16 0)
(3 1.975155193e-15 0)
(3 1.325924073e-15 0)
(3 -2.038613447e-15 0)
(3 -3.461300838e-15 0)
(3 -4.759291213e-15 0)
(3 -5.051228169e-15 0)
(3 -5.099755179e-15 0)
(3 -4.694559324e-15 0)
(3 -3.16063718e-15 0)
(3 -2.500340926e-15 0)
(3 -2.146798258e-15 0)
(3 -6.432464794e-16 0)
(3 -2.635947124e-15 0)
(3 -2.732996271e-15 0)
(3 -1.376586674e-15 0)
(3 -7.892934716e-16 0)
(3 9.531081469e-16 0)
(3 2.441915047e-15 0)
(3 3.384462906e-15 0)
(3 2.58854148e-15 0)
(3 9.05273733e-16 0)
(3 8.81925278e-16 0)
(3 2.657294907e-15 0)
(3 4.741942868e-15 0)
(3 5.93729582e-15 0)
(3 6.387657787e-15 0)
(3 4.884888212e-15 0)
(3 4.485051752e-15 0)
(3 2.170226856e-15 0)
(3 1.213566298e-15 0)
(3 2.224649451e-15 0)
(3 1.32462041e-15 0)
(3 -3.774189871e-15 0)
(3 -6.336770214e-15 0)
(3 -5.837774224e-15 0)
(3 -6.374672829e-15 0)
(3 -6.158406837e-15 0)
(3 -6.767487287e-15 0)
(3 -6.897337905e-15 0)
(3 -6.224706485e-15 0)
(3 -4.393554152e-15 0)
(3 -4.014169557e-15 0)
(3 -4.253292786e-15 0)
(3 -3.055123467e-15 0)
(3 6.087058041e-16 0)
(3 1.568068895e-15 0)
(3 1.308921375e-15 0)
(3 1.479521064e-16 0)
(3 -3.190868916e-16 0)
(3 -1.466972516e-15 0)
(3 -1.701177798e-15 0)
(3 -1.206841427e-15 0)
(3 -2.141091563e-15 0)
(3 -4.136335753e-15 0)
(3 -3.989276507e-15 0)
(3 -2.792440057e-15 0)
(3 -6.589606595e-16 0)
(3 -2.601775345e-17 0)
(3 -4.941708698e-16 0)
(3 7.876664135e-16 0)
(3 7.762577871e-16 0)
(3 1.907925629e-15 0)
(3 2.091426028e-15 0)
(3 2.930905764e-15 0)
(3 3.232219551e-15 0)
(3 4.067579349e-15 0)
(3 3.848099292e-15 0)
(3 4.11920366e-15 0)
(3 5.531189377e-15 0)
(3 5.182857884e-15 0)
(3 4.034599453e-15 0)
(3 3.038323168e-15 0)
(3 3.47599529e-15 0)
(3 2.635856322e-15 0)
(3 2.390032632e-15 0)
(3 5.219684481e-16 0)
(3 -1.541832201e-15 0)
(3 -6.012746328e-15 0)
(3 -8.273730646e-15 0)
(3 -1.010271912e-14 0)
(3 -1.013354487e-14 0)
(3 -8.965867014e-15 0)
(3 -9.154631548e-15 0)
(3 -1.098242492e-14 0)
(3 -1.194746376e-14 0)
(3 -1.268302049e-14 0)
(3 -1.225116907e-14 0)
(3 -1.145645611e-14 0)
(3 -1.023757945e-14 0)
(3 -9.997719192e-15 0)
(3 -1.04478703e-14 0)
(3 -5.422998286e-15 0)
(3 -7.355636974e-15 0)
(3 -8.617861018e-15 0)
(3 -9.688990681e-15 0)
(3 -9.988869181e-15 0)
(3 -7.971269426e-15 0)
(3 -4.577223877e-15 0)
(3 -1.182590408e-15 0)
(3 -2.902442178e-16 0)
(3 -2.420356047e-15 0)
(3 -2.899643846e-15 0)
(3 -4.343749844e-15 0)
(3 -6.484946223e-15 0)
(3 -7.946086438e-15 0)
(3 -7.340133415e-15 0)
(3 -5.402693866e-15 0)
(3 -2.627618596e-15 0)
(3 -2.352263438e-15 0)
(3 -3.765416917e-15 0)
(3 -2.438651184e-15 0)
(3 1.106044771e-15 0)
(3 2.17725801e-15 0)
(3 2.6101507e-15 0)
(3 3.467687054e-15 0)
(3 3.437303258e-15 0)
(3 2.437392916e-15 0)
(3 1.289073245e-15 0)
(3 5.229251562e-16 0)
(3 2.039889797e-15 0)
(3 3.800854226e-15 0)
(3 6.577516361e-15 0)
(3 7.106877331e-15 0)
(3 7.012616362e-15 0)
(3 5.539411809e-15 0)
(3 2.555433317e-15 0)
(3 1.560893738e-15 0)
(3 2.316132624e-15 0)
(3 3.330557907e-15 0)
(3 2.511546971e-15 0)
(3 -2.923029672e-16 0)
(3 -5.369980217e-15 0)
(3 -7.729660409e-15 0)
(3 -7.664048344e-15 0)
(3 -7.642815172e-15 0)
(3 -6.824472817e-15 0)
(3 -4.801769651e-15 0)
(3 -3.897762911e-15 0)
(3 -4.884029401e-15 0)
(3 -7.506926596e-15 0)
(3 -9.558077421e-15 0)
(3 -1.006149776e-14 0)
(3 -1.059413455e-14 0)
(3 -1.087552901e-14 0)
(3 -1.051336485e-14 0)
(3 -8.857344701e-15 0)
(3 -6.577876157e-15 0)
(3 -5.253779915e-15 0)
(3 -2.163511552e-15 0)
(3 -4.504084752e-16 0)
(3 -8.69495111e-16 0)
(3 -9.635518792e-17 0)
(3 -7.249459253e-16 0)
(3 -3.481208953e-15 0)
(3 -3.028608352e-15 0)
(3 -2.633072818e-15 0)
(3 -3.358858407e-15 0)
(3 -3.908525169e-15 0)
(3 -3.071423435e-15 0)
(3 -1.500881125e-15 0)
(3 -6.951442334e-17 0)
(3 -9.582382179e-16 0)
(3 -3.21631329e-15 0)
(3 -3.493660855e-15 0)
(3 -3.929233169e-15 0)
(3 -5.204390194e-15 0)
(3 -6.3390554e-15 0)
(3 -7.759946772e-15 0)
(3 -3.358230852e-15 0)
(3 -1.634747308e-15 0)
(3 -1.16122905e-15 0)
(3 -9.99024561e-16 0)
(3 2.970687557e-15 0)
(3 5.549576048e-15 0)
(3 5.901293892e-15 0)
(3 5.919241308e-15 0)
(3 5.442412941e-15 0)
(3 4.837889071e-15 0)
(3 1.213072633e-15 0)
(3 -1.927572962e-15 0)
(3 -2.040234081e-15 0)
(3 7.09846905e-16 0)
(3 3.295361187e-15 0)
(3 5.072962368e-15 0)
(3 5.000119509e-15 0)
(3 4.57617691e-15 0)
(3 3.192260514e-15 0)
(3 2.777003141e-15 0)
(3 1.778466145e-15 0)
(3 1.260681733e-16 0)
(3 -2.626959132e-17 0)
(3 -3.148186681e-15 0)
(3 -3.187417373e-15 0)
(3 -4.157951056e-15 0)
(3 -5.628430569e-15 0)
(3 -6.680065553e-15 0)
(3 -5.352648444e-15 0)
(3 -3.625595022e-15 0)
(3 -3.301874899e-15 0)
(3 -2.67338178e-15 0)
(3 -1.610270221e-15 0)
(3 -2.114668003e-15 0)
(3 -2.858239953e-15 0)
(3 -3.362705769e-15 0)
(3 -2.439712755e-15 0)
(3 -5.070168843e-16 0)
(3 1.677530892e-15 0)
(3 2.732635295e-15 0)
(3 3.855341746e-15 0)
(3 5.27036487e-15 0)
(3 5.995613989e-15 0)
(3 6.562768061e-15 0)
(3 5.710735723e-15 0)
(3 5.043800299e-15 0)
(3 3.126966197e-15 0)
(3 1.207656904e-15 0)
(3 -6.256167883e-16 0)
(3 -3.042958206e-15 0)
(3 -5.816163998e-15 0)
(3 -7.120606953e-15 0)
(3 -2.051916474e-15 0)
(3 -1.049430617e-15 0)
(3 2.249122839e-16 0)
(3 2.03120462e-16 0)
(3 -3.676661417e-16 0)
(3 -7.257339209e-16 0)
(3 -1.445798053e-15 0)
(3 -2.460377122e-15 0)
(3 -3.382660148e-15 0)
(3 -1.543003236e-16 0)
(3 5.786480186e-16 0)
(3 1.635920179e-15 0)
(3 8.735078435e-16 0)
(3 1.17250539e-15 0)
(3 -3.710502461e-16 0)
(3 -2.355668131e-15 0)
(3 -7.363995284e-16 0)
(3 1.804165713e-15 0)
(3 3.613725907e-15 0)
(3 4.146093709e-15 0)
(3 3.213906375e-15 0)
(3 1.435297005e-15 0)
(3 -4.830766304e-16 0)
(3 -2.088106118e-15 0)
(3 -2.741221977e-15 0)
(3 -3.552590107e-15 0)
(3 -3.301371276e-15 0)
(3 -2.767784454e-15 0)
(3 -1.41181186e-15 0)
(3 2.577195443e-16 0)
(3 1.30529446e-15 0)
(3 1.095672433e-15 0)
(3 1.692809587e-15 0)
(3 1.496252141e-15 0)
(3 1.147213377e-16 0)
(3 -8.57893759e-16 0)
(3 -2.740224403e-15 0)
(3 -7.046010333e-15 0)
(3 -1.060447711e-14 0)
(3 -1.18448297e-14 0)
(3 -1.089633437e-14 0)
(3 -8.593659034e-15 0)
(3 -7.284068366e-15 0)
(3 -4.40297559e-15 0)
(3 -4.024741202e-15 0)
(3 -3.260520401e-15 0)
(3 -2.97520298e-15 0)
(3 -3.041049514e-15 0)
(3 -1.845173065e-15 0)
(3 2.610534166e-16 0)
(3 1.435652504e-15 0)
(3 2.372099367e-15 0)
(3 3.660014009e-15 0)
(3 5.574586502e-15 0)
(3 5.232164311e-15 0)
(3 5.714869909e-15 0)
(3 5.432843908e-15 0)
(3 6.499126541e-15 0)
(3 6.97912377e-15 0)
(3 6.379797497e-15 0)
(3 4.73744119e-15 0)
(3 1.413141459e-15 0)
(3 -4.313385775e-16 0)
(3 -5.323393477e-15 0)
(3 -6.479075442e-15 0)
(3 -1.121401416e-14 0)
(3 -1.436825965e-14 0)
(3 -4.414504127e-15 0)
(3 -4.979137772e-15 0)
(3 -4.250417775e-15 0)
(3 -2.317528488e-15 0)
(3 -1.46025103e-15 0)
(3 -1.592074226e-15 0)
(3 -1.315037542e-15 0)
(3 -4.142584043e-15 0)
(3 -5.190008059e-15 0)
(3 -5.144722453e-15 0)
(3 -4.902610377e-15 0)
(3 -3.326528914e-15 0)
(3 -5.855365107e-16 0)
(3 2.041030096e-16 0)
(3 7.883379681e-17 0)
(3 -2.215742141e-16 0)
(3 -6.812983774e-16 0)
(3 9.518916711e-17 0)
(3 5.915210113e-16 0)
(3 2.304869839e-16 0)
(3 -7.541161114e-16 0)
(3 -1.422287161e-15 0)
(3 -1.474416483e-15 0)
(3 -7.386247707e-16 0)
(3 8.098852239e-16 0)
(3 2.986043076e-15 0)
(3 3.587799458e-15 0)
(3 1.89972405e-15 0)
(3 -4.405629891e-17 0)
(3 -1.804683577e-15 0)
(3 -2.037278753e-15 0)
(3 -4.068074162e-15 0)
(3 -5.302803205e-15 0)
(3 -7.283320782e-15 0)
(3 -8.821635218e-15 0)
(3 -8.770370214e-15 0)
(3 -9.761818116e-15 0)
(3 -1.130219229e-14 0)
(3 -1.170449914e-14 0)
(3 -1.186496456e-14 0)
(3 -8.011619346e-15 0)
(3 -5.892531382e-15 0)
(3 -2.603095242e-15 0)
(3 -1.960862469e-15 0)
(3 -1.282007294e-15 0)
(3 -1.909437008e-15 0)
(3 -3.954322938e-15 0)
(3 -3.593403217e-15 0)
(3 -1.986853356e-15 0)
(3 -8.561600051e-16 0)
(3 2.733869244e-16 0)
(3 1.021916155e-15 0)
(3 8.87005222e-16 0)
(3 -6.51466643e-16 0)
(3 -1.250528189e-16 0)
(3 3.185563109e-15 0)
(3 5.988849109e-15 0)
(3 7.095633021e-15 0)
(3 7.150424648e-15 0)
(3 5.021244784e-15 0)
(3 2.17936757e-15 0)
(3 -2.798057025e-15 0)
(3 -9.353908924e-15 0)
(3 -1.065409463e-14 0)
(3 -1.146409404e-14 0)
(3 -1.286840977e-14 0)
(3 -1.1952999e-14 0)
(3 -3.100803122e-15 0)
(3 -4.832549381e-15 0)
(3 -5.330747525e-15 0)
(3 -4.329063503e-15 0)
(3 -2.561754441e-15 0)
(3 -1.710290643e-15 0)
(3 -1.580072796e-15 0)
(3 -4.767192458e-16 0)
(3 3.234071545e-16 0)
(3 8.649327059e-16 0)
(3 1.82884719e-16 0)
(3 1.426961498e-15 0)
(3 2.367432255e-15 0)
(3 2.309926465e-15 0)
(3 4.44438067e-15 0)
(3 5.900228772e-15 0)
(3 5.247509756e-15 0)
(3 5.033191357e-15 0)
(3 5.375466165e-15 0)
(3 4.488491225e-15 0)
(3 2.321952339e-15 0)
(3 2.203237548e-16 0)
(3 -1.979347196e-15 0)
(3 -2.810542878e-15 0)
(3 -2.179373838e-15 0)
(3 -1.863981194e-16 0)
(3 3.095451392e-15 0)
(3 4.588669991e-15 0)
(3 3.541524589e-15 0)
(3 5.831960199e-16 0)
(3 -1.475291541e-15 0)
(3 -3.428400068e-15 0)
(3 -7.018143324e-15 0)
(3 -8.079101323e-15 0)
(3 -8.311546989e-15 0)
(3 -8.848884084e-15 0)
(3 -9.8315298e-15 0)
(3 -9.287492825e-15 0)
(3 -7.681221851e-15 0)
(3 -6.269956705e-15 0)
(3 -4.813990864e-15 0)
(3 -3.463849174e-15 0)
(3 -1.805770555e-15 0)
(3 -1.552063355e-15 0)
(3 -2.087623505e-15 0)
(3 -1.977203803e-15 0)
(3 -1.98310348e-15 0)
(3 -2.295027313e-15 0)
(3 -2.435564122e-15 0)
(3 -1.641822823e-15 0)
(3 -6.820647879e-16 0)
(3 7.643554315e-16 0)
(3 3.916265297e-16 0)
(3 1.183243124e-15 0)
(3 3.259772901e-15 0)
(3 4.770396471e-15 0)
(3 7.036503879e-15 0)
(3 6.747841925e-15 0)
(3 5.963096919e-15 0)
(3 3.845519179e-15 0)
(3 -2.024054465e-15 0)
(3 -7.080389513e-15 0)
(3 -1.160255519e-14 0)
(3 -1.282843603e-14 0)
(3 -1.406054039e-14 0)
(3 -1.307060001e-14 0)
(3 -8.584624454e-15 0)
(3 3.489741719e-15 0)
(3 2.501114862e-15 0)
(3 1.618227468e-15 0)
(3 2.559692437e-15 0)
(3 3.042457445e-15 0)
(3 5.551914802e-15 0)
(3 5.993905497e-15 0)
(3 5.563100629e-15 0)
(3 5.503874627e-15 0)
(3 3.339787162e-15 0)
(3 1.899817194e-15 0)
(3 2.963220807e-15 0)
(3 3.070827618e-15 0)
(3 4.117868134e-15 0)
(3 6.127084763e-15 0)
(3 6.733407658e-15 0)
(3 6.567221594e-15 0)
(3 5.849482942e-15 0)
(3 5.041348052e-15 0)
(3 3.89377594e-15 0)
(3 3.581285478e-15 0)
(3 3.162520555e-15 0)
(3 3.243156348e-15 0)
(3 1.830362969e-15 0)
(3 -2.370754332e-16 0)
(3 1.880951973e-15 0)
(3 2.767904528e-15 0)
(3 5.00715667e-15 0)
(3 5.565727811e-15 0)
(3 5.980605414e-15 0)
(3 4.356078752e-15 0)
(3 2.109954823e-15 0)
(3 -9.503677603e-16 0)
(3 -5.171806816e-15 0)
(3 -7.400045707e-15 0)
(3 -8.672035619e-15 0)
(3 -8.530129797e-15 0)
(3 -9.004232888e-15 0)
(3 -7.871576799e-15 0)
(3 -5.386314756e-15 0)
(3 -3.708371503e-15 0)
(3 -1.729966555e-15 0)
(3 -2.379449065e-16 0)
(3 -1.936145128e-17 0)
(3 -1.084357279e-15 0)
(3 -9.638232019e-16 0)
(3 -7.945077618e-17 0)
(3 1.823052159e-15 0)
(3 2.267314853e-15 0)
(3 1.975698319e-15 0)
(3 1.154546633e-16 0)
(3 -2.366499629e-15 0)
(3 -3.088547287e-15 0)
(3 -6.870852203e-17 0)
(3 1.51271601e-15 0)
(3 2.249573121e-15 0)
(3 2.404618637e-15 0)
(3 -6.584386434e-17 0)
(3 -3.928460715e-15 0)
(3 -8.855589415e-15 0)
(3 -1.007739305e-14 0)
(3 -1.010568257e-14 0)
(3 -8.262050578e-15 0)
(3 -8.79602781e-15 0)
(3 -6.088081979e-15 0)
(3 -4.447196462e-15 0)
(3 -1.826243582e-15 0)
(3 9.488170022e-15 0)
(3 1.002722654e-14 0)
(3 7.852008288e-15 0)
(3 3.824378579e-15 0)
(3 1.367681549e-15 0)
(3 2.48143967e-15 0)
(3 3.923778683e-15 0)
(3 5.254450694e-15 0)
(3 4.600085677e-15 0)
(3 2.487766685e-15 0)
(3 2.167254531e-15 0)
(3 1.942628336e-15 0)
(3 2.464679267e-15 0)
(3 4.578503219e-15 0)
(3 5.3842416e-15 0)
(3 4.061146602e-15 0)
(3 3.924321382e-15 0)
(3 4.885126257e-15 0)
(3 5.893500114e-15 0)
(3 4.98575803e-15 0)
(3 3.503510456e-15 0)
(3 1.238735465e-15 0)
(3 1.12996937e-15 0)
(3 -1.642592956e-15 0)
(3 -2.435633812e-15 0)
(3 -5.026758062e-16 0)
(3 2.523106314e-15 0)
(3 6.958652061e-15 0)
(3 9.104029075e-15 0)
(3 7.764854747e-15 0)
(3 7.205296049e-15 0)
(3 5.914437198e-15 0)
(3 5.266507835e-15 0)
(3 1.516839949e-15 0)
(3 -2.728936488e-15 0)
(3 -4.572316605e-15 0)
(3 -6.889352776e-15 0)
(3 -7.074569898e-15 0)
(3 -5.874217218e-15 0)
(3 -5.561349197e-15 0)
(3 -5.200049323e-15 0)
(3 -4.192436939e-15 0)
(3 -3.068339134e-15 0)
(3 -2.821920968e-15 0)
(3 -2.395373679e-15 0)
(3 -2.01686848e-15 0)
(3 -2.237104336e-15 0)
(3 6.275824278e-17 0)
(3 9.081992271e-16 0)
(3 -5.451213572e-18 0)
(3 -6.586566042e-16 0)
(3 -2.376667602e-15 0)
(3 -3.5872116e-15 0)
(3 -2.133285666e-15 0)
(3 -3.218743965e-15 0)
(3 -4.556280437e-15 0)
(3 -7.314101203e-15 0)
(3 -1.044490293e-14 0)
(3 -1.04459394e-14 0)
(3 -9.784270582e-15 0)
(3 -7.925306379e-15 0)
(3 -5.91879098e-15 0)
(3 -3.563155611e-15 0)
(3 -9.23848239e-16 0)
(3 4.801867775e-15 0)
(3 6.907130668e-15 0)
(3 7.339962524e-15 0)
(3 5.565959531e-15 0)
(3 7.180584317e-15 0)
(3 8.215646729e-15 0)
(3 8.413579939e-15 0)
(3 7.060341523e-15 0)
(3 4.15543448e-15 0)
(3 6.385532072e-15 0)
(3 7.90313597e-15 0)
(3 6.460007534e-15 0)
(3 5.446240278e-15 0)
(3 6.00723889e-15 0)
(3 5.85062782e-15 0)
(3 6.826351751e-15 0)
(3 7.934808538e-15 0)
(3 7.80939579e-15 0)
(3 7.480424911e-15 0)
(3 7.54406284e-15 0)
(3 1.018823789e-14 0)
(3 7.424642351e-15 0)
(3 5.515593446e-15 0)
(3 4.872474486e-15 0)
(3 3.705803038e-15 0)
(3 3.747463048e-15 0)
(3 2.882793075e-15 0)
(3 2.145685002e-15 0)
(3 -1.204337397e-15 0)
(3 -2.382083293e-15 0)
(3 1.08233942e-15 0)
(3 6.893153127e-15 0)
(3 1.110159448e-14 0)
(3 1.018896128e-14 0)
(3 9.362151412e-15 0)
(3 9.070582645e-15 0)
(3 7.404475014e-15 0)
(3 5.844585513e-15 0)
(3 9.878904488e-16 0)
(3 -5.448187902e-17 0)
(3 7.555442196e-16 0)
(3 1.103226461e-15 0)
(3 1.320799091e-15 0)
(3 -8.905961444e-17 0)
(3 -1.387016084e-15 0)
(3 -1.67601968e-15 0)
(3 -2.004533667e-15 0)
(3 -1.511868857e-15 0)
(3 -1.32782715e-16 0)
(3 1.708631552e-15 0)
(3 2.735778024e-15 0)
(3 3.707868141e-15 0)
(3 4.999275786e-15 0)
(3 3.766361137e-15 0)
(3 3.146500546e-15 0)
(3 1.75383534e-15 0)
(3 -1.488327563e-15 0)
(3 -7.359728452e-15 0)
(3 -1.028639306e-14 0)
(3 -1.091915865e-14 0)
(3 -8.330345863e-15 0)
(3 -6.402494509e-15 0)
(3 -4.691609508e-15 0)
(3 -2.922605826e-15 0)
(3 1.239348396e-15 0)
(3 4.034672899e-15 0)
(3 6.82538111e-15 0)
(3 1.255597017e-14 0)
(3 1.537879098e-14 0)
(3 1.601162937e-14 0)
(3 -1.719475883e-15 0)
(3 -1.861840029e-15 0)
(3 -1.555093226e-15 0)
(3 -7.907326056e-17 0)
(3 8.296905769e-16 0)
(3 1.201573045e-15 0)
(3 7.458247592e-15 0)
(3 8.800008994e-15 0)
(3 9.61114716e-15 0)
(3 1.025964542e-14 0)
(3 9.655270074e-15 0)
(3 8.317485301e-15 0)
(3 7.338143524e-15 0)
(3 6.673160828e-15 0)
(3 6.09930959e-15 0)
(3 6.572524673e-15 0)
(3 7.931238172e-15 0)
(3 7.692996271e-15 0)
(3 5.333656847e-15 0)
(3 4.113234746e-15 0)
(3 8.651607797e-15 0)
(3 1.051669131e-14 0)
(3 8.988535774e-15 0)
(3 7.183144338e-15 0)
(3 4.022812819e-15 0)
(3 -6.871709226e-16 0)
(3 -2.824399899e-15 0)
(3 -2.263080515e-15 0)
(3 -5.14911994e-16 0)
(3 1.065293137e-15 0)
(3 5.245626662e-15 0)
(3 6.582219168e-15 0)
(3 6.597289733e-15 0)
(3 6.782410078e-15 0)
(3 5.189672477e-15 0)
(3 3.629338451e-15 0)
(3 1.815454208e-15 0)
(3 1.584418856e-15 0)
(3 -2.333037337e-16 0)
(3 -1.707320503e-15 0)
(3 -3.426401736e-15 0)
(3 -4.925706953e-15 0)
(3 -6.353408822e-15 0)
(3 -6.375230293e-15 0)
(3 -4.599884014e-15 0)
(3 -3.527642853e-16 0)
(3 3.121293173e-15 0)
(3 5.037451555e-15 0)
(3 5.206312143e-15 0)
(3 4.964399756e-15 0)
(3 4.180120858e-15 0)
(3 1.995281642e-15 0)
(3 -1.453372986e-15 0)
(3 -4.41419195e-15 0)
(3 -1.025987973e-14 0)
(3 -1.328463424e-14 0)
(3 -1.239604377e-14 0)
(3 -1.170887528e-14 0)
(3 -8.961826476e-15 0)
(3 -5.942401068e-15 0)
(3 -2.224270975e-15 0)
(3 -2.416921531e-16 0)
(3 2.897719653e-15 0)
(3 7.807382936e-15 0)
(3 1.194232949e-14 0)
(3 1.476835812e-14 0)
(3 1.535347017e-14 0)
(3 -4.161526793e-15 0)
(3 -5.157094226e-15 0)
(3 -4.029365058e-15 0)
(3 -2.658935306e-15 0)
(3 -1.654500587e-16 0)
(3 1.205239678e-15 0)
(3 2.923070451e-15 0)
(3 3.879792589e-15 0)
(3 5.627362529e-15 0)
(3 6.75541381e-15 0)
(3 6.831440696e-15 0)
(3 5.917785387e-15 0)
(3 5.505615999e-15 0)
(3 7.502130599e-15 0)
(3 8.406245403e-15 0)
(3 9.307688331e-15 0)
(3 8.593535992e-15 0)
(3 7.058712789e-15 0)
(3 5.954150042e-15 0)
(3 4.665528221e-15 0)
(3 5.676483669e-15 0)
(3 6.54561897e-15 0)
(3 6.437473624e-15 0)
(3 4.229767865e-15 0)
(3 7.053595916e-16 0)
(3 -1.338458866e-15 0)
(3 -2.953017962e-15 0)
(3 -3.7512018e-15 0)
(3 -4.270191396e-15 0)
(3 -6.218278119e-15 0)
(3 -4.692819404e-15 0)
(3 -3.389722473e-15 0)
(3 -1.532758829e-15 0)
(3 5.990981105e-17 0)
(3 2.249337394e-16 0)
(3 4.243627644e-16 0)
(3 1.330410991e-15 0)
(3 1.019081485e-15 0)
(3 -1.517476407e-15 0)
(3 -4.199565798e-15 0)
(3 -5.240913572e-15 0)
(3 -6.152303087e-15 0)
(3 -6.709781147e-15 0)
(3 -5.568095365e-15 0)
(3 -5.149296938e-15 0)
(3 -3.211785008e-15 0)
(3 -4.058955754e-16 0)
(3 1.406919402e-16 0)
(3 -1.72091441e-18 0)
(3 9.204615882e-17 0)
(3 1.493980882e-15 0)
(3 2.77274561e-15 0)
(3 1.841587298e-15 0)
(3 6.316173709e-17 0)
(3 -4.456443326e-15 0)
(3 -8.665745384e-15 0)
(3 -1.236989763e-14 0)
(3 -1.297532086e-14 0)
(3 -1.145052066e-14 0)
(3 -9.140208477e-15 0)
(3 -6.445015171e-15 0)
(3 -5.322052301e-16 0)
(3 2.752547057e-15 0)
(3 5.674091831e-15 0)
(3 7.250966414e-15 0)
(3 8.972238926e-15 0)
(3 9.453758998e-15 0)
(3 4.612659617e-15 0)
(3 5.775403767e-15 0)
(3 5.75482117e-15 0)
(3 4.399015384e-15 0)
(3 1.944768526e-15 0)
(3 2.132075057e-15 0)
(3 1.49307164e-15 0)
(3 2.739896983e-15 0)
(3 3.322576072e-15 0)
(3 4.094938111e-15 0)
(3 5.461585246e-15 0)
(3 6.778446757e-15 0)
(3 8.300963445e-15 0)
(3 7.219116818e-15 0)
(3 6.902777026e-15 0)
(3 6.642701541e-15 0)
(3 6.448445575e-15 0)
(3 3.598908065e-15 0)
(3 1.546077777e-15 0)
(3 9.489222849e-16 0)
(3 2.905618438e-15 0)
(3 5.614535881e-15 0)
(3 7.385899115e-15 0)
(3 5.271205975e-15 0)
(3 3.73949748e-15 0)
(3 4.115254699e-15 0)
(3 1.989475743e-15 0)
(3 7.208784049e-17 0)
(3 -2.103023668e-15 0)
(3 -3.151501277e-15 0)
(3 -3.930032008e-15 0)
(3 -3.554491738e-15 0)
(3 -3.022914361e-15 0)
(3 -4.223174857e-15 0)
(3 -3.807982684e-15 0)
(3 -2.208700977e-15 0)
(3 -4.385458746e-15 0)
(3 -5.597740384e-15 0)
(3 -7.039761058e-15 0)
(3 -7.542878472e-15 0)
(3 -8.173039681e-15 0)
(3 -7.581434287e-15 0)
(3 -6.604023848e-15 0)
(3 -4.924288876e-15 0)
(3 -3.763566769e-15 0)
(3 -3.653176342e-15 0)
(3 -3.443852274e-15 0)
(3 -2.839295543e-15 0)
(3 -1.853674733e-15 0)
(3 -1.237678508e-15 0)
(3 -1.489463797e-15 0)
(3 -1.77965808e-15 0)
(3 -2.990549923e-15 0)
(3 -3.571192723e-15 0)
(3 -4.250573871e-15 0)
(3 -4.703908894e-15 0)
(3 -7.184770574e-15 0)
(3 -1.02232799e-14 0)
(3 -1.023354906e-14 0)
(3 -8.983730721e-15 0)
(3 -7.288036494e-15 0)
(3 -5.349007908e-15 0)
(3 -4.087936295e-15 0)
(3 -1.191431287e-15 0)
(3 -1.31470824e-15 0)
(3 -1.453723339e-15 0)
(3 -2.033777517e-16 0)
(3 4.766630134e-16 0)
(3 2.479883051e-15 0)
(3 5.563443757e-15 0)
(3 6.129136709e-15 0)
(3 4.449875914e-15 0)
(3 2.416144194e-15 0)
(3 -2.402848718e-15 0)
(3 -5.8904702e-15 0)
(3 -8.647894941e-15 0)
(3 -7.644525932e-15 0)
(3 -4.698260063e-15 0)
(3 9.905844035e-16 0)
(3 3.589878854e-15 0)
(3 5.018729102e-15 0)
(3 4.625448054e-15 0)
(3 4.42178724e-15 0)
(3 4.456602927e-15 0)
(3 4.476834948e-15 0)
(3 5.435546369e-15 0)
(3 5.70570225e-15 0)
(3 6.319367e-15 0)
(3 8.009116297e-15 0)
(3 9.468094196e-15 0)
(3 1.010513555e-14 0)
(3 9.118870717e-15 0)
(3 6.744898331e-15 0)
(3 1.392136513e-15 0)
(3 -5.117018275e-15 0)
(3 -8.277360008e-15 0)
(3 -9.8586651e-15 0)
(3 -9.565064909e-15 0)
(3 -8.452220651e-15 0)
(3 -8.362589163e-15 0)
(3 -1.09805247e-14 0)
(3 -1.120238029e-14 0)
(3 -1.102821002e-14 0)
(3 -1.123605638e-14 0)
(3 -9.777361809e-15 0)
(3 -8.561874229e-15 0)
(3 -8.032223274e-15 0)
(3 -8.036095266e-15 0)
(3 -7.170328286e-15 0)
(3 -6.166425101e-15 0)
(3 -4.205003173e-15 0)
(3 1.160668567e-16 0)
(3 3.271334929e-15 0)
(3 3.104840454e-15 0)
(3 3.904818311e-15 0)
(3 4.607370767e-15 0)
(3 4.145576273e-15 0)
(3 3.654010715e-15 0)
(3 3.088715066e-15 0)
(3 1.924796158e-15 0)
(3 -6.824441225e-16 0)
(3 -1.001330951e-15 0)
(3 -2.746745638e-15 0)
(3 -4.823272641e-15 0)
(3 -9.619742379e-15 0)
(3 -1.03655399e-14 0)
(3 -9.838970969e-15 0)
(3 -8.721266528e-15 0)
(3 -7.307359495e-15 0)
(3 -5.152160324e-15 0)
(3 -3.910403933e-15 0)
(3 -1.603915183e-15 0)
(3 4.319159412e-16 0)
(3 2.776983622e-16 0)
(3 -1.340326355e-15 0)
(3 -1.408873033e-15 0)
(3 -1.871956332e-15 0)
(3 -1.802679587e-16 0)
(3 2.390544802e-15 0)
(3 3.443447027e-15 0)
(3 2.053557669e-15 0)
(3 1.221398979e-15 0)
(3 -2.175711769e-15 0)
(3 -5.529877672e-15 0)
(3 -7.344575864e-15 0)
(3 -6.344265503e-15 0)
(3 -1.56944828e-15 0)
(3 1.473956701e-15 0)
(3 3.721021478e-15 0)
(3 3.901668162e-15 0)
(3 4.177646554e-15 0)
(3 5.085632809e-15 0)
(3 6.518301199e-15 0)
(3 6.630844157e-15 0)
(3 7.662155939e-15 0)
(3 6.951129148e-15 0)
(3 6.505022245e-15 0)
(3 3.586567744e-15 0)
(3 1.920261824e-15 0)
(3 -4.270165459e-16 0)
(3 -1.528052721e-15 0)
(3 -5.477486801e-15 0)
(3 -1.145315752e-14 0)
(3 -1.404082322e-14 0)
(3 -1.769086195e-14 0)
(3 -1.915955773e-14 0)
(3 -1.886659647e-14 0)
(3 -1.789326959e-14 0)
(3 -1.581040424e-14 0)
(3 -1.507900639e-14 0)
(3 -1.407954566e-14 0)
(3 -1.331895156e-14 0)
(3 -1.197414716e-14 0)
(3 -1.093895295e-14 0)
(3 -9.405063433e-15 0)
(3 -6.899630067e-15 0)
(3 -3.885752629e-15 0)
(3 -2.880053059e-15 0)
(3 -9.593091507e-16 0)
(3 7.847349759e-16 0)
(3 3.186122013e-15 0)
(3 3.484139994e-15 0)
(3 2.66031919e-15 0)
(3 1.050903199e-15 0)
(3 -1.522915734e-15 0)
(3 -2.979266896e-15 0)
(3 -2.950871347e-15 0)
(3 9.468205988e-16 0)
(3 -2.714038694e-16 0)
(3 -1.437585414e-15 0)
(3 -3.4420638e-15 0)
(3 -4.306644287e-15 0)
(3 -4.466659213e-15 0)
(3 -1.754809298e-15 0)
(3 -8.785044145e-16 0)
(3 1.571197734e-18 0)
(3 3.394318349e-15 0)
(3 4.917882405e-15 0)
(3 6.6152939e-15 0)
(3 7.504305018e-15 0)
(3 7.57381515e-15 0)
(3 3.046719719e-15 0)
(3 1.277717764e-15 0)
(3 2.733132899e-16 0)
(3 -6.825732932e-17 0)
(3 -3.233805053e-16 0)
(3 -5.523159178e-16 0)
(3 3.394511013e-16 0)
(3 3.621248269e-16 0)
(3 -3.752105234e-16 0)
(3 -1.069666003e-15 0)
(3 -1.688815246e-15 0)
(3 -1.106531739e-15 0)
(3 5.574670862e-16 0)
(3 5.1091415e-15 0)
(3 6.762284716e-15 0)
(3 6.170639285e-15 0)
(3 1.253540444e-15 0)
(3 -2.272919469e-15 0)
(3 -1.721412513e-15 0)
(3 -1.339352582e-15 0)
(3 -2.846179222e-16 0)
(3 -5.114255616e-16 0)
(3 -5.591555829e-15 0)
(3 -8.166192955e-15 0)
(3 -7.740866749e-15 0)
(3 -6.683647403e-15 0)
(3 -4.732711795e-15 0)
(3 -5.830515119e-15 0)
(3 -1.126516266e-14 0)
(3 -1.78435053e-14 0)
(3 -1.814702072e-14 0)
(3 -1.977895316e-14 0)
(3 -2.082871116e-14 0)
(3 -1.942733367e-14 0)
(3 -1.86069046e-14 0)
(3 -1.587263461e-14 0)
(3 -1.475615497e-14 0)
(3 -1.148481381e-14 0)
(3 -1.044754702e-14 0)
(3 -8.755000832e-15 0)
(3 -6.63198832e-15 0)
(3 -3.77828809e-15 0)
(3 -1.604213554e-15 0)
(3 -2.306978342e-16 0)
(3 -4.747066753e-16 0)
(3 -3.089520431e-15 0)
(3 -3.88126309e-15 0)
(3 -4.524662416e-15 0)
(3 -4.708619433e-15 0)
(3 -3.846206601e-15 0)
(3 -2.979710214e-15 0)
(3 -3.684189932e-15 0)
(3 -1.212711429e-15 0)
(3 1.305028853e-15 0)
(3 3.825052114e-15 0)
(3 3.86779773e-15 0)
(3 5.008515607e-15 0)
(3 6.963342344e-15 0)
(3 6.985610995e-15 0)
(3 6.454704131e-15 0)
(3 6.572347524e-15 0)
(3 8.703590068e-15 0)
(3 9.991836922e-15 0)
(3 1.088898428e-14 0)
(3 1.006388562e-14 0)
(3 1.0046923e-14 0)
(3 1.096806764e-14 0)
(3 7.964543824e-15 0)
(3 8.169411443e-15 0)
(3 7.421595775e-15 0)
(3 8.266167752e-15 0)
(3 8.978390959e-15 0)
(3 9.602650356e-15 0)
(3 1.006236618e-14 0)
(3 1.03269791e-14 0)
(3 1.126788544e-14 0)
(3 1.118186712e-14 0)
(3 8.197456083e-15 0)
(3 6.781504272e-15 0)
(3 6.275510856e-15 0)
(3 6.835276033e-15 0)
(3 3.690765588e-15 0)
(3 2.015515154e-15 0)
(3 1.808823917e-15 0)
(3 1.248411383e-15 0)
(3 6.292707138e-16 0)
(3 6.553610024e-16 0)
(3 -1.488322389e-16 0)
(3 -5.371152858e-16 0)
(3 -9.776481457e-16 0)
(3 -4.014946072e-15 0)
(3 -2.890610309e-15 0)
(3 -2.729599254e-15 0)
(3 -3.575369209e-15 0)
(3 -1.450165707e-15 0)
(3 -1.025699155e-15 0)
(3 -5.051119826e-15 0)
(3 -6.032138376e-15 0)
(3 -1.040031418e-14 0)
(3 -1.583928189e-14 0)
(3 -1.452357147e-14 0)
(3 -1.426204504e-14 0)
(3 -1.338142176e-14 0)
(3 -1.000972453e-14 0)
(3 -6.780865638e-15 0)
(3 -6.420064551e-15 0)
(3 -7.313666703e-15 0)
(3 -9.498531989e-15 0)
(3 -9.077703961e-15 0)
(3 -7.419092777e-15 0)
(3 -6.175637923e-15 0)
(3 -6.807140945e-15 0)
(3 -7.2153886e-15 0)
(3 -7.566610472e-15 0)
(3 -7.321687727e-15 0)
(3 -7.071926449e-15 0)
(3 -6.623612996e-15 0)
(3 -4.941943099e-15 0)
(3 -3.497209715e-15 0)
(3 -1.347118742e-15 0)
(3 3.047851447e-18 0)
(3 1.572451905e-15 0)
(3 4.956070279e-15 0)
(3 7.367542479e-15 0)
(3 8.562406489e-15 0)
(3 9.096733643e-15 0)
(3 9.451387417e-15 0)
(3 8.959806471e-15 0)
(3 9.068840174e-15 0)
(3 8.098514627e-15 0)
(3 7.757089481e-15 0)
(3 7.540211927e-15 0)
(3 7.58617057e-15 0)
(3 6.743389026e-15 0)
(3 9.740393937e-15 0)
(3 1.061689746e-14 0)
(3 1.305039536e-14 0)
(3 1.261861401e-14 0)
(3 1.212098935e-14 0)
(3 1.04750042e-14 0)
(3 1.050950562e-14 0)
(3 1.273697468e-14 0)
(3 1.376652924e-14 0)
(3 1.411094909e-14 0)
(3 1.292648655e-14 0)
(3 1.143876488e-14 0)
(3 9.211530977e-15 0)
(3 6.675214287e-15 0)
(3 3.537945394e-15 0)
(3 4.763239792e-15 0)
(3 7.037022309e-15 0)
(3 7.50155252e-15 0)
(3 5.708843526e-15 0)
(3 2.512600666e-15 0)
(3 -3.493494789e-16 0)
(3 -1.192849131e-15 0)
(3 -8.781824989e-16 0)
(3 -1.814656509e-15 0)
(3 -1.802025299e-15 0)
(3 -2.408394174e-15 0)
(3 -2.115553337e-15 0)
(3 -2.420260576e-15 0)
(3 -2.450392375e-15 0)
(3 -1.593108105e-15 0)
(3 -4.100108586e-15 0)
(3 -4.387279251e-15 0)
(3 -8.253836982e-15 0)
(3 -1.15567185e-14 0)
(3 -1.105292285e-14 0)
(3 -9.910994931e-15 0)
(3 -8.238985537e-15 0)
(3 -5.960457956e-15 0)
(3 -3.634097451e-15 0)
(3 -3.443567126e-15 0)
(3 -4.732159996e-15 0)
(3 -4.827927089e-15 0)
(3 -5.644392476e-15 0)
(3 -5.335901699e-15 0)
(3 -4.664560992e-15 0)
(3 -2.778624763e-15 0)
(3 -2.183820712e-15 0)
(3 -1.371506496e-15 0)
(3 4.058103226e-16 0)
(3 2.922904281e-16 0)
(3 1.125733204e-15 0)
(3 1.212170423e-15 0)
(3 1.159374426e-15 0)
(3 2.838958518e-15 0)
(3 4.390536235e-15 0)
(3 6.017112465e-15 0)
(3 8.369883872e-15 0)
(3 1.07381499e-14 0)
(3 1.108397673e-14 0)
(3 7.50094021e-15 0)
(3 3.183389838e-15 0)
(3 7.964769949e-16 0)
(3 8.106864292e-16 0)
(3 -1.281103976e-17 0)
(3 -3.284547983e-15 0)
(3 -6.713872026e-15 0)
(3 -7.78141929e-15 0)
(3 9.395766951e-15 0)
(3 1.030139415e-14 0)
(3 1.125827076e-14 0)
(3 1.155157917e-14 0)
(3 1.157219524e-14 0)
(3 1.160997782e-14 0)
(3 1.22847251e-14 0)
(3 1.150965999e-14 0)
(3 1.037082272e-14 0)
(3 8.742282849e-15 0)
(3 7.896776693e-15 0)
(3 6.661691646e-15 0)
(3 3.570668356e-15 0)
(3 2.15250998e-16 0)
(3 -2.260680178e-15 0)
(3 9.699222341e-16 0)
(3 3.782882435e-15 0)
(3 6.997629586e-15 0)
(3 8.499675702e-15 0)
(3 7.351659611e-15 0)
(3 5.499870077e-15 0)
(3 3.405285228e-15 0)
(3 2.624991479e-15 0)
(3 3.538327474e-15 0)
(3 3.030749434e-15 0)
(3 3.036394829e-15 0)
(3 2.225785609e-15 0)
(3 7.550290071e-16 0)
(3 1.699929385e-17 0)
(3 1.016144991e-17 0)
(3 -1.124635895e-15 0)
(3 9.409062231e-16 0)
(3 -7.965728343e-17 0)
(3 -2.118114265e-15 0)
(3 -1.561973216e-15 0)
(3 -1.685706224e-15 0)
(3 8.655762446e-17 0)
(3 1.069501037e-15 0)
(3 1.353964552e-15 0)
(3 1.299723657e-15 0)
(3 9.932332854e-16 0)
(3 -3.035370414e-16 0)
(3 -1.306625159e-15 0)
(3 -4.37757346e-15 0)
(3 -6.353760849e-15 0)