/*--------------------------------*- C++ -*----------------------------------*\
  =========                 |
  \\      /  F ield         | OpenFOAM: The Open Source CFD Toolbox
   \\    /   O peration     | Website:  https://openfoam.org
    \\  /    A nd           | Version:  7
     \\/     M anipulation  |
\*---------------------------------------------------------------------------*/
FoamFile
{
    version     2.0;
    format      ascii;
    class       volScalarField;
    location    "0.7";
    object      rho;
}
// * * * * * * * * * * * * * * * * * * * * * * * * * * * * * * * * * * * * * //

dimensions      [1 -3 0 0 0 0 0];

internalField   nonuniform List<scalar> 
2222
(
1.958806302
1.957423839
1.943680137
1.938011004
1.928874866
1.920128011
1.909472079
1.899476058
1.891017159
1.883023041
1.870728089
1.858753222
1.851601101
0.8826094502
0.8829087604
0.8841599284
0.8859681274
0.8839816409
0.8809500366
0.8822040364
0.8863613594
0.9056338465
1.267000943
1.755799101
1.968367714
2.040814914
2.049948957
2.05779728
2.07250945
2.084971611
2.095506447
2.091051237
2.071087621
2.061562705
2.050408226
2.024181403
1.997127589
1.975210296
1.964355913
1.957617101
1.957771814
1.946295547
1.942117012
1.935406638
1.926456035
1.915068308
1.904454382
1.897197022
1.887911974
1.874321514
1.866211906
1.855266164
0.8890555963
0.8894887773
0.892389507
0.8936786559
0.8925168995
0.8917499165
0.8906598286
0.9053943995
1.145652996
1.628146243
1.930204301
2.034323638
2.058265394
2.067269223
2.084276033
2.096059129
2.10163486
2.096444848
2.073726959
2.061539325
2.052290418
2.038384222
2.011269765
1.983007065
1.967402535
1.958035135
1.96231398
1.953572068
1.950330261
1.945704368
1.936635975
1.924273507
1.91209066
1.905034127
1.895328155
1.87945346
1.87267346
1.859482316
1.845776495
0.9153119102
0.9114526856
0.9130309698
0.9150873101
0.9151393095
0.9144415785
0.909867272
0.9110670317
1.055873725
1.505849652
1.878505863
2.018944245
2.063937952
2.078982321
2.101901893
2.113924757
2.11345632
2.101548623
2.075285208
2.057993439
2.050501494
2.041375669
2.027110881
1.999010245
1.976627565
1.96424073
1.969948536
1.9619087
1.957037992
1.950404284
1.940380081
1.92832687
1.916032693
1.909297335
1.901192269
1.884202249
1.875154836
1.862183317
1.848555052
0.9489197706
0.9431754952
0.9437473142
0.9437076495
0.9421816032
0.9388520441
0.9304636166
0.9275329977
1.005872773
1.3659772
1.774024677
1.984728632
2.061515131
2.082546474
2.109083611
2.128019836
2.122423067
2.109477973
2.078922185
2.053773824
2.045262499
2.040906187
2.033709488
2.01776529
1.993311561
1.981460467
1.980523885
1.970144712
1.960534023
1.951537116
1.941435728
1.929298645
1.916854285
1.91028966
1.902954402
1.886397339
1.875988032
1.863028556
1.849163371
0.9883331673
0.9806312323
0.9802140635
0.9809378304
0.9796685559
0.9731250116
0.9600036415
0.9533143842
0.9856786767
1.28082217
1.701355873
1.948297935
2.049101989
2.080477807
2.109196678
2.131543991
2.124643413
2.113169955
2.08292057
2.051086045
2.038999452
2.036402828
2.034610633
2.025413157
2.00722468
1.999305644
1.991713256
1.976370126
1.961608814
1.950749953
1.938987089
1.925998824
1.913790493
1.909224636
1.903425549
1.887444828
1.876064882
1.863041012
1.84845867
1.030236366
1.021306535
1.017625561
1.017445753
1.01664721
1.011418074
0.998909408
0.9851133032
1.005262228
1.233377459
1.596155881
1.877992257
2.018833468
2.067613016
2.105812368
2.131273577
2.125080109
2.111656472
2.084733258
2.05207361
2.036301826
2.030422734
2.033464724
2.027558153
2.010904742
2.003402139
1.99611614
1.979551333
1.962350783
1.946038246
1.929681831
1.916115651
1.905417345
1.903982696
1.900846466
1.886597586
1.873617629
1.860582045
1.845357141
1.05965559
1.053057889
1.04995697
1.048861969
1.045153076
1.03524536
1.023809767
1.032985601
1.200250617
1.553507324
1.839446493
1.989010003
2.048047375
2.09489429
2.123894458
2.119878681
2.104743526
2.082760024
2.05399373
2.03644977
2.028335987
2.029744811
2.0273122
2.01233957
2.004988545
1.997568224
1.981774752
1.961677308
1.939690833
1.922765739
1.911168167
1.901561013
1.899469297
1.8972392
1.883777473
1.869625679
1.85746127
1.843748019
1.083003477
1.077985931
1.07519521
1.075336643
1.0741093
1.068694049
1.05921941
1.062673112
1.168337803
1.514750214
1.80375273
1.953900706
2.023528882
2.078248636
2.107889248
2.10632501
2.090562669
2.07688595
2.055533188
2.038341279
2.029407773
2.025961337
2.023871586
2.010532283
2.003349057
1.996859275
1.982077873
1.959643828
1.938267553
1.923916487
1.912365667
1.902214918
1.898750132
1.8965062
1.882957356
1.868717457
1.85749151
1.844529987
1.089716508
1.087848426
1.087220451
1.088932717
1.090431329
1.089484949
1.084280007
1.085398818
1.129073684
1.473480458
1.77760082
1.940061736
2.008927837
2.06186438
2.091413602
2.090799157
2.078866189
2.071809569
2.057706395
2.041977005
2.03266897
2.026581479
2.01904543
2.003717867
1.995516731
1.99075585
1.977483371
1.956865016
1.94068864
1.927716812
1.915538322
1.904613992
1.899828495
1.897180404
1.883722033
1.869493531
1.858571287
1.846337646
1.095523831
1.09537843
1.096042105
1.098243733
1.101860268
1.103888476
1.101211812
1.100948782
1.132319298
1.406946843
1.751373433
1.930617544
1.993993327
2.0445931
2.076615641
2.077164218
2.075690152
2.071786127
2.059967724
2.048295927
2.038593264
2.030070799
2.019241541
1.99831606
1.986982918
1.982134706
1.97073518
1.956821114
1.944843018
1.933195629
1.920678681
1.909989994
1.904272602
1.900213924
1.885903299
1.871271822
1.86095068
1.85009271
1.10952177
1.10972378
1.11031652
1.111811763
1.115252399
1.118646523
1.117979552
1.115188292
1.129572517
1.319478482
1.71843195
1.921492607
1.999291014
2.029605169
2.063227282
2.070293125
2.07438672
2.074028895
2.063184318
2.051396101
2.045825124
2.037089845
2.023296762
1.999784966
1.985475606
1.979811494
1.970441752
1.959781334
1.94984962
1.940587496
1.930125138
1.921477682
1.914153318
1.907414581
1.891224551
1.875575131
1.866381446
1.856896426
1.120639732
1.119911876
1.119383805
1.118755019
1.11922157
1.121077216
1.120618888
1.117367933
1.124903926
1.226888401
1.669559074
1.913652628
2.007259675
2.025372143
2.052734877
2.067982829
2.07350148
2.076321889
2.066690704
2.052440813
2.048529951
2.043588394
2.030834291
2.00531612
1.988254707
1.981644923
1.973324955
1.963835316
1.956454662
1.951483936
1.944073575
1.931815845
1.919447159
1.910618649
1.896094969
1.880649133
1.870650677
1.860679622
1.118610778
1.118691649
1.117819344
1.117174487
1.118228355
1.117282034
1.114350701
1.117237249
1.169531229
1.587758181
1.88778529
2.008022767
2.024414621
2.040218157
2.061090631
2.070489135
2.073188204
2.069322529
2.054271733
2.04832155
2.045096704
2.038207454
2.015542696
1.99546811
1.986448555
1.977812603
1.969832866
1.966301425
1.963084282
1.951208569
1.933475684
1.919656428
1.909821949
1.896145377
1.881009832
1.870780852
1.860958873
1.115679106
1.115593105
1.114686294
1.113514845
1.114064947
1.113738866
1.112962148
1.115812901
1.141983952
1.47014928
1.863185921
2.011881457
2.02393211
2.027331072
2.047877482
2.062130256
2.06519699
2.070038888
2.055887084
2.045738073
2.043429878
2.039658853
2.027451482
2.009338604
1.996649809
1.985877415
1.980639863
1.977284645
1.968404739
1.952505953
1.932703426
1.916245552
1.905847423
1.894420153
1.879878432
1.869383193
1.859499791
1.849131747
1.111594941
1.112473341
1.113321365
1.113079915
1.113746355
1.114411373
1.116142234
1.119704854
1.13632385
1.332964065
1.831112219
2.024893142
2.024124371
2.01426432
2.028358676
2.04326062
2.052049173
2.063815555
2.055750201
2.040715904
2.03737529
2.036914151
2.030446371
2.020945258
2.010786213
2.000334369
1.992894512
1.98285092
1.970237219
1.95142923
1.925318943
1.907119328
1.898260283
1.889476946
1.875889897
1.864898737
1.854722061
1.845000319
1.112744142
1.114033854
1.116539396
1.117174911
1.118166342
1.120704084
1.124423264
1.127454849
1.135281927
1.240856222
1.756973128
2.014703108
2.034513338
2.004232759
2.003885835
2.01685936
2.033233889
2.048171622
2.050292417
2.034889734
2.027277943
2.028299332
2.02888248
2.022704861
2.015644387
2.007340178
1.99693726
1.985009649
1.970329933
1.94446137
1.913916336
1.901257649
1.89412214
1.885579489
1.872342902
1.860896001
1.851159656
1.843369427
1.117057533
1.120312223
1.124069949
1.125443751
1.126546799
1.128780186
1.12985666
1.129999125
1.134112049
1.188826062
1.630263732
2.000839952
2.047291218
2.007941119
1.978032375
1.98885723
2.010465826
2.030820195
2.042851692
2.030844233
2.020406694
2.018733714
2.021856622
2.01993181
2.014987094
2.008122888
1.998034951
1.98526891
1.96587637
1.936072665
1.911563766
1.901872196
1.894491675
1.885267503
1.872232164
1.860339356
1.850709299
1.843536358
1.126324861
1.126717834
1.129878267
1.130823899
1.130975756
1.131531321
1.130960682
1.129899452
1.131337607
1.158276311
1.468258289
1.97905369
2.064690162
2.021620208
1.97210707
1.968845631
1.989022591
2.016165513
2.032687667
2.032066228
2.021250162
2.018180221
2.014957722
2.010976336
2.007701736
2.003204435
1.994354125
1.979986589
1.958859932
1.935054272
1.913715659
1.904059066
1.896147873
1.885932053
1.873044652
1.860464387
1.850929458
1.844280959
1.128324623
1.128328474
1.129361421
1.132712674
1.132748193
1.132700123
1.130782366
1.127811933
1.127230561
1.138970478
1.326893857
1.91179654
2.064078545
2.030384761
1.976385071
1.960426407
1.970187887
1.997634393
2.021167664
2.031730164
2.023913
2.021189448
2.016938044
2.006310713
1.997335897
1.991816582
1.984014365
1.970969381
1.95566193
1.937117973
1.91771779
1.908845274
1.900797806
1.889600456
1.87624479
1.862148492
1.852239139
1.846282468
1.129922077
1.128795694
1.13108157
1.131721371
1.130967591
1.12835889
1.125440992
1.125471912
1.131562847
1.233291536
1.778829157
2.070288751
2.055054766
1.99783506
1.956004978
1.964276285
1.979918072
2.007503355
2.026381506
2.027647469
2.024621422
2.021226281
2.009576403
1.995671768
1.986230467
1.976928692
1.966938156
1.956190957
1.940177579
1.925803275
1.91904015
1.911263061
1.898731942
1.883620518
1.866964953
1.856397279
1.851691268
1.127215699
1.124165164
1.125359999
1.128007741
1.128268166
1.128310499
1.127505639
1.128028283
1.132121698
1.18418689
1.607016935
2.07907862
2.079276586
2.01734595
1.957979976
1.961649225
1.973328291
1.995455873
2.019363257
2.029667119
2.028689306
2.02552785
2.014295773
1.998938781
1.987581188
1.976954117
1.967280907
1.957547614
1.946391631
1.940105605
1.933886346
1.923966392
1.909465595
1.892906483
1.875055659
1.864534832
1.859366706
1.122198394
1.120187138
1.121200804
1.126368846
1.129088434
1.131541583
1.132179937
1.132432623
1.134800867
1.161131123
1.445165415
2.037241787
2.083762376
2.041147455
1.980821891
1.960187366
1.97384705
1.989192957
2.013049462
2.029400446
2.031780096
2.029506675
2.019898868
2.005040547
1.991808877
1.979213376
1.968832565
1.961148296
1.958401072
1.953247142
1.941197082
1.928860503
1.913693087
1.897234906
1.880473838
1.868874282
1.861242814
1.118864122
1.119619847
1.121906926
1.128269891
1.132694051
1.135595023
1.136267947
1.135647104
1.137080206
1.149738407
1.317936304
1.918811835
2.119622595
2.08081116
2.005080913
1.956122454
1.969942583
1.980898858
2.003214866
2.025346115
2.031639832
2.034223014
2.026951082
2.013887688
1.999619637
1.983854004
1.973240541
1.97096802
1.968418536
1.95753825
1.943676883
1.931120134
1.915554428
1.898594832
1.881704628
1.869402707
1.860703547
1.120579375
1.12343178
1.126152703
1.131455149
1.135782064
1.137672172
1.138057392
1.13682009
1.137024415
1.142126476
1.231436826
1.746620486
2.159372262
2.123950307
2.035465384
1.971835751
1.956293868
1.966096146
1.986413475
2.012756941
2.028298665
2.037558792
2.03686799
2.026468877
2.011594417
1.99265401
1.983623695
1.97852262
1.970917966
1.959252604
1.945263351
1.932275338
1.916358874
1.898953363
1.881816829
1.867981023
1.85601445
1.125329335
1.129113853
1.130806852
1.133521373
1.137151486
1.137619036
1.137353699
1.135056399
1.133806862
1.135151495
1.179476222
1.567216247
2.136662446
2.155387537
2.085571571
1.999221752
1.949310531
1.955497914
1.963426118
1.990063077
2.01937454
2.037917808
2.040860183
2.031995263
2.01866006
2.001953997
1.989407284
1.980404154
1.972343519
1.96005308
1.944073859
1.929883642
1.913678421
1.896118621
1.878732447
1.862905192
1.849157914
1.131757652
1.132904692
1.133797917
1.135629548
1.133941797
1.132197611
1.129578934
1.128087321
1.128877696
1.150493735
1.41369641
2.042966538
2.19216499
2.136935186
2.022698426
1.957896157
1.953313496
1.953942401
1.971733105
2.007363442
2.03452963
2.042079534
2.033641038
2.019800009
2.004142639
1.990788092
1.981202869
1.97215155
1.956630156
1.937382599
1.923475928
1.908034403
1.890977345
1.874751232
1.859778773
1.848026862
1.846678906
1.130779982
1.132197852
1.129567648
1.128727758
1.125772529
1.125415481
1.125824651
1.125854576
1.127300494
1.137981149
1.298497866
1.891946864
2.223564738
2.181326097
2.070898432
1.982749605
1.950818473
1.953081981
1.959286626
1.994628296
2.026185424
2.037924978
2.031171271
2.016212093
2.002609625
1.988789111
1.978150397
1.966459628
1.946029168
1.930419468
1.919334644
1.905377704
1.889442322
1.87474925
1.860518658
1.849063811
1.847924726
1.126552847
1.126458218
1.121003625
1.120997016
1.122705837
1.124848268
1.127015411
1.127082964
1.128496507
1.135314545
1.224394106
1.714957614
2.209141127
2.201574563
2.117418196
2.007598521
1.964419325
1.958380113
1.957949469
1.98106118
2.012737115
2.025075686
2.02018817
2.004387003
1.993007237
1.979341003
1.967515277
1.953327534
1.937203677
1.928876974
1.919577434
1.906506166
1.890862386
1.876440317
1.862406103
1.851611019
1.850462344
1.119039049
1.117948258
1.117232958
1.119472874
1.122807757
1.125266371
1.128815261
1.129538412
1.130670676
1.134993367
1.181366662
1.546898609
2.129957386
2.240684301
2.172728284
2.058291664
1.989726511
1.969433192
1.958355476
1.969538538
1.996278576
2.010187305
2.006563119
1.994787614
1.98280953
1.968559914
1.956086807
1.944572572
1.936328686
1.930282799
1.92186535
1.909343877
1.893850359
1.879462927
1.865411699
1.856789189
1.856065189
1.113077377
1.114759277
1.116805279
1.118713444
1.124276262
1.12787443
1.131749432
1.1323818
1.131794476
1.133983339
1.156697019
1.404143897
2.001494748
2.265690889
2.230776801
2.126306456
2.02462471
1.984482789
1.965741394
1.968737663
1.9878568
2.000699888
1.998583916
1.992707785
1.98107266
1.967147767
1.954496407
1.944987381
1.938663246
1.933660559
1.925843236
1.914134326
1.899789304
1.885898556
1.87214482
1.866647947
1.865887932
1.113597596
1.113408085
1.119003505
1.121249778
1.127334399
1.130453305
1.132287265
1.132416405
1.131003656
1.130917664
1.140576294
1.292995364
1.840026096
2.259848958
2.265823362
2.192481235
2.078837785
2.004815562
1.980853251
1.972938069
1.986127411
1.994474345
1.994038142
1.991462669
1.982712975
1.96976978
1.957033326
1.948278284
1.943274277
1.939118588
1.932577617
1.92257486
1.909210401
1.89542905
1.883608876
1.875756099
1.871849619
1.115672752
1.114935542
1.123045088
1.12545585
1.128774086
1.130214398
1.130686156
1.130781492
1.127523368
1.127073483
1.130413306
1.215275088
1.672606685
2.203589167
2.292265913
2.24207185
2.135482205
2.038891812
1.997709137
1.979772324
1.984176307
1.987060869
1.989672566
1.991256044
1.986063766
1.973541733
1.961641227
1.954384651
1.951274888
1.947901558
1.940873009
1.928399332
1.912504806
1.898189859
1.888395194
1.877863804
1.872547769
1.120338881
1.126356818
1.12831127
1.127959641
1.129072259
1.127227403
1.128022739
1.12713617
1.12631471
1.130339591
1.172086822
1.517343478
2.098812509
2.303258935
2.272277451
2.188119163
2.082118992
2.015174535
1.985928592
1.976824469
1.974815864
1.982596938
1.99096588
1.988376373
1.978008058
1.969669594
1.965498089
1.963392111
1.956165727
1.944527162
1.929661025
1.912937641
1.898285829
1.888917614
1.877939183
1.871488272
1.127493125
1.128066647
1.130646889
1.1286762
1.129408818
1.12698475
1.128196239
1.128594328
1.12778986
1.130800148
1.153357906
1.38756094
1.960997792
2.305306774
2.298920318
2.239731775
2.138453011
2.043450736
1.990941477
1.9638066
1.962045435
1.973482643
1.987220582
1.986301086
1.983861533
1.981414353
1.977848833
1.970715579
1.959359841
1.945602932
1.928749701
1.908987725
1.893637614
1.885772369
1.874595482
1.867550257
1.134070524
1.129503301
1.132059006
1.128884365
1.129411303
1.128517777
1.12958377
1.132012068
1.13127215
1.133360357
1.143984272
1.288678637
1.806886641
2.268939311
2.342204919
2.294349753
2.1969725
2.081303909
1.995371111
1.959435348
1.958555135
1.966384073
1.978043996
1.980078788
1.983366983
1.985508194
1.980791191
1.972921728
1.960371828
1.943212177
1.920304976
1.896920809
1.884481182
1.878746022
1.869978271
1.863754843
1.13793031
1.131750374
1.133352572
1.131475076
1.131431346
1.133323544
1.134441437
1.13775156
1.137520625
1.137462591
1.145070496
1.223335761
1.65608395
2.190963607
2.388072446
2.351391622
2.256163611
2.121572084
2.010238557
1.962986161
1.954425338
1.95859604
1.96387312
1.967697438
1.979058917
1.98409488
1.981041506
1.972594892
1.956770379
1.93176788
1.905267499
1.887794388
1.880291701
1.875461524
1.868483661
1.86270785
1.139788092
1.136124274
1.135529887
1.136872108
1.136718268
1.140742578
1.141956596
1.144212513
1.1442525
1.141162136
1.14418432
1.184795097
1.513830815
2.09678937
2.396427598
2.391490998
2.310820267
2.167941068
2.038947703
1.971656281
1.953486368
1.944542877
1.942836366
1.949619197
1.967154113
1.976307919
1.975308237
1.965797197
1.944016394
1.918304662
1.899690138
1.88759146
1.881177174
1.876036962
1.86891502
1.863040185
1.140334365
1.142892402
1.139331968
1.144306311
1.144730765
1.149256119
1.149787881
1.149445054
1.148955578
1.144313774
1.144181322
1.159196011
1.386242841
1.966288067
2.368813157
2.40810876
2.3629556
2.228674773
2.080095478
1.991131984
1.954590463
1.929568573
1.916890856
1.92695984
1.948871465
1.961628222
1.96122906
1.952570176
1.932173081
1.916418412
1.900874595
1.889779753
1.883709982
1.878054421
1.870516454
1.864545712
1.150665436
1.145644381
1.152257817
1.153318541
1.155642821
1.155472833
1.152354755
1.15124953
1.147724795
1.145669516
1.156009483
1.285200977
1.817710303
2.314853666
2.418252171
2.399544857
2.301093163
2.142634338
2.021533654
1.959907002
1.927339468
1.906605875
1.909056586
1.92999264
1.947242213
1.948758783
1.942845757
1.930301896
1.918548375
1.90391202
1.893441728
1.887535905
1.881575675
1.874157385
1.869568993
1.157348243
1.154418564
1.15925864
1.160376488
1.159049834
1.158185489
1.15425678
1.153247481
1.152191295
1.149492357
1.154877741
1.221706386
1.653768349
2.226870362
2.414226033
2.415360686
2.350331622
2.20845957
2.06312503
1.972973013
1.92755771
1.90591692
1.905754302
1.917204811
1.937117807
1.943205468
1.940132913
1.931186184
1.922111572
1.908275068
1.898828444
1.894126201
1.889432068
1.882609748
1.875634974
1.870868843
1.162463538
1.164329013
1.162528808
1.164409311
1.160140831
1.159850284
1.157015268
1.15620999
1.157802068
1.157048616
1.15813707
1.19242776
1.501822001
2.093390785
2.380809725
2.420026282
2.365712798
2.25221312
2.110785611
1.994643315
1.933543162
1.909856073
1.906492518
1.914200893
1.930105679
1.940027189
1.939292459
1.932975494
1.926406471
1.915235495
1.908971166
1.907292418
1.901670574
1.888208749
1.876635815
1.870724101
1.163992575
1.171591405
1.163024782
1.166224444
1.161355053
1.161999475
1.161868913
1.161482053
1.165300216
1.167427626
1.166397225
1.181840147
1.376307
1.946299651
2.328375605
2.409216358
2.365581564
2.274457871
2.151125458
2.025602093
1.948067359
1.922290883
1.913205055
1.916725112
1.926140299
1.936168311
1.939838034
1.936297629
1.933411365
1.928092824
1.924067481
1.918388872
1.905781819
1.888724689
1.875237523
1.867975723
1.160075662
1.173749921
1.163450865
1.167260998
1.165000711
1.165680272
1.169502906
1.170774721
1.174532531
1.177995475
1.175799839
1.176907968
1.28768642
1.784197056
2.27019825
2.39947462
2.369789306
2.296204656
2.186290788
2.062111461
1.973588339
1.940130897
1.924941812
1.923600764
1.925380261
1.932785773
1.94120257
1.944507432
1.946499267
1.941917908
1.93138145
1.920596633
1.905496483
1.884757296
1.86795491
1.860239526
1.157797353
1.172465459
1.166759894
1.168232307
1.171603164
1.172498941
1.179468908
1.181949079
1.182681579
1.184032883
1.181914838
1.180720568
1.233811859
1.631682797
2.18110939
2.401352924
2.380475315
2.328923657
2.231262515
2.107553912
2.007561708
1.953644374
1.928851067
1.923440397
1.924047249
1.929851801
1.941493898
1.951182229
1.954277623
1.945715659
1.932939721
1.919987187
1.89790328
1.871579055
1.855342186
1.849651945
1.168558726
1.169892871
1.175624682
1.171310017
1.180666822
1.182333951
1.188642228
1.190445201
1.186222564
1.184503023
1.184341762
1.183725651
1.205533891
1.49193489
2.072638107
2.390029393
2.418476369
2.386078423
2.300364105
2.17311047
2.049546428
1.968390961
1.931542226
1.918724573
1.918268169
1.924878706
1.939632224
1.950534392
1.954028364
1.945920826
1.931299129
1.910958724
1.881562919
1.859514174
1.849151837
1.84604323
1.168127313
1.185293354
1.176962161
1.189153262
1.190454006
1.192801901
1.194509559
1.188356111
1.183926761
1.185323819
1.18740381
1.191623871
1.372118447
1.955039413
2.381612312
2.466159042
2.442745262
2.372851104
2.251334088
2.101982113
1.987493731
1.929869973
1.905051248
1.907852321
1.915797716
1.933483559
1.94713963
1.950029825
1.942261883
1.921272526
1.894269565
1.872244535
1.857771185
1.849388013
1.847307879
1.164983441
1.191568005
1.18382121
1.193820496
1.195864369
1.193464926
1.195178105
1.191339874
1.18484804
1.186288424
1.191308959
1.196485911
1.285928958
1.818275418
2.345392906
2.478216262
2.460592861
2.399440407
2.292591095
2.147748874
2.009809881
1.932058063
1.902351808
1.89818498
1.903270865
1.920346662
1.936669645
1.938294152
1.929370272
1.904406066
1.884862728
1.871364324
1.85875627
1.851606076
1.850502444
1.168154206
1.193994655
1.192665655
1.193847388
1.199270522
1.193921972
1.195210428
1.195655283
1.189703218
1.189676414
1.195490114
1.201741034
1.239286668
1.659748474
2.281048285
2.481428573
2.467592935
2.409022407
2.30741076
2.173345773
2.039037116
1.947022217
1.906556406
1.89848488
1.893868843
1.901374998
1.914349313
1.917189166
1.909588572
1.892618459
1.882918316
1.872315081
1.861627171
1.855622268
1.855749062
1.191421848
1.189831592
1.202570232
1.192176842
1.200561791
1.195630229
1.195702288
1.201494107
1.200110822
1.196793551
1.199963536
1.205441283
1.221869727
1.492409953
2.162508418
2.473187594
2.463335018
2.407510968
2.308813695
2.189214918
2.067412131
1.96843687
1.91728771
1.901012097
1.894881698
1.884504518
1.890544194
1.895071967
1.893429415
1.888269173
1.882830441
1.874514278
1.86619026
1.862605702
1.865037296
1.204107118
1.16903564
1.20469878
1.190388043
1.201021223
1.200719732
1.198830973
1.20735659
1.212761069
1.204060423
1.20143941
1.204845278
1.211239497
1.353937544
1.981764821
2.429610803
2.434765785
2.385337194
2.305621457
2.210174624
2.10479589
2.011213146
1.945785245
1.911677397
1.899178969
1.881064092
1.878029863
1.881249097
1.883434768
1.885465908
1.883818821
1.878914362
1.874983374
1.8745044
1.873219373
1.196880607
1.153032344
1.203386092
1.192230584
1.201407616
1.21019859
1.205153902
1.211535836
1.218875144
1.212147362
1.201268217
1.203002956
1.211341581
1.278440513
1.76244956
2.335581055
2.407428369
2.37914673
2.318238623
2.242826977
2.163334122
2.079102237
1.995517309
1.934981296
1.907677643
1.881976438
1.873152375
1.870909713
1.87543585
1.883195811
1.888571807
1.890201
1.887850978
1.881951666
1.875054089
1.077128352
1.165058709
1.200414084
1.208539592
1.204538923
1.21727291
1.211649136
1.211180343
1.21792236
1.217809356
1.203863327
1.202124608
1.208996193
1.245730718
1.572593057
2.207503968
2.411118599
2.388763637
2.344415337
2.302535476
2.251577829
2.163730156
2.053969984
1.9685914
1.921452407
1.889540761
1.871616117
1.865812607
1.868184358
1.882211626
1.895851719
1.897690222
1.891039402
1.883346355
1.873412206
1.181172733
1.190392143
1.221566373
1.203059331
1.218519378
1.218767448
1.209555027
1.213796322
1.218787994
1.210317021
1.203791467
1.209032924
1.23177223
1.44785687
2.074703869
2.426642727
2.418592551
2.402580339
2.379057296
2.326576991
2.229335035
2.107264723
2.004502442
1.938407925
1.898634981
1.872056306
1.865523276
1.865884938
1.879996064
1.893626396
1.895657865
1.889567992
1.880013173
1.865769993
1.136269359
1.150652815
1.225319672
1.202911959
1.216849731
1.224514497
1.210308195
1.208651473
1.218052564
1.217189101
1.209608537
1.212364081
1.225720786
1.36237258
1.940688284
2.419556436
2.462785748
2.451497169
2.412372555
2.348945376
2.265623756
2.160886827
2.049751018
1.961641797
1.906366613
1.875723243
1.868191909
1.867639285
1.879332265
1.888614359
1.888956882
1.8824272
1.868856938
1.860354219
1.849824073
0.9202508792
1.138049075
1.224873223
1.21469986
1.210013087
1.224892164
1.216865421
1.207546127
1.214531476
1.22397488
1.219080902
1.219315786
1.228613562
1.302058746
1.797483429
2.385774871
2.475997487
2.461950117
2.42010293
2.358164044
2.281158192
2.194884904
2.093513186
1.988982086
1.918503008
1.882800033
1.874500061
1.873548639
1.879816601
1.880873341
1.87621442
1.867283678
1.859058581
1.86032699
1.851530218
0.6378011937
1.142210513
1.204707894
1.229658337
1.203900958
1.223987355
1.228917489
1.211099827
1.214405145
1.228859356
1.228461158
1.223690508
1.22821526
1.264961611
1.642163091
2.309886611
2.478691067
2.463861747
2.421136874
2.360321686
2.288005325
2.207394269
2.117172724
2.017002889
1.934181377
1.888307609
1.877114436
1.875383172
1.875567735
1.866223174
1.856293891
1.849830725
1.854407742
1.861878466
1.854293951
0.4194504503
0.9762847925
1.136937303
1.232333857
1.201915055
1.218696654
1.238209391
1.226404244
1.218945025
1.230332823
1.23359004
1.225579995
1.226667742
1.244514125
1.486013736
2.177911273
2.473164987
2.462601644
2.417602396
2.356528361
2.289008144
2.214606957
2.132164943
2.041779995
1.955332036
1.895496075
1.875824643
1.872130971
1.859832731
1.838575656
1.829630416
1.836160878
1.85267965
1.863796175
1.8588959
0.4222245766
0.6240472171
1.062931018
1.227317599
1.211957891
1.210486951
1.243117657
1.245034816
1.224042908
1.228129783
1.234706525
1.22741526
1.226411502
1.235296839
1.367890021
1.997477847
2.448010244
2.446683313
2.409046713
2.354899993
2.296929262
2.228493118
2.15409474
2.071914992
1.983830152
1.908940897
1.873472429
1.858234704
1.832777989
1.812914574
1.811082673
1.829759193
1.852763638
1.866911971
1.868579849
0.4252485959
0.4276070154
0.9743802063
1.18975511
1.232778082
1.207586894
1.235274679
1.252778317
1.232719105
1.226090855
1.233503271
1.230155758
1.226666198
1.234833211
1.305456839
1.800037131
2.390570282
2.426188587
2.406924705
2.360903445
2.308346932
2.252073693
2.194712694
2.121023025
2.023212398
1.928798298
1.873501155
1.844315505
1.822660353
1.808229865
1.808090372
1.828791248
1.855780401
1.876126194
1.878491736
0.425910205
0.4290707763
0.6713175933
1.059047184
1.238700409
1.208686432
1.218242982
1.253437435
1.246303478
1.226331405
1.232379814
1.234629248
1.230348158
1.235732955
1.278122292
1.624699104
2.290036796
2.429024495
2.410492052
2.371273585
2.334310205
2.302246458
2.264482347
2.193747633
2.076883684
1.95837764
1.880482832
1.844726549
1.823640366
1.808212379
1.809068828
1.830949462
1.862491558
1.879820518
1.879186071
0.4305797239
0.4335924035
0.9438804499
1.22953663
1.225223582
1.209591711
1.244723805
1.253766264
1.23208729
1.232907784
)
;

boundaryField
{
    inlet
    {
        type            calculated;
        value           nonuniform 0();
    }
    outlet
    {
        type            calculated;
        value           nonuniform 0();
    }
    bottom
    {
        type            calculated;
        value           nonuniform 0();
    }
    top
    {
        type            calculated;
        value           nonuniform 0();
    }
    obstacle
    {
        type            calculated;
        value           nonuniform 0();
    }
    defaultFaces
    {
        type            empty;
    }
    procBoundary22to15
    {
        type            processor;
        value           uniform 0.8871304811;
    }
    procBoundary22to16
    {
        type            processor;
        value           nonuniform List<scalar> 
40
(
1.973039401
1.96075477
1.944180761
1.937087453
1.927534059
1.919099085
1.90861076
1.898015376
1.888253469
1.881818984
1.870829846
1.855592718
1.851952387
0.8789862934
0.8813971215
0.8828997862
0.8830062743
0.8795047089
0.8783705856
0.8817585345
0.8880926394
0.9347186019
1.386503422
1.838472152
1.993944457
2.04760487
2.046506905
2.051536583
2.062610657
2.076102199
2.090900077
2.089278252
2.078202581
2.065571501
2.046164935
2.012623454
1.992797146
1.975859414
1.966820572
1.966820572
)
;
    }
    procBoundary22to17
    {
        type            processor;
        value           uniform 1.830794321;
    }
    procBoundary22to21
    {
        type            processor;
        value           nonuniform List<scalar> 
70
(
0.8940915643
0.8940915643
0.9260808863
0.9624035882
1.003726299
1.043112926
1.067518275
1.067518275
1.08682051
1.09082793
1.09508988
1.10725464
1.119030903
1.119896046
1.119896046
1.11663168
1.111650899
1.110855354
1.11410382
1.123964489
1.129777303
1.130471906
1.130471906
1.128989176
1.125082224
1.122668902
1.122254815
1.123421342
1.129367889
1.129367889
1.130534677
1.128944212
1.122681002
1.113692805
1.10857714
1.1064804
1.118140781
1.118140781
1.122563379
1.127220544
1.131261575
1.138275131
1.148973181
1.141062903
1.141062903
1.144577927
1.157175049
1.175253722
1.181482514
1.17926361
1.178583744
1.190848599
1.190848599
1.201608819
1.197328271
1.168256488
1.052948733
0.9316600455
0.6645588114
0.8848571429
0.8848571429
0.6578567398
0.4115989677
0.4118004321
0.4169388771
0.4208606806
0.4226207182
0.4230915959
0.4266412714
0.4266412714
)
;
    }
    procBoundary22to23
    {
        type            processor;
        value           nonuniform List<scalar> 
65
(
1.837700954
1.837700954
1.834535106
1.837484613
1.83821435
1.837094279
1.833757518
1.832786134
1.833638538
1.835556365
1.839398471
1.846155837
1.850165886
1.850701433
1.850701433
1.842451098
1.839939102
1.839274638
1.839992103
1.841286991
1.843628113
1.849000336
1.854409838
1.854777045
1.852871413
1.847946992
1.846253498