/*--------------------------------*- C++ -*----------------------------------*\
  =========                 |
  \\      /  F ield         | OpenFOAM: The Open Source CFD Toolbox
   \\    /   O peration     | Website:  https://openfoam.org
    \\  /    A nd           | Version:  7
     \\/     M anipulation  |
\*---------------------------------------------------------------------------*/
FoamFile
{
    version     2.0;
    format      ascii;
    class       volVectorField;
    location    "5";
    object      U;
}
// * * * * * * * * * * * * * * * * * * * * * * * * * * * * * * * * * * * * * //

dimensions      [0 1 -1 0 0 0 0];

internalField   nonuniform List<vector> 
2222
(
(3 2.586894502e-15 0)
(3 2.307403456e-16 0)
(3 8.941035544e-16 0)
(3 2.290562932e-15 0)
(3 2.409164363e-15 0)
(3 2.683460695e-15 0)
(3 2.775987827e-15 0)
(3 3.264541348e-15 0)
(3 3.321990524e-15 0)
(3 2.840081367e-15 0)
(3 2.32145629e-15 0)
(3 1.802767828e-15 0)
(3 1.807787391e-15 0)
(3 2.230942121e-15 0)
(3 2.770798754e-15 0)
(3 1.699843484e-15 0)
(3 1.116081292e-15 0)
(3 -1.113788693e-16 0)
(3 -8.24176194e-16 0)
(3 -6.141821507e-16 0)
(3 -1.061742657e-15 0)
(3 -1.339119457e-15 0)
(3 -1.344623762e-15 0)
(3 -1.354358005e-15 0)
(3 3.073721335e-16 0)
(3 1.052337431e-15 0)
(3 1.178370546e-15 0)
(3 8.300874665e-16 0)
(3 1.100394439e-15 0)
(3 8.302572265e-16 0)
(3 9.83666428e-16 0)
(3 1.378251412e-15 0)
(3 2.003321153e-15 0)
(3 1.905731087e-15 0)
(3 8.739147998e-16 0)
(3 1.880547598e-15 0)
(3 2.242268308e-15 0)
(3 2.50420094e-15 0)
(3 3.372037095e-15 0)
(3 3.746194579e-15 0)
(3 3.417314627e-15 0)
(3 3.102198543e-15 0)
(3 1.784758133e-15 0)
(3 1.571073574e-15 0)
(3 2.272196449e-15 0)
(3 2.703196624e-15 0)
(3 2.904803924e-15 0)
(3 3.467039121e-15 0)
(3 2.144983149e-15 0)
(3 -2.833520076e-16 0)
(3 -1.615545837e-15 0)
(3 -2.233702674e-15 0)
(3 -1.363417631e-15 0)
(3 -1.822752191e-16 0)
(3 -9.425948931e-17 0)
(3 1.361440703e-16 0)
(3 1.252943546e-16 0)
(3 4.34065646e-16 0)
(3 8.493028891e-16 0)
(3 9.676172949e-16 0)
(3 3.939423978e-16 0)
(3 1.72044782e-16 0)
(3 5.660770906e-16 0)
(3 1.900729887e-15 0)
(3 3.649195591e-15 0)
(3 4.0812797e-15 0)
(3 3.503543701e-15 0)
(3 5.769132072e-15 0)
(3 5.715127592e-15 0)
(3 5.178859252e-15 0)
(3 5.131312154e-15 0)
(3 4.579809918e-15 0)
(3 4.065977531e-15 0)
(3 3.141092583e-15 0)
(3 1.75674265e-15 0)
(3 9.76582017e-16 0)
(3 3.912242954e-16 0)
(3 8.821725748e-16 0)
(3 1.36027947e-15 0)
(3 1.37658403e-15 0)
(3 8.233624194e-16 0)
(3 5.608405997e-16 0)
(3 -1.027336695e-15 0)
(3 -2.308412311e-15 0)
(3 -1.374537834e-15 0)
(3 -9.107892819e-16 0)
(3 -6.716895272e-16 0)
(3 -8.147675031e-16 0)
(3 -1.079420077e-15 0)
(3 -1.409076919e-15 0)
(3 -1.713916584e-15 0)
(3 -1.831955595e-15 0)
(3 -5.562118344e-16 0)
(3 4.420377029e-16 0)
(3 8.57680914e-16 0)
(3 1.565732726e-15 0)
(3 2.861351757e-15 0)
(3 3.423283822e-15 0)
(3 4.22254778e-15 0)
(3 4.199010306e-15 0)
(3 8.047671908e-15 0)
(3 7.491635602e-15 0)
(3 7.454868481e-15 0)
(3 6.712394719e-15 0)
(3 4.960903847e-15 0)
(3 3.355023578e-15 0)
(3 3.341481519e-15 0)
(3 3.095460823e-15 0)
(3 2.381474888e-15 0)
(3 1.461428634e-15 0)
(3 1.086731995e-15 0)
(3 -7.206866482e-17 0)
(3 3.078880692e-16 0)
(3 -2.03538374e-16 0)
(3 -9.074129064e-16 0)
(3 -1.117197856e-15 0)
(3 -1.460661145e-15 0)
(3 -2.374227098e-15 0)
(3 -3.070962854e-15 0)
(3 -3.180171228e-15 0)
(3 -3.240323513e-15 0)
(3 -3.123637134e-15 0)
(3 -2.545450826e-15 0)
(3 -1.93798188e-15 0)
(3 -2.343230786e-15 0)
(3 -1.087176145e-15 0)
(3 2.708580763e-16 0)
(3 2.646438254e-16 0)
(3 4.403070081e-16 0)
(3 6.180841437e-16 0)
(3 5.419531851e-16 0)
(3 6.532937799e-16 0)
(3 1.291561834e-15 0)
(3 6.303189164e-15 0)
(3 5.820143469e-15 0)
(3 4.704759757e-15 0)
(3 3.413532501e-15 0)
(3 3.304437171e-15 0)
(3 3.190127472e-15 0)
(3 2.74321904e-15 0)
(3 2.481484242e-15 0)
(3 1.484249136e-15 0)
(3 4.521014382e-16 0)
(3 -1.172265259e-15 0)
(3 -1.210972526e-15 0)
(3 -1.104802992e-15 0)
(3 -1.415354313e-15 0)
(3 -1.843352113e-15 0)
(3 -2.389345652e-15 0)
(3 -2.476478485e-15 0)
(3 -3.736968802e-15 0)
(3 -5.365249306e-15 0)
(3 -6.923560517e-15 0)
(3 -6.357668744e-15 0)
(3 -5.439059955e-15 0)
(3 -4.137897895e-15 0)
(3 -3.013163618e-15 0)
(3 -1.809456304e-15 0)
(3 -8.446668105e-16 0)
(3 -1.486392077e-15 0)
(3 -8.982359907e-16 0)
(3 3.158185626e-16 0)
(3 8.613271065e-16 0)
(3 1.210317792e-15 0)
(3 1.02821989e-15 0)
(3 8.695024554e-16 0)
(3 3.66520243e-15 0)
(3 3.294568871e-15 0)
(3 2.468534788e-15 0)
(3 1.692451116e-15 0)
(3 1.07240357e-15 0)
(3 1.042908427e-15 0)
(3 9.531107399e-16 0)
(3 6.612773482e-16 0)
(3 8.086013909e-16 0)
(3 1.071752178e-15 0)
(3 1.190146944e-15 0)
(3 8.398911046e-16 0)
(3 -3.70451772e-17 0)
(3 -6.233311008e-16 0)
(3 -1.94448683e-15 0)
(3 -2.260246489e-15 0)
(3 -3.154488989e-15 0)
(3 -5.077195617e-15 0)
(3 -5.488391549e-15 0)
(3 -5.138454713e-15 0)
(3 -5.219477215e-15 0)
(3 -5.594877485e-15 0)
(3 -5.383328603e-15 0)
(3 -3.964604697e-15 0)
(3 -2.207882677e-15 0)
(3 -1.687876575e-15 0)
(3 -1.997773961e-15 0)
(3 -1.610183243e-15 0)
(3 4.885189553e-17 0)
(3 5.780279403e-16 0)
(3 2.143084632e-15 0)
(3 2.250936404e-15 0)
(3 1.959878646e-15 0)
(3 1.294126821e-15 0)
(3 7.90537349e-16 0)
(3 1.318850047e-15 0)
(3 6.922938554e-16 0)
(3 -5.089482403e-16 0)
(3 -1.600253099e-15 0)
(3 -1.386215181e-15 0)
(3 -1.571092205e-15 0)
(3 -6.450826077e-16 0)
(3 6.375085958e-16 0)
(3 1.397367502e-15 0)
(3 9.644677625e-16 0)
(3 -3.025914221e-16 0)
(3 -1.708138801e-15 0)
(3 -3.286830429e-15 0)
(3 -4.480817364e-15 0)
(3 -5.340664895e-15 0)
(3 -6.390510615e-15 0)
(3 -6.306528242e-15 0)
(3 -5.799072938e-15 0)
(3 -4.836454737e-15 0)
(3 -4.489216214e-15 0)
(3 -4.836834081e-15 0)
(3 -5.09980159e-15 0)
(3 -4.728654702e-15 0)
(3 -4.200763175e-15 0)
(3 -2.058439304e-15 0)
(3 -1.138953526e-15 0)
(3 -3.850858009e-16 0)
(3 -1.769236616e-16 0)
(3 3.79017453e-16 0)
(3 8.242017075e-16 0)
(3 7.49815545e-16 0)
(3 3.811450003e-15 0)
(3 3.70421517e-15 0)
(3 3.059378956e-15 0)
(3 2.604096184e-15 0)
(3 2.511847149e-15 0)
(3 2.499258318e-15 0)
(3 1.057415235e-15 0)
(3 2.445138159e-16 0)
(3 -6.769316674e-16 0)
(3 8.365545205e-16 0)
(3 1.417683722e-15 0)
(3 1.046261582e-15 0)
(3 -4.97550473e-16 0)
(3 -3.344701353e-15 0)
(3 -4.314283942e-15 0)
(3 -5.140639722e-15 0)
(3 -5.189488153e-15 0)
(3 -5.380258105e-15 0)
(3 -5.462685443e-15 0)
(3 -5.155166665e-15 0)
(3 -4.761612202e-15 0)
(3 -4.612427184e-15 0)
(3 -4.630592303e-15 0)
(3 -5.302334771e-15 0)
(3 -4.699135949e-15 0)
(3 -4.144928734e-15 0)
(3 -3.095685685e-15 0)
(3 -1.694365502e-15 0)
(3 -4.075726616e-16 0)
(3 -1.63743782e-16 0)
(3 -8.994572132e-16 0)
(3 -1.098717192e-15 0)
(3 -5.006960893e-16 0)
(3 2.684107966e-15 0)
(3 3.054485868e-15 0)
(3 3.565496149e-15 0)
(3 4.684164736e-15 0)
(3 5.286276259e-15 0)
(3 5.210708341e-15 0)
(3 4.709154249e-15 0)
(3 3.296963105e-15 0)
(3 2.604287388e-15 0)
(3 2.924676577e-15 0)
(3 2.611237631e-15 0)
(3 2.573206361e-15 0)
(3 6.880688586e-16 0)
(3 -9.91653887e-16 0)
(3 -1.636752021e-15 0)
(3 -3.126945788e-15 0)
(3 -4.383510068e-15 0)
(3 -3.567560197e-15 0)
(3 -2.298016467e-15 0)
(3 -2.105702406e-15 0)
(3 -2.714098992e-15 0)
(3 -3.110559127e-15 0)
(3 -3.512638951e-15 0)
(3 -4.129604832e-15 0)
(3 -4.163235601e-15 0)
(3 -3.685255962e-15 0)
(3 -2.815884361e-15 0)
(3 -2.317267954e-15 0)
(3 -1.199196231e-15 0)
(3 -2.670799397e-16 0)
(3 2.273416773e-17 0)
(3 -3.854659981e-16 0)
(3 -3.537454329e-16 0)
(3 8.453178451e-16 0)
(3 1.667299594e-15 0)
(3 2.584439836e-15 0)
(3 2.538801508e-15 0)
(3 2.203747842e-15 0)
(3 1.897803437e-15 0)
(3 1.987992639e-15 0)
(3 2.599437664e-15 0)
(3 2.833281307e-15 0)
(3 2.147856466e-15 0)
(3 1.69136414e-15 0)
(3 -4.457262998e-16 0)
(3 -2.020248329e-15 0)
(3 -2.382106134e-15 0)
(3 -2.757115925e-15 0)
(3 -3.017867484e-15 0)
(3 -3.544471063e-15 0)
(3 -1.805735608e-15 0)
(3 -5.088162851e-16 0)
(3 -1.582423453e-15 0)
(3 -1.847021013e-15 0)
(3 -1.977984275e-15 0)
(3 -2.457685074e-15 0)
(3 -2.722898798e-15 0)
(3 -3.007358609e-15 0)
(3 -3.527123039e-15 0)
(3 -3.478650659e-15 0)
(3 -3.293929691e-15 0)
(3 -3.652437033e-15 0)
(3 -3.70322959e-15 0)
(3 -1.494995382e-15 0)
(3 1.632612507e-16 0)
(3 1.256222893e-16 0)
(3 1.120646545e-15 0)
(3 1.756867093e-15 0)
(3 1.818234553e-15 0)
(3 1.577004401e-15 0)
(3 1.680147725e-15 0)
(3 1.820914693e-15 0)
(3 1.783634196e-15 0)
(3 1.558231675e-15 0)
(3 1.104246412e-15 0)
(3 1.836414934e-15 0)
(3 1.61492584e-15 0)
(3 -9.538579765e-16 0)
(3 -3.464177195e-15 0)
(3 -3.697993636e-15 0)
(3 -3.794711449e-15 0)
(3 -1.970223113e-15 0)
(3 -2.29667111e-16 0)
(3 -1.764018214e-15 0)
(3 -2.721911542e-15 0)
(3 -2.820659387e-15 0)
(3 -2.749607144e-15 0)
(3 -2.711760941e-15 0)
(3 -2.701624787e-15 0)
(3 -2.557460996e-15 0)
(3 -2.778699104e-15 0)
(3 -3.200438694e-15 0)
(3 -3.363682418e-15 0)
(3 -3.690032943e-15 0)
(3 -3.942021577e-15 0)
(3 -3.726785095e-15 0)
(3 -3.771056592e-15 0)
(3 -5.09717484e-15 0)
(3 -5.225475585e-15 0)
(3 1.902870273e-15 0)
(3 2.185924322e-15 0)
(3 2.588588116e-15 0)
(3 3.345055759e-15 0)
(3 4.530033194e-15 0)
(3 4.12858655e-15 0)
(3 2.478906392e-15 0)
(3 1.933623698e-15 0)
(3 -7.364352482e-16 0)
(3 -2.21020958e-15 0)
(3 -2.994799312e-15 0)
(3 -2.635109827e-15 0)
(3 -2.682312306e-15 0)
(3 -2.467223597e-15 0)
(3 -1.493253534e-15 0)
(3 -4.472223579e-16 0)
(3 -7.225545144e-16 0)
(3 -1.738161827e-15 0)
(3 -1.544951797e-15 0)
(3 -9.487698141e-16 0)
(3 -2.584158369e-15 0)
(3 -4.161160983e-15 0)
(3 -4.002971052e-15 0)
(3 -3.385421074e-15 0)
(3 -3.428028889e-15 0)
(3 -3.145492091e-15 0)
(3 -4.102507013e-15 0)
(3 -4.660197233e-15 0)
(3 -4.058410631e-15 0)
(3 -3.940198471e-15 0)
(3 -5.619511278e-15 0)
(3 -5.799004728e-15 0)
(3 -5.412718065e-15 0)
(3 2.240856296e-15 0)
(3 1.066612371e-15 0)
(3 7.498303843e-16 0)
(3 3.813339932e-16 0)
(3 -7.562733898e-16 0)
(3 -9.678348607e-16 0)
(3 -1.459539712e-15 0)
(3 -2.071490018e-15 0)
(3 -2.886833785e-15 0)
(3 -3.425416222e-15 0)
(3 -3.682119995e-15 0)
(3 -3.043946948e-15 0)
(3 -1.469225204e-15 0)
(3 -6.770448071e-16 0)
(3 -7.458112054e-16 0)
(3 -1.054517401e-15 0)
(3 -1.796363983e-15 0)
(3 -1.728303628e-15 0)
(3 -1.117213671e-15 0)
(3 -8.96302551e-16 0)
(3 -7.002117755e-16 0)
(3 -1.56063311e-15 0)
(3 -2.769924208e-15 0)
(3 -3.497728734e-15 0)
(3 -3.404655995e-15 0)
(3 -3.74817779e-15 0)
(3 -4.927438014e-15 0)
(3 -5.998958604e-15 0)
(3 -6.328300164e-15 0)
(3 -6.296144003e-15 0)
(3 -5.662364577e-15 0)
(3 -4.627824383e-15 0)
(3 -3.748305572e-15 0)
(3 3.532691891e-15 0)
(3 2.181823402e-15 0)
(3 -2.129052938e-16 0)
(3 -1.493701307e-15 0)
(3 -2.678779319e-15 0)
(3 -2.639620558e-15 0)
(3 -2.554980112e-15 0)
(3 -3.655368516e-15 0)
(3 -4.431280553e-15 0)
(3 -4.452682495e-15 0)
(3 -3.862705325e-15 0)
(3 -2.573394865e-15 0)
(3 -1.883291634e-15 0)
(3 -1.436047972e-15 0)
(3 -1.28230291e-15 0)
(3 -1.12497324e-15 0)
(3 -2.110631571e-15 0)
(3 -2.642529612e-15 0)
(3 -1.721795883e-15 0)
(3 3.9217881e-16 0)
(3 8.404651215e-16 0)
(3 8.522416926e-16 0)
(3 3.578544193e-16 0)
(3 -1.00516459e-15 0)
(3 -1.943735724e-15 0)
(3 -2.301749893e-15 0)
(3 -2.613361678e-15 0)
(3 -2.876803053e-15 0)
(3 -3.355661183e-15 0)
(3 -3.568733701e-15 0)
(3 -3.035227241e-15 0)
(3 -2.783776813e-15 0)
(3 -3.146798396e-15 0)
(3 2.538207276e-15 0)
(3 1.362252571e-15 0)
(3 1.541539465e-16 0)
(3 -1.066383812e-15 0)
(3 -3.007437782e-15 0)
(3 -3.709379278e-15 0)
(3 -3.817364823e-15 0)
(3 -3.916309992e-15 0)
(3 -3.805734842e-15 0)
(3 -3.303622005e-15 0)
(3 -2.72718661e-15 0)
(3 -1.629381687e-15 0)
(3 -1.231559729e-15 0)
(3 -2.234127168e-16 0)
(3 1.04669585e-15 0)
(3 1.231562006e-15 0)
(3 1.63471605e-15 0)
(3 1.786975343e-15 0)
(3 2.173865902e-15 0)
(3 2.388771072e-15 0)
(3 2.740779144e-15 0)
(3 3.323469361e-15 0)
(3 3.84042008e-15 0)
(3 3.559173535e-15 0)
(3 3.28683632e-15 0)
(3 2.601668912e-15 0)
(3 9.30665161e-16 0)
(3 -3.087447385e-16 0)
(3 -1.379478803e-15 0)
(3 -1.310413605e-15 0)
(3 -1.756406961e-15 0)
(3 -2.388593893e-15 0)
(3 -3.660005537e-15 0)
(3 -3.013784455e-16 0)
(3 -1.641103549e-15 0)
(3 -2.363446971e-15 0)
(3 -3.160509682e-15 0)
(3 -3.625372616e-15 0)
(3 -4.497673037e-15 0)
(3 -4.837961675e-15 0)
(3 -3.394825628e-15 0)
(3 -2.860261591e-15 0)
(3 -2.587963099e-15 0)
(3 -6.456190126e-16 0)
(3 7.760986354e-16 0)
(3 2.787321632e-15 0)
(3 3.269928946e-15 0)
(3 2.773181441e-15 0)
(3 2.938478428e-15 0)
(3 3.716187293e-15 0)
(3 4.648916045e-15 0)
(3 3.542573986e-15 0)
(3 3.138334909e-15 0)
(3 3.086373642e-15 0)
(3 2.90665572e-15 0)
(3 2.552715434e-15 0)
(3 2.832246226e-15 0)
(3 3.185521361e-15 0)
(3 3.149228038e-15 0)
(3 2.585126291e-15 0)
(3 2.167663368e-15 0)
(3 -1.925344905e-16 0)
(3 -4.094891729e-15 0)
(3 -5.272927578e-15 0)
(3 -5.675963404e-15 0)
(3 -6.56231265e-15 0)
(3 -4.17451096e-15 0)
(3 -4.759307738e-15 0)
(3 -5.15599501e-15 0)
(3 -5.141856528e-15 0)
(3 -4.526709013e-15 0)
(3 -3.207362615e-15 0)
(3 -2.50516201e-15 0)
(3 -9.882964572e-16 0)
(3 -2.340565473e-16 0)
(3 -5.555980045e-17 0)
(3 -6.111186766e-17 0)
(3 1.034113837e-15 0)
(3 1.333658434e-15 0)
(3 1.00440086e-15 0)
(3 2.229012396e-15 0)
(3 3.233564634e-15 0)
(3 3.249920812e-15 0)
(3 2.417508769e-15 0)
(3 2.146717126e-15 0)
(3 1.627646644e-15 0)
(3 1.151350535e-15 0)
(3 1.130289824e-15 0)
(3 1.221602857e-15 0)
(3 1.280986005e-15 0)
(3 8.17906243e-16 0)
(3 4.866107212e-16 0)
(3 1.018006748e-15 0)
(3 1.525060363e-15 0)
(3 1.093063944e-15 0)
(3 -3.937675623e-16 0)
(3 -2.634410539e-15 0)
(3 -4.421194041e-15 0)
(3 -4.842420595e-15 0)
(3 -6.352647516e-15 0)
(3 -6.285713125e-15 0)
(3 -5.480807928e-15 0)
(3 -4.137618082e-15 0)
(3 -3.798830793e-15 0)
(3 -4.248918826e-15 0)
(3 -3.825973878e-15 0)
(3 -3.271574728e-15 0)
(3 -2.801117252e-15 0)
(3 -1.75428999e-15 0)
(3 -8.888872728e-16 0)
(3 -2.121800314e-15 0)
(3 -3.155533996e-15 0)
(3 -4.034418362e-15 0)
(3 -2.817584687e-15 0)
(3 -2.164537629e-15 0)
(3 -9.988282887e-16 0)
(3 2.996990373e-16 0)
(3 6.930128788e-16 0)
(3 4.35376908e-16 0)
(3 -3.920751833e-16 0)
(3 -4.370046084e-16 0)
(3 -1.938079526e-16 0)
(3 -1.126993951e-15 0)
(3 -2.011556793e-15 0)
(3 -2.666387032e-15 0)
(3 -2.934944232e-15 0)
(3 -2.273665748e-15 0)
(3 -1.665829008e-15 0)
(3 -1.682931155e-15 0)
(3 -1.248174593e-15 0)
(3 -1.456433569e-15 0)
(3 -1.419785308e-15 0)
(3 -5.017546868e-15 0)
(3 -4.046709787e-15 0)
(3 -3.590151093e-15 0)
(3 -2.806726796e-15 0)
(3 -2.617490406e-15 0)
(3 -2.096599087e-15 0)
(3 -1.684284027e-15 0)
(3 -1.202443864e-15 0)
(3 -1.119293667e-15 0)
(3 -1.142020276e-15 0)
(3 -1.287953027e-15 0)
(3 -1.337640656e-15 0)
(3 -2.070947095e-15 0)
(3 -1.194909083e-15 0)
(3 -5.919747046e-16 0)
(3 -1.188882732e-15 0)
(3 -1.447179632e-15 0)
(3 -1.404890927e-15 0)
(3 -1.809251066e-15 0)
(3 -1.842663286e-15 0)
(3 -1.613454074e-15 0)
(3 -1.799053595e-15 0)
(3 -2.13373231e-15 0)
(3 -2.402622828e-15 0)
(3 -2.1654607e-15 0)
(3 -2.367278312e-15 0)
(3 -3.207176161e-15 0)
(3 -3.894040016e-15 0)
(3 -3.193833139e-15 0)
(3 -2.689174863e-15 0)
(3 -1.864898639e-15 0)
(3 -1.488160078e-15 0)
(3 -1.389388263e-15 0)
(3 -4.766765553e-15 0)
(3 -4.717120851e-15 0)
(3 -4.134545394e-15 0)
(3 -2.825427051e-15 0)
(3 -1.779609311e-15 0)
(3 -6.043955788e-16 0)
(3 4.82341368e-16 0)
(3 1.845508501e-15 0)
(3 2.909130848e-15 0)
(3 2.977617601e-15 0)
(3 2.778653645e-15 0)
(3 2.545623796e-15 0)
(3 2.962257065e-15 0)
(3 3.566610774e-15 0)
(3 3.107583318e-15 0)
(3 1.355108229e-15 0)
(3 -5.682888581e-16 0)
(3 -2.308659823e-15 0)
(3 -3.455179387e-15 0)
(3 -4.049496502e-15 0)
(3 -3.840671958e-15 0)
(3 -4.434294796e-15 0)
(3 -3.437320699e-15 0)
(3 -2.692294428e-15 0)
(3 -2.357454592e-15 0)
(3 -4.507658982e-16 0)
(3 2.125597462e-16 0)
(3 -1.59145849e-15 0)
(3 -2.348308476e-15 0)
(3 -1.570262525e-15 0)
(3 -8.980955461e-16 0)
(3 -5.344118926e-16 0)
(3 -6.371592211e-16 0)
(3 -2.877581777e-15 0)
(3 -3.156928365e-15 0)
(3 -3.493024049e-15 0)
(3 -3.037565781e-15 0)
(3 -3.400078733e-15 0)
(3 -2.419465755e-15 0)
(3 -1.532198111e-15 0)
(3 -2.38154774e-16 0)
(3 5.832816063e-16 0)
(3 9.958412685e-16 0)
(3 1.24269655e-15 0)
(3 1.461856205e-15 0)
(3 1.644123389e-15 0)
(3 8.775526116e-16 0)
(3 7.196824458e-17 0)
(3 -7.824345935e-17 0)
(3 -1.50280297e-16 0)
(3 -6.099536879e-16 0)
(3 -1.481697662e-15 0)
(3 -2.295571711e-15 0)
(3 -3.343961331e-15 0)
(3 -5.214021336e-15 0)
(3 -5.328509961e-15 0)
(3 -4.664410108e-15 0)
(3 -4.531981145e-15 0)
(3 -4.129129937e-15 0)
(3 -3.193123318e-15 0)
(3 -2.210482597e-15 0)
(3 -2.174443858e-15 0)
(3 -3.548378349e-15 0)
(3 -3.137643579e-15 0)
(3 -1.938381204e-15 0)
(3 -4.060158089e-16 0)
(3 -8.990820295e-16 0)
(3 -9.498634716e-16 0)
(3 -1.317414853e-15 0)
(3 -2.574290956e-15 0)
(3 -3.067836797e-15 0)
(3 -2.87034795e-15 0)
(3 -2.761020745e-15 0)
(3 -2.191252197e-15 0)
(3 -1.650404483e-15 0)
(3 -1.640143156e-15 0)
(3 -1.78039759e-15 0)
(3 -2.584543446e-15 0)
(3 -3.53475988e-15 0)
(3 -3.788699683e-15 0)
(3 -3.370285311e-15 0)
(3 -2.919030465e-15 0)
(3 -3.237743974e-15 0)
(3 -4.027834195e-15 0)
(3 -4.373322803e-15 0)
(3 -4.544130644e-15 0)
(3 -4.757172719e-15 0)
(3 -4.669173418e-15 0)
(3 -4.925358839e-15 0)
(3 -5.807122121e-15 0)
(3 -5.457644872e-15 0)
(3 -5.475043479e-15 0)
(3 -5.421231752e-15 0)
(3 -4.534295792e-15 0)
(3 -2.87166885e-15 0)
(3 -3.158701199e-15 0)
(3 -3.12404191e-15 0)
(3 -2.245378482e-15 0)
(3 -2.170239867e-15 0)
(3 -2.623225361e-15 0)
(3 -2.360805651e-15 0)
(3 -2.405250284e-15 0)
(3 -2.628554141e-15 0)
(3 -2.126143611e-15 0)
(3 -1.652464047e-15 0)
(3 -1.762617752e-15 0)
(3 -2.120656151e-15 0)
(3 -2.311426457e-15 0)
(3 -1.908954721e-15 0)
(3 -4.856592553e-17 0)
(3 -1.192807023e-16 0)
(3 -1.323638767e-15 0)
(3 -2.137215769e-15 0)
(3 -3.668220341e-15 0)
(3 -4.011468925e-15 0)
(3 -3.877631809e-15 0)
(3 -4.010981699e-15 0)
(3 -4.506410221e-15 0)
(3 -5.354748866e-15 0)
(3 -5.555568431e-15 0)
(3 -4.741062653e-15 0)
(3 -3.739953753e-15 0)
(3 -2.714208221e-15 0)
(3 -1.67033864e-15 0)
(3 -1.846534808e-15 0)
(3 -1.868168615e-15 0)
(3 -1.35204525e-15 0)
(3 -7.432631964e-16 0)
(3 -3.230256362e-16 0)
(3 -6.778756356e-16 0)
(3 4.881067478e-20 0)
(3 -6.987368205e-16 0)
(3 -4.393349136e-15 0)
(3 -4.243416694e-15 0)
(3 -3.996289252e-15 0)
(3 -3.416978308e-15 0)
(3 -2.958817164e-15 0)
(3 -3.037992722e-15 0)
(3 -3.227310608e-15 0)
(3 -3.561138528e-15 0)
(3 -3.852459763e-15 0)
(3 -4.41288818e-15 0)
(3 -4.449651321e-15 0)
(3 -1.815108559e-15 0)
(3 -2.305514898e-15 0)
(3 -3.316980165e-15 0)
(3 -4.259117104e-15 0)
(3 -4.55778107e-15 0)
(3 -4.048860464e-15 0)
(3 -3.923731556e-15 0)
(3 -3.539655311e-15 0)
(3 -3.169159968e-15 0)
(3 -3.829085497e-15 0)
(3 -3.907033045e-15 0)
(3 -1.687334739e-15 0)
(3 6.250288996e-16 0)
(3 9.854000394e-16 0)
(3 1.56929176e-15 0)
(3 2.035092049e-15 0)
(3 2.107673766e-15 0)
(3 1.479574887e-15 0)
(3 1.40258259e-15 0)
(3 1.143448607e-15 0)
(3 1.510037304e-15 0)
(3 1.718542763e-15 0)
(3 -1.966211109e-15 0)
(3 -2.216583072e-15 0)
(3 -2.275126129e-15 0)
(3 -2.734288552e-15 0)
(3 -4.683981594e-15 0)
(3 -5.260954967e-15 0)
(3 -6.000020091e-15 0)
(3 -6.143302339e-15 0)
(3 -6.802348773e-15 0)
(3 -6.910532916e-15 0)
(3 -8.139004559e-15 0)
(3 -8.389114616e-15 0)
(3 -7.963447571e-15 0)
(3 -6.102401414e-15 0)
(3 -4.504889701e-15 0)
(3 -4.486709206e-15 0)
(3 -4.694233286e-15 0)
(3 -4.535185529e-15 0)
(3 -4.192511153e-15 0)
(3 -3.311066033e-15 0)
(3 -2.8399855e-15 0)
(3 -2.363927025e-15 0)
(3 -1.32317523e-15 0)
(3 -6.466895675e-16 0)
(3 -1.015802298e-16 0)
(3 1.560494498e-15 0)
(3 2.463185193e-15 0)
(3 2.254595723e-15 0)
(3 2.260476883e-15 0)
(3 2.660942847e-15 0)
(3 3.287378286e-15 0)
(3 2.186212954e-15 0)
(3 1.704527361e-15 0)
(3 -1.199186597e-15 0)
(3 -1.3599079e-15 0)
(3 -2.418031637e-15 0)
(3 -3.361909377e-15 0)
(3 -4.558648862e-15 0)
(3 -5.949214761e-15 0)
(3 -6.431816396e-15 0)
(3 -6.513393835e-15 0)
(3 -7.761081569e-15 0)
(3 -8.974332812e-15 0)
(3 -9.770864678e-15 0)
(3 -9.498347929e-15 0)
(3 -8.851414444e-15 0)
(3 -7.478823904e-15 0)
(3 -6.702118941e-15 0)
(3 -5.189357347e-15 0)
(3 -5.228645085e-15 0)
(3 -5.414628682e-15 0)
(3 -5.689201828e-15 0)
(3 -3.644084512e-15 0)
(3 -1.578722761e-16 0)
(3 7.057015558e-16 0)
(3 5.910429254e-16 0)
(3 5.324790909e-16 0)
(3 7.826990733e-16 0)
(3 9.685405717e-16 0)
(3 1.669140585e-15 0)
(3 3.213261151e-15 0)
(3 4.301007086e-15 0)
(3 3.8725312e-15 0)
(3 3.512022951e-15 0)
(3 3.269153144e-15 0)
(3 2.691949533e-15 0)
(3 -2.437711732e-15 0)
(3 -3.175016501e-15 0)
(3 -4.397645643e-15 0)
(3 -4.370141608e-15 0)
(3 -4.145490287e-15 0)
(3 -4.496443648e-15 0)
(3 -4.982408786e-15 0)
(3 -5.235118508e-15 0)
(3 -5.648562723e-15 0)
(3 -6.336134532e-15 0)
(3 -6.718909408e-15 0)
(3 -7.347319308e-15 0)
(3 -7.334361162e-15 0)
(3 -7.595243133e-15 0)
(3 -8.389606749e-15 0)
(3 -7.837192029e-15 0)
(3 -6.186086302e-15 0)
(3 -5.521817302e-15 0)
(3 -4.717371458e-15 0)
(3 -2.095251065e-15 0)
(3 -1.643525379e-15 0)
(3 -1.346482734e-15 0)
(3 -1.546946544e-15 0)
(3 -2.497007427e-15 0)
(3 -1.793125869e-15 0)
(3 -9.569228828e-16 0)
(3 6.80561505e-16 0)
(3 4.141901005e-16 0)
(3 3.354903033e-18 0)
(3 1.225960238e-15 0)
(3 2.032005992e-15 0)
(3 3.310482905e-15 0)
(3 4.729180645e-15 0)
(3 -1.833641248e-15 0)
(3 -2.229517113e-15 0)
(3 -3.236784912e-15 0)
(3 -3.494829461e-15 0)
(3 -3.196905019e-15 0)
(3 -3.072719525e-15 0)
(3 -3.519427219e-15 0)
(3 -3.721397149e-15 0)
(3 -3.659473093e-15 0)
(3 -3.697059771e-15 0)
(3 -3.205707457e-15 0)
(3 -4.271865709e-15 0)
(3 -5.679364116e-15 0)
(3 -6.168845492e-15 0)
(3 -5.734336309e-15 0)
(3 -5.192083699e-15 0)
(3 -4.090172352e-15 0)
(3 -2.824449801e-15 0)
(3 -2.368989069e-15 0)
(3 -1.669710076e-15 0)
(3 -8.875313004e-16 0)
(3 -1.179076263e-15 0)
(3 -3.486603655e-16 0)
(3 1.076261448e-15 0)
(3 1.928046858e-15 0)
(3 2.047022949e-15 0)
(3 1.737770442e-15 0)
(3 1.611698534e-15 0)
(3 2.219883638e-15 0)
(3 2.519344053e-15 0)
(3 3.435026115e-15 0)
(3 3.803137373e-15 0)
(3 4.571345366e-15 0)
(3 -2.148507322e-15 0)
(3 -2.441775971e-15 0)
(3 -2.579836696e-15 0)
(3 -2.286331777e-15 0)
(3 -1.967431899e-15 0)
(3 -1.326068053e-15 0)
(3 -1.211375875e-15 0)
(3 -1.17455862e-15 0)
(3 -1.177248814e-15 0)
(3 -3.011987409e-15 0)
(3 -3.47739726e-15 0)
(3 -4.028375581e-15 0)
(3 -4.680712646e-15 0)
(3 -5.837424155e-15 0)
(3 -6.412615049e-15 0)
(3 -3.788920872e-15 0)
(3 -1.135036937e-15 0)
(3 -1.205567064e-16 0)
(3 -5.200764957e-16 0)
(3 -8.6498976e-16 0)
(3 -6.434411844e-16 0)
(3 1.659812322e-16 0)
(3 2.359034511e-15 0)
(3 4.153391739e-15 0)
(3 5.009365821e-15 0)
(3 4.410508119e-15 0)
(3 3.926661713e-15 0)
(3 4.648462803e-15 0)
(3 5.526526518e-15 0)
(3 5.442701097e-15 0)
(3 5.399576006e-15 0)
(3 5.926520963e-15 0)
(3 5.836496097e-15 0)
(3 -3.351434207e-15 0)
(3 -2.818691485e-15 0)
(3 -1.842989566e-15 0)
(3 -1.189186393e-15 0)
(3 -9.472983793e-16 0)
(3 -6.353506413e-16 0)
(3 -5.209664475e-16 0)
(3 -9.735675478e-16 0)
(3 -1.651020121e-15 0)
(3 -2.23790985e-15 0)
(3 -3.108496372e-15 0)
(3 -3.632279758e-15 0)
(3 -4.60634904e-15 0)
(3 -4.474526902e-15 0)
(3 -4.428216098e-15 0)
(3 -4.437137846e-15 0)
(3 -2.95983106e-15 0)
(3 -1.412154357e-15 0)
(3 -5.867006086e-16 0)
(3 -2.191584684e-16 0)
(3 2.10166988e-17 0)
(3 1.279514961e-15 0)
(3 3.739955607e-15 0)
(3 4.475334603e-15 0)
(3 4.892661017e-15 0)
(3 5.425029829e-15 0)
(3 5.605137897e-15 0)
(3 5.10074731e-15 0)
(3 5.047467932e-15 0)
(3 5.449617542e-15 0)
(3 5.576033695e-15 0)
(3 6.028145533e-15 0)
(3 5.06153948e-15 0)
(3 -1.060849234e-15 0)
(3 -4.021537353e-16 0)
(3 4.269544593e-16 0)
(3 3.505836216e-17 0)
(3 -1.084180159e-15 0)
(3 -1.252199272e-15 0)
(3 -1.403499396e-15 0)
(3 -2.032011425e-15 0)
(3 -2.762221204e-15 0)
(3 -2.770869827e-15 0)
(3 -2.372134727e-15 0)
(3 -1.150087487e-15 0)
(3 -1.041911793e-15 0)
(3 -1.613025044e-15 0)
(3 -2.449614859e-15 0)
(3 -2.160713518e-15 0)
(3 -1.484811446e-15 0)
(3 -3.022392381e-16 0)
(3 -2.627854842e-16 0)
(3 -3.963906502e-16 0)
(3 6.987557107e-17 0)
(3 5.107565929e-16 0)
(3 2.247908623e-15 0)
(3 3.716923922e-15 0)
(3 4.094333838e-15 0)
(3 4.676217579e-15 0)
(3 5.699164065e-15 0)
(3 6.366751565e-15 0)
(3 6.224571215e-15 0)
(3 6.546977751e-15 0)
(3 6.595662161e-15 0)
(3 6.089506262e-15 0)
(3 5.41368003e-15 0)
(3 -1.209995467e-16 0)
(3 7.268119356e-17 0)
(3 2.196020495e-16 0)
(3 -1.918110814e-16 0)
(3 -7.224592415e-17 0)
(3 -4.246708138e-16 0)
(3 -1.245571666e-15 0)
(3 -1.756795554e-15 0)
(3 -2.237809922e-15 0)
(3 -3.421031544e-15 0)
(3 -2.511953197e-15 0)
(3 -3.948433723e-16 0)
(3 3.559826634e-16 0)
(3 5.041742208e-17 0)
(3 -7.480609317e-16 0)
(3 -9.089329611e-16 0)
(3 -5.045625904e-16 0)
(3 -4.921493539e-16 0)
(3 -1.065375031e-15 0)
(3 -1.183188312e-15 0)
(3 -6.83565636e-16 0)
(3 -7.481514785e-16 0)
(3 -4.212336453e-16 0)
(3 1.229144661e-15 0)
(3 2.600942713e-15 0)
(3 2.743106789e-15 0)
(3 3.171303214e-15 0)
(3 4.584167879e-15 0)
(3 6.304227144e-15 0)
(3 7.359906542e-15 0)
(3 7.913563333e-15 0)
(3 8.013192058e-15 0)
(3 7.853284868e-15 0)
(3 6.45054952e-16 0)
(3 4.839043688e-16 0)
(3 6.807871805e-16 0)
(3 4.308309905e-16 0)
(3 2.705742753e-16 0)
(3 -1.474956206e-16 0)
(3 -8.671596449e-16 0)
(3 -1.050510274e-15 0)
(3 -5.513727975e-16 0)
(3 -3.145236958e-16 0)
(3 1.627693132e-17 0)
(3 8.18116455e-17 0)
(3 -2.008623951e-16 0)
(3 -3.240896742e-16 0)
(3 -1.696553199e-15 0)
(3 -2.532117017e-15 0)
(3 -2.580243904e-15 0)
(3 -2.130141895e-15 0)
(3 -1.109559231e-15 0)
(3 -1.626122917e-16 0)
(3 -6.221816083e-16 0)
(3 -1.034318555e-15 0)
(3 -1.41054411e-15 0)
(3 -1.150428391e-15 0)
(3 -3.74452183e-16 0)
(3 1.670927353e-15 0)
(3 2.170680065e-15 0)
(3 2.393467631e-15 0)
(3 3.017761098e-15 0)
(3 3.341739457e-15 0)
(3 4.602362792e-15 0)
(3 6.195729758e-15 0)
(3 6.89427216e-15 0)
(3 2.488078061e-15 0)
(3 2.366069923e-15 0)
(3 2.227953211e-15 0)
(3 1.403546959e-15 0)
(3 8.348812054e-16 0)
(3 5.059315994e-16 0)
(3 4.642296378e-16 0)
(3 1.299987377e-15 0)
(3 1.883653557e-15 0)
(3 2.234694311e-15 0)
(3 -3.293025586e-15 0)
(3 -1.541046325e-15 0)
(3 -9.769773401e-16 0)
(3 9.069928605e-16 0)
(3 1.049039445e-15 0)
(3 -3.759171851e-16 0)
(3 -2.051150338e-15 0)
(3 -2.358623476e-15 0)
(3 -6.85031034e-16 0)
(3 2.890366355e-16 0)
(3 -5.667964681e-16 0)
(3 -6.880581704e-16 0)
(3 2.479976411e-16 0)
(3 5.482467217e-16 0)
(3 3.871714035e-16 0)
(3 7.847475e-16 0)
(3 9.075685785e-16 0)
(3 -1.660529817e-16 0)
(3 -1.13162125e-15 0)
(3 -5.870200719e-16 0)
(3 1.604111847e-16 0)
(3 -7.683466174e-16 0)
(3 -2.979757234e-15 0)
(3 -4.529532223e-15 0)
(3 -4.324959773e-15 0)
(3 -3.723689783e-15 0)
(3 -2.809746223e-15 0)
(3 -4.164203072e-15 0)
(3 -4.248449665e-15 0)
(3 -3.860138649e-15 0)
(3 -2.565402464e-15 0)
(3 -2.14701872e-15 0)
(3 -1.850538834e-16 0)
(3 -3.235134907e-15 0)
(3 -1.888985635e-15 0)
(3 -6.853113635e-17 0)
(3 -4.521093153e-16 0)
(3 -2.349471405e-15 0)
(3 -2.2063385e-15 0)
(3 -2.189392312e-15 0)
(3 -1.889390887e-15 0)
(3 -1.732008052e-16 0)
(3 -1.788780721e-16 0)
(3 -1.093342257e-15 0)
(3 -1.34345116e-15 0)
(3 -8.000980573e-17 0)
(3 4.068834401e-15 0)
(3 3.154473673e-15 0)
(3 2.799109697e-15 0)
(3 2.549398229e-15 0)
(3 7.152699381e-16 0)
(3 -5.545225147e-16 0)
(3 -6.333381487e-16 0)
(3 -5.983812022e-16 0)
(3 2.200724508e-16 0)
(3 -5.91681182e-16 0)
(3 -1.097530704e-15 0)
(3 -1.265624652e-16 0)
(3 8.861645107e-16 0)
(3 4.488621179e-16 0)
(3 -1.500362821e-15 0)
(3 -1.410936762e-15 0)
(3 -1.62517386e-15 0)
(3 -7.750233772e-16 0)
(3 5.706610525e-17 0)
(3 1.08650736e-15 0)
(3 -2.288096392e-15 0)
(3 -2.777943547e-15 0)
(3 -1.926722066e-15 0)
(3 -2.297377675e-15 0)
(3 -1.563785835e-15 0)
(3 -1.153777782e-16 0)
(3 1.435452644e-16 0)
(3 2.345708288e-15 0)
(3 2.629620298e-15 0)
(3 2.339657378e-15 0)
(3 1.611951031e-15 0)
(3 1.617230648e-16 0)
(3 1.808967466e-15 0)
(3 2.935889577e-15 0)
(3 1.923070577e-15 0)
(3 2.854485474e-15 0)
(3 1.034117924e-15 0)
(3 4.102251302e-16 0)
(3 1.501811382e-16 0)
(3 1.938660502e-16 0)
(3 -1.588152821e-16 0)
(3 1.855098177e-16 0)
(3 2.821541322e-15 0)
(3 2.626937921e-15 0)
(3 1.731640948e-15 0)
(3 2.188962643e-15 0)
(3 2.429134943e-15 0)
(3 2.006606805e-15 0)
(3 2.46637737e-15 0)
(3 3.170297095e-15 0)
(3 3.757580814e-15 0)
(3 5.135525681e-15 0)
(3 6.023477989e-15 0)
(3 -1.509670267e-15 0)
(3 -1.563846609e-15 0)
(3 -2.345599997e-15 0)
(3 -9.270162194e-16 0)
(3 4.890561829e-16 0)
(3 1.157594175e-15 0)
(3 2.661236843e-15 0)
(3 2.335820364e-15 0)
(3 1.749447834e-15 0)
(3 2.029379119e-15 0)
(3 1.903085292e-15 0)
(3 2.088181836e-15 0)
(3 3.369679015e-15 0)
(3 1.990034944e-15 0)
(3 -3.626863479e-16 0)
(3 -1.532673872e-16 0)
(3 -9.170882162e-16 0)
(3 -4.092371498e-16 0)
(3 -1.35727801e-16 0)
(3 -4.826698904e-16 0)
(3 -3.387462949e-16 0)
(3 -1.137618926e-15 0)
(3 9.060277432e-16 0)
(3 1.984917483e-15 0)
(3 4.772637049e-16 0)
(3 -6.662981349e-16 0)
(3 8.323869286e-16 0)
(3 1.214488567e-15 0)
(3 3.460950031e-15 0)
(3 5.140536415e-15 0)
(3 4.693564714e-15 0)
(3 5.012979979e-15 0)
(3 7.193319775e-15 0)
(3 5.476691759e-16 0)
(3 3.613280767e-16 0)
(3 -9.628963904e-16 0)
(3 -1.368323728e-15 0)
(3 -3.267451368e-16 0)
(3 7.855776755e-17 0)
(3 1.502908967e-15 0)
(3 -1.010026692e-15 0)
(3 -1.301541308e-15 0)
(3 -6.944035109e-16 0)
(3 1.038488635e-15 0)
(3 3.17747582e-15 0)
(3 2.056132055e-15 0)
(3 1.586191832e-15 0)
(3 2.083025924e-15 0)
(3 1.331633925e-15 0)
(3 1.549016468e-15 0)
(3 2.374610783e-15 0)
(3 1.423604474e-15 0)
(3 -1.83061013e-15 0)
(3 -1.835157647e-15 0)
(3 1.187149455e-15 0)
(3 2.495165949e-15 0)
(3 3.718355039e-15 0)
(3 4.066640892e-15 0)
(3 2.448252066e-15 0)
(3 -3.712564178e-16 0)
(3 1.094410942e-15 0)
(3 1.717324808e-15 0)
(3 2.92027855e-15 0)
(3 3.833574149e-15 0)
(3 4.124427979e-15 0)
(3 5.214836686e-15 0)
(3 4.692762107e-15 0)
(3 3.59112322e-15 0)
(3 2.194351956e-15 0)
(3 8.01124368e-16 0)
(3 8.494486818e-16 0)
(3 1.391869055e-15 0)
(3 -8.547312814e-16 0)
(3 -1.364911688e-15 0)
(3 -1.069432802e-15 0)
(3 -4.156876732e-16 0)
(3 1.529323554e-16 0)
(3 2.083026945e-16 0)
(3 1.515983569e-15 0)
(3 2.349977855e-15 0)
(3 4.121555298e-15 0)
(3 4.042465066e-15 0)
(3 4.33770992e-15 0)
(3 4.235166275e-15 0)
(3 2.889760481e-15 0)
(3 1.651606609e-15 0)
(3 1.573974189e-15 0)
(3 2.609016885e-15 0)
(3 3.175133768e-15 0)
(3 3.951427267e-15 0)
(3 4.415332511e-15 0)
(3 4.130779624e-15 0)
(3 2.330961261e-15 0)
(3 1.820723539e-15 0)
(3 1.863446047e-15 0)
(3 3.011206358e-15 0)
(3 4.797190301e-15 0)
(3 5.059203259e-15 0)
(3 3.847796474e-15 0)
(3 3.910734566e-15 0)
(3 4.042592793e-15 0)
(3 4.910506486e-15 0)
(3 3.491973887e-15 0)