/*--------------------------------*- C++ -*----------------------------------*\
  =========                 |
  \\      /  F ield         | OpenFOAM: The Open Source CFD Toolbox
   \\    /   O peration     | Website:  https://openfoam.org
    \\  /    A nd           | Version:  7
     \\/     M anipulation  |
\*---------------------------------------------------------------------------*/
FoamFile
{
    version     2.0;
    format      ascii;
    class       volScalarField;
    location    "2.6";
    object      p;
}
// * * * * * * * * * * * * * * * * * * * * * * * * * * * * * * * * * * * * * //

dimensions      [1 -1 -2 0 0 0 0];

internalField   nonuniform List<scalar> 
2222
(
1.072485555
1.050787046
1.0300503
1.010093801
1.894157486
1.853789664
1.813466879
1.77376864
1.735242925
1.697554312
1.660317834
1.624291086
1.590670124
1.558219327
1.525557866
1.49312386
1.461810512
1.43103636
1.399984803
1.369409734
1.339944421
1.311353257
1.283267391
1.256246294
1.231442326
1.207378248
1.183256183
1.159537191
1.136476513
1.11313663
1.089646693
1.066866958
1.045033843
1.023957431
1.003512474
1.870835927
1.830114257
1.791610658
1.755433496
1.719789314
1.684161104
1.649222326
1.615287579
1.581449656
1.547118847
1.513360214
1.480656227
1.448791606
1.417301908
1.387214138
1.359300033
1.331875377
1.30442882
1.277740661
1.2520309
1.226374197
1.200707641
1.175966505
1.15200171
1.128395256
1.104999697
1.082995931
1.061924464
1.040936032
1.020330653
1.000652369
1.853535307
1.815568136
1.778513925
1.741258631
1.704139681
1.667994312
1.632783091
1.59802953
1.563790519
1.531350627
1.500975421
1.470642096
1.440182779
1.410357696
1.381423313
1.352202306
1.323039391
1.294997147
1.268065877
1.2417024
1.216067565
1.192339613
1.169766646
1.14690849
1.124182271
1.101950247
1.079783113
1.057324254
1.035596857
1.014795442
0.9949279617
1.832382089
1.793651957
1.755856903
1.719760778
1.685929106
1.652683827
1.619346446
1.586463106
1.554595741
1.523386617
1.491555382
1.459462182
1.428373767
1.398105029
1.368254964
1.339263361
1.312598896
1.286953456
1.261289927
1.236090835
1.211934541
1.187985888
1.163630505
1.139840346
1.116827164
1.09414853
1.071714358
1.050267541
1.03016961
1.010488496
0.9911636344
1.812630622
1.77678356
1.741678482
1.707393687
1.672855079
1.63814511
1.604234422
1.571223896
1.538841318
1.506688065
1.475466469
1.44640877
1.418200344
1.389457959
1.361065143
1.333656928
1.306294105
1.27875339
1.252295666
1.226866548
1.202137237
1.177776366
1.154958964
1.133525723
1.111802389
1.089942192
1.068601227
1.04759657
1.026532149
1.005831657
0.9860072697
1.794033311
1.756900204
1.72085568
1.685703346
1.651967965
1.620092256
1.58893748
1.557913744
1.527266656
1.497204021
1.467951338
1.438302889
1.407910958
1.378039928
1.34921393
1.321017165
1.293617739
1.26843646
1.244473599
1.220318057
1.19655595
1.17361016
1.151068686
1.127808079
1.104904415
1.082745526
1.061163449
1.039824932
1.018966697
0.9990907828
0.9805097232
1.771064524
1.737593204
1.704437073
1.671858286
1.639942962
1.607833186
1.575685339
1.544023772
1.512954186
1.482404827
1.452197361
1.422318023
1.394352801
1.367658849
1.340690309
1.313971219
1.288257943
1.262694031
1.236789777
1.211705669
1.187672273
1.164218009
1.141039369
1.119033537
1.098602532
1.077830034
1.056911179
1.036284986
1.016266202
0.9968166741
0.9777479841
1.755388905
1.720147472
1.685346221
1.651812408
1.619442871
1.588228526
1.5580849
1.528500947
1.499486541
1.470847326
1.442563943
1.414809764
1.387085474
1.358272097
1.329807808
1.302521534
1.276101903
1.250386189
1.226628999
1.204028078
1.181283026
1.158720372
1.136865562
1.115445165
1.093186205
1.071200862
1.05016157
1.029741219
1.0097709
0.9901157047
0.9708669814
1.72929702
1.696612908
1.666345805
1.636551747
1.606530907
1.576380626
1.546251698
1.516414814
1.486754137
1.457217011
1.428223244
1.399643694
1.371373924
1.344411591
1.319397573
1.294471907
1.269530222
1.245367764
1.22139445
1.196839193
1.173052809
1.150184606
1.127888829
1.105786486
1.084855478
1.065338511
1.045387108
1.0250285
1.005130179
0.9860614423
0.9677676585
1.714555886
1.683363512
1.651446529
1.618979839
1.587413958
1.557317486
1.528342936
1.499526425
1.471035981
1.443500218
1.416739273
1.390135759
1.363952287
1.338016273
1.311271975
1.284330066
1.258517274
1.233665782
1.209422818
1.186797511
1.165528682
1.144037886
1.122647533
1.101851749
1.081322481
1.059907521
1.039205134
1.019691099
1.000566405
0.9814765614
0.9627068414
1.690972302
1.658842549
1.627946306
1.599698643
1.572621245
1.544593426
1.51575699
1.487133145
1.459332375
1.431783988
1.404171986
1.376696436
1.349774275
1.323060059
1.297185517
1.273563472
1.250816557
1.227570735
1.204740098
1.18209112
1.158879106
1.136276689
1.114528865
1.093157342
1.072091925
1.052694692
1.033451741
1.013374762
0.9936451479
0.9746829008
0.956971533
1.673427383
1.643908806
1.615241289
1.586342481
1.556306064
1.526412885
1.49814301
1.47112566
1.444192467
1.417116672
1.390752695
1.365264811
1.340314546
1.315578676
1.291524132
1.267222594
1.241858493
1.217102819
1.193537041
1.170556945
1.149223993
1.129153595
1.108811871
1.088464065
1.068611217
1.048165411
1.027084194
1.007782473
0.9899631235
0.9722185082
0.9546732322
1.651683821
1.62216343
1.593039581
1.564360186
1.537461936
1.51200083
1.485913279
1.45863737
1.431147832
1.404470051
1.378814882
1.353485221
1.328248501
1.303103311
1.278197521
1.253443575
1.230349845
1.209277322
1.187738077
1.166156462
1.144749588
1.122724804
1.10123307
1.080293411
1.059530479
1.0398572
1.02235924
1.004426393
0.9851546159
0.966027037
0.9477217386
1.632552655
1.6047666
1.577486752
1.550931359
1.524605364
1.497136444
1.468831774
1.441166141
1.415179533
1.390374091
1.365932816
1.34144009
1.317244074
1.293403568
1.269964731
1.24717136
1.224846089
1.201238648
1.177716402
1.155281382
1.133697702
1.113819368
1.094514834
1.075000899
1.055815342
1.036356883
1.015950766
0.9962425617
0.9774836263
0.960630301
0.9441402274
1.61204914
1.585062142
1.558600379
1.531977879
1.504880733
1.478054499
1.452696702
1.428275445
1.403846691
1.379035598
1.35413297
1.329504719
1.305550057
1.282005706
1.258704181
1.235498434
1.212215739
1.190367019
1.170222905
1.149820931
1.129489965
1.108849464
1.087603312
1.066969272
1.046755514
1.027144392
1.009701256
0.9923021103
0.9747546096
0.9569083904
0.9386703944
1.592695305
1.566715558
1.540499678
1.514464778
1.489027297
1.464109634
1.439310732
1.414162505
1.388901126
1.363996282
1.339989816
1.316853276
1.294321962
1.271830531
1.249300178
1.226904302
1.20491418
1.183246711
1.161117622
1.139438879
1.118422259
1.098195017
1.07958454
1.061217567
1.042440799
1.02390984
1.004709457
0.9852397787
0.9667146382
0.9487969417
0.9324772229
1.572455959
1.546643056
1.521478403
1.496660627
1.471982653
1.447276801
1.422705276
1.398424967
1.374685701
1.351548948
1.328969684
1.306509482
1.28391042
1.261017824
1.238200355
1.215776773
1.193769963
1.172489048
1.152490387
1.1330575
1.113532745
1.093926475
1.073488484
1.053231041
1.03359853
1.014383986
0.9956989242
0.9790537133
0.9626690469
0.9461399089
0.9297249155
1.551624159
1.527583106
1.503401385
1.47922172
1.455221023
1.431318568
1.407596598
1.384126854
1.361187149
1.338787973
1.316633035
1.294257667
1.271803989
1.24956947
1.227887118
1.206772318
1.185950976
1.165307239
1.144354862
1.123215517
1.102567498
1.082475135
1.063681576
1.046174385
1.02823409
1.010191268
0.9927055753
0.9748325775
0.9562345826
0.9387220297
0.9217942671
1.531945678
1.508156798
1.48464051
1.461192985
1.437840666
1.414643596
1.391920224
1.369732302
1.347930452
1.326105846
1.304091848
1.282002758
1.260274723
1.238886119
1.217652043
1.196424184
1.175092136
1.154010526
1.133605128
1.114630767
1.096324349
1.077808786
1.05893297
1.039395689
1.020229559
1.001912066
0.9839861069
0.9661766973
0.9501035743
0.93484229
0.9190755836
1.510390918
1.488361038
1.466160973
1.44364405
1.421157665
1.39889595
1.377041947
1.355430409
1.333900946
1.312374588
1.290997221
1.269822706
1.248891565
1.22795324
1.206966932
1.186190704
1.165745041
1.145902848
1.126479361
1.107085873
1.087271268
1.067510438
1.048334278
1.030483354
1.013659984
0.9967841595
0.9797408095
0.9632304868
0.9466856178
0.9290713578
0.9124845986
1.49095003
1.470037012
1.448256015
1.426013013
1.403939499
1.382308012
1.361232518
1.340477437
1.31986576
1.299290729
1.278730023
1.258071314
1.237366117
1.216616459
1.19601076
1.175808374
1.15584586
1.136189496
1.116667645
1.097374731
1.078697737
1.060953674
1.043420268
1.02577144
1.007783801
0.989917893
0.9725182501
0.9556668587
0.9387898091
0.9235242106
0.9089693845
1.470958426
1.450087595
1.428895057
1.407630685
1.386750687
1.366311745
1.346252074
1.326296065
1.306290691
1.286167169
1.265936221
1.245595578
1.225341592
1.205252104
1.1853991
1.165924039
1.146619388
1.127610409
1.108794602
1.090197672
1.071815279
1.053582232
1.035320041
1.017474373
1.000201134
0.9836862116
0.9674760008
0.951509655
0.9359061891
0.9200610651
0.9035837264
1.449544439
1.430388539
1.410562712
1.390437809
1.370553841
1.35093198
1.331498649
1.312045651
1.292482617
1.272813497
1.253119766
1.233451609
1.21396202
1.194626024
1.175414389
1.156454727
1.137569979
1.118888571
1.100335654
1.081933703
1.063770693
1.046053861
1.028737433
1.011976995
0.9953049599
0.9786769829
0.9621208848
0.9453356923
0.9287412038
0.9127431831
0.8973232992
1.429874514
1.411410361
1.392569239
1.373553476
1.354604069
1.335655797
1.316738449
1.297796339
1.278821418
1.259835736
1.240861265
1.221877684
1.202992988
1.184190346
1.165463089
1.146961548
1.12855888
1.110358939
1.092314655
1.07442754
1.056818633
1.039527404
1.022355681
1.005430159
0.9886516507
0.9720851165
0.9555515549
0.9392122287
0.9243325294
0.9098714378
0.8950593149
1.409883797
1.39343698
1.376056643
1.357859789
1.339347025
1.320772913
1.302357837
1.28409644
1.265887692
1.247619163
1.229218966
1.210686384
1.192216866
1.173871758
1.155632803
1.137594443
1.119617345
1.101765877
1.084030789
1.066397749
1.049048295
1.032007008
1.0151536
0.9985625181
0.9821775179
0.965909344
0.949957103
0.9344827728
0.9188695531
0.9026759653
0.8871728533
1.39263794
1.37655427
1.359493053
1.341701876
1.323751317
1.305903886
1.288281393
1.270758905
1.253127029
1.235285955
1.2172281
1.199092675
1.181095192
1.163293657
1.145535942
1.127886979
1.110221429
1.092671147
1.075305154
1.058087143
1.041203628
1.024554466
1.008031238
0.9916740114
0.975393249
0.9594158513
0.9435543825
0.9267692181
0.9111875401
0.8979603389
0.8838029001
1.373074674
1.358334837
1.342265829
1.325326521
1.30822928
1.291185952
1.274187392
1.257107294
1.239797382
1.222280866
1.204593095
1.18692647
1.169425136
1.15214886
1.134812798
1.117519243
1.100164533
1.082994656
1.06607205
1.049319951
1.032866394
1.016586233
1.000474977
0.9844070253
0.9685753303
0.9528856751
0.9372213499
0.9227385656
0.9081823966
0.8930041286
0.8773444268
1.357121431
1.341558057
1.32502193
1.308106487
1.291364293
1.274815191
1.258285131
1.24168033
1.224858621
1.207956328
1.19092828
1.174036037
1.157254529
1.140743213
1.124008972
1.10727741
1.090322378
1.073596771
1.057075525
1.040789159
1.024824748
1.008860385
0.9932961542
0.9774429931
0.9620439051
0.9465478393
0.9312928108
0.9153032655
0.9001534232
0.8865805155
0.8738131725
1.328418897
1.314039893
1.299101482
1.284058419
1.269255509
1.254529723
1.239549139
1.224387777
1.208939182
1.19348774
1.177741434
1.161946383
1.145891912
1.129991017
1.113682359
1.097359502
1.080709153
1.064336768
1.048204704
1.032368453
1.016918283
1.001336248
0.9862267158
0.9705640962
0.9555717368
0.9402238714
0.9254397183
0.9113267112
0.8971919994
0.8817322021
0.868201014
1.312556824
1.298537255
1.283964537
1.269396197
1.255121978
1.241011615
1.226677322
1.212076357
1.197134449
1.182115186
1.166847273
1.151459719
1.135779163
1.120108894
1.104119744
1.088064269
1.071793002
1.055691228
1.039927654
1.024500677
1.009401529
0.9943635142
0.9794620963
0.964316773
0.9494019802
0.9342669164
0.9198498933
0.9041716114
0.8896150473
0.8764022366
0.8638594401
1.311797081
1.299173216
1.285303834
1.27106518
1.256995473
1.243252134
1.229609608
1.215719307
1.201506677
1.186960201
1.172324281
1.157516649
1.142582919
1.127346511
1.112001428
1.09635813
1.080632513
1.064744797
1.049045081
1.033774152
1.018710823
1.003948312
0.9893217764
0.9744160689
0.9595924011
0.9446316265
0.9299723465
0.9156084084
0.9017839634
0.8872869487
0.8730025079
0.8588761501
1.305413213
1.292799443
1.278993971
1.264899396
1.251052652
1.237557323
1.22413426
1.210389164
1.196266951
1.18179736
1.167254998
1.152556251
1.137736389
1.122596843
1.107346337
1.09179146
1.076148383
1.060383975
1.044936951
1.029773294
1.01473814
1.000301666
0.9857186614
0.9706734101
0.9562458846
0.9412057085
0.9269723011
0.9122361912
0.8986029776
0.8845422658
0.8701027781
0.856200442
1.298764347
1.286073507
1.272287755
1.258369242
1.244819679
1.231637053
1.218466605
1.204908521
1.190948248
1.176665542
1.16235167
1.147892632
1.133300922
1.118365724
1.103301193
1.087892513
1.072417997
1.056925665
1.041641296
1.026425101
1.011777817
0.9974150204
0.9825576434
0.9680351286
0.9536528422
0.9388512925
0.9243773147
0.9094065527
0.8962113541
0.8824510638
0.8685503356
0.8551263902
1.292141429
1.27937307
1.265690661
1.252063885
1.238871525
1.225986386
1.213011981
1.199594941
1.185785405
1.171700175
1.157616263
1.143373854
1.12897087
1.114184796
1.099230949
1.083934197
1.068666655
1.053321215
1.037954606
1.023034168
1.00872347
0.9938426126
0.9793156922
0.9651437568
0.9502329812
0.9358237346
0.9211027201
0.9071425722
0.8942344921
0.8807364254
0.8661416446
0.8535679447
1.285709188
1.272930962
1.259426566
1.246097962
1.233203766
1.220545947
1.207723386
1.194435326
1.180783102
1.166893942
1.153013932
1.138946259
1.124686697
1.110006467
1.095164723
1.080055868
1.064963214
1.049584267
1.034398944
1.019999335
1.005399273
0.9905422949
0.9767309104
0.9617881943
0.9470240667
0.9323191533
0.9185156476
0.905132413
0.8919014153
0.8779076945
0.8633524275
0.850541077
1.279233348
1.266445214
1.253092829
1.24000227
1.227368986
1.214957606
1.202359942
1.18929048
1.175858181
1.162175223
1.148467622
1.134525582
1.12036428
1.105787296
1.091119909
1.076192526
1.061118447
1.045849863
1.031191129
1.016649514
1.001708352
0.9878765543
0.9738386969
0.9583867598
0.9447365007
0.9297233665
0.9166177718
0.9023198585
0.8887022632
0.8742299146
0.8615477201
0.8470699146
1.272470397
1.259718072
1.246585047
1.233820164
1.221538956
1.209440248
1.197105303
1.184268659
1.17104231
1.157525187
1.143937854
1.13007624
1.116003437
1.101572553
1.08708131
1.072218773
1.05721742
1.042388016
1.027835671
1.012779542
0.9985596194
0.9849845564
0.9700659747
0.9558446796
0.9423363377
0.9277784905
0.9142445752
0.899038863
0.8859561695
0.8725905531
0.859401168
0.8452518759
1.265822062
1.253340077
1.240633713
1.228324055
1.216395812
1.204511154
1.192289283
1.179530159
1.166376928
1.152932013
1.139413484
1.125629358
1.111688892
1.09742012
1.083020192
1.068229241
1.053556956
1.03894026
1.023955822
1.009371021
0.9958202518
0.9812134549
0.966574157
0.9533971185
0.9388508172
0.9252783373
0.9105579553
0.8968176814
0.884210953
0.8709966801
0.8573150544
0.8433755481
1.259807492
1.247674148
1.235326148
1.223301665
1.211543854
1.199743393
1.187557633
1.174823488
1.161704019
1.148312163
1.134874448
1.121213013
1.107437085
1.093290831
1.078983389
1.064447283
1.050021112
1.035137599
1.020249659
1.006594512
0.9925806623
0.9775425504
0.9642134899
0.9501006752
0.9350565468
0.9215676208
0.9073048948
0.8951835431
0.8820856733
0.8688118885
0.8552507918
0.8423722945
1.26510405
1.253910454
1.241867962
1.22961705
1.217681634
1.206026906
1.194364186
1.182350867
1.169800946
1.156853507
1.143611331
1.130318484
1.116806629
1.103164358
1.089130081
1.075040738
1.060758984
1.046226668
1.031264663
1.017267372
1.003451902
0.9886458633
0.975023012
0.9617556904
0.9462084322
0.9328232105
0.9182106429
0.9056928623
0.8932359592
0.8786862963
0.8668073993
0.8522243549
0.8410186
1.258691687
1.247309065
1.235130702
1.22294413
1.211245019
1.199938186
1.188638266
1.176958673
1.164701517
1.151996168
1.138940228
1.125798132
1.112404529
1.098870119
1.085013353
1.071155389
1.056873223
1.042226818
1.027921134
1.014195404
0.9994543979
0.9853576931
0.9725009249
0.9582820692
0.9435346316
0.9310197733
0.9163064076
0.9041516902
0.8899429441
0.8759532615
0.8637150179
0.8492614421
0.8383859084
1.251788189
1.24030521
1.22837691
1.216765935
1.205708875
1.19488215
1.183854007
1.172291784
1.160081369
1.147409063
1.134406103
1.121345372
1.108053432
1.094683388
1.081029854
1.067218469
1.052840223
1.038593943
1.024732288
1.010345871
0.9957604129
0.9828385048
0.9690010969
0.9542389503
0.9414463564
0.9284127685
0.9143562414
0.9016157595
0.8859024626
0.8744722687
0.8598122642
0.8484226191
0.8349268696
1.245473291
1.23431702
1.223022905
1.211964048
1.201266203
1.190588398
1.179568889
1.167934246
1.155626434
1.142882162
1.129880018
1.116903843
1.103773414
1.090617456
1.077070873
1.063218502
1.049076535
1.03527882
1.021053826
1.006319939
0.9931124567
0.9799308523
0.9648991562
0.9515561189
0.9387247587
0.9243476638
0.9112799276
0.8976502452
0.8841027135
0.8729918694
0.8584430808
0.8468560837
0.8329786609
1.239813988
1.228867275
1.217813467
1.206911226
1.196279872
1.185601427
1.17455474
1.162913631
1.150654726
1.138029442
1.125196176
1.11241926
1.099500832
1.086492553
1.072972959
1.059282113
1.045555517
1.031656588
1.016969823
1.003336331
0.9903608982
0.976010233
0.9621277326
0.9494299944
0.934990638
0.9208490137
0.9076339361
0.8944864519
0.8830386536
0.8707253034
0.8571648102
0.8450713632
0.8300917308
1.233561243
1.222455851
1.211258997
1.200404684
1.189908705
1.179436864
1.168625802
1.15725534
1.14531314
1.133030287
1.120498603
1.107956656
1.095185135
1.082227479
1.068827718
1.055472903
1.041823296
1.027524335
1.01350978
1.000583832
0.9866522898
0.972218877
0.9599457841
0.9466129112
0.9316575832
0.9191212461
0.9051268487
0.8930238395
0.8813242843
0.8667463757
0.8552736133
0.8415416999
0.8285954914
1.226046614
1.214803782
1.203890762
1.193713167
1.183929655
1.174023625
1.163603504
1.152479696
1.140686129
1.1284949
1.116045216
1.103589001
1.09087638
1.078026022
1.064884363
1.051644656
1.037719324
1.023699326
1.010561487
0.9970830115
0.9824459501
0.969678635
0.9570796104
0.9426112891
0.9294585001
0.9174193105
0.9033535031
0.8914401892
0.8782051303
0.8634320769
0.8527956748
0.8369853649
0.8297876635
1.218949428
1.208434363
1.198609717
1.189147619
1.179779884
1.170033378
1.159629291
1.14843591
1.136521942
1.124193239
1.111666598
1.099234659
1.086646827
1.074042875
1.06106067
1.047656288
1.033790151
1.020556758
1.007237931
0.9928154519
0.9795233146
0.9671915514
0.9529336585
0.9391739754
0.9272022653
0.9146228307
0.9010827671
0.8888135276
0.8736232268
0.8626048479
0.8495832621
0.8363658633
1.223541802
1.213507802
1.203583492
1.194226075
1.18494955
1.175599942
1.16573776
1.155144709
1.143758415
1.131724512
1.119405671
1.107008699
1.094782814
1.082461257
1.070067538
1.057049158
1.043637587
1.030371933
1.017280217
1.003121657
0.9894285873
0.9770839138
0.9637884422
0.9492644808
0.9370549819
0.9239518604
0.9105873274
0.8972586009
0.8854373931
0.8710404987
0.8621442673
0.8462395866
0.8349998883
1.217735717
1.207837155
1.198042855
1.188670654
1.179436367
1.170026509
1.160057678
1.14934105
1.137920699
1.126060786
1.114138846
1.102192146
1.090331576
1.078239546
1.065869752
1.052841841
1.039862616
1.026940572
1.013280662
0.999227604
0.9868490132
0.9739556147
0.9594932057
0.9470953464
0.9348732154
0.9201404905
0.9074729268
0.8939058185
0.8825005854
0.8702095478
0.8602968302
0.8424806714
0.8434341931
1.210787439
1.200371014
1.19061263
1.181279215
1.172459529
1.163463527
1.153929114
1.14364476
1.132649617
1.121158724
1.109508176
1.097767577
1.086057717
1.073995288
1.061613496
1.048868884
1.036235153
1.023008351
1.009086161
0.9963256202
0.983849969
0.9697265217
0.9563877631
0.9448842912
0.9315550869
0.9175837927
0.9057675456
0.8925286642
0.880481136
0.8692074901
0.855432186
0.8428275107
0.92879396
1.202799308
1.192381894
1.183465301
1.175321806
1.167218847
1.158774278
1.149594768
1.13955704
1.12870549
1.117237512
1.105493656
1.093640264
1.081878247
1.069828172
1.057660339
1.045216124
1.032419729
1.018839909
1.005848275
0.9934343988
0.979781832
0.966066565
0.9541606411
0.9416298818
0.9274113035
0.915684752
0.9039088074
0.8909680214
0.8787191642
0.86644589
0.8521023401
0.8423573967
1.140463716
1.196233105
1.187183025
1.178988555
1.171494782
1.163512827
1.155054791
1.145719958
1.135469881
1.124405709
1.112793442
1.101016322
1.089217465
1.077574006
1.065763752
1.053897748
1.041444787
1.028340128
1.015281059
1.002910458
0.9897166634
0.9756644948
0.9636254871
0.9514536069
0.9372102245
0.9248115426
0.9132645095
0.9007908663
0.888402972
0.8756797309
0.8625133349
0.8508784337
0.8721099219
1.423063206
1.190895585
1.182599542
1.174707355
1.167249505
1.159204272
1.150503464
1.140793868
1.130102408
1.118691676
1.107058984
1.095655918
1.084381652
1.073187842
1.061719324
1.049934726
1.037287523
1.024441023
1.012118199
0.9993764685
0.9853919624
0.9729451393
0.9610334801
0.9475742588
0.9340850911
0.9230095997
0.9094303709
0.897130529
0.8838147291
0.8729395389
0.8594587753
0.8489636606
1.044229739
1.640971337
1.184774053
1.17638478
1.168936208
1.161153744
1.153165271
1.144305011
1.134476803
1.123832072
1.112781328
1.101692591
1.090784661
1.079913875
1.069011898
1.057620637
1.045687192
1.033150615
1.020955235
1.008602803
0.9950270763
0.9820711134
0.9704011909
0.957417553
0.9435943091
0.9321977034
0.9206857463
0.9058447839
0.894669919
0.8808440617
0.8716995446
0.8555235723
0.8558648025
1.282882001
1.693909167
1.177015601
1.168144385
1.161484087
1.154170167
1.1467313
1.138397767
1.129176581
1.119212766
1.108746964
1.09795959
1.087059083
1.076065001
1.065048326
1.053508907
1.041594453
1.029522724
1.017446897
1.004445641
0.9912405373
0.9794305923
0.9669915059
0.953120547
0.9411338486
0.9299845762
0.9167782578
0.9043507734
0.8924225684
0.880580487
0.8684003303
0.8563578803
0.9472203307
1.55329975
1.71704791
1.177774958
1.169753103
1.162441189
1.155993906
1.14985159
1.142587981
1.13445834
1.125321523
1.115392114
1.104910982
1.094097494
1.083165137
1.072091458
1.060978312
1.049474355
1.037902629
1.026024811
1.013501366
1.000423962
0.9883906389
0.9763215579
0.9625176822
0.9501495457
0.9389393288
0.9265324712
0.9128125615
0.902529879
0.8903374985
0.8792900287
0.8643582336
0.8563427749
1.200335605
1.728307937
1.75373134
1.171602188
1.164762598
1.158815339
1.152366408
1.146414202
1.13893352
1.130536473
1.121009704
1.110643091
1.099783013
1.088871264
1.07818772
1.067472407
1.056668144
1.045537694
1.034229222
1.022121453
1.009328781
0.9972217452
0.9853581023
0.9722003182
0.9591070301
0.9479010541
0.9359494303
0.9221120356
0.9110000976
0.8998882164
0.8873258935
0.8753602365
0.8631273192
0.8876631167
1.421340228
1.762081516
1.78699467
1.166959473
1.15997316
1.154373426
1.148354769
1.141943477
1.134189027
1.125293652
1.115192243
1.104374452
1.093506934
1.083021813
1.072905487
1.062766179
1.052446351
1.041597875
1.030181871
1.017823257
1.00568081
0.9941137408
0.9814187747
0.9680622974
0.9567535216
0.9451139976
0.9318382143
0.919626454
0.9091705536
0.8957194366
0.8841467696
0.8711308538
0.8618808488
1.074122171
1.653866645
1.746772232
1.79234665
1.16149813
1.154090982
1.147600495
1.142822697
1.135502623
1.127824638
1.118796222
1.108985526
1.098976116
1.089069112
1.079126119
1.069094866
1.058898949
1.048565649
1.037569522
1.025895724
1.013915638
1.002412866
0.9903982623
0.977062099
0.9652552436
0.9541285358
0.9409905369
0.9285978544
0.9178311249
0.9067541243
0.8924426554
0.8822552731
0.8685827664
0.8706953793
1.360171277
1.790041568
1.758063434
1.791399902
1.153818604
1.147102748
1.140596431
1.136158345
1.12950557
1.122310569
1.11387912
1.104766074
1.095326433
1.085707756
1.075842182
1.065734938
1.055327177
1.044724265
1.033479641
1.021971795
1.010542099
0.998855591
0.9860586732
0.9738140516
0.9626371257
0.9503429295
0.9371660145
0.926362365
0.9154796011
0.9026302759
0.8914944557
0.8793788614
0.868473291
0.9632048893
1.539668556
1.811886013
1.789688168
1.78405724
1.145773871
1.141244819
1.136943409
1.131479781
1.125910624
1.118584004
1.110170512
1.100963648
1.091344876
1.081516809
1.071574238
1.061553618
1.051204024
1.040565783
1.029483304
1.018444422
1.007034046
0.9947011778
0.9823524003
0.9710918905
0.9592657473
0.945821211
0.9349738954
0.9238296886
0.9123751477
0.8982153432
0.8906137571
0.8736697109
0.8695113485
1.219812376
1.711202437
1.787546863
1.808094668
1.774804751
1.141057487
1.136963204
1.13397832
1.127944079
1.122438608
1.114612202
1.105788339
1.096038423
1.085844077
1.07566244
1.065819667
1.056235852
1.046398165
1.036222002
1.025635781
1.014767128
1.002920298
0.9905638025
0.9793916804
0.9678458831
0.95489127
0.9430276081
0.9326729835
0.9206020485
0.9079897415
0.8976694273
0.8862738332
0.8748430652
0.9050433411
1.513935496
1.823998832
1.778668951
1.809674318
1.776722037
1.137464454
1.132596514
1.129729206
1.123897083
1.117667276
1.109215141
1.099788946
1.089658699
1.079721018
1.070319917
1.061060888
1.051688329
1.042060264
1.032219636
1.021790236
1.010631448
0.9986165783
0.9872263982
0.976227143
0.9636195966
0.9512990428
0.9409396977
0.9294280026
0.9172356864
0.9053419148
0.8964055361
0.8805818821
0.8738364502
1.107839421
1.660912808
1.841304984
1.791555518
1.808224
1.137579985
1.133229714
1.127790541
1.123006441
1.118708217
1.111129853
1.102795448
1.093707016
1.084576584
1.075778012
1.067037742
1.057947369
1.048445363
1.038577545
1.028524877
1.017761571
1.006320378
0.9949820545
0.9840511022
0.9722474692
0.9595387518
0.9488312685
0.9381479034
0.9252497606
0.9139475343
0.904113289
0.8925542584
0.8802977308
0.8852078702
1.357765263
1.746831507
1.832577894
1.817483654
1.799834991
1.129283681
1.127153287
1.123135318
1.116712288
1.113256702
1.105772614
1.09822561
1.089755389
1.081099109
1.072462973
1.063689374
1.054541611
1.044996184
1.034987228
1.024644693
1.013632695
1.00257203
0.9917583197
0.980372317
0.9679453411
0.9567176724
0.9462068553
0.9339421736
0.9223743421
0.9117135831
0.9018593953
0.887722349
0.8793976405
1.010234861
1.598976881
1.826892331
1.80882687
1.826544256
1.794545982
1.123799554
1.12007213
1.118636846
1.113613387
1.109097108
1.102294675
1.094648253
1.086084076
1.077196699
1.068180047
1.059015491
1.049756444
1.040415886
1.030609995
1.020337805
1.009676895
0.9991610684
0.9881635686
0.9760327575
0.9646511634
0.9540352904
0.9425689198
0.9298860831
0.9199550508
0.9093251403
0.8984643329
0.883191318
0.8824418119
1.29272072
1.800364476
1.86018153
1.80573824
1.826678008
1.796878521
1.120828021
1.115468384
1.113823986
1.111254397
1.105102655
1.098581647
1.090305207
1.081247406
1.071787454
1.062332853
1.053158563
1.044167514
1.035157063
1.025781937
1.016062245
1.005985814
0.9955181313
0.9839317842
0.9721738785
0.9618615675
0.950595622
0.9381254393
0.9277109532
0.9176129435
0.9059597313
0.8941161451
0.8845282472
0.9360993348
1.513698062
1.852997525
1.864852584
1.815268283
1.822724172
1.804400553
1.117571803
1.112533058
1.108623732
1.107859777
1.100087852
1.093496706
1.084329275
1.074938189
1.065770614
1.057308315
1.049077555
1.040428235
1.031306532
1.021849382
1.012303988
1.002232649
0.9913061401
0.9797366446
0.9691146929
0.9585938666
0.9462702567
0.9350716621
0.9256680827
0.913823683
0.9038236622
0.8887771236
0.8851628946
1.15741016
1.742121575
1.840998725
1.857408968
1.837081584
1.814011295
1.812030288
1.112569033
1.109744883
1.104182003
1.102202541
1.094233527
1.087161636
1.078386838
1.069967484
1.061894594
1.054121229
1.046101204
1.037441644
1.028190954
1.018526612
1.008715897
0.9982078448
0.9870577155
0.9764066442
0.9659902554
0.9543891423
0.9427572442
0.9328243292
0.922731924
0.9099365234
0.8999055604
0.8897260245
0.9042843773
1.486812072
1.868506403
1.827690066
1.8334134
1.844148253
)
;

boundaryField
{
    inlet
    {
        type            fixedValue;
        value           nonuniform 0();
    }
    outlet
    {
        type            zeroGradient;
    }
    bottom
    {
        type            slip;
    }
    top
    {
        type            slip;
    }
    obstacle
    {
        type            zeroGradient;
    }
    defaultFaces
    {
        type            empty;
    }
    procBoundary10to4
    {
        type            processor;
        value           nonuniform List<scalar> 
32
(
1.076560995
1.054250677
1.032522914
1.012429119
1.909126803
1.868158657
1.829160561
1.790607405
1.752486801
1.715378919
1.678941793
1.642167927
1.605590853
1.570120199
1.53569729
1.501710007
1.468531544
1.437421666
1.408102168
1.378849659
1.34974463
1.321553869
1.294170973
1.266567328
1.239491403
1.213546638
1.188491507
1.163743626
1.139555364
1.116837167
1.094724834
1.094724834
)
;
    }
    procBoundary10to5
    {
        type            processor;
        value           uniform 0.9903272871;
    }
    procBoundary10to9
    {
        type            processor;
        value           nonuniform List<scalar> 
55
(
1.935396905
1.912783731
1.892649331
1.872375034
1.848801625
1.831826188
1.805997942
1.790064551
1.764128876
1.746215727
1.723314819
1.703544834
1.682000953
1.660408533
1.640047593
1.61797671
1.598848626
1.575432519
1.55584354
1.532892521
1.510867843
1.491327873
1.468056704
1.447735183
1.425529807
1.40771771
1.386381511
1.37120008
1.341563052
1.325212749
1.325212749
1.322423168
1.316095896
1.309575301
1.303111797
1.296847008
1.290553717
1.283934418
1.277245431
1.271048204
1.271048204
1.27465313
1.26846154
1.2619776
1.25570563
1.249884085
1.243805486
1.236817532
1.229616795
1.229616795
1.232210544
1.226398163
1.220180333
1.212798849
1.205536814
)
;
    }
    procBoundary10to11
    {
        type            processor;
        value           nonuniform List<scalar> 
70
(
0.9840468585
0.981950617
0.9757376582
0.9724435061
0.9671201036
0.9628674674
0.9590237565
0.9524346245
0.9503373203
0.9447273666
0.9406432385
0.9370462993
0.9302078135
0.9278855429
0.921479894
0.9174239695
0.9125942189
0.905963238
0.9039795703
0.8967806997
0.8937204898
0.8878927881
0.882346864
0.8798157478
0.8729043098
0.8697935337
0.8637046686