/*--------------------------------*- C++ -*----------------------------------*\
  =========                 |
  \\      /  F ield         | OpenFOAM: The Open Source CFD Toolbox
   \\    /   O peration     | Website:  https://openfoam.org
    \\  /    A nd           | Version:  7
     \\/     M anipulation  |
\*---------------------------------------------------------------------------*/
FoamFile
{
    version     2.0;
    format      ascii;
    class       volScalarField;
    location    "3.5";
    object      p;
}
// * * * * * * * * * * * * * * * * * * * * * * * * * * * * * * * * * * * * * //

dimensions      [1 -1 -2 0 0 0 0];

internalField   nonuniform List<scalar> 
2225
(
0.9952095799
0.9986373285
1.003369013
1.005591952
1.004694771
1.003544819
1.004074309
1.005243684
1.005952178
1.005510857
1.004608841
1.003513335
1.003530401
1.003699579
1.004228872
1.004712506
0.6274818392
0.6219345713
0.6157227529
0.6095187185
0.6025944447
0.5958614122
0.5898721743
0.590354348
0.5916633122
0.5991616535
0.6263218356
0.6987418179
0.7933721487
0.8884935967
0.9322432462
0.9688282124
0.9893144923
1.008770021
1.008727632
1.006040359
1.000710933
1.001837155
1.004387696
1.006955868
1.006860119
1.005362571
1.003569548
1.003164814
1.003369011
1.00389779
1.004464626
1.004698764
0.639278437
0.6343668319
0.6294896518
0.6242296625
0.6181217433
0.6123440182
0.6050146896
0.5997034315
0.5960881294
0.5937381573
0.5946631135
0.6047018322
0.6438950392
0.7154042701
0.8222342883
0.932225606
0.9760454287
0.9998720818
1.001768161
0.9921833091
0.9951346783
1.001509575
1.007619161
1.007446958
1.005256927
1.003292593
1.002979977
1.003577218
1.004227805
1.004269188
1.00440481
1.004654645
0.6489269734
0.6447774644
0.6402773256
0.6352600835
0.6303936216
0.6247826623
0.6187717891
0.6123014511
0.6049022209
0.5993086235
0.5956584974
0.5965912348
0.5999967598
0.6137539054
0.6650569074
0.749225294
0.8480081158
0.922400439
0.9598993793
0.9749110807
1.000262618
1.009793066
1.0086308
1.003244756
1.002145229
1.003037149
1.004694721
1.00555576
1.005037852
1.004319988
1.00437405
1.00484893
0.6563033469
0.6532375538
0.6495035685
0.6457182025
0.6414204502
0.6368684457
0.6323466582
0.6266144869
0.6209933957
0.6145827677
0.6078688944
0.6036204666
0.601395875
0.6004461945
0.6040234663
0.6247799794
0.6889878993
0.780165693
0.8859692446
0.9556892317
0.9923319203
1.002680202
0.9943131212
0.9954282936
1.000990354
1.00709661
1.00731075
1.00594277
1.003599035
1.003721425
1.004688907
1.005406182
0.6610264037
0.6591368441
0.65677626
0.6538167451
0.6502814007
0.6465904385
0.6421712565
0.6377693332
0.6328821909
0.6270904118
0.6214278728
0.6144518994
0.6076075021
0.6024469847
0.6031451998
0.6047747003
0.6129987093
0.6451587753
0.7144436052
0.814289306
0.9022145491
0.9453963836
0.9697687307
0.9948685197
1.010366569
1.009824098
1.006566195
1.00151829
1.002287867
1.004297282
1.006128119
1.005825828
0.6631156295
0.6624088011
0.6612671899
0.6594946538
0.6572757184
0.654349421
0.6510890427
0.6475567907
0.643419335
0.6393191455
0.6345554348
0.6287269867
0.6232699212
0.6162916146
0.611202078
0.6086455279
0.6062949355
0.6078643797
0.6195241992
0.6663369202
0.7426096118
0.8418257603
0.936931336
0.9824336152
1.002555389
1.00026658
0.9928897455
0.9967487005
1.002533167
1.007198713
1.006602761
1.004313433
0.6636135906
0.6634952518
0.6632039224
0.662595557
0.6614996557
0.6598547048
0.6577112464
0.6548966202
0.6517714309
0.6482116565
0.6440823938
0.6399210559
0.6349697345
0.6290334582
0.6230555238
0.6160951789
0.6104791788
0.6084404331
0.6094569457
0.6140846089
0.6326310702
0.6870235624
0.774024896
0.8644160835
0.9298505864
0.9615517788
0.9813691528
1.005331694
1.009545886
1.007591503
1.002147903
1.002633758
0.6636895071
0.6636733819
0.6636452649
0.6635472848
0.6633072893
0.6627638229
0.661738712
0.6601924898
0.6581292279
0.6554340737
0.6525164979
0.6491270687
0.6452033175
0.6412969587
0.6361557442
0.6306438922
0.6248277958
0.6189547444
0.6150504618
0.6124754837
0.6128433879
0.6185063841
0.645420258
0.7105287946
0.8026491958
0.90570236
0.9668166357
0.9964738211
1.002232539
0.9930760278
0.9956032626
1.003177145
0.6637143137
0.6636652993
0.6635958738
0.6636265301
0.6636751862
0.6636448698
0.6634319453
0.6628855086
0.6618645918
0.6603767147
0.6584032726
0.6558489586
0.6530902685
0.6496394698
0.6459484024
0.6416309854
0.6364142365
0.6309761817
0.6241668987
0.618143016
0.6140776051
0.6147082264
0.6168396695
0.627120967
0.6651659429
0.7384045071
0.8329884487
0.9115189876
0.9522983516
0.9728012176
0.999471782
1.00787623
0.6636166309
0.6635497368
0.6635363926
0.6635929499
0.6637187708
0.6638007608
0.6637954966
0.6637057509
0.6634276146
0.6628810857
0.6619460717
0.6606421588
0.6587669313
0.6564606739
0.6537834939
0.6505000023
0.6470403371
0.6426771281
0.6376857171
0.6322844395
0.6259011077
0.6215302109
0.6193369024
0.6179416409
0.6201346453
0.6352563283
0.6863083142
0.7674573579
0.8655356639
0.9493475997
0.9880948217
1.002125524
0.6632225613
0.6633645045
0.6634985769
0.663625386
0.6637352255
0.663792395
0.6637872023
0.663757699
0.6637130706
0.6636099359
0.663379114
0.6629203374
0.6621101679
0.6608894548
0.659102553
0.6569552943
0.6542323101
0.6510589566
0.6474603149
0.6429552843
0.6377636932
0.6317727967
0.6256307217
0.6199851749
0.6202099612
0.6213155641
0.6273162278
0.6510501107
0.7104371068
0.8025943151
0.8815559015
0.9528151096
0.6625833876
0.6629271592
0.6632640476
0.6634740705
0.6635614616
0.6636246427
0.6636711809
0.6636911838
0.6636989291
0.6636961189
0.6636690523
0.6636060389
0.6634210748
0.6630295629
0.6623219131
0.6611456972
0.6594780465
0.6574220912
0.6548165502
0.651804334
0.6483260224
0.6436902534
0.6389873567
0.6326971529
0.6279815366
0.6251935721
0.6231920082
0.6240551675
0.632827906
0.6681090414
0.733894675
0.8680129952
0.6619110164
0.6621560316
0.662490818
0.662848753
0.6630982175
0.6632633079
0.6634145188
0.6635901866
0.6637096255
0.6637067362
0.6636654366
0.663597824
0.6636162182
0.6636036868
0.66350988
0.6631665292
0.6624588245
0.6613107637
0.6597240216
0.6577605531
0.6551972028
0.6523103789
0.6485620064
0.6438051171
0.6385552337
0.63220599
0.6272358297
0.624633491
0.6254233442
0.6285875155
0.6416158208
0.7253819898
0.6618287488
0.6618696166
0.6620135753
0.6622388349
0.6625431589
0.6628211154
0.6630175783
0.6632350923
0.6635322358
0.6636453781
0.6636199674
0.66357397
0.663590183
0.6636607788
0.6637361677
0.6637011608
0.6635506552
0.6631761106
0.6625248921
0.6614747921
0.6600838376
0.6582264796
0.6557841508
0.6530381368
0.6490460532
0.6446145526
0.6394597078
0.6340410455
0.6306166726
0.6290557504
0.6288057517
0.6481199147
0.6623241887
0.6621083547
0.6619778713
0.6619248311
0.661981715
0.6621682174
0.6623882673
0.6626313492
0.6629384926
0.6633304674
0.6635624072
0.6635896805
0.6636022729
0.6636630665
0.6636899255
0.6637071792
0.6637093792
0.6636644714
0.663526672
0.6632294114
0.6626736654
0.6617271767
0.6604322786
0.6585455501
0.6561959153
0.6531926538
0.6490602776
0.6446314014
0.6387925213
0.6332300088
0.6296912766
0.6318532091
0.6630249099
0.6624674933
0.6620311768
0.661894256
0.66196947
0.6620389959
0.66205872
0.662119836
0.6622629351
0.6625660715
0.6630071867
0.6633392782
0.6634068729
0.663461634
0.6634990044
0.6635417103
0.6636230574
0.6637309049
0.6637536245
0.6637225948
0.6635992605
0.6633218207
0.6627891675
0.6619268108
0.6606844123
0.6588652774
0.6566368205
0.6536149099
0.6496167708
0.6450852508
0.6399540049
0.6358174451
0.6634380379
0.6630178838
0.6622175179
0.661967626
0.6620419822
0.6622056948
0.6621736253
0.6620159347
0.6618756615
0.6619451999
0.6622282199
0.6626366616
0.662921683
0.6630665031
0.663267682
0.6634258474
0.6635720199
0.6637204694
0.6637522601
0.6637514291
0.6637419124
0.6636920748
0.663580102
0.6633450465
0.6628463094
0.6620365005
0.6608078009
0.6591186284
0.6568495836
0.6537349388
0.6497953146
0.6424919211
0.6655431347
0.6654323578
0.6642718482
0.6626877588
0.6623700571
0.662376156
0.6622276361
0.6619545568
0.6618060485
0.6617931887
0.6618911714
0.6621422653
0.6624166164
0.6626087633
0.6628603323
0.6631633889
0.6633838373
0.6635910983
0.6636588038
0.6636859479
0.663698585
0.6637102967
0.663707994
0.6636656977
0.6635300657
0.6632575317
0.6628081808
0.6621090995
0.6610344256
0.6594324947
0.6573974946
0.6520892695
0.6673425434
0.6670364074
0.6662061229
0.6642504099
0.6628744247
0.6625449164
0.6625636972
0.6624218531
0.6620811432
0.6619447688
0.6620382591
0.6622563967
0.6622853683
0.6622610396
0.6623187833
0.6624932403
0.6627525136
0.66303375
0.6633100658
0.6635656442
0.6636714178
0.6636832933
0.6636783391
0.6636476114
0.6635659346
0.663492689
0.6634207204
0.6632674676
0.6629315242
0.662282042
0.6613883625
0.6583807566
0.6716931097
0.669144833
0.6689945323
0.6680856398
0.6654127613
0.6638349991
0.663955893
0.6639365876
0.6633512887
0.6625530445
0.6623452785
0.6623313591
0.6622435152
0.6621840527
0.6621421535
0.662165568
0.6622916949
0.6625370049
0.6628836426
0.6632250718
0.6635199642
0.6635820815
0.6635823655
0.6635616938
0.6634994993
0.6634590203
0.6634625261
0.6634566062
0.6634187313
0.6632902053
0.6630411413
0.6618448421
0.6808803274
0.6747191528
0.6727756504
0.6721226111
0.669835645
0.6663871064
0.6650167361
0.6648935563
0.6643353238
0.6629788859
0.6622559334
0.6622795712
0.6623422467
0.6622724099
0.662200631
0.6622370273
0.6622822941
0.6623168546
0.6624477987
0.6626744711
0.6629290458
0.663135126
0.6632967795
0.6634275321
0.6634813722
0.663504491
0.66351069
0.6635090083
0.6635017085
0.6634877212
0.6634580432
0.6631450738
0.6898259331
0.6846398446
0.6777311203
0.6757185665
0.674698739
0.671847378
0.6675465889
0.66621939
0.666109029
0.6652871643
0.6634822291
0.6630690201
0.66333836
0.6632505357
0.662872633
0.6625684777
0.6624824938
0.6624479086
0.662429222
0.6624393549
0.6625046022
0.6626256181
0.6627740936
0.6629809462
0.6632019987
0.6633348368
0.6634456766
0.6634799335
0.6634630227
0.6634709783
0.6634827414
0.6634528143
0.6990726336
0.6954255221
0.6888014686
0.6819601713
0.6801649317
0.6788846277
0.6749755396
0.6706392587
0.6700543652
0.6694679723
0.6671781735
0.6648917347
0.6645291907
0.6642876985
0.6636195147
0.6628046894
0.6624656756
0.6624860519
0.6625447095
0.6625139379
0.6623713233
0.6623057874
0.6623393027
0.6624731834
0.6626769565
0.6628550815
0.6630189938
0.6631666129
0.663245268
0.6633274033
0.6633956348
0.6634347237
0.7074327518
0.7031895257
0.6993913163
0.69289189
0.6859148852
0.6843063475
0.6820790011
0.6768755898
0.6726629104
0.6717917362
0.6703421891
0.6669715675
0.6649377653
0.6647835255
0.6645680479
0.6636396404
0.662692898
0.6626505507
0.6626936592
0.6625372046
0.6622713376
0.6621393511
0.6621506975
0.6622218886
0.6623469844
0.6624761557
0.6626239846
0.6627914049
0.6629778273
0.6630930468
0.6632074536
0.6633903736
0.7212364995
0.714548528
0.709890027
0.7052191725
0.6978233143
0.6914186322
0.6888591863
0.6857124402
0.6794070285
0.6756938319
0.6752409121
0.6733698003
0.6691267976
0.6674029653
0.6674958645
0.6668635866
0.6651642496
0.6639932015
0.6635111074
0.6629277541
0.6623465867
0.6621366596
0.6621648593
0.6622434763
0.6623481855
0.6623766186
0.6623802857
0.6624160971
0.6625232001
0.6626876673
0.6628990835
0.6632380577
0.7325827784
0.7256812256
0.7197239923
0.7144660372
0.7091973049
0.7019059812
0.6968039828
0.6947744307
0.6906708929
0.6836832971
0.6806041889
0.6790982045
0.6753988832
0.6708462122
0.6694340271
0.6691396197
0.6679161309
0.665826165
0.6647621251
0.6643619624
0.6637824797
0.6629429772
0.6626475592
0.6627187633
0.6628019734
0.6627374117
0.6625990081
0.6624678057
0.6624067244
0.6624233785
0.6625056491
0.6628314737
0.7463152788
0.7384609852
0.7323146324
0.7268224696
0.7212604461
0.7148377592
0.7073432903
0.7023698341
0.6988180706
0.6929454178
0.685723246
0.6833427285
0.6816045052
0.6772311018
0.671938751
0.671005256
0.6704085268
0.6681838747
0.6656770911
0.6652830147
0.6651147327
0.6642581879
0.6634188824
0.6633927437
0.6634169051
0.6632170813
0.6628045627
0.6623838387
0.6622969666
0.662290666
0.662306023
0.6624705102
0.7586077496
0.7512856171
0.7425869555
0.7368660591
0.7319828849
0.7260855347
0.7190736853
0.7122001077
0.7081334922
0.7045911991
0.6980466999
0.6914009828
0.6894211954
0.6869911389
0.6813640492
0.6763828176
0.6754682105
0.6741715335
0.6706624755
0.6673732621
0.6669063672
0.6662360355
0.6645544393
0.6636288342
0.663725312
0.663544266
0.6628539873
0.662287829
0.662235236
0.6622466132
0.6622613139
0.6623631118
0.7686798916
0.7644893619
0.7567390208
0.7480842883
0.743240828
0.7387371054
0.7322415027
0.7244021838
0.7182330524
0.7142925764
0.7093739508
0.7015527169
0.6952989913
0.6929742483
0.6895911756
0.6829540584
0.6788258665
0.6780366565
0.6760323793
0.6719824811
0.6697696092
0.6694239213
0.6685317059
0.6663118397
0.6649867587
0.6646729744
0.6637656762
0.6627037719
0.6626279649
0.6627771794
0.6626763513
0.662616175
0.7789922504
0.7746519272
0.7700653371
0.7613050966
0.7527252482
0.7483134972
0.7437048649
0.7365497942
0.7285176168
0.7233071997
0.7195302153
0.7141890477
0.7063237365
0.7010499914
0.6986021041
0.69446492
0.6869032696
0.6827362408
0.6817192067
0.6790096149
0.6737841709
0.6725269006
0.6724164192
0.6707755456
0.6676916924
0.6666000097
0.666018739
0.6649599153
0.6640655851
0.6639572725
0.6637976408
0.6632701761
0.7934305306
0.7839345168
0.7802344333
0.775415577
0.7661401397
0.7582052833
0.7545440296
0.7499286507
0.7421289676
0.734184129
0.7297093197
0.7258227574
0.7194261979
0.711244797
0.7069354926
0.7042115093
0.6986698335
0.6908649049
0.6880153816
0.6863753357
0.6819587035
0.676630311
0.6751501119
0.67395426
0.6704282278
0.6672018224
0.6671091011
0.6667284278
0.6650563244
0.6643663276
0.6643141819
0.663593221
0.8083071644
0.7976221769
0.7892603
0.785925192
0.780381275
0.7703614131
0.7632362081
0.759717023
0.7544732038
0.7460414824
0.7388076926
0.7348407766
0.7303272433
0.7230231177
0.7152199125
0.7115747166
0.7084397272
0.7022515856
0.6948075028
0.6925574498
0.6905108555
0.6851895651
0.6797318206
0.67846415
0.6765849791
0.6722486267
0.6698191478
0.6696193738
0.6682707256
0.6659750121
0.6650567968
0.6640951196
0.8188311876
0.8126886573
0.8018264954
0.7945136012
0.7911956399
0.7851446161
0.7749749985
0.7688447502
0.7655297089
0.7598164995
0.7510010855
0.74454954
0.7409956234
0.7363257079
0.7284724846
0.721451881
0.7182721975
0.7143760751
0.7067333832
0.7001126381
0.6979054104
0.6945764425
0.6876172983
0.6836265274
0.6826501914
0.6801235213
0.6755934923
0.6741499995
0.673363326
0.6709261169
0.6686182786
0.6666267582
0.8286531543
0.8244647714
0.8173086031
0.8061270517
0.7999962324
0.7965206066
0.7894198995
0.7792188039
0.7740859501
0.7705862507
0.7639885083
0.7549545123
0.7495075726
0.7458960477
0.740138552
0.7317293091
0.7258246891
0.7228071612
0.7182856499
0.7102650068
0.7046961622
0.7025016409
0.6981403225
0.6904607403
0.6872882868
0.6859038896
0.6819010341
0.6770211091
0.6760647136
0.6745460935
0.6718922355
0.6688256136
0.8405924464
0.8338278785
0.8292908907
0.8212977712
0.8105323156
0.8052751182
0.8014172532
0.7936365421
0.7837803753
0.7795184022
0.7758605118
0.7686657124
0.759898553
0.7551983069
0.7514980287
0.745206861
0.7367542933
0.7320268503
0.7290097468
0.7233164824
0.7148244641
0.7105524385
0.7079636592
0.7023855214
0.6953996514
0.6931075757
0.6910000492
0.6859142217
0.681074094
0.6790644726
0.6764955866
0.671924406
0.8563610446
0.845270692
0.8394456363
0.8345601727
0.8254939627
0.8152378799
0.810750827
0.80638988
0.7975380144
0.7883857401
0.7846618305
0.7805222966
0.7723888035
0.764232246
0.7605035612
0.7564341654
0.7489403033
0.7408088841
0.736817469
0.7332930946
0.7266770226
0.7186135395
0.7152883355
0.7123683254
0.7060233453
0.6999729078
0.6979913448
0.6948925918
0.689373823
0.6853697882
0.6832458962
0.6788062846
0.8700263933
0.8601223124
0.8497100054
0.8444500874
0.8389575352
0.8292743948
0.8199021784
0.8157426575
0.8107632929
0.8014313949
0.793270611
0.7899005108
0.7852522255
0.7764966977
0.7689484411
0.7655901338
0.7612324676
0.7531999638
0.7459864061
0.7429346576
0.7390051669
0.7313426888
0.7244748706
0.7213990586
0.7172715134
0.7099700741
0.7042359105
0.7012964725
0.6972923729
0.6918887851
0.6886617399
0.6841454868
0.881261751
0.8747832494
0.8642291374
0.8546326061
0.8497958271
0.8437099747
0.8333033706
0.8250155891
0.821068655
0.8152633073
0.8052086682
0.7981433525
0.7949579213
0.7895845052
0.7801771991
0.7738094542
0.7708036333
0.7656291811
0.7568289094
0.7506197081
0.7475696313
0.7426489252
0.7345448616
0.7291356494
0.7263109342
0.721674106
0.7147586714
0.7102212843
0.7068031934
0.7022083014
0.6975631919
0.6911060088
0.89226276
0.8860720073
0.8789633931
0.8680359691
0.85936235
0.854513431
0.8476038328
0.8370039138
0.8298108153
0.8258071417
0.8192686085
0.8091456374
0.8030342847
0.799695629
0.7936340803
0.7841150089
0.778657283
0.7756464141
0.7699332684
0.7609423825
0.756091148
0.7532690026
0.7474734492
0.7393498898
0.734842536
0.7312282972
0.7253528452
0.7187919604
0.7145181028
0.7103213285
0.7061449907
0.6994750998
0.8969239398
0.8909030883
0.8832494744
0.8721264209
0.8643974765
0.8595706166
0.8518744638
0.8411663612
0.83499959
0.830854355
0.8233376317
0.8132002311
0.8080998522
0.8045693653
0.7975257912
0.7880475856
0.7836767154
0.7804737253
0.7736509454
0.7647846771
0.7608828528
0.7575827131
0.7508051868
0.7435009317
0.7399396414
0.735916682
0.7296550211
0.7239489935
0.719504615
0.715342611
0.7079088697
0.9106065092
0.9015513695
0.8954552925
0.8871199243
0.8760974425
0.8691546419
0.8639929324
0.8554910142
0.8451432352
0.8397393694
0.8351925287
0.826952168
0.8172765731
0.8128697337
0.8089522581
0.8012536342
0.7922343821
0.7884996168
0.7849470286
0.7774184294
0.7691473298
0.7661084161
0.7624310325
0.7548699009
0.7485473779
0.7452479977
0.7404810829
0.7339461683
0.7286987699
0.7246477695
0.7170279619
0.9254009114
0.9146068158
0.9061669398
0.8999678018
0.8910543463
0.8803067203
0.8740763916
0.8686770994
0.8594110562
0.8495670764
0.8448347672
0.8399237271
0.8307894227
0.8217792446
0.8179034253
0.8134915415
0.8047952027
0.7965917558
0.7934262917
0.7892852429
0.7807505601
0.7736266817
0.7708523182
0.7663349593
0.7583176605
0.7529563478
0.7495731851
0.7443513261
0.7378499386
0.7335357438
0.7264438696
0.9377607007
0.9291981351
0.9185745986
0.9106874595
0.9042374941
0.8947597508
0.8844805286
0.8786981224
0.8727900846
0.8629454553
0.8538166489
0.8493609542
0.8438605261
0.8342831354
0.8261578587
0.8224922255
0.8174682008
0.8082970731
0.8010115835
0.7980335638
0.7932937707
0.7843034022
0.7783462317
0.7757131415
0.7705589228
0.7626481586
0.7581449504
0.7545632294
0.748780354
0.7432271939
0.7354015433
0.9490393423
0.9416836229
0.9329025139
0.9225567697
0.9151137911
0.9084295019
0.8985192547
0.888798913
0.8833799486
0.8770683027
0.8667465495
0.8584449492
0.8542378287
0.8481603159
0.8380382449
0.8309158937
0.8274029344
0.8216294296
0.8118719532
0.8057476893
0.8028191503
0.7971215584
0.7878879788
0.7830602234
0.7800099543
0.7738653531
0.7663417325
0.7622276172
0.7581061173
0.7530233029
0.7446455621
0.9610698756
0.952745876
0.9454414092
0.9365105407
0.9264930331
0.9193985187
0.9124040367
0.9021878995
0.8930836501
0.8877704599
0.8808608527
0.8703509303
0.8628643451
0.8585549013
0.8517651046
0.8415809306
0.8353568429
0.8316982043
0.8252197789
0.8155066418
0.8103002901
0.8071131232
0.8006843382
0.7918028253
0.7878090576
0.7844574238
0.7778726474
0.7710960777
0.7669126839
0.7629524376
0.7545624897
0.9722900207
0.9642383609
0.9563022257
0.9490509896
0.940042922
0.9304036623
0.9235363155
0.9162659211
0.905887923
0.8974147602
0.8921580694
0.8847335742
0.8741520023
0.867489426
0.8631410557
0.8556520621
0.8454776944
0.8401305483
0.8363406567
0.8289789273
0.8194382836
0.815116618
0.8115690178
0.8040988504
0.795895105
0.7923428462
0.7882874939
0.7813867987
0.7750688018
0.7711454669
0.7635394429
0.9812917492
0.9749748999
0.9672848183
0.9597127572
0.9525044444
0.9435136241
0.9342579082
0.9275299875
0.9199352317
0.9095517383
0.901663452
0.896283716
0.8882628203
0.8778642287
0.8718489522
0.8671829365
0.8590277318
0.8492665215
0.8444922529
0.8402723853
0.8322818824
0.8233767822
0.8195441467
0.8154885979
0.8075697737
0.8001908462
0.7967110712
0.7922208943
0.7853966012
0.7802292374
0.7726607143
0.9885315699
0.9835134343
0.9775178337
0.9702079403
0.9629763788
0.9558238593
0.9469100984
0.9380716696
0.9313944436
0.9235149502
0.9132354901
0.9058763285
0.9003563789
0.8918409924
0.8817342904
0.8762889741
0.8713936016
0.8626138588
0.8533921904
0.8491297736
0.8445206528
0.835779348
0.8276691514
0.8241483952
0.8194741818
0.8111536347
0.8045665273
0.8008209525
0.7956300532
0.7897501363
0.7812105041
0.993884287
0.9901619094
0.9855637172
0.9799030168
0.9730025721
0.9660986828
0.9590114016
0.9502491345
0.9418059632
0.9351475116
0.926976135
0.9169256263
0.9099858061
0.9042085589
0.8952422438
0.8856091644
0.8804639272
0.8751006013
0.8658720522
0.8573817077
0.8533084483
0.8481098211
0.8390716247
0.8318183413
0.8282281421
0.8229634635
0.8149098281
0.8089523122
0.8046173296
0.7997984107
0.7908494116
0.9971887926
0.9949264359
0.99163128
0.9874314602
0.9821426479
0.9756511071
0.9690748485
0.9620852809
0.9535065039
0.9454631643
0.9387863436
0.9304064881
0.920634073
0.9140263286
0.9079884056
0.8987012423
0.8895943937
0.8846830884
0.878928213
0.8693441314
0.861585783
0.8576708942
0.8519594713
0.8426831856
0.8362162396
0.8324664001
0.8266391151
0.8188817303
0.8130592835
0.8088442901
0.8002649259
0.9989195387
0.9977646667
0.9958336136
0.9929336036
0.9891381346
0.9842173219
0.9781567825
0.9718952285
0.9650394273
0.9567068215
0.9489953201
0.9423102805
0.9337678429
0.924364338
0.9179639512
0.9115958455
0.9020876656
0.8935617713
0.8886773813
0.8823967905
0.8727156768
0.8656223447
0.8615221498
0.8552632577
0.8462351955
0.8402902932
0.8361193923
0.8300476154
0.8226900596
0.8175838484
0.8093566079
0.9996695346
0.9991824782
0.9982427735
0.9966098686
0.9940880018
0.9906707472
0.986147931
0.9804976474
0.9745621634
0.967877268
0.9598176953
0.9524258052
0.9456977587
0.9371046841
0.9280632505
0.9218166039
0.9151401819
0.9055506443
0.8975503159
0.8926491355
0.8859545816
0.8763144586
0.8697688383
0.8655200771
0.8588572583
0.8501364384
0.8444610678
0.8399496984
0.8335422736
0.8273440916
0.8183853689
0.9999217624
0.9997639111
0.9993895905
0.9986335742
0.9972713026
0.9950927706
0.9920530679
0.9879120432
0.9826942792
0.9770610362
0.9705908063
0.9628528641
0.9557192285
0.9489756648
0.9403719941
0.9317328354
0.9255415753
0.91856537
0.9090017408
0.9014847011
0.8964089458
0.8892916931
0.8799182271
0.8737078847
0.8690527246
0.8621212789
0.8539400885
0.8483060697
0.8431465438
0.8374823343
0.8278345783
0.999986137
0.9999476479
0.999833836
0.9995500927
0.9989506002
0.9978250156
0.9959680699
0.993275073
0.9895352073
0.9847214659
0.9794137449
0.973178641
0.9657758838
0.9589004096
0.952128169
0.9436229193
0.9353181308
0.9291556806
0.9219374114
0.9125193441
0.9053558934
0.9001056819
0.8927148388
0.8836886884
0.877679009
0.8727011216
0.8656577258
0.8579885605
0.8520996366
0.847235562
0.8377696803
0.9999982369
0.9999913834
0.9999655477
0.9998847922
0.9996730379
0.9992035095
0.9982868675
0.9967152047
0.9943632298
0.9909933306
0.9866093492
0.9816002814
0.975646772
0.9686001862
0.9619353469
0.9551978838
0.9468050881
0.9388426849
0.9326306483
0.9252382846
0.9160419772
0.9091299826
0.9036136695
0.8960358957
0.887420837
0.8814347656
0.8760306588
0.8690325656
0.8616303394
0.8562597236
0.8471143458
0.9999998437
0.9999989894
0.9999947426
0.9999777101
0.9999213822
0.9997656867
0.9994034878
0.9986649937
0.997353768
0.9953096979
0.9923192017
0.988322523
0.983656524
0.9779830576
0.9713021819
0.9648518479
0.9581502437
0.9499855849
0.9422512456
0.9359984748
0.9284956075
0.9195926735
0.9128120853
0.907050111
0.8994365615
0.8912196901
0.8851501293
0.8795011514
0.8724434492
0.8661573866
0.8565760746
0.9999999906
0.999999918
0.9999994324
0.9999968524
0.9999858345
0.9999471994
0.9998346307
0.9995588874
0.9989730323
0.9978877105
0.9961391787
0.9934916349
0.9899005854
0.9855457099
0.9802068411
0.9738858263
0.9676285225
0.9610284829
0.9530801626
0.9455992003
0.9392383403
0.931721919
0.9231119268
0.9163828022
0.9103594976
0.9027927026
0.8949208787
0.8887278922
0.8825908983
0.8764491052
0.8662171034
0.9999999996
0.9999999955
0.9999999579
0.9999996878
0.999998152
0.9999911595
0.9999651346
0.9998850082
0.9996785355
0.9992188481
0.9983349305
0.9968459227
0.994544229
0.9913086852
0.9873119911
0.9822875002
0.9763398648
0.9702939195
0.9637901863
0.9561539439
0.9488229156
0.9423976356
0.9349069012
0.926624755
0.9198498751
0.9136187796
0.9061816115
0.8986614487
0.8921158251
0.8864917983
0.8763003804
1
0.9999999998
0.9999999979
0.9999999789
0.9999998319
0.9999989364
0.9999945846
0.999977368
0.9999213019
0.9997689318
0.9994139728
0.9987002678
0.9974544627
0.9954547833
0.9925958871
0.9889065717
0.9842602673
0.9786556477
0.9728240474
0.9664912557
0.9591031677
0.9519906406
0.9454517649
0.9380706916
0.9300750999
0.9232387864
0.916783769
0.9095578541
0.9020942121
0.8961536517
0.886056607
1
1
0.9999999999
0.9999999991
0.9999999896
0.9999999114
0.9999994003
0.999996744
0.9999855697
0.9999469724
0.9998364438
0.9995656767
0.9989988067
0.9979624956
0.9962581981
0.9937221661
0.9903908707
0.9860686928
0.9808500447
0.975236347
0.9690700322
0.9620220828
0.9550105665
0.9484610591
0.9411716892
0.9334817086
0.9265560826
0.9199764931
0.9127080998
0.9062736528
0.8958576052
1
1
1
1
0.9999999996
0.999999995
0.9999999543
0.9999996687
0.9999980798
0.9999909595
0.999964873
0.9998858469
0.9996829358
0.9992364691
0.9983910178
0.9969387128
0.9947386809
0.9917071476
0.9877731614
0.982885096
0.9775236733
0.971580889
0.9647880101
0.957991089
0.9513603733
0.9442510895
0.9367702201
0.9298671883
0.9229509042
0.9166049338
0.9058467218
1
1
1
1
1
0.9999999998
0.9999999977
0.999999977
0.9999998208
0.9999988897
0.9999944393
0.9999771143
0.999921603
0.999771469
0.9994261989
0.9987396933
0.9975299181
0.9956082444
0.9929254267
0.9893028478
0.984808441
0.9796835341
0.9739569221
0.9675113748
0.9608093736
0.9542495538
0.9472216878
0.9400396851
0.93290996
0.9267222116
0.9159455333
1
1
1
1
1
1
0.9999999999
0.9999999989
0.9999999886
0.9999999051
0.999999371
0.9999966423
0.999985355
0.9999469684
0.9998378755
0.9995734634
0.9990273303
0.998018818
0.9963853429
0.9939796072
0.9907419939
0.9865577405
0.9817314678
0.9762547678
0.9700516175
0.9636114452
0.957002709
0.9502198741
0.9429787723
0.9367029611
0.9259193574
1
1
1
1
1
1
1
1
0.9999999995
0.9999999945
0.9999999508
0.999999651
0.9999980124
0.9999907901
0.9999647555
0.9998865048
0.999688054
0.9992555643
0.9984357337
0.9970350718
0.9949505124
0.991998536
0.9882156461
0.9836397384
0.9784166638
0.9725525253
0.9662099052
0.9598221181
0.9528893687
0.9466622286
0.935812398
1
1
1
1
1
1
1
1
1
0.9999999998
0.9999999974
0.9999999751
0.9999998105
0.9999988468
0.999994318
0.9999769549
0.9999219129
0.9997744393
0.9994398475
0.9987713296
0.9976094023
0.9957686909
0.9931824299
0.9896824671
0.9854548085
0.9804929505
0.9748468698
0.9688587658
0.9622755275
0.9563282472
0.9455386545
1
1
1
1
1
1
1
1
1
1
0.9999999999
0.9999999988
0.9999999877
0.9999998994
0.9999993449
0.9999965593
0.9999852148
0.999947034
0.9998397868
0.9995821099
0.9990524646
0.9980757717
0.9965204516
0.9941835317
0.9910831928
0.9871081637
0.9824327206
0.977141464
0.9710633547
0.9654585979
0.9548230474
1
1
1
1
1
1
1
1
1
1
1
1
0.9999999995
0.9999999941
0.9999999477
0.9999996355
0.9999979586
0.9999906744
0.9999647477
0.9998875053
0.999694216
0.9992723939
0.9984831263
0.9971323514
0.9951336905
0.9922735158
0.9886730559
0.9842613424
0.9789601059
0.973793289
0.9633485889
1
1
1
1
1
1
1
1
1
1
1
1
1
0.9999999998
0.9999999972
0.9999999735
0.9999998016
0.9999988126
0.9999942372
0.9999768986
0.9999226226
0.9997782699
0.9994540311
0.9988038005
0.9976927616
0.9958924621
0.9933841128
0.9899377649
0.9855394903
0.9808498471
0.9705402798
1
1
1
1
1
1
1
1
1
1
1
1
1
1
0.9999999999
0.9999999987
0.9999999868
0.9999998935
0.9999993164
0.9999964509
0.9999848896
0.9999461357
0.9998378952
0.9995757149
0.9990367046
0.9980197961
0.9963829299
0.9938210779
0.9902417022
0.9859869601
0.9758917626
1
1
1
1
1
1
1
1
1
1
1
1
1
1
1
1
0.9999999994
0.9999999938
0.999999946
0.9999996232
0.9999978768
0.9999901559
0.9999621058
0.9998756109
0.999652115
0.9991372626
0.9981387136
0.9963101602
0.9934306145
0.9895671903
0.9796530288
)
;

boundaryField
{
    inlet
    {
        type            fixedValue;
        value           nonuniform 0();
    }
    outlet
    {
        type            zeroGradient;
    }
    bottom
    {
        type            slip;
    }
    top
    {
        type            slip;
    }
    obstacle
    {
        type            zeroGradient;
    }
    defaultFaces
    {
        type            empty;
    }
    procBoundary35to29
    {
        type            processor;
        value           nonuniform List<scalar> 
33
(
1.006027041
1.001161343
1.000295234
1.001870037
1.003788149
1.004901931
1.004735822
1.004702386
1.004677348
1.004746871
1.004498185
1.003953131
1.003773764
1.003939898
1.004231231
1.004786151
0.6151615631
0.6090170496
0.6027510418
0.5958786142
0.5911517591
0.5886131081
0.5873130778
0.5902990954
0.6084713759
0.6719039779
0.7654440695
0.86893379
0.9461312997
0.9921394242
1.002057724
0.997467106
0.997467106
)
;
    }
    procBoundary35to34
    {
        type            processor;
        value           nonuniform List<scalar> 
71
(
0.6329003133
0.6436833952
0.6527455831
0.6588959126
0.6623112482
0.6635296715
0.6636882676
0.6637282005
0.6637340528
0.6636045121
0.6629878926
0.6622105985
0.6617475919
0.6618043656
0.6625278798
0.6632765361
0.6634158607
0.6656252411
0.6695598762
0.6776012394
0.6860243593
0.6925672396
0.7027344597
0.7142353176
0.7287144677
0.7404499347
0.7525914463
0.7629469207
0.7739874664
0.7891217885
0.8030784674
0.8136795144
0.8229973754
0.8364657204
0.8519568593
0.8654753457
0.8761334095
0.8877102119
0.9026168682
0.9066385667
0.9066385667
0.9214624625
0.9336915851
0.9452030264
0.9577837613
0.9694491177
0.9788826895
0.9867218687
0.9926923218
0.9965000198
0.9985894382
0.9995439196
0.9998849278
0.9999780924
0.9999969841
0.9999997084
0.9999999808