/*--------------------------------*- C++ -*----------------------------------*\
  =========                 |
  \\      /  F ield         | OpenFOAM: The Open Source CFD Toolbox
   \\    /   O peration     | Website:  https://openfoam.org
    \\  /    A nd           | Version:  7
     \\/     M anipulation  |
\*---------------------------------------------------------------------------*/
FoamFile
{
    version     2.0;
    format      ascii;
    class       volVectorField;
    location    "2.5";
    object      U;
}
// * * * * * * * * * * * * * * * * * * * * * * * * * * * * * * * * * * * * * //

dimensions      [0 1 -1 0 0 0 0];

internalField   nonuniform List<vector> 
2222
(
(3 -1.72359512e-17 0)
(3 -7.140161e-16 0)
(3 -1.724320217e-15 0)
(3 -1.878564074e-15 0)
(3 -1.20635193e-15 0)
(3 -1.233129367e-15 0)
(3 -1.120602685e-15 0)
(3 -1.047851989e-15 0)
(3 -1.800447596e-15 0)
(3 -3.046403563e-15 0)
(3 -3.94825176e-15 0)
(3 -4.8042708e-15 0)
(3 -7.00752271e-15 0)
(3 -6.4958162e-15 0)
(3 -5.753888599e-15 0)
(3 -3.680207072e-15 0)
(3 -1.72886825e-15 0)
(3 1.33901896e-15 0)
(3 3.63574187e-15 0)
(3 4.984160698e-15 0)
(3 3.867908617e-15 0)
(3 4.860855858e-15 0)
(3 5.66113118e-15 0)
(3 5.744879006e-15 0)
(3 6.495482581e-15 0)
(3 6.895194587e-15 0)
(3 5.671147671e-15 0)
(3 1.423810586e-15 0)
(3 -2.20176667e-16 0)
(3 -1.884173235e-15 0)
(3 -7.459370418e-16 0)
(3 -1.583119602e-15 0)
(3 6.462236919e-16 0)
(3 2.106290876e-15 0)
(3 3.322964859e-15 0)
(3 2.996374785e-15 0)
(3 4.003043108e-15 0)
(3 3.583676418e-15 0)
(3 3.194226642e-15 0)
(3 1.461461608e-15 0)
(3 -1.808777672e-15 0)
(3 -5.852414968e-15 0)
(3 -6.273924261e-15 0)
(3 -5.594555975e-15 0)
(3 -3.800954825e-15 0)
(3 5.091331138e-16 0)
(3 2.951599718e-15 0)
(3 4.653906075e-15 0)
(3 6.207266582e-15 0)
(3 5.508826281e-15 0)
(3 4.539090249e-15 0)
(3 3.067123026e-15 0)
(3 1.871952102e-15 0)
(3 1.339741072e-15 0)
(3 -5.74882293e-17 0)
(3 -2.037520635e-16 0)
(3 -7.588374453e-17 0)
(3 3.408117748e-15 0)
(3 5.43222095e-15 0)
(3 5.00636659e-15 0)
(3 9.191917891e-15 0)
(3 1.273192539e-14 0)
(3 9.47378485e-15 0)
(3 7.131405777e-15 0)
(3 5.001209291e-15 0)
(3 4.127603681e-15 0)
(3 2.153196862e-16 0)
(3 1.623834163e-16 0)
(3 -1.002646186e-15 0)
(3 -3.042728648e-15 0)
(3 -3.129109028e-15 0)
(3 -1.159234482e-15 0)
(3 -6.71608963e-16 0)
(3 -1.798857481e-15 0)
(3 -4.59094818e-15 0)
(3 -6.963709366e-15 0)
(3 -7.426926918e-15 0)
(3 -7.389659865e-15 0)
(3 -7.920454828e-15 0)
(3 -4.997817289e-15 0)
(3 -3.18987851e-15 0)
(3 -1.672536269e-15 0)
(3 4.087935809e-16 0)
(3 3.244648183e-15 0)
(3 5.8744061e-15 0)
(3 6.270251164e-15 0)
(3 5.519963919e-15 0)
(3 4.883651079e-15 0)
(3 5.038881142e-15 0)
(3 7.093784196e-15 0)
(3 6.440701728e-15 0)
(3 4.581054481e-15 0)
(3 3.585096727e-15 0)
(3 1.37408638e-15 0)
(3 -1.232282508e-15 0)
(3 -2.426070963e-15 0)
(3 -1.900679471e-15 0)
(3 -1.953386654e-15 0)
(3 2.071246691e-16 0)
(3 2.326557175e-15 0)
(3 2.594216797e-15 0)
(3 2.454663245e-15 0)
(3 1.860260062e-15 0)
(3 1.367984035e-15 0)
(3 2.812777526e-16 0)
(3 -2.863931399e-15 0)
(3 -8.0251048e-15 0)
(3 -9.808820323e-15 0)
(3 -9.519311444e-15 0)
(3 -6.964191751e-15 0)
(3 -2.172737411e-15 0)
(3 6.179722568e-15 0)
(3 7.714178906e-15 0)
(3 8.069788024e-15 0)
(3 8.392921942e-15 0)
(3 5.165493875e-15 0)
(3 7.665673811e-16 0)
(3 -2.341267046e-15 0)
(3 -3.191013539e-15 0)
(3 -2.410892511e-15 0)
(3 -1.775813373e-15 0)
(3 5.401485461e-16 0)
(3 4.562629435e-15 0)
(3 8.999900352e-15 0)
(3 1.273590709e-14 0)
(3 1.432376824e-14 0)
(3 1.731261473e-14 0)
(3 2.013379812e-14 0)
(3 1.914558182e-14 0)
(3 1.283012053e-14 0)
(3 8.323193554e-15 0)
(3 7.119171706e-15 0)
(3 1.25750346e-16 0)
(3 5.891253796e-16 0)
(3 1.452360941e-16 0)
(3 -7.785277397e-17 0)
(3 -5.310212218e-16 0)
(3 -1.021955793e-15 0)
(3 -7.398160396e-16 0)
(3 -1.520457325e-15 0)
(3 -9.850448383e-16 0)
(3 9.744160669e-17 0)
(3 8.773215829e-16 0)
(3 1.875602923e-15 0)
(3 2.051622625e-15 0)
(3 1.637661891e-15 0)
(3 4.266034364e-15 0)
(3 4.584215842e-15 0)
(3 2.913954789e-15 0)
(3 6.098705346e-16 0)
(3 -8.059811329e-16 0)
(3 -3.192351001e-16 0)
(3 2.56069985e-15 0)
(3 3.319165406e-15 0)
(3 4.318940422e-15 0)
(3 3.994469765e-15 0)
(3 3.676529328e-15 0)
(3 -2.308525412e-16 0)
(3 -1.234073369e-15 0)
(3 -2.523167103e-15 0)
(3 -4.052224283e-15 0)
(3 -3.928026305e-15 0)
(3 -3.483368275e-15 0)
(3 -1.191697804e-15 0)
(3 -1.223245635e-15 0)
(3 -7.967538803e-16 0)
(3 -2.056003038e-15 0)
(3 -2.26657206e-15 0)
(3 -2.390385047e-15 0)
(3 -1.918986277e-15 0)
(3 -1.905048609e-15 0)
(3 -4.209781338e-15 0)
(3 -5.734180158e-15 0)
(3 -8.492905709e-15 0)
(3 -5.89822803e-15 0)
(3 -1.722457601e-15 0)
(3 4.362181775e-15 0)
(3 6.244401079e-15 0)
(3 7.519966896e-15 0)
(3 8.310407736e-15 0)
(3 7.501595554e-15 0)
(3 4.587758896e-15 0)
(3 1.157328995e-15 0)
(3 -1.703155336e-15 0)
(3 -1.758092917e-15 0)
(3 -5.708062595e-16 0)
(3 3.188700987e-15 0)
(3 6.936545607e-15 0)
(3 1.332949726e-14 0)
(3 1.366364967e-14 0)
(3 1.283121471e-14 0)
(3 1.366280289e-14 0)
(3 1.407463632e-14 0)
(3 1.411554784e-14 0)
(3 1.171890392e-14 0)
(3 7.099295863e-15 0)
(3 5.339344348e-15 0)
(3 2.593863622e-15 0)
(3 3.966338051e-16 0)
(3 4.038870329e-16 0)
(3 7.815907847e-16 0)
(3 2.215667946e-15 0)
(3 1.510241692e-15 0)
(3 1.497331586e-15 0)
(3 2.580146311e-15 0)
(3 3.228843567e-15 0)
(3 2.814639673e-15 0)
(3 3.215295227e-15 0)
(3 5.51509205e-15 0)
(3 6.36311993e-15 0)
(3 6.772501983e-15 0)
(3 6.531312017e-15 0)
(3 9.970622681e-15 0)
(3 1.146009909e-14 0)
(3 1.214963844e-14 0)
(3 9.221679107e-15 0)
(3 6.147237795e-15 0)
(3 5.106636858e-15 0)
(3 6.949560281e-15 0)
(3 7.438332749e-15 0)
(3 5.730595837e-15 0)
(3 3.565326847e-15 0)
(3 5.53982772e-17 0)
(3 -6.443152182e-16 0)
(3 -4.990859256e-15 0)
(3 -6.912986942e-15 0)
(3 -6.410513478e-15 0)
(3 -6.273128031e-15 0)
(3 -6.722099533e-15 0)
(3 -8.251257948e-15 0)
(3 -6.704646585e-15 0)
(3 -5.11310204e-15 0)
(3 -5.816903597e-15 0)
(3 -6.507163309e-15 0)
(3 -6.134517693e-15 0)
(3 -4.299931104e-15 0)
(3 1.403003295e-16 0)
(3 2.276310715e-15 0)
(3 2.891504791e-15 0)
(3 3.370990358e-15 0)
(3 4.367671055e-15 0)
(3 6.375428499e-15 0)
(3 7.825052142e-15 0)
(3 1.561296182e-15 0)
(3 3.216704607e-15 0)
(3 5.77335769e-15 0)
(3 6.681532022e-15 0)
(3 7.956655039e-15 0)
(3 9.090063576e-15 0)
(3 1.135137596e-14 0)
(3 1.207822024e-14 0)
(3 1.039991981e-14 0)
(3 7.20232209e-15 0)
(3 6.358368879e-15 0)
(3 6.922164134e-15 0)
(3 7.332108906e-15 0)
(3 6.980659285e-15 0)
(3 5.877601743e-15 0)
(3 3.141277626e-15 0)
(3 2.741285716e-15 0)
(3 -5.648173408e-16 0)
(3 -4.923727477e-15 0)
(3 -6.581723352e-15 0)
(3 -8.748094794e-15 0)
(3 1.4416788e-16 0)
(3 1.079801736e-15 0)
(3 1.679298803e-15 0)
(3 5.558386961e-16 0)
(3 -2.969946862e-16 0)
(3 1.015406631e-15 0)
(3 1.196629773e-15 0)
(3 9.842389672e-16 0)
(3 1.09156102e-15 0)
(3 1.265251609e-15 0)
(3 1.431655987e-15 0)
(3 3.291890595e-15 0)
(3 6.201920985e-15 0)
(3 7.549005622e-15 0)
(3 7.464422767e-15 0)
(3 9.344363447e-15 0)
(3 1.197074673e-14 0)
(3 1.413953362e-14 0)
(3 1.407232274e-14 0)
(3 1.336241166e-14 0)
(3 1.076240032e-14 0)
(3 5.518353567e-15 0)
(3 -2.974591275e-16 0)
(3 -3.689434407e-15 0)
(3 -5.189032805e-15 0)
(3 -9.638997541e-15 0)
(3 -1.144910668e-14 0)
(3 -1.347517524e-14 0)
(3 -1.417283259e-14 0)
(3 -1.6333962e-14 0)
(3 -1.721697743e-14 0)
(3 -1.676945862e-14 0)
(3 -1.648729031e-14 0)
(3 -1.402429663e-14 0)
(3 -1.069982651e-14 0)
(3 -7.681506145e-15 0)
(3 -6.21141372e-15 0)
(3 -3.15040251e-15 0)
(3 1.102427305e-15 0)
(3 9.231526973e-15 0)
(3 1.268546433e-14 0)
(3 1.490386391e-14 0)
(3 1.592425034e-14 0)
(3 1.244402352e-14 0)
(3 8.263299467e-15 0)
(3 4.39301779e-15 0)
(3 3.942867693e-15 0)
(3 4.374456309e-15 0)
(3 5.74887038e-15 0)
(3 7.082139914e-15 0)
(3 8.445681237e-15 0)
(3 1.000238845e-14 0)
(3 1.219769267e-14 0)
(3 1.032110146e-14 0)
(3 9.15976934e-15 0)
(3 3.028699205e-15 0)
(3 1.04313186e-15 0)
(3 1.39123495e-15 0)
(3 3.56425196e-15 0)
(3 4.112382372e-15 0)
(3 1.526869205e-15 0)
(3 -3.006253257e-15 0)
(3 -9.000973819e-15 0)
(3 -9.871721636e-15 0)
(3 -1.277802306e-14 0)
(3 -1.373798528e-14 0)
(3 3.106486096e-17 0)
(3 -1.534443273e-15 0)
(3 -9.601656255e-16 0)
(3 -3.052376994e-15 0)
(3 -3.328916436e-15 0)
(3 -3.930309594e-15 0)
(3 -4.352024759e-15 0)
(3 -3.080999725e-15 0)
(3 -1.690466701e-15 0)
(3 -1.550118369e-15 0)
(3 -2.055950917e-15 0)
(3 -1.936593341e-15 0)
(3 -3.325385009e-16 0)
(3 -1.382996446e-15 0)
(3 -1.586509795e-15 0)
(3 -7.074759941e-16 0)
(3 2.811563559e-15 0)
(3 8.429381014e-15 0)
(3 1.168083586e-14 0)
(3 1.333237724e-14 0)
(3 6.114748258e-15 0)
(3 1.823030741e-15 0)
(3 -1.128854199e-15 0)
(3 -2.380298023e-15 0)
(3 -4.297574488e-15 0)
(3 -4.257435327e-15 0)
(3 -7.724846707e-15 0)
(3 -9.924384133e-15 0)
(3 -1.419217507e-14 0)
(3 -1.578785558e-14 0)
(3 -1.601430261e-14 0)
(3 -1.542745423e-14 0)
(3 -1.469981083e-14 0)
(3 -1.304175233e-14 0)
(3 -1.004435947e-14 0)
(3 -6.538009599e-15 0)
(3 -2.096995545e-15 0)
(3 2.192481731e-15 0)
(3 4.516309467e-15 0)
(3 5.270873485e-15 0)
(3 8.618800251e-15 0)
(3 9.42931711e-15 0)
(3 8.03774029e-15 0)
(3 4.661490063e-15 0)
(3 2.627607153e-15 0)
(3 4.651574262e-15 0)
(3 5.813589555e-15 0)
(3 6.563503001e-15 0)
(3 6.898776221e-15 0)
(3 8.40828562e-15 0)
(3 9.075437678e-15 0)
(3 7.902629154e-15 0)
(3 5.169969012e-15 0)
(3 4.634237094e-15 0)
(3 4.841735629e-15 0)
(3 3.139485949e-15 0)
(3 6.306114981e-16 0)
(3 4.517566183e-17 0)
(3 5.395463771e-16 0)
(3 9.855937388e-16 0)
(3 9.812602585e-17 0)
(3 -3.302220366e-15 0)
(3 -7.766491932e-15 0)
(3 -7.127343695e-15 0)
(3 -7.77097294e-15 0)
(3 -9.262237724e-15 0)
(3 -6.207613735e-16 0)
(3 -1.485112239e-15 0)
(3 -1.455826538e-15 0)
(3 -1.646507919e-16 0)
(3 -1.520679257e-15 0)
(3 -5.007073921e-15 0)
(3 -5.156301174e-15 0)
(3 -3.809476833e-15 0)
(3 -1.814852916e-15 0)
(3 -1.596750606e-15 0)
(3 -2.543736278e-15 0)
(3 -5.421725089e-15 0)
(3 -5.627345783e-15 0)
(3 -5.443560883e-15 0)
(3 -3.529360738e-15 0)
(3 -3.697946042e-15 0)
(3 -1.005655387e-15 0)
(3 -1.284679569e-15 0)
(3 -1.036636568e-15 0)
(3 -3.105606642e-15 0)
(3 -1.631635758e-15 0)
(3 -1.007472047e-15 0)
(3 8.312261693e-16 0)
(3 8.394344636e-16 0)
(3 7.337788498e-16 0)
(3 4.465712613e-16 0)
(3 2.301360083e-15 0)
(3 -1.043232682e-15 0)
(3 -5.542751194e-15 0)
(3 -8.360389781e-15 0)
(3 -1.312650408e-14 0)
(3 -1.23956043e-14 0)
(3 -1.018332651e-14 0)
(3 -8.735936004e-15 0)
(3 -7.236067879e-15 0)
(3 -6.337302603e-15 0)
(3 -1.809340022e-15 0)
(3 3.390163554e-15 0)
(3 6.04965533e-15 0)
(3 3.210771454e-15 0)
(3 -4.689881783e-16 0)
(3 -5.487912816e-16 0)
(3 -2.232939341e-15 0)
(3 -4.310693717e-15 0)
(3 -6.369151041e-15 0)
(3 -7.204075113e-15 0)
(3 -7.844285509e-15 0)
(3 -5.977540347e-15 0)
(3 -2.346622979e-15 0)
(3 9.433724246e-16 0)
(3 1.203056208e-15 0)
(3 -6.842853491e-16 0)
(3 -1.918209167e-15 0)
(3 9.179147651e-16 0)
(3 1.665579179e-15 0)
(3 3.050417547e-15 0)
(3 1.075264618e-15 0)
(3 -1.672669631e-15 0)
(3 -6.049058752e-15 0)
(3 -7.467075827e-15 0)
(3 -5.612515803e-15 0)
(3 -1.497816951e-15 0)
(3 -1.770789855e-15 0)
(3 -2.361886549e-15 0)
(3 -2.505435706e-15 0)
(3 -5.732961878e-15 0)
(3 -6.920212248e-16 0)
(3 -2.588343006e-16 0)
(3 1.601032406e-15 0)
(3 3.069332072e-15 0)
(3 3.797974367e-15 0)
(3 3.663623015e-15 0)
(3 1.958515307e-15 0)
(3 1.282734955e-15 0)
(3 2.287905033e-15 0)
(3 2.242076692e-15 0)
(3 1.521641494e-15 0)
(3 1.090960149e-15 0)
(3 -2.166123488e-16 0)
(3 -1.271745915e-15 0)
(3 -2.693561357e-15 0)
(3 -3.511254524e-15 0)
(3 -8.567154885e-15 0)
(3 -1.09825064e-14 0)
(3 -9.393255193e-15 0)
(3 -8.417666909e-15 0)
(3 -4.94905776e-15 0)
(3 -1.46325144e-15 0)
(3 1.737222798e-15 0)
(3 4.221719045e-15 0)
(3 5.467327875e-15 0)
(3 5.251030707e-15 0)
(3 3.161089537e-15 0)
(3 1.324850268e-15 0)
(3 -1.997134348e-15 0)
(3 -9.689790826e-15 0)
(3 -1.025101325e-14 0)
(3 -6.577154329e-15 0)
(3 -4.857294577e-15 0)
(3 -3.16285815e-15 0)
(3 -3.237991739e-15 0)
(3 -1.82619418e-15 0)
(3 -1.516217498e-15 0)
(3 2.701427231e-15 0)
(3 2.858135317e-15 0)
(3 1.752682765e-15 0)
(3 1.21166392e-16 0)
(3 1.228160375e-17 0)
(3 -1.007284531e-15 0)
(3 -2.408396592e-15 0)
(3 -4.642410569e-15 0)
(3 -9.476057563e-15 0)
(3 -1.259569308e-14 0)
(3 -1.156511744e-14 0)
(3 -9.475464529e-15 0)
(3 -1.007189172e-14 0)
(3 -1.066601801e-14 0)
(3 -9.299622126e-15 0)
(3 -7.634085815e-15 0)
(3 -2.85650581e-15 0)
(3 1.856013321e-15 0)
(3 2.028088574e-15 0)
(3 5.560430725e-16 0)
(3 -2.942404425e-15 0)
(3 -7.354898612e-15 0)
(3 -9.829849029e-15 0)
(3 -7.262075232e-15 0)
(3 -4.314485975e-15 0)
(3 6.952163876e-16 0)
(3 1.819672553e-15 0)
(3 4.44542577e-16 0)
(3 9.737867165e-16 0)
(3 6.854260816e-16 0)
(3 9.44756922e-16 0)
(3 1.3751773e-15 0)
(3 1.824756509e-15 0)
(3 4.306461433e-15 0)
(3 1.062654113e-14 0)
(3 1.170422082e-14 0)
(3 1.127368638e-14 0)
(3 9.011943252e-15 0)
(3 6.347485196e-15 0)
(3 6.118513119e-15 0)
(3 5.741605689e-15 0)
(3 3.219138263e-15 0)
(3 1.10784694e-15 0)
(3 -3.69775825e-15 0)
(3 -6.85602103e-15 0)
(3 -1.361131549e-14 0)
(3 -1.278459933e-14 0)
(3 -9.73564103e-15 0)
(3 -8.231779231e-15 0)
(3 -4.712633929e-15 0)
(3 -1.897983104e-15 0)
(3 -2.339741447e-15 0)
(3 9.985242013e-16 0)
(3 2.934770959e-15 0)
(3 1.593058331e-15 0)
(3 1.458256743e-15 0)
(3 2.749703353e-16 0)
(3 -9.126727362e-16 0)
(3 -1.839103362e-16 0)
(3 9.772570487e-16 0)
(3 3.338500025e-15 0)
(3 3.033672469e-15 0)
(3 1.905805314e-15 0)
(3 1.867325169e-15 0)
(3 1.62513154e-15 0)
(3 -1.129615722e-16 0)
(3 -2.984524223e-17 0)
(3 1.651943638e-15 0)
(3 4.255627066e-15 0)
(3 6.617155868e-15 0)
(3 9.995866058e-15 0)
(3 8.781948836e-15 0)
(3 6.492578082e-15 0)
(3 3.048319409e-15 0)
(3 -1.640176574e-15 0)
(3 -6.289822727e-15 0)
(3 -1.035338424e-14 0)
(3 -1.137648696e-14 0)
(3 -1.171765939e-14 0)
(3 -1.048933825e-14 0)
(3 -6.588809278e-15 0)
(3 -1.625560876e-15 0)
(3 -4.580454979e-16 0)
(3 1.766436079e-16 0)
(3 4.83084655e-16 0)
(3 -1.024197432e-15 0)
(3 -4.827555051e-15 0)
(3 -6.589140523e-15 0)
(3 -9.091023084e-15 0)
(3 -8.840854511e-15 0)
(3 -7.02509918e-15 0)
(3 -3.175414036e-15 0)
(3 -1.13389941e-15 0)
(3 1.44039544e-15 0)
(3 5.770755735e-15 0)
(3 1.553365651e-16 0)
(3 2.774071664e-16 0)
(3 -9.328461094e-16 0)
(3 -1.563034262e-15 0)
(3 2.028177115e-15 0)
(3 3.723506347e-15 0)
(3 5.561575363e-15 0)
(3 8.019576946e-15 0)
(3 6.95067505e-15 0)
(3 5.717624727e-15 0)
(3 5.262070274e-15 0)
(3 3.493885154e-15 0)
(3 -5.620017684e-16 0)
(3 -2.703543645e-15 0)
(3 -3.258160203e-15 0)
(3 -3.768358338e-15 0)
(3 -3.857777803e-15 0)
(3 -1.476339652e-15 0)
(3 -1.982533902e-15 0)
(3 -3.412381044e-15 0)
(3 -4.220464044e-15 0)
(3 -6.268045068e-15 0)
(3 -1.016189178e-14 0)
(3 -1.14573456e-14 0)
(3 -1.383184204e-14 0)
(3 -1.110631095e-14 0)
(3 -3.814375604e-15 0)
(3 -1.361526864e-15 0)
(3 1.192461274e-15 0)
(3 8.236096137e-15 0)
(3 8.118121338e-15 0)
(3 5.625022523e-15 0)
(3 3.463646641e-15 0)
(3 2.064993595e-15 0)
(3 2.135716616e-15 0)
(3 2.426993583e-15 0)
(3 3.201135885e-15 0)
(3 2.047610008e-15 0)
(3 2.400714899e-15 0)
(3 6.123851176e-15 0)
(3 9.426844122e-15 0)
(3 8.485753505e-15 0)
(3 5.980014638e-15 0)
(3 3.236601816e-15 0)
(3 -2.526691146e-16 0)
(3 -3.79908942e-15 0)
(3 -5.326348986e-15 0)
(3 -7.729999651e-15 0)
(3 -9.06082177e-15 0)
(3 -6.136560478e-15 0)
(3 -4.055215703e-15 0)
(3 -1.542318531e-15 0)
(3 -2.216447201e-16 0)
(3 6.744565365e-16 0)
(3 1.02797376e-15 0)
(3 1.428134687e-16 0)
(3 2.623067017e-15 0)
(3 2.322124583e-15 0)
(3 -1.117994783e-15 0)
(3 -4.312730653e-15 0)
(3 -1.114398098e-14 0)
(3 -1.000142335e-14 0)
(3 -8.469950731e-15 0)
(3 -6.230001855e-15 0)
(3 -2.827929401e-15 0)
(3 1.354198887e-16 0)
(3 1.326739473e-16 0)
(3 3.537365501e-16 0)
(3 4.084571591e-16 0)
(3 -5.369137823e-16 0)
(3 -7.768270425e-16 0)
(3 -1.598522852e-15 0)
(3 -1.422789767e-15 0)
(3 -2.606907741e-15 0)
(3 -1.940579214e-15 0)
(3 -6.965518598e-16 0)
(3 2.405204457e-16 0)
(3 9.338664986e-16 0)
(3 3.900731118e-16 0)
(3 3.341721025e-16 0)
(3 6.068383752e-16 0)
(3 3.483153562e-15 0)
(3 8.059766206e-15 0)
(3 8.924668968e-15 0)
(3 7.316789733e-15 0)
(3 3.345828936e-15 0)
(3 -1.310234461e-15 0)
(3 -6.729588313e-15 0)
(3 -9.709226955e-15 0)
(3 -1.478999872e-14 0)
(3 -1.953840328e-14 0)
(3 -1.859824372e-14 0)
(3 -1.658653193e-14 0)
(3 -1.260845864e-14 0)
(3 -8.214825918e-15 0)
(3 -4.760719679e-15 0)
(3 4.481867506e-16 0)
(3 -7.762754645e-18 0)
(3 -6.314222738e-16 0)
(3 6.36876628e-16 0)
(3 2.082454588e-15 0)
(3 3.681120645e-15 0)
(3 5.97453563e-15 0)
(3 4.483760181e-15 0)
(3 3.926308997e-16 0)
(3 6.159924649e-16 0)
(3 2.231629505e-15 0)
(3 9.91982434e-17 0)
(3 -3.153376286e-15 0)
(3 -4.376618354e-15 0)
(3 -3.372619819e-15 0)
(3 -2.893197451e-15 0)
(3 -4.595443088e-15 0)
(3 -7.544596832e-15 0)
(3 -1.168031786e-14 0)
(3 -1.164249172e-14 0)
(3 -7.430994776e-15 0)
(3 -5.875649844e-15 0)
(3 -6.745398888e-15 0)
(3 -6.327923846e-15 0)
(3 -6.512459497e-15 0)
(3 -3.040779155e-15 0)
(3 1.374725984e-15 0)
(3 3.05305565e-15 0)
(3 1.552374335e-15 0)
(3 -2.778022083e-15 0)
(3 -9.354574077e-15 0)
(3 -1.186734133e-14 0)
(3 -1.040181062e-14 0)
(3 -8.877806922e-15 0)
(3 -6.086050663e-15 0)
(3 -1.26836641e-15 0)
(3 2.465354996e-16 0)
(3 1.638126998e-15 0)
(3 2.520586216e-15 0)
(3 3.030967675e-15 0)
(3 1.516723224e-15 0)
(3 -3.559360581e-15 0)
(3 -4.137999565e-15 0)
(3 -5.356417321e-15 0)
(3 -5.418572406e-15 0)
(3 -4.930516395e-15 0)
(3 -3.235118829e-15 0)
(3 -4.843147611e-16 0)
(3 4.180430343e-15 0)
(3 7.73598267e-15 0)
(3 1.138986734e-14 0)
(3 1.530538799e-14 0)
(3 1.547157799e-14 0)
(3 1.134256462e-14 0)
(3 8.066791266e-15 0)
(3 6.348734799e-15 0)
(3 3.458119621e-15 0)
(3 1.106241349e-15 0)
(3 -1.106652359e-15 0)
(3 -1.666988164e-15 0)
(3 -5.53322015e-15 0)
(3 -8.824584458e-15 0)
(3 -1.104397429e-14 0)
(3 -1.107596331e-14 0)
(3 -8.029485377e-15 0)
(3 -3.865966623e-15 0)
(3 -1.040139021e-15 0)
(3 -1.044151711e-15 0)
(3 -3.992623224e-16 0)
(3 6.975700801e-16 0)
(3 2.84655062e-15 0)
(3 4.703673446e-15 0)
(3 4.14746699e-15 0)
(3 6.16492588e-16 0)
(3 -6.855376554e-15 0)
(3 -9.342382467e-15 0)
(3 -9.497501336e-15 0)
(3 -9.979309008e-15 0)
(3 -8.887430178e-15 0)
(3 -7.036750835e-15 0)
(3 -4.808053148e-15 0)
(3 -3.537757449e-15 0)
(3 -5.316223263e-15 0)
(3 -6.345681304e-15 0)
(3 -1.103908351e-14 0)
(3 -1.299174061e-14 0)
(3 -1.146321369e-14 0)
(3 -1.322199768e-14 0)
(3 -1.69751262e-14 0)
(3 -1.824307645e-14 0)
(3 -1.557112078e-14 0)
(3 -1.348371448e-14 0)
(3 -1.245029585e-14 0)
(3 -7.579553605e-15 0)
(3 -5.496304716e-15 0)
(3 -6.364822618e-15 0)
(3 -2.905122451e-15 0)
(3 -4.414842358e-15 0)
(3 -5.536128085e-15 0)
(3 -4.005998183e-15 0)
(3 -1.439336039e-15 0)
(3 2.230635489e-15 0)
(3 7.374882386e-18 0)
(3 -5.223280896e-19 0)
(3 -7.361000185e-16 0)
(3 9.754276472e-16 0)
(3 1.148700516e-15 0)
(3 -1.031009927e-15 0)
(3 -2.300421309e-15 0)
(3 -2.710466863e-15 0)
(3 -1.887807518e-15 0)
(3 -1.02119091e-15 0)
(3 -1.325021139e-15 0)
(3 4.698618198e-16 0)
(3 4.712728293e-15 0)
(3 8.973137799e-15 0)
(3 1.05900555e-14 0)
(3 1.081641824e-14 0)
(3 7.293932477e-15 0)
(3 4.937682654e-15 0)
(3 4.367398188e-15 0)
(3 4.242801257e-15 0)
(3 3.853866521e-15 0)
(3 3.685150644e-15 0)
(3 2.907585438e-15 0)
(3 3.705147445e-15 0)
(3 3.123136966e-15 0)
(3 6.147860816e-15 0)
(3 5.676986877e-15 0)
(3 2.482649245e-15 0)
(3 3.113879149e-15 0)
(3 3.180483534e-15 0)
(3 2.59500238e-15 0)
(3 1.965337339e-15 0)
(3 1.545894027e-15 0)
(3 1.673217023e-15 0)
(3 4.838837425e-15 0)
(3 3.722836723e-15 0)
(3 -7.332089104e-16 0)
(3 -4.881072808e-15 0)
(3 -7.247662246e-15 0)
(3 -9.148709961e-15 0)
(3 -1.086889952e-14 0)
(3 -1.067033746e-14 0)
(3 -8.691930345e-15 0)
(3 -5.582164448e-15 0)
(3 -4.050735965e-15 0)
(3 -4.142676782e-15 0)
(3 -1.175051541e-15 0)
(3 -1.940956815e-16 0)
(3 -1.834835143e-15 0)
(3 -6.455480381e-15 0)
(3 -1.214496897e-14 0)
(3 -1.531157215e-14 0)
(3 -1.681066257e-14 0)
(3 -2.039632467e-14 0)
(3 -2.201831044e-14 0)
(3 -2.228778871e-14 0)
(3 -2.022877133e-14 0)
(3 -1.669742711e-14 0)
(3 -1.13488652e-14 0)
(3 -8.484578565e-15 0)
(3 -4.88812101e-15 0)
(3 -3.763397543e-15 0)
(3 -4.168066661e-15 0)
(3 -6.798717444e-15 0)
(3 -7.249272532e-15 0)
(3 -8.600951342e-15 0)
(3 -4.766787707e-17 0)
(3 -4.620404238e-16 0)
(3 -1.387520768e-15 0)
(3 -2.10235865e-15 0)
(3 -1.685192134e-15 0)
(3 1.471581774e-15 0)
(3 1.416020199e-15 0)
(3 4.636956337e-16 0)
(3 4.285658207e-16 0)
(3 3.953557074e-16 0)
(3 -1.53468746e-15 0)
(3 -1.563466515e-15 0)
(3 -1.281398541e-15 0)
(3 1.472757886e-15 0)
(3 3.722802544e-15 0)
(3 1.555092611e-15 0)
(3 -1.565698097e-15 0)
(3 -1.472772815e-15 0)
(3 2.365711817e-16 0)
(3 7.578797649e-16 0)
(3 7.570905627e-16 0)
(3 1.78923056e-15 0)
(3 2.165345238e-15 0)
(3 5.151829987e-15 0)
(3 1.017595273e-14 0)
(3 1.084905322e-14 0)
(3 1.093136456e-14 0)
(3 9.911712367e-15 0)
(3 7.71694152e-15 0)
(3 5.862372941e-15 0)
(3 4.853111142e-15 0)
(3 3.631569258e-15 0)
(3 3.131863014e-15 0)
(3 5.137699964e-16 0)
(3 6.390390102e-16 0)
(3 -6.133606638e-17 0)
(3 -3.36659711e-15 0)
(3 -5.359043392e-15 0)
(3 -5.593831229e-15 0)
(3 -5.348506168e-15 0)
(3 -7.960446917e-15 0)
(3 -8.35213569e-15 0)
(3 -6.708599549e-15 0)
(3 -3.473037708e-15 0)
(3 -1.834686674e-15 0)
(3 -2.035223353e-15 0)
(3 -3.669843307e-16 0)
(3 -2.36317913e-16 0)
(3 7.44862462e-16 0)
(3 -1.295986391e-15 0)
(3 -4.707033092e-15 0)
(3 -1.029970411e-14 0)
(3 -1.202408156e-14 0)
(3 -1.092422878e-14 0)
(3 -1.155407952e-14 0)
(3 -1.199172449e-14 0)
(3 -1.140157884e-14 0)
(3 -8.886639971e-15 0)
(3 -5.974131064e-15 0)
(3 -1.304786758e-15 0)
(3 -1.588366644e-17 0)
(3 5.090746382e-16 0)
(3 -5.639091781e-16 0)
(3 -2.294061148e-15 0)
(3 -4.31266554e-15 0)
(3 -6.686759819e-15 0)
(3 -2.755515951e-16 0)
(3 -1.5052075e-15 0)
(3 -1.882558124e-15 0)
(3 -1.34109206e-15 0)
(3 -6.171088397e-16 0)
(3 -2.592836613e-16 0)
(3 2.078601763e-16 0)
(3 -1.732592133e-16 0)
(3 -1.853092037e-15 0)
(3 -4.57001847e-15 0)
(3 -6.77001623e-15 0)
(3 -7.989224573e-15 0)
(3 -6.424247367e-15 0)
(3 -4.007585294e-15 0)
(3 -2.49630248e-15 0)
(3 -1.604084655e-15 0)
(3 -7.575815232e-16 0)
(3 -2.236930002e-15 0)
(3 -2.321622648e-15 0)
(3 -1.492880991e-15 0)
(3 -1.137256374e-15 0)
(3 -8.313555498e-16 0)
(3 6.260275212e-16 0)
(3 3.599273768e-15 0)
(3 5.470982512e-15 0)
(3 4.14536411e-15 0)
(3 2.134801757e-15 0)
(3 3.340817529e-15 0)
(3 3.145621519e-15 0)
(3 2.171832287e-15 0)
(3 3.387726258e-15 0)
(3 4.25670617e-15 0)
(3 5.299602973e-15 0)
(3 3.526823035e-15 0)
(3 1.274805529e-15 0)
(3 -1.257933592e-16 0)
(3 -8.199453808e-16 0)
(3 -1.582676573e-15 0)
(3 -1.32769421e-15 0)
(3 -1.382633047e-15 0)
(3 -2.209433417e-15 0)
(3 -3.42107533e-15 0)
(3 -2.689391621e-15 0)
(3 -2.594660559e-15 0)
(3 -2.225814491e-15 0)
(3 -1.863461316e-15 0)
(3 4.077106847e-16 0)
(3 3.099074766e-15 0)
(3 3.028206402e-15 0)
(3 4.644555511e-15 0)
(3 4.220664615e-15 0)
(3 3.93496658e-16 0)
(3 -2.891927515e-15 0)
(3 -1.081526001e-15 0)
(3 1.708683348e-15 0)
(3 2.902276652e-15 0)
(3 2.712460276e-15 0)
(3 3.360030434e-15 0)
(3 5.441519664e-15 0)
(3 8.621565762e-15 0)
(3 1.240330411e-14 0)
(3 1.325918812e-14 0)
(3 1.237182569e-14 0)
(3 1.055977757e-14 0)
(3 7.963931166e-15 0)
(3 4.643474183e-15 0)
(3 1.240263949e-16 0)
(3 -8.921627587e-16 0)
(3 -7.970924052e-16 0)
(3 1.365317473e-16 0)
(3 7.522447524e-16 0)
(3 -8.092247185e-16 0)
(3 -1.304527053e-15 0)
(3 -1.619830758e-15 0)
(3 -9.601173334e-16 0)
(3 -5.109821844e-16 0)
(3 -1.153725623e-15 0)
(3 -3.050483601e-15 0)
(3 -3.619172659e-15 0)
(3 -4.795727051e-15 0)
(3 -4.016309435e-15 0)
(3 -3.422178943e-15 0)
(3 -3.381973008e-17 0)
(3 -8.659851235e-16 0)
(3 -2.501505416e-15 0)
(3 -3.816941623e-15 0)
(3 -2.787576503e-15 0)
(3 -1.227804708e-15 0)
(3 2.974230565e-15 0)
(3 3.806946023e-15 0)
(3 2.693584399e-15 0)
(3 2.604966239e-16 0)
(3 -6.842906201e-16 0)
(3 -1.819611119e-15 0)
(3 -2.438926935e-15 0)
(3 -2.017463727e-15 0)
(3 -9.058949206e-16 0)
(3 -4.107994198e-16 0)
(3 -2.030206301e-16 0)
(3 -1.089806948e-15 0)
(3 -2.180223295e-15 0)
(3 -3.948101023e-15 0)
(3 -3.622961031e-15 0)
(3 -2.660707039e-15 0)
(3 -1.965254689e-15 0)
(3 -2.470912813e-15 0)
(3 -2.314094369e-16 0)
(3 -1.441902801e-15 0)
(3 -2.509411722e-15 0)
(3 -3.205373946e-15 0)
(3 -1.773546613e-15 0)
(3 2.691106385e-15 0)
(3 4.783467152e-15 0)
(3 5.557411978e-15 0)
(3 5.684289141e-15 0)
(3 7.115194949e-15 0)
(3 6.451959206e-15 0)
(3 5.115476139e-15 0)
(3 4.488896475e-15 0)
(3 3.870086294e-15 0)
(3 3.468508021e-15 0)
(3 4.511291623e-15 0)
(3 6.253505668e-15 0)
(3 6.216754061e-15 0)
(3 6.032041485e-15 0)
(3 7.405912703e-15 0)
(3 8.831694801e-15 0)
(3 8.149599169e-15 0)
(3 7.158558605e-15 0)
(3 5.527893209e-15 0)
(3 5.054934477e-15 0)
(3 3.532804847e-15 0)
(3 2.708897696e-16 0)
(3 -1.471087925e-16 0)
(3 1.515909985e-15 0)
(3 1.375076175e-15 0)
(3 1.616101535e-15 0)
(3 8.02574806e-16 0)
(3 1.990630189e-16 0)
(3 4.992597873e-16 0)
(3 2.065007817e-15 0)
(3 3.401772354e-15 0)
(3 5.085227294e-15 0)
(3 5.151606813e-15 0)
(3 1.058041281e-15 0)
(3 -1.125198766e-16 0)
(3 -2.346512065e-15 0)
(3 -3.985583117e-15 0)
(3 -5.154984196e-15 0)
(3 -6.380059923e-15 0)
(3 -9.252998086e-15 0)
(3 -9.321902476e-15 0)
(3 -8.586951969e-15 0)
(3 -6.575011179e-15 0)
(3 -3.074641895e-15 0)
(3 -1.411226555e-15 0)
(3 6.827597859e-16 0)
(3 2.485797069e-15 0)
(3 5.250687068e-15 0)
(3 3.365476234e-15 0)
(3 2.234545682e-15 0)
(3 2.363865255e-16 0)
(3 -2.125722521e-15 0)
(3 -4.577010994e-15 0)
(3 -6.258039954e-15 0)
(3 -7.979731341e-15 0)
(3 -7.949416575e-15 0)
(3 -9.829959092e-15 0)
(3 -1.209555443e-14 0)
(3 -1.139670815e-14 0)
(3 -1.025167105e-14 0)
(3 -9.378257922e-15 0)
(3 -3.738556916e-15 0)
(3 -3.234295654e-16 0)
(3 2.164095029e-16 0)
(3 9.960308391e-16 0)
(3 3.993039494e-15 0)
(3 7.57853274e-15 0)
(3 7.147429218e-15 0)
(3 6.538753675e-15 0)
(3 6.440971077e-15 0)
(3 5.556866995e-15 0)
(3 4.832597617e-15 0)
(3 3.574738531e-15 0)
(3 7.221297823e-15 0)
(3 7.939768639e-15 0)
(3 7.653210561e-15 0)
(3 6.273453541e-15 0)
(3 3.596815474e-15 0)
(3 3.960349423e-15 0)
(3 6.231730609e-16 0)
(3 7.513866393e-16 0)
(3 3.961988252e-17 0)
(3 -1.730870877e-15 0)
(3 -2.747082723e-15 0)
(3 -3.790567082e-15 0)
(3 -4.278469453e-15 0)
(3 -6.027464905e-15 0)
(3 4.048020058e-16 0)
(3 9.645849525e-16 0)
(3 2.162252076e-15 0)
(3 2.8040533e-15 0)
(3 4.141467104e-15 0)
(3 3.235806156e-15 0)
(3 2.63891193e-15 0)
(3 3.965332941e-15 0)
(3 3.910339926e-15 0)
(3 3.12828788e-15 0)
(3 2.854398159e-15 0)
(3 2.593823518e-15 0)
(3 1.623982333e-15 0)
(3 -5.015883601e-16 0)
(3 -1.723506553e-15 0)
(3 -5.313673496e-15 0)
(3 -8.576564907e-15 0)
(3 -1.133070015e-14 0)
(3 -1.417167854e-14 0)
(3 -1.539540544e-14 0)
(3 -1.554219048e-14 0)
(3 -1.493093568e-14 0)
(3 -1.288661968e-14 0)
(3 -1.029836724e-14 0)
(3 -7.167464796e-15 0)
(3 4.271931934e-16 0)
(3 4.976414861e-15 0)
(3 4.904680439e-15 0)
(3 5.817181243e-15 0)
(3 5.12865687e-15 0)
(3 2.417161959e-15 0)
(3 1.190383595e-15 0)
(3 -4.303569689e-17 0)
(3 -4.322818797e-16 0)
(3 -2.922259967e-15 0)
(3 -5.367547718e-15 0)
(3 -5.003019435e-15 0)
(3 -3.937009518e-15 0)
(3 -4.018949047e-15 0)
(3 -3.095772986e-15 0)
(3 -3.802132871e-15 0)
(3 3.920462916e-17 0)
(3 1.819646045e-15 0)
(3 2.033194903e-15 0)
(3 4.241099615e-16 0)
(3 4.68107478e-15 0)
(3 5.625279456e-15 0)
(3 4.811564505e-15 0)
(3 3.663545958e-15 0)
(3 5.336597536e-15 0)
(3 6.38992805e-15 0)
(3 6.744258948e-15 0)
(3 7.406464575e-15 0)
(3 6.838680938e-15 0)
(3 5.986521995e-15 0)
(3 4.112637371e-15 0)
(3 5.674761688e-15 0)
(3 8.084965697e-15 0)
(3 1.015734068e-14 0)
(3 8.87150705e-15 0)
(3 7.190493627e-15 0)
(3 4.837251955e-15 0)
(3 1.582183439e-15 0)
(3 -3.684302338e-15 0)
(3 -7.984271201e-15 0)
(3 -1.126770407e-14 0)
(3 -3.793529223e-16 0)
(3 7.508093138e-17 0)
(3 1.277441788e-16 0)
(3 -1.153966295e-15 0)
(3 -3.852497542e-16 0)
(3 5.061077146e-16 0)
(3 1.022663589e-15 0)
(3 1.483680843e-15 0)
(3 3.958977525e-15 0)
(3 5.472298977e-15 0)
(3 5.109387814e-15 0)
(3 4.500622512e-15 0)
(3 3.175484416e-15 0)
(3 1.796159222e-15 0)
(3 2.032053385e-15 0)
(3 4.122219941e-17 0)
(3 -2.829181491e-15 0)
(3 -4.240280685e-15 0)
(3 -4.584037654e-15 0)
(3 -6.603205452e-15 0)
(3 -8.204388934e-15 0)
(3 -1.009406405e-14 0)
(3 -1.193156514e-14 0)
(3 -1.202311189e-14 0)
(3 -1.175644189e-14 0)
(3 -9.10631666e-15 0)
(3 -5.028719665e-15 0)
(3 7.649252842e-17 0)
(3 1.025869724e-15 0)
(3 1.708179179e-15 0)
(3 1.123968593e-15 0)
(3 2.35089708e-16 0)
(3 -4.341252111e-16 0)
(3 -8.751915847e-16 0)
(3 -6.307733664e-16 0)
(3 -3.807972876e-16 0)
(3 2.493281114e-15 0)
(3 7.085059079e-15 0)
(3 7.957022658e-15 0)
(3 5.984185678e-15 0)
(3 -3.056082416e-16 0)
(3 -2.311885299e-15 0)
(3 -3.45795935e-15 0)
(3 -3.878157531e-15 0)
(3 -4.052367558e-15 0)
(3 -2.155887753e-15 0)
(3 -6.467137185e-16 0)
(3 -2.128714726e-15 0)
(3 -2.14634688e-15 0)
(3 -1.150215242e-15 0)
(3 1.145560161e-15 0)
(3 4.10561078e-15 0)
(3 4.206249666e-15 0)
(3 4.638916668e-15 0)
(3 4.199436909e-15 0)
(3 4.78151838e-15 0)
(3 4.999265907e-15 0)
(3 8.725345483e-15 0)
(3 1.407029717e-14 0)
(3 1.417103347e-14 0)
(3 1.096728225e-14 0)
(3 8.756181816e-15 0)
(3 5.660207446e-15 0)
(3 -3.092689069e-16 0)
(3 -5.236201425e-15 0)
(3 -1.059246657e-14 0)
(3 -3.993834827e-16 0)
(3 -2.25538688e-15 0)
(3 -2.348607374e-15 0)
(3 -2.901116042e-15 0)
(3 -1.86056586e-15 0)
(3 -1.579337881e-15 0)
(3 1.289581164e-15 0)
(3 1.047096935e-15 0)
(3 2.633390131e-15 0)
(3 4.695548374e-15 0)
(3 5.613481721e-15 0)
(3 6.743613971e-15 0)
(3 6.427551125e-15 0)
(3 4.727306366e-15 0)
(3 2.456189448e-15 0)
(3 2.227373679e-15 0)
(3 1.887895859e-15 0)
(3 3.766626605e-15 0)
(3 6.233919475e-15 0)
(3 5.02407989e-15 0)
(3 4.077067502e-15 0)
(3 -5.777824564e-17 0)
(3 -2.036972485e-15 0)
(3 -4.568062666e-15 0)
(3 -5.377205386e-15 0)
(3 -6.748914735e-15 0)
(3 -5.769928906e-15 0)
(3 -3.243427951e-15 0)
(3 -3.614070345e-15 0)
(3 -6.864579212e-15 0)
(3 -6.624470435e-15 0)
(3 -5.696443758e-15 0)
(3 -4.555888719e-15 0)
(3 -2.888170177e-15 0)
(3 2.287000884e-16 0)
(3 3.729335387e-15 0)
(3 3.854903673e-15 0)
(3 4.118201179e-15 0)
(3 6.767222978e-15 0)
(3 4.229532132e-15 0)
(3 4.193393867e-15 0)
(3 8.394305238e-16 0)
(3 -2.148726279e-15 0)
(3 -2.548433643e-15 0)
(3 -2.515614368e-15 0)
(3 -3.129970881e-15 0)
(3 -2.521554285e-15 0)
(3 -1.246589382e-15 0)
(3 -1.031413517e-15 0)
(3 -4.456175757e-15 0)
(3 -4.285410844e-15 0)
(3 -2.893491808e-15 0)
(3 -1.320339715e-15 0)
(3 6.097345391e-16 0)