/*--------------------------------*- C++ -*----------------------------------*\
  =========                 |
  \\      /  F ield         | OpenFOAM: The Open Source CFD Toolbox
   \\    /   O peration     | Website:  https://openfoam.org
    \\  /    A nd           | Version:  7
     \\/     M anipulation  |
\*---------------------------------------------------------------------------*/
FoamFile
{
    version     2.0;
    format      ascii;
    class       volScalarField;
    location    "1.1";
    object      rho;
}
// * * * * * * * * * * * * * * * * * * * * * * * * * * * * * * * * * * * * * //

dimensions      [1 -3 0 0 0 0 0];

internalField   nonuniform List<scalar> 
2222
(
1.940351892
1.856080653
1.783595459
1.729258612
1.675235255
1.616519378
1.563286175
1.524162665
1.485305659
1.444088822
1.404165411
1.374955486
1.344422245
1.314658673
1.282150228
1.257525553
1.23715298
3.856907628
3.873204748
3.894647865
3.901590533
3.888155267
3.840793504
3.748137492
3.612091586
3.458343915
3.284372231
3.091628493
2.932545008
2.791330302
2.636095667
2.490163892
2.377447814
2.27099486
2.153292489
2.050297179
1.974376644
1.89977373
1.818970817
1.746266207
1.692864558
1.640386098
1.584698663
1.532474738
1.494122403
1.456411874
1.416363233
1.376588308
1.348145164
1.318856408
1.289806722
1.259617133
1.234001788
1.214183897
3.847883654
3.841623859
3.857829829
3.87942074
3.875853497
3.8505721
3.769617102
3.616643096
3.441186481
3.252798638
3.047676887
2.878109813
2.732316588
2.577737725
2.432094119
2.323801327
2.222131395
2.109639975
2.006576618
1.931745845
1.858874499
1.781475421
1.709479984
1.657179762
1.606238929
1.552449483
1.500419753
1.462973495
1.426671268
1.388975131
1.350279666
1.322325799
1.294420582
1.265828044
1.236717595
1.212053347
1.191533461
3.834961879
3.840736142
3.845154646
3.850693561
3.852195354
3.823192171
3.743527854
3.604511625
3.426400431
3.229588744
3.015720944
2.835420602
2.682270923
2.523884397
2.373278667
2.266441816
2.1688514
2.063484044
1.962849992
1.890107066
1.819090865
1.744243495
1.671890026
1.620278908
1.570881878
1.519860199
1.469261969
1.432991798
1.397802813
1.361501564
1.323167597
1.295415083
1.268297764
1.240199426
1.211612239
1.188605389
1.167354513
3.839680576
3.84503393
3.842675501
3.839288462
3.827670391
3.790262444
3.705119935
3.559663954
3.386496864
3.202050407
2.989072484
2.799555316
2.639796435
2.477315512
2.320692227
2.210626478
2.113486724
2.013966552
1.91637517
1.846429153
1.77849127
1.706371291
1.634657085
1.583872183
1.536116715
1.487332639
1.437209968
1.401747235
1.367617873
1.333296459
1.296743782
1.269666961
1.24388761
1.217136929
1.188731283
1.16685782
1.145556927
3.849109071
3.845061823
3.841973298
3.836836971
3.81610077
3.761899217
3.658502672
3.501591671
3.330807211
3.149862744
2.943705721
2.760681786
2.60053884
2.437779564
2.276909248
2.160936965
2.060264415
1.962285457
1.86617062
1.800027706
1.736978998
1.668988351
1.597906706
1.547121729
1.500283172
1.453671393
1.405501436
1.371220523
1.338673739
1.305814342
1.270062342
1.242639756
1.21746506
1.191536135
1.163437975
1.142594681
1.122995123
3.847644823
3.842900615
3.841927838
3.835063796
3.807077026
3.739334811
3.618949643
3.444873598
3.264246173
3.084160907
2.887166193
2.70883646
2.554687436
2.398569603
2.237843004
2.117195014
2.013084134
1.913410693
1.815815353
1.750809153
1.692300483
1.629275332
1.560967582
1.511340876
1.465927221
1.421131603
1.373862193
1.340011473
1.308849602
1.277200248
1.243535175
1.216904717
1.192898541
1.167827762
1.140825545
1.120053885
1.102012577
3.841587558
3.843078038
3.84210681
3.83259606
3.797839862
3.717345426
3.581771917
3.391687817
3.199326349
3.016336179
2.81827991
2.644192905
2.498774521
2.354146017
2.199106172
2.076905488
1.970966495
1.867885867
1.766685536
1.700623107
1.645714413
1.588499682
1.523746405
1.475609433
1.431469794
1.387680992
1.342044402
1.308895404
1.279152652
1.248828443
1.216375041
1.189904419
1.166608965
1.142945261
1.117076802
1.096574314
1.08044776
3.841622812
3.844278696
3.841323921
3.829122994
3.786504253
3.692947533
3.543239728
3.340253583
3.138966331
2.949374692
2.747902877
2.574618577
2.43438894
2.299855747
2.153708816
2.034212614
1.930299308
1.827321348
1.724663837
1.654073092
1.598318875
1.544345417
1.483867091
1.439172408
1.398044831
1.356196791
1.311660687
1.278418429
1.249949678
1.221028035
1.189843998
1.164388989
1.141723507
1.119547189
1.095128597
1.075043492
1.060415811
3.845469927
3.844028274
3.840027609
3.824800127
3.7727384
3.664854958
3.501727714
3.287558606
3.078355678
2.885679371
2.681146385
2.502892994
2.364422895
2.23731173
2.099779816
1.986462884
1.887712523
1.788510655
1.685977732
1.612190234
1.553423471
1.500310413
1.443259004
1.40139859
1.363590103
1.323605931
1.279923062
1.246378827
1.218484368
1.190937019
1.161287203
1.137031737
1.115811984
1.095664065
1.073053615
1.053286901
1.040801953
3.846095634
3.842730527
3.838751169
3.819412542
3.756086752
3.633053691
3.456414745
3.231505074
3.016658277
2.821940247
2.615914285
2.434244109
2.295059809
2.170017824
2.038296526
1.930835226
1.839633862
1.747921735
1.650390885
1.574522204
1.512349381
1.456704743
1.400877584
1.361342598
1.327943766
1.29177698
1.250803368
1.217362387
1.189751261
1.163075097
1.134927242
1.111828856
1.092199933
1.07356424
1.052846759
1.034571706
1.024319583
3.843420146
3.842287128
3.837496843
3.81261346
3.736381939
3.597021364
3.407116564
3.172602636
2.951447921
2.755457381
2.551176805
2.367325629
2.227261363
2.102276398
1.973125509
1.869688586
1.786561565
1.703984697
1.61239563
1.537467291
1.474734669
1.416837806
1.361242414
1.321696793
1.290786046
1.257376667
1.218349067
1.184927188
1.157862982
1.132695817
1.106419216
1.084864948
1.068120685
1.051891946
1.033598211
1.017270695
1.009524275
3.842323218
3.84255865
3.835912238
3.804166984
3.71318358
3.556697577
3.353610172
3.109450769
2.883332809
2.68641719
2.483736415
2.299505361
2.160841926
2.036814447
1.908567961
1.805222246
1.728291475
1.65492844
1.572291853
1.500134449
1.43919775
1.380196659
1.322934558
1.281725795
1.253170616
1.223304131
1.18791797
1.155822608
1.129672183
1.105407389
1.079872163
1.060051132
1.046959465
1.033728137
1.016853416
1.0022468
0.9960434017
3.843662213
3.842753444
3.833748263
3.793821826
3.686083281
3.511466038
3.295330467
3.042549218
2.811224442
2.613517417
2.41405319
2.230615629
2.093565824
1.971924185
1.846030152
1.742378552
1.668814157
1.601770722
1.526300642
1.459082283
1.402477124
1.345672807
1.288642979
1.244676538
1.215071317
1.186446558
1.153742319
1.123263961
1.099566434
1.077576801
1.053068552
1.035528922
1.027339035
1.017340739
1.002195114
0.9898550249
0.9847379057
3.844672998
3.842587169
3.831136853
3.781150004
3.654528565
3.460723303
3.231856391
2.970986476
2.735444253
2.537585267
2.341080453
2.159135964
2.02522629
1.907540608
1.785149104
1.681222966
1.609199612
1.545873688
1.477553904
1.415690103
1.364570663
1.311907235
1.256395188
1.212289341
1.181098736
1.151690151
1.120789986
1.092989117
1.072590338
1.05426088
1.0289069
1.013901457
1.009683253
1.001977804
0.9888332746
0.9776647328
0.9731128383
3.844472368
3.842498595
3.828021834
3.765411554
3.617537067
3.404225691
3.162733355
2.894575255
2.655687071
2.45810029
2.265726656
2.086162197
1.955364702
1.841660084
1.724545748
1.62290227
1.552464104
1.490225195
1.425405367
1.368269015
1.322577814
1.274770254
1.222902375
1.17936416
1.145979316
1.11560184
1.086265099
1.061024925
1.045682517
1.031445082
1.00784581
0.9947470734
0.9933742064
0.9880507941
0.9767593407
0.9666353332
0.9628038522
3.844572399
3.843351541
3.823768708
3.745488086
3.574584132
3.340692296
3.087560103
2.813684224
2.571979655
2.375626947
2.187623033
2.011219706
1.884333703
1.775620814
1.664254779
1.564639327
1.496688886
1.435376863
1.37441627
1.320086057
1.280232329
1.238921584
1.192488638
1.150307667
1.116527043
1.085899368
1.057102383
1.032582952
1.022267782
1.010886982
0.9926966998
0.9790678197
0.976812244
0.9726170444
0.9625382756
0.9548313196
0.9526539401
3.845947017
3.844659582
3.817281086
3.720103377
3.523920734
3.27057444
3.006418308
2.727305056
2.484764489
2.290509364
2.107776738
1.935345298
1.812235621
1.708270349
1.603143841
1.507480508
1.442921403
1.384440646
1.324282317
1.269300253
1.232260862
1.196339598
1.155768157
1.116539454
1.085461291
1.057169506
1.029472345
1.006401707
1.001320686
0.9935669366
0.9792059858
0.96577912
0.9624232778
0.958518876
0.948976279
0.9438984771
0.9434630596
3.849016862
3.84563651
3.80728983
3.687674854
3.465383326
3.191890919
2.918523803
2.637018526
2.394224001
2.202934619
2.02598065
1.858448227
1.740273201
1.641718635
1.542471963
1.449643225
1.388977914
1.333445973
1.276405303
1.222780868
1.188991477
1.158041536
1.121498411
1.085210601
1.059167321
1.035272738
1.009666794
0.9871821484
0.9825218499
0.9760971972
0.9645199768
0.9530039081
0.9493073451
0.9456187427
0.9364787725
0.9326180955
0.933322343
3.852203061
3.845894706
3.79274406
3.647166722
3.397083958
3.106033574
2.824579527
2.541085327
2.300898095
2.113963599
1.943484077
1.781696677
1.668178633
1.573999976
1.481035518
1.393610897
1.336759659
1.284189954
1.228875357
1.173965183
1.141388491
1.11510032
1.083100352
1.050434335
1.033382309
1.016149461
0.9935606787
0.9721138871
0.9675443457
0.9619179709
0.952316884
0.9430650444
0.9396390961
0.9357612113
0.9268496591
0.9231592822
0.9242120769
3.854646048
3.84338742
3.771919831
3.597479296
3.320041558
3.011149056
2.72386106
2.442470793
2.205104286
2.023537783
1.860180781
1.704934794
1.596806409
1.508531694
1.421446513
1.337248635
1.284886474
1.236918771
1.184585817
1.132001262
1.100306813
1.079163114
1.048927281
1.022634172
1.013080755
0.9997286746
0.978043937
0.9592167159
0.9547635008
0.9497702343
0.9408330619
0.931634234
0.9286442228
0.9246678526
0.9165288298
0.9132988714
0.9147282053
3.856099386
3.838475446
3.743845011
3.537482023
3.232360401
2.909620008
2.618315549
2.33896241
2.107726752
1.933055278
1.777721282
1.628667192
1.52564382
1.443427948
1.361369567
1.281006071
1.230378066
1.185783462
1.137687322
1.086289127
1.059257425
1.043505211
1.01676199
0.9979908796
0.9936769754
0.984211281
0.9649963983
0.9497716741
0.9450247918
0.9388445347
0.9294796143
0.920630233
0.9192342013
0.9163884958
0.9098668408
0.9069742076
0.9080731882
3.856963249
3.829161438
3.706077264
3.46624252
3.135704989
2.800378296
2.507981612
2.234639405
2.010056312
1.84189747
1.694206113
1.5528731
1.456927092
1.3803408
1.304852281
1.229438786
1.182085392
1.141865487
1.097789277
1.048432456
1.030201105
1.015294071
0.994268515
0.9785365756
0.9749630826
0.9680658362
0.951254914
0.9398043214
0.9362445871
0.9290598638
0.9203359588
0.9118081662
0.9110357588
0.9089320705
0.9031028857
0.9007366378
0.9014801557
3.856890321
3.813156811
3.65730573
3.382913795
3.029367872
2.686652871
2.394795685
2.127648045
1.911417856
1.751028322
1.612481662
1.48062088
1.389830159
1.316636541
1.24347028
1.170126265
1.12596431
1.09352219
1.055077226
1.011928178
1.003363115
0.9923728057
0.9755548106
0.9630914915
0.9609644733
0.9553042204
0.9392056224
0.930339884
0.9280159728
0.9218473093
0.9125901863
0.9041921595
0.9036590424
0.9014797757
0.8963217484
0.8950775798
0.8956622546
3.852835473
3.788177389
3.596593763
3.28862744
2.915977969
2.567478791
2.27924016
2.020865991
1.811759257
1.661212384
1.531133564
1.405424957
1.321727184
1.258448821
1.191229125
1.121994802
1.083092171
1.057265902
1.022193763
0.9867908482
0.9829531037
0.9748553353
0.9595637929
0.944956868
0.944823911
0.9418676258
0.9299333717
0.9226544631
0.9205332979
0.9154946716
0.9054602644
0.8964966704
0.8967514338
0.8948121441
0.8913663769
0.8911852611
0.8917006234
3.844241876
3.75445008
3.524684229
3.183629519
2.796016181
2.445100839
2.161429834
1.910398158
1.712103871
1.572488573
1.452748638
1.333018718
1.25349876
1.194295642
1.132718361
1.065091026
1.037982716
1.021897046
0.9934727935
0.9669474506
0.9667679247
0.9613274263
0.9467522312
0.9321183703
0.9329238412
0.9320561034
0.9232037191
0.9163921579
0.9140660282
0.9096639981
0.8998310029
0.8920900453
0.8905965506
0.8886960934
0.8882841581
0.8884778606
0.8893546541
3.829094345
3.712047787
3.441898181
3.070385078
2.668577449
2.317310245
2.039252
1.801222758
1.614541215
1.481833426
1.370767066
1.264743007
1.193342452
1.140977813
1.086672925
1.022148554
1.009118474
0.9971592087
0.9714144081
0.9487437011
0.9499606559
0.9475124292
0.936051683
0.9220350813
0.9222820592
0.9215471856
0.9150535159
0.909709648
0.9080310862
0.9049080181
0.8963373067
0.8901608835
0.8878150699
0.8850014434
0.8854892031
0.8863045725
0.8874666551
3.809299877
3.662358887
3.349389229
2.946885395
2.532863898
2.18530317
1.913164001
1.689568265
1.513948593
1.392540906
1.287802445
1.189357145
1.1226288
1.083069637
1.03759051
0.9868107959
0.9841450168
0.9770072199
0.9538199865
0.9344221085
0.9364301453
0.9361512786
0.9272466314
0.9125215705
0.9115019671
0.9115656246
0.9082152841
0.9047701473
0.9041468238
0.9022453687
0.8959650567
0.8904451265
0.8873355456
0.8847321031
0.8834888086
0.8845591556
0.899440531
3.786324982
3.60529489
3.246225357
2.81167426
2.387919017
2.043765854
1.78608842
1.573033341
1.410210303
1.310569796
1.219112054
1.123546968
1.072975785
1.044410273
1.004712438
0.965683304
0.9645654919
0.9603439021
0.9413156886
0.9241546554
0.9246262429
0.9243551172
0.9171905001
0.905472856
0.9047283273
0.904939591
0.9029304006
0.9000582075
0.9005034388
0.8995878433
0.8958333591
0.8912276894
0.8879677943
0.8849269785
0.8856916714
0.8999463125
0.9658227168
3.765023578
3.541716058
3.126995213
2.659597977
2.235553681
1.894893569
1.656863418
1.455134703
1.306616194
1.214924186
1.136301057
1.045132812
1.023826285
1.010135932
0.9792736707
0.9509216032
0.9518331138
0.9495902321
0.9343381631
0.9175752486
0.9146472513
0.9139400608
0.9086132263
0.8998106114
0.899349525
0.8994763853
0.8980949634
0.8965331519
0.8975004447
0.8971787923
0.8952396093
0.89196676
0.8893800821
0.8893356529
0.9068394871
0.9691997413
1.094571518
3.745085727
3.46344114
2.985717379
2.493060584
2.069284306
1.73945883
1.516342668
1.347385602
1.221662165
1.144022147
1.077923708
0.9972957526
0.9917055165
0.9858134968
0.9617158514
0.9381273978
0.9386910593
0.9368497253
0.9250809485
0.9118464186
0.9082687775
0.9070229004
0.902336468
0.8954550448
0.8952463858
0.8951440479
0.8937951564
0.8939362066
0.8947182408
0.8953882969
0.8948980958
0.8930784711
0.8946060625
0.9116246885
0.9889037279
1.098969552
1.177165173
3.722227875
3.363970908
2.823440294
2.306943329
1.885969856
1.58905777
1.379662479
1.222635092
1.107690146
1.063744669
1.017287333
0.9649067247
0.9660109415
0.9664294352
0.9498999128
0.9291648508
0.9293465376
0.9281513758
0.9202377832
0.909242531
0.9046925906
0.9022480618
0.8975562941
0.8924256235
0.8924315438
0.8921707439
0.8912022599
0.8917187686
0.8928006999
0.894351657
0.8946325068
0.8968650446
0.9210365414
0.9968156671
1.12359001
1.221066432
1.242089395
3.69305976
3.235196173
2.635416444
2.097603309
1.68463345
1.428282773
1.272316243
1.120428704
1.045385641
1.022687253
0.9849151826
0.9495856476
0.9486750552
0.9492370732
0.9364628268
0.9204081445
0.921264278
0.920866454
0.9153379858
0.9046349414
0.9014602417
0.8993803148
0.8950424639
0.8911662318
0.8912372356
0.8912459214
0.8905878498
0.8905701471
0.8912467752
0.8925615814
0.8979781699
0.926160336
1.017301495
1.146623464
1.199443319
1.247127188
1.261991402
3.650449005
3.070406571
2.399904507
1.858789141
1.484558457
1.251478113
1.137501044
1.014514749
0.9890726298
0.9886654687
0.9650793701
0.9408478732
0.938293495
0.9376930511
0.9270471561
0.913902294
0.9141828345
0.9141219106
0.9101898782
0.901142474
0.8999410149
0.8986039845
0.8950830163
0.8914801654
0.891445872
0.8914751678
0.8908079442
0.8906260752
0.8915561428
0.8976883669
0.9335037866
1.026117187
1.155401236
1.247887843
1.255456185
1.271553928
1.271895373
3.576970198
2.855189732
2.103938703
1.595983532
1.301418596
1.141314972
1.05491335
0.9729228909
0.9585609491
0.9616866508
0.9482063471
0.9313764633
0.9294492729
0.9284160492
0.9194328204
0.9089119813
0.9092640652
0.9093714853
0.9062754347
0.8990667542
0.8985951607
0.8981362403
0.8954797544
0.8926546625
0.892350888
0.8923829012
0.8916669224
0.8920311909
0.8987070891
0.9346905362
1.041281508
1.170307254
1.222870554
1.261984193
1.27377339
1.278849046
1.278050252
3.448771086
2.555071645
1.752412672
1.316368759
1.052991736
1.016447146
0.9812418528
0.939623616
0.9402700411
0.9441005109
0.9357529746
0.9226863569
0.9214180888
0.9203164063
0.9128430772
0.9044853244
0.90477929
0.9054200907
0.902973581
0.8983325187
0.8981873694
0.8982285849
0.8967931343
0.8948975029
0.8944846198
0.8944491238
0.894871413
0.9010680285
0.9438586069
1.0454535
1.170448823
1.260741206
1.269188112
1.281675237
1.282881953
1.282325901
1.282003743
3.232046283
2.066149798
1.417673623
1.125342186
0.9485033402
0.9428292626
0.9300757995
0.9154620104
0.9190351378
0.9246799906
0.9188690003
0.9095115208
0.9104969441
0.9100968944
0.9050136663
0.8998001907
0.8997247169
0.9007277251
0.8995010903
0.8977094429
0.8980898295
0.8985415447
0.8979399589
0.8965199836
0.8965624855
0.8977020815
0.9055282072
0.9480345384
1.057055985
1.191017533
1.231810381
1.271065142
1.282370381
1.288940134
1.291557385
1.289607989
1.286833451
2.826520432
1.467020208
1.019535949
0.9120381283
0.8868591664
0.9016197137
0.9039930008
0.8984642305
0.9009102289
0.9067099672
0.9042088394
0.8998801329
0.9011028997
0.9021814474
0.8993672374
0.8974025709
0.89719951
0.897740265
0.8978843857
0.897458474
0.8979242398
0.8983862207
0.8981932455
0.8977231909
0.8997770848
0.9105450026
0.9590394118
1.073693879
1.194943964
1.264697806
1.265698246
1.273958889
1.284568932
1.29090701
1.294583524
1.293899476
1.291431462
1.810339745
1.059533388
0.8875168494
0.8515458261
0.8533594974
0.8649283582
0.8732729332
0.8741213786
0.8756461131
0.8806204173
0.881288503
0.8797641499
0.8817567397
0.8868908097
0.8888332784
0.8899358373
0.8911074618
0.8926368462
0.8941759766
0.8954834119
0.8960091099
0.8965010023
0.8972497778
0.9008710968
0.917808566
0.9698813306
1.090939355
1.202661438
1.245763377
1.282239729
1.280037506
1.279725562
1.283475409
1.289744989
1.29441526
1.293968823
1.291994768
0.7262962832
0.8152912543
0.8976216499
0.8528625213
0.8415065734
0.850166059
0.8580463171
0.8627145312
0.8655134227
0.8687108665
0.8696656201
0.8729019393
0.878113716
0.8841647759
0.8869506257
0.8882444642
0.8899454995
0.8927296678
0.8949747746
0.8943000262
0.8951894341
0.8959164093
0.8983375585
0.9084546032
0.9450766417
1.037832873
1.191249713
1.25240565
1.260528302
1.281745191
1.282752903
1.282386222
1.284213852
1.290471711
1.294754033
1.294276861
0.7311136169
0.8236679233
0.8920434676
0.8506579056
0.8401646992
0.8483930266
0.8561602921
0.8600686201
0.8628543699
0.8660171533
0.8676149922
0.8723013952
0.8778624945
0.8836817858
0.8863610518
0.8876363608
0.8896330559
0.892782886
0.8949405106
0.8940039775
0.8948295492
0.8959119552
0.8998814118
0.9152247397
0.9665471432
1.079856367
1.227875847
1.26193843
1.264480134
1.282725587
1.28306584
1.282676394
1.2845895
1.290666309
1.294558655
1.294216718
0.7436589765
0.8304927694
0.8811465257
0.8467516668
0.8393211902
0.8470968037
0.8553331383
0.8588915265
0.8617818789
0.8644275508
0.8665652533
0.8717943335
0.8776197385
0.883371984
0.8859691714
0.8873478334
0.8896880858
0.8928601832
0.8947520785
0.8937495022
0.8945383341
0.8961753323
0.9014603654
0.9211461525
0.9872258653
1.110270573
1.244739679
1.265470568
1.265962437
1.284103416
1.282777316
1.282422288
1.28470456
1.290661921
1.293774284
1.293456979
0.755512225
0.8344773809
0.8700366949
0.8433001079
0.83888246
0.8461769973
0.8537252627
0.856914481
0.8599734427
0.8627241991
0.8654265482
0.8713039651
0.8777251671
0.8830743681
0.8854966542
0.8870314359
0.8897249791
0.8928271766
0.8945861976
0.8934775508
0.89429951
0.8964537432
0.9038008179
0.9305019616
1.007647927
1.142737869
1.254928995
1.268918492
1.268188168
1.284421685
1.282918826
1.282744196
1.284901591
1.290627328
1.292991248
1.292198282
0.7680002794
0.8373598533
0.8579248525
0.8391733974
0.8384310043
0.8459915047
0.8522672549
0.8550924613
0.8579770894
0.8613703286
0.8643071966
0.8710548155
0.8775675347
0.882776391
0.8850742466
0.8868719222
0.8898499455
0.8931814244
0.8943814346
0.893234948
0.8942239591
0.89701551
0.906576445
0.9418440476
1.033919256
1.1642172
1.265714951
1.272790432
1.270340824
1.284795852
1.282961374
1.282759273
1.285495477
1.290809335
1.292356357
1.291514355
0.7790892785
0.8383508291
0.8469031451
0.8353376029
0.8374892016
0.8457684284
0.8511549161
0.8542038129
0.8562888285
0.8597443404
0.8632742402
0.8710363441
0.8774819974
0.8825533463
0.8847226272
0.8867645457
0.8900115504
0.8933446909
0.8940864064
0.8930059275
0.894244948
0.8979224064
0.9111469667
0.9555450763
1.062146836
1.183576299
1.275542864
1.27364746
1.272692901
1.285379344
1.283214203
1.283268042
1.286505911
1.29144364
1.292360234
1.290856617
0.7896401963
0.83823998
0.835180707
0.8311182496
0.8367624956
0.8452777846
0.8501785852
0.8534311586
0.8550929783
0.8580574697
0.8624974498
0.87110992
0.8774023225
0.8822817866
0.8843580543
0.886681947
0.8901438237
0.8933388749
0.8937613052
0.8927594825
0.894319519
0.8991378751
0.9173788911
0.9751633156
1.089583178
1.214075857
1.281326859
1.27451257
1.275093441
1.28595937
1.283716641
1.283879748
1.287712561
1.292091457
1.293112707
1.291426882
0.7978688716
0.8363196414
0.8269555373
0.8263844089
0.8363442423
0.844411954
0.8482797533
0.8514447194
0.8535573085
0.8566290354
0.8619187987
0.8712616353
0.8775045875
0.8819464072
0.8839180411
0.8865405935
0.8903292189
0.8932877253
0.8933850007
0.8925028511
0.894556307
0.9009602993
0.9244599191
0.9966951145
1.127132434
1.241193447
1.283940857
1.27533693
1.276587371
1.286574203
1.284320809
1.284579607
1.288690174
1.292735171
1.293509703
1.291995749
0.8043721559
0.8321740649
0.8211260327
0.8226148963
0.8370696186
0.844058894
0.8469093826
0.8486888807
0.850349126
0.8554922896
0.8614989544
0.871463751
0.8772466774
0.8815924777
0.8835795525
0.8864707912
0.8904398615
0.8931749483
0.8930190145
0.8922668383
0.894899593
0.9036995511
0.9350253359
1.021610193
1.161860997
1.252114644
1.283739626
1.276178155
1.27729618
1.286962643
1.285204293
1.285520785
1.289193565
1.292821805
1.2933764
1.292104767
0.8087989736
0.8277826014
0.8154404194
0.8192698907
0.8371444556
0.8438165268
0.8464605886
0.8475308659
0.8471863982
0.854568116
0.8610905144
0.8716651069
0.8770930539
0.8811730322
0.8831721683
0.8864562079
0.8905926824
0.8929698819
0.8925594551
0.8921538026
0.8955046213
0.9074982674
0.9503248339
1.05165421
1.177805436
1.253001043
1.283576945
1.27711718
1.277574311
1.287397464
1.285746004
1.2858088
1.289498869
1.292435922
1.29270034
0.8116388228
0.8229057346
0.8104131759
0.8171382359
0.8374507635
0.8429880736
0.8458435287
0.8470647449
0.8462677335
0.8539157463
0.8612718443
0.8717738178
0.8769828202
0.880747214
0.8828933924
0.8864698053
0.8907177791
0.8926726436
0.892143484
0.8921398369
0.8966288432
0.9132070089
0.9650880849
1.076003239
1.188846755
1.259067595
1.284713548
1.277919612
1.278125602
1.287732832
1.286231831
1.286116609
1.289388593
1.292200667
1.292136691
0.813235058
0.8181599305
0.8062083934
0.8162110161
0.836262165
0.8412263028
0.8442246233
0.8457552035
0.8459127664
0.853963718
0.8614838106
0.8716914273
0.8768821581
0.8803695797
0.8827140768
0.8865417642
0.8907347295
0.8923091737
0.8917555537
0.8922923073
0.8984367248
0.9201263874
0.9830094839
1.097356632
1.210849854
1.270390608
1.285663957
1.278820831
1.279041078
1.288226373
1.286721853
1.286383646
1.289762472
1.291483368
1.290832779
0.8139682161
0.8133676484
0.8028796613
0.8150113125
0.8353310196
0.8398595081
0.8424090033
0.8429326248
0.8461374806
0.8541499715
0.8618253376
0.871519109
0.8767247493
0.8799495158
0.8824972937
0.8866607583
0.8907222112
0.8919243032
0.8914617781
0.8926071741
0.9008600976
0.9280823918
1.00733656
1.135553138
1.241749058
1.278915887
1.286200382
1.279520698
1.280085528
1.288814495
1.287267405
1.287049289
1.290487706
1.291563011
1.290646712
0.8143107493
0.8084322719
0.7999751863
0.8137016906
0.8342980485
0.8390025283
0.8412078883
0.840960565
0.846929317
0.8544729839
0.8622283661
0.8712621523
0.8764640063
0.8795020317
0.8822852474
0.8867074853
0.8905805584
0.891547275
0.8912041109
0.893156201
0.9043328399
0.9410870333
1.037353801
1.179984891
1.260541114
1.280851722
1.286223168
1.279700709
1.281224522
1.289261498
1.287703773
1.287801131
1.291266519
1.291976557
1.2909646
0.8142419785
0.8037868458
0.7970966149
0.8124754346
0.8328135717
0.8378979695
0.8398329538
0.8398739624
0.8471032205
0.8544783932
0.8625292737
0.8708588439
0.876082249
0.8790532552
0.8821974921
0.8868228195
0.8904470301
0.8911455646
0.8910216448
0.894096333
0.909175546
0.9585354599
1.070870848
1.203435241
1.265327348
1.281168827
1.284996957
1.279312222
1.281829793
1.289474235
1.287942808
1.288166623
1.29183053
1.292535595
1.291572753
0.8127479602
0.7996049543
0.7943355683
0.8109619452
0.8308360632
0.8364207287
0.8383251781
0.8387921218
0.846687371
0.8543431345
0.8625828113
0.8704033588
0.8755848889
0.8786329548
0.88221997
0.8870801949
0.8902483451
0.890682386
0.8909926615
0.8956002528
0.9158544781
0.9750578552
1.09708832
1.205818624
1.262552148
1.280362602
1.283353018
1.278982229
1.282270942
1.289512697
1.287869851
1.287704006
1.291577467
1.292625674
1.29184451
0.8108830152
0.7958634078
0.7916853125
0.8090633448
0.828862193
0.8353701956
0.8374492704
0.8380568795
0.8462688739
0.8540477313
0.8624930551
0.8699453345
0.8750578786
0.8783086918
0.8823544436
0.8872651866
0.889911823
0.8901843055
0.8912126875
0.8976758793
0.9239837335
0.9967826113
1.113259525
1.216145148
1.265697686
1.280992125
1.282716455
1.279591226
1.282816751
1.28952551
1.287701868
1.286883739
1.290258604
1.291515343
1.291274242
0.808352019
0.7926366984
0.7899429007
0.8076908462
0.8270287598
0.8343791823
0.8366831176
0.8378145041
0.8460333936
0.8536940123
0.8623409565
0.8695594267
0.8745697066
0.8780914655
0.8826116896
0.887351423
0.8893671141
0.8896264001
0.8915323861
0.9007587035
0.9343548505
1.020076988
1.13910124
1.237805555
1.273672953
1.282856885
1.282556091
1.280673888
1.283860204
1.289661083
1.287629298
1.286723575
1.289452782
1.290016993
0.8054982616
0.7900751187
0.7885400966
0.8069365178
0.8251626248
0.8330507422
0.8355231986
0.8370351258
0.8457254695
0.8532276684
0.8621977822
0.8692123323
0.8741204239
0.877892247
0.8828590655
0.8872918146
0.8887695163
0.889106553
0.8922146531
0.9048620883
0.9488624364
1.044902488
1.179496088
1.256591255
1.278251114
1.283899384
1.282631366
1.281521921
1.284818471
1.289986119
1.287874374
1.287229435
1.2896305
1.289422329
0.80227015
0.7875901442
0.7868156454
0.8058363779
0.8234543429
0.8316999219
0.834301004
0.8359558515
0.8449613132
0.8524704354
0.8620722459
0.8688489047
0.8737281771
0.8777304379
0.8830479885
0.8871284907
0.8883441724
0.888979932
0.8933818713
0.9103630277
0.9642877275
1.082327343
1.20926091
1.264974425
1.279358402
1.283502919
1.282613868
1.28185344
1.285693108
1.290286293
1.288166042
1.288157155
1.289740589
1.289079749
0.7987462791
0.7847750891
0.7844977986
0.8040864774
0.8218194276
0.8302601081
0.832770305
0.8357151792
0.8451801319
0.8526840541
0.8619129045
0.868494324
0.8733491102
0.8777485828
0.8832548057
0.8868998516
0.887979289
0.8889544785
0.8951682312
0.9180328643
0.9851176578
1.115731618
1.221936522
1.267396682
1.279633889
1.28255397
1.281751181
1.281609361
1.285988328
1.29032459
1.288251127
1.288434889
1.289905063
1.289293954
0.7949156488
0.7816114121
0.781878175
0.8021245839
0.8197507918
0.8285082633
0.8313081376
0.8358200162
0.8450902761
0.8524606948
0.8616603836
0.8681328935
0.873019977
0.8778520355
0.8834220661
0.8866745699
0.8876020586
0.8894169222
0.8977421267
0.9278998678
1.012524461
1.135116463
1.233597583
1.271322846
1.278148834
1.281554348
1.280835861
1.28100964
1.285883883
1.289938092
1.287845152
1.288274817
1.289807259
1.289452408
0.7910986768
0.778739449
0.7800926793
0.8003243718
0.8171404089
0.8265532769
0.8307494462
0.8361237992
0.8451156408
0.8521283259
0.86129287
0.8677116823
0.8727693527
0.8779574452
0.8835274055
0.8861957123
0.8871046789
0.8899218429
0.9015948532
0.941261198
1.035282877
1.158968293
1.248802777
1.275174411
1.278068268
)
;

boundaryField
{
    inlet
    {
        type            calculated;
        value           nonuniform 0();
    }
    outlet
    {
        type            calculated;
        value           nonuniform 0();
    }
    bottom
    {
        type            calculated;
        value           nonuniform 0();
    }
    top
    {
        type            calculated;
        value           nonuniform 0();
    }
    obstacle
    {
        type            calculated;
        value           nonuniform List<scalar> 
23
(
0.7262962832
0.7311136169
0.7436589765
0.755512225
0.7680002794
0.7790892785
0.7896401963
0.7978688716
0.8043721559
0.8087989736
0.8116388228
0.813235058
0.8139682161
0.8143107493
0.8142419785
0.8127479602
0.8108830152
0.808352019
0.8054982616
0.80227015
0.7987462791
0.7949156488
0.7910986768
)
;
    }
    defaultFaces
    {
        type            empty;
    }
    procBoundary9to3
    {
        type            processor;
        value           nonuniform List<scalar> 
38
(
1.981081326
1.893097706
1.820716606
1.765280379
1.709775654
1.648940725
1.59538602
1.555288515
1.514906352
1.4712177
1.431082869
1.400877602
1.369856041
1.339479865
1.305052743
1.281523279
1.259343116
3.848044173
3.926234037
3.92106501
3.901503952
3.852839841
3.792857694
3.722366637
3.619963201
3.489591622
3.33208715
3.150706065
2.994516274
2.849814193
2.688282717
2.541068382
2.426701748
2.317848517
2.196601999
2.094632943
2.017078183
2.017078183
)
;
    }
    procBoundary9to4
    {
        type            processor;
        value           nonuniform List<scalar> 9(1.213487982 1.191842905 1.170996436 1.149132002 1.128123587 1.105484902 1.084690643 1.064700614 1.046564138);
    }
    procBoundary9to8
    {
        type            processor;
        value           nonuniform List<scalar> 
12
(
3.835998584
3.881048651
3.855361583
3.823418286
3.835748517
3.856593769
3.851244936
3.836880524
3.838208518
3.847825327