/*--------------------------------*- C++ -*----------------------------------*\
  =========                 |
  \\      /  F ield         | OpenFOAM: The Open Source CFD Toolbox
   \\    /   O peration     | Website:  https://openfoam.org
    \\  /    A nd           | Version:  7
     \\/     M anipulation  |
\*---------------------------------------------------------------------------*/
FoamFile
{
    version     2.0;
    format      ascii;
    class       volVectorField;
    location    "3.1";
    object      U;
}
// * * * * * * * * * * * * * * * * * * * * * * * * * * * * * * * * * * * * * //

dimensions      [0 1 -1 0 0 0 0];

internalField   nonuniform List<vector> 
2222
(
(2.438982468 0.5895585465 0)
(2.445664994 0.5826624913 0)
(2.45410125 0.5754893848 0)
(2.463803347 0.5702886872 0)
(2.474202652 0.5642253286 0)
(2.484232875 0.5557177863 0)
(2.494171404 0.5460337187 0)
(2.506201473 0.5356192976 0)
(2.513940203 0.5236153448 0)
(2.519519952 0.5142805756 0)
(2.5240035 0.5076752349 0)
(2.529458807 0.5024420721 0)
(2.535015064 0.4938521368 0)
(2.53736818 0.4852827139 0)
(2.540778365 0.4813294367 0)
(2.545740847 0.4785512802 0)
(2.550819485 0.4736013421 0)
(2.711666781 0.01860888665 0)
(2.712339158 0.01412972559 0)
(2.705516351 0.01900910004 0)
(2.699063207 0.02374476802 0)
(2.48683205 0.3100433779 0)
(2.117941981 0.6547661262 0)
(2.142649234 0.6729438972 0)
(2.187022464 0.6821719556 0)
(2.22121375 0.6807685259 0)
(2.243961881 0.6673642323 0)
(2.25597539 0.654523215 0)
(2.268448806 0.6437226924 0)
(2.286507209 0.6367829078 0)
(2.312024531 0.6414007946 0)
(2.339096281 0.6465712639 0)
(2.365529679 0.6462811518 0)
(2.388640036 0.6393482318 0)
(2.405257723 0.6261010008 0)
(2.413942414 0.6205852316 0)
(2.418055387 0.6132387529 0)
(2.425153245 0.6011297737 0)
(2.430228005 0.593094473 0)
(2.434793032 0.587124479 0)
(2.441892993 0.5790624361 0)
(2.450937835 0.5741323814 0)
(2.460366562 0.5698756858 0)
(2.471377404 0.5639888517 0)
(2.481665159 0.5547735852 0)
(2.491749314 0.5442999653 0)
(2.504005525 0.5342178701 0)
(2.511603483 0.5226291235 0)
(2.517085691 0.5136364378 0)
(2.52216524 0.5068098805 0)
(2.52813995 0.5014892421 0)
(2.534096702 0.4935167279 0)
(2.536838045 0.4853623548 0)
(2.539936434 0.4821370329 0)
(2.545444237 0.4791808827 0)
(2.550582033 0.4739899632 0)
(2.714360435 0.01546749247 0)
(2.705949237 0.01798390019 0)
(2.699425004 0.02276015919 0)
(2.547701011 0.2486656623 0)
(2.108699231 0.6444610081 0)
(2.121358943 0.6637369891 0)
(2.174281286 0.6740598372 0)
(2.210760383 0.6674639161 0)
(2.237256746 0.6605264031 0)
(2.254037642 0.6527428019 0)
(2.267653868 0.6467435056 0)
(2.284394046 0.6410055127 0)
(2.308079936 0.6419273851 0)
(2.334553427 0.642556285 0)
(2.360523457 0.6381344447 0)
(2.382823229 0.6317271285 0)
(2.401355862 0.6221531677 0)
(2.411903673 0.6206184074 0)
(2.416691721 0.6134000515 0)
(2.423408066 0.6009423774 0)
(2.428436417 0.5913170323 0)
(2.431517237 0.5837588804 0)
(2.438316607 0.5783434669 0)
(2.446657184 0.573855571 0)
(2.45724171 0.5691919442 0)
(2.468806594 0.5631523306 0)
(2.478820752 0.5533757936 0)
(2.488962299 0.5421385208 0)
(2.501251901 0.5329678277 0)
(2.508815103 0.5221508963 0)
(2.514122296 0.5134378151 0)
(2.520261162 0.5063775623 0)
(2.526130736 0.5012174603 0)
(2.532466211 0.4936272535 0)
(2.53610916 0.4862516788 0)
(2.53924743 0.4832688122 0)
(2.545009165 0.4794612522 0)
(2.550266324 0.4738376409 0)
(2.717782961 0.01690787211 0)
(2.70800713 0.01971861642 0)
(2.702244602 0.02247464553 0)
(2.625647954 0.1726701088 0)
(2.157951754 0.573511389 0)
(2.101698125 0.6500934432 0)
(2.159887482 0.6742904998 0)
(2.198798963 0.6638714287 0)
(2.228559643 0.6549887278 0)
(2.251426685 0.6507628544 0)
(2.267335332 0.648093099 0)
(2.28231241 0.6441421319 0)
(2.304156697 0.6421904358 0)
(2.328892072 0.6371999949 0)
(2.353857748 0.6326603877 0)
(2.376603546 0.6286008223 0)
(2.396152146 0.6224999654 0)
(2.408406135 0.6213464958 0)
(2.414787307 0.6137956748 0)
(2.421658189 0.6013128235 0)
(2.426490411 0.5891267169 0)
(2.428739506 0.5824803153 0)
(2.434792154 0.5788932041 0)
(2.443803547 0.5741336187 0)
(2.455380758 0.5688803527 0)
(2.466520343 0.5619730927 0)
(2.475980175 0.551048783 0)
(2.48595882 0.5392895075 0)
(2.49790154 0.531806666 0)
(2.505260291 0.5223558174 0)
(2.51063528 0.5140910989 0)
(2.517804131 0.5068061196 0)
(2.523842361 0.5015003637 0)
(2.530849086 0.4944605714 0)
(2.535048299 0.4882818963 0)
(2.538451671 0.4843576491 0)
(2.54430461 0.4794827671 0)
(2.549873314 0.4734462696 0)
(2.722687308 0.01762531952 0)
(2.71176869 0.01931109089 0)
(2.705312036 0.0230028547 0)
(2.669738834 0.1266245488 0)
(2.188575713 0.5344571298 0)
(2.076834501 0.6498007332 0)
(2.145275956 0.6835594115 0)
(2.186441444 0.6686033715 0)
(2.219222502 0.6540948348 0)
(2.247456358 0.653127914 0)
(2.266368504 0.6472524607 0)
(2.280113761 0.6447768913 0)
(2.299675398 0.6386517377 0)
(2.323842779 0.6330306972 0)
(2.348324437 0.6312130436 0)
(2.371431127 0.6281681257 0)
(2.389618602 0.6232152882 0)
(2.403411006 0.6223001045 0)
(2.412260373 0.6148443105 0)
(2.419689462 0.6016336675 0)
(2.424575228 0.5884978991 0)
(2.426085888 0.5826549872 0)
(2.432721633 0.5800039679 0)
(2.44249795 0.5745925527 0)
(2.454218045 0.5679489176 0)
(2.464533699 0.5601396753 0)
(2.472799772 0.5473438593 0)
(2.483043174 0.5370994116 0)
(2.494132464 0.5317369065 0)
(2.501581856 0.5236547261 0)
(2.507113996 0.5155985481 0)
(2.515325229 0.5078428812 0)
(2.521778773 0.5025188428 0)
(2.5294972 0.4969871484 0)
(2.53374077 0.4906382253 0)
(2.537555812 0.4845115226 0)
(2.543458617 0.4790030428 0)
(2.549574409 0.4734305687 0)
(2.732248734 0.02125734634 0)
(2.719496968 0.0233531809 0)
(2.711408548 0.02524872006 0)
(2.695737457 0.09004016148 0)
(2.231012701 0.4803938425 0)
(2.065215041 0.6214049305 0)
(2.128151633 0.6854086326 0)
(2.172914334 0.6728523603 0)
(2.210085548 0.6557899595 0)
(2.244690098 0.6552243591 0)
(2.266199724 0.6459888634 0)
(2.279247116 0.6428480702 0)
(2.296715923 0.6341101599 0)
(2.31931015 0.6324651632 0)
(2.341416571 0.6317308623 0)
(2.363519156 0.6293128267 0)
(2.381334417 0.6244523399 0)
(2.396790008 0.6223491181 0)
(2.409117894 0.6150336384 0)
(2.417681194 0.6020303365 0)
(2.423219645 0.5883617058 0)
(2.424738427 0.5836974701 0)
(2.432020838 0.581182475 0)
(2.441787565 0.5744437525 0)
(2.453250271 0.5664617764 0)
(2.462105228 0.5569633564 0)
(2.470078779 0.5435678837 0)
(2.479379349 0.5363325791 0)
(2.490148663 0.5323272709 0)
(2.498093113 0.5257919468 0)
(2.503760981 0.5185807315 0)
(2.512469213 0.5113716293 0)
(2.520005583 0.5062925795 0)
(2.528205223 0.501004792 0)
(2.532600605 0.4914676433 0)
(2.536121146 0.4840313492 0)
(2.542551823 0.478632565 0)
(2.549365323 0.4736703728 0)
(2.754146456 0.02471865377 0)
(2.733351693 0.02743030015 0)
(2.721938241 0.02892421514 0)
(2.71284551 0.06955610856 0)
(2.271645567 0.4530572828 0)
(2.044719942 0.6086449134 0)
(2.108142804 0.6862537962 0)
(2.156482875 0.6740772125 0)
(2.199393861 0.6594918006 0)
(2.238765355 0.6590206578 0)
(2.265297451 0.6471572087 0)
(2.278617048 0.6386146915 0)
(2.294868477 0.6326501098 0)
(2.314171742 0.6330279028 0)
(2.335026129 0.6332718622 0)
(2.35476314 0.6310001233 0)
(2.372761814 0.6241186676 0)
(2.388873323 0.6198992 0)
(2.405622602 0.6128505083 0)
(2.415987301 0.6016067684 0)
(2.422513263 0.5892266653 0)
(2.424259803 0.5851290141 0)
(2.43178066 0.5820185676 0)
(2.441423372 0.5743862459 0)
(2.451859689 0.5643249432 0)
(2.460111399 0.5517174177 0)
(2.467231675 0.5420720361 0)
(2.475968888 0.536328086 0)
(2.486415313 0.5349393834 0)
(2.494705103 0.5311152383 0)
(2.500898035 0.5253882873 0)
(2.50972667 0.518099059 0)
(2.518195861 0.5126798804 0)
(2.526716064 0.5034579234 0)
(2.530556005 0.4916270331 0)
(2.534745209 0.4829253825 0)
(2.54163248 0.4787430086 0)
(2.549090497 0.4740152512 0)
(2.788626249 0.02410669796 0)
(2.759470669 0.03069383252 0)
(2.73440179 0.03322052899 0)
(2.729291342 0.05861765277 0)
(2.406811788 0.3890612219 0)
(2.045673522 0.5938681072 0)
(2.08958182 0.6776469954 0)
(2.140048812 0.668923193 0)
(2.184907532 0.6603322295 0)
(2.229559082 0.6586210864 0)
(2.262721645 0.6475981696 0)
(2.278517413 0.6359928596 0)
(2.292734619 0.6331696103 0)
(2.309847662 0.6339659447 0)
(2.329514889 0.6350881644 0)
(2.346896237 0.6307347086 0)
(2.363784127 0.6208490971 0)
(2.380854992 0.614236212 0)
(2.401367339 0.6097467542 0)
(2.414426564 0.6010257941 0)
(2.422433407 0.5902472663 0)
(2.424018168 0.5858807236 0)
(2.431215656 0.5824525515 0)
(2.440728902 0.5734569073 0)
(2.450836739 0.5592200486 0)
(2.458243447 0.5492175472 0)
(2.463991313 0.5420622841 0)
(2.473107793 0.5383789625 0)
(2.482776729 0.5397731798 0)
(2.491103518 0.5366641576 0)
(2.497814576 0.5310866577 0)
(2.506521267 0.5239599466 0)
(2.515819627 0.5159731193 0)
(2.524508608 0.5039611799 0)
(2.528326749 0.490777342 0)
(2.533496072 0.482073645 0)
(2.540391278 0.4791749125 0)
(2.548616423 0.4747764009 0)
(2.829639396 0.01918042928 0)
(2.797997713 0.02617770316 0)
(2.756156812 0.03280522019 0)
(2.74635534 0.04736897263 0)
(2.494985956 0.3377234352 0)
(2.065950632 0.5841505309 0)
(2.064670192 0.675256577 0)
(2.11819336 0.6621729965 0)
(2.167726455 0.6540678901 0)
(2.217565695 0.6497145627 0)
(2.257146446 0.6446557773 0)
(2.278430881 0.6378481193 0)
(2.290689494 0.6356628631 0)
(2.306639232 0.635634027 0)
(2.324641137 0.6346612427 0)
(2.339082989 0.6274503016 0)
(2.354761413 0.6148270125 0)
(2.37315194 0.6097906475 0)
(2.396911026 0.6081372348 0)
(2.412713968 0.6009989161 0)
(2.422564064 0.5907909379 0)
(2.424573084 0.5858293753 0)
(2.431102671 0.5811858511 0)
(2.440544287 0.5691770896 0)
(2.450094199 0.555397513 0)
(2.456463973 0.5494266419 0)
(2.461724948 0.5433532798 0)
(2.470291821 0.5415258008 0)
(2.479432496 0.5407674471 0)
(2.488339926 0.5373481512 0)
(2.495181732 0.5318427009 0)
(2.503560778 0.525550118 0)
(2.513430346 0.5164967423 0)
(2.521447519 0.5039992263 0)
(2.526388149 0.4895572966 0)
(2.532129214 0.482099659 0)
(2.539077431 0.4799257091 0)
(2.548309476 0.4757275735 0)
(2.870305321 0.02548607581 0)
(2.837353691 0.02843165035 0)
(2.790398209 0.02901054677 0)
(2.766177341 0.04822693944 0)
(2.640530653 0.2794533329 0)
(2.163304817 0.5669058616 0)
(2.055673321 0.6563633716 0)
(2.094279603 0.6464147698 0)
(2.14703536 0.6393676483 0)
(2.200585809 0.6389403581 0)
(2.247804374 0.6430892719 0)
(2.276409563 0.6412023552 0)
(2.28933475 0.6392682881 0)
(2.303755911 0.6357402177 0)
(2.318693272 0.6322972032 0)
(2.331933394 0.6199525158 0)
(2.344937234 0.6115573969 0)
(2.366392329 0.6093415808 0)
(2.391800301 0.6080736319 0)
(2.410213513 0.6009530604 0)
(2.422299731 0.5910112071 0)
(2.425304459 0.5848715232 0)
(2.431460596 0.5778012052 0)
(2.440670613 0.5652986706 0)
(2.449364399 0.5552672655 0)
(2.455104324 0.550321841 0)
(2.460155517 0.5447700317 0)
(2.467727665 0.54217338 0)
(2.475367615 0.5404706238 0)
(2.484350416 0.5377274761 0)
(2.492127095 0.5325438046 0)
(2.500929477 0.5262687984 0)
(2.510788907 0.516970188 0)
(2.518478468 0.5036997614 0)
(2.524673073 0.4890603314 0)
(2.53053578 0.482721669 0)
(2.537572025 0.4808629798 0)
(2.547936162 0.4768274383 0)
(2.904397641 0.02690870928 0)
(2.873021608 0.03264243723 0)
(2.829689205 0.0362966409 0)
(2.802177582 0.04126841041 0)
(2.755422913 0.2096608431 0)
(2.249758814 0.5479226469 0)
(2.050871748 0.6535688339 0)
(2.068360091 0.6345746904 0)
(2.122667576 0.6269522141 0)
(2.180143817 0.6331489366 0)
(2.23567112 0.6418942199 0)
(2.271837412 0.6439050202 0)
(2.288235381 0.6402813447 0)
(2.300935718 0.6343489031 0)
(2.313111093 0.6256931155 0)
(2.324939581 0.6159472724 0)
(2.33714431 0.6122738644 0)
(2.358215444 0.6111783721 0)
(2.384424661 0.608273937 0)
(2.406159974 0.6004262832 0)
(2.42069642 0.590726756 0)
(2.425934248 0.5830237146 0)
(2.431989655 0.5755347638 0)
(2.440854397 0.5650841745 0)
(2.448679738 0.5555926685 0)
(2.453580855 0.5507145383 0)
(2.458321829 0.5454751184 0)
(2.46393497 0.5418796237 0)
(2.471245367 0.5406336601 0)
(2.480703603 0.5386410937 0)
(2.48918139 0.5336048043 0)
(2.498142843 0.5272870919 0)
(2.507970724 0.5175691652 0)
(2.515605151 0.5033277788 0)
(2.523029761 0.4892266508 0)
(2.528534797 0.4838759874 0)
(2.536404742 0.4820039593 0)
(2.547686846 0.4779305732 0)
(2.925257624 0.02899881373 0)
(2.900115826 0.03212154788 0)
(2.865346834 0.03239313355 0)
(2.845761732 0.04318658761 0)
(2.822553255 0.1555262494 0)
(2.380854562 0.5106745321 0)
(2.07807049 0.638786618 0)
(2.050090764 0.6256204493 0)
(2.098677142 0.6230715515 0)
(2.15772821 0.6333145374 0)
(2.219835267 0.642656877 0)
(2.264154188 0.6455212092 0)
(2.285512153 0.6397544394 0)
(2.297212426 0.6304163195 0)
(2.307997824 0.6192246322 0)
(2.319155061 0.6165387533 0)
(2.330562636 0.6149035564 0)
(2.349433507 0.6143237216 0)
(2.374710848 0.6087018953 0)
(2.399959655 0.5995258591 0)
(2.417415643 0.5905550311 0)
(2.426256667 0.5824092382 0)
(2.4326035 0.5751342439 0)
(2.441120583 0.5652557003 0)
(2.447946272 0.5556453183 0)
(2.451477057 0.5507589346 0)
(2.455301205 0.5456228697 0)
(2.459261265 0.5413025398 0)
(2.46777801 0.5416482422 0)
(2.477461118 0.5400022748 0)
(2.486486515 0.5350491039 0)
(2.495525545 0.528790795 0)
(2.505103382 0.5181251285 0)
(2.512871481 0.5029281913 0)
(2.521194194 0.4899013205 0)
(2.526355151 0.4856523843 0)
(2.535432626 0.4835481794 0)
(2.547466257 0.4790946168 0)
(2.930448525 0.03036471222 0)
(2.914116551 0.03515253167 0)
(2.891385608 0.03590014083 0)
(2.88380226 0.03576508363 0)
(2.881342408 0.1037941966 0)
(2.524282014 0.4503655898 0)
(2.127133084 0.6307846808 0)
(2.047398216 0.6350213385 0)
(2.07807377 0.6298168583 0)
(2.132923842 0.6354967491 0)
(2.199485724 0.6423530134 0)
(2.252707516 0.644142477 0)
(2.280495293 0.6358724725 0)
(2.294952986 0.6217329996 0)
(2.303881424 0.6175968138 0)
(2.313241903 0.6186359219 0)
(2.323724104 0.6191514014 0)
(2.340459893 0.6164340921 0)
(2.36410124 0.6082375866 0)
(2.391964581 0.5989526543 0)
(2.412873499 0.5914085141 0)
(2.425730875 0.5832079146 0)
(2.433438009 0.5749975003 0)
(2.441443457 0.5651924886 0)
(2.44718176 0.5554070261 0)
(2.449774505 0.5497782137 0)
(2.452710541 0.5450908178 0)
(2.455671853 0.5415366595 0)
(2.464676561 0.5430935706 0)
(2.474565371 0.5417059118 0)
(2.484086576 0.5369303698 0)
(2.492960825 0.5307585416 0)
(2.501874387 0.5182435523 0)
(2.51032844 0.5026922908 0)
(2.519064281 0.4913108388 0)
(2.524417025 0.4881942239 0)
(2.534833163 0.4856589944 0)
(2.547118036 0.4800567843 0)
(2.922134143 0.03139804024 0)
(2.914670302 0.0337039417 0)
(2.9046104 0.03247769297 0)
(2.907885202 0.03367812668 0)
(2.899878542 0.07450127049 0)
(2.697350948 0.3963043497 0)
(2.192974364 0.6283613499 0)
(2.058556045 0.6453726164 0)
(2.063364181 0.6418112346 0)
(2.106886117 0.6383311258 0)
(2.174897402 0.6404902492 0)
(2.236186819 0.6394487006 0)
(2.272144049 0.6272681347 0)
(2.292380045 0.6164451649 0)
(2.299674144 0.6185480416 0)
(2.307358584 0.6217982389 0)
(2.316712458 0.6218726511 0)
(2.331283264 0.6154457503 0)
(2.354328627 0.6047257214 0)
(2.383414696 0.5966787291 0)
(2.40730769 0.5914688541 0)
(2.424056349 0.583916735 0)
(2.434050618 0.5748738583 0)
(2.441719185 0.5647447269 0)
(2.446637283 0.5544627246 0)
(2.448833064 0.5484299395 0)
(2.450730407 0.545702223 0)
(2.453077572 0.5426556079 0)
(2.461669669 0.5448601504 0)
(2.472066598 0.5438511903 0)
(2.481661402 0.5394336126 0)
(2.490454333 0.5319310305 0)
(2.498213698 0.517431632 0)
(2.507999823 0.5027683632 0)
(2.517057472 0.4942032179 0)
(2.523381549 0.4917975559 0)
(2.534018973 0.4880108649 0)
(2.546662664 0.4803468337 0)
(2.904738782 0.03377701584 0)
(2.904209047 0.03382381212 0)
(2.914739198 0.03377642062 0)
(2.903844014 0.0561348937 0)
(2.857436162 0.3352192795 0)
(2.299796697 0.6405287564 0)
(2.083342842 0.655049629 0)
(2.061353238 0.6464541366 0)
(2.083716992 0.6352530854 0)
(2.148289132 0.6337347249 0)
(2.215820974 0.6299086857 0)
(2.260710581 0.6202753504 0)
(2.287783 0.6167058827 0)
(2.294854476 0.6211995547 0)
(2.301439429 0.6239535005 0)
(2.309924382 0.620910217 0)
(2.323514985 0.6095984594 0)
(2.346046713 0.5989779346 0)
(2.375194689 0.5933061233 0)
(2.401136755 0.5903601078 0)
(2.421351896 0.5847833129 0)
(2.433735007 0.5748271083 0)
(2.441893059 0.5634404038 0)
(2.446218252 0.5532899996 0)
(2.447850208 0.5484960632 0)
(2.449090601 0.5473404092 0)
(2.451006249 0.5445517062 0)
(2.458931426 0.5473212238 0)
(2.469407473 0.5466993916 0)
(2.479079626 0.5415322401 0)
(2.487654192 0.5319006359 0)
(2.494678501 0.5154118145 0)
(2.505863634 0.5034830352 0)
(2.515437283 0.4994183041 0)
(2.522600591 0.4966782012 0)
(2.532736469 0.489835294 0)
(2.545628876 0.4805817199 0)
(2.88818672 0.03272892488 0)
(2.892850786 0.03266673071 0)
(2.90598199 0.03283420147 0)
(2.899920892 0.05060292671 0)
(2.950607756 0.2502460607 0)
(2.431419016 0.6492297908 0)
(2.125823697 0.6518268984 0)
(2.07179475 0.6362225375 0)
(2.072537941 0.6193226789 0)
(2.12318339 0.620843576 0)
(2.192563227 0.621930864 0)
(2.246112348 0.6195989527 0)
(2.280610535 0.618487198 0)
(2.290006083 0.622529347 0)
(2.296277489 0.6233704498 0)
(2.303023005 0.6158880424 0)
(2.316712131 0.6046313807 0)
(2.339447028 0.5974392646 0)
(2.369115918 0.5941196245 0)
(2.39588891 0.5927020119 0)
(2.418080258 0.5863109243 0)
(2.432314377 0.5741305121 0)
(2.441758182 0.5610682148 0)
(2.445702832 0.5527657126 0)
(2.446536987 0.5495854868 0)
(2.447761536 0.5496152846 0)
(2.449456587 0.548156676 0)
(2.456377168 0.5509952868 0)
(2.466483819 0.548858906 0)
(2.476708026 0.5420131394 0)
(2.484436107 0.5301101918 0)
(2.491509984 0.5133345432 0)
(2.503987013 0.5065674032 0)
(2.513826255 0.5032537812 0)
(2.521389917 0.4985365257 0)
(2.531100426 0.491326941 0)
(2.544146259 0.4810985045 0)
(2.868974068 0.02905823289 0)
(2.875537994 0.03164886583 0)
(2.887324941 0.03313080483 0)
(2.885967446 0.04590457447 0)
(2.958118722 0.1833408849 0)
(2.542770317 0.6069796562 0)
(2.187292471 0.6371381372 0)
(2.087920182 0.626362804 0)
(2.073300776 0.6122726687 0)
(2.104941034 0.6086562568 0)
(2.168238979 0.615992803 0)
(2.227444818 0.6196360128 0)
(2.268708433 0.6195497709 0)
(2.284003459 0.6219400194 0)
(2.290767975 0.6202770501 0)
(2.297829786 0.6111988003 0)
(2.311106313 0.604586263 0)
(2.335166693 0.599094248 0)
(2.365287561 0.5964216909 0)
(2.392977321 0.5958121206 0)
(2.414159383 0.5871570388 0)
(2.430390886 0.5709972545 0)
(2.440651411 0.5588428803 0)
(2.444819134 0.5534451835 0)
(2.445231794 0.5514996756 0)
(2.446259168 0.5534291667 0)
(2.448150549 0.554698469 0)
(2.453791297 0.5534476048 0)
(2.464157052 0.5492700691 0)
(2.473692147 0.5410667829 0)
(2.481524758 0.525895713 0)
(2.489273945 0.5126239457 0)
(2.501885042 0.5084181347 0)
(2.512150441 0.5041045998 0)
(2.519857972 0.4995644444 0)
(2.529328814 0.4928692391 0)
(2.542430113 0.4814378404 0)
(2.850777237 0.02773147197 0)
(2.856868844 0.03283143418 0)
(2.865717016 0.03437575246 0)
(2.867602266 0.04069807008 0)
(2.902897651 0.1374668203 0)
(2.652771957 0.539467292 0)
(2.261972295 0.6280899379 0)
(2.10500895 0.62812775 0)
(2.082993831 0.6184628201 0)
(2.094422081 0.6128456509 0)
(2.144819917 0.6156491493 0)
(2.20439843 0.6193540461 0)
(2.251290778 0.6190622902 0)
(2.275657119 0.6187432815 0)
(2.285567839 0.6155812014 0)
(2.293509018 0.6108884064 0)
(2.306443414 0.6062089798 0)
(2.33056663 0.6015485992 0)
(2.361039029 0.5997242441 0)
(2.388955968 0.5980702228 0)
(2.410441638 0.5854718999 0)
(2.42780099 0.5657156219 0)
(2.438304885 0.5585322407 0)
(2.443724015 0.555671667 0)
(2.443833875 0.5551783525 0)
(2.444457837 0.5607176183 0)
(2.446810827 0.5585574854 0)
(2.451728773 0.5541087503 0)
(2.46127739 0.5484980233 0)
(2.470875367 0.5371109327 0)
(2.478882608 0.5220203859 0)
(2.487110737 0.5126817071 0)
(2.500020916 0.5085120534 0)
(2.509920029 0.5045770022 0)
(2.517984371 0.5000827181 0)
(2.527057752 0.4935666867 0)
(2.540476807 0.4813119049 0)
(2.835275825 0.02936083163 0)
(2.841150627 0.03618893415 0)
(2.848634928 0.03534758925 0)
(2.851836858 0.03729393019 0)
(2.852910536 0.09519665484 0)
(2.739202843 0.4641200316 0)
(2.334694988 0.6360616725 0)
(2.14383429 0.6351086215 0)
(2.09288674 0.6300590851 0)
(2.093752814 0.6237702111 0)
(2.125045808 0.6181384014 0)
(2.178950609 0.6157370542 0)
(2.231257349 0.6131629314 0)
(2.26453332 0.6138607823 0)
(2.279760182 0.6146077452 0)
(2.289319441 0.6121918434 0)
(2.302118292 0.6083168749 0)
(2.326583262 0.6047294979 0)
(2.357515636 0.6049777918 0)
(2.385011244 0.597699553 0)
(2.407347768 0.5799796948 0)
(2.423699258 0.563776868 0)
(2.436128559 0.5602040892 0)
(2.442574858 0.5593159338 0)
(2.441945353 0.5630730826 0)
(2.442674331 0.5649340728 0)
(2.444924368 0.560435486 0)
(2.449093596 0.5538975393 0)
(2.458737726 0.5448826381 0)
(2.468263416 0.5321413319 0)
(2.476884164 0.5207063707 0)
(2.485187872 0.5129884005 0)
(2.498027802 0.5083757277 0)
(2.507621446 0.504620587 0)
(2.515839614 0.5001145729 0)
(2.524677204 0.4936913398 0)
(2.538461066 0.4810916698 0)
(2.824606891 0.03211685737 0)
(2.831010136 0.03814758457 0)
(2.837569262 0.03563216044 0)
(2.839374373 0.03490989326 0)
(2.828518766 0.06989497844 0)
(2.78928559 0.3865982149 0)
(2.395604809 0.6501330951 0)
(2.209740546 0.6527842628 0)
(2.114598229 0.64475095 0)
(2.101261052 0.6275633051 0)
(2.11361663 0.6134502602 0)
(2.154489536 0.6068626229 0)
(2.208691342 0.6051382015 0)
(2.251205303 0.6103558795 0)
(2.273997647 0.6152482089 0)
(2.285835416 0.6139520666 0)
(2.299137709 0.6115533586 0)
(2.323142115 0.6111072957 0)
(2.354204539 0.6076605339 0)
(2.380754303 0.594491328 0)
(2.403640901 0.5753189156 0)
(2.41908666 0.5649582952 0)
(2.433346338 0.5630859233 0)
(2.439371785 0.566378757 0)
(2.439910715 0.5679724518 0)
(2.43993557 0.5663180565 0)
(2.44330516 0.5604999858 0)
(2.447007632 0.5511093957 0)
(2.4565638 0.5399379099 0)
(2.466312591 0.5301356425 0)
(2.474843814 0.5207008101 0)
(2.483887151 0.5127710833 0)
(2.496182183 0.5079527572 0)
(2.505270908 0.5043405596 0)
(2.513734875 0.500067175 0)
(2.523043126 0.4937991362 0)
(2.536600092 0.4809961434 0)
(2.812769933 0.03426263763 0)
(2.81962614 0.03788136095 0)
(2.825495043 0.03465494972 0)
(2.826658158 0.03174570845 0)
(2.81763549 0.05129465631 0)
(2.821334212 0.319429104 0)
(2.447192845 0.664723996 0)
(2.276297552 0.6862233283 0)
(2.144504939 0.6537317112 0)
(2.11061188 0.622277445 0)
(2.111734736 0.5998220405 0)
(2.136154369 0.5922335948 0)
(2.185803731 0.59672589 0)
(2.235799828 0.6086189378 0)
(2.267760452 0.6172580965 0)
(2.283069114 0.6178435839 0)
(2.297499908 0.6182794823 0)
(2.320581992 0.6176007544 0)
(2.350239959 0.6067999265 0)
(2.377019318 0.5884319225 0)
(2.399753237 0.5746656684 0)
(2.413859775 0.5668450887 0)
(2.426588848 0.5667019033 0)
(2.434983513 0.5704022037 0)
(2.436279406 0.5693834869 0)
(2.437217307 0.5657398743 0)
(2.441136168 0.5590521467 0)
(2.445594164 0.5477886834 0)
(2.454646597 0.5380345571 0)
(2.464535804 0.5298269919 0)
(2.473083385 0.5207323458 0)
(2.482917275 0.5120529261 0)
(2.4943215 0.5072101374 0)
(2.502993217 0.5041781111 0)
(2.511540718 0.5001864871 0)
(2.521134178 0.4938772698 0)
(2.534136039 0.4811815546 0)
(2.794229096 0.03698905608 0)
(2.803474289 0.03875082822 0)
(2.810107135 0.03423516879 0)
(2.812683351 0.02886289547 0)
(2.80765514 0.03931068841 0)
(2.820930925 0.260517745 0)
(2.497246644 0.63303749 0)
(2.335563995 0.7034844057 0)
(2.183398601 0.661056072 0)
(2.122490058 0.6164280029 0)
(2.116147953 0.5954151199 0)
(2.126095725 0.5841403434 0)
(2.165469834 0.5915876148 0)
(2.217896581 0.6074086579 0)
(2.258961379 0.6187681656 0)
(2.279999256 0.622839275 0)
(2.296786437 0.6228984458 0)
(2.318623349 0.617459378 0)
(2.346160184 0.602078052 0)
(2.37324021 0.5847464717 0)
(2.395006828 0.5752842766 0)
(2.407427859 0.5694679521 0)
(2.419119855 0.5697742064 0)
(2.428793878 0.5720409741 0)
(2.431890547 0.5689634168 0)
(2.434578982 0.5646033237 0)
(2.439024595 0.5586687172 0)
(2.444304668 0.5478865138 0)
(2.453007966 0.5381909766 0)
(2.462878145 0.5296320914 0)
(2.472013701 0.5200980359 0)
(2.481941014 0.5108419955 0)
(2.492424838 0.5065006308 0)
(2.500604095 0.5043484201 0)
(2.508883431 0.5003112281 0)
(2.518701766 0.49388458 0)
(2.531368752 0.4815845112 0)
(2.771443567 0.03676688956 0)
(2.783710441 0.03777071636 0)
(2.792789859 0.03292575118 0)
(2.797241689 0.02800522827 0)
(2.794595967 0.03375011108 0)
(2.785811989 0.2013989436 0)
(2.532877879 0.5756915905 0)
(2.374763511 0.684655311 0)
(2.231417846 0.6640048376 0)
(2.135465099 0.6190359833 0)
(2.122360574 0.5991090059 0)
(2.123009844 0.5908839968 0)
(2.149599303 0.5926994072 0)
(2.198728672 0.6054982502 0)
(2.248071732 0.6177819858 0)
(2.27711184 0.6236460742 0)
(2.296503993 0.6225228935 0)
(2.316290582 0.614077945 0)
(2.344364355 0.5968925729 0)
(2.369284579 0.5837664 0)
(2.388867335 0.576568864 0)
(2.401259036 0.5725818955 0)
(2.411806309 0.5729765372 0)
(2.42179949 0.5733957509 0)
(2.427056779 0.5692189689 0)
(2.43165476 0.5655765733 0)
(2.437630736 0.5603410077 0)
(2.443208888 0.5494197336 0)
(2.451304677 0.5385949925 0)
(2.461963332 0.5289621929 0)
(2.471028013 0.5188389729 0)
(2.481337607 0.5092606749 0)
(2.490728123 0.5060425745 0)
(2.498145131 0.5044120309 0)
(2.50641781 0.5001479324 0)
(2.516062657 0.4937234683 0)
(2.528500793 0.4822931268 0)
(2.748995091 0.03303069165 0)
(2.761387975 0.03405156858 0)
(2.77327745 0.03281058059 0)
(2.779490415 0.02932657044 0)
(2.778448541 0.03324685799 0)
(2.751051887 0.1409394902 0)
(2.57988693 0.4984385704 0)
(2.388303526 0.6571372007 0)
(2.280031732 0.6610521004 0)
(2.16543527 0.6258909347 0)
(2.131748902 0.6048721197 0)
(2.125428568 0.6019717991 0)
(2.138498147 0.6005254857 0)
(2.179413364 0.604511667 0)
(2.233119768 0.6155916671 0)
(2.271923963 0.6224945905 0)
(2.295370776 0.6203067437 0)
(2.316197308 0.6067996693 0)
(2.342676193 0.5945080976 0)
(2.364365413 0.583414821 0)
(2.382577632 0.5785013368 0)
(2.394802257 0.576396866 0)
(2.404063515 0.5758726064 0)
(2.414171289 0.5746752558 0)
(2.421876183 0.5709001729 0)
(2.428520123 0.5677022365 0)
(2.436433617 0.5625404637 0)
(2.442194429 0.5509900442 0)
(2.450091859 0.5389461018 0)
(2.461003686 0.5279953618 0)
(2.470816399 0.5165296275 0)
(2.48082813 0.5080808011 0)
(2.489213131 0.5055913201 0)
(2.496511846 0.5038079494 0)
(2.50428204 0.499556309 0)
(2.513318043 0.4937632416 0)
(2.525821215 0.4838570063 0)
(2.731774329 0.02936892381 0)
(2.742012848 0.03191313224 0)
(2.754404207 0.03280809784 0)
(2.760428289 0.03064366023 0)
(2.761082084 0.03305240121 0)
(2.733706707 0.09754370724 0)
(2.603141656 0.4331365375 0)
(2.392407867 0.6188422014 0)
(2.328377575 0.6519293801 0)
(2.214153912 0.6363045338 0)
(2.146584258 0.6168331293 0)
(2.130887108 0.614181806 0)
(2.131835051 0.6070309549 0)
(2.16131974 0.60286865 0)
(2.215461103 0.6103619672 0)
(2.263766813 0.6175186505 0)
(2.293301121 0.6141410776 0)
(2.316496021 0.603004632 0)
(2.339936643 0.5931719254 0)
(2.360233142 0.5837888134 0)
(2.376226045 0.5817343097 0)
(2.387475379 0.5795901251 0)
(2.396680429 0.576989022 0)
(2.406198561 0.5750546526 0)
(2.416119134 0.5726043727 0)
(2.425034136 0.5698498073 0)
(2.435094576 0.5643426168 0)
(2.441524007 0.5521310742 0)
(2.449157495 0.5391484504 0)
(2.460870538 0.526228456 0)
(2.470831719 0.5143574723 0)
(2.480271759 0.50741641 0)
(2.488022935 0.5048378861 0)
(2.495337326 0.5026672329 0)
(2.502198659 0.4987299066 0)
(2.511017773 0.4946665863 0)
(2.523888388 0.4873291613 0)
(2.722543935 0.02404329289 0)
(2.729579531 0.02799967386 0)
(2.739613141 0.03182625304 0)
(2.744048705 0.03170823192 0)
(2.745631717 0.03328224857 0)
(2.725142965 0.07668949122 0)
(2.615393824 0.3587018464 0)
(2.392502975 0.6116136592 0)
(2.356386972 0.6605843339 0)
(2.264690972 0.6524824136 0)
(2.17083018 0.6249065425 0)
(2.138062504 0.6170636782 0)
(2.132771831 0.6039879231 0)
(2.146925717 0.5961657763 0)
(2.197247121 0.6011753499 0)
(2.253470794 0.609185038 0)
(2.290628278 0.6088979084 0)
(2.316594507 0.6014839437 0)
(2.337406941 0.5932824046 0)
(2.356108339 0.5871893583 0)
(2.369423801 0.5849806146 0)
(2.380886335 0.5802656345 0)
(2.38893213 0.5760040497 0)
(2.398118148 0.5739466782 0)
(2.410159574 0.5740152423 0)
(2.421299306 0.571514333 0)
(2.433667804 0.5654130166 0)
(2.44153606 0.5528709482 0)
(2.449027432 0.5391545459 0)
(2.461352699 0.5242242362 0)
(2.470897579 0.5126412892 0)
(2.47959754 0.5064920308 0)
(2.487215781 0.5035250651 0)
(2.494271296 0.5013455471 0)
(2.500339112 0.4982644449 0)
(2.509434973 0.4960449235 0)
(2.522554407 0.4906265285 0)
(2.723417816 0.02463488201 0)
(2.73069178 0.03002601605 0)
(2.733929024 0.03114533354 0)
(2.735080144 0.0324711161 0)
(2.722094794 0.06224915304 0)
(2.616031494 0.31130133 0)
(2.407153991 0.5852444249 0)
(2.360324574 0.6899052032 0)
(2.305421786 0.6790822802 0)
(2.203212388 0.6356259373 0)
(2.146921695 0.6084688902 0)
(2.136093209 0.5899902806 0)
(2.138805841 0.581451663 0)
(2.179405644 0.5902273018 0)
(2.240475039 0.6024277749 0)
(2.286693422 0.6063612911 0)
(2.316024059 0.6015380918 0)
(2.33609838 0.5976163395 0)
(2.350920283 0.5917104475 0)
(2.364263121 0.5855319417 0)
(2.373694757 0.5785096379 0)
(2.381205153 0.5736279988 0)
(2.390464202 0.5735922822 0)
(2.404450688 0.5754760243 0)
(2.417320062 0.5725276823 0)
(2.431962765 0.5658767667 0)
(2.441610148 0.5533983184 0)
(2.449522673 0.5386958368 0)
(2.462048818 0.5222389749 0)
(2.470984563 0.5112196301 0)
(2.478767854 0.5052618335 0)
(2.486591466 0.5025486691 0)
(2.492766098 0.5008895411 0)
(2.499217609 0.4984119911 0)
(2.508227808 0.496174317 0)
(2.521553966 0.4910477642 0)
(2.722348214 0.02346168445 0)
(2.726633563 0.02861790663 0)
(2.729518974 0.03003910627 0)
(2.73053335 0.03158296603 0)
(2.721940423 0.05174556334 0)
(2.629435702 0.255763563 0)
(2.415159141 0.5631211292 0)
(2.356065749 0.6958686234 0)
(2.328781254 0.7005387038 0)
(2.239782093 0.6439994094 0)
(2.155995432 0.5978934288 0)
(2.140325411 0.583716463 0)
(2.136194169 0.5741094769 0)
(2.164743044 0.5816553697 0)
(2.225101897 0.5981776983 0)
(2.280947837 0.6071437834 0)
(2.315248672 0.606155715 0)
(2.334342686 0.6044816665 0)
(2.346568078 0.5926870163 0)
(2.358589161 0.5835234407 0)
(2.366267794 0.5747865627 0)
(2.373541108 0.5730784574 0)