/*--------------------------------*- C++ -*----------------------------------*\
  =========                 |
  \\      /  F ield         | OpenFOAM: The Open Source CFD Toolbox
   \\    /   O peration     | Website:  https://openfoam.org
    \\  /    A nd           | Version:  7
     \\/     M anipulation  |
\*---------------------------------------------------------------------------*/
FoamFile
{
    version     2.0;
    format      ascii;
    class       volVectorField;
    location    "4.2";
    object      U;
}
// * * * * * * * * * * * * * * * * * * * * * * * * * * * * * * * * * * * * * //

dimensions      [0 1 -1 0 0 0 0];

internalField   nonuniform List<vector> 
22
(
(2.996169861 0.008200211423 0)
(2.99269461 -0.001839557631 0)
(2.988458667 -0.00148591643 0)
(2.980273717 -0.001129409917 0)
(3.010065071 0.01393751508 0)
(3.006860425 0.0002529082926 0)
(3.001750827 0.0006684427221 0)
(2.994455771 0.0003498287041 0)
(3.008049019 0.0004946412421 0)
(3.004499573 -4.914318076e-05 0)
(2.999465565 0.002807559734 0)
(3.003515376 -0.001051917104 0)
(3.003130189 -0.002811640788 0)
(3.000294775 -0.0004895448188 0)
(2.999495349 -0.001787466344 0)
(3.001038263 -0.0042047234 0)
(2.999945066 -0.002725613083 0)
(2.996855305 0.00511406849 0)
(2.996475347 0.00238911438 0)
(2.996314687 -0.0005394487086 0)
(2.998770419 -0.01827987492 0)
(2.993374464 -0.001862882254 0)
)
;

boundaryField
{
    inlet
    {
        type            fixedValue;
        value           nonuniform 0();
    }
    outlet
    {
        type            inletOutlet;
        inletValue      uniform (3 0 0);
        value           nonuniform List<vector> 6((2.996314687 -0.0005394487086 0) (2.980273717 -0.001129409917 0) (2.994455771 0.0003498287041 0) (2.999465565 0.002807559734 0) (3.000294775 -0.0004895448188 0) (2.999945066 -0.002725613083 0));
    }
    bottom
    {
        type            slip;
    }
    top
    {
        type            slip;
    }
    obstacle
    {
        type            slip;
    }
    defaultFaces
    {
        type            empty;
    }
    procBoundary29to22
    {
        type            processor;
        value           uniform (2.994726588 -0.00125193897 0);
    }
    procBoundary29to23
    {
        type            processor;
        value           nonuniform List<vector> 4((2.968391344 0.006869399439 0) (2.966085974 -0.003292434865 0) (2.962915408 -0.002926693783 0) (2.957451602 -0.00151269632 0));
    }
    procBoundary29to28
    {
        type            processor;
        value           nonuniform List<vector> 7((3.012725352 0.003619323499 0) (3.01184543 0.01240488915 0) (3.01184543 0.01240488915 0) (3.008204943 0.01054923423 0) (3.003486102 0.01089704886 0) (2.999724569 0.01876417513 0) (2.998438116 -0.04325742632 0));
    }
    procBoundary29to35
    {
        type            processor;
        value           nonuniform List<vector> 4((2.991378624 0.0007021983758 0) (3.002028452 -0.04364492605 0) (2.991378624 0.0007021983758 0) (2.994052086 -0.02170061035 0));
    }
}


// ************************************************************************* //
