/*--------------------------------*- C++ -*----------------------------------*\
  =========                 |
  \\      /  F ield         | OpenFOAM: The Open Source CFD Toolbox
   \\    /   O peration     | Website:  https://openfoam.org
    \\  /    A nd           | Version:  7
     \\/     M anipulation  |
\*---------------------------------------------------------------------------*/
FoamFile
{
    version     2.0;
    format      ascii;
    class       volVectorField;
    location    "3.4";
    object      U;
}
// * * * * * * * * * * * * * * * * * * * * * * * * * * * * * * * * * * * * * //

dimensions      [0 1 -1 0 0 0 0];

internalField   nonuniform List<vector> 
140
(
(3.009632209 -0.01749649854 0)
(3.003431851 -0.00460397284 0)
(3.000601847 -0.002783188997 0)
(2.999815678 -0.002826769231 0)
(3.066998297 -0.2369324569 0)
(3.063046701 -0.214557301 0)
(3.046768991 -0.1543926045 0)
(3.03869558 -0.106260592 0)
(3.016145582 -0.02335496621 0)
(3.005661615 0.01116904775 0)
(2.996202859 -0.00611077202 0)
(3.000799284 -0.00601050814 0)
(3.068750961 -0.2420262071 0)
(3.072406283 -0.230363414 0)
(3.065212036 -0.2208398633 0)
(3.053224252 -0.186089292 0)
(3.032238708 -0.1177038501 0)
(3.025428428 -0.07466303646 0)
(3.029283158 -0.05239028615 0)
(3.009133166 -0.01877452615 0)
(3.047468569 -0.1768741348 0)
(3.058794471 -0.2118106668 0)
(3.059628563 -0.2202923716 0)
(3.059909015 -0.2191163349 0)
(3.05365313 -0.1966126713 0)
(3.041869752 -0.1406798677 0)
(3.03280943 -0.06549617219 0)
(3.014834764 -0.01981676388 0)
(3.045379449 -0.1695436599 0)
(3.050797856 -0.2017466019 0)
(3.055141536 -0.2355508064 0)
(3.063793575 -0.2217718554 0)
(3.063043087 -0.2165722543 0)
(3.058198559 -0.203779146 0)
(3.051245196 -0.1773832481 0)
(3.027273474 -0.09251223825 0)
(3.017785087 -0.0694421587 0)
(3.033738108 -0.1298282905 0)
(3.040143105 -0.1532397692 0)
(3.040473828 -0.1730781891 0)
(3.05571342 -0.2023672986 0)
(3.057668033 -0.2084308641 0)
(3.05818832 -0.2076547039 0)
(3.045714183 -0.1583919358 0)
(3.004016474 -0.02874830255 0)
(3.023601475 -0.09304142256 0)
(3.032952998 -0.1173084661 0)
(3.042789309 -0.1750856193 0)
(3.050917476 -0.1992386902 0)
(3.055647579 -0.2209862218 0)
(3.062083442 -0.2104419006 0)
(3.058636097 -0.1984771935 0)
(2.988548873 0.02356197755 0)
(3.005356794 -0.02613845415 0)
(3.015896836 -0.05448288422 0)
(3.026569133 -0.09837581266 0)
(3.035583423 -0.1264343797 0)
(3.037862503 -0.1484131335 0)
(3.049704245 -0.1823431581 0)
(3.053110402 -0.1912323338 0)
(2.967427146 0.07933253913 0)
(2.990041876 0.02128732538 0)
(2.996978016 -0.001691941719 0)
(3.017095727 -0.06626961217 0)
(3.024158116 -0.081697398 0)
(3.037751944 -0.1400168338 0)
(3.046884898 -0.1718632495 0)
(3.054138448 -0.1994600913 0)
(2.952954786 0.1182243313 0)
(2.968857515 0.08105756 0)
(2.983413022 0.037814382 0)
(3.000694681 -0.0091928302 0)
(3.007683965 -0.02924623139 0)
(3.021618936 -0.0815481047 0)
(3.028144552 -0.0950060065 0)
(3.038531424 -0.1418884989 0)
(2.936868957 0.1594605713 0)
(2.951421796 0.1236690279 0)
(2.966618296 0.08280018534 0)
(2.985297129 0.03957014759 0)
(2.99168807 0.01312410295 0)
(3.011657208 -0.04538085564 0)
(3.010369511 -0.05016269846 0)
(3.030318596 -0.1312967054 0)
(2.925877944 0.181426092 0)
(2.934680461 0.1614983388 0)
(2.951161915 0.1225145881 0)
(2.96381047 0.09272640455 0)
(2.978621644 0.04804030144 0)
(3.001720443 0.004174780431 0)
(2.987804451 -0.009024278336 0)
(3.008014888 -0.09350888916 0)
(2.922672407 0.1867994994 0)
(2.926440076 0.1801627094 0)
(2.935683006 0.1588358784 0)
(2.946570325 0.130177476 0)
(2.965467581 0.08132491408 0)
(2.977855325 0.06335026291 0)
(2.973592657 0.004672200431 0)
(2.978032951 -0.09367309272 0)
(2.92442206 0.1926194283 0)
(2.922486518 0.1888349975 0)
(2.924568816 0.1816335779 0)
(2.935410685 0.1565947845 0)
(2.941276834 0.1349928378 0)
(2.955056778 0.0822147088 0)
(2.947346921 0.01114299386 0)
(2.9515077 -0.09707740434 0)
(2.933078446 0.1724358051 0)
(2.925487034 0.1836273328 0)
(2.925251287 0.1832332296 0)
(2.926612536 0.1740970321 0)
(2.930416825 0.1436980185 0)
(2.917997953 0.07293711522 0)
(2.931453856 -0.003666626458 0)
(2.924134135 -0.1034382667 0)
(2.952100145 0.1287824562 0)
(2.931441404 0.1753884852 0)
(2.931219673 0.1836206076 0)
(2.919935062 0.1547190841 0)
(2.912072089 0.1183696408 0)
(2.902342206 0.06514403748 0)
(2.899757319 -0.01479085567 0)
(2.898524079 -0.06183332141 0)
(2.968235878 0.08759326867 0)
(2.949795806 0.1363646335 0)
(2.928069968 0.1435606014 0)
(2.912152791 0.1321751685 0)
(2.886926108 0.05983975039 0)
(2.871575013 0.001164297344 0)
(2.874808829 -0.04746434915 0)
(2.878635726 -0.06377503324 0)
(2.978835533 0.02085002753 0)
(2.944742395 0.0447779932 0)
(2.91100317 0.07250844431 0)
(2.889136304 0.04652550994 0)
(2.881372039 0.06937068625 0)
(2.857842324 0.02576369784 0)
(2.86159535 0.004868258224 0)
(2.876156631 -0.01206760438 0)
)
;

boundaryField
{
    inlet
    {
        type            fixedValue;
        value           nonuniform 0();
    }
    outlet
    {
        type            inletOutlet;
        inletValue      uniform (3 0 0);
        value           nonuniform List<vector> 
18
(
(2.999815678 -0.002826769231 0)
(3.000799284 -0.00601050814 0)
(3.009133166 -0.01877452615 0)
(3.014834764 -0.01981676388 0)
(3.027273474 -0.09251223825 0)
(3.045714183 -0.1583919358 0)
(3.058636097 -0.1984771935 0)
(3.053110402 -0.1912323338 0)
(3.054138448 -0.1994600913 0)
(3.038531424 -0.1418884989 0)
(3.030318596 -0.1312967054 0)
(3.008014888 -0.09350888916 0)
(2.978032951 -0.09367309272 0)
(2.9515077 -0.09707740434 0)
(2.924134135 -0.1034382667 0)
(2.898524079 -0.06183332141 0)
(2.878635726 -0.06377503324 0)
(2.876156631 -0.01206760438 0)
)
;
    }
    bottom
    {
        type            slip;
    }
    top
    {
        type            slip;
    }
    obstacle
    {
        type            slip;
    }
    defaultFaces
    {
        type            empty;
    }
    procBoundary35to29
    {
        type            processor;
        value           nonuniform List<vector> 9((3.003200538 -0.004833064279 0) (3.001959436 -0.002716786483 0) (3.000699356 -0.002207534516 0) (3.000937536 -0.001629208589 0) (3.055186327 -0.1982179693 0) (3.041438424 -0.1236683756 0) (3.018835867 -0.03587231087 0) (3.017117749 -0.04749848201 0) (3.017117749 -0.04749848201 0));
    }
    procBoundary35to34
    {
        type            processor;
        value           nonuniform List<vector> 
17
(
(3.066342288 -0.2380156932 0)
(3.063976272 -0.2424788675 0)
(3.043026977 -0.1614571133 0)
(3.03307732 -0.1191469768 0)
(3.0138435 -0.05618136894 0)
(2.992609802 0.009877016337 0)
(2.973762454 0.06373975208 0)
(2.953469291 0.1161770778 0)
(2.934526278 0.1628814246 0)
(2.926423807 0.1837243776 0)
(2.921433812 0.1910713741 0)
(2.923202956 0.1847672439 0)
(2.928547064 0.1785349325 0)
(2.937497418 0.1646665609 0)
(2.964566446 0.09033426622 0)
(2.986823982 0.03360498106 0)
(2.994867571 0.005448076173 0)
)
;
    }
}


// ************************************************************************* //
