/*--------------------------------*- C++ -*----------------------------------*\
  =========                 |
  \\      /  F ield         | OpenFOAM: The Open Source CFD Toolbox
   \\    /   O peration     | Website:  https://openfoam.org
    \\  /    A nd           | Version:  7
     \\/     M anipulation  |
\*---------------------------------------------------------------------------*/
FoamFile
{
    version     2.0;
    format      ascii;
    class       volVectorField;
    location    "3.7";
    object      U;
}
// * * * * * * * * * * * * * * * * * * * * * * * * * * * * * * * * * * * * * //

dimensions      [0 1 -1 0 0 0 0];

internalField   nonuniform List<vector> 
555
(
(2.858665584 0.003096126468 0)
(2.859308978 0.002946349241 0)
(2.860225057 -0.000213927902 0)
(2.860818018 -0.004148063202 0)
(2.860974512 -0.004599199548 0)
(2.856467705 -0.001759473049 0)
(2.856259001 -0.001267730412 0)
(2.85603563 -0.001263851719 0)
(2.855991225 -0.001301685232 0)
(2.856429785 -0.001302935791 0)
(2.85727265 -0.0009931909698 0)
(2.85800372 -0.0009153512124 0)
(2.85850298 -0.001240319544 0)
(2.858588906 -0.001580194337 0)
(2.859471296 -0.001303871578 0)
(2.859576818 0.0001209033412 0)
(2.859806138 0.001458222175 0)
(2.860333787 0.002620603215 0)
(2.860996884 0.002569305846 0)
(2.861206084 -0.0007692342271 0)
(2.861527353 -0.002489785707 0)
(2.861671394 -0.003346877841 0)
(2.860237809 -0.0003678551478 0)
(2.859934974 0.0001834665276 0)
(2.859354923 0.0002613679404 0)
(2.85903827 0.0004128201471 0)
(2.859130825 0.000537256735 0)
(2.85987178 0.0008193810236 0)
(2.86044465 0.0009322360101 0)
(2.860816466 0.0009185941175 0)
(2.861231846 0.0002710005401 0)
(2.861595194 6.09654516e-05 0)
(2.861811532 0.0001585901807 0)
(2.862427247 0.0005562420177 0)
(2.863675613 0.001020543144 0)
(2.864298819 0.0004222166847 0)
(2.864002576 -0.001212741687 0)
(2.863347992 -0.001486600909 0)
(2.863244486 -0.0007924783551 0)
(2.865720251 0.0005111754549 0)
(2.865411764 0.001069414564 0)
(2.864884207 0.001287137065 0)
(2.864323655 0.001767706984 0)
(2.864196748 0.001962105136 0)
(2.864445178 0.002009497211 0)
(2.864776296 0.001888575775 0)
(2.864936117 0.002052771986 0)
(2.865346028 0.002366075425 0)
(2.865737857 0.002329018133 0)
(2.86605646 0.0005538424111 0)
(2.866410187 -0.0004367668076 0)
(2.867003652 -0.001238686613 0)
(2.867378228 -0.002690331023 0)
(2.867449509 -0.00130768099 0)
(2.866684407 -0.0003648656825 0)
(2.866614699 0.00109288219 0)
(2.872117962 0.0008732187902 0)
(2.871752579 0.001434630766 0)
(2.871191443 0.001834805401 0)
(2.870605647 0.002511509671 0)
(2.870343228 0.002804172644 0)
(2.870387267 0.002835869442 0)
(2.870469796 0.002814891937 0)
(2.870598503 0.002974845175 0)
(2.870559535 0.003303497642 0)
(2.870390671 0.003028395407 0)
(2.870928331 0.0008799681955 0)
(2.871303085 -0.001470821337 0)
(2.8711483 -0.004338718725 0)
(2.870801386 -0.004246979515 0)
(2.871033479 -0.001725704578 0)
(2.871130686 0.0004221680856 0)
(2.871046193 0.001871408621 0)
(2.878142305 -0.0001493299403 0)
(2.877619346 0.0006148238296 0)
(2.877154516 0.001308699814 0)
(2.876699096 0.002074696001 0)
(2.876547769 0.002838116941 0)
(2.876263142 0.003084571272 0)
(2.876139827 0.003226624903 0)
(2.876265622 0.003452806234 0)
(2.876158253 0.003860770779 0)
(2.87544703 0.002937895942 0)
(2.875670673 0.0002608517815 0)
(2.87639507 -0.002809904437 0)
(2.876194367 -0.004869721803 0)
(2.876271193 -0.004210951807 0)
(2.876358064 -0.002270660022 0)
(2.876469051 0.0003182156904 0)
(2.876129205 0.001772261974 0)
(2.883448861 -0.001346648855 0)
(2.882823881 -0.0002664575666 0)
(2.882471603 0.0005737414304 0)
(2.8820831 0.001176759514 0)
(2.881977917 0.001863594707 0)
(2.881776105 0.002576824799 0)
(2.881568082 0.003160598015 0)
(2.881685954 0.003313177404 0)
(2.88143617 0.003261353567 0)
(2.881185643 0.002304220496 0)
(2.880646855 -0.0002190087539 0)
(2.880894514 -0.002247081297 0)
(2.881386848 -0.003206514817 0)
(2.882031949 -0.003341529405 0)
(2.882302893 -0.002057629257 0)
(2.882403048 -6.320777047e-05 0)
(2.881641518 0.001177053808 0)
(2.887454055 -0.0006499463736 0)
(2.887281117 0.0004834201023 0)
(2.886602933 0.00133011028 0)
(2.886174175 0.001804627795 0)
(2.886377807 0.002148374345 0)
(2.886527244 0.002344613758 0)
(2.886633069 0.002325349388 0)
(2.886874453 0.002045013498 0)
(2.886346969 0.001071039812 0)
(2.885753143 0.0003056897643 0)
(2.884806285 -0.000716900304 0)
(2.885411892 -0.001362401766 0)
(2.886147135 -0.001291039997 0)
(2.886625664 -0.000933501246 0)
(2.88665634 0.0002163951174 0)
(2.887194475 0.0002592840712 0)
(2.891006775 -7.372955138e-05 0)
(2.890654305 0.0009628467247 0)
(2.889915127 0.001557669756 0)
(2.889264931 0.001438342834 0)
(2.889422555 0.0008359229558 0)
(2.889758318 0.0003119408421 0)
(2.889922196 -0.0001882977911 0)
(2.890182977 -0.0007530051309 0)
(2.889672357 -0.000757420355 0)
(2.889684163 0.0006620656923 0)
(2.888954129 0.001056601621 0)
(2.889158837 0.001088436431 0)
(2.889560257 0.001152244681 0)
(2.889828733 0.0009850899985 0)
(2.890100673 0.0003588560602 0)
(2.89131066 -0.001568939966 0)
(2.89385723 0.001130612931 0)
(2.893750409 0.002023866684 0)
(2.893341317 0.001955405373 0)
(2.892820558 0.001331628165 0)
(2.892526595 -0.0001453274938 0)
(2.892843441 -0.001428904943 0)
(2.893010445 -0.002349913415 0)
(2.892995885 -0.002678066977 0)
(2.893535766 -0.001712598062 0)
(2.893632371 0.0004965123017 0)
(2.893739197 0.002266688796 0)
(2.893706917 0.002978182844 0)
(2.893593241 0.003674144005 0)
(2.894444578 0.00275699067 0)
(2.894907806 0.0004033234223 0)
(2.895043156 -0.002993402477 0)
(2.896997261 0.002396158388 0)
(2.897129958 0.003116749524 0)
(2.896906734 0.002993455671 0)
(2.896435541 0.001701314123 0)
(2.896198622 -0.0005342773667 0)
(2.896894179 -0.002166881895 0)
(2.897334321 -0.002540355639 0)
(2.897624863 -0.00251584786 0)
(2.898178158 -0.002404824859 0)
(2.898636145 -0.0001318918209 0)
(2.89863121 0.003642899029 0)
(2.898414471 0.005245760897 0)
(2.899428989 0.004862942849 0)
(2.899875201 0.003697287476 0)
(2.899733723 0.0003090430558 0)
(2.899853408 -0.003490463361 0)
(2.900611708 0.002980742702 0)
(2.900544397 0.002750285454 0)
(2.90044102 0.001613626602 0)
(2.900578357 -0.0002372486248 0)
(2.900537728 -0.001353642364 0)
(2.901124881 -0.001863643772 0)
(2.901540299 -0.00213019795 0)
(2.901767572 -0.002276952285 0)
(2.902144733 -0.001237048531 0)
(2.902280081 0.0007196507733 0)
(2.903223863 0.003443007897 0)
(2.903645343 0.005495553154 0)
(2.904832432 0.004743011371 0)
(2.905299748 0.002185410419 0)
(2.905133807 -0.002147730236 0)
(2.905235248 -0.003485490224 0)
(2.905021832 0.002210396405 0)
(2.904811676 0.001266714986 0)
(2.904564679 -7.755309709e-05 0)
(2.904538665 -0.0007475688639 0)
(2.904183565 -0.0006466567835 0)
(2.904001587 -0.0008300999234 0)
(2.904053027 -0.0009047492753 0)
(2.904241123 -0.0008695289273 0)
(2.904422551 0.0002085278989 0)
(2.90461202 0.0008365147202 0)
(2.906015896 0.001738441023 0)
(2.90757009 0.002743059321 0)
(2.909562462 0.001979404601 0)
(2.910181743 -0.0006366584847 0)
(2.910527751 -0.002982996273 0)
(2.909818405 -0.00291652258 0)
(2.908608041 -0.0003070854806 0)
(2.9084602 -0.0007642286006 0)
(2.907840748 -0.0006198428784 0)
(2.907200056 -0.0002620757172 0)
(2.906829517 0.0004436873937 0)
(2.906442271 0.0012730183 0)
(2.906431981 0.001759484443 0)
(2.906583904 0.002045091624 0)
(2.907032026 0.001820892059 0)
(2.907864633 0.001128039329 0)
(2.908953326 -3.53553151e-05 0)
(2.911066258 -0.001473622857 0)
(2.912476308 -0.002612989915 0)
(2.913427566 -0.003567812701 0)
(2.913967535 -0.003180881659 0)
(2.913643984 -0.001334327328 0)
(2.911807234 -0.002559481528 0)
(2.911748758 -0.001830923849 0)
(2.911377342 -0.0008346379101 0)
(2.910982442 0.0002856171685 0)
(2.91123883 0.001063130303 0)
(2.91140073 0.002714921079 0)
(2.911697535 0.00374248444 0)
(2.911943696 0.00370421493 0)
(2.912577262 0.002794295923 0)
(2.913195606 0.001214285639 0)
(2.914595765 -0.0008601715967 0)
(2.916120076 -0.003736237289 0)
(2.91659082 -0.005075436502 0)
(2.917742677 -0.004597901911 0)
(2.918682684 -0.003242682773 0)
(2.919266197 0.0001829409971 0)
(2.917332808 -0.003406191254 0)
(2.917473962 -0.003139681392 0)
(2.91782075 -0.002717536709 0)
(2.917985293 -0.00102231248 0)
(2.918315099 0.001654729902 0)
(2.918764779 0.003477470694 0)
(2.919042656 0.004294336284 0)
(2.919218321 0.004320424292 0)
(2.919354908 0.003380322686 0)
(2.919939008 0.0006085886151 0)
(2.921762112 -0.002122292827 0)
(2.923379451 -0.004334131917 0)
(2.924434375 -0.005757536664 0)
(2.926027671 -0.005915655037 0)
(2.926958916 -0.003618919935 0)
(2.926995513 0.001059597787 0)
(2.924508924 -0.002796048334 0)
(2.925464542 -0.002187389769 0)
(2.925816531 -0.001127833209 0)
(2.926179144 0.001227729293 0)
(2.926103459 0.003134426623 0)
(2.926286885 0.003562237491 0)
(2.926304843 0.003773465093 0)
(2.926315906 0.003831092993 0)
(2.925747353 0.002592750085 0)
(2.926489824 0.0001539481232 0)
(2.928354267 -0.00233930199 0)
(2.930593893 -0.003958859132 0)
(2.93261117 -0.00453989069 0)
(2.933990361 -0.004105305185 0)
(2.93496393 -0.0007186271605 0)
(2.934810273 0.001417027337 0)
(2.931863056 -0.00128672027 0)
(2.933153832 0.0001848786727 0)
(2.932633556 0.002079558225 0)
(2.931971167 0.00272867193 0)
(2.931549575 0.002530621408 0)
(2.931149703 0.001902294741 0)
(2.930867878 0.001468487496 0)
(2.930618134 0.001015208624 0)
(2.93071588 0.0007400795774 0)
(2.931654956 -0.000212668336 0)
(2.933898471 -0.001424863996 0)
(2.936618292 -0.002071731093 0)
(2.938979485 -0.00167518509 0)
(2.939687685 0.0001284946608 0)
(2.939871517 0.001457754194 0)
(2.940501056 0.0009602618685 0)
(2.937439078 0.001626646016 0)
(2.938125271 0.002932572477 0)
(2.937805633 0.003417741452 0)
(2.936719729 0.002713165374 0)
(2.935946728 0.001445004834 0)
(2.935177047 0.0002078983241 0)
(2.934618929 -0.0006914781269 0)
(2.93427515 -0.001248978478 0)
(2.934957494 -0.001285221844 0)
(2.936267718 -0.0006298249323 0)
(2.938446148 -3.836683569e-05 0)
(2.941190557 0.001203429731 0)
(2.942904957 0.002535904734 0)
(2.943745336 0.002937404933 0)
(2.943722867 0.001782322646 0)
(2.944413297 -0.0006161999172 0)
(2.940922226 0.003740988408 0)
(2.941628117 0.003986959852 0)
(2.942073835 0.003201411515 0)
(2.941444912 0.001634894459 0)
(2.93996692 -0.0001753696828 0)
(2.938643958 -0.001662751811 0)
(2.937760153 -0.002551911255 0)
(2.937441769 -0.00273683316 0)
(2.938033195 -0.002082222827 0)
(2.939376583 -0.0004029723419 0)
(2.94139079 0.00230132241 0)
(2.944079452 0.004010483691 0)
(2.946290595 0.00412045504 0)
(2.947869306 0.003320052148 0)
(2.948046609 0.00112610125 0)
(2.946775205 -0.002085037151 0)
(2.955572334 -2.201866931e-05 0)
(2.956483267 0.00065905028 0)
(2.956547297 0.0007651174858 0)
(2.956124558 0.0006897943836 0)
(2.955403864 0.000469325399 0)
(2.954740869 0.0001847737303 0)
(2.954085382 -3.151603211e-05 0)
(2.95354905 -0.0001288222689 0)
(2.953172423 -0.0001912790319 0)
(2.952995771 -0.0003305300039 0)
(2.953493266 -0.0004941262934 0)
(2.954388873 -0.000726925373 0)
(2.955570177 -0.001030340052 0)
(2.956579883 -0.001355114641 0)
(2.957212627 -0.001589929923 0)
(2.957754908 -0.001449539122 0)
(2.98052788 -0.0001444939482 0)
(2.980925836 0.0008570056922 0)
(2.980740063 0.001442449653 0)
(2.980573653 0.00149601429 0)
(2.980400977 0.00134769104 0)
(2.980096544 0.001144381228 0)
(2.979716554 0.00110151692 0)
(2.978984055 0.001174615901 0)
(2.978003257 0.001319867074 0)
(2.976796718 0.00119908444 0)
(2.975768372 0.0005194433859 0)
(2.974920396 -0.0003931221002 0)
(2.974878338 -0.001205159643 0)
(2.975230508 -0.001241795061 0)
(2.97560835 -0.001220614493 0)
(2.976179183 -0.0008696722864 0)
(2.995307894 -0.0005845850276 0)
(2.994975284 0.001241497975 0)
(2.994684887 0.002198738708 0)
(2.994735347 0.00218797026 0)
(2.994918635 0.001971318024 0)
(2.995251228 0.001571677175 0)
(2.995427165 0.001351914132 0)
(2.994960121 0.001210228031 0)
(2.994037759 0.001185052788 0)
(2.992927299 0.0009855383911 0)
(2.991860292 0.0003139614716 0)
(2.990827964 -0.000779923793 0)
(2.990181256 -0.00147297596 0)
(2.989831948 -0.001743978617 0)
(2.989820255 -0.001892788652 0)
(2.989806227 -0.001727878676 0)
(2.999065552 -0.0002056781702 0)
(2.998475971 0.002137583646 0)
(2.998645398 0.003058222357 0)
(2.998755002 0.003003573467 0)
(2.999084444 0.002589118323 0)
(2.999680055 0.002273339973 0)
(2.999984822 0.002041092298 0)
(2.999691802 0.001880406962 0)
(2.999177303 0.00176361513 0)
(2.998639743 0.001368220276 0)
(2.998101867 0.0003252355736 0)
(2.997520356 -0.0009382849025 0)
(2.996952165 -0.001701976964 0)
(2.996508167 -0.001871881158 0)
(2.996338917 -0.001944991621 0)
(2.995989241 -0.001724511255 0)
(2.997721494 0.0002755094105 0)
(2.997539658 0.0008235362104 0)
(2.99764736 0.001300320877 0)
(2.997748024 0.001168963089 0)
(2.998285216 0.001102315423 0)
(2.998506442 0.001395645469 0)
(2.998745342 0.001972475505 0)
(2.998725966 0.002147526764 0)
(2.998333044 0.002103352135 0)
(2.998120179 0.001718704331 0)
(2.997891014 0.0007319771784 0)
(2.997683406 -0.0004459596707 0)
(2.997225678 -0.001233370378 0)
(2.99693249 -0.001510446066 0)
(2.996560467 -0.001523840285 0)
(2.996177221 -0.001257845595 0)
(2.995149149 -0.001238830761 0)
(2.994994484 -0.001198539951 0)
(2.995089917 -0.001120194505 0)
(2.995415522 -0.0006071391425 0)
(2.9956657 -0.0003678659578 0)
(2.996005588 0.0003543001635 0)
(2.99625638 0.0016857483 0)
(2.996328424 0.002231615491 0)
(2.99612458 0.002204257107 0)
(2.99579763 0.001912531887 0)
(2.995639018 0.001229880017 0)
(2.995670998 0.000243901923 0)
(2.99535725 -0.0004745729963 0)
(2.994937132 -0.0005713043072 0)
(2.994528598 -0.0005396706678 0)
(2.994279327 -0.0005186392785 0)
(2.992226364 -0.002401660479 0)
(2.992781242 -0.002479949008 0)
(2.993185839 -0.002001191281 0)
(2.993404315 -0.001623287583 0)
(2.993602961 -0.00126944977 0)
(2.993901209 -0.0001053579038 0)
(2.993974305 0.001436951735 0)
(2.993929021 0.001713576259 0)
(2.993832584 0.001642723502 0)
(2.993747258 0.001391591714 0)
(2.994161977 0.0008669703601 0)
(2.994255742 6.216496428e-05 0)
(2.994050648 -0.0001789688809 0)
(2.993806985 -6.360503295e-05 0)
(2.9933883 5.940636932e-05 0)
(2.993016667 -0.0002558195572 0)
(2.990680446 -0.003669100801 0)
(2.991748433 -0.002293855659 0)
(2.992419022 -0.001373377576 0)
(2.992560886 -0.001395307224 0)
(2.992574475 -0.001306554546 0)
(2.99273345 -9.365297001e-06 0)
(2.992480626 0.0006418993997 0)
(2.992453104 0.001095168194 0)
(2.992689117 0.001196157855 0)
(2.992820922 0.0007203618464 0)
(2.9935149 -9.889005046e-07 0)
(2.99364923 -0.0003971369492 0)
(2.99364608 -0.0003740925203 0)
(2.993436868 -0.0001638108249 0)
(2.993021949 -3.21637996e-05 0)
(2.99248599 -0.0003388331442 0)
(2.990740558 -0.002442841154 0)
(2.992080717 0.0006057675546 0)
(2.992462325 0.001501143072 0)
(2.991897007 0.000439049824 0)
(2.991837983 -0.000928779999 0)
(2.991774466 -0.0008514066416 0)
(2.991906606 -3.02896617e-05 0)
(2.992152917 0.0004352868239 0)
(2.9925283 0.0005975035389 0)
(2.992944829 0.0002192671425 0)
(2.993460817 -0.0003461634556 0)
(2.993630937 -0.0006040832432 0)
(2.993511258 -0.0005337450954 0)
(2.993147267 -0.0002606519635 0)
(2.992915442 -0.0002556112167 0)
(2.992255332 -0.0004482988024 0)
(2.990226657 -0.003516632806 0)
(2.991678169 -0.001302009126 0)
(2.992322218 -0.001016753648 0)
(2.991132539 -0.001998214922 0)
(2.990946685 -0.002949770893 0)
(2.991675969 -0.001262397736 0)
(2.992029554 -0.0007253838938 0)
(2.992556703 0.0003201019981 0)
(2.993256245 0.0007470676928 0)
(2.993582278 0.0005181269372 0)
(2.99372924 -2.350090022e-05 0)
(2.993741466 -0.0005552232056 0)
(2.993428141 -0.0004715210727 0)
(2.993169765 -0.00031739703 0)
(2.992982494 -0.0004349514662 0)
(2.992381553 -0.0006337498731 0)
(2.989367024 -0.007520711311 0)
(2.993384275 -0.006327372698 0)
(2.992850851 -0.006961267572 0)
(2.99135973 -0.004996570913 0)
(2.991285062 -0.003980081702 0)
(2.992064959 -0.002126519986 0)
(2.992719742 -0.0007153934845 0)
(2.993483763 0.0002576852372 0)
(2.994108945 0.0002612056608 0)
(2.994147952 -3.157872307e-05 0)
(2.993827404 -0.0005720750513 0)
(2.993491377 -0.0009924736646 0)
(2.993163296 -0.0006147275283 0)
(2.993059739 -7.908721864e-05 0)
(2.992997159 0.0001513698304 0)
(2.992829218 -1.972682825e-05 0)
(3.008478707 -0.02724573188 0)
(3.000896114 -0.02050720858 0)
(2.994116006 -0.01060769727 0)
(2.992861521 -0.006982767603 0)
(2.992457577 -0.004087711904 0)
(2.993188584 -0.001114110595 0)
(2.993495669 -0.0005868448113 0)
(2.993629069 -0.001305271051 0)
(2.994481152 -0.002067035151 0)
(2.994655436 -0.002111004569 0)
(2.993977691 -0.002197571256 0)
(2.99305889 -0.001738106532 0)
(2.992697187 -0.000834130497 0)
(2.992845037 0.0003539834662 0)
(2.992987799 0.0007053456029 0)
(2.992992491 0.0006783833814 0)
(3.019813661 -7.349162118e-05 0)
(3.001926464 -0.02660770082 0)
(3.000550689 -0.007414045942 0)
(2.995270469 -0.001774242526 0)
(2.992637499 -0.003844806816 0)
(2.993011155 -0.002139546989 0)
(2.993118622 -0.002025996021 0)
(2.993519096 -0.003946395477 0)
(2.99498915 -0.005049733009 0)
(2.994946976 -0.004778927796 0)
(2.994139983 -0.003551770817 0)
(2.993075093 -0.001921337262 0)
(2.99219449 -0.0007554833239 0)
(2.992602628 0.0002896130197 0)
(2.99281152 0.0004453744546 0)
(2.992992931 0.0003794799644 0)
(3.044508072 -0.1733380208 0)
(3.041484032 -0.1224634353 0)
(3.008721294 -0.007993229236 0)
(2.998503753 0.009231277432 0)
(2.990617835 -0.008465376404 0)
(2.992859184 -0.00610340026 0)
(2.993564711 -0.005950215209 0)
(2.994400898 -0.006820846352 0)
(2.995690033 -0.004645456538 0)
(2.996046512 -0.002957244069 0)
(2.995077073 -0.001084658756 0)
(2.992829619 -0.0007434270426 0)
(2.992133095 -0.0007903486504 0)
(2.992112335 -0.001069109732 0)
(2.992494688 -0.001463911665 0)
(2.992998308 -0.0008914057283 0)
(3.073326879 -0.2872639644 0)
(3.057746588 -0.2153263179 0)
(3.032118293 -0.1137697551 0)
(3.03426228 -0.09332428122 0)
(3.023447223 -0.04579406096 0)
(3.010090348 -0.02205720404 0)
(3.000032423 -0.01102715454 0)
(2.995010456 -0.005327161665 0)
(2.996752584 -0.001815481664 0)
(2.99746774 0.0006330223923 0)
(2.995854573 0.001808955197 0)
(2.9929875 0.0004896880586 0)
(2.991735412 -0.0008944371613 0)
(2.991932576 -0.002309981254 0)
(2.992799912 -0.002234498892 0)
(2.993207118 -0.001734129469 0)
)
;

boundaryField
{
    inlet
    {
        type            fixedValue;
        value           nonuniform 0();
    }
    outlet
    {
        type            inletOutlet;
        inletValue      uniform (3 0 0);
        value           nonuniform List<vector> 
35
(
(2.957754908 -0.001449539122 0)
(2.976179183 -0.0008696722864 0)
(2.989806227 -0.001727878676 0)
(2.995989241 -0.001724511255 0)
(2.996177221 -0.001257845595 0)
(2.994279327 -0.0005186392785 0)
(2.993016667 -0.0002558195572 0)
(2.99248599 -0.0003388331442 0)
(2.992255332 -0.0004482988024 0)
(2.992381553 -0.0006337498731 0)
(2.992829218 -1.972682825e-05 0)
(2.992992491 0.0006783833814 0)
(2.992992931 0.0003794799644 0)
(2.992998308 -0.0008914057283 0)
(2.993207118 -0.001734129469 0)
(2.860974512 -0.004599199548 0)
(2.861671394 -0.003346877841 0)
(2.863244486 -0.0007924783551 0)
(2.866614699 0.00109288219 0)
(2.871046193 0.001871408621 0)
(2.876129205 0.001772261974 0)
(2.881641518 0.001177053808 0)
(2.887194475 0.0002592840712 0)
(2.89131066 -0.001568939966 0)
(2.895043156 -0.002993402477 0)
(2.899853408 -0.003490463361 0)
(2.905235248 -0.003485490224 0)
(2.909818405 -0.00291652258 0)
(2.913643984 -0.001334327328 0)
(2.919266197 0.0001829409971 0)
(2.926995513 0.001059597787 0)
(2.934810273 0.001417027337 0)
(2.940501056 0.0009602618685 0)
(2.944413297 -0.0006161999172 0)
(2.946775205 -0.002085037151 0)
)
;
    }
    bottom
    {
        type            slip;
    }
    top
    {
        type            slip;
    }
    obstacle
    {
        type            slip;
    }
    defaultFaces
    {
        type            empty;
    }
    procBoundary29to23
    {
        type            processor;
        value           nonuniform List<vector> 
18
(
(2.858331384 0.002470273259 0)
(2.859176838 0.001958005101 0)
(2.860296501 -0.0006630122304 0)
(2.861035917 -0.00503466035 0)
(2.861125123 -0.005296753092 0)
(2.854619618 -0.003251639688 0)
(2.85451027 -0.00287587597 0)
(2.854521266 -0.002933892235 0)
(2.854595898 -0.003055335037 0)
(2.855285135 -0.002909134617 0)
(2.856197208 -0.002722859768 0)
(2.857068854 -0.002491368212 0)
(2.857563742 -0.002442669608 0)
(2.85746285 -0.002070495259 0)
(2.858065713 -0.001248426997 0)
(2.858201133 -0.0001836158343 0)
(2.85823668 0.001490890349 0)
(2.85823668 0.001490890349 0)
)
;
    }
    procBoundary29to28
    {
        type            processor;
        value           nonuniform List<vector> 
34
(
(2.856465254 -0.002138567232 0)
(2.860447372 -0.0008438986783 0)
(2.866057147 -6.243850122e-06 0)
(2.872487265 0.0001768157741 0)
(2.878420291 -0.0007775534334 0)
(2.883739106 -0.002026978395 0)
(2.887799239 -0.001719059159 0)
(2.887799239 -0.001719059159 0)
(2.891104126 -0.001417089211 0)
(2.893679064 -0.0001357352531 0)
(2.89661719 0.00134496786 0)
(2.900472435 0.001972556598 0)
(2.904863003 0.00177321904 0)
(2.908363462 -0.000239673255 0)
(2.911463864 -0.002706056207 0)
(2.916660894 -0.003642943226 0)
(2.923041245 -0.003394674967 0)
(2.930008718 -0.002418027557 0)
(2.935912614 0.0001158205021 0)
(2.939563912 0.002729816778 0)
(2.954334422 -0.0009723635573 0)
(2.980024133 -0.001020928775 0)
(2.99592681 -0.001529659285 0)
(3.000306128 -0.002088224678 0)
(2.998479233 -0.001768870367 0)
(2.99575615 -0.001282559974 0)
(2.992043424 -0.001684564742 0)
(2.989201312 -0.003616145417 0)
(2.98930528 -0.004273071247 0)
(2.989208249 -0.005124120733 0)
(2.984289278 -0.008716034041 0)
(3.033374015 -0.06465421948 0)
(3.050167681 -0.1128827791 0)
(3.07344452 -0.2719908597 0)
)
;
    }
    procBoundary29to34
    {
        type            processor;
        value           uniform (3.083892317 -0.3172520268 0);
    }
    procBoundary29to35
    {
        type            processor;
        value           nonuniform List<vector> 
16
(
(3.086894653 -0.3166094042 0)
(3.081258748 -0.3056719323 0)
(3.065407379 -0.261439059 0)
(3.047545522 -0.1653777668 0)
(3.046214803 -0.09825096641 0)
(3.02070414 0.01134216566 0)
(2.99599961 -0.007726376047 0)
(2.997344028 0.002226533867 0)
(3.000144501 -6.909374049e-05 0)
(2.9981536 0.0008174147428 0)
(2.995328235 0.0006815806355 0)
(2.992878638 -5.259491096e-05 0)
(2.991634632 -0.002195559396 0)
(2.992766884 -0.002530149356 0)
(2.993346211 -0.001929583214 0)
(2.993795792 -0.001104116606 0)
)
;
    }
}


// ************************************************************************* //
