/*--------------------------------*- C++ -*----------------------------------*\
  =========                 |
  \\      /  F ield         | OpenFOAM: The Open Source CFD Toolbox
   \\    /   O peration     | Website:  https://openfoam.org
    \\  /    A nd           | Version:  7
     \\/     M anipulation  |
\*---------------------------------------------------------------------------*/
FoamFile
{
    version     2.0;
    format      ascii;
    class       volVectorField;
    location    "4.5";
    object      U;
}
// * * * * * * * * * * * * * * * * * * * * * * * * * * * * * * * * * * * * * //

dimensions      [0 1 -1 0 0 0 0];

internalField   nonuniform List<vector> 
2222
(
(2.959069916 0.003376549764 0)
(2.958810777 0.00288321729 0)
(2.958919913 0.002623647239 0)
(2.959235353 0.002289729665 0)
(2.959935372 0.001942020342 0)
(2.960254508 0.0005510099379 0)
(2.960745398 -0.004628490228 0)
(2.960739327 -0.002439132865 0)
(2.960430105 -4.921869309e-05 0)
(2.959873728 0.00150598425 0)
(2.959454538 0.00219234568 0)
(2.959032375 0.002173569189 0)
(2.958579814 0.001196600934 0)
(2.958529095 2.720530628e-05 0)
(2.957972745 -0.0002876693369 0)
(2.958060763 -0.0002980145331 0)
(2.958167918 0.0003338732844 0)
(2.958447088 0.00105870315 0)
(2.958597661 0.001548876864 0)
(2.95850337 0.001824138177 0)
(2.958484401 0.001739157927 0)
(2.958599686 0.001250686332 0)
(2.958166863 -0.0003762437273 0)
(2.957729714 -0.0010398832 0)
(2.957631128 -0.000991096872 0)
(2.957713572 -0.001125713149 0)
(2.957793116 -0.001157829273 0)
(2.957947802 -0.0009679857623 0)
(2.957882529 -0.0004004518149 0)
(2.957531306 0.0003299348186 0)
(2.957440795 0.0007370038479 0)
(2.957501767 0.0006088298975 0)
(2.956802858 0.002173633005 0)
(2.956368887 0.002877830249 0)
(2.956294373 0.003570062754 0)
(2.956361972 0.003700212532 0)
(2.957111179 0.003368730433 0)
(2.957792322 0.002493342371 0)
(2.957360535 -0.002730652239 0)
(2.958011155 -0.00443571511 0)
(2.958135286 -0.004665756863 0)
(2.958009058 -0.00404443824 0)
(2.957789394 -0.002359298468 0)
(2.957160552 -0.0006188719485 0)
(2.956635669 5.54663861e-05 0)
(2.957233292 0.0004655341692 0)
(2.957109843 0.0003414446072 0)
(2.955970329 -0.0002084841627 0)
(2.95511645 -0.0001803467825 0)
(2.954591484 -0.001059816711 0)
(2.954467301 -0.0009507908178 0)
(2.954609296 -0.0004378089738 0)
(2.955211615 8.949109994e-05 0)
(2.955341731 0.0002920555007 0)
(2.955549664 0.000752799443 0)
(2.955208497 0.001479627378 0)
(2.955148097 0.001253392034 0)
(2.955019535 0.000754574586 0)
(2.955124233 0.000216796971 0)
(2.955272484 -0.0005669542546 0)
(2.955215917 -0.001363138976 0)
(2.955152852 -0.001791354058 0)
(2.954855547 -0.001613395217 0)
(2.954826821 -0.001174857948 0)
(2.954764333 -0.0004110673739 0)
(2.954552311 -0.0005459340742 0)
(2.954636167 -6.735680454e-05 0)
(2.954568024 5.312638416e-05 0)
(2.953981922 0.001612222733 0)
(2.953958395 0.002424759578 0)
(2.953955236 0.00224356584 0)
(2.954358966 0.002278418886 0)
(2.954937082 0.001861985427 0)
(2.953919356 -0.003403330387 0)
(2.954516995 -0.00478324205 0)
(2.955055229 -0.00475052836 0)
(2.955126888 -0.003202217905 0)
(2.954958592 -0.001343385628 0)
(2.954138763 0.0003035669759 0)
(2.953446938 0.0004636042101 0)
(2.95323747 -5.677937751e-05 0)
(2.95307406 -0.0003259693235 0)
(2.952565522 -0.000444854281 0)
(2.952116023 -0.0005379464547 0)
(2.951884155 -0.0007258877287 0)
(2.951672494 -0.001215117772 0)
(2.951792157 -0.001065706064 0)
(2.952006211 -0.0009019278457 0)
(2.95236254 -0.000559860644 0)
(2.952608699 -0.0002326875125 0)
(2.952252688 0.0002014260069 0)
(2.951636519 0.0007498066949 0)
(2.951590168 0.0009125745409 0)
(2.951837313 0.001147979364 0)
(2.952602187 0.001315991228 0)
(2.952546297 -0.0001481898321 0)
(2.952307253 -0.001369769393 0)
(2.952119825 -0.001766232629 0)
(2.952010952 -0.001714355266 0)
(2.952103133 -0.001443230913 0)
(2.951411589 -0.001525774174 0)
(2.951582983 -0.001046508892 0)
(2.95164699 -0.0006916481049 0)
(2.951652861 -0.000444877165 0)
(2.951591817 6.38325495e-05 0)
(2.951455374 0.0009096655917 0)
(2.951677671 0.001330844419 0)
(2.952147323 0.001765237322 0)
(2.950641686 -0.003359698358 0)
(2.951476369 -0.004523140987 0)
(2.952266773 -0.004120017648 0)
(2.951836262 -0.001832329952 0)
(2.951607969 0.0008896402462 0)
(2.951081475 0.002348837444 0)
(2.950447639 0.001766581022 0)
(2.949805889 0.0006929983174 0)
(2.949601774 5.421616966e-05 0)
(2.949373863 -0.0001827679061 0)
(2.949296754 -0.0003081317452 0)
(2.949257697 -0.0004893365594 0)
(2.949113672 -0.001120733802 0)
(2.949156705 -0.001702810359 0)
(2.949211111 -0.001789813551 0)
(2.949558253 -0.001625541995 0)
(2.949203349 -0.001410613315 0)
(2.9486827 -0.0008864563824 0)
(2.948414027 -0.0004048729053 0)
(2.94808744 0.0003160987987 0)
(2.948208116 0.0009997363083 0)
(2.948760234 0.001381061165 0)
(2.948953393 0.001443829645 0)
(2.949125115 0.0007063408494 0)
(2.949140812 -0.0002325931718 0)
(2.948902019 -0.001395908078 0)
(2.948942536 -0.001858720929 0)
(2.948483602 -0.001763545942 0)
(2.948507402 -0.001714484747 0)
(2.94840803 -0.001367658962 0)
(2.948582364 -0.001329708399 0)
(2.948784355 -0.0006895167218 0)
(2.948762765 0.0001283894694 0)
(2.948786786 0.0009221243689 0)
(2.949363442 0.0009694759312 0)
(2.947450865 -0.00206140875 0)
(2.948248392 -0.003662959942 0)
(2.948788554 -0.00334340033 0)
(2.947987402 -0.0009800857976 0)
(2.94746174 0.001229191916 0)
(2.947188454 0.003318814895 0)
(2.946760347 0.003550608116 0)
(2.946650119 0.002230697696 0)
(2.946643548 0.0009098087751 0)
(2.946324394 -4.684399426e-05 0)
(2.946109695 -0.0001564412424 0)
(2.945687289 0.0001663853286 0)
(2.945817512 0.0002780888483 0)
(2.945919139 -0.0007106578374 0)
(2.945912137 -0.001836418048 0)
(2.946139185 -0.002226288164 0)
(2.94547726 -0.002159035266 0)
(2.945126575 -0.001758386632 0)
(2.944969084 -0.001283242702 0)
(2.944560375 -0.000908475693 0)
(2.944654934 0.000114597526 0)
(2.94488638 0.001231911557 0)
(2.94525421 0.001134847974 0)
(2.945386177 0.001475443713 0)
(2.945594675 0.001349251025 0)
(2.945744533 0.0007654475346 0)
(2.945616349 -0.0002206380468 0)
(2.945651752 -0.00088465848 0)
(2.945505897 -0.001672401971 0)
(2.945570996 -0.001664431241 0)
(2.945574721 -0.001784770099 0)
(2.945649222 -0.001460085052 0)
(2.946101772 -0.0005493680508 0)
(2.946086197 -5.011263149e-05 0)
(2.946474167 7.673451351e-05 0)
(2.943387695 -0.000426257813 0)
(2.944004275 -0.001937186662 0)
(2.94442753 -0.001097651507 0)
(2.943581948 0.0004514715036 0)
(2.943410015 0.003000202442 0)
(2.9431001 0.004168862178 0)
(2.942820469 0.00415556931 0)
(2.942956829 0.003671404407 0)
(2.942837854 0.002027881575 0)
(2.942521779 0.0006229215372 0)
(2.942029487 0.0001000411449 0)
(2.941627447 0.0003841120809 0)
(2.941613194 0.0008780430207 0)
(2.941987624 0.00110826823 0)
(2.942249439 0.0001755784848 0)
(2.94223111 -0.001088741308 0)
(2.942285295 -0.001523227639 0)
(2.942055084 -0.001663460618 0)
(2.941680395 -0.001956785995 0)
(2.941536886 -0.001828943384 0)
(2.94146 -0.001100455717 0)
(2.941859977 -4.659902131e-05 0)
(2.942073834 0.0003014454029 0)
(2.942057969 0.001102307903 0)
(2.942110939 0.001644808231 0)
(2.94230254 0.002005593221 0)
(2.942401204 0.002115999259 0)
(2.942661552 0.001701297541 0)
(2.942646085 0.0003489647244 0)
(2.942747127 -0.001115623702 0)
(2.942859893 -0.001869902502 0)
(2.94278183 -0.00199298134 0)
(2.943079042 -0.001761088295 0)
(2.943220631 -0.001290011703 0)
(2.94342234 -0.000953878251 0)
(2.939157643 -0.0008700216495 0)
(2.93958922 -0.002352736872 0)
(2.939934117 -0.001519802925 0)
(2.939542433 -0.000147773201 0)
(2.939378649 0.002014245384 0)
(2.939134417 0.003472001924 0)
(2.938736426 0.003716528689 0)
(2.938485718 0.003223031392 0)
(2.938375265 0.001550822303 0)
(2.938285509 -9.445973978e-05 0)
(2.938039323 -0.0003895992578 0)
(2.937871365 -0.000326274988 0)
(2.937631912 0.0003631746604 0)
(2.937791018 0.001083639262 0)
(2.938298154 0.001564336892 0)
(2.938705242 0.00145161072 0)
(2.939008138 0.000462765187 0)
(2.938952822 -0.001063631242 0)
(2.938590738 -0.002292157735 0)
(2.938544834 -0.002646675589 0)
(2.938492837 -0.002372368633 0)
(2.938532739 -0.001415850784 0)
(2.938837285 -0.0006148728708 0)
(2.939034285 -0.0002911881978 0)
(2.93891189 0.000893110685 0)
(2.9386998 0.001598687364 0)
(2.938827389 0.001875521173 0)
(2.939196237 0.002683745839 0)
(2.939618038 0.002541338809 0)
(2.939867945 0.001417521257 0)
(2.939917485 -0.0004302940314 0)
(2.9397107 -0.002042704726 0)
(2.939694489 -0.002316246592 0)
(2.939599484 -0.002012859777 0)
(2.939655061 -0.001689898481 0)
(2.93527505 -0.001787895025 0)
(2.93545504 -0.003029268272 0)
(2.935773334 -0.001624716841 0)
(2.935589739 -0.000531635246 0)
(2.935249066 0.001499187844 0)
(2.934934248 0.002798709297 0)
(2.934637625 0.002969361799 0)
(2.934338364 0.00243904102 0)
(2.934289187 0.0009040791111 0)
(2.934415805 -0.0005615585648 0)
(2.934383722 -0.000896559349 0)
(2.934397737 -0.0006471272153 0)
(2.934352981 0.0002797985616 0)
(2.934158657 0.001540441029 0)
(2.934159882 0.002548992163 0)
(2.934833043 0.003016702706 0)
(2.935018298 0.002701113271 0)
(2.935073707 0.001693275134 0)
(2.935131308 -0.0003446963973 0)
(2.93501933 -0.002181332359 0)
(2.934846655 -0.002555414792 0)
(2.934729703 -0.002520534522 0)
(2.934951729 -0.001781578456 0)
(2.935165354 -0.001021493572 0)
(2.935291314 -0.0004338970791 0)
(2.935380112 0.0001810788689 0)
(2.935347734 0.001480669371 0)
(2.935262879 0.002682490238 0)
(2.935829588 0.002832844986 0)
(2.936446977 0.003014155203 0)
(2.936519414 0.001567039344 0)
(2.936461724 -2.61768058e-05 0)
(2.936483933 -0.001464550912 0)
(2.936423891 -0.002069191765 0)
(2.936464444 -0.001978889125 0)
(2.931348382 -0.003006507144 0)
(2.931229105 -0.004198453335 0)
(2.931353532 -0.002490574509 0)
(2.930952052 -0.0009804561099 0)
(2.93098192 0.0007181775014 0)
(2.930892169 0.001733893605 0)
(2.930654028 0.001927335777 0)
(2.930513934 0.001404925302 0)
(2.930689792 0.0003589069892 0)
(2.930894708 -0.0004945986102 0)
(2.930828583 -0.0008249753444 0)
(2.930775947 -0.0008134932646 0)
(2.931070748 -9.332979792e-05 0)
(2.931205273 0.001124886854 0)
(2.931255632 0.002070463864 0)
(2.930879943 0.002823112909 0)
(2.930703187 0.003101062622 0)
(2.930983049 0.002979282715 0)
(2.931311625 0.00206131542 0)
(2.931232651 0.0005530134944 0)
(2.931234856 -0.001166509037 0)
(2.931192038 -0.002032611255 0)
(2.931118375 -0.002566789033 0)
(2.931402517 -0.001952278592 0)
(2.931722487 -0.001647277331 0)
(2.931861272 -0.001022758886 0)
(2.931831571 -0.000219619414 0)
(2.931759718 0.001391210934 0)
(2.931816383 0.002352968163 0)
(2.932100239 0.002679473585 0)
(2.93268278 0.002950115614 0)
(2.933133 0.002086974488 0)
(2.933254781 0.0008574115749 0)
(2.933187757 -0.0006130364559 0)
(2.926902634 -0.002225087721 0)
(2.926921297 -0.003666113353 0)
(2.92678488 -0.004635119327 0)
(2.926975236 -0.002878031597 0)
(2.926784463 -0.001111494313 0)
(2.926733606 0.0009141069213 0)
(2.926891722 0.001496044194 0)
(2.927011446 0.001410324819 0)
(2.92708113 0.0007773430445 0)
(2.927140549 0.0001254242967 0)
(2.927313897 -0.0003467376181 0)
(2.927351336 -0.0003943798371 0)
(2.927294784 -0.0002705480432 0)
(2.927551126 0.0002428023368 0)
(2.92796389 0.0006904338228 0)
(2.928261207 0.001370176052 0)
(2.927529275 0.002545123678 0)
(2.92724349 0.002952692659 0)
(2.927173367 0.0032035338 0)
(2.927154382 0.003260270117 0)
(2.927363707 0.002915506097 0)
(2.927739762 0.001857750843 0)
(2.927981508 -0.0003366366863 0)
(2.927967079 -0.0020296257 0)
(2.928134951 -0.002522824907 0)
(2.928095423 -0.00255347235 0)
(2.928232997 -0.002293731682 0)
(2.92861183 -0.001666710587 0)
(2.928701849 -0.0008673273693 0)
(2.928688165 0.0008001382234 0)
(2.928563989 0.001907867473 0)
(2.92886522 0.002155374615 0)
(2.929059669 0.001993628393 0)
(2.92939656 0.001673174676 0)
(2.929671419 0.001054766626 0)
(2.923365743 -0.002317501684 0)
(2.923417234 -0.00363763704 0)
(2.923420747 -0.004305746987 0)
(2.92362778 -0.002518631231 0)
(2.923455081 -0.001235806308 0)
(2.923485025 0.0006119597427 0)
(2.923504222 0.001699808525 0)
(2.923622994 0.001716164112 0)
(2.923676692 0.0011062554 0)
(2.923598973 0.0006085446666 0)
(2.92358339 0.0003102371053 0)
(2.923816721 0.0002390806946 0)
(2.923919499 0.0004158847436 0)
(2.923882882 0.0006172654672 0)
(2.92395407 0.0006901922662 0)
(2.924205573 0.001082977037 0)
(2.924158698 0.001352363621 0)
(2.924304182 0.00204299487 0)
(2.924150198 0.002900716284 0)
(2.923816172 0.003250636138 0)
(2.923850867 0.003133270854 0)
(2.924205183 0.003006650761 0)
(2.92452701 0.002152147396 0)
(2.924949053 9.878361207e-05 0)
(2.924753197 -0.001899953821 0)
(2.924801149 -0.002659066196 0)
(2.924796973 -0.002927282819 0)
(2.924771583 -0.002724641076 0)
(2.925413997 -0.002172084844 0)
(2.925745816 -0.001257583972 0)
(2.925826072 -9.203175415e-05 0)
(2.925614775 0.001729203323 0)
(2.925264126 0.002167916168 0)
(2.925421203 0.002197940828 0)
(2.925958003 0.001844267886 0)
(2.920284637 -0.0008639289177 0)
(2.920372274 -0.002339122555 0)
(2.920333489 -0.002985814114 0)
(2.920417619 -0.001062519853 0)
(2.920198891 0.0002565280624 0)
(2.920270728 0.001868650083 0)
(2.920072219 0.002750258462 0)
(2.919820244 0.002626518639 0)
(2.920009955 0.001899392939 0)
(2.920413475 0.001385986633 0)
(2.920369474 0.0009256741899 0)
(2.920581011 0.0008918842806 0)
(2.920688766 0.001197064395 0)
(2.920504228 0.001120388575 0)
(2.920132054 0.0006251850051 0)
(2.920337565 0.0002462388404 0)
(2.920644819 -0.0004770365844 0)
(2.920558476 0.0001046631011 0)
(2.920281043 0.001295063447 0)
(2.920473094 0.002559106224 0)
(2.920825429 0.003417200022 0)
(2.920600347 0.003978627073 0)
(2.921078697 0.003534297684 0)
(2.921383588 0.002083429839 0)
(2.921416454 0.00046091231 0)
(2.921522522 -0.001169774206 0)
(2.921444512 -0.0024081419 0)
(2.921387496 -0.002964640385 0)
(2.921412401 -0.002934167216 0)
(2.921997456 -0.002571720164 0)
(2.922403469 -0.001691607484 0)
(2.92220679 0.0001209229088 0)
(2.921937754 0.001663650223 0)
(2.921871832 0.001999978767 0)
(2.922170525 0.0020373213 0)
(2.916831301 0.0009781690861 0)
(2.917007859 -0.0005648804893 0)
(2.916822363 -0.0008082128308 0)
(2.916680391 0.0006801878377 0)
(2.916599344 0.002019818991 0)
(2.91651181 0.003272219618 0)
(2.916371047 0.003539782475 0)
(2.91642585 0.003219188386 0)
(2.916985559 0.002429759673 0)
(2.917294366 0.001970519595 0)
(2.917188482 0.001440148606 0)
(2.917208086 0.001342638137 0)
(2.917315019 0.001442308718 0)
(2.917542329 0.0009903529549 0)
(2.917811053 0.0004007267503 0)
(2.917526175 -0.00054024038 0)
(2.917340053 -0.0009984028576 0)
(2.916992638 -0.0007229070024 0)
(2.916602952 -0.0003409307298 0)
(2.916615318 0.000672913102 0)
(2.917031833 0.002525535636 0)
(2.9169166 0.003474222367 0)
(2.917004576 0.003365964617 0)
(2.917412717 0.002396269962 0)
(2.917800272 0.001833111676 0)
(2.918072106 0.0009070299648 0)
(2.918069459 -0.0003733570179 0)
(2.918187581 -0.001862280754 0)
(2.91798236 -0.002796459676 0)
(2.917946347 -0.003066560035 0)
(2.918254736 -0.00248817473 0)
(2.918657777 -0.001258648108 0)
(2.918513243 0.00015864496 0)
(2.9185269 0.001610359805 0)
(2.918603628 0.00187680876 0)
(2.913143311 0.0006877163881 0)
(2.913299203 -0.0002871298938 0)
(2.913159426 -0.0005151315877 0)
(2.913413575 0.0007000096639 0)
(2.913383075 0.002312311643 0)
(2.913363541 0.003782470852 0)
(2.91367159 0.003666295392 0)
(2.913899508 0.003121008301 0)
(2.913972703 0.002527195028 0)
(2.913600174 0.002037993944 0)
(2.913445559 0.00142077725 0)
(2.913511557 0.001223879384 0)
(2.914119265 0.001129936273 0)
(2.914806312 0.0007060541301 0)
(2.915566559 -0.0002768951774 0)
(2.915106938 -0.001040385966 0)
(2.914248523 -0.001400824154 0)
(2.913947988 -0.001215065265 0)
(2.913880556 -0.0008873791018 0)
(2.914087642 -0.0005125191336 0)
(2.914199846 0.0001403138625 0)
(2.914447747 0.001727391607 0)
(2.914297495 0.002677727722 0)
(2.914051824 0.002529273786 0)
(2.914106153 0.002300136755 0)
(2.914415836 0.00184455364 0)
(2.914746071 0.001328480071 0)
(2.914848517 0.0003410923754 0)
(2.914868734 -0.001304668242 0)
(2.914646511 -0.002527054932 0)
(2.914476086 -0.002640663143 0)
(2.914700243 -0.002040441859 0)
(2.914912276 -0.000968871852 0)
(2.915026105 0.0001489532001 0)
(2.915259132 0.001176848987 0)
(2.910651625 8.081649269e-05 0)
(2.91062495 -0.0005567207183 0)
(2.91057012 -0.0002923375967 0)
(2.911011242 0.000667293586 0)
(2.910980763 0.002331233058 0)
(2.911002484 0.003659720635 0)
(2.911374143 0.003424302207 0)
(2.911060529 0.002656530281 0)
(2.910580684 0.002242393113 0)
(2.910454808 0.001685370637 0)
(2.910814768 0.001073355687 0)
(2.911237327 0.0007339996303 0)
(2.911646962 0.0001854395353 0)
(2.91212311 -7.272169505e-05 0)
(2.912426919 -0.0007490302444 0)
(2.91244116 -0.00111081864 0)
(2.911958449 -0.001415788654 0)
(2.911695356 -0.001651886286 0)
(2.911623273 -0.00185280749 0)
(2.911587312 -0.002094834978 0)
(2.911833447 -0.001799915208 0)
(2.912266435 -0.001296745094 0)
(2.911929204 9.089065121e-05 0)
(2.911469634 0.001781521677 0)
(2.911394799 0.002377272387 0)
(2.911206659 0.002414443516 0)
(2.911256556 0.002150857397 0)
(2.911432757 0.001619428579 0)
(2.911667494 0.0007833824702 0)
(2.911790974 -0.00082522357 0)
(2.911619207 -0.001894175331 0)
(2.911278144 -0.002133138281 0)
(2.911239742 -0.001582500225 0)
(2.91170318 -0.0007227204084 0)
(2.9120659 -0.0001968923031 0)
(2.908354714 -0.0009882727548 0)
(2.908422769 -0.001574901679 0)
(2.908450428 -0.0007255466462 0)
(2.908455504 4.888708536e-05 0)
(2.908301471 0.001683445633 0)
(2.908271527 0.002802058097 0)
(2.908205654 0.002833504642 0)
(2.90797461 0.002474504657 0)
(2.908040169 0.001767369246 0)
(2.908541143 0.0006249768942 0)
(2.908951388 5.119826073e-05 0)
(2.909246613 -0.0001968290088 0)
(2.909260842 -0.0006274861897 0)
(2.909303595 -0.0007366397604 0)
(2.909154819 -0.0008130088187 0)
(2.909099349 -0.0008707202771 0)
(2.90912828 -0.0008995789873 0)
(2.908963898 -0.001488711101 0)
(2.908806828 -0.002333228717 0)
(2.908599108 -0.002926697786 0)
(2.908609635 -0.003031601682 0)
(2.908978799 -0.002857108589 0)
(2.909017306 -0.002003448125 0)
(2.908647283 -0.000437274791 0)
(2.908550366 0.001440974262 0)
(2.908552767 0.002481313682 0)
(2.908188508 0.002573691147 0)
(2.907951129 0.002437812779 0)
(2.908238816 0.00198595524 0)
(2.908564025 0.001065429842 0)
(2.908806918 -0.0002257336862 0)
(2.908556194 -0.001315893964 0)
(2.908364341 -0.001651356602 0)
(2.908453738 -0.001363298262 0)
(2.908913349 -0.0009661135116 0)
(2.904653808 -0.001198953972 0)
(2.904989152 -0.001498801748 0)
(2.905402262 -0.00234101538 0)
(2.905566561 -0.001437044773 0)
(2.905599967 -0.0006959323062 0)
(2.905460046 0.0008918189931 0)
(2.905279035 0.002223853953 0)
(2.905119366 0.002545983167 0)
(2.905480378 0.002215039095 0)
(2.906089228 0.00100857131 0)
(2.906474642 -0.0008239144345 0)
(2.906683224 -0.001350476523 0)
(2.906601938 -0.001369076626 0)
(2.90629124 -0.001097038314 0)
(2.906104224 -0.0007779708606 0)
(2.905786656 -0.0003890274292 0)
(2.905535099 -0.0001989228868 0)
(2.905196919 8.827352324e-05 0)
(2.904983429 -0.0002149272206 0)
(2.904892596 -0.00148865381 0)
(2.904978682 -0.002610845875 0)
(2.904871974 -0.003229506131 0)
(2.904903139 -0.003198483293 0)
(2.905393354 -0.00268482343 0)
(2.905660337 -0.002142386628 0)
(2.905500507 -0.0007614384225 0)
(2.905345528 0.001102512481 0)
(2.905277251 0.002422850997 0)
(2.905077609 0.002584209259 0)
(2.904728588 0.002369399781 0)
(2.904848832 0.001961846662 0)
(2.905109092 0.001162293168 0)
(2.905483323 0.0002819902799 0)
(2.905671073 -0.0009642362215 0)
(2.905562614 -0.001450637107 0)
(2.905674888 -0.001323750571 0)
(2.90127932 -0.0007232798319 0)
(2.901222719 -0.001380577947 0)
(2.901677741 -0.002635392007 0)
(2.902221477 -0.001770134414 0)
(2.902275336 -0.0008897094856 0)
(2.902277203 0.000629807983 0)
(2.902018946 0.00189688185 0)
(2.902243464 0.002138097195 0)
(2.903169032 0.001618590639 0)
(2.903377132 0.0004766074343 0)
(2.902915787 -0.0006578427689 0)
(2.902793518 -0.00102144024 0)
(2.903039134 -0.0009383440319 0)
(2.902882159 -0.0003291177993 0)
(2.902799012 0.0001084854938 0)
(2.902685848 0.0004068322758 0)
(2.902149981 0.000534771398 0)
(2.90153867 0.0003647345966 0)
(2.901057468 6.287892013e-05 0)
(2.900679336 -0.0008452708097 0)
(2.901024393 -0.001256942902 0)
(2.901296477 -0.001815677132 0)
(2.901287356 -0.00233941682 0)
(2.901641688 -0.002381415354 0)
(2.90212627 -0.002508757022 0)
(2.902472996 -0.002097199541 0)
(2.902386064 -0.001205042132 0)
(2.902247222 0.0004300835714 0)
(2.902126349 0.002109649365 0)
(2.901861849 0.002496915662 0)
(2.901421612 0.002194247936 0)
(2.901250559 0.001793021295 0)
(2.9015787 0.001313949117 0)
(2.902086805 0.000449366099 0)
(2.90251257 -0.0006911587726 0)
(2.902403262 -0.001272553279 0)
(2.898181012 0.0001203332427 0)
(2.897986836 -0.0004354008021 0)
(2.898226782 -0.002020707987 0)
(2.89870663 -0.001491096888 0)
(2.898884116 -0.0006950410772 0)
(2.899080805 0.0006627225923 0)
(2.899060763 0.001816885327 0)
(2.899182208 0.002015246875 0)
(2.899353151 0.001405731994 0)
(2.899181 0.0005993714961 0)
(2.899138822 0.0001619755012 0)
(2.899085532 -0.0002957635805 0)
(2.899276095 -0.0001509999421 0)
(2.89947964 0.0004825235614 0)
(2.899781315 0.001018425109 0)
(2.899889777 0.00123922839 0)
(2.899437737 0.001222920946 0)
(2.89891717 0.001103587526 0)
(2.898334298 0.0009768831665 0)
(2.897932786 0.0005244327602 0)
(2.897855666 -1.651226634e-05 0)
(2.897930066 -0.0003431496021 0)
(2.898045673 -0.0007044892077 0)
(2.898265373 -0.001515929101 0)
(2.898541465 -0.002244018353 0)
(2.898865141 -0.002292781398 0)
(2.899276419 -0.0022465524 0)
(2.899372803 -0.001802554811 0)
(2.899040719 -0.0002147429729 0)
(2.898802268 0.001655417909 0)
(2.898675705 0.002208415129 0)
(2.898429559 0.001898739625 0)
(2.898160295 0.00178427785 0)
(2.898411464 0.001158662643 0)
(2.898677916 0.0005619424467 0)
(2.899047002 -0.0003153609996 0)
(2.894503866 0.0006463829413 0)
(2.894541896 0.0005896369898 0)
(2.894661523 -0.0007030422582 0)
(2.895111111 -0.0004075842144 0)
(2.895218729 0.0001469894768 0)
(2.895351802 0.00125006054 0)
(2.895283444 0.00231655255 0)
(2.895083051 0.002473576992 0)
(2.895067445 0.001717001011 0)
(2.895288068 0.0009043108317 0)
(2.89564716 0.0006265597713 0)
(2.895874729 0.0006311842678 0)
(2.895862408 0.0009980661965 0)
(2.896151245 0.001501428269 0)
(2.896625759 0.001850439623 0)
(2.89673753 0.001974289083 0)
(2.8964908 0.001935036974 0)
(2.896242519 0.001860250851 0)
(2.895860101 0.0018506483 0)
(2.895632123 0.0015554034 0)
(2.895038924 0.001134438724 0)
(2.894798065 0.0009344305092 0)
(2.894794153 0.0007479589723 0)
(2.894861725 -0.0003349321487 0)
(2.895188454 -0.001292776323 0)
(2.895296747 -0.00186367268 0)
(2.89547973 -0.002305963759 0)
(2.895826062 -0.002511329856 0)
(2.895975813 -0.002257814933 0)
(2.895684878 -0.0008998726486 0)
(2.895578848 0.001112035359 0)
(2.895663203 0.001990311727 0)
(2.8954578 0.001964294873 0)
(2.895198769 0.001596641085 0)
(2.895130314 0.001445905462 0)
(2.895417116 0.000800555358 0)
(2.890450023 0.0004890464751 0)
(2.890477724 0.001095323249 0)
(2.890616786 0.000337467315 0)
(2.891267316 0.0004983932388 0)
(2.891233102 0.0007964075515 0)
(2.891158126 0.00177297253 0)
(2.891034215 0.002542324948 0)
(2.891001765 0.002543614198 0)
(2.891254706 0.001879119452 0)
(2.891434415 0.00139603367 0)
(2.891704993 0.001229540546 0)
(2.891942001 0.001388539871 0)
(2.892162538 0.001647300222 0)
(2.892498856 0.001816257809 0)
(2.892686902 0.001909715798 0)
(2.892612659 0.002034096014 0)
(2.892305458 0.002093560782 0)
(2.892153225 0.002229528524 0)
(2.891855371 0.002470273434 0)
(2.891547019 0.002384189758 0)
(2.891232154 0.002089078087 0)
(2.891119353 0.002010377603 0)
(2.891170019 0.001749483976 0)
(2.891180333 0.0007395238281 0)
(2.891452418 -0.0002032505376 0)
(2.891686096 -0.0009209307468 0)
(2.891746063 -0.001752211978 0)
(2.891617192 -0.002490946662 0)
(2.89201782 -0.002692923946 0)
(2.892304893 -0.00268098361 0)
(2.892128799 -0.001480844533 0)
(2.892006888 0.000685862139 0)
(2.892045524 0.002131889097 0)
(2.891948638 0.002138865657 0)
(2.89178288 0.002128613725 0)
(2.891602118 0.001690785424 0)
(2.8860996 0.0001410109965 0)
(2.886407049 0.0009897747736 0)
(2.886805069 0.0005551289341 0)
(2.887381622 0.0007444806183 0)
(2.887193083 0.001259041145 0)
(2.887021712 0.002104279706 0)
(2.886915948 0.002600343608 0)
(2.886816946 0.002497872773 0)
(2.886701456 0.002038504492 0)
(2.886737108 0.001497815097 0)
(2.887113616 0.001102458692 0)
(2.887672366 0.001107946725 0)
(2.888018705 0.001150147334 0)
(2.888361112 0.001027745847 0)
(2.888283155 0.0008531348235 0)
(2.888070367 0.0006960468044 0)
(2.887641891 0.0007359640377 0)
(2.887357691 0.001058080177 0)
(2.886972175 0.00181617744 0)
(2.886749348 0.002450313938 0)
(2.886727891 0.002724779558 0)
(2.886789735 0.002634733672 0)
(2.886864421 0.002060473356 0)
(2.887092591 0.001190358168 0)
(2.887449664 0.0005239118027 0)
(2.887696147 -7.181307297e-05 0)
(2.887925957 -0.0007920403811 0)
(2.887836912 -0.001631509258 0)
(2.887618866 -0.002693646889 0)
(2.888045522 -0.003053788214 0)
(2.888422939 -0.002969767554 0)
(2.88830241 -0.001707878225 0)
(2.888216078 0.0005206236548 0)
(2.88828781 0.002447527766 0)
(2.888102535 0.002563451393 0)
(2.887944085 0.00198626402 0)
(2.881284619 -0.0001190998867 0)
(2.882054237 0.0005257115917 0)
(2.882709349 0.0006862678458 0)
(2.882936809 0.001052721811 0)
(2.882595462 0.001745430815 0)
(2.882307392 0.002451805695 0)
(2.881927957 0.002539564755 0)
(2.88183537 0.001977454908 0)
(2.881917031 0.001351411939 0)
(2.882114014 0.0005931596551 0)
(2.882624543 0.0001046037491 0)
(2.883026543 3.939270226e-05 0)
(2.883282766 0.0004296144391 0)
(2.883550876 0.0008169751821 0)
(2.883572899 0.0006033283047 0)
(2.883403759 0.0003119878583 0)
(2.883108047 0.0001472440462 0)
(2.882843009 -0.0001737049086 0)
(2.882453113 9.791586569e-05 0)
(2.882256201 0.0005235866483 0)
(2.882334314 0.001544079952 0)
(2.882655727 0.002431776569 0)
(2.883079679 0.002149148002 0)
(2.883198971 0.001585562618 0)
(2.883584779 0.001101295683 0)
(2.883893159 0.0005492974244 0)
(2.884156396 0.0001313505136 0)
(2.884374222 -0.0005242021828 0)
(2.884249612 -0.001530922063 0)
(2.883825252 -0.002753487693 0)
(2.884318002 -0.002765664579 0)
(2.8845646 -0.002530380065 0)
(2.884635994 -0.001737292535 0)
(2.88454591 0.0007650866675 0)
(2.884638499 0.002495570018 0)
(2.876415184 -0.0002216835873 0)
(2.876826846 -0.0001676335422 0)
(2.87764592 -0.0003667590771 0)
(2.878465372 -2.761263077e-05 0)
(2.87850515 0.0004454855735 0)
(2.878216527 0.001226397129 0)
(2.877788839 0.001895442194 0)
(2.877275675 0.001861627612 0)
(2.877259724 0.001344509263 0)
(2.877415587 0.0007820451409 0)
(2.877709277 0.0003373680582 0)
(2.878048911 -5.765892327e-05 0)
(2.878228555 -0.0002303406782 0)
(2.878417868 0.0001024122606 0)
(2.878865866 0.0003786829478 0)
(2.879157976 0.0001468803757 0)
(2.879080165 -0.0001860456426 0)
(2.878948239 -0.0004301825002 0)
(2.878687029 -0.0008125528562 0)
(2.878640655 -0.0007878900363 0)
(2.878805163 -0.0007644206028 0)
(2.879005341 -0.0003804908516 0)
(2.879272903 0.0001939774536 0)
(2.879734551 0.00116301072 0)
(2.880097437 0.001649916996 0)
(2.880381667 0.001432275044 0)
(2.880686101 0.0009815957669 0)
(2.881008289 0.0007972868484 0)
(2.881236969 0.0004974007579 0)
(2.881309595 -0.0003634354879 0)
(2.881107677 -0.001307995415 0)
(2.880684856 -0.002351355031 0)
(2.880840332 -0.002366436442 0)
(2.881197976 -0.002385327798 0)
(2.881320356 -0.001350496849 0)
(2.8813875 0.0005361886048 0)
(2.872685556 0.0004179643758 0)
(2.873202108 3.460897046e-05 0)
(2.873889769 -0.0008546316006 0)
(2.874666794 -0.001183807815 0)
(2.874566505 -0.000709338248 0)
(2.874305118 0.0001964563518 0)
(2.87385037 0.001106414052 0)
(2.873377846 0.001486387695 0)
(2.873186165 0.001424597599 0)
(2.873255099 0.001041181868 0)
(2.873639863 0.0004612036235 0)
(2.873990309 -9.343572776e-06 0)
(2.874466258 -8.434051116e-05 0)
(2.875040693 0.0002455729522 0)
(2.875731352 0.0003217649288 0)
(2.876092225 7.442754145e-05 0)
(2.876088901 -0.00027253396 0)
(2.876098974 -0.0007098252574 0)
(2.875886663 -0.001106138266 0)
(2.875914881 -0.001461008559 0)
(2.87598548 -0.001846402449 0)
(2.876168403 -0.001871779135 0)
(2.876679334 -0.001518140019 0)
(2.87690059 -0.0006865677102 0)
(2.877593044 0.0007928610896 0)
(2.878065541 0.001751932679 0)
(2.878335624 0.001638353768 0)
(2.878553579 0.001557640783 0)
(2.878627027 0.0011413478 0)
(2.878724192 0.0007413419397 0)
(2.879049768 -0.0002324378717 0)
(2.878725603 -0.001114151177 0)
(2.878495527 -0.001773868733 0)
(2.878330533 -0.002220102627 0)
(2.878545245 -0.002119706896 0)
(2.878943127 -0.001373616328 0)
(2.869740617 0.0003994716992 0)
(2.870226633 0.0004293816108 0)
(2.87085188 -0.0006130997687 0)
(2.871635938 -0.00118133348 0)
(2.871579782 -0.0006021658061 0)
(2.871247949 0.0002939478689 0)
(2.870804242 0.001356767066 0)
(2.870479959 0.001954459845 0)
(2.870449048 0.002012210483 0)
(2.870709935 0.00155418199 0)
(2.871200952 0.0008954065095 0)
(2.871672709 0.0004293128734 0)
(2.87227695 0.0002822976707 0)
(2.872979715 0.0004360693339 0)
(2.873567745 0.0004437259012 0)
(2.873853676 0.0002458859801 0)
(2.873872303 -7.758201853e-05 0)
(2.873894132 -0.000509382541 0)
(2.873838785 -0.0009837412568 0)
(2.873777382 -0.0016716566 0)
(2.873690986 -0.002254702097 0)
(2.873788828 -0.002424564204 0)
(2.874023216 -0.002578119215 0)
(2.874859982 -0.00191592373 0)
(2.875633654 -0.0008249011492 0)
(2.876308666 0.001069237986 0)
(2.876720972 0.002046761013 0)
(2.876825477 0.002185111885 0)
(2.876850451 0.001717961443 0)
(2.876925369 0.001378153732 0)
(2.877062897 0.0007835019079 0)
(2.877263744 -0.0001481986187 0)
(2.876955616 -0.001135631659 0)
(2.876647086 -0.001818636983 0)
(2.876568643 -0.00217134656 0)
(2.877120144 -0.002026283771 0)
(2.867664737 -0.0002157525529 0)
(2.868179168 0.0003578317914 0)
(2.869138714 -1.537695618e-05 0)
(2.869852008 -0.0008634821927 0)
(2.869951148 -0.000354039205 0)
(2.869635551 0.0005720595559 0)