/*--------------------------------*- C++ -*----------------------------------*\
  =========                 |
  \\      /  F ield         | OpenFOAM: The Open Source CFD Toolbox
   \\    /   O peration     | Website:  https://openfoam.org
    \\  /    A nd           | Version:  7
     \\/     M anipulation  |
\*---------------------------------------------------------------------------*/
FoamFile
{
    version     2.0;
    format      ascii;
    class       volVectorField;
    location    "3.7";
    object      U;
}
// * * * * * * * * * * * * * * * * * * * * * * * * * * * * * * * * * * * * * //

dimensions      [0 1 -1 0 0 0 0];

internalField   nonuniform List<vector> 
138
(
(3.15421276 0.002886213857 0)
(3.187380874 -0.00975190346 0)
(3.202130535 -0.00624217909 0)
(3.049800396 -0.03230811018 0)
(3.045269498 -0.07055607937 0)
(3.120974459 -0.006926983719 0)
(3.144705095 0.008782966855 0)
(3.179418474 0.009726933056 0)
(3.19576198 -0.007732633678 0)
(3.073392052 -0.08378838669 0)
(3.108422222 -0.066489096 0)
(3.15105365 -0.01060091357 0)
(3.167348683 -0.01108377295 0)
(3.189803507 -0.000485113704 0)
(3.210533892 3.294908825e-05 0)
(3.179211048 -0.1299979378 0)
(3.241606279 -0.1160813413 0)
(3.204888884 -0.02383716137 0)
(3.214480028 0.001562634173 0)
(3.223589883 0.01813840001 0)
(3.236318259 0.008248538446 0)
(3.279339961 -0.184883995 0)
(3.323061008 -0.1620576556 0)
(3.269798342 -0.05877472112 0)
(3.254491047 -0.009670315189 0)
(3.261787509 0.01451828756 0)
(3.261182167 0.01644257315 0)
(3.316201296 -0.2418127227 0)
(3.355304299 -0.199941073 0)
(3.324984911 -0.09796539361 0)
(3.286445503 -0.0102264845 0)
(3.291433594 0.01554487037 0)
(3.28914941 0.01803705354 0)
(3.276880049 0.005217482883 0)
(3.333171969 -0.2822538783 0)
(3.371832863 -0.2434247363 0)
(3.346174666 -0.1298135926 0)
(3.303001979 -0.01770593444 0)
(3.30534695 0.007784326511 0)
(3.306683319 0.01276851965 0)
(3.30176466 -0.008045610645 0)
(3.346858564 -0.3149308758 0)
(3.381274062 -0.2618722882 0)
(3.353412229 -0.2022819656 0)
(3.308497261 -0.04387291368 0)
(3.298430519 0.01168039372 0)
(3.304602966 0.02168181187 0)
(3.310817505 -0.008362347492 0)
(3.357254478 -0.3418323224 0)
(3.392488978 -0.2809641619 0)
(3.352409437 -0.2424452643 0)
(3.30673803 -0.08610288349 0)
(3.280932746 0.008693249469 0)
(3.291278893 0.02853313833 0)
(3.300023753 0.005331475245 0)
(3.375216421 -0.370570485 0)
(3.401257 -0.2922183365 0)
(3.360342715 -0.2845783686 0)
(3.30371711 -0.1195429521 0)
(3.266663249 -0.001884184333 0)
(3.270470071 0.02955925729 0)
(3.281118059 0.01936139562 0)
(3.378369563 -0.3844048176 0)
(3.40505344 -0.3149253342 0)
(3.369228381 -0.3086081746 0)
(3.296726309 -0.1382057048 0)
(3.257271158 -0.01717615749 0)
(3.253037479 0.02697575279 0)
(3.256841286 0.0213656783 0)
(3.385117853 -0.4050131505 0)
(3.408530058 -0.3338568905 0)
(3.380885437 -0.3470756727 0)
(3.292907317 -0.2084195481 0)
(3.241847447 -0.02594762534 0)
(3.225862709 0.02389527109 0)
(3.228027144 0.01865647529 0)
(3.390048147 -0.4207709146 0)
(3.412707702 -0.3491036154 0)
(3.392684727 -0.3574676573 0)
(3.291533535 -0.2697666553 0)
(3.212354713 -0.04054800034 0)
(3.192192703 0.02665368639 0)
(3.193924275 0.01530389916 0)
(3.193182891 -0.005130497327 0)
(3.386314243 -0.4266970949 0)
(3.414807063 -0.3565218396 0)
(3.40598776 -0.3739077219 0)
(3.286830678 -0.3185535168 0)
(3.170425999 -0.1040511581 0)
(3.152179032 0.01610641355 0)
(3.149259509 0.01315892949 0)
(3.144193403 -0.00709549702 0)
(3.386287505 -0.4362999479 0)
(3.417204014 -0.3664627317 0)
(3.417467984 -0.381736957 0)
(3.285493154 -0.3539584976 0)
(3.139307954 -0.1786116304 0)
(3.095399962 0.0003739943577 0)
(3.099471138 0.01570040925 0)
(3.096380133 0.004333332703 0)
(3.38149403 -0.4396517091 0)
(3.423265523 -0.3806675203 0)
(3.428948356 -0.3900150203 0)
(3.288200086 -0.3773758819 0)
(3.097702982 -0.192894433 0)
(3.043937907 -0.02234256713 0)
(3.049320493 0.02245828636 0)
(3.049689413 0.01926444782 0)
(3.377233719 -0.4443999014 0)
(3.428630053 -0.38859894 0)
(3.440321183 -0.3936906393 0)
(3.289504817 -0.3951881033 0)
(3.069502556 -0.2148710386 0)
(2.976235954 -0.02461975373 0)
(2.98915747 0.02362140286 0)
(2.987178488 0.02190767367 0)
(3.368471634 -0.4460675817 0)
(3.435661593 -0.3950110544 0)
(3.453529924 -0.3990701822 0)
(3.288785122 -0.419332092 0)
(3.059801484 -0.2883045531 0)
(2.899695696 -0.03421994152 0)
(2.908660757 0.0215616567 0)
(2.916485523 0.01667430282 0)
(3.352357783 -0.4493593042 0)
(3.444877342 -0.4018087969 0)
(3.467275326 -0.4005394601 0)
(3.284250531 -0.422017931 0)
(3.04674826 -0.3288706332 0)
(2.856145252 -0.09554760716 0)
(2.833845941 0.009006915427 0)
(2.855252 0.004438755909 0)
(3.329329919 -0.4518699977 0)
(3.45214716 -0.4046401446 0)
(3.479219962 -0.4009074398 0)
(3.277860935 -0.4288828741 0)
(3.038318164 -0.3615691445 0)
(2.846871646 -0.1550216199 0)
)
;

boundaryField
{
    inlet
    {
        type            fixedValue;
        value           nonuniform 0();
    }
    outlet
    {
        type            inletOutlet;
        inletValue      nonuniform 0();
        value           nonuniform 0();
    }
    bottom
    {
        type            slip;
    }
    top
    {
        type            slip;
    }
    obstacle
    {
        type            slip;
    }
    defaultFaces
    {
        type            empty;
    }
    procBoundary21to15
    {
        type            processor;
        value           nonuniform List<vector> 7((3.170389832 0.007750600522 0) (3.194307693 -0.009509596253 0) (3.211366829 -0.006265279044 0) (3.054580221 0.02606081149 0) (3.06004514 0.0402642824 0) (3.124042838 0.005387428742 0) (3.124042838 0.005387428742 0));
    }
    procBoundary21to16
    {
        type            processor;
        value           uniform (3.205474328 -0.01033779946 0);
    }
    procBoundary21to22
    {
        type            processor;
        value           nonuniform List<vector> 
18
(
(3.206346396 -0.01446912295 0)
(3.216332347 -0.001831139475 0)
(3.231618557 0.01102177512 0)
(3.252456501 0.01111905852 0)
(3.252456501 0.01111905852 0)
(3.275668871 -0.004095819328 0)
(3.297495643 -0.01373803835 0)
(3.304503182 -0.01255318377 0)
(3.293132039 -0.003462158136 0)
(3.274912811 0.008773443681 0)
(3.254383979 0.01088896243 0)
(3.23003099 0.004340150539 0)
(3.23003099 0.004340150539 0)
(3.182993779 -0.01034865049 0)
(3.134323579 -0.01059807474 0)
(3.092463739 0.001266301703 0)
(3.045332116 0.01177946015 0)
(2.982008546 0.01071115852 0)
)
;
    }
    procBoundary21to27
    {
        type            processor;
        value           nonuniform List<vector> 9((2.782521258 -0.007522232975 0) (2.808008868 -0.001645674789 0) (3.304388426 -0.4543933388 0) (3.464386158 -0.4078366269 0) (3.497271618 -0.4007889132 0) (3.270949807 -0.4296336692 0) (3.032768572 -0.3819247555 0) (2.782521258 -0.007522232975 0) (2.851045857 -0.1912385847 0));
    }
    procBoundary21to28
    {
        type            processor;
        value           nonuniform List<vector> 2((2.917400349 0.004635831999 0) (2.867738553 -0.00740049926 0));
    }
}


// ************************************************************************* //
