/*--------------------------------*- C++ -*----------------------------------*\
  =========                 |
  \\      /  F ield         | OpenFOAM: The Open Source CFD Toolbox
   \\    /   O peration     | Website:  https://openfoam.org
    \\  /    A nd           | Version:  7
     \\/     M anipulation  |
\*---------------------------------------------------------------------------*/
FoamFile
{
    version     2.0;
    format      ascii;
    class       volScalarField;
    location    "0.4";
    object      rho;
}
// * * * * * * * * * * * * * * * * * * * * * * * * * * * * * * * * * * * * * //

dimensions      [1 -3 0 0 0 0 0];

internalField   nonuniform List<scalar> 
2222
(
1.429082923
1.445360953
1.448029174
1.451500613
1.45310895
1.453381912
1.45320881
1.451847489
1.44848954
1.447091211
1.447238964
1.446034905
1.44057776
1.4375258
1.435194915
1.431223578
1.428374454
1.424869352
0.9181248152
0.9139557062
0.9114697879
0.9088261294
0.9101619146
0.9276006435
0.9717147026
1.07009696
1.174224643
1.277578915
1.317922868
1.358799184
1.379603969
1.400017747
1.422784173
1.44089539
1.449239412
1.451188629
1.45138989
1.451618779
1.451431019
1.449881609
1.446678805
1.445627703
1.445664716
1.443373317
1.437960663
1.435961316
1.433106359
1.429062574
1.426797703
1.423733115
0.9090098774
0.908325336
0.9091640704
0.9185906699
0.9536855087
1.043053758
1.146119448
1.217163691
1.284842131
1.308971139
1.327167543
1.360623752
1.39220695
1.414593475
1.430632693
1.44121461
1.447888901
1.449752394
1.449841139
1.45011395
1.450019819
1.44831758
1.445412689
1.444740437
1.444264971
1.440331878
1.43613084
1.434581769
1.430661461
1.427133801
1.425819524
1.422967391
0.9066020737
0.9118059595
0.9412670783
1.0154343
1.115304919
1.215694757
1.296472276
1.314675192
1.332251701
1.328463025
1.332011666
1.351537622
1.385012562
1.42014667
1.437671818
1.441865959
1.446511461
1.448348407
1.448586835
1.448788412
1.448637342
1.446545315
1.444062059
1.443711259
1.44242614
1.437478724
1.43481674
1.432916509
1.428157325
1.425452118
1.424594817
1.421849391
0.9277857096
0.9859820869
1.093441748
1.184951165
1.26856667
1.28356777
1.313580564
1.328647657
1.338981168
1.345160397
1.349772082
1.361735204
1.387553397
1.419410775
1.443327301
1.447255787
1.448514512
1.449095321
1.448174496
1.447666487
1.447017039
1.444418787
1.442706253
1.44238457
1.439959059
1.435125268
1.433461443
1.430931852
1.425831262
1.423894156
1.422798057
1.42037103
1.063958022
1.175462659
1.269315109
1.306610148
1.330082249
1.324720609
1.321162601
1.325422914
1.333467187
1.345700213
1.358419672
1.371876877
1.391701401
1.421179679
1.44332682
1.448234005
1.448707953
1.448118715
1.447249242
1.446716406
1.445760146
1.443277289
1.442003079
1.441083324
1.437245258
1.433558788
1.432181847
1.428756561
1.423794635
1.422211266
1.420698996
1.41885971
1.220751514
1.282186475
1.295477782
1.316385967
1.333860704
1.333421986
1.330399584
1.330582304
1.334882431
1.342790417
1.358733606
1.377581433
1.398946715
1.427926588
1.443631599
1.447106671
1.447588311
1.44733947
1.446315842
1.44579239
1.444654903
1.442575957
1.441741513
1.439914424
1.435150598
1.432695487
1.431094956
1.426624008
1.422474609
1.420423627
1.418970907
1.417780191
1.322542695
1.331103667
1.319245001
1.31748235
1.3231731
1.330351746
1.333492901
1.335410339
1.337226192
1.34388621
1.357043206
1.379472925
1.403947863
1.432743756
1.44362245
1.445496808
1.446032
1.446228516
1.445865168
1.445085661
1.443427608
1.441787895
1.440912644
1.438259425
1.433672338
1.432139207
1.429920893
1.424599575
1.421331259
1.418888619
1.417621234
1.416930366
1.333662419
1.33642563
1.334521683
1.328233221
1.3268842
1.328227818
1.332463414
1.33587574
1.340600672
1.347294584
1.360012832
1.379262572
1.40551286
1.434024777
1.443792584
1.444904931
1.445391479
1.445838743
1.446186544
1.445348305
1.442897114
1.441290368
1.439927966
1.436067594
1.432611559
1.43146803
1.428016506
1.422842072
1.420151108
1.417482883
1.416284807
1.41608203
1.326577234
1.331554819
1.335045778
1.33382719
1.331625886
1.329826475
1.331235411
1.33491549
1.34092862
1.351116278
1.364591194
1.382374002
1.406870856
1.433648059
1.443056053
1.444453578
1.445199812
1.445653907
1.445598239
1.444563224
1.442108284
1.440528754
1.438413583
1.433987023
1.432109241
1.430472238
1.425445308
1.421497718
1.418820899
1.415913259
1.414860961
1.415008845
1.330577128
1.328640903
1.330692451
1.332953205
1.332779178
1.332061579
1.332484513
1.334809779
1.340406229
1.352176166
1.369283635
1.387299107
1.409955526
1.433902496
1.441975275
1.443576422
1.444530517
1.444988638
1.444908618
1.443675124
1.441629932
1.439957584
1.43685675
1.43315998
1.431897279
1.428982151
1.423361189
1.420454742
1.417520861
1.414575889
1.413714135
1.414034407
1.335953143
1.330709638
1.328857352
1.329718557
1.331337624
1.332365716
1.333442453
1.335563472
1.34145673
1.353316096
1.371428549
1.39207728
1.414855212
1.435060142
1.441241985
1.442697814
1.443555829
1.444059032
1.444007271
1.442963641
1.441423342
1.439568642
1.435913036
1.433344123
1.431825679
1.427169447
1.422053782
1.419568667
1.416387461
1.413620637
1.412886884
1.413269631
1.337283027
1.334064348
1.330039641
1.329834364
1.330011306
1.331417932
1.333653589
1.336662713
1.343192855
1.355278347
1.373128371
1.395146388
1.417599814
1.436003804
1.441431597
1.442629833
1.443175764
1.443288371
1.443207091
1.442415663
1.441263554
1.439141557
1.435531432
1.433977872
1.431637933
1.425466831
1.421076153
1.418688185
1.415312675
1.412794021
1.412136722
1.412508492
1.335605266
1.334118081
1.331976569
1.330323325
1.330383441
1.330961793
1.333041432
1.33758148
1.345661431
1.358335382
1.375882219
1.397532833
1.41885832
1.43515171
1.439829097
1.440928944
1.441467425
1.441914469
1.442380726
1.442356776
1.441434566
1.438585027
1.435621948
1.434308095
1.430949455
1.423925984
1.420098752
1.417685632
1.414172013
1.411920462
1.411375667
1.411779169
1.33381587
1.333345132
1.332243992
1.331309706
1.331281479
1.331986978
1.334262197
1.338972564
1.348065191
1.361983977
1.379814551
1.400581664
1.419596873
1.43386812
1.438996568
1.440231442
1.440903451
1.441355864
1.441653211
1.441636565
1.44079785
1.438069097
1.435863396
1.434333003
1.429801857
1.422593722
1.419255765
1.416829779
1.413288236
1.411267832
1.410824144
1.411225147
1.334338299
1.332545756
1.33189588
1.331926704
1.332231337
1.33317503
1.3353555
1.340029079
1.349367401
1.364225373
1.383476258
1.404208219
1.421268832
1.433323046
1.438742099
1.440308523
1.441225925
1.441700759
1.441846822
1.441857542
1.440598812
1.437864112
1.435809062
1.433978049
1.428720942
1.42196142
1.418792715
1.416271012
1.412704815
1.410744809
1.410364223
1.410731505
1.335094722
1.33365797
1.332789696
1.332723077
1.332990982
1.333882193
1.336252005
1.341162035
1.350433222
1.365277074
1.385198326
1.406641343
1.423464245
1.434098457
1.437721128
1.43883259
1.439512269
1.439816309
1.439965056
1.440109824
1.439771092
1.43811095
1.436004044
1.43370029
1.428140666
1.421760421
1.418550659
1.415835868
1.412199716
1.410174953
1.409819741
1.410174584
1.335720707
1.334952537
1.333821422
1.333383023
1.333516277
1.334193493
1.336676126
1.342047545
1.351548503
1.366202478
1.386185778
1.407906887
1.425143682
1.435052142
1.437781209
1.438327583
1.438727116
1.438873687
1.438949024
1.439061226
1.438968318
1.438339328
1.436419433
1.433612062
1.427802287
1.421788369
1.418452821
1.415587513
1.41185386
1.409710332
1.40931702
1.409643431
1.336414099
1.335799902
1.334986936
1.3344506
1.33426784
1.334705727
1.337086785
1.342847098
1.35275651
1.367323849
1.3870699
1.408715556
1.426162284
1.436015192
1.437931143
1.437953037
1.438060757
1.438211418
1.438369135
1.438634898
1.43854704
1.437994482
1.436948913
1.434292129
1.428074434
1.421974096
1.418487171
1.415503557
1.41163814
1.409340499
1.408932663
1.409222501
1.336651667
1.3360442
1.335362164
1.335026186
1.334898124
1.335316162
1.33773298
1.34367193
1.353868655
1.368581554
1.388158632
1.409588501
1.426665443
1.436447563
1.437957233
1.437775259
1.437663811
1.437684607
1.438373642
1.43892336
1.4389553
1.438233237
1.436524905
1.433570167
1.427673752
1.422069762
1.418617789
1.415492013
1.411587478
1.409057259
1.408591328
1.408816774
1.336614222
1.335953138
1.335352561
1.335133883
1.335056194
1.335680863
1.338352258
1.344467849
1.354845101
1.369772396
1.389539566
1.410632368
1.426962853
1.435878728
1.437858431
1.437727458
1.4375525
1.437336165
1.437253465
1.437572104
1.437845279
1.437659312
1.436107726
1.433036834
1.427378125
1.422083634
1.418871888
1.415740398
1.411644896
1.40889666
1.408307523
1.408469855
1.336397246
1.335714722
1.335226479
1.335089636
1.335139223
1.335989862
1.33890608
1.345255823
1.355757294
1.370868391
1.391183433
1.411773545
1.427107016
1.435127033
1.437288324
1.437518067
1.437563985
1.437357637
1.43705824
1.437180372
1.437430387
1.43722201
1.435739045
1.432555692
1.426959107
1.42207108
1.418816392
1.415449126
1.41166431
1.408955667
1.408067829
1.408135897
1.335931097
1.335408462
1.335086778
1.335018151
1.335162615
1.336232319
1.339445745
1.346063262
1.356598464
1.371914549
1.392775915
1.412591455
1.42717773
1.434710981
1.436866494
1.437520055
1.437366616
1.436756999
1.436972475
1.437464354
1.43768941
1.437429944
1.435904823
1.43233427
1.42649127
1.422249255
1.418844287
1.415207728
1.411790497
1.409059771
1.407778864
1.407729248
1.335381675
1.335203157
1.335035181
1.334983161
1.335294911
1.33671772
1.3401417
1.346929506
1.35750696
1.373070068
1.394126301
1.41300617
1.426798695
1.434244575
1.436793738
1.437456082
1.437042174
1.436315935
1.436190692
1.436337108
1.436346496
1.435936366
1.434222598
1.430835814
1.426339715
1.42189792
1.418369553
1.414854538
1.411329283
1.408872721
1.407520886
1.407258702
1.335077356
1.335056727
1.335083971
1.33515391
1.335638777
1.337173858
1.340812703
1.347744162
1.358402007
1.37423699
1.395134502
1.413068459
1.426165265
1.433844804
1.436173655
1.436929327
1.436748848
1.436148838
1.43582835
1.43578988
1.435715445
1.435205136
1.433406484
1.430073212
1.425496426
1.421247793
1.417915273
1.41443312
1.410831396
1.408460501
1.407237422
1.406670832
1.334989422
1.33496058
1.335021563
1.335171063
1.335720183
1.33738612
1.3412952
1.348327759
1.359148236
1.375422753
1.396028802
1.412963825
1.425769785
1.433685308
1.43571246
1.436404765
1.4364228
1.435999147
1.435567191
1.435349499
1.435154054
1.434484308
1.432516393
1.429091308
1.424666003
1.420693743
1.417430107
1.413937999
1.410338382
1.407969504
1.406584045
1.406066438
1.334811413
1.334729155
1.334774975
1.334955588
1.335575977
1.337369792
1.341435423
1.348566826
1.359602666
1.376207515
1.396380299
1.412044962
1.424276381
1.432556146
1.43469051
1.435434816
1.435821673
1.4355824
1.435097963
1.434776189
1.434449173
1.433586627
1.431500219
1.428142124
1.423900649
1.420029427
1.416875454
1.41321575
1.409717374
1.407541905
1.406070179
1.405431294
1.334265838
1.334163425
1.334210024
1.334407088
1.33510607
1.33708914
1.341308157
1.348610446
1.359733918
1.376520493
1.396492423
1.411137596
1.423421115
1.431463858
1.433450004
1.434335452
1.434919434
1.434666175
1.434124388
1.43383039
1.433463455
1.432431608
1.430220176
1.426893487
1.422869476
1.419261558
1.415779459
1.412131407
1.409350016
1.407591454
1.406203131
1.404856063
1.333440714
1.333261484
1.333328902
1.333547471
1.334308798
1.336401423
1.340739894
1.348234006
1.359640402
1.376677805
1.395933218
1.409686907
1.422223003
1.429915162
1.431569654
1.432559569
1.433361861
1.433158242
1.43275368
1.432503808
1.432106483
1.430945488
1.42860194
1.425512527
1.421968569
1.418311495
1.414532971
1.411091367
1.408419813
1.406662286
1.405239556
1.403946015
1.33256344
1.332384897
1.332494881
1.332778985
1.33363573
1.335858667
1.340342766
1.348027438
1.359785641
1.377132164
1.395153065
1.408443663
1.420661858
1.428448777
1.429951994
1.430732501
1.431697475
1.431676675
1.431423726
1.431259726
1.430912014
1.429744954
1.427190155
1.424191758
1.420943814
1.41724657
1.413538809
1.410214477
1.407688435
1.406024207
1.404875437
1.403559856
1.331411455
1.33122099
1.331257656
1.331569535
1.332476856
1.334751738
1.339385326
1.34753182
1.359845465
1.37681668
1.394090522
1.407966206
1.419412992
1.426855758
1.428782041
1.429383424
1.429973294
1.430283402
1.430245282
1.430181604
1.42992592
1.428872818
1.426201074
1.422975823
1.419834623
1.416296262
1.412817584
1.409592792
1.407113133
1.40580283
1.405076072
1.403620058
1.332655346
1.332058514
1.331283139
1.330839024
1.331447087
1.333505852
1.337760067
1.346597405
1.361211038
1.37759716
1.392923638
1.406196
1.419207657
1.426496673
1.428124341
1.428853854
1.429828851
1.429918459
1.429123055
1.428503149
1.428172784
1.42758438
1.426199013
1.424039109
1.420562168
1.415735961
1.411823819
1.409157487
1.406967037
1.405108677
1.403827796
1.402132529
1.33176905
1.331870226
1.3316469
1.331445472
1.331681502
1.333478629
1.337713298
1.346033887
1.360352275
1.378303874
1.393130988
1.405575124
1.418739926
1.427205748
1.428431867
1.428771154
1.430116988
1.430691332
1.430341707
1.429118053
1.428003305
1.427024337
1.424636862
1.422915271
1.42071589
1.417001433
1.411872191
1.408710394
1.407039036
1.405830201
1.404522191
1.402151866
1.330116168
1.330839626
1.331442002
1.331721153
1.332422796
1.334053048
1.337707165
1.345936491
1.359941673
1.379376103
1.394603344
1.405336258
1.417175833
1.427265965
1.429285885
1.428933521
1.430019161
1.430323317
1.43056785
1.430448805
1.429217769
1.426869102
1.423881945
1.420658602
1.420294094
1.417248368
1.412880456
1.408322696
1.406770258
1.405945513
1.405251542
1.403011072
1.329259781
1.329753886
1.330811664
1.331501721
1.332861108
1.335328926
1.338561302
1.345907799
1.359649098
1.379986588
1.398498518
1.405836999
1.416502076
1.426348359
1.429448234
1.429670929
1.429807039
1.42984237
1.430719937
1.431021224
1.430439573
1.427990426
1.423454773
1.420029888
1.418111288
1.41703129
1.413449484
1.408117813
1.405965941
1.405594063
1.405310811
1.403636033
1.32887613
1.32917536
1.330032803
1.331241488
1.332618037
1.335958295
1.340853697
1.346741243
1.359700694
1.379994706
1.399965115
1.408430983
1.4161772
1.424636216
1.429123367
1.429911808
1.429569994
1.429894684
1.430068746
1.43043747
1.430124724
1.429001907
1.424716991
1.41962062
1.416443883
1.415702183
1.413324987
1.408538036
1.405273528
1.405055776
1.405169958
1.403723836
1.328540439
1.328718818
1.329559545
1.330682538
1.33232917
1.335725327
1.342145638
1.349687189
1.360884519
1.380065352
1.400368977
1.411908037
1.416912224
1.42414139
1.428109889
1.429630004
1.429756669
1.429538481
1.429039716
1.429075736
1.430076698
1.429573927
1.426477387
1.42027602
1.41608495
1.413311927
1.412625586
1.408893921
1.405049149
1.403814162
1.404069365
1.403364083
1.328943666
1.328579266
1.329205917
1.330265466
1.332203568
1.335479823
1.342835105
1.352324842
1.363728583
1.380970806
1.399626973
1.413302841
1.419521708
1.423980959
1.426715158
1.429313599
1.42990841
1.429219925
1.428461313
1.428524792
1.428999312
1.429059152
1.426537399
1.422385082
1.416450357
1.412272138
1.41060503
1.408697812
1.405282755
1.403383729
1.402673058
1.401982735
1.329772152
1.329215938
1.329259722
1.329983756
1.33189182
1.335665046
1.342572153
1.353054014
1.366020624
1.382011306
1.397989322
1.412907271
1.421892366
1.424947373
1.426538168
1.428033375
1.429618775
1.429286097
1.428430719
1.428103299
1.427823666
1.427744591
1.426671815
1.423659935
1.418545008
1.41206415
1.408603726
1.408088295
1.405622522
1.403277716
1.402132004
1.400640792
1.330098516
1.329942805
1.329927031
1.330288038
1.331687545
1.33540715
1.34214574
1.353677156
1.367887869
1.382972674
1.39748389
1.412811663
1.422731917
1.42679945
1.426689006
1.427346407
1.429102252
1.429563451
1.428614077
1.427785248
1.427323992
1.42665281
1.426310035
1.423371177
1.420045895
1.413378202
1.408122642
1.40673392
1.40558444
1.403851759
1.401916285
1.400184131
1.330225806
1.330244681
1.330377747
1.33077089
1.331968986
1.335109726
1.342166355
1.354023859
1.368565902
1.384133166
1.397470637
1.410282135
1.42318219
1.427968863
1.428035011
1.427290703
1.428833126
1.429408675
1.429052271
1.428317264
1.427546086
1.426315137
1.424139614
1.423213306
1.420041048
1.415434277
1.408453082
1.405224252
1.405456336
1.40413438
1.402463745
1.400088661
1.330197929
1.330286018
1.330469066
1.330837391
1.33230532
1.335101972
1.341057392
1.352289667
1.368860685
1.385583925
1.397508643
1.408552776
1.422224241
1.428122331
1.429123735
1.427838603
1.428473177
1.429225651
1.429557483
1.429348212
1.428321904
1.426007742
1.422601255
1.421824838
1.420265446
1.416604511
1.410367671
1.404757893
1.404824085
1.404159519
1.403043056
1.400584
1.330062352
1.330276391
1.330616015
1.331025385
1.332284237
1.335171605
1.340682925
1.351233095
1.367834729
1.386567564
1.398585477
1.408503429
1.419571304
1.428137176
1.429629852
1.429449027
1.428491015
1.429147062
1.429394773
1.429519811
1.42893844
1.42662171
1.42247721
1.41917044
1.4196057
1.41690246
1.41209717
1.404742695
1.403665584
1.40407279
1.403132744
1.401195487
1.330026203
1.330276138
1.330574483
1.331120486
1.332374536
1.335163502
1.340678456
1.35125616
1.367134952
1.387032173
1.401593706
1.408804883
1.418335806
1.427001391
1.42983719
1.430210506
1.429135351
1.428841697
1.429269062
1.429696603
1.42933044
1.427735946
1.422924295
1.418187491
1.416791577
1.41650728
1.412589894
1.405937548
1.402977164
1.4031692
1.403173407
1.401272315
1.329854732
1.330257819
1.330594188
1.331259736
1.332924734
1.33569853
1.340984131
1.351432716
1.367152451
1.387335947
1.403849605
1.410632176
1.418471942
1.424830046
1.429491972
1.430465104
1.430109526
1.428895889
1.42884744
1.429495619
1.429334272
1.427806515
1.424085411
1.418015376
1.414583083
1.414592245
1.412861511
1.407325763
1.402806061
1.402075178
1.402551954
1.4012896
1.329743617
1.330272969
1.330806741
1.331671459
1.333756721
1.33730085
1.342371932
1.351819961
1.367502442
1.387816718
1.40454701
1.413684311
1.419338667
1.424095285
1.427713948
1.430519879
1.430465602
1.429487991
1.428880004
1.428781134
1.428940037
1.427845818
1.42492857
1.41928258
1.415122289
1.412128849
1.411968829
1.407782981
1.403641985
1.402135892
1.401484624
1.400538617
1.329625536
1.330300609
1.330984563
1.332000371
1.334163071
1.338470109
1.34519991
1.353899805
1.368971938
1.388516467
1.404886326
1.415565002
1.421493695
1.42471479
1.426197497
1.428944065
1.430637673
1.429935639
1.429078591
1.428448561
1.428101676
1.427779313
1.425313061
1.421458258
1.41564206
1.411116733
1.409414294
1.407884333
1.404678173
1.402193212
1.400902493
1.399467449
1.330452735
1.329796203
1.330277793
1.331074606
1.332140828
1.334385196
1.338999419
1.347079402
1.357053889
1.371197661
1.389067813
1.405145237
1.416557241
1.423483979
1.426351513
1.426150191
1.426893165
1.429570966
1.430147006
1.429341243
1.428841414
1.428066166
1.427099421
1.425569787
1.422039699
1.417558622
1.411760774
1.407452736
1.406732778
1.405141072
1.402835404
1.401281337
1.399033157
1.331327502
1.330002279
1.330001618
1.330516447
1.331698208
1.334404564
1.339321352
1.347716871
1.359387482
1.373466237
1.389395413
1.404577267
1.417079692
1.424521805
1.427563613
1.426635921
1.426072094
1.427566533
1.429392093
1.429489712
1.429303281
1.428246517
1.426586727
1.425313998
1.422431858
1.419067447
1.41381346
1.407983093
1.404726058
1.404862661
1.40336145
1.40197841
1.399381194
1.331840046
1.330598346
1.329935742
1.330020929
1.330866401
1.333421881
1.339116897
1.348271828
1.360702064
1.375415651
1.389880186
1.402631522
1.416608579
1.425248256
1.428543107
1.428501724
1.426751437
1.427179642
1.427686412
1.429166051
1.429518328
1.428559232
1.426570413
1.42492161
1.422796168
1.419773976
1.415279599
1.408438374
1.403463177
1.403634022
1.403703394
1.402451949
1.400013321
1.332216327
1.331206043
1.330227479
1.330172996
1.330834147
1.332773358
1.337782967
1.348229024
1.361501151
1.37700968
1.390732391
1.40166624
1.414083486
1.425585273
1.429242353
1.429599636
1.428490337
1.427145526
1.427166145
1.427527927
1.428771415
1.428791479
1.426855343
1.424158723
1.422216053
1.419831434
1.416068524
1.410293085
1.404209135
1.402168178
1.402664584
1.402345668
1.400323185
1.332055902
1.33164975
1.330870021
1.330407446
1.33105441
1.332934648
1.336867024
1.346502387
1.361569947
1.377834014
1.393476489
1.402028844
1.412149023
1.423868653
1.429214492
1.43027813
1.429317987
1.428549221
1.427122817
1.42666265
1.427276739
1.427958678
1.426848761
1.422874995
1.419344835
1.418809664
1.416525526
1.411633555
1.405433033
1.401091619
1.401172051
1.401978202
1.400527722
1.330254391
1.331503996
1.331067136
1.330874174
1.331741243
1.333350073
1.33696572
1.344537783
1.359615046
1.378343152
1.395127528
1.404113187
1.412459628
1.421477593
1.427596559
1.430097127
1.430000941
1.429836427
1.428432657
1.427409327
1.42713891
1.426662234
1.425534609
1.421722281
1.417186138
1.415645428
1.415617097
1.41242261
1.406472449
1.401867671
1.401169267
1.40095563
1.400101064
1.328468515
1.329909456
1.330638667
1.331247008
1.332294704
1.334212272
1.337383075
1.344151865
1.357086926
1.377487361
1.395890627
1.407227056
1.413313043
1.421050103
1.42520578
1.428493655
1.430275806
1.430564506
1.429575668
1.42862818
1.427656604
1.426365075
1.424641403
1.421892823
1.417478201
1.413780635
1.412389685
1.411689771
1.407322655
1.403174165
1.401462279
1.400373718
1.398992929
1.328621563
1.32867263
1.329432498
1.330888554
1.332540761
1.334810577
1.338513438
1.344635318
1.356408213
1.375417141
1.396327817
1.408498378
1.415999073
1.421742971
1.424640417
1.426035678
1.428664343
1.430177053
1.430208155
1.429312712
1.427970293
1.426893344
1.425307629
1.422476624
1.417537631
1.413856003
1.410059182
1.408970293
1.407738882
1.404015947
1.401661051
1.400410076
1.397972167
1.328907384
1.328632591
1.328782919
1.330130432
1.331954995
1.334974577
1.340045128
1.346590709
1.357184155
1.374057243
1.395301715
1.409322834
1.417548725
1.423328472
1.424712137
1.424536538
1.426111515
1.42795738
1.429549547
1.429452632
1.429176737
1.428205261
1.426312037
1.42244571
1.418801131
1.414645761
1.410965743
1.406914845
1.406223487
1.40426229
1.402747742
1.400816714
1.398349564
1.328915969
1.329010756
1.328997408
1.329522672
1.331456846
1.335018265
1.340864057
1.350198387
1.359285988
1.374382408
1.392751348
1.409033736
1.418750429
1.424763512
1.426177909
1.425417357
1.425540002
1.425978501
1.427217436
1.429345656
1.429879859
1.4290307
1.426867577
1.423555509
1.420221687
1.41669788
1.411633545
1.40589444
1.403726655
1.404261012
1.40352662
1.401752114
1.399048667
1.33004033
1.329643064
1.329463699
1.330004778
1.331623529
1.335156322
1.341628443
1.352036135
1.36405694
1.37611174
1.391558227
1.405840555
1.419187718
1.426039196
1.427697944
1.426955649
1.42593728
1.42626265
1.426000828
1.427168355
1.42899187
1.428741361
1.426965347
1.42456586
1.421327769
1.417823991
1.413458134
1.407198364
1.40326848
1.402672002
1.403202897
1.402440993
1.399316482
1.330737583
1.330189343
1.329984378
1.330544022
1.331901542
1.335290682
1.342143269
1.353022882
1.36715453
1.381089224
1.392146735
1.402684761
1.416982415
1.426613338
1.428701008
1.427587432
1.426733182
1.426744233
1.4255877
1.425265021
1.426224858
1.427482519
1.42698785
1.425052082
1.42174154
1.418660024
1.414951333
1.409274708
1.403359961
1.401310122
1.40145533
1.401805039
1.399562865
1.331054411
1.330628052
1.330159107
1.330318941
1.331736033
1.335223561
1.342161514
1.353706533
1.36846153
1.384740014
1.394913501
1.402520479
1.413959848
1.425346306
1.428699404
1.428751044
1.427997724
1.427404239
1.426211244
1.425419512
1.424983298
1.425394881
1.425069194
1.423434061
1.420655224
1.418794539
1.416021057
1.410418771
1.403953218
1.401474778
1.400121803
1.400856282
1.399784724
1.330666823
1.330604742
1.329996626
1.330083887
1.33141543
1.334671803
1.341042275
1.352825294
1.369237626
1.386128641
1.399081739
1.403710455
1.413524846
1.422689892
1.427553006
1.429593802
1.428988805
1.428592386
1.427650198
1.426308419
1.425890839
1.424659419
1.422796389
1.420785033
1.417771328
1.416583666
1.415624131
1.410677766
1.405879835
1.402443751
1.400872256
1.400713515
1.399271332
1.329387755
1.330246191
1.330063804
1.330320758
1.331485201
1.334279992
1.339841763
1.350594439
1.368108621
1.387130978
1.400442206
1.407855195
1.414509011
1.422046985
1.425505411
1.428734381
1.429680493
1.429548052
1.428836331
1.427733246
1.427128997
1.42503308
1.423061582
1.42036487
1.416596005
1.413416697
1.41314366
1.411226387
1.407198112
1.403852367
1.401867962
1.400512221
1.398664884
1.328338756
1.329483751
1.330190935
1.330741943
1.331822826
1.334386153
1.339717195
1.349503023
1.365524545
1.386596386
1.401586558
1.410463502
1.417567345
1.422455749
1.424370201
1.426210516
1.428644546
1.429509549
1.428674931
1.428440829
1.427185942
1.425742588
1.423946693
1.420441018
1.416391172
1.412260039
1.410702891
1.410090259
1.407215018
1.40479654
1.402062251
1.400737574
1.398443818
1.32832617
1.328001809
1.328833237
1.330214921
1.331143055
1.332446613
1.334983923
1.340347916
1.349993544
1.364180623
1.384192313
1.402043916
1.411954044
1.419920463
1.424410579
1.425189572
1.424537575
1.426097496
1.428114245
1.428882835
1.428632822
1.427488177
1.427033037
1.424310885
1.420835967
1.417236386
1.41356676
1.410310737
1.407213958
1.405878616
1.404276459
1.402258097
1.401359194
1.398910393
1.328830235
1.328540923
1.328638653
1.329655825
1.331244631
1.333126879
1.336058084
1.341637032
1.350711684
1.364440815
1.382119773
1.400703962
1.413038156
1.421493517
1.426290512
1.426894932
1.425665732
1.425237872
1.426214151
1.428909084
1.429092407
1.428647215
1.428120805
1.425622844
1.422432248
1.418869792
1.415308744
1.410964217
1.40623023
1.404066264
1.402748618
1.402431904
1.40175326
1.399475523
1.329940547
1.329426712
1.328646184
1.329129781
1.330588676
1.333232654
1.336835625
1.342877998
1.352629648
1.365535819
1.381980723
1.397936207
1.412279199
1.422641381
1.427723122
1.428171735
1.427304637
1.425630319
1.425267492
1.426203025
1.428901684
1.429516006
1.428084578
1.426835857
1.423758014
1.420163254
1.416073297
1.412102715
1.407007949
1.403602243
1.401989502
1.401488611
1.401178728
1.3989646
1.330677272
1.329899398
1.329116207
1.32939875
1.330340136
1.332671222
1.337301602
1.344040856
1.354682335
1.367675677
1.382990591
1.396898198
1.409013503
1.422521911
1.428112835
1.429126044
1.427401721
1.426178142
1.424906627
1.423673196
1.426214322
1.428091206
1.4278628
1.427209927
1.424338394
1.420131786
1.416902593
1.414298269
1.408412798
1.403343941
1.401433077
1.400085312
1.399924541
1.397898816
1.330168474
1.330057495
1.330017883
1.329988643
1.330579367
1.332558157
1.337159566
1.345200144
1.35632259
1.370306551
1.384816567
1.397343679
1.40710421
1.419838076
1.427467622
1.429707685
1.428781447
1.426543723
1.425715978
1.42516139
1.424007248
1.425031612
1.426801445
1.426187298
1.424235897
1.420703577
1.417860583
1.415713918
1.409631019
1.404072635
1.402136945
1.400120535
1.400005615
1.397765552
1.328612295
1.329589935
1.330487853
1.330634415
1.331224548
1.333168961
1.337271248
1.345790278
1.357718451
1.372130044
1.38762707
1.398482427
1.407300802
1.41782763
1.425220499
1.42879154
1.429887142
1.428373133
1.427554454
1.426929858
1.425242709
1.424789444
1.42442674
1.423706387
1.422995692
1.4210167
1.417941424
1.415886292
1.410909082
1.406067299
1.328146427
1.328770476
1.330013967
1.330797142
)
;

boundaryField
{
    inlet
    {
        type            calculated;
        value           nonuniform 0();
    }
    outlet
    {
        type            calculated;
        value           nonuniform List<scalar> 
68
(
1.402138371
1.402197362
1.403115235
1.403702577
1.403760263
1.403356696
1.401832185
1.40058443
1.400193407
1.400117705
1.400681023
1.401254979
1.401313459
1.401300779
1.40043635
1.399425359
1.399046143
1.399410558
1.400102011
1.400398781
1.400532375
1.400007767
1.398915081
1.397945478
1.398364894
1.399141434
1.399442153
1.399588795
1.3997287
1.39919956
1.398668577
1.398491034
1.398941201
1.39948566
1.398910307
1.397822948
1.397754356
1.424894755
1.423755559
1.422989382
1.421872465
1.420394042
1.418882363
1.417801619
1.416952925
1.416106557
1.415034107
1.414059438
1.41329474
1.412534491
1.411804848
1.411250518
1.410757431
1.410200993
1.409669966
1.409248956
1.408842585
1.408494107
1.408158302
1.407749746
1.407277134
1.406687542
1.406081188
1.405444148
1.404868463
1.403954828
1.403566936
1.403623993
)
;
    }
    bottom
    {
        type            calculated;
        value           nonuniform 0();
    }
    top
    {
        type            calculated;
        value           nonuniform 0();
    }
    obstacle
    {
        type            calculated;
        value           nonuniform 0();
    }
    defaultFaces
    {
        type            empty;
    }
    procBoundary11to5
    {
        type            processor;
        value           nonuniform List<scalar> 
33
(
1.432296918
1.434785622
1.440959532
1.451475245
1.454644627
1.454861804
1.455298373
1.454699475
1.451414584
1.449630259
1.44935633
1.448452219
1.443423944
1.439231659
1.436965275
1.433050496
1.430405925
1.426611941
0.9414987185
0.9304489879
0.9239626482
0.9133708196
0.9104841277
0.9109188111
0.9141356237
0.9367869427
0.9899936589
1.092779485
1.201285964
1.300024605
1.338331904
1.388550568
1.388550568
)
;
    }
    procBoundary11to10
    {
        type            processor;
        value           nonuniform List<scalar> 
70
(
0.9323513519
0.9141632089
0.9064892482
0.905560901
0.9641632674
1.140963381
1.301513325
1.319876286
1.324204879
1.33580268
1.339491711
1.338572226
1.33630559
1.335463481
1.335736475
1.335968384
1.335756395
1.336513063
1.336732354
1.336740478
1.336628932
1.336463997
1.336038885
1.335584155
1.335432147
1.335459638
1.335010119
1.334223651
1.333282868
1.331988059
1.333041849
1.331036193
1.329886215
1.329246969
1.328876224
1.329026743
1.33024383
1.331184882
1.331206271
1.331124116
1.330873922
1.330320455
1.329465618
1.329133075
1.329010354
1.329307011
1.329307011
1.332145574
1.332550877
1.332873605
1.332866879
1.331443944
1.329084789
1.328186002
1.328615605
1.329472265
1.329761128
1.330748264
1.331316907
1.331399122
1.330431076
1.328527683
1.328224354
1.328224354
1.329030369
1.330117846
1.330856803
1.330672652
1.329909311