/*--------------------------------*- C++ -*----------------------------------*\
  =========                 |
  \\      /  F ield         | OpenFOAM: The Open Source CFD Toolbox
   \\    /   O peration     | Website:  https://openfoam.org
    \\  /    A nd           | Version:  7
     \\/     M anipulation  |
\*---------------------------------------------------------------------------*/
FoamFile
{
    version     2.0;
    format      ascii;
    class       volVectorField;
    location    "0.2";
    object      U;
}
// * * * * * * * * * * * * * * * * * * * * * * * * * * * * * * * * * * * * * //

dimensions      [0 1 -1 0 0 0 0];

internalField   nonuniform List<vector> 
22
(
(3.093648205 -0.02075659031 0)
(3.022039392 0.001599611643 0)
(3.005441408 -0.002768575202 0)
(3.127504144 -0.03260698467 0)
(3.025409258 0.002348213361 0)
(3.003895226 -0.002978703259 0)
(2.982571019 0.005064427026 0)
(3.138702849 -0.04275799583 0)
(3.028160517 0.001375223409 0)
(2.997548537 -0.00499100661 0)
(2.976178898 0.005685310089 0)
(3.121631413 -0.07733154733 0)
(3.029748711 -0.003108537793 0)
(2.992308137 -0.004490864192 0)
(2.971729997 0.007421203531 0)
(3.035417756 -0.06571698625 0)
(2.989379119 0.000639243393 0)
(2.968347439 -0.003877887829 0)
(3.038702026 -0.09936367356 0)
(3.001225483 -0.07731050083 0)
(2.96905071 -0.04059767813 0)
(3.035812795 -0.09626117824 0)
)
;

boundaryField
{
    inlet
    {
        type            fixedValue;
        value           nonuniform 0();
    }
    outlet
    {
        type            inletOutlet;
        inletValue      nonuniform 0();
        value           nonuniform 0();
    }
    bottom
    {
        type            slip;
    }
    top
    {
        type            slip;
    }
    obstacle
    {
        type            slip;
    }
    defaultFaces
    {
        type            empty;
    }
    procBoundary28to21
    {
        type            processor;
        value           nonuniform List<vector> 2((3.146775777 -0.1072040228 0) (3.186367637 -0.1218234791 0));
    }
    procBoundary28to22
    {
        type            processor;
        value           nonuniform List<vector> 3((3.058174963 -0.01319671502 0) (3.017845505 0.003353858051 0) (3.002789521 -0.003811639949 0));
    }
    procBoundary28to27
    {
        type            processor;
        value           nonuniform List<vector> 6((3.215352835 -0.1463300195 0) (3.22128502 -0.1901765021 0) (3.080637198 -0.1593227882 0) (3.080637198 -0.1593227882 0) (3.05747562 -0.09633692123 0) (3.059656022 -0.03860520106 0));
    }
    procBoundary28to29
    {
        type            processor;
        value           nonuniform List<vector> 7((2.986749442 0.003554052252 0) (2.986749442 0.003554052252 0) (2.974956343 -0.002706845849 0) (2.971849059 -0.00289389093 0) (2.969648747 -0.002546033404 0) (2.967932396 -0.003680586522 0) (2.965857425 -0.01805664437 0));
    }
    procBoundary28to34
    {
        type            processor;
        value           nonuniform List<vector> 4((3.015288096 -0.08891989588 0) (2.990754384 -0.07061601822 0) (3.015288096 -0.08891989588 0) (3.027999575 -0.03134026122 0));
    }
}


// ************************************************************************* //
