/*--------------------------------*- C++ -*----------------------------------*\
  =========                 |
  \\      /  F ield         | OpenFOAM: The Open Source CFD Toolbox
   \\    /   O peration     | Website:  https://openfoam.org
    \\  /    A nd           | Version:  7
     \\/     M anipulation  |
\*---------------------------------------------------------------------------*/
FoamFile
{
    version     2.0;
    format      ascii;
    class       volScalarField;
    location    "1.2";
    object      p;
}
// * * * * * * * * * * * * * * * * * * * * * * * * * * * * * * * * * * * * * //

dimensions      [1 -1 -2 0 0 0 0];

internalField   nonuniform List<scalar> 
555
(
0.997739298
0.999376885
1.000427501
1.001038417
1.001640451
1.002034536
1.001654992
1.00045784
0.9997873089
0.9997364361
0.9999037687
0.9912654989
0.9975930418
0.9983300818
0.9956746146
0.994805552
0.9958761064
0.997537716
0.9985372806
0.9985868554
0.9975533213
0.9970813699
0.9974710244
0.997960797
0.9985806978
0.9991331517
1.000450172
1.00057596
0.9907800657
0.9969958953
0.9977394836
0.9950123701
0.993260869
0.9937450044
0.9954649009
0.9963126808
0.996001174
0.9953477154
0.9956493147
0.9966794366
0.9975064343
0.9983921493
0.9996190974
1.000891686
1.00106836
0.9890624675
0.9950600248
0.995898284
0.9926580062
0.9906380601
0.9907293187
0.9935695421
0.9955766008
0.9958052122
0.9958614958
0.9963599324
0.9973553581
0.9981101072
0.9989027327
1.000251359
1.00185065
1.001570284
0.9946186836
0.9957257177
0.9917747841
0.9897994875
0.9897536844
0.9925452079
0.9950440421
0.9959568925
0.9967091215
0.9974471621
0.9985859482
0.9991591423
1.000004953
1.001554511
1.001459091
1.001159351
0.9950113375
0.996292244
0.9921867083
0.990258896
0.990206969
0.9930380758
0.995402912
0.9968409909
0.9979941667
0.9993154664
1.000593727
1.001867539
1.003004907
1.00292528
1.002116085
1.001795569
0.9958083229
0.99742788
0.9931486468
0.9915144482
0.9915894882
0.9941063876
0.9961501431
0.9981167759
1.000208203
1.002047684
1.00306051
1.003085105
1.003052225
1.002848075
1.002119798
1.001832016
0.9955306261
0.9978385262
0.993721581
0.9920204945
0.9921992286
0.9946987373
0.9968016761
0.9986859435
1.000823442
1.002374787
1.003177536
1.002991006
1.002794149
1.002465803
1.00157635
1.00115073
1.001578102
0.9942820502
0.9974160968
0.9939142103
0.9920903317
0.9924585929
0.9947175386
0.996878148
0.9990953701
1.000952354
1.002133564
1.002853379
1.002834333
1.002576134
1.001466669
0.999683567
0.9989921094
0.9995901531
0.9932100975
0.9962832617
0.9929714734
0.990978981
0.9914261265
0.9935259265
0.9958063311
0.9983771441
1.000152604
1.001074113
1.001819293
1.001944192
1.001395743
0.9987767101
0.9963503848
0.995959718
0.996666049
0.9931326407
0.9961105026
0.993147778
0.9910109965
0.9914732546
0.9937018274
0.9958633692
0.9973467234
0.9985265421
0.9994636718
1.000247367
1.000396622
0.9991914432
0.9972887529
0.9969174911
0.9962176308
0.9962797428
0.9934922688
0.9967191685
0.9938786223
0.9915367642
0.991653822
0.9939390877
0.9962215755
0.9971434862
0.9972727256
0.9978245752
0.9984281442
0.998449704
0.9975737836
0.9974168951
0.9975922423
0.9974769899
0.9969046227
0.9978323421
0.9942609986
0.9915765533
0.9913126497
0.9935490444
0.9960114813
0.9968106078
0.9967139591
0.9967543629
0.9972444308
0.9975979537
0.9975721194
0.9974665476
0.9983161147
0.9987898467
0.9982297004
0.9981257588
0.9948863196
0.9920590341
0.9915765926
0.9937762804
0.9961988357
0.9965584708
0.9963505344
0.9963319853
0.9969151479
0.9974836745
0.9976650126
0.9983127368
0.9999157473
1.000651656
1.000000602
0.9981580458
0.9951359054
0.9922218694
0.9916441804
0.9937318892
0.9958324226
0.9961435153
0.9961312766
0.9961666804
0.9967310637
0.9974220805
0.9982595072
0.9996571142
1.001167635
1.001751321
1.001736977
0.9979439842
0.9946499804
0.9920157184
0.9911412652
0.9929991613
0.9947548343
0.9956646675
0.9959421703
0.996209733
0.9968630715
0.9979106775
0.9997345375
1.000824724
1.001042419
1.001315726
1.001919854
0.9976088756
0.9943948361
0.9915407544
0.9898454122
0.9913799088
0.9936148686
0.9957819699
0.9964628581
0.9968744035
0.9978321435
0.9994810994
1.000905718
1.000857631
1.000211514
1.000193564
1.001067588
0.9972386393
0.9936536237
0.9904301837
0.9892261208
0.9905766626
0.9932683671
0.9959357076
0.9971549713
0.9978901709
0.9992289487
1.000791181
1.00105777
1.000468865
0.9997127673
0.999308673
0.999866831
0.9969183321
0.9932750112
0.9901084216
0.988542399
0.9899965177
0.9931010748
0.9960007447
0.9973412808
0.9980596157
0.9992915937
1.000236543
1.000073053
0.9995615629
0.9990093666
0.9985654289
0.9987650641
0.9959033818
0.9926272804
0.9897009064
0.9882395779
0.9897318091
0.9928809684
0.9954356534
0.9965435406
0.9971192301
0.99817807
0.9989186839
0.9989769366
0.9987894627
0.9985832419
0.9984016285
0.9985469168
0.9903507923
0.9940225581
0.9909583616
0.9895083637
0.9908588314
0.9934946527
0.9953765111
0.9961936286
0.9965810729
0.9973692049
0.9984193761
0.9990467866
0.9992834836
0.9993243569
0.9991141178
0.9988612416
0.972477233
0.995729139
0.9897097252
0.9901277151
0.9939614362
0.9967479073
0.9961946319
0.9951188749
0.9946599722
0.9952405007
0.996827966
0.9982251301
0.9987403394
0.9988559733
0.9985399325
0.9980662462
0.9178770505
0.9695890125
0.9730004154
0.989215569
0.9981965825
0.9973374342
0.9954959922
0.9943283702
0.9938434485
0.9944471214
0.9965347311
0.9982989847
0.9985408723
0.9981707926
0.9971728728
0.9967421621
0.7297219675
0.8515026442
0.9186644737
0.9784713985
0.9881169882
0.9874706149
0.9913330969
0.9924013712
0.9937574768
0.9956785301
0.9983759851
0.9984403102
0.998138828
0.9973526604
0.9964764939
0.9964954768
0.5808547735
0.6601752771
0.7849065072
0.9059127791
0.9353688054
0.967949828
0.9961139292
0.9937740539
0.9941982415
0.9981262371
1.000100207
0.9995396785
0.9974333568
0.9957003465
0.995541111
0.9963119311
0.5557900712
0.5653276866
0.6137376186
0.7050814324
0.823077331
0.933279452
0.983985746
0.9824682372
0.9888195506
0.9963231294
0.9966651342
0.9963885594
0.9959100859
0.9956129227
0.9964281747
0.9977593341
0.5631994655
0.5647051446
0.5659057296
0.5821849542
0.6501775524
0.7515102149
0.8672405328
0.9206292876
0.96699811
0.9798848436
0.9868408489
0.9935533631
0.9960051992
0.9960256703
0.9965301669
0.9971146922
0.5928583469
0.5809443585
0.5676519692
0.566649709
0.5730707494
0.603909084
0.6902977659
0.8200247999
0.9343926516
0.9549554305
0.9794865797
0.9985692805
0.9967688146
0.9952281149
0.993927251
0.9919003998
0.6164929167
0.6014462395
0.5843568758
0.5765818992
0.5744248425
0.576108097
0.5899089257
0.6459417719
0.7427415656
0.8507535562
0.9469912801
0.9884039171
0.9801067162
0.9858585865
0.9856459852
0.9858755894
0.665964894
0.6491346279
0.6349999726
0.6134917915
0.5953576387
0.5819709286
0.5795106819
0.5836321946
0.6070324647
0.6849095041
0.7893694926
0.8963786384
0.9332549905
0.9755057313
0.9825800171
0.9893778124
0.7335446311
0.6999993096
0.6700436503
0.6407414898
0.6214344552
0.5996301508
0.5911070437
0.5887001282
0.5891039521
0.598341896
0.6393649803
0.7345059607
0.8584438056
0.9480931728
0.9701568928
0.9894550942
0.7778315888
0.7457880825
0.7129902574
0.6892340974
0.6698805471
0.6495994519
0.6237809281
0.6112951258
0.5997088272
0.591202745
0.5941406248
0.6170503259
0.6861305124
0.7833158013
0.8700302193
0.9554504469
0.8395456319
0.8044516486
0.7733474819
0.7383391839
0.7117501004
0.6850428379
0.6535002646
0.6351905734
0.6232312485
0.6030127514
0.5968709444
0.6011519117
0.6123232889
0.6445194286
0.7329296905
0.8346351052
0.9084160664
0.8627658298
0.8242634528
0.7833854733
0.7510067848
0.7285890582
0.7042842031
0.6789511969
0.6650212755
0.6442922046
0.6207071528
0.6132577784
0.6067258554
0.6071149991
0.6234017299
0.6737572824
0.971064911
0.9192477606
0.8781010529
0.8387964791
0.8025621422
0.7792880143
0.7490430519
0.7176270734
)
;

boundaryField
{
    inlet
    {
        type            fixedValue;
        value           nonuniform 0();
    }
    outlet
    {
        type            zeroGradient;
    }
    bottom
    {
        type            slip;
    }
    top
    {
        type            slip;
    }
    obstacle
    {
        type            zeroGradient;
    }
    defaultFaces
    {
        type            empty;
    }
    procBoundary28to21
    {
        type            processor;
        value           nonuniform List<scalar> 8(0.9921227572 0.9925526838 0.9928197668 0.9886557202 0.9886557202 0.9885674036 0.9883085085 0.9880800739);
    }
    procBoundary28to22
    {
        type            processor;
        value           nonuniform List<scalar> 
18
(
0.9970401866
0.999015693
1.00071518
1.002411351
1.003918842
1.004771974
1.005254185
1.004455773
1.002612361
1.000285385
0.9995577749
0.9909469125
0.9970709146
0.9978340869
0.9951293177
0.9944800305
0.995689812
0.995689812
)
;
    }
    procBoundary28to23
    {
        type            processor;
        value           uniform 0.9997289236;
    }
    procBoundary28to27
    {
        type            processor;
        value           nonuniform List<scalar> 
28
(
0.9870373388
0.9859013292
0.9856654537
0.9855680359
0.9938277909
0.9938277909
0.9935601689
0.992764582
0.991605951
0.9904129725
0.9900313003
0.9899824095
0.9896589662
0.9845800329
0.9407540019
0.798445297
0.6211980646
0.5548497708
0.5547503122
0.5617537077
0.6061507731
0.6531772735
0.699916335
0.7649495371
0.8247667192
0.8929096123
0.9576257645
1.025467651
)
;
    }
    procBoundary28to29
    {
        type            processor;
        value           nonuniform List<scalar> 
34
(
1.000361976
1.000721039
1.001191879
1.001617837
1.002266876
1.002192616
1.002192616
1.002012479
1.000103572
0.9970727975
0.9964812849
0.9969300451
0.9981789314
0.9999683139
1.001876969
1.002680992
1.002158458
1.000754648
0.9995277386
0.999098202
0.9988278079
0.997806075
0.9967349524
0.9972043436
0.9976620567
0.9987369953
0.997767859
0.9919787378
0.9889006605
0.9951930132
0.9986803715
0.9892515976
0.9163314661
0.7732931227
)
;
    }
    procBoundary28to34
    {
        type            processor;
        value           nonuniform List<scalar> 
17
(
0.6933153605
0.6768676406
0.6537197732
0.6324196421
0.6204604294
0.6100759399
0.6117486854
0.6171799026
1.036840792
0.984252728
0.9384590292
0.8945650082
0.8527306023
0.8203043302
0.7900786736
0.6933153605
0.7582494446
)
;
    }
}


// ************************************************************************* //
