/*--------------------------------*- C++ -*----------------------------------*\
  =========                 |
  \\      /  F ield         | OpenFOAM: The Open Source CFD Toolbox
   \\    /   O peration     | Website:  https://openfoam.org
    \\  /    A nd           | Version:  7
     \\/     M anipulation  |
\*---------------------------------------------------------------------------*/
FoamFile
{
    version     2.0;
    format      ascii;
    class       volVectorField;
    location    "0.8";
    object      U;
}
// * * * * * * * * * * * * * * * * * * * * * * * * * * * * * * * * * * * * * //

dimensions      [0 1 -1 0 0 0 0];

internalField   nonuniform List<vector> 
558
(
(3.067938416 -0.2383165045 0)
(3.070858828 -0.2651548451 0)
(3.072698358 -0.2778157849 0)
(3.070638267 -0.2755587028 0)
(3.080553829 -0.3108364525 0)
(3.082658335 -0.3197830747 0)
(3.082964435 -0.3185208149 0)
(3.080876355 -0.3164109234 0)
(2.989467751 0.02194852603 0)
(3.000938266 -0.008602332933 0)
(3.012182601 -0.03969444159 0)
(3.023237093 -0.08804789424 0)
(3.029041844 -0.1092650695 0)
(3.037301245 -0.128557181 0)
(3.042567286 -0.1615162291 0)
(3.045769059 -0.1764763181 0)
(3.052862649 -0.193368226 0)
(3.064566909 -0.2331034637 0)
(3.068075489 -0.2559042112 0)
(3.070593738 -0.265140509 0)
(3.079345833 -0.3001121563 0)
(3.080465009 -0.3179269795 0)
(3.084272949 -0.3190916386 0)
(3.085399914 -0.3196655956 0)
(2.97362192 0.06771839916 0)
(2.988261093 0.02706788475 0)
(2.997562973 0.006149973821 0)
(3.008985832 -0.03445578926 0)
(3.016793523 -0.06598328519 0)
(3.023948621 -0.0861251021 0)
(3.035391228 -0.1280352572 0)
(3.039491845 -0.1538456309 0)
(3.046327968 -0.1678266156 0)
(3.056928698 -0.1993974055 0)
(3.060935006 -0.214722688 0)
(3.065076088 -0.2213915912 0)
(3.068009693 -0.2396584019 0)
(3.072007268 -0.2732284708 0)
(3.073964317 -0.2749427714 0)
(3.078450146 -0.2862414487 0)
(2.959084317 0.1062627228 0)
(2.973727486 0.06905513182 0)
(2.985892688 0.03860618382 0)
(2.998262238 0.003053299743 0)
(3.006542251 -0.02820095807 0)
(3.015108581 -0.05620604216 0)
(3.023267766 -0.08211660249 0)
(3.031990426 -0.1189656027 0)
(3.03762776 -0.1324263145 0)
(3.047262126 -0.1612962212 0)
(3.052466414 -0.1845819594 0)
(3.054076793 -0.1854331348 0)
(3.062900399 -0.2142654597 0)
(3.068617238 -0.2464204105 0)
(3.070208751 -0.2568784257 0)
(3.07635649 -0.2737778926 0)
(2.945671321 0.1392054401 0)
(2.959403087 0.1064756479 0)
(2.972305969 0.07632507163 0)
(2.985282756 0.04212757547 0)
(2.994857725 0.01173741769 0)
(3.004613039 -0.01997183299 0)
(3.012631769 -0.0458467832 0)
(3.021006437 -0.0771509811 0)
(3.025499977 -0.09348633325 0)
(3.036571109 -0.1255379703 0)
(3.044522086 -0.156530441 0)
(3.048832288 -0.1667953071 0)
(3.056826284 -0.1869473666 0)
(3.060374946 -0.2092918163 0)
(3.062670413 -0.2161234491 0)
(3.062640302 -0.2188900001 0)
(2.931619268 0.1708081034 0)
(2.946867864 0.1371244553 0)
(2.958109715 0.1119286971 0)
(2.973255557 0.07520093069 0)
(2.982262793 0.04927990808 0)
(2.992271895 0.01960321604 0)
(3.003587796 -0.01669929957 0)
(3.011653284 -0.04585821909 0)
(3.018455824 -0.06781765061 0)
(3.026482147 -0.09241822984 0)
(3.034172865 -0.1187436985 0)
(3.039135488 -0.1297524669 0)
(3.045682977 -0.1473155686 0)
(3.053266283 -0.1850877537 0)
(3.055706061 -0.1898218338 0)
(3.060076704 -0.2019770672 0)
(2.919999802 0.1949723103 0)
(2.93313016 0.1687619826 0)
(2.945868297 0.1405263932 0)
(2.959267484 0.1110648419 0)
(2.97126235 0.07867712934 0)
(2.980515227 0.05420348777 0)
(2.989913432 0.02474080704 0)
(3.000463737 -0.01159997223 0)
(3.006425351 -0.02916556663 0)
(3.017299189 -0.06323070545 0)
(3.024685406 -0.08848515783 0)
(3.0300291 -0.1005402911 0)
(3.036086041 -0.1155307512 0)
(3.045433647 -0.1519965 0)
(3.049017062 -0.1673899996 0)
(3.054182993 -0.1731859867 0)
(2.909185679 0.2160208032 0)
(2.920886245 0.1943582695 0)
(2.93393797 0.1674838547 0)
(2.945313196 0.143219523 0)
(2.959187504 0.1101683366 0)
(2.968769617 0.085605214 0)
(2.979761759 0.05505348397 0)
(2.989941481 0.01937947409 0)
(2.994269795 0.005489360048 0)
(3.006502314 -0.02861070581 0)
(3.014653735 -0.05913543531 0)
(3.021767301 -0.07766208079 0)
(3.028421593 -0.08971978438 0)
(3.03717559 -0.1215060441 0)
(3.040738924 -0.1370052418 0)
(3.04281438 -0.1387370069 0)
(2.900643136 0.2314865041 0)
(2.910620489 0.2143025552 0)
(2.921345755 0.1939981383 0)
(2.934488904 0.1668848899 0)
(2.945661075 0.141802267 0)
(2.957328302 0.1143442442 0)
(2.966366562 0.09078188505 0)
(2.979272754 0.05153518357 0)
(2.986026601 0.02878281439 0)
(2.993413121 0.008678707273 0)
(3.003734697 -0.02688744349 0)
(3.010077841 -0.04395528559 0)
(3.017431182 -0.05801957318 0)
(3.028559661 -0.09320410483 0)
(3.03293889 -0.1107093044 0)
(3.037595373 -0.1212413826 0)
(2.895337334 0.2401943523 0)
(2.901781912 0.230670463 0)
(2.91152791 0.2131759341 0)
(2.921552435 0.1944182637 0)
(2.934496805 0.1660779483 0)
(2.945748961 0.1418868426 0)
(2.955995602 0.1174912273 0)
(2.967276507 0.08573995573 0)
(2.974880965 0.06028276862 0)
(2.984203516 0.03495469529 0)
(2.994334207 0.00263113412 0)
(3.000891937 -0.01965479382 0)
(3.007138622 -0.03014199764 0)
(3.019046239 -0.06435768354 0)
(3.023983201 -0.08210013791 0)
(3.029881918 -0.09543800254 0)
(2.892863295 0.2435023649 0)
(2.896795487 0.2398925246 0)
(2.903517276 0.2289898923 0)
(2.911559219 0.21392247 0)
(2.923321432 0.1902768141 0)
(2.933407879 0.1689783856 0)
(2.945226102 0.1435201378 0)
(2.956812298 0.1143459506 0)
(2.965170398 0.08714229242 0)
(2.972961026 0.06635890753 0)
(2.982696626 0.03700206588 0)
(2.991692221 0.007082327894 0)
(2.997323998 -0.00413543117 0)
(3.009505979 -0.03694715804 0)
(3.014636772 -0.05466528394 0)
(3.019997552 -0.06625108806 0)
(2.893327664 0.2435480512 0)
(2.894626315 0.2432190083 0)
(2.897766635 0.2390181845 0)
(2.903744767 0.2285323403 0)
(2.912511805 0.2125274054 0)
(2.92351521 0.1899563126 0)
(2.933984111 0.1686726211 0)
(2.944747021 0.1444020637 0)
(2.955846359 0.1130895474 0)
(2.963598754 0.09168862624 0)
(2.973949673 0.06187465529 0)
(2.98124483 0.03813190579 0)
(2.987255074 0.02287899085 0)
(2.999465243 -0.007738061203 0)
(3.006019654 -0.03084316097 0)
(3.012725063 -0.04704226771 0)
(2.889176463 0.2422089364 0)
(2.894533255 0.2421780994 0)
(2.895488924 0.2423814814 0)
(2.898621712 0.2381715497 0)
(2.904801504 0.2273579999 0)
(2.91324789 0.2115264865 0)
(2.924140286 0.1896418443 0)
(2.934436901 0.1684641064 0)
(2.944912431 0.141520065 0)
(2.952918999 0.1198387875 0)
(2.963866275 0.08994501079 0)
(2.972604443 0.06246260082 0)
(2.978922723 0.04546417838 0)
(2.988251005 0.02320592993 0)
(2.996307765 -0.003279390408 0)
(3.002856246 -0.01869885708 0)
(2.91814881 0.215890221 0)
(2.897369054 0.2368816344 0)
(2.895636711 0.2424014511 0)
(2.896296339 0.2415714664 0)
(2.899139114 0.2373948713 0)
(2.904985805 0.2278066162 0)
(2.914683622 0.2100691487 0)
(2.923967611 0.1915885973 0)
(2.936179968 0.1637431742 0)
(2.943699916 0.1436691209 0)
(2.953797649 0.1167959254 0)
(2.96226174 0.09119796411 0)
(2.969745794 0.06937668964 0)
(2.979698288 0.0460291329 0)
(2.987583495 0.02056611266 0)
(2.99429882 0.004491491896 0)
(2.929833759 0.2192723497 0)
(2.899906159 0.24656907 0)
(2.895134522 0.2388728266 0)
(2.896130629 0.2396114094 0)
(2.897067117 0.2407007466 0)
(2.900241411 0.2366508226 0)
(2.906451402 0.226671505 0)
(2.915179996 0.2103686146 0)
(2.92541855 0.189363183 0)
(2.934460336 0.1665478849 0)
(2.94498724 0.1397824713 0)
(2.952512337 0.1168878539 0)
(2.960895215 0.09229704719 0)
(2.967744098 0.07604290531 0)
(2.978745393 0.0445145931 0)
(2.985646236 0.02714742278 0)
(2.951590385 0.1357860238 0)
(2.940749062 0.1665747348 0)
(2.914258662 0.2119759312 0)
(2.898240676 0.2401527704 0)
(2.896433214 0.2409978936 0)
(2.89735717 0.2403261389 0)
(2.90096317 0.2366766211 0)
(2.907843926 0.2260876265 0)
(2.916208289 0.2098953592 0)
(2.925870774 0.1876433179 0)
(2.934859608 0.1651553672 0)
(2.943843283 0.1397417116 0)
(2.952570516 0.1144078054 0)
(2.959097036 0.09715700835 0)
(2.969023213 0.07062561816 0)
(2.975708303 0.05259039225 0)
(2.974801128 0.059932998 0)
(2.968353572 0.1052695182 0)
(2.923849164 0.224221312 0)
(2.901153251 0.2304388927 0)
(2.898096675 0.2357368383 0)
(2.898021295 0.2380063684 0)
(2.899047159 0.239532216 0)
(2.902622243 0.2355430609 0)
(2.908690386 0.2248792658 0)
(2.916530815 0.2084763667 0)
(2.926042342 0.1861800432 0)
(2.934267243 0.1639209243 0)
(2.942819827 0.1400843011 0)
(2.951076288 0.1173662409 0)
(2.959682455 0.09468335712 0)
(2.966976697 0.07519516165 0)
(2.993059816 0.01602874625 0)
(2.982487173 0.05060301064 0)
(2.95075081 0.1351694819 0)
(2.940826715 0.1608181143 0)
(2.908977858 0.2173540736 0)
(2.897826592 0.2409103924 0)
(2.898192915 0.23969618 0)
(2.899850651 0.2393577416 0)
(2.903518014 0.2355110452 0)
(2.9094534 0.2244008586 0)
(2.91730039 0.2065799418 0)
(2.925970309 0.1842214108 0)
(2.934551328 0.1615953911 0)
(2.941776711 0.1408574103 0)
(2.951241644 0.1159251004 0)
(2.957664993 0.09867667276 0)
(2.998801933 0.002993813933 0)
(2.994775576 0.01364240874 0)
(2.974908612 0.05937278907 0)
(2.966429494 0.1090926407 0)
(2.919107568 0.2234214118 0)
(2.906587404 0.2177491108 0)
(2.900475526 0.2337806724 0)
(2.900475041 0.2379211806 0)
(2.901462845 0.2390499297 0)
(2.90442281 0.2339125474 0)
(2.90913848 0.2233808007 0)
(2.917377413 0.204450305 0)
(2.925034078 0.1849451205 0)
(2.934017008 0.1605726433 0)
(2.941923745 0.1391160176 0)
(2.948829009 0.1196785109 0)
(2.999871065 0.0003369523208 0)
(2.999014911 0.002517215493 0)
(2.993146574 0.01623791973 0)
(2.981578098 0.05187282774 0)
(2.949425322 0.1330632031 0)
(2.937964301 0.1621614439 0)
(2.906102949 0.2232487991 0)
(2.900918324 0.2401418371 0)
(2.900989032 0.2411056043 0)
(2.902283893 0.2377830249 0)
(2.904696774 0.2331020075 0)
(2.910081315 0.2216041368 0)
(2.917387766 0.2036942845 0)
(2.925669075 0.181984869 0)
(2.932795683 0.1611388787 0)
(2.941526628 0.1368146501 0)
(2.999990656 2.464830891e-05 0)
(2.999881461 0.0003007053192 0)
(2.998877891 0.002866533567 0)
(2.994333716 0.01456189595 0)
(2.976565046 0.0559952595 0)
(2.959792709 0.1169365557 0)
(2.915860684 0.2150783375 0)
(2.91232553 0.2109170326 0)
(2.905748025 0.2332917139 0)
(2.902498494 0.2394855402 0)
(2.902594893 0.2377658621 0)
(2.90492958 0.2325788965 0)
(2.910456021 0.2199867905 0)
(2.917233895 0.2022671627 0)
(2.92441343 0.1810331794 0)
(2.931611035 0.1605664566 0)
(2.999999492 1.321059914e-06 0)
(2.999990805 2.321186528e-05 0)
(2.999873953 0.0003316744835 0)
(2.998976763 0.002576119481 0)
(2.993670395 0.01566798454 0)
(2.979895656 0.05359714332 0)
(2.948805616 0.125353713 0)
(2.936969784 0.1639797948 0)
(2.907327039 0.237590058 0)
(2.902662092 0.2421551736 0)
(2.90260432 0.2375362092 0)
(2.903421724 0.2364242203 0)
(2.905644947 0.2313104737 0)
(2.910341596 0.2178030185 0)
(2.916069611 0.1997814894 0)
(2.922906865 0.180623843 0)
(2.999999983 4.267525609e-08 0)
(2.999999422 1.467306656e-06 0)
(2.999991122 2.318352558e-05 0)
(2.999870019 0.0003281223999 0)
(2.998987442 0.002643564082 0)
(2.993900625 0.01534630315 0)
(2.978805527 0.05215079105 0)
(2.953948612 0.123648733 0)
(2.918784593 0.2006824046 0)
(2.919148598 0.2085357549 0)
(2.910600029 0.2315170119 0)
(2.90459047 0.2369718756 0)
(2.903503993 0.2364234269 0)
(2.903943782 0.2302744172 0)
(2.908085891 0.216087424 0)
(2.9144052 0.1995516279 0)
(2.999999999 1.334087146e-09 0)
(2.999999979 5.246336602e-08 0)
(2.999999465 1.399654292e-06 0)
(2.999990248 2.453436019e-05 0)
(2.999876056 0.0003279515524 0)
(2.998936309 0.002640170132 0)
(2.994142961 0.01532056903 0)
(2.979333849 0.05313398371 0)
(2.949474601 0.1159892777 0)
(2.932979724 0.1786900283 0)
(2.913431639 0.2381939671 0)
(2.909476399 0.2381635989 0)
(2.902103965 0.2371513967 0)
(2.901531906 0.2354571412 0)
(2.902848215 0.2278947875 0)
(2.908052996 0.2149069362 0)
(3 2.137329601e-11 0)
(2.999999999 1.790880224e-09 0)
(2.999999982 4.590710637e-08 0)
(2.99999936 1.657378158e-06 0)
(2.999991201 2.283737647e-05 0)
(2.999857152 0.000364398869 0)
(2.999088094 0.00243930357 0)
(2.993405013 0.01661283554 0)
(2.982121729 0.04629916703 0)
(2.948171882 0.1339547346 0)
(2.927103278 0.1806933217 0)
(2.928984729 0.2101319489 0)
(2.909765174 0.2314989175 0)
(2.90051869 0.2328952936 0)
(2.90077291 0.2307628582 0)
(2.904657226 0.2236658365 0)
(3 3.035108031e-13 0)
(3 2.975937684e-11 0)
(2.999999999 1.385424275e-09 0)
(2.999999977 5.912473262e-08 0)
(2.999999459 1.415560306e-06 0)
(2.999989144 2.750028951e-05 0)
(2.999879792 0.0003201239356 0)
(2.998865904 0.002779686793 0)
(2.994689451 0.0148176021 0)
(2.977991762 0.05506549792 0)
(2.954667454 0.1082344654 0)
(2.93904833 0.1818866398 0)
(2.915940269 0.2436565119 0)
(2.898877223 0.2348845687 0)
(2.901293061 0.230795874 0)
(2.903149115 0.2287610294 0)
(3 3.613040238e-13 0)
(3 2.254286082e-11 0)
(2.999999999 1.711577549e-09 0)
(2.999999981 5.009638196e-08 0)
(2.999999344 1.702335682e-06 0)
(2.999990651 2.401063482e-05 0)
(2.999851061 0.0003779249941 0)
(2.999062716 0.002505310107 0)
(2.993253274 0.01659449817 0)
(2.982907745 0.0459569288 0)
(2.94854618 0.1350115859 0)
(2.939495798 0.1698797466 0)
(2.926441217 0.2073235418 0)
(2.90682594 0.2269252994 0)
(2.904228659 0.2290685641 0)
(3 -9.405332671e-15 0)
(3 2.445188696e-13 0)
(3 2.780697284e-11 0)
(2.999999999 1.342256549e-09 0)
(2.999999976 6.272362039e-08 0)
(2.999999466 1.369904783e-06 0)
(2.999987939 3.100631578e-05 0)
(2.99988275 0.0003050348275 0)
(2.9987487 0.003099147082 0)
(2.995050054 0.01358188225 0)
(2.976116291 0.05694399796 0)
(2.962863642 0.1025196775 0)
(2.936979984 0.1987768126 0)
(2.91337945 0.2365840549 0)
(2.901607548 0.2281079829 0)
(3 -1.282312759e-14 0)
(3 -2.585238845e-15 0)
(3 3.061596458e-13 0)
(3 2.357144802e-11 0)
(2.999999999 1.512598206e-09 0)
(2.999999979 5.297070202e-08 0)
(2.999999369 1.650715109e-06 0)
(2.999990117 2.553214587e-05 0)
(2.999854267 0.0003702540402 0)
(2.999024356 0.002579887097 0)
(2.993096202 0.0160781285 0)
(2.982227941 0.04967679903 0)
(2.95197065 0.1332112488 0)
(2.947679431 0.1598750601 0)
(2.925429981 0.2011090304 0)
(3 -6.204764286e-15 0)
(3 -8.249983783e-15 0)
(3 -4.871304441e-15 0)
(3 2.807746405e-13 0)
(3 2.37879458e-11 0)
(2.999999999 1.327914713e-09 0)
(2.999999978 5.914096276e-08 0)
(2.999999476 1.350364438e-06 0)
(2.999988116 3.104227888e-05 0)
(2.999883636 0.0003017204571 0)
(2.998703115 0.003232062887 0)
(2.994972351 0.01361943543 0)
(2.975831792 0.05756002518 0)
(2.968973785 0.1028389506 0)
(2.933549614 0.2071388755 0)
(3 -3.300896904e-15 0)
(3 -1.323129595e-15 0)
(3 -5.798036668e-15 0)
(3 1.592871116e-15 0)
(3 2.419859663e-13 0)
(3 2.324682213e-11 0)
(3 1.30963468e-09 0)
(2.99999998 5.074183895e-08 0)
(2.999999403 1.570183552e-06 0)
(2.999990297 2.533617207e-05 0)
(2.999858232 0.0003695391012 0)
(2.999016377 0.002617408499 0)
(2.993295058 0.01557985377 0)
(2.981623135 0.05217720592 0)
(2.957482324 0.1198802984 0)
(3 -1.251886592e-14 0)
(3 4.420607344e-15 0)
(3 4.701953142e-15 0)
(3 9.524493633e-15 0)
(3 1.71812619e-14 0)
(3 3.243119027e-13 0)
(3 1.963072129e-11 0)
(2.999999999 1.291935166e-09 0)
(2.99999998 5.310226782e-08 0)
(2.999999491 1.315052377e-06 0)
(2.999989142 2.895066445e-05 0)
(2.999886239 0.0002961486794 0)
(2.998804853 0.003005554709 0)
(2.994739433 0.01371621278 0)
(2.977681104 0.05460768825 0)
(3 -7.581876465e-15 0)
(3 5.139164889e-16 0)
(3 1.294056189e-14 0)
(3 1.768091837e-14 0)
(3 1.915010815e-14 0)
(3 1.620359576e-14 0)
(3 2.37772315e-13 0)
(3 2.327538995e-11 0)
(3 1.220012915e-09 0)
(2.999999981 4.748401883e-08 0)
(2.99999946 1.414344549e-06 0)
(2.999990798 2.369160304e-05 0)
(2.99987284 0.0003326508341 0)
(2.998975856 0.002653151907 0)
(2.994496568 0.01352396872 0)
(3 -1.062680482e-14 0)
(3 -4.866935766e-15 0)
(3 7.933925201e-15 0)
(3 1.370967048e-14 0)
(3 1.380981589e-14 0)
(3 1.16763151e-14 0)
(3 3.266312964e-15 0)
(3 3.872934142e-13 0)
(3 1.908275926e-11 0)
(2.999999999 1.363456124e-09 0)
(2.999999981 4.801874839e-08 0)
(2.999999495 1.270848763e-06 0)
(2.999989933 2.649446679e-05 0)
(2.999889817 0.0002826804549 0)
(2.998925271 0.002826711693 0)
(3 -6.170546813e-15 0)
(3 5.840661475e-16 0)
(3 1.23637091e-14 0)
(3 1.334363242e-14 0)
(3 4.596659239e-15 0)
(3 1.335941384e-14 0)
(3 1.702903455e-15 0)
(3 -1.510947268e-15 0)
(3 2.881088302e-13 0)
(3 2.802556672e-11 0)
(2.999999999 1.303123388e-09 0)
(2.99999998 5.09201309e-08 0)
(2.99999948 1.344464622e-06 0)
(2.999990597 2.452841488e-05 0)
(2.99988922 0.0002912404612 0)
(3 -3.689923718e-15 0)
(3 -1.918836403e-15 0)
(3 2.162055257e-15 0)
(3 6.568111674e-15 0)
(3 2.755479534e-15 0)
(3 9.083710236e-15 0)
(3 9.832088367e-15 0)
(3 3.165365692e-17 0)
(3 4.387444054e-15 0)
(3 2.835917994e-13 0)
(3 1.358754793e-11 0)
(2.999999999 8.483003254e-10 0)
(2.999999973 2.811858308e-08 0)
(2.999999297 7.442045919e-07 0)
(2.999987402 1.378617318e-05 0)
)
;

boundaryField
{
    inlet
    {
        type            fixedValue;
        value           nonuniform 0();
    }
    outlet
    {
        type            inletOutlet;
        inletValue      nonuniform 0();
        value           nonuniform 0();
    }
    bottom
    {
        type            slip;
    }
    top
    {
        type            slip;
    }
    obstacle
    {
        type            slip;
    }
    defaultFaces
    {
        type            empty;
    }
    procBoundary34to27
    {
        type            processor;
        value           nonuniform List<vector> 4((2.975368609 0.06306745128 0) (2.960613358 0.1019931993 0) (2.945489519 0.1384915845 0) (2.931677174 0.1694918366 0));
    }
    procBoundary34to28
    {
        type            processor;
        value           nonuniform List<vector> 
17
(
(3.074597111 -0.2839480299 0)
(3.078543343 -0.3193053988 0)
(3.082647915 -0.3177185592 0)
(3.088661291 -0.3306168245 0)
(3.088182262 -0.3374721074 0)
(3.086900272 -0.3322827703 0)
(3.081855767 -0.31340243 0)
(3.061884032 -0.255122634 0)
(3.003637743 -0.02256454 0)
(3.014682988 -0.04632930697 0)
(3.024447943 -0.08394075182 0)
(3.031569831 -0.1245914279 0)
(3.036633597 -0.1372923304 0)
(3.048244985 -0.1740314679 0)
(3.05405414 -0.2114712425 0)
(3.059905848 -0.2257061552 0)
(3.059905848 -0.2257061552 0)
)
;
    }
    procBoundary34to29
    {
        type            processor;
        value           uniform (3.073431189 -0.2891651985 0);
    }
    procBoundary34to33
    {
        type            processor;
        value           nonuniform List<vector> 
32
(
(2.91880942 0.1961267745 0)
(2.907869674 0.2173431165 0)
(2.899405888 0.2322569976 0)
(2.893821466 0.2414947016 0)
(2.891839491 0.2438580176 0)
(2.891234129 0.2437817923 0)
(2.895117739 0.2405788713 0)
(2.905023788 0.2550869208 0)
(2.940925486 0.1745245695 0)
(2.966450808 0.1061537819 0)
(2.982489825 0.05059110447 0)
(2.995116521 0.0129822471 0)
(2.999062191 0.002424338275 0)
(2.999890814 0.00027775576 0)
(2.999991202 2.239212133e-05 0)
(2.999999494 1.27850905e-06 0)
(2.999999981 4.689014164e-08 0)
(2.999999999 1.588978001e-09 0)
(3 2.833205373e-11 0)
(3 4.48252846e-13 0)
(3 1.067157004e-14 0)
(3 1.076477979e-14 0)
(3 1.076477979e-14 0)
(3 2.752153366e-15 0)
(3 6.423856813e-15 0)
(3 -2.705084239e-15 0)
(3 -1.768607407e-14 0)
(3 -1.991849983e-14 0)
(3 -1.722260087e-14 0)
(3 -1.693110041e-14 0)
(3 -1.204852265e-14 0)
(3 -6.746819067e-15 0)
)
;
    }
    procBoundary34to35
    {
        type            processor;
        value           nonuniform List<vector> 
35
(
(3.08425397 -0.3192321937 0)
(3.081702325 -0.3090950571 0)
(3.080775983 -0.3065812497 0)
(3.071250841 -0.2543228578 0)
(3.06887533 -0.2324888359 0)
(3.061693605 -0.1971771556 0)
(3.054853959 -0.1698721443 0)
(3.04567792 -0.1383303637 0)
(3.038408589 -0.1135040033 0)
(3.028139427 -0.08321502563 0)
(3.01930937 -0.05838353329 0)
(3.011030397 -0.0347013423 0)
(3.00084476 -0.007131611895 0)
(2.992161668 0.01533161694 0)
(2.984425096 0.03411158253 0)
(2.975140993 0.05707054907 0)
(2.966954031 0.07747343057 0)
(2.957599115 0.1008924004 0)
(2.947774838 0.1233597381 0)
(2.939506457 0.1409477087 0)
(2.931542838 0.1594821476 0)
(2.92369931 0.1788972517 0)
(2.916993199 0.196764297 0)
(2.91097051 0.2122830929 0)
(2.906776551 0.2230126619 0)
(2.905039886 0.2289969577 0)
(2.905032111 0.230778039 0)
(2.909972645 0.2278018587 0)
(2.912116963 0.2365148274 0)
(2.938434722 0.168711812 0)
(2.961532621 0.1068647993 0)
(2.978923984 0.05584047529 0)
(2.995056761 0.01268940854 0)
(2.998996863 0.002692434149 0)
(2.999838368 0.0001713583411 0)
)
;
    }
}


// ************************************************************************* //
