/*--------------------------------*- C++ -*----------------------------------*\
  =========                 |
  \\      /  F ield         | OpenFOAM: The Open Source CFD Toolbox
   \\    /   O peration     | Website:  https://openfoam.org
    \\  /    A nd           | Version:  7
     \\/     M anipulation  |
\*---------------------------------------------------------------------------*/
FoamFile
{
    version     2.0;
    format      ascii;
    class       volVectorField;
    location    "1.2";
    object      U;
}
// * * * * * * * * * * * * * * * * * * * * * * * * * * * * * * * * * * * * * //

dimensions      [0 1 -1 0 0 0 0];

internalField   nonuniform List<vector> 5((2.999949158 -8.580238127e-05 0) (2.995417213 -0.007831593429 0) (2.989086371 -0.02030793993 0) (2.982778725 -0.03450014096 0) (2.966723395 -0.07474718192 0));

boundaryField
{
    inlet
    {
        type            fixedValue;
        value           nonuniform 0();
    }
    outlet
    {
        type            inletOutlet;
        inletValue      nonuniform 0();
        value           nonuniform 0();
    }
    bottom
    {
        type            slip;
    }
    top
    {
        type            slip;
    }
    obstacle
    {
        type            slip;
    }
    defaultFaces
    {
        type            empty;
    }
    procBoundary14to7
    {
        type            processor;
        value           nonuniform List<vector> 2((2.999989866 -1.772581026e-05 0) (2.998496437 -0.002429114246 0));
    }
    procBoundary14to8
    {
        type            processor;
        value           nonuniform List<vector> 5((3.000000289 3.241318023e-07 0) (2.999724258 -0.0005319436733 0) (2.999724258 -0.0005319436733 0) (2.999340824 -0.001320724856 0) (2.998203685 -0.003818011842 0));
    }
    procBoundary14to9
    {
        type            processor;
        value           uniform (2.965770983 -0.07852648136 0);
    }
    procBoundary14to13
    {
        type            processor;
        value           uniform (2.973872496 -0.004539051533 0);
    }
    procBoundary14to20
    {
        type            processor;
        value           nonuniform List<vector> 3((2.958831121 -0.02051612613 0) (2.94768715 -0.02624046183 0) (2.928659829 -0.05355985562 0));
    }
}


// ************************************************************************* //
