/*--------------------------------*- C++ -*----------------------------------*\
  =========                 |
  \\      /  F ield         | OpenFOAM: The Open Source CFD Toolbox
   \\    /   O peration     | Website:  https://openfoam.org
    \\  /    A nd           | Version:  7
     \\/     M anipulation  |
\*---------------------------------------------------------------------------*/
FoamFile
{
    version     2.0;
    format      ascii;
    class       volVectorField;
    location    "0.9";
    object      U;
}
// * * * * * * * * * * * * * * * * * * * * * * * * * * * * * * * * * * * * * //

dimensions      [0 1 -1 0 0 0 0];

internalField   nonuniform List<vector> 
2222
(
(2.086451173 0.002718177767 0)
(2.124264223 0.006639404005 0)
(2.159078466 0.01103049526 0)
(2.1837389 0.01224217693 0)
(2.201807561 0.01128684083 0)
(2.220239277 0.01004241319 0)
(2.241719977 0.009530802683 0)
(2.264769235 0.009988660477 0)
(2.287796688 0.01139876944 0)
(2.310364618 0.01279575691 0)
(2.332947106 0.01310247649 0)
(2.356068886 0.01245828779 0)
(2.379100192 0.01175308008 0)
(2.400387036 0.01154018686 0)
(2.418200708 0.01179587213 0)
(2.431806967 0.01222856034 0)
(2.442161621 0.01248108093 0)
(2.452183774 0.01242558461 0)
(2.46518417 0.01234785414 0)
(2.482205385 0.01251433906 0)
(2.50169332 0.01289214434 0)
(2.521268304 0.01319692479 0)
(2.539064702 0.01317811213 0)
(2.554080136 0.01297553596 0)
(2.565971072 0.01260271719 0)
(2.575532208 0.01216561518 0)
(2.584163871 0.01201119319 0)
(2.59283127 0.01237733579 0)
(2.602274946 0.01279335532 0)
(2.613752054 0.01296540492 0)
(2.627613189 0.01334190116 0)
(2.642567418 0.01348454458 0)
(2.099229045 0.01510584302 0)
(2.130914791 0.01750556937 0)
(2.168276422 0.01982864248 0)
(2.197022204 0.02086067545 0)
(2.21644538 0.02184956553 0)
(2.232018072 0.02147451314 0)
(2.248970838 0.02155982487 0)
(2.269756944 0.02220952962 0)
(2.293329342 0.02374561764 0)
(2.317406081 0.02553023578 0)
(2.341053694 0.02599252204 0)
(2.364157114 0.02498565269 0)
(2.386434559 0.02390087185 0)
(2.406999557 0.02379367399 0)
(2.424564998 0.0243665266 0)
(2.438367092 0.02482074891 0)
(2.449114109 0.02477524917 0)
(2.459398257 0.02436982199 0)
(2.472276754 0.02406702916 0)
(2.489042886 0.02431868728 0)
(2.508450524 0.0250961658 0)
(2.528096161 0.02581808935 0)
(2.545825147 0.02557814829 0)
(2.560891739 0.02485954479 0)
(2.573185565 0.02425264931 0)
(2.582720045 0.02340333758 0)
(2.591161313 0.0228214558 0)
(2.59992502 0.02313723134 0)
(2.609669639 0.0241139286 0)
(2.62096866 0.02415080674 0)
(2.634788457 0.02426679907 0)
(2.65017945 0.02467575189 0)
(2.119653327 0.02639067104 0)
(2.136122667 0.03707336355 0)
(2.167723938 0.03233093354 0)
(2.198901605 0.03601264222 0)
(2.22037692 0.04120835627 0)
(2.234481049 0.04053899976 0)
(2.249510405 0.03799804618 0)
(2.268795166 0.03771821685 0)
(2.291628255 0.0401802633 0)
(2.315682651 0.04305535204 0)
(2.33958151 0.04381426543 0)
(2.362926567 0.04225707117 0)
(2.385178829 0.04037560107 0)
(2.405420423 0.03966490179 0)
(2.422580074 0.04018685891 0)
(2.436060342 0.04114802249 0)
(2.446773528 0.04146577274 0)
(2.457616988 0.04114673373 0)
(2.47111429 0.04083067181 0)
(2.487961336 0.04102895745 0)
(2.50711794 0.04174150686 0)
(2.52663737 0.04269374093 0)
(2.544337469 0.04297867388 0)
(2.558914185 0.04171854866 0)
(2.571599332 0.04032103915 0)
(2.581978101 0.03922070858 0)
(2.590652955 0.03840984637 0)
(2.599425984 0.03869994535 0)
(2.609512252 0.04005918731 0)
(2.621025193 0.04082043938 0)
(2.633758014 0.04019996069 0)
(2.648526045 0.04029045651 0)
(2.131048399 0.04969603632 0)
(2.144328908 0.05087003673 0)
(2.168824901 0.04686417227 0)
(2.204703994 0.05366077841 0)
(2.230610883 0.05975222065 0)
(2.245880326 0.0574653998 0)
(2.260159287 0.05223574536 0)
(2.279353546 0.05210631687 0)
(2.302292248 0.05633253638 0)
(2.326269784 0.06128877014 0)
(2.349788786 0.06326769212 0)
(2.372689623 0.06146878592 0)
(2.394601074 0.05826416302 0)
(2.414472563 0.05649226542 0)
(2.430641669 0.05687356892 0)
(2.44284191 0.05838540328 0)
(2.453978372 0.05923701031 0)
(2.466493302 0.05869496194 0)
(2.48114348 0.05794547383 0)
(2.498133685 0.05815246676 0)
(2.516699891 0.05896175514 0)
(2.534890113 0.05978901361 0)
(2.551859545 0.06079973901 0)
(2.567810638 0.06007817979 0)
(2.581061145 0.05721246921 0)
(2.591698452 0.05517219254 0)
(2.599277878 0.05452262448 0)
(2.606441889 0.05456494305 0)
(2.616025633 0.05542500539 0)
(2.627896057 0.05708707696 0)
(2.640425856 0.05679985647 0)
(2.652794742 0.05748040995 0)
(2.235605187 -0.09979780172 0)
(2.155807545 0.03571396689 0)
(2.166769434 0.06028462228 0)
(2.197919862 0.07137839135 0)
(2.226760005 0.07661022728 0)
(2.246083458 0.07535764451 0)
(2.260345368 0.06785294261 0)
(2.277595593 0.0651821099 0)
(2.299724088 0.06982942944 0)
(2.323407865 0.07663323038 0)
(2.347097278 0.08021882854 0)
(2.370365936 0.07876537362 0)
(2.392096605 0.07444500784 0)
(2.411023614 0.07109181004 0)
(2.426434669 0.07067129035 0)
(2.439278337 0.07261926254 0)
(2.451251974 0.07414269612 0)
(2.463887657 0.07405606702 0)
(2.478399457 0.07341480193 0)
(2.495088245 0.07333839336 0)
(2.51340721 0.07395243598 0)
(2.533215111 0.07526254138 0)
(2.552342247 0.07677180162 0)
(2.56776121 0.07657104458 0)
(2.578971443 0.07289496889 0)
(2.58713722 0.06931653604 0)
(2.595426296 0.06955901659 0)
(2.604368155 0.07028322153 0)
(2.61499786 0.07132176858 0)
(2.627511153 0.07315532336 0)
(2.641538732 0.07370139693 0)
(2.658698471 0.07230947983 0)
(2.410994307 -0.3374815987 0)
(2.177835126 0.02200610307 0)
(2.16234862 0.08115762588 0)
(2.188366776 0.08882925935 0)
(2.220468353 0.09223496123 0)
(2.245930331 0.09283869671 0)
(2.260750984 0.08558452206 0)
(2.274099148 0.07987899145 0)
(2.295708194 0.08445276427 0)
(2.322565151 0.09243298669 0)
(2.3498722 0.09680821113 0)
(2.374541982 0.09624948401 0)
(2.394862259 0.09200828005 0)
(2.412171262 0.0881271508 0)
(2.428607912 0.08785224606 0)
(2.444180687 0.08954284269 0)
(2.458480568 0.09091622197 0)
(2.472339211 0.09134343538 0)
(2.48728854 0.09113523643 0)
(2.503448789 0.09114937275 0)
(2.520140868 0.09227261681 0)
(2.535704206 0.09305825053 0)
(2.550134671 0.09219204381 0)
(2.564719925 0.09081186072 0)
(2.577714193 0.08886795159 0)
(2.589472136 0.08738500392 0)
(2.599004728 0.08630085202 0)
(2.608468782 0.08630449812 0)
(2.619279953 0.08722913433 0)
(2.631945766 0.08781001739 0)
(2.646827361 0.08903152753 0)
(2.659824132 0.08889943862 0)
(2.535173125 -0.5727723258 0)
(2.304717729 -0.1535498525 0)
(2.186945528 0.03276849728 0)
(2.18323998 0.09035694785 0)
(2.203983543 0.1047487063 0)
(2.236552557 0.1080969373 0)
(2.258451336 0.1026311703 0)
(2.272189582 0.09730080301 0)
(2.28965664 0.09885975787 0)
(2.314768759 0.1042471347 0)
(2.343415636 0.1090249814 0)
(2.370483504 0.1107245365 0)
(2.392773242 0.1085740039 0)
(2.410297368 0.1049007599 0)
(2.425364326 0.1031053476 0)
(2.440143129 0.1037000432 0)
(2.455391416 0.1055602534 0)
(2.470501462 0.1070022934 0)
(2.484932657 0.1071133814 0)
(2.499413275 0.1067061088 0)
(2.514997811 0.1074012509 0)
(2.533011861 0.1090790188 0)
(2.552990081 0.1097167207 0)
(2.570529523 0.1081816565 0)
(2.583011605 0.1066414367 0)
(2.589742434 0.105024575 0)
(2.596362551 0.1021770777 0)
(2.605428888 0.1018892611 0)
(2.616300173 0.102842069 0)
(2.628853535 0.1035316589 0)
(2.641863804 0.1035762493 0)
(2.656291197 0.1040547087 0)
(2.563229224 -0.63215024 0)
(2.509357465 -0.4601594723 0)
(2.235302908 -0.01505025234 0)
(2.169331857 0.1025759729 0)
(2.193048401 0.1153560424 0)
(2.228503065 0.120120156 0)
(2.256521429 0.1187368347 0)
(2.273445647 0.1172251585 0)
(2.287417286 0.1169465997 0)
(2.308662906 0.1189261559 0)
(2.336564856 0.1222489907 0)
(2.364858916 0.1248556429 0)
(2.388787781 0.125112018 0)
(2.407250364 0.1228433919 0)
(2.422231888 0.1204887137 0)
(2.43628087 0.1197977756 0)
(2.450844993 0.1204314491 0)
(2.466360338 0.121923675 0)
(2.482308122 0.1232765574 0)
(2.498633054 0.1242135416 0)
(2.516022624 0.1254337562 0)
(2.534013967 0.126226073 0)
(2.551024152 0.1252542164 0)
(2.565600276 0.1237226176 0)
(2.578065465 0.1230018087 0)
(2.589752844 0.12131831 0)
(2.599565007 0.1190568099 0)
(2.60857626 0.1187221719 0)
(2.619087572 0.1194623522 0)
(2.631397877 0.1206105976 0)
(2.645805929 0.1220087647 0)
(2.660595086 0.1207362717 0)
(2.574204935 -0.6468688641 0)
(2.570758411 -0.5873214273 0)
(2.423133294 -0.2824658021 0)
(2.229731629 0.0156667123 0)
(2.204181601 0.1213071978 0)
(2.226598529 0.1313963573 0)
(2.252303319 0.134464156 0)
(2.270350664 0.1368499316 0)
(2.283825615 0.1350235838 0)
(2.303101034 0.133159771 0)
(2.33079498 0.1354939643 0)
(2.360513984 0.1397681215 0)
(2.385673892 0.1423887659 0)
(2.40393359 0.1408907241 0)
(2.41783783 0.136913755 0)
(2.431757579 0.1350088033 0)
(2.447224126 0.135966151 0)
(2.463371008 0.137800773 0)
(2.479362501 0.139540258 0)
(2.49529071 0.1407411062 0)
(2.511599144 0.1408255233 0)
(2.528509104 0.1399100821 0)
(2.545578828 0.139517293 0)
(2.561868245 0.1398235552 0)
(2.576278585 0.1389884915 0)
(2.588372558 0.1368011608 0)
(2.59815983 0.1350538396 0)
(2.606938311 0.1341930066 0)
(2.61682808 0.1339303083 0)
(2.629453638 0.1353223101 0)
(2.643346489 0.1368161012 0)
(2.657430644 0.1357269873 0)
(2.573856924 -0.6509110879 0)
(2.589474977 -0.6127014478 0)
(2.557791461 -0.5149084551 0)
(2.311389154 -0.06611495665 0)
(2.226665348 0.09213295119 0)
(2.229238497 0.1409602909 0)
(2.24799671 0.1513507054 0)
(2.26723857 0.1558459381 0)
(2.283452893 0.152339609 0)
(2.30352772 0.1491740207 0)
(2.32888154 0.1500773727 0)
(2.355628975 0.153301306 0)
(2.379395099 0.1561918743 0)
(2.398612753 0.1568518817 0)
(2.414811834 0.1544800291 0)
(2.429311603 0.1516382343 0)
(2.443269841 0.1509860025 0)
(2.458957754 0.1527215159 0)
(2.476611723 0.1561100065 0)
(2.494490878 0.1585592229 0)
(2.511779174 0.1586056028 0)
(2.528656809 0.1574209643 0)
(2.544639374 0.1569618011 0)
(2.559241733 0.1565752427 0)
(2.57254297 0.155360773 0)
(2.584160797 0.1536621028 0)
(2.593966082 0.1515649434 0)
(2.603485355 0.1501000375 0)
(2.614969749 0.1500125674 0)
(2.62878427 0.1518079813 0)
(2.643580556 0.1534105731 0)
(2.657897222 0.1527707343 0)
(2.576157861 -0.6355036117 0)
(2.596209552 -0.6232361059 0)
(2.592009485 -0.5774811582 0)
(2.512433222 -0.3808914539 0)
(2.297171806 -0.005586572719 0)
(2.233091757 0.1436140945 0)
(2.246693206 0.1667282485 0)
(2.264950092 0.1721642147 0)
(2.284302501 0.1690409249 0)
(2.305345005 0.165373372 0)
(2.329391773 0.1658149328 0)
(2.354786614 0.1694850919 0)
(2.377790664 0.1733331167 0)
(2.396278032 0.1749801231 0)
(2.410661961 0.1722963113 0)
(2.423241038 0.1670184905 0)
(2.438054345 0.1666639021 0)
(2.454754936 0.1686575828 0)
(2.471875794 0.1714200263 0)
(2.490016817 0.1742558707 0)
(2.507508683 0.1747285961 0)
(2.523564665 0.1729861517 0)
(2.538634486 0.1714847451 0)
(2.553204945 0.1708653723 0)
(2.566467725 0.1702685939 0)
(2.577680861 0.1688110409 0)
(2.587385556 0.1666302214 0)
(2.597262048 0.165140875 0)
(2.608860785 0.1646894304 0)
(2.622516963 0.165477071 0)
(2.63761085 0.1664731289 0)
(2.652837289 0.1668591837 0)
(2.571614815 -0.6323030924 0)
(2.597454659 -0.6107868012 0)
(2.607172945 -0.5896206598 0)
(2.591835677 -0.5304003638 0)
(2.413837694 -0.1685971236 0)
(2.270641888 0.09288495542 0)
(2.248448104 0.1799797048 0)
(2.266054366 0.1844541089 0)
(2.291709204 0.1850376104 0)
(2.313678018 0.1854755399 0)
(2.330354931 0.1831496273 0)
(2.349313181 0.1840437337 0)
(2.369695232 0.1872982261 0)
(2.388639703 0.189512442 0)
(2.405560305 0.1887806343 0)
(2.423618303 0.1861222466 0)
(2.441476069 0.1834155946 0)
(2.460115628 0.1853245207 0)
(2.477370407 0.1899866494 0)
(2.490675744 0.1923759944 0)
(2.504304201 0.1917047843 0)
(2.519647589 0.1894176483 0)
(2.535462619 0.1875237641 0)
(2.550554985 0.1867226638 0)
(2.564391354 0.1864351909 0)
(2.577217759 0.1860287641 0)
(2.589694217 0.1853712567 0)
(2.60172532 0.1848160823 0)
(2.613535277 0.1843257333 0)
(2.62600385 0.1844594912 0)
(2.639467274 0.1850222491 0)
(2.653057928 0.1848170797 0)
(2.56855924 -0.6351876311 0)
(2.599843147 -0.5953034622 0)
(2.615266422 -0.5915854287 0)
(2.616352011 -0.5570782416 0)
(2.571932344 -0.4390429491 0)
(2.343754189 -0.01136807768 0)
(2.272902 0.1608958464 0)
(2.271621283 0.1964299583 0)
(2.28819135 0.2073632886 0)
(2.309151266 0.2057461624 0)
(2.327133017 0.2008094519 0)
(2.346227172 0.2012700418 0)
(2.367600629 0.2049137622 0)
(2.389122469 0.2074211319 0)
(2.407605564 0.2069616719 0)
(2.421988733 0.2033804426 0)
(2.437346128 0.1990453854 0)
(2.453936251 0.2004075248 0)
(2.470389709 0.2057905827 0)
(2.486841762 0.2095050694 0)
(2.502207281 0.2091608178 0)
(2.516550133 0.2058060784 0)
(2.530585618 0.2022173274 0)
(2.544990531 0.200571474 0)
(2.559571396 0.2004299104 0)
(2.573179612 0.2005395703 0)
(2.585172831 0.2003270204 0)
(2.595980175 0.2002511307 0)
(2.607191592 0.2000951555 0)
(2.619615568 0.1999271813 0)
(2.632862683 0.1998970589 0)
(2.646920248 0.1994827222 0)
(2.566927658 -0.6344201569 0)
(2.597909418 -0.5923815032 0)
(2.62050093 -0.5729126453 0)
(2.628157564 -0.5659803132 0)
(2.619358595 -0.5276692591 0)
(2.505060859 -0.2643431289 0)
(2.326270867 0.09670527906 0)
(2.274285418 0.2199503977 0)
(2.286123467 0.2310083937 0)
(2.303966205 0.2264617492 0)
(2.321947081 0.2182057496 0)
(2.340963257 0.2161172328 0)
(2.36275595 0.2184806411 0)
(2.385514185 0.2220959801 0)
(2.406351977 0.2238891877 0)
(2.424109472 0.2213853302 0)
(2.438400771 0.2179580414 0)
(2.451576802 0.2190138753 0)
(2.466654598 0.2228879989 0)
(2.482980519 0.2255820795 0)
(2.499122239 0.225086941 0)
(2.515172541 0.2223202548 0)
(2.532045513 0.2196989471 0)
(2.54883216 0.2181125462 0)
(2.563678904 0.2179011075 0)
(2.575607486 0.2182744664 0)
(2.584816241 0.2174407528 0)
(2.593312324 0.2164282257 0)
(2.603451434 0.215727827 0)
(2.616268745 0.2159141034 0)
(2.631308342 0.2168704798 0)
(2.646815271 0.2168990016 0)
(2.567717784 -0.6316784554 0)
(2.597871185 -0.5921784321 0)
(2.625361503 -0.5587080979 0)
(2.638855027 -0.558094693 0)
(2.636631811 -0.5376019308 0)
(2.614562762 -0.4578860026 0)
(2.42325567 -0.05199010576 0)
(2.319695086 0.1752851919 0)
(2.29732595 0.2406270573 0)
(2.30656891 0.2415062123 0)
(2.326169424 0.2377144219 0)
(2.344254588 0.2347907684 0)
(2.362459822 0.2340870996 0)
(2.382915739 0.2367283174 0)
(2.403489823 0.2384800245 0)
(2.421101378 0.2370594223 0)
(2.434650348 0.2352818296 0)
(2.447306045 0.2357470443 0)
(2.461998642 0.2378094356 0)
(2.478816678 0.239646653 0)
(2.496848864 0.2397269295 0)
(2.514747351 0.2379520533 0)
(2.530775116 0.2356341157 0)
(2.544886176 0.2337230557 0)
(2.557740558 0.2330039639 0)
(2.569577546 0.2331937518 0)
(2.581223714 0.233143503 0)
(2.593332223 0.2329905046 0)
(2.605780663 0.2328533429 0)
(2.618564392 0.2335101386 0)
(2.631372327 0.2335692614 0)
(2.643630537 0.23134593 0)
(2.569864871 -0.6286720517 0)
(2.599793392 -0.5898934676 0)
(2.626272607 -0.5559070107 0)
(2.645793626 -0.5382664671 0)
(2.647177737 -0.5451498666 0)
(2.648159196 -0.5090633774 0)
(2.585115744 -0.3298400121 0)
(2.388299108 0.08794917837 0)
(2.307804688 0.2446334246 0)
(2.308564858 0.2587410237 0)
(2.324236246 0.2585980285 0)
(2.343051481 0.2520701723 0)
(2.362023222 0.249417505 0)
(2.382763466 0.2520434674 0)
(2.403092797 0.2543433603 0)
(2.420478158 0.2546200063 0)
(2.434935644 0.2541827252 0)
(2.448840676 0.2543647595 0)
(2.464219101 0.2554108868 0)
(2.481391084 0.2564555306 0)
(2.498890389 0.256303767 0)
(2.514776199 0.2542833846 0)
(2.528739334 0.2514492831 0)
(2.541959401 0.2496332501 0)
(2.554972029 0.2494643449 0)
(2.56754093 0.2501548477 0)
(2.579290631 0.2499528257 0)
(2.590211026 0.2489374157 0)
(2.600952176 0.2476701118 0)
(2.613005232 0.2475171805 0)
(2.627376528 0.2475740125 0)
(2.643655865 0.2466606517 0)
(2.572311154 -0.6227324702 0)
(2.605363905 -0.5825200022 0)
(2.629496505 -0.5531781522 0)
(2.652380662 -0.5256816024 0)
(2.661793212 -0.5291102867 0)
(2.65929267 -0.514546685 0)
(2.651967117 -0.4565071332 0)
(2.517960027 -0.122973611 0)
(2.372651918 0.1826967042 0)
(2.312924764 0.2782225512 0)
(2.324929289 0.2797003777 0)
(2.341963881 0.2698886301 0)
(2.360058324 0.2650373414 0)
(2.380051494 0.2660150147 0)
(2.399842651 0.2683294921 0)
(2.417308512 0.2701621337 0)
(2.432200832 0.2706775103 0)
(2.445969146 0.2706127863 0)
(2.460445044 0.2706266307 0)
(2.476698889 0.2704839369 0)
(2.494348108 0.2700051297 0)
(2.512176119 0.2691816551 0)
(2.528662575 0.2682979627 0)
(2.54277738 0.2675494239 0)
(2.554783838 0.267209791 0)
(2.56552905 0.2667128123 0)
(2.576292004 0.2656819143 0)
(2.588889947 0.2654936972 0)
(2.60358528 0.2651574534 0)
(2.618069644 0.2645202267 0)
(2.631028433 0.2640356655 0)
(2.642524173 0.2620665357 0)
(2.576267804 -0.6201340357 0)
(2.608888005 -0.5798063127 0)
(2.633524061 -0.5481383038 0)
(2.656942721 -0.5218612341 0)
(2.670967283 -0.5093907328 0)
(2.665375333 -0.5168910551 0)
(2.67832194 -0.4820689697 0)
(2.644835702 -0.3643803394 0)
(2.452753449 0.07119649876 0)
(2.347554843 0.2593976493 0)
(2.333415288 0.2917985469 0)
(2.346046946 0.287586834 0)
(2.36586372 0.285703226 0)
(2.384106982 0.2842662315 0)
(2.401466716 0.2851488205 0)
(2.418056707 0.2872753226 0)
(2.432973397 0.2882529452 0)
(2.446631143 0.2882508636 0)
(2.461225161 0.2881163975 0)
(2.478196271 0.2878275439 0)
(2.495943416 0.2871628147 0)
(2.511994304 0.2858039335 0)
(2.525504032 0.2839361728 0)
(2.537511337 0.2821716534 0)
(2.549424557 0.2813642668 0)
(2.562378965 0.2814910772 0)
(2.576741664 0.2818206095 0)
(2.590716188 0.2822274154 0)
(2.603072218 0.2812616921 0)
(2.614216258 0.2795844337 0)
(2.625293276 0.2784042255 0)
(2.63797689 0.2766719821 0)
(2.586109712 -0.6103222814 0)
(2.613330871 -0.5734979331 0)
(2.639731119 -0.5387005093 0)
(2.663328526 -0.5156197284 0)
(2.67679269 -0.497333474 0)
(2.681130164 -0.4962395111 0)
(2.683600661 -0.4936684385 0)
(2.680782436 -0.4333094836 0)
(2.61143462 -0.2054726402 0)
(2.428421689 0.1666394241 0)
(2.347239201 0.2933030779 0)
(2.350930032 0.3067174767 0)
(2.364359709 0.3042044105 0)
(2.380600527 0.2990076809 0)
(2.398320303 0.2993244287 0)
(2.416118686 0.302304986 0)
(2.432504146 0.3043224033 0)
(2.447363598 0.3048544864 0)
(2.462137186 0.3045141532 0)
(2.477795247 0.3036683887 0)
(2.494191773 0.3032469571 0)
(2.510126076 0.3030756679 0)
(2.524722251 0.3022899761 0)
(2.538392571 0.3006354553 0)
(2.551901228 0.2989905622 0)
(2.564941864 0.2982632163 0)
(2.57668626 0.2976598341 0)
(2.587525605 0.2968416242 0)
(2.598687246 0.2955006612 0)
(2.610377608 0.2944211228 0)
(2.622764372 0.2934418725 0)
(2.635375061 0.291248114 0)
(2.592900212 -0.6045439352 0)
(2.617757234 -0.5698151661 0)
(2.642357646 -0.5362681194 0)
(2.66791641 -0.5071388909 0)
(2.683111154 -0.4905444552 0)
(2.690035366 -0.4792209384 0)
(2.686271736 -0.4848248856 0)
(2.701849278 -0.446610599 0)
(2.688008128 -0.3627217993 0)
(2.534874817 0.005210141388 0)
(2.39549077 0.2582918205 0)
(2.354403262 0.3260652465 0)
(2.366186012 0.3243639736 0)
(2.384824038 0.3188271389 0)
(2.404001132 0.3192258706 0)
(2.422514052 0.321638536 0)
(2.438241265 0.3226638432 0)
(2.450585384 0.3217522212 0)
(2.462901332 0.3202965805 0)
(2.4767669 0.319145172 0)
(2.491715198 0.3188281148 0)
(2.50659921 0.3186757691 0)
(2.520422376 0.3174875814 0)
(2.533577037 0.3151282262 0)
(2.547088719 0.3131918785 0)
(2.561222952 0.3130373747 0)
(2.575305434 0.3133789716 0)
(2.588673324 0.3135363399 0)
(2.601303789 0.3129892913 0)
(2.613046261 0.312213449 0)
(2.623740764 0.3106296981 0)
(2.634571187 0.3077009633 0)
(2.604081744 -0.5927541172 0)
(2.625633952 -0.5598173493 0)
(2.646318522 -0.5294556293 0)
(2.67228869 -0.4974871329 0)
(2.692347997 -0.4778130215 0)
(2.695085914 -0.4685700546 0)
(2.698766839 -0.4637378168 0)
(2.706725299 -0.4564550265 0)
(2.71165562 -0.4002731532 0)
(2.671298014 -0.2505763687 0)
(2.476623125 0.1532159367 0)
(2.369641023 0.316471984 0)
(2.366832464 0.3317178825 0)
(2.380127576 0.3363456151 0)
(2.400563605 0.3371478716 0)
(2.420413075 0.338239312 0)
(2.437923239 0.3396897903 0)
(2.454022185 0.3389581126 0)
(2.469563497 0.3370136223 0)
(2.484480266 0.3371573816 0)
(2.498042754 0.3382321041 0)
(2.510402753 0.3376184613 0)
(2.523308855 0.3358803897 0)
(2.53726235 0.334065299 0)
(2.550733577 0.3324478928 0)
(2.562389535 0.3307396656 0)
(2.573008479 0.3291337925 0)
(2.584167485 0.32812004 0)
(2.595918543 0.3271507408 0)
(2.607722295 0.3269460107 0)
(2.620034401 0.3269126743 0)
(2.633385167 0.3250837813 0)
(2.611766288 -0.5840088309 0)
(2.630541415 -0.552707719 0)
(2.649009325 -0.5249355248 0)
(2.674540256 -0.4935241686 0)
(2.697325116 -0.4651415376 0)
(2.700909106 -0.4615726315 0)
(2.707930053 -0.4479553203 0)
(2.714254001 -0.4425088741 0)
(2.720835965 -0.4061006614 0)
(2.718860099 -0.3451103232 0)
(2.609348217 -0.06143694291 0)
(2.442375553 0.244276214 0)
(2.368761336 0.3489473148 0)
(2.378160243 0.3564402002 0)
(2.394984309 0.3541658887 0)
(2.414637824 0.3530407304 0)
(2.433934183 0.3544575979 0)
(2.451241185 0.3544700773 0)
(2.466457188 0.3533775767 0)
(2.480685264 0.3532664171 0)
(2.494271267 0.3535812926 0)
(2.508680021 0.3530869045 0)
(2.524035967 0.3523663442 0)
(2.538383354 0.351283338 0)
(2.550829487 0.3498617759 0)
(2.563768515 0.3489386896 0)
(2.578110862 0.3477581458 0)
(2.59045665 0.3464990283 0)
(2.599297257 0.344727503 0)
(2.607086796 0.3433572199 0)
(2.616729538 0.3419841721 0)
(2.628896057 0.3390857352 0)
(2.6230243 -0.5710800633 0)
(2.635435422 -0.5439292288 0)
(2.653518049 -0.5162249734 0)
(2.678256127 -0.486981452 0)
(2.70213642 -0.453606874 0)
(2.712417873 -0.4451013547 0)
(2.712017682 -0.4402062867 0)
(2.724878933 -0.4217570842 0)
(2.725429937 -0.4077311739 0)
(2.739164449 -0.3663926048 0)
(2.716937474 -0.2671296796 0)
(2.523793806 0.1497408236 0)
(2.402979448 0.3296162532 0)
(2.387346664 0.3740449389 0)
(2.397661531 0.3721778354 0)
(2.414824038 0.3707202838 0)
(2.432469567 0.3706304631 0)
(2.449103283 0.3710867563 0)
(2.464683202 0.3716394835 0)
(2.479305749 0.371950685 0)
(2.493512016 0.3711455817 0)
(2.507709805 0.3691008752 0)
(2.521805539 0.3673762869 0)
(2.53635816 0.3669245778 0)
(2.551675623 0.3673124017 0)
(2.566294569 0.3668775874 0)
(2.579156081 0.3650029861 0)
(2.590579542 0.3637577591 0)
(2.60139671 0.3626962546 0)
(2.611946519 0.3616017274 0)
(2.622759956 0.3604906917 0)
(2.634276109 0.3579622588 0)
(2.634550331 -0.5554656607 0)
(2.641625526 -0.5329247879 0)
(2.656238535 -0.5089207116 0)
(2.682192823 -0.4801294285 0)
(2.706742374 -0.4456892438 0)
(2.718723758 -0.4307034943 0)
(2.718491432 -0.4323492374 0)
(2.729648181 -0.4091722456 0)
(2.737181095 -0.3893130277 0)
(2.741345153 -0.3714012394 0)
(2.744654141 -0.3206254026 0)
(2.681176593 -0.113380383 0)
(2.491875858 0.2432449321 0)
(2.397835476 0.3759356712 0)
(2.399866472 0.3892192068 0)
(2.414075286 0.39038222 0)
(2.431557311 0.3882310004 0)
(2.448415487 0.3887619637 0)
(2.46344678 0.3898705623 0)
(2.477121888 0.3894974693 0)
(2.491137672 0.3876837402 0)
(2.506412155 0.3857413193 0)
(2.522602993 0.3848267107 0)
(2.538127294 0.3845206666 0)
(2.551499739 0.3838346212 0)
(2.56323085 0.3817414708 0)
(2.574286454 0.3789773714 0)
(2.58505571 0.3775736827 0)
(2.596165226 0.3766385109 0)
(2.607513527 0.3757920978 0)
(2.618638093 0.3744255421 0)
(2.629541531 0.371403915 0)
(2.642142708 -0.5429765922 0)
(2.647328578 -0.5237764171 0)
(2.658569905 -0.5037055675 0)
(2.686141844 -0.4731641304 0)
(2.712608322 -0.4371249798 0)
(2.724767517 -0.4176713455 0)
(2.729702267 -0.4188892826 0)
(2.735138873 -0.4022318641 0)
(2.745555244 -0.3697797019 0)
(2.740732305 -0.3676732574 0)
(2.763589288 -0.3355545195 0)
(2.753792189 -0.2570985414 0)
(2.595122248 0.108583613 0)
(2.451413646 0.3472226077 0)
(2.400963742 0.4099447735 0)
(2.409998747 0.4113073783 0)
(2.427824128 0.4071219684 0)
(2.445661009 0.4060807192 0)
(2.460161148 0.4054635327 0)
(2.472652871 0.4039211471 0)
(2.485885671 0.4017720821 0)
(2.501073919 0.3996422395 0)
(2.518003231 0.3990619037 0)
(2.535321874 0.3999049626 0)
(2.551297535 0.4004152995 0)
(2.565024059 0.3993865307 0)
(2.57696638 0.3974381663 0)
(2.587770308 0.3963002411 0)
(2.598183321 0.3951124401 0)
(2.60878422 0.3938878752 0)
(2.620071349 0.3921477346 0)
(2.632271804 0.3888112974 0)
(2.65529478 -0.5256456924 0)
(2.658914707 -0.5072927724 0)
(2.664133179 -0.493484432 0)
(2.689678675 -0.4649968539 0)
(2.719283025 -0.4253168967 0)
(2.730637896 -0.4085216156 0)
(2.740814068 -0.4031835184 0)
(2.745676098 -0.3932115376 0)
(2.75249084 -0.3580107083 0)
(2.754067348 -0.3466613329 0)
(2.761428914 -0.3427571576 0)
(2.777657018 -0.2931820993 0)
(2.738411545 -0.1409015174 0)
(2.539518678 0.2584667222 0)
(2.410763385 0.4109910189 0)
(2.408952425 0.424309317 0)
(2.422962975 0.4257048909 0)
(2.44235041 0.4247863569 0)
(2.460207193 0.4227453929 0)
(2.476222342 0.421750352 0)
(2.491502583 0.421429578 0)
(2.506761733 0.4210767573 0)
(2.52149224 0.4199290898 0)
(2.535053273 0.4174185175 0)
(2.547431051 0.4144622879 0)
(2.559366528 0.4122090325 0)
(2.571302789 0.4108597298 0)
(2.583335815 0.4114725841 0)
(2.595513961 0.411914433 0)
(2.607487228 0.4113310122 0)
(2.61918435 0.4094171033 0)
(2.630580963 0.4048074032 0)
(2.662584627 -0.5123444974 0)
(2.66446679 -0.4960918397 0)
(2.668185267 -0.4870842752 0)
(2.691461267 -0.4604374804 0)
(2.723251495 -0.4175062601 0)
(2.736899197 -0.3987421073 0)
(2.746729106 -0.3941667858 0)
(2.758626323 -0.3795127478 0)
(2.761831781 -0.348809442 0)
(2.761799336 -0.3296091943 0)
(2.762044801 -0.3367689877 0)
(2.789993998 -0.3017161064 0)
(2.785759153 -0.2371687186 0)
(2.661629232 0.06566013232 0)
(2.497317424 0.3388888275 0)
(2.418057511 0.4341025998 0)
(2.421809466 0.4456086993 0)
(2.43640179 0.4413086758 0)
(2.454411553 0.436214816 0)
(2.471686175 0.4354480436 0)
(2.487101675 0.436047963 0)
(2.501381524 0.4356836999 0)
(2.515596331 0.4341295535 0)
(2.530742329 0.4326098658 0)
(2.546393986 0.4319737974 0)
(2.560576763 0.4318031223 0)
(2.571994467 0.4312799249 0)
(2.581362227 0.4304116667 0)
(2.590986134 0.427907427 0)
(2.6015324 0.424762005 0)
(2.612977693 0.421965182 0)
(2.625931421 0.4185255969 0)
(2.674981506 -0.4959788898 0)
(2.676719825 -0.4793933897 0)
(2.677680735 -0.47383447 0)
(2.695217141 -0.4510188328 0)
(2.727853225 -0.4073818122 0)
(2.742782069 -0.3874046705 0)
(2.753980276 -0.384132169 0)
(2.772233576 -0.3621579853 0)
(2.775676906 -0.334172652 0)
(2.770796363 -0.317187366 0)
(2.771619194 -0.3192383313 0)
(2.790063474 -0.3102718793 0)
(2.802681733 -0.2585943991 0)
(2.776767913 -0.1458810787 0)
(2.581684571 0.264094491 0)
(2.447306471 0.4438884688 0)
(2.424653925 0.4633771776 0)
(2.436030745 0.4590081204 0)
(2.454168125 0.4542302054 0)
(2.471579437 0.4543618822 0)
(2.486629322 0.4557746196 0)
(2.500110588 0.4550397146 0)
(2.513816395 0.4526680084 0)
(2.528248944 0.4503112341 0)
(2.542447004 0.4486726536 0)
(2.555098941 0.4473936704 0)
(2.565749387 0.4460218739 0)
(2.576472427 0.445025064 0)
(2.589040576 0.4428877908 0)
(2.602947369 0.4406083034 0)
(2.617386445 0.4388449717 0)
(2.630348041 0.4361950319 0)
(2.68505596 -0.4815759907 0)
(2.685877657 -0.4655166286 0)
(2.684965898 -0.4639574017 0)
(2.698981734 -0.4442196626 0)
(2.730626097 -0.4005107944 0)
(2.74546085 -0.3792716588 0)
(2.759075412 -0.3770588897 0)
(2.77916837 -0.3539969937 0)
(2.787621873 -0.3183096865 0)
(2.781390537 -0.3073157228 0)
(2.783015173 -0.3014692992 0)
(2.792817801 -0.3011949747 0)
(2.811011381 -0.26313461 0)
(2.809438739 -0.2094996858 0)
(2.729956432 0.01861594216 0)
(2.550199212 0.3487513681 0)
(2.444086729 0.4573837555 0)
(2.44483965 0.4704870007 0)
(2.455950805 0.4740629976 0)
(2.46947798 0.4738929198 0)
(2.481706075 0.4731874142 0)
(2.493959658 0.4712167134 0)
(2.507407868 0.4687695872 0)
(2.522217893 0.4669794858 0)
(2.538023648 0.4663456229 0)
(2.553537103 0.4663013798 0)
(2.568058559 0.4651465557 0)
(2.580946388 0.462940859 0)
(2.593026987 0.4602255419 0)
(2.6048054 0.4581046489 0)
(2.615627825 0.4549779481 0)
(2.625663966 0.4502659805 0)
(2.697355895 -0.4665652706 0)
(2.699426095 -0.4488627543 0)
(2.697691907 -0.4497568979 0)
(2.707359394 -0.4333454468 0)
(2.734748275 -0.3907466738 0)
(2.747988107 -0.3708435398 0)
(2.763020758 -0.3677739094 0)
(2.787649482 -0.3419527423 0)
(2.798710482 -0.3021505792 0)
(2.795978917 -0.2886175307 0)
(2.790686113 -0.2922157749 0)
(2.801213158 -0.2837240275 0)
(2.815071146 -0.2628985705 0)
(2.822822117 -0.2234548031 0)
(2.808853975 -0.13944346 0)
(2.635177014 0.2418285443 0)
(2.491246485 0.4325425698 0)
(2.455074135 0.4882407559 0)
(2.45294921 0.4952780944 0)
(2.464331079 0.4938783276 0)
(2.477377619 0.4914123894 0)
(2.489638032 0.4876154262 0)
(2.502245125 0.483720387 0)
(2.517264914 0.4812684811 0)
(2.534256884 0.4807871088 0)
(2.550504834 0.4811387 0)
(2.564319595 0.4796405085 0)
(2.575823215 0.4767952124 0)
(2.586786626 0.4733090485 0)
(2.598071496 0.4704436052 0)
(2.610256745 0.4686966351 0)
(2.62407429 0.4673103096 0)
(2.70797691 -0.4530968765 0)
(2.711635492 -0.4337090519 0)
(2.711073122 -0.4358072826 0)
(2.718590854 -0.4213334748 0)
(2.739995653 -0.3796816928 0)
(2.750161344 -0.3628067783 0)
(2.764070888 -0.3601564235 0)
(2.790973989 -0.3340799564 0)
(2.805503518 -0.2912629431 0)
(2.805734209 -0.2726718681 0)
(2.800483026 -0.2809208206 0)
(2.808771506 -0.2680445196 0)
(2.82080177 -0.2496358209 0)
(2.828200064 -0.2208984892 0)
(2.829703679 -0.1805368334 0)
(2.780489269 -0.0123385089 0)
(2.567352392 0.3720269327 0)
(2.452968677 0.5062962124 0)
(2.45289281 0.5141963747 0)
(2.461651829 0.5121266229 0)
(2.475988349 0.5078125616 0)
(2.492780324 0.5048584823 0)
(2.509693357 0.50366434 0)
(2.525597769 0.5013933611 0)
(2.539319635 0.4990618433 0)
(2.551370662 0.497669103 0)
(2.563188821 0.4958556363 0)
(2.574860285 0.4936672092 0)
(2.586603157 0.4905813455 0)
(2.598345965 0.4877103635 0)
(2.609538353 0.4852265197 0)
(2.620195434 0.4817850774 0)
(2.717146784 -0.4386966442 0)
(2.722930982 -0.418742426 0)
(2.725374497 -0.4213464774 0)
(2.732177227 -0.4085496977 0)
(2.746621505 -0.3686406199 0)
(2.75303939 -0.3549643815 0)
(2.763817623 -0.3525683909 0)
(2.793039579 -0.3236794782 0)
(2.811120813 -0.2794314837 0)
(2.812572955 -0.2584896564 0)