/*--------------------------------*- C++ -*----------------------------------*\
  =========                 |
  \\      /  F ield         | OpenFOAM: The Open Source CFD Toolbox
   \\    /   O peration     | Website:  https://openfoam.org
    \\  /    A nd           | Version:  7
     \\/     M anipulation  |
\*---------------------------------------------------------------------------*/
FoamFile
{
    version     2.0;
    format      ascii;
    class       volScalarField;
    location    "0.5";
    object      rho;
}
// * * * * * * * * * * * * * * * * * * * * * * * * * * * * * * * * * * * * * //

dimensions      [1 -3 0 0 0 0 0];

internalField   nonuniform List<scalar> 
22
(
1.40000504
1.40000504
1.400005039
1.400005039
1.400005038
1.400005038
1.400005038
1.400005038
1.400005041
1.400005035
1.400005678
1.400005239
1.400005035
1.400005058
1.400005418
1.400007682
1.400017251
1.400108206
1.400091185
1.401698399
1.404320456
1.406523318
)
;

boundaryField
{
    inlet
    {
        type            calculated;
        value           nonuniform 0();
    }
    outlet
    {
        type            calculated;
        value           nonuniform 0();
    }
    bottom
    {
        type            calculated;
        value           nonuniform 0();
    }
    top
    {
        type            calculated;
        value           nonuniform 0();
    }
    obstacle
    {
        type            calculated;
        value           nonuniform 0();
    }
    defaultFaces
    {
        type            empty;
    }
    procBoundary8to1
    {
        type            processor;
        value           uniform 1.40000504;
    }
    procBoundary8to2
    {
        type            processor;
        value           nonuniform List<scalar> 8(1.40000504 1.40000504 1.40000504 1.40000504 1.40000504 1.400005039 1.400005039 1.40000504);
    }
    procBoundary8to3
    {
        type            processor;
        value           nonuniform List<scalar> 2(1.400957112 1.414133196);
    }
    procBoundary8to7
    {
        type            processor;
        value           nonuniform List<scalar> 2(1.400005039 1.400005037);
    }
    procBoundary8to9
    {
        type            processor;
        value           uniform 1.489924769;
    }
    procBoundary8to14
    {
        type            processor;
        value           nonuniform List<scalar> 8(1.400016556 1.400060955 1.400217659 1.400652065 1.400652065 1.435150799 1.455636987 1.479878808);
    }
}


// ************************************************************************* //
