/*--------------------------------*- C++ -*----------------------------------*\
  =========                 |
  \\      /  F ield         | OpenFOAM: The Open Source CFD Toolbox
   \\    /   O peration     | Website:  https://openfoam.org
    \\  /    A nd           | Version:  7
     \\/     M anipulation  |
\*---------------------------------------------------------------------------*/
FoamFile
{
    version     2.0;
    format      ascii;
    class       volScalarField;
    location    "2.6";
    object      p;
}
// * * * * * * * * * * * * * * * * * * * * * * * * * * * * * * * * * * * * * //

dimensions      [1 -1 -2 0 0 0 0];

internalField   nonuniform List<scalar> 
2222
(
2.413622631
2.403954251
2.390120308
2.371208379
2.378307061
2.378524107
2.355460857
2.358145239
2.362242054
2.337091861
2.32051325
2.304708239
2.274701941
2.262453371
2.257021089
2.233966719
2.222796588
2.214262844
2.189439962
2.162159522
2.151354752
2.135110653
2.108261057
2.095839061
2.276939991
2.288832337
2.319475833
2.355256786
2.376126235
2.383423809
2.391120383
2.39568001
2.398336875
2.410075454
2.423622584
2.40775498
2.390568925
2.370226215
2.375764753
2.38179587
2.361990553
2.364294254
2.36975569
2.344715922
2.323760406
2.306473039
2.276653014
2.264185543
2.261499132
2.239733293
2.227043189
2.217973212
2.19381387
2.165750847
2.155154433
2.13968692
2.112802908
2.099610417
2.296975487
2.314676147
2.340084293
2.365539128
2.382756877
2.393568825
2.403562253
2.404679143
2.404947276
2.421236709
2.43141137
2.410810782
2.389923071
2.368164839
2.372643567
2.385953328
2.369841029
2.370658874
2.37606486
2.351928417
2.327073503
2.308675942
2.279374817
2.266725993
2.265916948
2.24521195
2.230809884
2.221281304
2.197903329
2.169361226
2.158924962
2.144175627
2.117254329
2.102935759
2.322307377
2.338472941
2.35255419
2.368113906
2.382719435
2.397464985
2.411483326
2.411822657
2.412820147
2.43303458
2.437177411
2.412263768
2.388449418
2.365597161
2.369708065
2.390326495
2.377728928
2.376451297
2.38108584
2.358727837
2.330694797
2.311283838
2.282621933
2.269757542
2.269893493
2.249844416
2.234024077
2.224334344
2.202129695
2.173234984
2.162579257
2.148392113
2.121272238
2.105647629
2.345119658
2.355064473
2.359688237
2.36715668
2.379189452
2.397831063
2.415259729
2.416426367
2.421393306
2.443811128
2.442013811
2.412348791
2.38666389
2.363421812
2.367685434
2.394203718
2.384681577
2.381110254
2.384754224
2.364783192
2.33457767
2.314099141
2.285929259
2.272657011
2.27315253
2.253699413
2.236907339
2.227428534
2.20663948
2.177428349
2.16605066
2.152233964
2.124819986
2.107996342
2.357288958
2.362261579
2.361851291
2.363927785
2.375739494
2.398105231
2.416959526
2.419806144
2.430309912
2.452771797
2.446328026
2.412122248
2.385228496
2.362469978
2.366807627
2.397292475
2.390617316
2.384616018
2.387545667
2.369810271
2.338304718
2.316729348
2.288892468
2.275056728
2.275810928
2.25720821
2.239872753
2.230761775
2.211186213
2.181602866
2.169205298
2.155768559
2.12819302
2.110333819
2.360789813
2.363745242
2.360937389
2.36186086
2.375759868
2.401220227
2.418939807
2.423560421
2.439199677
2.46044293
2.44994234
2.411908065
2.384539416
2.363180216
2.367044202
2.399718271
2.396512189
2.387612295
2.389664718
2.373741561
2.341303064
2.318870698
2.291446797
2.277137783
2.278303878
2.261048817
2.243276377
2.234348305
2.215489175
2.185276036
2.171860802
2.159048967
2.131733003
2.113054845
2.359271533
2.358376347
2.364054936
2.383056991
2.409274959
2.422420045
2.428413837
2.447964894
2.467545979
2.451900917
2.411289948
2.384706354
2.365645409
2.368241453
2.401673958
2.403498847
2.390906917
2.391320288
2.376333539
2.343314283
2.32058069
2.293855842
2.279385311
2.28113556
2.265677363
2.247166407
2.237950145
2.219243038
2.188216079
2.174098178
2.162154816
2.135662556
2.116346313
2.353604221
2.357671382
2.373019588
2.396640304
2.41859267
2.426053286
2.434523006
2.456378458
2.473375295
2.451184913
2.409571915
2.385359122
2.369388981
2.370487868
2.403650468
2.411670148
2.395150971
2.392498709
2.377683933
2.344697723
2.32228514
2.296519541
2.282315602
2.284642938
2.271118431
2.251280077
2.241117721
2.22229096
2.190745016
2.176261096
2.165282412
2.139978176
2.119994208
2.110224937
2.348560075
2.359768455
2.383345003
2.403544422
2.418644191
2.427242305
2.440831479
2.463102
2.475988364
2.447792159
2.406804971
2.386089069
2.373990285
2.37428924
2.406329995
2.420284012
2.400368398
2.393101138
2.378163272
2.346101299
2.324575525
2.299897344
2.28632362
2.288912788
2.276921142
2.255050053
2.243460197
2.22480637
2.193407219
2.178724063
2.168462952
2.144369154
2.123497362
2.1131261
2.347302304
2.366130342
2.387839745
2.395379445
2.40865242
2.425802942
2.445630392
2.466732551
2.474895231
2.44273239
2.403488807
2.386668096
2.379208841
2.380262505
2.410644908
2.428235872
2.406041429
2.393116638
2.378131723
2.348095181
2.328004771
2.304425158
2.291565057
2.293700535
2.282325487
2.257966981
2.245003966
2.227155673
2.196606909
2.181637717
2.171735489
2.148592986
2.126477532
2.115302018
2.353141345
2.374493886
2.385261672
2.382695801
2.397357024
2.423396901
2.448293554
2.467755873
2.471676599
2.437292906
2.400250876
2.387699758
2.385594823
2.388808587
2.416986088
2.434831638
2.411611613
2.392708622
2.377970068
2.351046352
2.332987927
2.310424651
2.297864012
2.298580928
2.286844855
2.260123632
2.246226369
2.229687844
2.200468807
2.184905574
2.17494221
2.152460184
2.128912865
2.117015341
2.352933449
2.37671643
2.384540125
2.377121914
2.391260977
2.422937125
2.450948248
2.468266093
2.467842798
2.43265785
2.397716764
2.389690715
2.393735846
2.399301598
2.424440436
2.439988269
2.417191072
2.392322337
2.377878174
2.354874147
2.339510343
2.317835372
2.304754363
2.303251804
2.290623523
2.262153516
2.247735538
2.232616611
2.204755941
2.188186678
2.177927984
2.15601417
2.131142942
2.118726996
2.342900597
2.377406496
2.385482744
2.379083671
2.393397731
2.428084569
2.456796388
2.469689414
2.46355454
2.429136747
2.396522547
2.393495521
2.403961208
2.410443797
2.431469855
2.443765098
2.422996222
2.392726391
2.377935597
2.358982845
2.346977686
2.326067252
2.311738852
2.307666225
2.294086678
2.26469879
2.249943554
2.235928607
2.209003254
2.191176278
2.180660145
2.1594406
2.133544416
2.120816597
2.331484323
2.373350132
2.388218462
2.387645629
2.40627808
2.442168538
2.466590781
2.470387254
2.457913392
2.426565136
2.397039827
2.399106602
2.41553114
2.420837547
2.436944987
2.446388768
2.428910193
2.394785123
2.378316642
2.362545163
2.35438685
2.334311149
2.318422196
2.311896847
2.297568839
2.268097764
2.252882117
2.23939926
2.212908202
2.193918948
2.183314796
2.162904175
2.13633844
2.123399139
2.370823848
2.395371752
2.405201466
2.430164562
2.461743093
2.473869739
2.467043924
2.450688843
2.424740418
2.399349584
2.405584145
2.426871671
2.429659365
2.440811859
2.448278022
2.434394916
2.398684967
2.379346779
2.36526905
2.360916207
2.341888383
2.324504876
2.316010488
2.301295083
2.272286067
2.256184167
2.242739725
2.216588494
2.196765293
2.186116425
2.166443778
2.1394874
2.126251314
2.369320035
2.40676398
2.430338289
2.457623104
2.475079786
2.473187474
2.460490346
2.443133319
2.423396161
2.402617565
2.411192004
2.436234043
2.437053561
2.443650581
2.449825665
2.438956533
2.403613566
2.381174498
2.367424399
2.366319111
2.348635475
2.329973125
2.320074439
2.305242345
2.27681331
2.259341732
2.245809908
2.220387308
2.20002629
2.189152913
2.169980497
2.142774546
2.128975931
2.377072031
2.421187453
2.451016039
2.472430609
2.478345938
2.4701038
2.454626836
2.436885891
2.422397504
2.405788729
2.414802471
2.44320906
2.444145165
2.445991458
2.45116267
2.442203307
2.408266829
2.383496539
2.369586673
2.370842906
2.354716359
2.335065462
2.324196128
2.309213077
2.281132326
2.262081007
2.248682968
2.224503196
2.203681932
2.19230278
2.173434939
2.146066929
2.131416078
2.390904029
2.426255207
2.45697225
2.476310336
2.480812285
2.47077086
2.452554005
2.433378849
2.422054741
2.408506423
2.416930626
2.448537789
2.452494937
2.448017248
2.451787301
2.444062928
2.411940474
2.385969042
2.371997698
2.374844125
2.360416345
2.340028314
2.328379245
2.312983038
2.284952656
2.26448696
2.251494791
2.228765058
2.207351209
2.195351822
2.176835441
2.149474292
2.133820642
2.395732986
2.423744197
2.453041735
2.479106434
2.48584161
2.476196764
2.454770104
2.433112803
2.423290884
2.412021453
2.41970641
2.453568307
2.462470948
2.449784499
2.450827198
2.44474871
2.41486556
2.388658283
2.374622374
2.378549837
2.365946831
2.344944465
2.33247413
2.316425261
2.288350911
2.266826547
2.254284935
2.232770643
2.210646413
2.198245403
2.180369054
2.153289474
2.13663587
2.399752136
2.422547579
2.448983797
2.482360565
2.493921539
2.485117467
2.45959373
2.435933249
2.427781385
2.418850768
2.426016838
2.459243652
2.472113531
2.451407887
2.44806004
2.444635501
2.41780762
2.391969348
2.377573676
2.382086986
2.371365998
2.34968344
2.336230419
2.319449327
2.291509493
2.269275116
2.256969494
2.236264322
2.213581116
2.201192644
2.184237867
2.157691438
2.140123661
2.405377718
2.421329684
2.447701659
2.486967744
2.504248428
2.495157212
2.465431595
2.443199844
2.43868501
2.431984522
2.437573863
2.465102217
2.478603244
2.452829223
2.444234547
2.444347187
2.421547383
2.396447696
2.381228722
2.385674849
2.376739931
2.354085162
2.339477993
2.322055925
2.294557576
2.271863329
2.259514574
2.239429657
2.21661936
2.204521272
2.188489926
2.162522802
2.144127894
2.404829333
2.423378611
2.448948282
2.493068412
2.512365755
2.500921873
2.471367114
2.457082186
2.457977259
2.450563284
2.450345
2.468897691
2.480829445
2.453755373
2.440414032
2.444227703
2.426832356
2.40258396
2.386007483
2.38975247
2.381992929
2.358108532
2.342164338
2.324286702
2.29751824
2.274564463
2.262043953
2.242710289
2.220267311
2.208325756
2.192767732
2.167172934
2.14805614
2.438734666
2.453204111
2.497593849
2.511042811
2.498487599
2.476248953
2.474366444
2.477586239
2.463574938
2.456144168
2.468924305
2.479875069
2.454159447
2.437218361
2.444459377
2.434013215
2.410465058
2.392071799
2.394527465
2.387140507
2.361857372
2.344474533
2.326378042
2.300525776
2.277502648
2.264846704
2.246492827
2.224650463
2.212244777
2.196479881
2.171062073
2.151425466
2.451339583
2.449282884
2.497167386
2.504493169
2.491841368
2.479662856
2.486057398
2.483626464
2.46193998
2.453887166
2.466126512
2.477295685
2.454489713
2.435255662
2.444821091
2.442660476
2.419537724
2.398990992
2.39972954
2.39206352
2.365392924
2.346696588
2.328673884
2.303816234
2.280874898
2.268103068
2.250665244
2.229170311
2.215560587
2.199183824
2.174063229
2.154217639
2.138293789
2.463901093
2.444147959
2.497998847
2.498914187
2.486046972
2.484005358
2.491301238
2.478249242
2.452728524
2.448896549
2.462248517
2.47428675
2.455345561
2.435102899
2.445043569
2.451376266
2.428644024
2.406006663
2.404838249
2.396521901
2.368850168
2.349267441
2.331615917
2.30771664
2.284839924
2.271745183
2.25469572
2.233017231
2.217954796
2.201159653
2.176707044
2.156943929
2.140894125
2.45840738
2.430518795
2.501968475
2.495554551
2.485078515
2.491076796
2.493653737
2.469943751
2.443428396
2.444639091
2.458463894
2.471543393
2.45791881
2.437371559
2.445285247
2.457631784
2.43700759
2.412576867
2.409398402
2.400283544
2.372348686
2.352504253
2.33539471
2.312197768
2.289060626
2.275252739
2.257971092
2.235877146
2.21978972
2.203058018
2.179604771
2.160088039
2.143931556
2.453867568
2.428574011
2.509067986
2.499324934
2.489999088
2.496090028
2.490983591
2.461151544
2.435617568
2.44110401
2.455268631
2.469951396
2.463327002
2.442554538
2.445693335
2.460382512
2.444364057
2.418737942
2.413396262
2.40362085
2.376184634
2.35659732
2.339966213
2.31694381
2.293030962
2.278321078
2.26066828
2.238407645
2.221939885
2.205620579
2.183240739
2.163928521
2.147584092
2.452810002
2.428941612
2.513377877
2.493412102
2.489237737
2.495309892
2.483226436
2.449812279
2.427716809
2.437408112
2.453459328
2.471186822
2.472038473
2.449966594
2.446063473
2.460538562
2.450975098
2.424851264
2.417087481
2.406919823
2.380564164
2.361264105
2.344598688
2.321117379
2.296291763
2.281013129
2.263376057
2.241444342
2.225090794
2.20913442
2.187452354
2.168058669
2.151387287
2.442758165
2.42984632
2.506326535
2.479291998
2.483168599
2.492122196
2.472791497
2.436789092
2.420941815
2.4363806
2.456809547
2.47798869
2.482881696
2.456747141
2.445793759
2.459602933
2.457553273
2.4311823
2.420862402
2.410531395
2.385520209
2.366053584
2.348790824
2.324657251
2.299393992
2.284095821
2.266952645
2.24571039
2.229503102
2.213405427
2.191728655
2.171972331
2.154956534
2.43636737
2.435708272
2.49681184
2.461176648
2.478374216
2.486703799
2.461440582
2.426982337
2.421942753
2.445821572
2.473234369
2.493072496
2.49158698
2.459395054
2.444889278
2.458903879
2.464092257
2.437590359
2.424679596
2.41416628
2.390261814
2.370027477
2.352071121
2.327828026
2.303041793
2.28816522
2.271697712
2.250980916
2.234327679
2.217344384
2.195145893
2.175083745
2.1578752
2.440298567
2.481754411
2.439038384
2.479143732
2.47928058
2.452995105
2.426461959
2.439409731
2.475157977
2.506734034
2.509598318
2.492293385
2.458826878
2.444577684
2.459321854
2.469644471
2.443682389
2.42831419
2.417421794
2.394106918
2.373086282
2.355165392
2.331778495
2.308253134
2.293747158
2.277468672
2.256405186
2.238540589
2.220445621
2.197877515
2.177880615
2.160625447
2.440859701
2.459579094
2.42862178
2.483980333
2.476726112
2.450204569
2.444155319
2.478701723
2.520607343
2.532199369
2.507926873
2.485508781
2.458939365
2.446135568
2.46093611
2.473534779
2.448787561
2.431147745
2.419580319
2.396409367
2.375355462
2.358564342
2.337038144
2.314964425
2.299966279
2.282737264
2.260388141
2.241331863
2.222719656
2.200366101
2.180745056
2.163420259
2.43911117
2.443709991
2.430734361
2.491006288
2.476819498
2.459893838
2.483300562
2.527519391
2.547176464
2.525091477
2.492019373
2.477827131
2.462380553
2.450646682
2.463825825
2.475614508
2.452635465
2.433210302
2.421092787
2.398063193
2.378065821
2.363323567
2.344116425
2.322743229
2.305698207
2.286567277
2.262980771
2.243592125
2.225317632
2.203685841
2.184428012
2.166775285
2.433979149
2.43387416
2.441394931
2.504675555
2.482924422
2.484017145
2.523846472
2.552522711
2.543040629
2.507403458
2.475405544
2.472995464
2.469707455
2.458746962
2.467542727
2.476357823
2.45524193
2.434485763
2.422301334
2.399879289
2.381965116
2.369382638
2.351514114
2.328775974
2.308851296
2.288402124
2.264796467
2.246302867
2.229049524
2.208124511
2.188606717
2.170312952
2.430418997
2.432570129
2.45459337
2.522036982
2.485831515
2.499547398
2.539661114
2.553489115
2.529666428
2.485738094
2.462235812
2.472649027
2.482608233
2.471966946
2.471817582
2.476243574
2.457082942
2.435831951
2.42445634
2.403534223
2.388122251
2.377056471
2.358377203
2.332285901
2.310148596
2.289681514
2.267264466
2.250624912
2.23464806
2.213996854
2.19343344
2.174287939
2.43276058
2.439421322
2.46948005
2.525580544
2.477508847
2.4994548
2.543077533
2.544815048
2.508099665
2.469762902
2.455764796
2.479710119
2.501812087
2.487190862
2.474682233
2.475571821
2.458479399
2.437362979
2.427455726
2.408808132
2.394549024
2.38320994
2.362118472
2.333588794
2.311360709
2.292057142
2.271257448
2.256161595
2.240550174
2.219220439
2.197491107
2.178080184
2.432964032
2.450971821
2.489542741
2.527541381
2.459896968
2.500422864
2.541418183
2.525708914
2.492688408
2.462111392
2.459894169
2.498148155
2.526301805
2.50182868
2.476660046
2.474915267
2.460129001
2.440323974
2.432454744
2.416713746
2.402115183
2.388731925
2.364592859
2.334765015
2.313729906
2.29614027
2.277031155
2.26259583
2.246274434
2.223870621
2.201445361
2.182287948
2.429834768
2.462040571
2.506518371
2.525827262
2.433205324
2.496317253
2.527866724
2.513902025
2.485657753
2.467438577
2.483906122
2.532745432
2.54856356
2.509574851
2.476951915
2.474542216
2.461539493
2.443244847
2.436937615
2.423069757
2.40632458
2.390928567
2.365729547
2.336706175
2.318428924
2.302956724
2.284067421
2.267489826
2.249274937
2.226617511
2.204586986
2.186149851
2.436505987
2.472398032
2.516732058
2.519458395
2.417384567
2.508011755
2.525335024
2.513903303
2.504285911
2.510175501
2.525577078
2.546567048
2.544431131
2.510215186
2.478653695
2.475938215
2.464276101
2.446950754
2.440834127
2.427551617
2.409011304
2.393026718
2.369567481
2.343865061
2.327537613
2.310476388
2.288274646
2.268877319
2.25069919
2.229846822
2.209180225
2.190937194
2.474158701
2.515983443
2.501158896
2.512971751
2.544314594
2.552337985
2.549254504
2.539434236
2.528192328
2.517710126
2.527608856
2.543822145
2.525857714
2.49129367
2.479397721
2.471236045
2.457423743
2.452535021
2.44014108
2.420651769
2.406175439
2.384922289
2.35874626
2.339204929
2.319163506
2.294995812
2.277399599
2.262830928
2.242639873
2.219785949
2.199927218
2.466249061
2.461517526
2.524978219
2.549766811
2.512379166
2.519903561
2.518774628
2.521667552
2.559188881
2.558463648
2.549053539
2.551396196
2.5286956
2.502946788
2.497826193
2.494449871
2.483453102
2.477977295
2.46391442
2.439348381
2.419558029
2.395399233
2.369940607
2.354270805
2.336606549
2.3117467
2.294339365
2.279103885
2.255079461
2.229308258
2.21007799
2.498839619
2.507254876
2.51507788
2.543292147
2.55723162
2.56821124
2.551137329
2.566911763
2.602839677
2.601435765
2.577644016
2.556275591
2.521951068
2.505356111
2.513326699
2.52139713
2.512979101
2.504205833
2.48773394
2.462054554
2.438408681
2.413155297
2.385859576
2.369598724
2.353717385
2.328583313
2.309091666
2.293211685
2.267859434
2.241453387
2.224259582
2.485282011
2.519988408
2.559846891
2.578414135
2.560428965
2.563137946
2.570999416
2.59413854
2.589666208
2.590445648
2.566058111
2.563336538
2.56619641
2.564309746
2.567782169
2.561212895
2.541828074
2.514748914
2.484644817
2.456803316
2.438128219
2.421170285
2.400393525
2.38843071
2.376045973
2.351023955
2.325010674
2.304519265
2.278016597
2.251980389
2.238373619
2.503625008
2.558673191
2.540900579
2.57099228
2.578336906
2.565934524
2.590531995
2.608373037
2.608220652
2.613307469
2.614552262
2.613398522
2.610106754
2.608666092
2.595570918
2.577991275
2.549787007
2.524038536
2.499812339
2.470969174
2.452767693
2.438551317
2.422484043
2.406743026
2.392779933
2.369145981
2.340154028
2.317996088
2.293563297
2.268241578
2.254978922
2.5551539
2.561735032
2.549899555
2.554676468
2.55638635
2.580144699
2.598953589
2.593493682
2.609893933
2.618743959
2.609158846
2.610356779
2.611672738
2.607943695
2.593249843
2.576777836
2.553896547
2.528446195
2.506333487
2.490994494
2.486498425
2.47430831
2.454512353
2.430903588
2.409337953
2.377272732
2.346345713
2.328627495
2.31124825
2.289352966
2.27410845
2.504475619
2.526205122
2.51629899
2.554031617
2.587845124
2.59887812
2.595443739
2.602047091
2.592613533
2.601534923
2.619012287
2.641872381
2.654478467
2.651561691
2.639431557
2.617388615
2.589322586
2.563967593
2.549569064
2.535445657
2.522299453
2.50122225
2.472505962
2.439927578
2.408622288
2.386157485
2.359969201
2.344671339
2.330020339
2.30774806
2.286332917
2.53088568
2.555234304
2.565689086
2.59259805
2.613137631
2.617324688
2.614164655
2.604854441
2.644548504
2.661243813
2.653782976
2.662092937
2.663756964
2.648573997
2.635234066
2.608559815
2.578717007
2.560844963
2.549652061
2.535047035
2.516356779
2.4974408
2.468420844
2.439908765
2.413416201
2.393554714
2.384901969
2.370418153
2.353525246
2.330527897
2.300595836
2.537996331
2.548040415
2.564125936
2.567903724
2.582045634
2.568960504
2.606104583
2.637640176
2.650373307
2.673257273
2.694237718
2.684903507
2.662834615
2.635899374
2.598393773
2.590334767
2.580199816
2.577257947
2.578379235
2.566354605
2.546078039
2.522503168
2.496145132
2.472060316
2.449923123
2.431577138
2.414791371
2.389548597
2.364744435
2.337442441
2.312457218
2.536313187
2.555539897
2.569295914
2.594348077
2.612801588
2.643690712
2.682942038
2.691617569
2.687850903
2.664918376
2.647451256
2.635835585
2.638261844
2.627482902
2.626927765
2.635326513
2.634806031
2.623535766
2.597953657
2.576284577
2.546476912
2.519106158
2.494424939
2.473518837
2.454808262
2.434720996
2.407739068
2.383109263
2.362951046
2.347540525
2.32932512
2.555447333
2.575677549
2.59793293
2.609387319
2.619413372
2.64279962
2.647710924
2.652399525
2.624142726
2.631463963
2.631293873
2.640687046
2.640158481
2.651137652
2.658412685
2.64445068
2.644753046
2.636572703
2.609034872
2.565208659
2.54161327
2.517125935
2.502365007
2.487750128
2.467560742
2.448489904
2.429470217
2.410361098
2.393492547
2.379160064
2.35866716
2.58278196
2.591911598
2.614451355
2.630283296
2.633117875
2.646718575
2.661060051
2.671737838
2.663639839
2.692227991
2.689412947
2.676029796
2.668771409
2.664031332
2.660302784
2.644720142
2.619366517
2.602247813
2.582342508
2.561957789
2.543669516
2.534148064
2.520865129
2.502546015
2.486189236
2.468716418
2.444859969
2.420954815
2.397485767
2.37326705
2.346929514
2.593240097
2.618233713
2.609127479
2.622735805
2.643711287
2.652342191
2.652288511
2.66019682
2.657810038
2.666999748
2.679729376
2.646737159
2.637360799
2.629357805
2.623712458
2.610022188
2.590351062
2.582840741
2.587223606
2.590621372
2.580499436
2.559772023
2.534672177
2.509670916
2.492306521
2.482351606
2.464811545
2.439627949
2.412475756
2.382326648
2.36128502
2.376400571
2.64501671
2.649773977
2.634034339
2.644868888
2.657467432
2.662291229
2.665384476
2.66983024
2.675666506
2.686930642
2.693143606
2.666506363
2.662339836
2.660879767
2.644039966
2.623488474
2.614349714
2.615669511
2.608120571
2.591202004
2.56427809
2.537393491
2.514157033
2.493637561
2.478177907
2.458205021
2.43542219
2.412630102
2.394384184
2.374300192
1.69334005
2.472717015
2.639598292
2.653468898
2.649097762
2.679792543
2.695001759
2.688053206
2.684247856
2.691505285
2.698301324
2.703034376
2.674693483
2.653161441
2.645082443
2.629092074
2.607504289
2.597546798
2.594598234
2.591075325
2.580046859
2.559331634
2.545641379
2.532085447
2.516322312
2.494445323
2.471866968
2.446900236
2.423480704
2.407698666
2.394051306
0.8236122438
1.844684772
2.531100081
2.590886757
2.660374907
2.692201005
2.708096468
2.705184665
2.698957537
2.705395324
2.714399395
2.71480891
2.688792077
2.661876123
2.651623968
2.640184259
2.625678961
2.617486752
2.617748744
2.619751863
2.612728796
2.596863298
2.575461018
2.545900009
2.519842371
2.481779397
2.467059128
2.454257047
2.445410929
2.429023021
2.400859277
0.5256820483
0.903279554
2.020448763
2.464414913
2.657457389
2.707187539
2.697429199
2.692567049
2.71096109
2.725911969
2.721730717
2.71481766
2.693704087
2.668172302
2.660697637
2.653801826
2.643042675
2.633483805
2.629006128
2.623958087
2.613240801
2.592264908
2.558740342
2.534217607
2.514977671
2.485613832
2.482327573
2.473122772
2.466006182
2.44181713
2.412102008
0.5268157152
0.5485329927
1.051848854
2.015431544
2.493389916
2.719518944
2.740586999
2.720132584
2.739145687
2.736327966
2.728596761
2.723121748
2.702653968
2.679290051
2.675504799
2.677453525
2.66663672
2.655196196
2.647728714
2.639618783
2.625897136
2.602332255
2.576948622
2.556117355
2.540272769
2.523279067
2.504006189
2.478516803
2.462192118
2.432940653
2.411862756
0.5447437322
0.5400979858
0.5842641974
1.117823576
1.956715545
2.5695042
2.739006741
2.768653422
2.744766657
2.735999004
2.750949417
2.749395267
2.72291069
2.698131889
2.694629036
2.70309355
2.692951948
2.678537286
2.665888286
2.653880525
2.634991217
2.610184075
2.583895047
2.563584114
2.546466325
2.525644008
2.501517919
2.484918769
2.46424295
2.444204952
2.435887178
0.5634141422
0.5516639229
0.5487799829
0.6015360375
1.065756506
2.043040211
2.652683757
2.693402959
2.715744568
2.741967761
2.769499804
2.763179711
2.738540838
2.724925334
2.719582163
2.722973914
2.710309917
2.692500996
2.679532143
2.668358682
2.649629205
2.623226785
2.59640255
2.575786523
2.561337686
2.544985365
2.523257645
2.503547701
2.483425576
2.46415496
2.439433866
0.5739514508
0.5665091136
0.5560945524
0.5544336356
0.6011297137
1.076168713
2.215587184
2.580410345
2.686268228
2.779328664
2.780911792
2.755014054
2.742645207
2.748915416
2.74346932
2.737454331
2.722395976
2.702591494
2.689483356
2.683113704
2.667922133
2.642328686
2.615010836
2.593476647
2.57511537
2.556312573
2.532528384
2.509363414
2.487972765
2.465290006
2.442005925
0.5793459785
0.5733543383
0.5648623847
0.5578821638
0.5574547198
0.6091336829
1.214730595
2.22118371
2.574587996
2.76750241
2.800086296
2.769070725
2.765804209
2.766382922
2.754970119
2.750323868
2.731940353
2.709535321
2.694628577
2.694333476
2.687005703
2.662595422
2.633326066
2.609131905
2.588915117
2.568443488
2.543130731
2.519808234
2.498415521
2.477942262
2.456688868
0.5835519727
0.577833665
0.5710230003
0.5629600125
0.5599918009
0.5607735452
0.6396121941
1.347692598
2.159028627
2.635821189
2.796385559
2.816125752
2.794459258
2.764331237
2.767958549
2.769858
2.745623758
2.723376811
2.707482297
2.706053132
2.703281666
2.681790104
2.650463445
2.626454446
2.605044341
2.581388954
2.553728095
2.528526455
2.507609234
2.487388928
2.465578307
0.587310846
0.5814925271
0.5751780409
0.5677991089
0.5630937341
0.5618175509
0.5636905124
0.6725897346
1.28386293
2.128343325
2.731308635
2.808697563
2.783605152
2.774730181
2.790073352
2.787951453
2.758591565
2.743544699
2.730650392
2.723320604
2.720958536
2.698667994
2.663501758
2.639742956
2.620814177
2.598715814
2.570950899
2.54338962
2.519613224
2.498890892
2.477660642
0.5920332344
0.5857196099
0.5799673578
0.5734146703
0.5671240864
0.5646427965
0.5643689699
0.5677151933
0.6552921424
1.172546713
2.268407511
2.718242059
2.73586926
2.802000789
2.828548165
2.800577482
2.767652754
2.764766476
2.75061477
2.740379783
2.739864199
2.715306646
2.677879352
2.653955704
2.637750738
2.617395121
2.58914642
2.559430162
2.534426379
2.513014096
2.49098598
0.5988436716
0.591410973
0.5852286703
0.5794559609
0.5722763255
0.5683388059
0.5675497934
0.5681409062
0.5706745451
0.6355772768
1.216837277
2.328111692
2.632350737
2.769903559
2.850713033
2.822180842
2.795488624
2.795001667
2.770526575
2.761353724
2.758938796
2.730062767
2.691506538
2.667342207
2.653741999
2.636450224
2.60935208
2.579200714
2.552152209
2.528749979
2.505171195
0.6067881094
0.5980998777
0.5905465311
0.5852552277
0.5789072577
0.5727844477
0.5708522603
0.5708456835
0.5720334064
0.5747258061
0.6485690472
1.340891719
2.2725993
2.652981647
2.834390091
2.860209942
2.842194073
2.822060838
2.785642611
2.783426888
2.777609209
2.74332635
2.710008694
2.686607545
2.671322424
2.653518992
2.625331109
2.593847208
2.566248999
2.543101409
2.519342285
0.6112211465
0.6049865761
0.5955862396
0.5899162323
0.5854251216
0.5790465527
0.5752622071
0.5744951378
0.5747292785
0.5757762951
0.5790224644
0.6810627165
1.379680222
2.171921761
2.755549806
2.88603257
2.864967556
2.827821438
2.812292049
2.825568383
2.80490216
2.757197061
2.729721965
2.70945302
2.692496569
2.673335603
2.641748907
2.609161132
2.581213807
2.558147413
2.534178878
0.61352491
0.6103053224
0.6026528613
0.5943465323
0.590874541
0.5860736684
0.5806814039
0.578354467
0.5776004909
0.5785186514
0.5806094461
0.5852573679
0.6886289604
1.252566278
2.237079462
2.830384946
2.800665879
2.814663715
2.847465436
2.856734419
2.810722889
2.77089136
2.753959793
2.731880328
2.716782307
2.698144056
2.661451226
2.624275733
2.594359498
2.572542742
2.54948234
0.6154020053
0.612807744
0.6086617827
0.5994882219
0.5944554464
0.5915330766
0.5868966023
0.5832765411
0.5817697279
)
;

boundaryField
{
    inlet
    {
        type            fixedValue;
        value           nonuniform 0();
    }
    outlet
    {
        type            zeroGradient;
    }
    bottom
    {
        type            slip;
    }
    top
    {
        type            slip;
    }
    obstacle
    {
        type            zeroGradient;
    }
    defaultFaces
    {
        type            empty;
    }
    procBoundary28to21
    {
        type            processor;
        value           nonuniform List<scalar> 
19
(
2.270159533
2.284622596
2.308302995
2.333442044
2.352026527
2.358620789
2.357829327
2.357829327
2.35208412
2.346427614
2.343318369
2.339488084
2.330809688
2.31074924
2.294527367
2.322286126
2.322286126
2.321437247
2.336942563
)
;
    }
    procBoundary28to22
    {
        type            processor;
        value           nonuniform List<scalar> 
35
(
2.40251897
2.400429713
2.388540744
2.370951395
2.379848405
2.376152137
2.350613565
2.352769158
2.353904647
2.329546921
2.317276944
2.303217002
2.273383902
2.261326372
2.252805719
2.22863903
2.218326636
2.210092681
2.184537899
2.158475761
2.147617445
2.130746412
2.104110884
2.092101143
2.258962795
2.267317895
2.298261867
2.333351846
2.356946353
2.366440921
2.376684855
2.387475523
2.394027931
2.401041063
2.401041063
)
;
    }
    procBoundary28to23
    {
        type            processor;
        value           uniform 2.085528309;
    }
    procBoundary28to27
    {
        type            processor;
        value           nonuniform List<scalar> 
55
(
2.367527183
2.39051779
2.406572223
2.405323133
2.408371495
2.394144604
2.394144604
2.391173236
2.396940386
2.403130246
2.404764134
2.404302831
2.406453836
2.409146489
2.432613553
2.432613553
2.431661364
2.427518254
2.426457833
2.429973326
2.437224148
2.422098282
2.392754378
2.401657648
2.449936709
2.449936709
2.477880144
2.481879941
2.472068856
2.451193991
2.531377559
2.502163267
2.533642522
2.526154163
2.54267078
2.572053931
2.52557898
2.335050717
1.657241508
0.7978565915
0.5095469168
0.5114359911
0.5357125867
0.5567623539
0.5710484936
0.5803734135
0.5852412923
0.5893818895
0.5935472631
0.6000237233
0.6074441794
0.6121485167
0.6146993002
0.6184830993
0.6249423853
)
;
    }
    procBoundary28to29
    {
        type            processor;
        value           nonuniform List<scalar> 
70
(
2.089168365
2.092316532
2.095010277
2.097532415
2.10022768
2.103349042
2.106813868
2.106813868
2.093443606
2.096558903
2.099015106
2.101231137
2.103627379
2.106416439
2.109493189
2.112464874
2.114957063
2.117037336
2.11914849
2.121791264
2.125160321
2.128997791
2.132650949
2.135724436
2.135724436
2.118771812
2.121493214
2.124873644
2.128964885
2.133005909
2.136433231
2.138804849
2.140797607
2.142832794
2.145511238
2.148694149