/*--------------------------------*- C++ -*----------------------------------*\
  =========                 |
  \\      /  F ield         | OpenFOAM: The Open Source CFD Toolbox
   \\    /   O peration     | Website:  https://openfoam.org
    \\  /    A nd           | Version:  7
     \\/     M anipulation  |
\*---------------------------------------------------------------------------*/
FoamFile
{
    version     2.0;
    format      ascii;
    class       volScalarField;
    location    "3.1";
    object      p;
}
// * * * * * * * * * * * * * * * * * * * * * * * * * * * * * * * * * * * * * //

dimensions      [1 -1 -2 0 0 0 0];

internalField   nonuniform List<scalar> 
555
(
1.55159059
1.532365231
1.520434393
1.508455313
1.490527461
1.477899999
1.472154552
1.466862397
1.458991076
1.454548779
1.452807786
1.450772293
1.447029864
1.441869912
1.440586394
1.44012833
1.438164719
1.436171055
1.551590584
1.532365366
1.52043452
1.508455304
1.490527361
1.477900015
1.472154584
1.466862348
1.45899099
1.454548833
1.45280785
1.450772325
1.447029805
1.441869849
1.440586454
1.44012836
1.438164641
1.436171009
1.436024835
1.43677796
1.438634485
1.440274383
1.441339606
1.442619688
1.445042661
1.448392272
1.451247053
1.453279138
1.454783201
1.45603536
1.457064041
1.457172479
1.456770282
1.446769017
1.467338094
1.4858745
1.492039355
1.493469025
1.491811709
1.490905875
1.488672623
1.483750331
1.478841473
1.476452291
1.473835073
1.469433873
1.462652714
1.456211387
1.454691781
1.453509993
1.451412737
1.449462133
1.449178973
1.44989369
1.45041447
1.449745798
1.44918361
1.449228177
1.449677816
1.449823838
1.449673607
1.449442807
1.44923486
1.449452997
1.449510972
1.449785213
1.406350816
1.431648859
1.458385584
1.469030467
1.479480201
1.489493229
1.49018833
1.490407199
1.491139841
1.490331324
1.488619275
1.486040568
1.48274196
1.477138123
1.469194349
1.465274805
1.465193054
1.464789608
1.463141447
1.460478058
1.457611565
1.456085645
1.454117106
1.451232908
1.446976086
1.445244949
1.444853271
1.444149211
1.443199509
1.443233576
1.443883588
1.444924913
1.446689282
1.199202262
1.242931509
1.292283952
1.331215869
1.364762626
1.40712143
1.424462729
1.437653196
1.453165722
1.459556883
1.464589186
1.470563831
1.474599445
1.477592958
1.48132768
1.487033553
1.488096656
1.487023996
1.485221208
1.482615392
1.479675276
1.476945367
1.473115775
1.467558556
1.460734391
1.455621323
1.452926716
1.451145815
1.449297405
1.44797408
1.448252498
1.448207249
1.447982093
1.040065123
1.062106578
1.092580362
1.133808135
1.17477973
1.223714628
1.274876779
1.317420118
1.365844545
1.399559591
1.423154828
1.449567528
1.467709639
1.47322705
1.481739203
1.487972531
1.487748151
1.486458619
1.484982379
1.482716858
1.478972832
1.474804654
1.470342724
1.46624134
1.464196154
1.46369153
1.463191292
1.462200608
1.460382169
1.458184096
1.456195342
1.45493092
1.453177872
1.002040905
1.004450887
1.008900815
1.017313118
1.030320057
1.049379969
1.079157089
1.112345563
1.152024837
1.204708393
1.250045853
1.294933884
1.337123902
1.366973363
1.400405721
1.427465267
1.43485448
1.444724368
1.453353273
1.454603843
1.458199215
1.465616549
1.470710447
1.472326896
1.4759071
1.479473534
1.479539038
1.478095022
1.4755602
1.473662769
1.471607828
1.469224301
1.466419902
1.000019752
1.000063355
1.000184689
1.000508294
1.001304262
1.002963922
1.006425005
1.012880528
1.023042062
1.040536632
1.064720917
1.094602861
1.136633537
1.181846553
1.227964558
1.276987992
1.317264403
1.357542793
1.398462152
1.420091648
1.438860516
1.458258127
1.465346511
1.470687188
1.478389881
1.479932766
1.47942714
1.477794083
1.474915203
1.470426573
1.466304171
1.464495255
1.464248892
1.000000024
1.000000126
1.000000583
1.000002481
1.000009614
1.000033613
1.000106903
1.000315119
1.000829778
1.002036081
1.00464845
1.009489365
1.018282151
1.032699264
1.052957263
1.083040651
1.119909452
1.157449906
1.205800932
1.25629045
1.298603931
1.340332353
1.368739774
1.392118516
1.419772596
1.43405585
1.440591145
1.44856261
1.450340994
1.451599671
1.456728238
1.46438684
1.467865548
1
1
1
1.000000001
1.000000008
1.000000048
1.000000254
1.000001199
1.000005006
1.00001877
1.00006488
1.000200918
1.000558247
1.001452212
1.003392432
1.007205173
1.014512908
1.02598359
1.044542656
1.071299339
1.102728686
1.142818613
1.189421733
1.236949385
1.283138874
1.324041592
1.355724968
1.394612913
1.421659803
1.440185096
1.452174086
1.459033676
1.464262592
1
1
1
1
1
1
1
1
1.000000003
1.000000021
1.000000124
1.000000626
1.000002806
1.000011247
1.000040638
1.000130501
1.00039098
1.00103003
1.002541436
1.005635002
1.011427562
1.021403958
1.037539045
1.059196692
1.091123263
1.130960779
1.171090494
1.214334291
1.261944429
1.308957887
1.347237728
1.378613499
1.392141523
1
1
1
1
1
1
1
1
1
1
1
1
1.000000001
1.00000001
1.000000063
1.000000342
1.000001674
1.000007052
1.000026922
1.00008971
1.000278618
1.000751289
1.001921302
1.004286292
1.00928613
1.017470871
1.031470378
1.051145729
1.08108837
1.115817908
1.156829653
1.202245941
1.245390943
1
1
1
1
1
1
1
1
1
1
1
1
1
1
1
1
1.000000001
1.000000005
1.000000035
1.000000203
1.00000104
1.000004511
1.000018
1.000061738
1.000200926
1.000551753
1.001487484
1.003370219
1.007529349
1.014432516
1.027274769
1.044775197
1.066970409
1
1
1
1
1
1
1
1
1
1
1
1
1
1
1
1
1
1
1
1
1
1.000000003
1.00000002
1.000000124
1.000000662
1.000002953
1.000012565
1.000043591
1.000150374
1.000416838
1.001158669
1.002850518
1.004798809
1
1
1
1
1
1
1
1
1
1
1
1
1
1
1
1
1
1
1
1
1
1
1
1
1
1.000000002
1.000000012
1.000000077
1.000000439
1.00000204
1.000008302
1.000056939
1.000020884
1
1
1
1
1
1
1
1
1
1
1
1
1
1
1
1
1
1
1
1
1
1
1
1
1
1
1
1
1
1.000000001
1.000000006
1.000000281
0.9999999755
1
1
1
1
1
1
1
1
1
1
1
1
1
1
1
1
1
1
1
1
1
1
1
1
1
1
1
1
1
1
1
1
0.9999999948
1
1
1
1
1
1
1
1
1
)
;

boundaryField
{
    inlet
    {
        type            fixedValue;
        value           nonuniform 0();
    }
    outlet
    {
        type            zeroGradient;
    }
    bottom
    {
        type            slip;
    }
    top
    {
        type            slip;
    }
    obstacle
    {
        type            zeroGradient;
    }
    defaultFaces
    {
        type            empty;
    }
    procBoundary20to13
    {
        type            processor;
        value           uniform 1.57494668;
    }
    procBoundary20to14
    {
        type            processor;
        value           nonuniform List<scalar> 
19
(
1.446769077
1.46733776
1.485874353
1.49203941
1.493469119
1.491811689
1.49090582
1.488672637
1.483750436
1.478841474
1.476452232
1.473835032
1.469433909
1.462652873
1.456211376
1.454691671
1.453509956
1.451412825
1.436024847
)
;
    }
    procBoundary20to19
    {
        type            processor;
        value           nonuniform List<scalar> 
16
(
1.574946583
1.433271349
1.370831584
1.150561837
1.022970243
1.00086851
1.000005815
1.000000004
1
1
1
1
1
1
1
1
)
;
    }
    procBoundary20to25
    {
        type            processor;
        value           uniform 1;
    }
    procBoundary20to26
    {
        type            processor;
        value           nonuniform List<scalar> 
34
(
1
1
1
1
1
1
1
1
1
1
1
1
1
1
1
1
1
1
1
1
1
1
1
0.9999999998
1
1
1
1
1
1
1
1
1
1
)
;
    }
    procBoundary20to27
    {
        type            processor;
        value           nonuniform List<scalar> 
16
(
1.091412088
1.383164007
1.441812231
1.446229925
1.44870504
1.455291403
1.461741093
1.473018402
1.47371173
1.44572117
1.372977517
1.184924793
1.039394848
1.00341277
1.000123933
1.000002113
)
;
    }
}


// ************************************************************************* //
