/*--------------------------------*- C++ -*----------------------------------*\
  =========                 |
  \\      /  F ield         | OpenFOAM: The Open Source CFD Toolbox
   \\    /   O peration     | Website:  https://openfoam.org
    \\  /    A nd           | Version:  7
     \\/     M anipulation  |
\*---------------------------------------------------------------------------*/
FoamFile
{
    version     2.0;
    format      ascii;
    class       volScalarField;
    location    "4";
    object      rho;
}
// * * * * * * * * * * * * * * * * * * * * * * * * * * * * * * * * * * * * * //

dimensions      [1 -3 0 0 0 0 0];

internalField   nonuniform List<scalar> 
2222
(
1.917044136
1.906239621
1.896151438
1.886213874
1.876759749
1.868374812
1.861515988
1.85178132
1.837536641
1.819461083
1.800381805
1.78807552
1.782519344
1.776628033
1.771008406
1.759314147
1.746070868
1.729823122
1.721081602
1.713769024
1.697638277
1.682400421
1.770869248
2.483623951
2.016320928
1.999723207
1.982577498
1.978569064
1.97190971
1.96947414
1.967676619
1.957289278
1.944342505
1.928605224
1.916349324
1.907572427
1.899890169
1.892142994
1.881131821
1.868689388
1.861384925
1.853046846
1.839764317
1.822124528
1.803455995
1.790955319
1.786214221
1.779783733
1.772239485
1.7598499
1.746339573
1.730450662
1.722370269
1.71470662
1.698238272
1.683332816
1.813428835
2.518174503
2.021519963
2.009780506
1.989946634
1.98344092
1.973714197
1.972908114
1.969397685
1.95476519
1.938790451
1.92652427
1.918211751
1.911336149
1.906877425
1.897534613
1.881424367
1.867606444
1.860683838
1.854543796
1.842279816
1.82519993
1.807153897
1.794250922
1.789349244
1.781206919
1.772858201
1.760101755
1.746584213
1.731238085
1.723580278
1.715609645
1.699224058
1.685284026
1.86438241
2.553939602
2.031128425
2.024435231
2.000881302
1.987341829
1.97444025
1.975358424
1.968382059
1.948903937
1.933870965
1.92806287
1.922060578
1.918860043
1.913177551
1.898578519
1.880311434
1.864837804
1.860560791
1.856606873
1.845370651
1.828894047
1.811332557
1.797389471
1.79172554
1.782497781
1.773448683
1.760562922
1.747198719
1.732324871
1.725062212
1.716834804
1.700975165
1.68801466
1.923281585
2.58001138
2.041480793
2.036086614
2.009689646
1.990899391
1.97407489
1.975866213
1.964327786
1.942963873
1.932313038
1.93120573
1.929299152
1.925681879
1.915193403
1.897856321
1.877246037
1.862299715
1.861687565
1.859658865
1.849656295
1.83336206
1.81512636
1.799896687
1.793850078
1.784088277
1.774456258
1.761475426
1.748261975
1.733835765
1.727266968
1.718845286
1.703818118
1.690312652
1.989529771
2.598147284
2.045141185
2.037274799
2.013324725
1.994431981
1.974634076
1.974449426
1.96133073
1.940623656
1.932743878
1.936752131
1.936840928
1.927989811
1.915243691
1.894845276
1.874346107
1.862541477
1.864987132
1.864284651
1.854935362
1.836778186
1.817365914
1.80198557
1.795952104
1.785902676
1.775748613
1.762783202
1.749900401
1.736324012
1.730712189
1.721858794
1.706541139
1.691786474
2.060112425
2.608613185
2.042843342
2.033989022
2.01433135
1.997373487
1.975924254
1.974388884
1.961367457
1.940521191
1.934803833
1.943822357
1.939966888
1.928530404
1.912875842
1.891379311
1.873632587
1.864416751
1.870999625
1.870036886
1.858017796
1.837306907
1.818654454
1.804078342
1.798083969
1.787982662
1.777286829
1.764651461
1.752727206
1.740211893
1.734278965
1.723436861
1.70747627
1.693245996
2.130921634
2.614613093
2.03030503
2.015834883
2.001083961
1.978548197
1.975899203
1.962075916
1.941915814
1.938578923
1.948550465
1.941023205
1.926907855
1.908644515
1.889881944
1.87415255
1.86861141
1.878376184
1.874721389
1.858273942
1.837400835
1.819828626
1.806285473
1.800287158
1.790346822
1.779281568
1.767587687
1.756165867
1.742395584
1.735557175
1.723693514
1.70825239
1.695200243
2.196972484
2.618031271
2.029984818
2.021100009
2.007441434
1.982621285
1.97832164
1.9636106
1.945123361
1.943064546
1.950975139
1.940143462
1.922883078
1.90602983
1.889802986
1.875633276
1.875535191
1.883905937
1.876194324
1.857788722
1.837440546
1.821117575
1.808564738
1.802733791
1.793290274
1.781983982
1.770254466
1.757297643
1.743226044
1.736331957
1.723826217
1.709193779
1.698467825
2.256558026
2.620403709
2.586100617
2.034057582
2.02839342
2.0131276
1.986822391
1.981935342
1.966795344
1.95008584
1.946355745
1.952151278
1.937014415
1.920243467
1.905399544
1.890638492
1.879449947
1.882273561
1.886270078
1.876333206
1.856754911
1.837672124
1.822592931
1.811067588
1.805723985
1.797031669
1.784851429
1.771211304
1.757944024
1.743966199
1.737126573
1.724036708
1.710331367
1.704299596
2.309532429
2.621520124
2.590509197
2.038158317
2.030374211
2.013684813
1.990611512
1.986715565
1.971256653
1.955038736
1.949690384
1.951231502
1.935168057
1.920319039
1.905940209
1.893533633
1.884774448
1.885199599
1.887505287
1.875573369
1.855934058
1.838203295
1.824373222
1.814283663
1.809530861
1.800908648
1.786812361
1.771739199
1.758829589
1.745064495
1.738119517
1.724463238
1.711439165
1.7143656
2.356099626
2.620444438
2.593542696
2.038308545
2.030134821
2.013052202
1.995216334
1.992456652
1.975746316
1.958876865
1.95286052
1.950630183
1.936019873
1.921905986
1.908328696
1.897752394
1.886401285
1.886094652
1.887068996
1.874555579
1.855836397
1.83916626
1.82688352
1.818831201
1.813706657
1.803564288
1.787833924
1.772253466
1.760037488
1.74643324
1.739330834
1.725250622
1.71297511
1.729632164
2.396564704
2.61918123
2.595344458
2.037182152
2.029138426
2.013698389
2.002473446
2.000067861
1.979364783
1.962373855
1.955770716
1.953486215
1.938127349
1.925272177
1.911775108
1.899051474
1.886209214
1.884798666
1.885777406
1.874649814
1.856402036
1.841065406
1.830814824
1.823824605
1.816461568
1.804854244
1.788600564
1.772927797
1.761488236
1.748018834
1.740857197
1.726623389
1.715432875
1.750085666
2.431329256
2.617970816
2.596689857
2.030834979
2.028348503
2.017620601
2.013338605
2.008896227
1.982394518
1.965606138
1.96041879
1.958002948
1.941941947
1.929744238
1.912674999
1.898425153
1.884254846
1.883103151
1.886047041
1.875697426
1.858019555
1.844735669
1.835376444
1.826511332
1.81764205
1.805784604
1.789459002
1.773847664
1.763157704
1.749878963
1.7428443
1.728891659
1.718120698
1.775790927
2.461614871
2.617021917
2.597960042
2.014142381
2.029483046
2.023892715
2.021889948
2.012990374
1.984638339
1.970545389
1.96628014
1.96420361
1.947096078
1.931873
1.911288573
1.89500695
1.881948896
1.884284814
1.887522173
1.877586624
1.861696862
1.84947744
1.837506071
1.827752579
1.818658379
1.806797363
1.79053429
1.775113514
1.765054032
1.752229986
1.745314911
1.731552913
1.719419677
1.806411312
2.488526967
2.616489904
2.599299531
2.031109717
2.026587797
2.022626067
2.011645228
1.985481079
1.977108539
1.973706173
1.97035939
1.949696632
1.931953163
1.907076542
1.890427258
1.88184624
1.886915745
1.88984182
1.880984174
1.866430075
1.851104321
1.837980941
1.828607972
1.819648203
1.808030063
1.791947036
1.776839274
1.767296403
1.755261431
1.747896598
1.733145912
1.720215448
1.843368838
2.512548664
2.616239337
2.600830567
2.023861577
2.025912946
2.021225187
2.008178642
1.986415033
1.984959365
1.981820978
1.974550971
1.950030736
1.929890817
1.902785619
1.888731526
1.88343708
1.890884529
1.893941068
1.885226423
1.867884596
1.851149098
1.837823254
1.829320305
1.820763688
1.809580225
1.793869048
1.779146235
1.769956325
1.758570562
1.749948503
1.734144361
1.720961982
1.888292774
2.535862653
2.616093555
2.602225578
2.006110428
2.025427138
2.017511369
2.004768321
1.989097788
1.993857731
1.99057123
1.977029888
1.949523182
1.927699495
1.901793812
1.888836549
1.885899505
1.896743183
1.897341223
1.886418289
1.867921815
1.850501652
1.837390135
1.830266728
1.822203544
1.811620342
1.796518087
1.781966499
1.772651422
1.761340122
1.751356367
1.73514041
1.722107632
1.942107253
2.5571184
2.615302469
2.603270551
1.984488124
2.021830809
2.012891881
2.003576766
1.994505883
2.00432159
1.999355785
1.978428559
1.948885664
1.928140936
1.90246335
1.890710814
1.890428376
1.902081502
1.898676949
1.886348248
1.866969528
1.849662647
1.837604744
1.831514587
1.824269801
1.814380686
1.799716575
1.784414539
1.774655081
1.763431156
1.752432364
1.736221871
1.723724036
2.003183708
2.581357482
2.613148652
2.604159148
1.955469766
2.011671997
2.010253945
2.008087557
2.004068823
2.012378762
2.003909209
1.979468498
1.949776899
1.929798799
1.905479012
1.89455108
1.894834957
1.904065301
1.89933767
1.884965555
1.865227454
1.849465213
1.838571642
1.833672662
1.827344358
1.817529366
1.801259127
1.785672536
1.775873172
1.765273154
1.75338749
1.737328729
1.726324427
2.06664589
2.601199456
2.610534663
2.605009371
1.909249814
1.992175987
2.010284065
2.018503354
2.01299751
2.013823775
2.00491176
1.98065649
1.951155059
1.933489067
1.911295553
1.896600172
1.897099919
1.905431348
1.898895193
1.882643854
1.864132726
1.85002134
1.840115803
1.837160903
1.831146287
1.819169291
1.801219163
1.78645841
1.776679682
1.767151199
1.754295443
1.738449748
1.729981138
2.1273355
2.616726729
2.610017903
2.605518628
1.852388418
1.970869973
2.010239622
2.025534157
2.01495848
2.012028812
2.005029867
1.982504909
1.95400121
1.939025363
1.916888047
1.899017648
1.898553721
1.90557424
1.897671388
1.881396147
1.864014653
1.851122974
1.84319036
1.841510059
1.833619885
1.819492316
1.801119011
1.787378639
1.777369217
1.769065239
1.755010288
1.739152884
1.734473138
2.183045293
2.627416302
2.612223961
2.606055216
1.795893426
1.941260375
2.001005262
2.029102957
2.013021068
2.009959579
2.004932651
1.985955718
1.95899268
1.943545857
1.919928392
1.900351839
1.899218866
1.906237669
1.89819144
1.881334784
1.864471872
1.852982312
1.848059353
1.844515026
1.83428531
1.819566187
1.801329578
1.788588752
1.778315308
1.770936086
1.755285235
1.7393595
1.740581189
2.235275476
2.634184236
2.615773323
2.606637744
1.895034466
1.984696808
2.030154838
2.007039082
2.009108168
2.00662311
1.991431478
1.964713819
1.946006491
1.921381599
1.901651726
1.901539002
1.908628714
1.899842941
1.881782171
1.865610773
1.856380989
1.851362128
1.845560367
1.834510377
1.819734219
1.801993479
1.790284274
1.779966599
1.772547163
1.75532467
1.739378083
1.749393343
2.285809626
2.637956976
2.621124701
2.608535753
1.841257861
1.96232669
2.026962098
1.999685841
2.010373228
2.011871925
1.998561506
1.969386848
1.94710913
1.922150839
1.903469286
1.9039916
1.911126374
1.901802045
1.882568753
1.866925082
1.858412526
1.852336228
1.845988269
1.834592634
1.820168782
1.803446184
1.792765134
1.782213162
1.77355118
1.755325024
1.739599312
1.761670906
2.334560896
2.639648887
2.625459592
2.611468905
2.581299377
1.783832954
1.927370614
2.016736862
1.994636417
2.01509477
2.018763939
2.002131986
1.97116936
1.947825261
1.923110838
1.906239599
1.90646309
1.913889227
1.903984353
1.883010283
1.867390588
1.858922741
1.852701509
1.845850894
1.834957407
1.821024882
1.805884551
1.795471475
1.783633886
1.774142904
1.75547819
1.740499149
1.778124139
2.379794498
2.642029104
2.629148911
2.612813123
2.584700986
1.724471913
1.879402763
1.996203109
1.989037377
2.019617109
2.020298659
2.000869981
1.971290733
1.949173353
1.925681937
1.91028344
1.909068099
1.915999851
1.905734505
1.882969177
1.867439232
1.858979905
1.852236125
1.845871637
1.835760563
1.822637969
1.808682435
1.796767972
1.784264762
1.77470322
1.756124151
1.742375708
1.799335979
2.41967346
2.645254706
2.632394558
2.614963996
2.587902011
1.670462703
1.828093175
1.964983095
1.984803517
2.020429748
2.018860845
1.99921161
1.971928305
1.95242482
1.931201891
1.915778766
1.912102493
1.917807582
1.906902207
1.88290555
1.867246595
1.858335551
1.851319287
1.846592419
1.837079177
1.824945377
1.810366591
1.797211654
1.784823276
1.775431486
1.757553143
1.745004682
1.825483739
2.454055947
2.647140896
2.635346023
2.616853617
2.590542866
1.62736306
1.771693283
1.918904565
1.977471372
2.019688237
2.016088951
1.998512664
1.974311651
1.958715272
1.939476695
1.921967297
1.915759501
1.920057807
1.908013258
1.882921195
1.866474325
1.856817131
1.851063203
1.847860312
1.839077336
1.827169467
1.810809578
1.797299506
1.785421896
1.776433969
1.759731574
1.747373594
1.856113283
2.484460078
2.649017185
2.637860204
2.617850132
2.593927032
1.598390099
1.7153631
1.864566541
1.954886868
2.016258554
2.014008672
2.000984874
1.979295734
1.967091851
1.947580817
1.927648115
1.920320381
1.923212885
1.909392495
1.882483028
1.864756669
1.855245616
1.851999678
1.849718527
1.841620878
1.828272681
1.810898458
1.797246238
1.786115069
1.777679976
1.761897009
1.748926263
1.890845764
2.512592729
2.651325003
2.638823437
2.617686825
2.596080965
1.579329762
1.666990285
1.803505346
1.916025039
2.003083935
2.013458519
2.00542632
1.983641604
1.97221779
1.951921806
1.932550745
1.926019934
1.927165849
1.910429569
1.881362053
1.862435497
1.854883749
1.853724231
1.852389512
1.843985367
1.828552857
1.810487055
1.79725899
1.787285845
1.77906211
1.763522817
1.750154495
1.929014557
2.53789973
2.654113456
2.639089264
2.6175296
2.598154838
1.625153452
1.740953543
1.864329384
1.978933653
2.010979875
2.00534593
1.982788829
1.973013918
1.953213249
1.937262583
1.932783961
1.931275776
1.91047283
1.879930491
1.861074298
1.855754162
1.8564422
1.855395397
1.845088882
1.828176155
1.809755907
1.797524324
1.789115784
1.780590162
1.764576881
1.751506355
1.970630175
2.558335369
2.658033125
2.640291337
2.617890647
2.599339474
1.584156357
1.681488963
1.806607492
1.951209258
2.003245611
2.002753725
1.980228013
1.973152886
1.953775808
1.942443524
1.940241066
1.935492157
1.909499441
1.878759986
1.861059944
1.857460891
1.860216879
1.857523141
1.845344573
1.827088876
1.80917325
1.798296649
1.791423961
1.782346791
1.76518539
1.753744849
2.015688557
2.572855508
2.661882592
2.643179262
2.618721131
2.599661282
1.551908369
1.626929519
1.748025291
1.912321277
1.986522345
1.99683935
1.976517778
1.973077317
1.954163875
1.94947893
1.948611328
1.939492683
1.907990329
1.878429334
1.861908304
1.860160939
1.863725763
1.858407849
1.844666505
1.82578148
1.809238351
1.799928078
1.794086892
1.783781213
1.765294739
1.758127223
2.062721612
2.582693839
2.665780649
2.647504425
2.620224502
2.599023557
1.546542851
1.589419179
1.695320888
1.86166582
1.962959623
1.988715137
1.974948239
1.973610732
1.955655069
1.958835039
1.957434128
1.942438005
1.907101937
1.879009303
1.863995149
1.864098314
1.865580524
1.858319252
1.842798482
1.825056649
1.809973222
1.802786978
1.796350036
1.783966994
1.764276316
1.765115938
2.110879933
2.590390456
2.669868664
2.652876329
2.623820909
2.598848493
1.555003072
1.575327247
1.652337446
1.805087342
1.930161619
1.977361163
1.974116356
1.977106445
1.960307986
1.968343095
1.963324885
1.944617483
1.906913197
1.88044783
1.867986942
1.868419087
1.866157214
1.857020254
1.841024324
1.825062835
1.811545286
1.806143392
1.79673279
1.783708777
1.762339936
1.774442778
2.156959945
2.597508425
2.672953056
2.655859381
2.62362219
2.596366518
1.55855293
1.567863969
1.622766806
1.752955835
1.888995525
1.960089446
1.974532138
1.983016182
1.964206378
1.974065781
1.965586792
1.947050507
1.907656023
1.883030396
1.874365456
1.871209364
1.865818078
1.855471278
1.841054917
1.825911981
1.81446959
1.807922853
1.796601628
1.783286781
1.761449276
1.785965637
2.199912439
2.604291624
2.674808651
2.657978413
2.624775472
2.595023146
1.551241646
1.548664892
1.590273117
1.700175828
1.839891999
1.936139898
1.967350256
1.985716443
1.963837464
1.977925626
1.966590197
1.949995792
1.910005694
1.887703054
1.879516114
1.872382131
1.864528966
1.854949198
1.841792989
1.828241461
1.816677406
1.808154532
1.795999038
1.783084935
1.761577604
1.800928741
2.239447605
2.609132581
2.675234004
2.657350287
2.625073726
2.594014325
1.536671397
1.521961728
1.541275647
1.630897663
1.770312048
1.892127028
1.950002163
1.98506062
1.961208198
1.980180588
1.969285408
1.953880177
1.915157573
1.89458573
1.883223008
1.872772561
1.864169806
1.855403532
1.842677187
1.829670579
1.816996694
1.807418005
1.795114096
1.782684972
1.761350355
1.819777043
2.273994546
2.61267237
2.673148379
2.654958265
2.624116383
2.593600998
1.542581113
1.51772509
1.530311836
1.590350795
1.69660194
1.817093583
1.912632286
1.973256324
1.957024528
1.984491958
1.975591738
1.963257171
1.925092364
1.901592637
1.88658346
1.874233462
1.865653668
1.857219655
1.844722446
1.829701301
1.815579618
1.806153076
1.795196164
1.783720492
1.761386584
1.843800935
2.305862139
2.613893098
2.670016679
2.652810966
2.624713499
2.594952339
1.559755246
1.559968947
1.564056721
1.616181763
1.686803453
1.77989791
1.871724672
1.929704213
1.979052982
1.972900198
1.947402233
1.921788276
1.904385759
1.894810557
1.883329204
1.873715015
1.861325048
1.844872275
1.828927938
1.8161541
1.806776822
1.795077643
1.783355213
1.802226052
1.991952996
2.436395537
2.60881325
2.663146151
2.650199235
2.626754806
2.598482084
1.659892039
1.608165888
1.585071559
1.575451143
1.591403639
1.653881437
1.70029129
1.767675454
1.833718748
1.868773224
1.887773109
1.898088699
1.906717478
1.90271854
1.89485371
1.882550244
1.86413596
1.844194717
1.831431525
1.822797691
1.810047852
1.795568309
1.792438219
1.92512641
2.332819516
2.681712866
2.679925721
2.675197502
2.650697846
2.626980395
2.601714841
1.749378683
1.690811009
1.619018622
1.593630496
1.596117796
1.607090467
1.619433271
1.655257055
1.696048576
1.752536608
1.805809254
1.852975938
1.888794468
1.896461578
1.890107943
1.87369307
1.856512286
1.846113835
1.840314045
1.830799282
1.813637773
1.804166995
1.881754505
2.278159009
2.611682254
2.744734306
2.718546659
2.676094531
2.644872916
2.625815807
2.602662606
1.837013915
1.788155177
1.717125206
1.65784195
1.624681099
1.609850969
1.608125597
1.612070807
1.634905638
1.661685589
1.693587567
1.737979785
1.787030317
1.819191761
1.83974714
1.84714549
1.851697024
1.850123849
1.847323073
1.830897494
1.81654718
1.862478953
2.176941655
2.627479275
2.734180631
2.743761032
2.713152746
2.674126746
2.639879024
2.621268502
2.598175024
1.888079072
1.858330594
1.809073835
1.75070252
1.704355218
1.668191315
1.638177969
1.629107921
1.621142727
1.621391025
1.640622375
1.660498721
1.693013584
1.735872599
1.782847729
1.814810983
1.837365244
1.847317062
1.837485074
1.817584358
1.835895126
2.095609724
2.552861909
2.767268289
2.769943472
2.730513898
2.695582094
2.669791436
2.638820844
2.611272549
2.583166668
1.92258774
1.904012945
1.87294531
1.829580384
1.787565573
1.739504152
1.697752464
1.656189275
1.635568824
1.633430024
1.625643803
1.620916301
1.631815666
1.655228307
1.688761583
1.725979607
1.761196111
1.787049782
1.7906911
1.797659025
1.99027995
2.449947081
2.723880644
2.769395617
2.737963904
2.690427813
2.669495012
2.650071799
2.619637658
2.584640771
2.552991094
1.942267225
1.926613966
1.906417262
1.876093996
1.844648261
1.812594189
1.770904546
1.730402077
1.690342153
1.661891642
1.63508084
1.623464804
1.614072596
1.619317616
1.629161888
1.652298088
1.684910662
1.71995772
1.741435512
1.839068101
2.301902259
2.628041294
2.725520048
2.67507286
2.648954641
2.624933756
2.602304789
2.582293528
2.555105384
2.521799164
2.487922009
1.945363324
1.935500748
1.925431211
1.908242829
1.883752529
1.861719052
1.835243061
1.803868658
1.763228604
1.726646851
1.683838974
1.653625519
1.626900783
1.619635655
1.607532414
1.616707225
1.630085643
1.638584578
1.698923082
1.996627392
2.524364129
2.585530414
2.579332836
2.549953406
2.551034324
2.536448032
2.513846021
2.496035733
2.474439406
2.4440695
2.40966783
1.94699344
1.945291393
1.939779987
1.928322639
1.907523056
1.88926764
1.875143465
1.856476051
1.826712232
1.794211647
1.745801769
1.702655536
1.654591895
1.632465255
1.61600978
1.613014997
1.60512156
1.609360138
1.68843657
2.226042787
2.500901115
2.467899632
2.46409787
2.451463924
2.451085516
2.446212037
2.42723285
2.411377877
2.394832201
2.373408378
2.347398474
1.947376915
1.949487851
1.953687955
1.944636751
1.928349881
1.913209151
1.905121656
1.893567145
1.872966638
1.847492856
1.811913185
1.764879002
1.713845846
1.670904389
1.636912383
1.625680793
1.609594196
1.604884346
1.8976049
2.400833579
2.472552674
2.436451354
2.421030888
2.404513122
2.39566432
2.394921716
2.385016785
2.370122395
2.355644965
2.340888749
2.320159216
1.945363541
1.950643609
1.953540872
1.950698928
1.947145196
1.933123498
1.920591368
1.910917939
1.898434768
1.883739944
1.859486901
1.824546258
1.784088888
1.735884631
1.699765747
1.656788144
1.621501241
1.667893587
2.202002956
2.473009374
2.454528333
2.424602293
2.407772077
2.396976934
2.3858449
2.380533961
2.373917795
2.362329511
2.349509911
2.334909687
2.317342298
1.917404278
1.944630824
1.953907509
1.953982164
1.954742404
1.943820121
1.928447243
1.917234936
1.907695456
1.899829779
1.887730117
1.864718844
1.836034399
1.799115365
1.763920874
1.703680801
1.688934079
1.895937716
2.506273887
2.576653516
2.50245497
2.460361499
2.436170388
2.423063542
2.409250908
2.399809186
2.39085724
2.378375016
2.365226908
2.350313667
2.333938411
1.900635052
1.928055449
1.93700098
1.944324144
1.951618177
1.945822495
1.930380829
1.920676215
1.917002939
1.909831399
1.905404655
1.895743464
1.877349285
1.853725803
1.819464897
1.782536011
1.823428867
2.264660761
2.724209328
2.674488353
2.583300524
2.535765343
2.502701775
2.482505572
2.459976862
2.442427305
2.430705516
2.417215254
2.403089699
2.386604588
2.368957097
1.882782508
1.890637202
1.899021386
1.912556142
1.929551685
1.933714798
1.927081698
1.920101862
1.917195509
1.913528578
1.910464976
1.905038756
1.894781208
1.877581608
1.856366034
1.862138775
2.082494968
2.65252727
2.858523607
2.797198125
2.700371627
2.638796766
2.598957414
2.571673431
2.545690819
2.52034046
2.499629805
2.48239113
2.465471403
2.446461896
2.426406269
1.84526597
1.866718231
1.875097246
1.886291611
1.901745463
1.913276993
1.916307236
1.91478275
1.91354417
1.910948095
1.910327339
1.904925139
1.894237946
1.882091116
1.873506782
1.967934591
2.492523252
2.881784676
2.927255189
2.864744796
2.784171384
2.732213268
2.68734971
2.652675363
2.622122365
2.58920833
2.559002367
2.537892182
2.519020652
2.49813637
2.474832451
1.788487772
1.867848714
1.869336782
1.87027328
1.880807542
1.891802594
1.896929237
1.899511332
1.901705371
1.90298083
1.902380337
1.898646821
1.887698037
1.879217172
1.904823574
2.287920267
2.824936461
2.949884604
2.958354887
2.897894633
2.821377076
2.764681793
2.721668232
2.687590985
2.655895102
2.621543888
2.587886044
2.55988446
2.537811315
2.518162003
2.496283372
1.631616899
1.870304811
1.87268111
1.864924345
1.873225786
1.877791253
1.87977668
1.881435242
1.883866718
1.887849181
1.890440124
1.890000226
1.880933754
1.888196725
2.079183649
2.693414026
2.938466053
2.953969651
2.937226158
2.900191252
2.84186779
2.781640773
2.73832036
2.702219291
2.666104836
2.632607431
2.601239604
2.57067978
2.543396099
2.522269885
2.498593716
1.262542537
1.796315988
1.859466608
1.865081934
1.865687472
1.86231652
1.859431629
1.859664245
1.864628689
1.866989999
1.868698031
1.866860219
1.865867725
1.91204841
2.44750287
2.919405087
2.943516893
2.90614309
2.893355096
2.876174181
2.828231546
2.771494972
2.730014564
2.696658935
2.668216936
2.638740172
2.609838956
2.580058562
2.546741608
2.514474516
2.488501323
0.8864848412
1.56921284
1.874805611
1.875927093
1.867518519
1.860009156
1.855796233
1.853105153
1.8482866
1.846682904
1.848320188
1.846020847
1.857314322
2.149523716
2.798072739
2.957339644
2.916065215
2.865097782
2.85644936
2.844957836
2.806480945
2.751211402
2.709146814
2.676784496
2.647891903
2.621163891
2.595603896
2.56804912
2.53636927
2.50501103
2.47871769
0.7608541957
1.151861899
1.775188761
1.878514509
1.873356418
1.861840388
1.856986157
1.853905378
1.850086791
1.842210151
1.833160798
1.835297201
1.906898016
2.542192315
2.926056714
2.916166252
2.880269719
2.837170804
2.817980744
2.804044575
2.774038042
2.727013087
2.684831994
2.654365406
2.627053202
2.599984154
2.574612861
2.548963416
2.521160853
2.493202932
2.468116879
0.7657426684
0.8412730314
1.454965976
1.865915228
1.893722016
1.879768025
1.868484919
1.860665565
1.853655525
1.842481633
1.83333523
1.834731806
2.161345109
2.833136883
2.9681953
2.900815546
2.85850799
2.817631586
2.792389948
2.783469106
2.758298308
2.713953364
2.666814078
2.633440406
2.607698363
2.581163763
2.554627597
2.530684438
2.509204449
2.485581699
2.460841574
0.780644298
0.7822930496
1.046347575
1.714072045
1.907322321
1.899879874
1.883971346
1.869907149
1.861426367
1.842969155
1.836155907
1.899493541
2.542184542
2.964987036
2.968715827
2.90415618
2.86044816
2.820539067
2.788411231
2.772876073
2.751308074
2.71456716
2.667991939
2.629230821
2.599432094
2.57278842
2.546485178
2.524534926
2.504952267
2.483815554
2.460003223
0.802752243
0.7873120463
0.8231902005
1.335521115
1.855700329
1.919266553
1.911034046
1.893891323
1.876916695
1.852008286
1.856165373
2.143095173
2.827203734
2.995425969
2.957382312
2.905566108
2.865326595
2.828282611
2.793342214
2.772264282
2.752250484
2.714579678
2.67353737
2.633077085
2.600483647
2.573156288
2.546986714
2.524185082
2.505171093
2.485059659
2.460917608
0.8212543141
0.8022478806
0.8022406282
0.9654535377
1.622722514
1.922275358
1.933165288
1.917657848
1.890583768
1.874173008
1.93291291
2.546784568
3.059723548
3.023410657
2.960520616
2.918217274
2.879612001
2.842058336
2.803247466
2.774422738
2.751603868
2.722421233
2.685589865
2.646127326
2.609647654
2.578539486
2.551376714
2.528039463
2.508839725
2.490581044
2.468898459
0.8386093303
0.8247928535
0.8092347619
0.8234245832
1.217605973
1.825946057
1.939217105
1.927745673
1.905492159
1.911821591
2.204848596
2.908283734
3.121201298
3.072391767
3.00290329
2.961734732
2.921571975
2.881295441
2.83854237
2.802394435
2.775150186
2.744075975
2.706940414
2.666453117
2.628599963
2.596012685
2.566513669
2.5397831
2.518338114
2.499788205
2.48011927
0.8558186046
0.8461796526
0.8302136737
0.8277363257
0.9127769615
1.502067194
1.936611582
1.933524802
1.924066557
2.015388453
2.653611072
3.147301792
3.171109402
3.113501828
3.046613862
3.001491777
2.960940152
2.921001079
2.876260322
2.834757027
2.804240418
2.773629735
2.736368571
2.694817499
2.654134603
2.621944729
2.593969705
2.567409312
2.544164678
2.523575416
2.502565532
0.8729375651
0.8643221372
0.8523359891
0.8370045859
0.8413510273
1.111328846
1.789393862
1.893698906
1.95560113
2.372861021
3.036941006
3.243859651
3.206347122
3.156020767
3.093690786
3.045910963
3.004405899
2.963450571
2.918100043
2.874058512
2.838701639
2.806775108
2.771212206
2.731970977
2.69218834
2.656625847
2.626417533
2.598886256
2.573889872
2.551118835
2.528777139
0.8921610311
0.8809989945
0.8700381174
0.8552267291
0.8443866649
0.8907387863
1.409447974
1.796485722
2.171115794
2.862587071
3.267539772
3.302633141
3.242275843
3.19381666
3.138538678
3.088354175
3.042567463
2.999541899
2.954926309
2.910903151
2.872250658
2.83857861
2.802808369
2.764960901
2.728425649
2.694329268
2.663063564
2.633852877
2.606338626
2.580408822
2.555751857
0.9031824781
0.8942920681
0.8839772231
0.8729779109
0.8567205019
0.8602916221
1.031473583
1.696321866
2.554675217
3.202040288
3.345692992
3.335820842
3.277860895
3.231445418
3.179140039
3.126955775
3.077054209
3.031700261
2.987202309
2.943587147
2.903140659
2.867649158
2.832927126
2.797978182
2.764925419
2.731577229
2.698692963
2.667274211
2.637137667
2.608404059
2.581765397
0.9042955457
0.9028861941
0.8964159776
0.8906359019
0.8802063299
0.8723560171
0.8954294379
1.564957553
2.732789782
)
;

boundaryField
{
    inlet
    {
        type            calculated;
        value           nonuniform 0();
    }
    outlet
    {
        type            calculated;
        value           nonuniform 0();
    }
    bottom
    {
        type            calculated;
        value           nonuniform 0();
    }
    top
    {
        type            calculated;
        value           nonuniform 0();
    }
    obstacle
    {
        type            calculated;
        value           nonuniform 0();
    }
    defaultFaces
    {
        type            empty;
    }
    procBoundary28to21
    {
        type            processor;
        value           nonuniform List<scalar> 
19
(
2.028559114
2.025695583
2.025633248
2.031742059
2.041712788
2.044804252
2.039310314
2.039310314
2.035112971
2.03436635
2.035839658
2.03095704
2.015011052
1.995800718
1.969561405
1.995440054
1.995440054
1.974365305
1.938320175
)
;
    }
    procBoundary28to22
    {
        type            processor;
        value           nonuniform List<scalar> 
35
(
1.92045162
1.906427692
1.895007063
1.882607549
1.871381164
1.864752462
1.860644953
1.850534869
1.835627373
1.817175989
1.797840372
1.785739773
1.77951996
1.772517044
1.767204135
1.757291267
1.745271708
1.728842902
1.719155691
1.712490762
1.697156532
1.681976782
1.737156622
2.445107374
2.013511109
1.993679398
1.979423883
1.973840235
1.968959017
1.964142431
1.963560147
1.957354392
1.94717205
1.932752757
1.932752757
)
;
    }
    procBoundary28to23
    {
        type            processor;
        value           uniform 2.563009067;
    }
    procBoundary28to27
    {
        type            processor;
        value           nonuniform List<scalar> 
55
(
1.884931906
1.823442181
1.754283835
1.688886569
1.646085074
1.741832385
1.741832385
1.690833507
1.640155638
1.594805716
1.564842868
1.553920267
1.555384982
1.553888211
1.557404937
1.557404937
1.534355046
1.529789987
1.533274265
1.542796068
1.550541905
1.558490077
1.573390565
1.593146134
1.603299697
1.603299697
1.719376357
1.818207304
1.881456824
1.916915699
1.942280054
1.958811037
1.958951984
1.952493463
1.942384659
1.93334543
1.896134432
1.84705821
1.816625455
1.68267232
1.405152484
0.9913072903
0.758665271
0.7451107201
0.7519048179
0.7731344675
0.7951376493
0.8162056189
0.832976723
0.8485130576
0.8659525556
0.8840552743
0.9016192375
0.9102327136
0.9020041688
)
;
    }
    procBoundary28to29
    {
        type            processor;
        value           nonuniform List<scalar> 
70
(
2.559967489
2.558514634
2.55974296
2.563683706
2.570421098
2.575571047
2.580656539
2.580656539
2.553022558
2.555978926
2.55918575
2.562147177
2.564791465
2.566946115
2.568406352
2.569591982
2.570518145
2.571222224
2.571071917
2.57132597
2.571903834
2.573230413
2.575224776
2.578100956
2.578100956
2.542611982
2.545266042