/*--------------------------------*- C++ -*----------------------------------*\
  =========                 |
  \\      /  F ield         | OpenFOAM: The Open Source CFD Toolbox
   \\    /   O peration     | Website:  https://openfoam.org
    \\  /    A nd           | Version:  7
     \\/     M anipulation  |
\*---------------------------------------------------------------------------*/
FoamFile
{
    version     2.0;
    format      ascii;
    class       volVectorField;
    location    "3";
    object      U;
}
// * * * * * * * * * * * * * * * * * * * * * * * * * * * * * * * * * * * * * //

dimensions      [0 1 -1 0 0 0 0];

internalField   nonuniform List<vector> 
138
(
(3.235618005 -0.003865513392 0)
(3.237035595 0.0007950730397 0)
(3.204362315 0.002153622242 0)
(3.213992511 0.00889171707 0)
(3.217184816 0.003485396791 0)
(3.223903992 -0.001970130656 0)
(3.227111995 -0.001446634305 0)
(3.229427776 -0.002036654509 0)
(3.232259253 -0.003601588443 0)
(3.234005209 -0.005245503041 0)
(3.236566998 -0.001043378555 0)
(3.213643037 0.001550743997 0)
(3.219209083 -0.0008214319124 0)
(3.223138198 -0.001724542354 0)
(3.229257051 0.0006867306439 0)
(3.230804059 -0.0006141434402 0)
(3.233148719 -0.00128773617 0)
(3.236415947 0.0003614213409 0)
(3.238950158 -0.0007415581029 0)
(3.240010995 -0.00120992367 0)
(3.227123194 -0.0007770298379 0)
(3.228503406 -0.01004428687 0)
(3.235972215 -0.00544447918 0)
(3.241162885 0.001962830014 0)
(3.23950204 -0.00135993424 0)
(3.242139734 -3.062698321e-05 0)
(3.246700428 0.004626081787 0)
(3.248548676 0.003809542213 0)
(3.248163479 -0.0008835858733 0)
(3.246885817 0.0007975368997 0)
(3.253467862 -0.006606951783 0)
(3.251458326 -0.009875390157 0)
(3.254029082 4.607800222e-05 0)
(3.254763098 0.006026510819 0)
(3.253609822 0.001483542948 0)
(3.257059012 -0.001095358047 0)
(3.261751295 0.005470183251 0)
(3.263141888 0.004699092598 0)
(3.261872544 2.620153415e-05 0)
(3.261126 0.0002364114088 0)
(3.2786652 -0.003357070416 0)
(3.277767402 0.002660048793 0)
(3.274339956 0.005540246686 0)
(3.273887715 0.0008181787847 0)
(3.275345994 -0.003067827552 0)
(3.279140061 -0.0003399749628 0)
(3.280903764 -0.0004692293768 0)
(3.280585981 -0.001449358002 0)
(3.279378746 -0.003582628391 0)
(3.29616536 0.004818336124 0)
(3.294950763 0.005925551672 0)
(3.294364642 0.0008308174234 0)
(3.292664977 -0.002655787152 0)
(3.290969206 -0.003831819932 0)
(3.293483075 0.000146233421 0)
(3.29536538 -0.003276707337 0)
(3.29522842 -0.005764210986 0)
(3.293164899 -0.003078643041 0)
(3.301471547 0.003670894166 0)
(3.300342602 0.005205507468 0)
(3.301360229 0.004458793591 0)
(3.299819039 -0.0004433144559 0)
(3.296701973 -0.005426082427 0)
(3.298313259 -0.001274681433 0)
(3.299618439 -0.003448812234 0)
(3.298298985 -0.006339146903 0)
(3.295332363 -0.005052150583 0)
(3.296198636 -0.00189083551 0)
(3.294719468 -0.002989238119 0)
(3.294333762 0.0021074228 0)
(3.290483037 0.002079546899 0)
(3.285543023 -0.001734575684 0)
(3.287083187 0.001732340852 0)
(3.288140694 -0.002983627023 0)
(3.286397097 -0.006144865499 0)
(3.281974087 -0.003175346654 0)
(3.280554046 -0.00979211445 0)
(3.279432993 -0.01054748014 0)
(3.275764049 0.0004857054984 0)
(3.268044569 0.002661866743 0)
(3.262739469 -0.001331514577 0)
(3.263384635 0.003602328079 0)
(3.262486753 0.00105246894 0)
(3.260545305 -0.002377786332 0)
(3.25599201 -0.0007165273692 0)
(3.257349416 -0.005682053124 0)
(3.250180702 -0.007586643444 0)
(3.247592973 0.006565881545 0)
(3.241850212 0.003480835254 0)
(3.236075624 -0.00336611785 0)
(3.235965751 0.00226159714 0)
(3.232253723 0.002736833273 0)
(3.229657029 -0.0004567295315 0)
(3.226256429 -0.000950172116 0)
(3.222197298 0.001791810408 0)
(3.215457291 -6.388943579e-05 0)
(3.215341693 0.01235022436 0)
(3.211602401 0.004577395279 0)
(3.204541657 -0.004666450696 0)
(3.204140336 -4.099195584e-05 0)
(3.200801333 0.001025088047 0)
(3.198015124 -0.001744787859 0)
(3.194095279 -0.002795287272 0)
(3.181958271 0.00704459884 0)
(3.179419314 0.01266136552 0)
(3.176203699 0.003957449689 0)
(3.168422584 -0.005082420526 0)
(3.166790185 -0.00197502696 0)
(3.16456414 -0.001864422082 0)
(3.161871956 -0.004098072802 0)
(3.157300448 -0.005740515541 0)
(3.141257076 0.006525210815 0)
(3.139699985 0.007158490009 0)
(3.135376592 0.002617417836 0)
(3.128286 -0.004244494664 0)
(3.126862762 -0.001097530785 0)
(3.125057448 -0.00256270997 0)
(3.121742305 -0.007370359176 0)
(3.117710803 -0.00832958866 0)
(3.096345575 -0.002058918022 0)
(3.09347296 -0.0008164586994 0)
(3.08886661 0.001307890872 0)
(3.082831488 -0.004406437551 0)
(3.082999946 0.001731160526 0)
(3.082882089 -5.901856099e-05 0)
(3.079442107 -0.005903071366 0)
(3.074839763 -0.006448597275 0)
(3.043309783 -0.007988591315 0)
(3.03825349 -0.001976087949 0)
(3.035969647 0.002715041533 0)
(3.03170918 -0.00275222931 0)
(3.032836506 0.003526671075 0)
(3.035528747 0.001668714704 0)
(3.033549569 -0.003915559237 0)
(3.028206489 -0.004464897421 0)
(2.979130845 -0.005101731417 0)
(2.980442176 0.004238905296 0)
(2.981182074 0.004661349936 0)
)
;

boundaryField
{
    inlet
    {
        type            fixedValue;
        value           nonuniform 0();
    }
    outlet
    {
        type            inletOutlet;
        inletValue      nonuniform 0();
        value           nonuniform 0();
    }
    bottom
    {
        type            slip;
    }
    top
    {
        type            slip;
    }
    obstacle
    {
        type            slip;
    }
    defaultFaces
    {
        type            empty;
    }
    procBoundary22to16
    {
        type            processor;
        value           nonuniform List<vector> 10((3.23928343 -0.0003563134802 0) (3.239510641 0.001546374772 0) (3.203502142 0.006016118511 0) (3.212101858 0.01046625159 0) (3.219652703 0.003293474444 0) (3.226569712 -0.001063180641 0) (3.226993627 0.0008661423141 0) (3.230149268 -0.001789181546 0) (3.233637062 -0.004870473333 0) (3.233637062 -0.004870473333 0));
    }
    procBoundary22to17
    {
        type            processor;
        value           uniform (3.23663593 -0.0008236503119 0);
    }
    procBoundary22to21
    {
        type            processor;
        value           nonuniform List<vector> 
18
(
(3.201979164 -0.004456444016 0)
(3.209486107 0.003691536137 0)
(3.229777557 0.01064300636 0)
(3.263321497 0.009320874972 0)
(3.282928537 -0.0004390964733 0)
(3.282928537 -0.0004390964733 0)
(3.301340846 0.006399183801 0)
(3.305672449 0.005295033195 0)
(3.300067674 0.004030520794 0)
(3.282581726 0.004416288527 0)
(3.258162663 0.01355604549 0)
(3.225539668 0.02186985461 0)
(3.189169719 0.008180293963 0)
(3.189169719 0.008180293963 0)
(3.14974159 0.009301017905 0)
(3.100500791 0.006106961072 0)
(3.049081449 0.005112040294 0)
(2.982661575 0.005631957755 0)
)
;
    }
    procBoundary22to23
    {
        type            processor;
        value           nonuniform List<vector> 
16
(
(3.236585558 -0.001177789717 0)
(3.239966131 -0.0003925799215 0)
(3.239966131 -0.0003925799215 0)
(3.249274021 0.003170488235 0)
(3.262441344 0.00249063 0)
(3.278237534 -0.001363751777 0)
(3.289908632 -0.002564420419 0)
(3.291162625 -0.003386185236 0)
(3.277268873 -0.003127800611 0)
(3.250567823 -0.0007410392092 0)
(3.219827138 -7.890512271e-05 0)
(3.187366086 -0.001723945365 0)
(3.150585959 -0.00478513783 0)
(3.110937933 -0.006442838687 0)
(3.068994643 -0.004408351817 0)
(3.023106351 -0.002211409112 0)
)
;
    }
    procBoundary22to28
    {
        type            processor;
        value           nonuniform List<vector> 9((2.977742793 -0.003075058296 0) (2.979984263 0.001919034022 0) (2.985057094 0.002521696389 0) (2.984433238 -0.001510203506 0) (2.979875914 -0.001234165743 0) (2.918600208 0.004150616576 0) (2.928805291 0.01561370654 0) (2.977742793 -0.003075058296 0) (2.935202032 0.0130711444 0));
    }
}


// ************************************************************************* //
