/*--------------------------------*- C++ -*----------------------------------*\
  =========                 |
  \\      /  F ield         | OpenFOAM: The Open Source CFD Toolbox
   \\    /   O peration     | Website:  https://openfoam.org
    \\  /    A nd           | Version:  7
     \\/     M anipulation  |
\*---------------------------------------------------------------------------*/
FoamFile
{
    version     2.0;
    format      ascii;
    class       volScalarField;
    location    "5";
    object      rho;
}
// * * * * * * * * * * * * * * * * * * * * * * * * * * * * * * * * * * * * * //

dimensions      [1 -3 0 0 0 0 0];

internalField   nonuniform List<scalar> 
2222
(
2.265801259
2.228785535
2.184257797
2.132859044
2.086870091
2.028988461
1.960803129
1.916780589
1.869961365
1.807106921
1.766813258
1.73405859
1.681784192
1.640137576
1.616722463
1.40000504
1.40000504
1.40000504
1.40000504
1.40000504
1.400005065
1.400006894
1.400104974
1.402312112
1.43121635
1.579884714
1.970342111
2.201615225
2.28879793
2.326398189
2.326123802
2.320030029
2.311980152
2.308161201
2.301522633
2.295365256
2.277904945
2.242402342
2.199444719
2.148013572
2.095147744
2.048618289
1.985201944
1.920515801
1.880544675
1.829374295
1.767469846
1.732318439
1.697092187
1.642979569
1.608828917
1.586486247
1.40000504
1.40000504
1.40000504
1.40000504
1.400005049
1.400006048
1.400058972
1.401643885
1.423412373
1.544515461
1.863402018
2.22119569
2.259483074
2.279362815
2.312226092
2.326287699
2.320043228
2.312249951
2.305653003
2.295717927
2.281856139
2.25562243
2.214730245
2.16715342
2.109054578
2.055569697
2.007268952
1.939764134
1.881779104
1.842819708
1.785706325
1.728669188
1.698375669
1.659630489
1.605180505
1.577791262
1.555352798
1.40000504
1.40000504
1.40000504
1.400005042
1.400005325
1.400026985
1.400820765
1.415141243
1.530073166
1.781858966
2.153370701
2.300172551
2.28832375
2.294931849
2.306078513
2.321327019
2.316945615
2.307196646
2.30026317
2.286217778
2.265586496
2.230660536
2.184517793
2.130938876
2.066344318
2.014629504
1.963962864
1.893428213
1.843290463
1.803605667
1.741647936
1.692396428
1.6644786
1.620266559
1.568472156
1.547005111
1.52348461
1.40000504
1.40000504
1.400005041
1.400005106
1.400011612
1.40030698
1.407044037
1.484412095
1.766740644
2.052650612
2.282855935
2.312955284
2.303523226
2.304174566
2.312212374
2.31994069
2.316265853
2.303846722
2.288749616
2.270658737
2.244619321
2.201339163
2.150625051
2.08995892
2.021967815
1.973965904
1.919452838
1.848849041
1.805805026
1.762504254
1.697341575
1.657633785
1.630342162
1.579728227
1.533323878
1.516084135
1.490301346
1.40000504
1.40000504
1.400005057
1.400007126
1.40012301
1.403204662
1.439967103
1.683111391
2.020532413
2.237254419
2.310092301
2.309321428
2.300381296
2.303197756
2.309276574
2.313561639
2.310824606
2.299666964
2.281011273
2.256004656
2.218974446
2.166929628
2.112944998
2.044563823
1.978655222
1.934092513
1.872810731
1.805113469
1.767946775
1.720036616
1.656513982
1.62433909
1.594633572
1.537292715
1.499203822
1.48493784
1.456104202
1.40000504
1.400005043
1.400005652
1.400053466
1.401702781
1.424157752
1.563855316
1.977325352
2.178392353
2.283904757
2.309456933
2.309527679
2.306122543
2.306480714
2.305983272
2.306425767
2.306191022
2.296203147
2.271237331
2.236239598
2.186845527
2.130106836
2.072848554
1.997313746
1.938070765
1.892668482
1.823086413
1.764945578
1.731215238
1.676387622
1.61689129
1.590050422
1.557007715
1.496842154
1.468012089
1.454603601
1.421458035
1.40000504
1.400005156
1.400021307
1.400795035
1.41686635
1.518027372
1.83546461
2.178568049
2.265485075
2.301666868
2.311998423
2.310907684
2.311701225
2.311975047
2.305889087
2.302644937
2.300561413
2.285810102
2.25316278
2.207979479
2.148902018
2.092228716
2.028779473
1.948494513
1.897985924
1.848138702
1.77387092
1.727096335
1.692346943
1.629988451
1.578942962
1.555644139
1.518319181
1.458949264
1.437447669
1.423337962
1.385712143
1.40000504
1.400008699
1.400312405
1.408742864
1.499858586
1.738307087
2.138754676
2.267875137
2.302125681
2.308670523
2.307536149
2.30896402
2.30763116
2.305813762
2.303410592
2.299380091
2.29070544
2.266773109
2.22686821
2.171943978
2.108174485
2.051494188
1.978109308
1.901126359
1.856988773
1.798532142
1.72510664
1.688878947
1.651332192
1.584131774
1.542375709
1.520342152
1.478164014
1.423180215
1.406896883
1.391488309
1.35091724
1.400005046
1.400086041
1.403850673
1.460855151
1.715513042
2.027307653
2.279499042
2.288317218
2.298793597
2.310414932
2.311282142
2.309767125
2.306168806
2.303340459
2.301122564
2.293639738
2.276136936
2.242679829
2.194960428
2.129641954
2.065720226
2.006216587
1.922802627
1.855130847
1.812402205
1.74486167
1.680082787
1.649539899
1.606350694
1.538044807
1.505826902
1.484488066
1.438161115
1.390054335
1.376378913
1.358938825
1.316905556
1.400005959
1.401304223
1.429386879
1.649071666
1.981008608
2.208744195
2.304317358
2.307832641
2.308879588
2.314481625
2.314554609
2.310253853
2.306013448
2.302081976
2.295216997
2.281742301
2.25467885
2.212665032
2.155840471
2.082702101
2.021224746
1.954569149
1.865727991
1.810358475
1.76518123
1.690231235
1.635991755
1.607843485
1.559389062
1.495621303
1.470106546
1.447892378
1.397968634
1.356980675
1.344298202
1.324391454
1.283153865
1.40007206
1.413906915
1.541208165
1.945622076
2.179606387
2.282471959
2.312337812
2.31455281
2.31372829
2.315909163
2.315394684
2.308553075
2.304345632
2.29930398
2.288311038
2.266180005
2.227456282
2.177461273
2.10990925
2.032586662
1.972895096
1.897804271
1.811866499
1.764558672
1.713817951
1.636825823
1.593590531
1.565810753
1.511957459
1.454516537
1.433376246
1.409999912
1.358810618
1.325692912
1.313785596
1.292163161
1.2526511
1.402243425
1.486362197
1.824252729
2.177408017
2.250614365
2.280406488
2.301558092
2.312052594
2.313951821
2.315384325
2.317042787
2.313476784
2.30568078
2.295066558
2.276834216
2.243440535
2.193990555
2.13613865
2.057471328
1.981141692
1.921352624
1.83786343
1.759104368
1.716814964
1.661407945
1.587529376
1.551349991
1.522219683
1.464857087
1.41540202
1.396560263
1.371325392
1.320770243
1.292657509
1.279866
1.255874786
1.218445014
1.433081089
1.706719402
2.139170971
2.253765876
2.28141894
2.298373665
2.307347323
2.313535983
2.31777422
2.319217083
2.31993996
2.315559135
2.305175007
2.287540617
2.259267565
2.212336154
2.153670994
2.087835421
2.000493917
1.927513014
1.865540831
1.777445373
1.708550486
1.667887119
1.607300021
1.539345447
1.508674578
1.478661586
1.419811819
1.377516412
1.359731686
1.332858692
1.284506251
1.261418281
1.248494136
1.222818772
1.187927441
1.594648788
2.051974185
2.281214207
2.294709039
2.307995177
2.312139935
2.31205308
2.314258118
2.317577242
2.318893369
2.319239045
2.314967992
2.299546945
2.273186702
2.232791159
2.171747536
2.106333602
2.032141784
1.939480154
1.871817279
1.80769238
1.717833945
1.65689455
1.616876416
1.554223431
1.49392068
1.465886534
1.434136663
1.375620771
1.338974516
1.321087018
1.292215167
1.246948582
1.226400757
1.213179464
1.186776586
1.155439502
1.938659301
2.275026096
2.299706122
2.290727215
2.296824718
2.305001612
2.307924788
2.311610014
2.316827251
2.31805025
2.31683137
2.308020706
2.28565748
2.249811435
2.196393476
2.122942269
2.052961595
1.97105979
1.877812705
1.814243389
1.746693743
1.658528487
1.605378072
1.565907406
1.50160781
1.447940283
1.422163629
1.389836094
1.334049653
1.302944055
1.285382154
1.255319881
1.213288613
1.194340382
1.180322891
1.152863294
1.124831403
2.22773672
2.328152722
2.326081664
2.306291866
2.297784529
2.302795219
2.309277063
2.314687149
2.317521735
2.317988415
2.313151554
2.296971309
2.264587572
2.217821729
2.150202267
2.067661004
1.995029819
1.905883497
1.814124869
1.754364615
1.68519508
1.601147592
1.553299751
1.513790223
1.450331452
1.402900869
1.377978802
1.344184389
1.291106158
1.262584538
1.24472047
1.21400965
1.175809039
1.159022838
1.145380811
1.118716197
1.094770301
2.278786654
2.31343011
2.315864539
2.309337438
2.304051153
2.306325312
2.31277681
2.318806715
2.31965224
2.316349976
2.305389883
2.279554812
2.234989537
2.176532525
2.095074357
2.007025771
1.931903666
1.83732068
1.750760546
1.69406882
1.622641021
1.543707507
1.501100223
1.46225352
1.399990926
1.357948839
1.334408048
1.300922215
1.252010177
1.226627227
1.208829888
1.177632185
1.143018331
1.127068136
1.112986862
1.086760464
1.065643526
2.321808879
2.319040832
2.312613997
2.30817191
2.30906849
2.313691136
2.319534597
2.321747633
2.319528253
2.311345523
2.291098939
2.252625075
2.195270204
2.125563044
2.03145153
1.941805317
1.865717614
1.768040671
1.686635919
1.632140089
1.560627881
1.488221503
1.449227456
1.410329054
1.350641169
1.312033744
1.288379199
1.254376729
1.208795583
1.185884166
1.169023693
1.138976717
1.108614114
1.0943023
1.08054944
1.055630059
1.037291112
2.324601132
2.321545563
2.316448723
2.312482085
2.313415239
2.316794091
2.320548146
2.32020076
2.315163348
2.29946794
2.26873087
2.216043096
2.145885183
2.06526286
1.961957423
1.873818108
1.796147897
1.696995142
1.622504257
1.570772885
1.499217004
1.433240816
1.398078981
1.360684549
1.304698923
1.269970924
1.246834948
1.212560006
1.17006398
1.14872615
1.131972396
1.102469701
1.075648805
1.062459294
1.048885464
1.025333786
1.00892256
2.311665208
2.315233337
2.316061761
2.316547818
2.317262564
2.318468613
2.31899771
2.31655785
2.30657675
2.282453076
2.23956593
2.169995251
2.088428967
1.997741763
1.887235585
1.801984385
1.724284023
1.626937299
1.558477909
1.508517048
1.438318508
1.378731293
1.345343389
1.307461204
1.253874043
1.221382517
1.199382943
1.166290355
1.127885571
1.109515826
1.094244878
1.066861194
1.044014148
1.032054026
1.018787895
0.9966025174
0.9817394737
2.31003173
2.311770692
2.3143163
2.315958609
2.317338847
2.317893584
2.316817773
2.311116535
2.294211307
2.259114359
2.200802431
2.11357118
2.022469392
1.922130614
1.809253417
1.728742249
1.650287719
1.554693366
1.492857622
1.445505453
1.377484931
1.325129708
1.295700552
1.26015293
1.21060763
1.180273895
1.158348227
1.125143304
1.089921367
1.072764442
1.057832525
1.031805998
1.011817746
1.000909916
0.9881006827
0.9674044041
0.953893329
2.314628955
2.314337499
2.314057959
2.314422938
2.315760636
2.315789257
2.313239475
2.303111537
2.276037799
2.225925964
2.148605376
2.04461892
1.94790804
1.840937646
1.728175412
1.65161939
1.573418089
1.483037684
1.427755324
1.382195113
1.316886583
1.268844484
1.24073946
1.206434094
1.160553732
1.133743148
1.113819011
1.082384769
1.051414556
1.036534849
1.022625297
0.9985073857
0.9812479491
0.9711764804
0.9587267881
0.9392775904
0.9269329559
2.315963232
2.31632003
2.315222755
2.314519319
2.314463214
2.313283141
2.307544163
2.289456479
2.246941189
2.178462709
2.08131551
1.965451351
1.865447448
1.752509386
1.644293877
1.5743977
1.497503982
1.413200695
1.364732795
1.32284838
1.261839604
1.218961701
1.192312631
1.158606874
1.115966063
1.091543519
1.072493988
1.042022034
1.014216322
1.00068404
0.9875985738
0.9653484978
0.9503061353
0.9411028339
0.9291638064
0.9111988021
0.9000100352
2.315057606
2.31556119
2.315056011
2.314572721
2.313626152
2.310185733
2.298414705
2.266810023
2.203314747
2.115552613
1.999228248
1.875577344
1.776113239
1.66246556
1.561788378
1.496904179
1.420852016
1.343198648
1.298088015
1.256933181
1.198941398
1.161024961
1.138091095
1.107505043
1.069760767
1.049268018
1.032255326
1.003830553
0.9795411086
0.9671525307
0.9546089894
0.9340367644
0.9209353902
0.91244727
0.9009673973
0.8842461573
0.8740953334
2.314234514
2.314080407
2.314221053
2.313943136
2.31222822
2.305065479
2.282786253
2.230866064
2.142726032
2.03616393
1.903874197
1.780539137
1.683629825
1.568719929
1.477189858
1.418818735
1.347770427
1.280119074
1.241162402
1.202656913
1.147987406
1.112901586
1.090568119
1.060227201
1.025717105
1.007388838
0.9915404183
0.9650629584
0.9438162934
0.9326977787
0.9209434282
0.9021184285
0.8907443534
0.8830459566
0.8721272259
0.8568950284
0.8478726018
2.314440808
2.31308663
2.312979082
2.312391107
2.308933198
2.294499707
2.255411824
2.176498015
2.06382357
1.942819916
1.799332336
1.679774898
1.586179544
1.475922149
1.395612744
1.340694733
1.271249591
1.208838282
1.17411164
1.138981614
1.089247735
1.060037998
1.040815233
1.012846924
0.983058924
0.9677143341
0.9533561934
0.9288795333
0.9102540951
0.9001148497
0.8889534199
0.8716963331
0.861924786
0.8549830899
0.8446898508
0.8307818485
0.8227902076
2.313882516
2.312631001
2.312107158
2.31043478
2.30234701
2.27405597
2.210573454
2.100364783
1.968108085
1.835789114
1.686567559
1.578346804
1.490073948
1.385883704
1.317184942
1.269009394
1.204111163
1.148596561
1.116733515
1.082607634
1.036890439
1.011132263
0.9931927169
0.9663346841
0.9398096973
0.9268062936
0.9141811428
0.8920998354
0.8761801654
0.8672291955
0.8568586167
0.8413261592
0.8329924
0.826809855
0.8170720926
0.8045718833
0.7976596538
2.312166256
2.311837085
2.311130524
2.307159569
2.289261903
2.238029653
2.143273411
2.00062022
1.856739405
1.718984493
1.572918265
1.476289817
1.389921138
1.290572285
1.228034207
1.184163277
1.124873949
1.079505078
1.054920451
1.025595314
0.9862627337
0.9651716697
0.9489224149
0.9230796156
0.8997834346
0.8889599896
0.8778473641
0.8580771659
0.8444584713
0.8364149501
0.8266070112
0.8125671775
0.8056210473
0.8001999867
0.791243117
0.780185391
0.7740102764
2.310561796
2.310661107
2.309412037
2.300064606
2.263256261
2.1792846
2.04904493
1.879637768
1.734310661
1.592998984
1.454772173
1.373183672
1.298734053
1.21312881
1.158629003
1.116351606
1.058668525
1.019390308
0.9977219491
0.9700259923
0.9350404311
0.9174523445
0.9031828867
0.8791237504
0.8593584604
0.8506572721
0.84104507
0.8234696004
0.8123885102
0.8055645017
0.7965630857
0.7842782247
0.7784472854
0.7736122983
0.7651536729
0.7553459865
0.7500920639
2.309839085
2.309783103
2.306072192
2.284149079
2.215131452
2.091614408
1.926439564
1.740935564
1.600993665
1.462827375
1.339732669
1.265077171
1.192394278
1.114501617
1.073047191
1.039287976
0.9885934326
0.9593870957
0.9427595905
0.9184840236
0.8890478153
0.8748304526
0.8619777934
0.8389059608
0.8220695786
0.8152611519
0.807085853
0.7920700279
0.7831593355
0.7770850043
0.7685040359
0.757328538
0.7527414066
0.7487231416
0.7412210066
0.7325854734
0.7276500137
2.309842794
2.309191674
2.298102413
2.250419828
2.134458974
1.970054103
1.77593354
1.591684222
1.463484724
1.336519914
1.234495839
1.172938364
1.104206425
1.035957959
1.002209698
0.971061805
0.9244110097
0.9008161706
0.8875542481
0.8660665091
0.8417407513
0.8310207383
0.819843248
0.7982630203
0.7849577876
0.7799432626
0.773013934
0.7599011161
0.7533736849
0.7484418446
0.7398523662
0.7298900751
0.7265768518
0.7233415721
0.7164179618
0.7089379918
0.7050138002
2.309941522
2.306203452
2.278166364
2.185475797
2.011995165
1.814212034
1.605170078
1.435547741
1.31542249
1.189539095
1.103664062
1.061320254
1.007150262
0.9570714074
0.9345646707
0.9080310098
0.8669998734
0.84954753
0.8384143569
0.8185764955
0.7993758031
0.792100887
0.7823139802
0.7617362341
0.7514653795
0.7476715531
0.7416071594
0.7305652088
0.7263627705
0.7223120119
0.7128827949
0.7038337023
0.7018497205
0.6992823224
0.6933991653
0.6873744973
0.6840600141
2.309795065
2.298038255
2.232610161
2.070842265
1.841374782
1.624450407
1.418535961
1.28370323
1.192494174
1.084684232
1.013608658
0.9720562066
0.9168029653
0.8800549841
0.865570145
0.8432540739
0.8089638756
0.7966613221
0.7878989695
0.7687427458
0.7556181724
0.7514328365
0.7431498948
0.7252030936
0.71722067
0.7143503469
0.7089609293
0.7000221353
0.69774266
0.6942060405
0.6852214027
0.6776323831
0.6759008234
0.6740195679
0.668438016
0.6644408422
0.6619780682
2.309015637
2.272812625
2.134746835
1.888388425
1.625692696
1.410605573
1.219169618
1.105117526
1.032456278
0.9486156099
0.9115034617
0.8840876067
0.8351721426
0.8150081506
0.8064521469
0.7873044892
0.759657669
0.7513633017
0.7438185193
0.7239067966
0.7163336563
0.7149272957
0.7086341116
0.6942830953
0.6870808131
0.6840142553
0.677758271
0.6707146331
0.6705187358
0.6682544662
0.6606505872
0.6536109
0.6512916015
0.6492317457
0.6433174572
0.642128836
0.6413841234
2.304506703
2.202034725
1.951228917
1.62920961
1.373691564
1.203178129
1.056102936
0.9738841249
0.9041417634
0.8369960697
0.8206443848
0.8001297832
0.7558521324
0.7489723465
0.7446428653
0.7290599122
0.7080541347
0.7036732272
0.6969632831
0.6794473008
0.6749523331
0.6747552091
0.6702605043
0.6593158352
0.6549221646
0.652159191
0.6448863438
0.6402777963
0.6408934797
0.6395008571
0.6337469491
0.6285564327
0.6265081694
0.6237699707
0.6192245943
0.6189756061
0.6187673675
2.277265414
2.024939891
1.659225232
1.297429651
1.079593149
0.9333714739
0.8602184265
0.8376873505
0.788306887
0.7522573133
0.748762644
0.7292252916
0.6930175229
0.6918853029
0.6906527333
0.6772250634
0.6646565264
0.6631255485
0.6565930356
0.6409567351
0.6373655352
0.6378848197
0.6349411548
0.628040732
0.6264378787
0.6234451895
0.6153200297
0.6120301943
0.6129368649
0.6125404585
0.609679345
0.6063199092
0.6038433983
0.5999022301
0.5971091169
0.597576318
0.597792992
2.15354194
1.630421217
1.227805254
1.03911488
0.9157414483
0.7607491827
0.7129504055
0.7030124511
0.6669810623
0.6577592587
0.6594764214
0.6459988278
0.6274469222
0.6263652179
0.6252826305
0.6132344061
0.6101276205
0.6113629381
0.6076685741
0.5984987016
0.5965272411
0.596940958
0.5939339051
0.5902998152
0.5913241874
0.5903182581
0.5854626377
0.5832193098
0.5836427883
0.5833823863
0.5810433028
0.5797860219
0.5790023091
0.5766509839
0.574890208
0.575193295
0.5756466854
1.612719201
1.018591754
0.7405453131
0.7407017628
0.734782161
0.6768125756
0.6334677552
0.6152154477
0.5886385273
0.5854645083
0.5869193519
0.5773966142
0.5720172577
0.5743167212
0.5744013561
0.5689688407
0.5692383214
0.5720386254
0.5705078893
0.5662411651
0.5661986911
0.5668971754
0.564968276
0.5641474849
0.565264838
0.5648664077
0.5621616809
0.5614848443
0.5619761242
0.5617411578
0.5600540915
0.5601100272
0.5600168494
0.5589252036
0.5582447846
0.5586438284
0.5592138577
0.5651541534
0.5901956369
0.5704100174
0.6202205474
0.670055146
0.6392454614
0.6021969453
0.58080587
0.5594987366
0.5589237442
0.5602501727
0.5524503554
0.5521085803
0.5552815133
0.5555901259
0.552957121
0.5536254505
0.5580195465
0.556871676
0.5545403986
0.5549076811
0.5556389917
0.5541874893
0.5543240296
0.5556364618
0.5557607104
0.5536448603
0.5534899528
0.5538718393
0.5536925813
0.552724273
0.5527939889
0.5531377878
0.552375529
0.5520470961
0.5522934383
0.4609462723
0.4767465451
0.5183449843
0.5868845012
0.646598612
0.6200034689
0.5888126327
0.5706180736
0.5535336925
0.5539117657
0.554485501
0.5476177188
0.5481934096
0.551547843
0.5523383722
0.5498656754
0.5518359364
0.5556294201
0.5545222239
0.55254582
0.5529568618
0.5540160373
0.5527463317
0.5529902106
0.554458963
0.5540398917
0.5520909582
0.5521736927
0.5528589162
0.552527209
0.5514028725
0.5519045269
0.5520754051
0.5512830028
0.5511601502
0.5516297804
0.4574009233
0.4677125705
0.5044762451
0.5610154898
0.6234238391
0.6020069292
0.5803910989
0.5631187693
0.5485334385
0.5475605706
0.5482458111
0.5432181617
0.5452722746
0.5486095487
0.5486755198
0.5475109413
0.5490874519
0.5530126496
0.5520370607
0.550462918
0.5510857042
0.5521374787
0.5510849157
0.5512766565
0.5526154139
0.5523138258
0.5508711497
0.5509033118
0.5512767346
0.5511994229
0.5503293419
0.5510449764
0.5509127918
0.5504152597
0.5501737327
0.5507768547
0.4622980914
0.4704484581
0.4917935349
0.5551925994
0.6193937795
0.592801008
0.5740571003
0.5575191418
0.5469152788
0.5464738846
0.5444732316
0.5411828836
0.5432847057
0.5470166149
0.5472248569
0.5457822959
0.5486557118
0.552324375
0.5508600811
0.549474854
0.5504024848
0.5512642132
0.5504385961
0.5510853216
0.552174494
0.5515790618
0.5501628848
0.5502307608
0.5510300673
0.5507231291
0.5498596162
0.5504749813
0.5504920197
0.5499058837
0.5500487634
0.5506082834
0.4686930324
0.4766533938
0.4810921007
0.5502118886
0.6151242191
0.5877181496
0.5692826355
0.5554734299
0.5472490432
0.5457220098
0.5431268669
0.5412930731
0.5429422448
0.5458691573
0.5460278494
0.5457342873
0.5487795972
0.5516040306
0.5498444098
0.5493688483
0.5502269066
0.5506861553
0.5500692625
0.5509841287
0.551963376
0.5510198411
0.5499049615
0.5502322375
0.5509510525
0.5503524802
0.5498572227
0.5504491708
0.5504601027
0.5499132655
0.5501481766
0.5505783533
0.4688168591
0.476696498
0.4814539788
0.5523038075
0.6110512324
0.5866348399
0.5694275138
0.5555812823
0.5479077006
0.5453095223
0.5425264307
0.5415066566
0.5432968724
0.5462453592
0.5462006608
0.5461005144
0.5493402419
0.5519184514
0.5500040462
0.5497151838
0.550542792
0.550829968
0.5502797493
0.5512583521
0.5522925462
0.551217723
0.5502412432
0.5506456038
0.5514202292
0.5506661204
0.550287937
0.5508123324
0.5508388695
0.5503782432
0.5507028715
0.5510654513
0.467922006
0.4758133059
0.483893992
0.554935388
0.6071052478
0.5862404968
0.5712150947
0.5566750498
0.5487964144
0.5449584715
0.5415176073
0.5416965003
0.544194481
0.5472185232
0.5463934349
0.5465107091
0.5498432002
0.5520400453
0.5503149932
0.550047544
0.550887174
0.5513492195
0.5507201989
0.5517885068
0.5526721601
0.5515963883
0.5506909254
0.5512026409
0.5519086754
0.5511877991
0.550764314
0.5513244987
0.551248117
0.5507444968
0.5510835083
0.5514047528
0.4644936517
0.474653012
0.4898165551
0.556230665
0.6057188846
0.5854197503
0.5718661691
0.5591029302
0.5499909595
0.5445115826
0.5415745529
0.54207574
0.5452713896
0.5478981167
0.5463962431
0.5468598994
0.5501349902
0.5519434089
0.5503586577
0.5504178649
0.5513421924
0.5516000267
0.5510959493
0.5522370149
0.5529921732
0.5517718717
0.5510648911
0.5515045452
0.5520279965
0.5514527711
0.5512773637
0.5519400344
0.5516874962
0.5511363731
0.5513908226
0.5519294245
0.4616227878
0.4716724713
0.4962597369
0.5564510756
0.6046300682
0.584563877
0.5721009478
0.5619619141
0.5510798128
0.5434272617
0.5413155319
0.5423320374
0.5455598196
0.5480573897
0.5463581084
0.5472989604
0.5504548616
0.552190297
0.5506539861
0.5508356991
0.5517425991
0.5517669857
0.5514741151
0.5526027372
0.5530725235
0.5518009557
0.5512648221
0.5517034302
0.5521808645
0.5516070032
0.551559437
0.5520964269
0.5519066055
0.5516046792
0.5517735103
0.5564427299
0.461044797
0.4719428472
0.497918309
0.5563150252
0.6049603217
0.5838345821
0.5729789973
0.5624808242
0.5509765773
0.5436175462
0.5417635617
0.5426611237
0.545827178
0.5480903768
0.5465879643
0.5479250324
0.5511954946
0.552317388
0.5507804656
0.5511861885
0.5520301699
0.5518971131
0.5518803475
0.5529784739
0.5532500355
0.5519501438
0.5515349778
0.5520985423
0.5525284235
0.5518026188
0.5518294094
0.5522258797
0.5520245037
0.5520142132
0.5519554583
0.4639367302
0.4714307116
0.4984472354
0.5580454348
0.6032419454
0.5825214655
0.5730761976
0.5627281797
0.5504195656
0.5438062878
0.5419236222
0.5430535263
0.5461766175
0.5482682986
0.5468790403
0.5485760837
0.5516833134
0.5524073783
0.551091213
0.5515549457
0.5525231529
0.5522523025
0.5523318067
0.5535069752
0.5536361019
0.5522664152
0.5520434324
0.5528199283
0.5530663527
0.5522738783
0.5523715012
0.5525368151
0.5522176085
0.5523042223
0.5533908066
0.4758614808
0.4715492701
0.4994221005
0.5648632567
0.6004271518
0.5820202114
0.5737990287
0.5625922532
0.5495103442
0.5441107764
0.5424833267
0.5436915245
0.5467363792
0.5483525939
0.5471511285
0.5492454226
0.5523561404
0.5524138725
0.5514048245
0.5520269797
0.5529501193
0.5525165808
0.5528682552
0.5538984895
0.5538359248
0.5528066191
0.5526390583
0.5531696393
0.5533261234
0.5526518052
0.5529786262
0.5531203576
0.5527330097
0.5524031447
0.5562906433
0.4858777896
0.4744515315
0.5011337931
0.5690812362
0.5974096748
0.5821483604
0.5755058644
0.5626419551
0.548855232
0.5444647616
0.5428727525
0.544574577
0.5473714949
0.5484268326
0.5474240553
0.5497524209
0.5525694153
0.5522136248
0.5515070605
0.5522779976
0.5530295649
0.5527938201
0.5532185909
0.5539595064
0.5538174782
0.5530169901
0.5527912028
0.5532144362
0.5533961556
0.5527473702
0.5531039931
0.5532960984
0.5531670438
0.5529307266
0.5946626538
0.4858362622
0.4812712658
0.5034497204
0.5697811686
0.594154883
0.582037046
0.5777058419
0.5625109269
0.548735468
0.5447860383
0.5432609735
0.5454587409
0.5477376182
0.5484724257
0.5476608903
0.5501343352
0.5529103505
0.552259846
0.5516332786
0.5524599334
0.5532357339
0.5530434521
0.55336498
0.55404644
0.5539217608
0.5530527067
0.5529028318
0.5532821311
0.553352368
0.5527932851
0.5531075838
0.5532653969
0.5531991353
0.5537153327
0.7590342371
0.4842420065
0.4858261835
0.5057823033
0.5705960591
0.5911053289
0.5822723321
0.578549024
0.5623527357
0.5486895366
0.5448365062
0.5435982984
0.5460372972
0.5480707301
0.5485201342
0.5478675016
0.5504185137
0.5529938009
0.5522195969
0.5518912563
0.5527746425
0.553665467
0.5533783726
0.553583078
0.5543177754
0.55403577
0.5531000687
0.5531129006
0.5536645265
0.5535444275
0.5529498902
0.5532403769
0.5533383886
0.5532149375
0.5574827486
0.9048912316
0.4820687872
0.4879461617
0.5078426399
0.5707296968
0.5904709912
0.5847905633
0.578668182
0.5628018758
0.5486844334
0.5447761544
0.5437799888
0.5462293766
0.5481624746
0.5485586731
0.548043783
0.5506079014
0.5531435824
0.5523924036
0.5522255068
0.553313247
0.5539016041
0.5535939362
0.5539950493
0.554749686
0.5541697752
0.5532873581
0.5535118007
0.554321663
0.55399515
0.5533603856
0.5536032963
0.5536233301
0.5536983302
0.6191289772
1.067058425
0.4780935126
0.4893932449
0.5093147689
0.566394957
0.5903766012
0.5859950188
0.5784841056
0.5626159105
0.5488240135
0.5452644563
0.5440708118
0.5463865814
0.5483077251
0.5486207976
0.5482443813
0.5508960584
0.5532221949
0.5523802914
0.5524868046
0.5534272162
0.5539049207
0.554013474
0.5548254699
0.555188977
0.5542602899
0.5534245475
0.5538123866
0.5544709879
0.5542135346
0.5538894911
0.5542039103
0.5541117011
0.5540862649
0.7537193046
1.195626284
0.4724676453
0.4904183924
0.5111094487
0.5623029321
0.590065082
0.5855965555
0.5774446085
0.5613699472
0.5488567564
0.545567527
0.5444204419
0.5465972588
0.5483537612
0.5486275181
0.5485236733
0.5512255857
0.553210209
0.5526279257
0.5528723224
0.5533857009
0.5537072116
0.5542481207
0.5552841188
0.5554406324
0.5546068689
0.5537549561
0.5541090308
0.554618556
0.5543060718
0.5540299795
0.5544132418
0.5543749788
0.5632814012
0.9410850601
0.4718792417
0.4909110116
0.5144190472
0.5629009168
0.5898478403
0.5853113134
0.5764757639
0.5606196504
0.548806422
0.5455996133
0.5449024725
0.5470668754
0.5486308488
0.548391849
0.548871586
0.551268304
0.5532138638
0.5528608203
0.5532010686
0.5535545143
0.5535476598
0.5541563318
0.5553529453
0.5556702877
0.5546960362
0.5538913605
0.554245376
0.5547394345
0.5543208087
0.5541282605
0.554468601
0.5544119227
0.628119807
1.111970705
0.4745148264
0.4909758579
0.5190715291
0.5642138067
0.5893723512
0.5860110493
0.5761952223
0.5602605562
0.5490899675
0.5459605414
0.5454935696
0.5477247126
0.5488149983
0.5484135719
0.5491878811
0.5512261764
0.5530807418
0.5533100839
0.5535972783
0.553745998
0.5537365039
0.5543170149
0.5555307056
0.5557397274
0.5546545726
0.553964798
0.554446232
0.5550945583
0.5544726219
0.5542438536
0.5545249461
0.556401123
0.806693296
1.166976378
0.486608026
0.4888732892
0.5204770969
0.5659553671
0.5884978998
0.5871183139
0.5762383997
0.5599656465
0.5498257102
0.5461529946
0.5458716039
0.5480643482
0.5491800773
0.5485919214
0.5494408044
0.5514008842
0.5531047674
0.5539022244
0.5540718197
0.5539154361
0.5538411975
0.5545537666
0.555799349
0.5559685474
0.5547914687
0.5541712954
0.5549170467
0.5555233663
0.5548456164
0.5545754065
0.5546189354
0.5674323816
0.986846448
1.195859271
0.495670077
0.4877976025
0.5212007898
0.5670434257
0.5882325124
0.5869266741
0.5757335789
0.5595524611
0.5503759709
0.5463407961
0.5461803136
0.5483311203
0.5494183465
0.5488459345
0.5496028851
0.551460198
0.5534338774
0.5540411787
0.5544605093
0.5541345731
0.5541825947
0.5549434827
0.5562607053
0.5560013096
0.555111963
0.5546409446
0.5553137913
0.5557519269
0.5553440799
0.5551461369
0.5555867526
0.6495974312
1.050345744
1.249019956
0.4960950702
0.4882994096
0.5201779807
0.5672740302
0.5877254055
0.586305296
0.5753377944
0.5593071342
0.5507367987
0.5464134282
0.5465749519
0.5486854637
0.549747811
0.5492155057
0.5499799538
0.5517589291
0.553616736
0.5541945411
0.5546435746
0.5545333732
0.5546112987
0.5554221218
0.5565048098
0.5562135445
0.5553786752
0.5550088785
0.5554349123
)
;

boundaryField
{
    inlet
    {
        type            calculated;
        value           nonuniform 0();
    }
    outlet
    {
        type            calculated;
        value           nonuniform 0();
    }
    bottom
    {
        type            calculated;
        value           nonuniform 0();
    }
    top
    {
        type            calculated;
        value           nonuniform 0();
    }
    obstacle
    {
        type            calculated;
        value           nonuniform List<scalar> 
23
(
0.5651541534
0.4609462723
0.4574009233
0.4622980914
0.4686930324
0.4688168591
0.467922006
0.4644936517
0.4616227878
0.461044797
0.4639367302
0.4758614808
0.4858777896
0.4858362622
0.4842420065
0.4820687872
0.4780935126
0.4724676453
0.4718792417
0.4745148264
0.486608026
0.495670077
0.4960950702
)
;
    }
    defaultFaces
    {
        type            empty;
    }
    procBoundary9to3
    {
        type            processor;
        value           nonuniform List<scalar> 
38
(
2.278912212
2.252003018
2.217365273
2.170356133
2.123483542
2.070269861
2.003296398
1.954113752
1.909662224
1.846783039
1.799571918
1.769561048
1.722544833
1.674236686
1.647366703
1.40000504
1.40000504
1.40000504
1.40000504
1.40000504
1.400005041
1.400005082
1.400009072
1.400155768
1.404121491
1.444704725
1.680521091
2.052488817
2.23828737
2.31475818
2.320710884
2.318026592
2.315004025
2.309930518
2.306162118
2.304693835
2.294237306
2.294237306
)
;
    }
    procBoundary9to4
    {
        type            processor;
        value           nonuniform List<scalar> 9(1.581350693 1.545656195 1.50902641 1.472739836 1.437326486 1.404790165 1.373960297 1.344920344 1.316505071);
    }
    procBoundary9to8
    {
        type            processor;