/*--------------------------------*- C++ -*----------------------------------*\
  =========                 |
  \\      /  F ield         | OpenFOAM: The Open Source CFD Toolbox
   \\    /   O peration     | Website:  https://openfoam.org
    \\  /    A nd           | Version:  7
     \\/     M anipulation  |
\*---------------------------------------------------------------------------*/
FoamFile
{
    version     2.0;
    format      ascii;
    class       volVectorField;
    location    "2";
    object      U;
}
// * * * * * * * * * * * * * * * * * * * * * * * * * * * * * * * * * * * * * //

dimensions      [0 1 -1 0 0 0 0];

internalField   nonuniform List<vector> 
2222
(
(3 9.868693107e-15 0)
(3 9.08452577e-15 0)
(3 6.61712839e-15 0)
(3 9.316199786e-16 0)
(3 4.33988991e-15 0)
(3 3.594920576e-15 0)
(3 2.866654982e-15 0)
(3 7.274138733e-15 0)
(3 6.372086549e-15 0)
(3 -1.389820013e-15 0)
(3 -1.716736117e-15 0)
(3 3.278964977e-15 0)
(3 2.496020738e-15 0)
(3 -1.828713277e-16 0)
(3 2.936494436e-16 0)
(3 2.02400238e-15 0)
(3 7.916944125e-16 0)
(3 -2.561041375e-15 0)
(3 -3.432226915e-15 0)
(3 -2.472637541e-15 0)
(3 1.920755918e-15 0)
(3 7.113889698e-15 0)
(3 5.677730762e-15 0)
(3 3.551460131e-15 0)
(3 1.965294647e-15 0)
(3 -8.460770407e-16 0)
(3 8.719658837e-16 0)
(3 5.402743822e-15 0)
(3 7.928130534e-15 0)
(3 6.038863442e-15 0)
(3 6.297610524e-15 0)
(3 -1.166650178e-14 0)
(3 8.838972911e-15 0)
(3 3.74665877e-15 0)
(3 4.245455426e-15 0)
(3 1.359841288e-15 0)
(3 6.017874371e-15 0)
(3 8.793450049e-15 0)
(3 7.096214442e-15 0)
(3 1.538737172e-14 0)
(3 9.723618569e-15 0)
(3 -1.387668895e-15 0)
(3 2.442337597e-15 0)
(3 1.031001221e-14 0)
(3 5.189051043e-15 0)
(3 4.479649433e-16 0)
(3 3.156504668e-15 0)
(3 7.548785399e-15 0)
(3 2.795535412e-15 0)
(3 -2.736167049e-15 0)
(3 -3.093554872e-15 0)
(3 -7.537432697e-16 0)
(3 5.806007126e-15 0)
(3 1.345371437e-14 0)
(3 6.857622921e-15 0)
(3 1.193277299e-15 0)
(3 -1.00016032e-15 0)
(3 -2.51432896e-15 0)
(3 3.49512941e-15 0)
(3 1.113709801e-14 0)
(3 1.602920337e-14 0)
(3 1.453990145e-14 0)
(3 -2.018588443e-14 0)
(3 -3.819067574e-12 0)
(3 2.014997796e-14 0)
(3 6.416817862e-15 0)
(3 3.835080536e-15 0)
(3 1.542580879e-16 0)
(3 -3.377638812e-16 0)
(3 5.386664684e-15 0)
(3 4.728805841e-15 0)
(3 8.10940351e-15 0)
(3 5.260918803e-15 0)
(3 -3.757200211e-15 0)
(3 5.952740204e-16 0)
(3 4.977365923e-15 0)
(3 7.789937865e-15 0)
(3 4.853602961e-15 0)
(3 2.897757066e-15 0)
(3 2.749750359e-15 0)
(3 -1.776047491e-15 0)
(3 -2.627701431e-15 0)
(3 1.434653827e-17 0)
(3 -1.06493696e-15 0)
(3 6.901182738e-15 0)
(3 1.888959052e-14 0)
(3 6.954240105e-15 0)
(3 2.066333748e-16 0)
(3 -4.195857294e-15 0)
(3 -5.868654579e-15 0)
(3 -1.756157905e-15 0)
(3 1.646017984e-14 0)
(3 2.141765515e-14 0)
(3 -1.994679011e-14 0)
(3 -3.483413391e-12 0)
(3 -2.241465691e-10 0)
(3 2.493587662e-14 0)
(3 1.161354838e-14 0)
(3 3.842566132e-15 0)
(3 -2.372038653e-16 0)
(3 1.681374366e-15 0)
(3 7.416705456e-16 0)
(3 1.376639525e-15 0)
(3 -4.594401812e-16 0)
(3 -8.364650764e-15 0)
(3 -8.923437819e-15 0)
(3 -2.546727066e-15 0)
(3 1.601137629e-15 0)
(3 9.226930474e-15 0)
(3 8.458460519e-15 0)
(3 4.215880731e-15 0)
(3 1.378762464e-17 0)
(3 -1.947171368e-15 0)
(3 3.321522318e-17 0)
(3 2.050637988e-15 0)
(3 9.201457644e-16 0)
(3 6.163948395e-15 0)
(3 1.775238938e-14 0)
(3 1.161717589e-14 0)
(3 -1.48824589e-15 0)
(3 -3.111678421e-15 0)
(3 -3.811221362e-15 0)
(3 2.040653047e-15 0)
(3 1.696486662e-14 0)
(3 2.611273917e-15 0)
(3 -4.112840306e-12 0)
(3 -1.928273076e-10 0)
(2.999999996 -1.149238125e-08 0)
(3 2.537878579e-14 0)
(3 1.446658274e-14 0)
(3 4.992943596e-15 0)
(3 3.372697061e-16 0)
(3 4.378726929e-15 0)
(3 5.723735067e-15 0)
(3 1.230239379e-15 0)
(3 -4.213032147e-15 0)
(3 -6.096077835e-15 0)
(3 -5.528788213e-15 0)
(3 -3.32740247e-15 0)
(3 3.05085325e-15 0)
(3 1.241011877e-14 0)
(3 1.179910716e-14 0)
(3 9.762156381e-15 0)
(3 6.587079785e-15 0)
(3 3.019052775e-15 0)
(3 4.728669339e-15 0)
(3 1.65358944e-15 0)
(3 -1.896099115e-15 0)
(3 5.917389374e-15 0)
(3 1.633439938e-14 0)
(3 1.362414324e-14 0)
(3 5.992221717e-15 0)
(3 5.83735817e-15 0)
(3 5.643402136e-15 0)
(3 1.180437352e-14 0)
(3 -1.64625817e-14 0)
(3 -3.44184435e-12 0)
(3 -2.327827868e-10 0)
(2.999999996 -1.024071218e-08 0)
(2.999999883 -2.971142161e-07 0)
(3 2.802221485e-14 0)
(3 1.430865189e-14 0)
(3 5.760154208e-15 0)
(3 5.912333296e-16 0)
(3 6.746082013e-16 0)
(3 6.675067081e-16 0)
(3 -3.710333144e-15 0)
(3 -1.951581833e-15 0)
(3 -4.525046035e-15 0)
(3 -5.400697628e-15 0)
(3 -4.401913724e-15 0)
(3 4.335915739e-15 0)
(3 1.639124557e-14 0)
(3 1.755123096e-14 0)
(3 1.208759451e-14 0)
(3 2.577378797e-15 0)
(3 -4.728280679e-15 0)
(3 -5.952295525e-15 0)
(3 -8.418087788e-15 0)
(3 -7.184676485e-15 0)
(3 5.161575602e-15 0)
(3 2.241392169e-14 0)
(3 1.477727372e-14 0)
(3 2.100769486e-14 0)
(3 1.970523792e-14 0)
(3 1.591803e-14 0)
(3 -1.367966541e-14 0)
(3 -4.288634688e-12 0)
(3 -1.936334035e-10 0)
(2.999999995 -1.235293108e-08 0)
(2.999999892 -2.822605176e-07 0)
(2.999997445 -6.46237231e-06 0)
(3 2.891237697e-14 0)
(3 2.38871615e-14 0)
(3 1.131597458e-14 0)
(3 5.530963982e-15 0)
(3 -1.56537293e-15 0)
(3 -4.104079504e-15 0)
(3 -3.803962505e-15 0)
(3 3.355350431e-17 0)
(3 1.035050993e-16 0)
(3 -1.813177471e-15 0)
(3 -3.228710788e-15 0)
(3 1.384577938e-15 0)
(3 6.620000038e-15 0)
(3 1.157711892e-14 0)
(3 4.732469953e-15 0)
(3 -2.720177011e-15 0)
(3 -6.612575038e-15 0)
(3 -5.948359471e-15 0)
(3 -3.796082805e-15 0)
(3 -1.30250906e-15 0)
(3 4.214313146e-15 0)
(3 2.164873568e-14 0)
(3 1.865993535e-14 0)
(3 1.585142527e-14 0)
(3 7.925329921e-15 0)
(3 -2.847454106e-14 0)
(3 -3.491054208e-12 0)
(3 -2.403207701e-10 0)
(2.999999996 -1.062239062e-08 0)
(2.999999877 -3.153433551e-07 0)
(2.999997355 -6.974184492e-06 0)
(2.99996623 -8.555152772e-05 0)
(3 3.504549618e-14 0)
(3 3.426031044e-14 0)
(3 2.270195239e-14 0)
(3 7.331729462e-15 0)
(3 -6.800136664e-15 0)
(3 -7.514163905e-15 0)
(3 -7.687091885e-15 0)
(3 -1.679585603e-15 0)
(3 -4.256924102e-16 0)
(3 1.435464609e-15 0)
(3 3.16239422e-15 0)
(3 3.829509348e-15 0)
(3 3.098200011e-15 0)
(3 5.574619606e-15 0)
(3 -3.164128433e-15 0)
(3 -1.181783771e-14 0)
(3 -1.08985101e-14 0)
(3 -9.761456295e-15 0)
(3 -6.630906282e-15 0)
(3 -1.673447781e-16 0)
(3 8.121661527e-15 0)
(3 1.778951574e-14 0)
(3 1.192223077e-14 0)
(3 -2.400299683e-15 0)
(3 -4.066128729e-14 0)
(3 -4.436129641e-12 0)
(3 -1.977106212e-10 0)
(2.999999995 -1.304701437e-08 0)
(2.99999989 -2.856590789e-07 0)
(2.999997205 -7.13377071e-06 0)
(2.999962031 -0.0001002869359 0)
(2.999666426 -0.0008590797838 0)
(3 3.344077875e-14 0)
(3 3.472365673e-14 0)
(3 2.505564703e-14 0)
(3 9.501793989e-15 0)
(3 -7.890389712e-15 0)
(3 -1.436369088e-14 0)
(3 -2.228309185e-14 0)
(3 -1.501387895e-14 0)
(3 -7.064169751e-15 0)
(3 5.34789712e-16 0)
(3 8.622497272e-15 0)
(3 6.656853666e-15 0)
(3 1.209844282e-15 0)
(3 1.716548694e-15 0)
(3 -3.334825024e-15 0)
(3 -1.475611156e-14 0)
(3 -1.448409386e-14 0)
(3 -1.515150809e-14 0)
(3 -1.573268746e-14 0)
(3 -5.109167591e-15 0)
(3 5.738614291e-15 0)
(3 1.650525565e-14 0)
(3 6.65150797e-15 0)
(3 -3.810875184e-14 0)
(3 -3.702748483e-12 0)
(3 -2.503963829e-10 0)
(2.999999996 -1.113117872e-08 0)
(2.999999873 -3.294939682e-07 0)
(2.999997279 -7.204046472e-06 0)
(2.999964151 -9.034963914e-05 0)
(2.999590658 -0.001066857601 0)
(2.997772711 -0.005901970098 0)
(3 2.838398566e-14 0)
(3 3.122964112e-14 0)
(3 2.332475632e-14 0)
(3 7.049614717e-15 0)
(3 -5.456638129e-15 0)
(3 -1.619449149e-14 0)
(3 -2.465057915e-14 0)
(3 -1.915394711e-14 0)
(3 -9.45467218e-15 0)
(3 -3.026092866e-15 0)
(3 2.086392997e-15 0)
(3 5.737147894e-15 0)
(3 3.242274934e-15 0)
(3 2.391077741e-15 0)
(3 -3.586255136e-15 0)
(3 -8.738861347e-15 0)
(3 -1.658994525e-14 0)
(3 -1.841181629e-14 0)
(3 -1.992698104e-14 0)
(3 -8.102801284e-15 0)
(3 1.275401475e-14 0)
(3 1.264038199e-14 0)
(3 -3.711819968e-14 0)
(3 -4.715942467e-12 0)
(3 -2.093138389e-10 0)
(2.999999995 -1.382703749e-08 0)
(2.999999889 -2.919553098e-07 0)
(2.999996991 -7.789596654e-06 0)
(2.999962571 -9.916462173e-05 0)
(2.999641231 -0.0009154184048 0)
(2.997083534 -0.007310284852 0)
(2.990561424 -0.02567364079 0)
(3 2.142483091e-14 0)
(3 2.125466831e-14 0)
(3 2.159193916e-14 0)
(3 1.364400537e-14 0)
(3 6.350777103e-15 0)
(3 -1.700537523e-14 0)
(3 -2.230310725e-14 0)
(3 -1.908954849e-14 0)
(3 -1.416017411e-14 0)
(3 -4.14899311e-15 0)
(3 -1.891838047e-15 0)
(3 2.918261568e-15 0)
(3 4.780856687e-15 0)
(3 1.092474552e-15 0)
(3 -5.184772504e-15 0)
(3 -1.420515303e-14 0)
(3 -1.808747689e-14 0)
(3 -1.792397671e-14 0)
(3 -1.206327096e-14 0)
(3 -4.469318004e-15 0)
(3 1.543224119e-14 0)
(3 -3.665003268e-14 0)
(3 -4.005053824e-12 0)
(3 -2.655313664e-10 0)
(2.999999996 -1.173018007e-08 0)
(2.999999869 -3.420750455e-07 0)
(2.999997169 -7.556865906e-06 0)
(2.999962785 -9.391919156e-05 0)
(2.999586609 -0.001091501243 0)
(2.997694332 -0.006029968008 0)
(2.986584489 -0.03152933795 0)
(2.973335889 -0.07638940895 0)
(3 1.683280812e-14 0)
(3 1.709121168e-14 0)
(3 1.928767631e-14 0)
(3 1.322927398e-14 0)
(3 5.18994313e-15 0)
(3 -8.103673578e-15 0)
(3 -2.106322055e-14 0)
(3 -1.69584807e-14 0)
(3 -1.260638299e-14 0)
(3 -2.918049563e-15 0)
(3 -2.941789754e-16 0)
(3 -9.928640665e-16 0)
(3 5.649204483e-16 0)
(3 -6.960971217e-16 0)
(3 -8.72579095e-15 0)
(3 -1.84341394e-14 0)
(3 -1.673310055e-14 0)
(3 -9.501103003e-15 0)
(3 5.173559943e-15 0)
(3 8.289950651e-15 0)
(3 -4.518933282e-14 0)
(3 -4.9876476e-12 0)
(3 -2.226917841e-10 0)
(2.999999995 -1.438894666e-08 0)
(2.999999887 -2.98311966e-07 0)
(2.99999679 -8.414188201e-06 0)
(2.999963226 -9.765932092e-05 0)
(2.999614589 -0.0009828736903 0)
(2.997142803 -0.00725322821 0)
(2.990198214 -0.02633904776 0)
(2.961433606 -0.09227850351 0)
(2.954352676 -0.1355901078 0)
(3 1.794836938e-14 0)
(3 1.935669509e-14 0)
(3 1.029648105e-14 0)
(3 1.181710188e-14 0)
(3 1.193021079e-15 0)
(3 -3.607077812e-15 0)
(3 -1.008007067e-14 0)
(3 -1.343569431e-14 0)
(3 -9.135608429e-15 0)
(3 -5.47598076e-15 0)
(3 -4.124299128e-15 0)
(3 -3.153794971e-15 0)
(3 1.865608083e-15 0)
(3 2.574289024e-15 0)
(3 -9.30127237e-15 0)
(3 -1.82947894e-14 0)
(3 -1.448820789e-14 0)
(3 3.842512296e-15 0)
(3 1.391140241e-14 0)
(3 -3.028123219e-14 0)
(3 -4.27813044e-12 0)
(3 -2.804488003e-10 0)
(2.999999995 -1.205345063e-08 0)
(2.999999865 -3.526595003e-07 0)
(2.999997086 -7.812490307e-06 0)
(2.999961877 -9.675190034e-05 0)
(2.999580155 -0.001121109946 0)
(2.997641674 -0.006110610938 0)
(2.986554873 -0.0318631449 0)
(2.972643485 -0.07762131692 0)
(2.93602876 -0.1710661724 0)
(2.927091587 -0.1810030501 0)
(3 2.040038496e-14 0)
(3 1.949618526e-14 0)
(3 1.160509514e-14 0)
(3 9.476208063e-15 0)
(3 6.02853298e-15 0)
(3 1.303134795e-15 0)
(3 -4.829899979e-16 0)
(3 -2.511555024e-15 0)
(3 -5.969565011e-15 0)
(3 -6.90484436e-15 0)
(3 -6.849849557e-15 0)
(3 -5.653603992e-15 0)
(3 2.060175076e-16 0)
(3 -2.514945449e-15 0)
(3 -1.327632688e-14 0)
(3 -1.534480099e-14 0)
(3 -5.712001911e-15 0)
(3 4.929652581e-15 0)
(3 -6.010764272e-14 0)
(3 -5.217593283e-12 0)
(3 -2.373921867e-10 0)
(2.999999994 -1.471872837e-08 0)
(2.999999883 -3.064662698e-07 0)
(2.99999664 -8.891230509e-06 0)
(2.999964024 -9.571085743e-05 0)
(2.999587409 -0.001058663318 0)
(2.997233273 -0.007121821864 0)
(2.989795145 -0.02710630003 0)
(2.960940679 -0.09243287295 0)
(2.953483452 -0.1381364728 0)
(2.913314757 -0.236590937 0)
(2.8981382 -0.2360937443 0)
(3 2.04064969e-14 0)
(3 1.724914005e-14 0)
(3 1.472470583e-14 0)
(3 1.56802005e-14 0)
(3 1.259318914e-14 0)
(3 4.64231485e-15 0)
(3 2.709172385e-15 0)
(3 2.008158896e-15 0)
(3 -7.015011879e-16 0)
(3 -3.770146504e-15 0)
(3 -6.309729911e-15 0)
(3 -7.560486569e-15 0)
(3 -4.168897675e-15 0)
(3 -7.65775762e-15 0)
(3 -1.367680154e-14 0)
(3 -9.676178439e-15 0)
(3 -1.062132444e-15 0)
(3 -6.545183301e-14 0)
(3 -4.700258946e-12 0)
(3 -3.011160485e-10 0)
(2.999999995 -1.235281038e-08 0)
(2.999999858 -3.694433914e-07 0)
(2.999997011 -8.043378193e-06 0)
(2.999960889 -0.0001002866421 0)
(2.999576378 -0.001146115575 0)
(2.997598435 -0.006159784618 0)
(2.98658016 -0.03233533422 0)
(2.971768407 -0.0788420667 0)
(2.934513468 -0.1705098684 0)
(2.928220534 -0.1811702318 0)
(2.906136738 -0.2247922528 0)
(2.901503484 -0.2496965437 0)
(3 2.14782928e-14 0)
(3 2.041401664e-14 0)
(3 1.947072062e-14 0)
(3 2.17086392e-14 0)
(3 1.68713167e-14 0)
(3 1.096804861e-14 0)
(3 8.695084033e-15 0)
(3 5.035117709e-15 0)
(3 1.486452117e-15 0)
(3 -2.184808883e-15 0)
(3 -8.279646684e-15 0)
(3 -1.055173627e-14 0)
(3 -1.080243095e-14 0)
(3 -6.442854537e-15 0)
(3 -6.080706833e-15 0)
(3 -5.234289976e-15 0)
(3 -8.311462358e-14 0)
(3 -5.561883159e-12 0)
(3 -2.602456402e-10 0)
(2.999999994 -1.515526037e-08 0)
(2.999999877 -3.215461093e-07 0)
(2.999996482 -9.345870484e-06 0)
(2.999964063 -9.582355786e-05 0)
(2.999558118 -0.001147793476 0)
(2.997364805 -0.006922568457 0)
(2.989196605 -0.02827398776 0)
(2.961016096 -0.09163995828 0)
(2.951617498 -0.1412408295 0)
(2.912096264 -0.2371769472 0)
(2.900903519 -0.2336792502 0)
(2.899759502 -0.2407409608 0)
(2.898142942 -0.245920228 0)
(3 2.509988977e-14 0)
(3 2.537741504e-14 0)
(3 2.564845421e-14 0)
(3 1.976098944e-14 0)
(3 1.835496981e-14 0)
(3 1.871334921e-14 0)
(3 1.386370239e-14 0)
(3 1.263374894e-14 0)
(3 3.672618663e-15 0)
(3 -1.163227843e-15 0)
(3 -6.458052169e-15 0)
(3 -1.352781115e-14 0)
(3 -2.486846649e-14 0)
(3 -5.198205145e-15 0)
(3 -2.002195457e-15 0)
(3 -7.086359262e-14 0)
(3 -5.315940005e-12 0)
(3 -3.313198901e-10 0)
(2.999999995 -1.277109443e-08 0)
(2.999999848 -3.92420402e-07 0)
(2.999996918 -8.281680054e-06 0)
(2.999959353 -0.000104843777 0)
(2.99957076 -0.001173403041 0)
(2.997535161 -0.006281263866 0)
(2.98671944 -0.03291346559 0)
(2.97088953 -0.07955580845 0)
(2.933168281 -0.1690338223 0)
(2.92795076 -0.183715676 0)
(2.906002846 -0.2295776043 0)
(2.901773726 -0.2507163674 0)
(2.898520437 -0.2475336062 0)
(2.895012283 -0.247222583 0)
(3 2.733875716e-14 0)
(3 2.729785232e-14 0)
(3 1.630379197e-14 0)
(3 1.225513509e-14 0)
(3 1.502563637e-14 0)
(3 1.73317884e-14 0)
(3 1.452280313e-14 0)
(3 1.698613995e-14 0)
(3 8.644185969e-15 0)
(3 -1.106075178e-15 0)
(3 -1.251781391e-14 0)
(3 -2.411726884e-14 0)
(3 -3.207158729e-14 0)
(3 -7.211238042e-15 0)
(3 -8.141989474e-14 0)
(3 -5.932552262e-12 0)
(3 -2.902234697e-10 0)
(2.999999994 -1.564617177e-08 0)
(2.999999869 -3.408223329e-07 0)
(2.999996325 -9.73308015e-06 0)
(2.999963369 -9.754596695e-05 0)
(2.999529376 -0.00123586732 0)
(2.99750095 -0.0066817805 0)
(2.988376237 -0.03003478729 0)
(2.96187261 -0.08966848329 0)
(2.949145504 -0.1447440029 0)
(2.911144517 -0.237336328 0)
(2.903500455 -0.2323946391 0)
(2.900669162 -0.2415136849 0)
(2.898143117 -0.2468293755 0)
(2.897027437 -0.2493286231 0)
(2.894002718 -0.247813432 0)
(3 2.575720365e-14 0)
(3 2.350903782e-14 0)
(3 1.772146022e-14 0)
(3 1.426931596e-14 0)
(3 1.644891859e-14 0)
(3 2.057825637e-14 0)
(3 2.310313448e-14 0)
(3 2.291115639e-14 0)
(3 1.611486616e-14 0)
(3 1.204573016e-15 0)
(3 -1.510858889e-14 0)
(3 -3.170631251e-14 0)
(3 -2.765480912e-14 0)
(3 -8.033866968e-14 0)
(3 -6.098787214e-12 0)
(3 -3.633440295e-10 0)
(2.999999995 -1.310814325e-08 0)
(2.999999837 -4.177157059e-07 0)
(2.999996837 -8.424142699e-06 0)
(2.999957065 -0.0001106680903 0)
(2.999562776 -0.00120122343 0)
(2.997471118 -0.006440094114 0)
(2.986904588 -0.03351321334 0)
(2.970042819 -0.07975357082 0)
(2.931954025 -0.1675408898 0)
(2.927904038 -0.1866656087 0)
(2.906502374 -0.2344552868 0)
(2.902064883 -0.2505986891 0)
(2.897719063 -0.2471814347 0)
(2.894170316 -0.2472195139 0)
(2.893879059 -0.2473512836 0)
(2.893601899 -0.2471186822 0)
(3 2.52775482e-14 0)
(3 1.995612837e-14 0)
(3 2.2837378e-14 0)
(3 2.172423993e-14 0)
(3 2.104032645e-14 0)
(3 2.418257778e-14 0)
(3 2.667930676e-14 0)
(3 2.428562567e-14 0)
(3 1.570375585e-14 0)
(3 3.331589775e-15 0)
(3 -1.026117343e-14 0)
(3 -3.038301922e-14 0)
(3 -1.419687918e-13 0)
(3 -6.422143556e-12 0)
(3 -3.270728041e-10 0)
(2.999999994 -1.610715031e-08 0)
(2.99999986 -3.615874342e-07 0)
(2.999996209 -9.956336941e-06 0)
(2.999961896 -0.0001007069753 0)
(2.99950236 -0.001310023889 0)
(2.997591352 -0.006521063876 0)
(2.987517601 -0.03219407694 0)
(2.963567391 -0.0866514395 0)
(2.94583919 -0.1492493706 0)
(2.910313792 -0.2370404163 0)
(2.906548989 -0.2312845309 0)
(2.901187783 -0.2413031642 0)
(2.89789068 -0.2477717679 0)
(2.895850563 -0.2489761963 0)
(2.893377627 -0.2477411624 0)
(2.893243064 -0.2473706238 0)
(2.893896 -0.2460568596 0)
(3 2.963507319e-14 0)
(3 2.134955182e-14 0)
(3 1.986355794e-14 0)
(3 2.253809007e-14 0)
(3 2.623118968e-14 0)
(3 2.885669722e-14 0)
(3 3.104270915e-14 0)
(3 2.928161036e-14 0)
(3 2.208313174e-14 0)
(3 1.376076796e-14 0)
(3 -1.23822571e-14 0)
(3 -1.099619753e-13 0)
(3 -7.040822995e-12 0)
(3 -3.952171321e-10 0)
(2.999999995 -1.350017593e-08 0)
(2.999999825 -4.472761646e-07 0)
(2.999996782 -8.485944021e-06 0)
(2.999953961 -0.000118281473 0)
(2.999555499 -0.001217663986 0)
(2.99737042 -0.006671615804 0)
(2.987068953 -0.03407077692 0)
(2.969357878 -0.08000249653 0)
(2.93114899 -0.1666984499 0)
(2.928744434 -0.1889974991 0)
(2.906693184 -0.2396774163 0)
(2.901430583 -0.2503206457 0)
(2.896469514 -0.2466718285 0)
(2.893646867 -0.2471569243 0)
(2.893455148 -0.2474127646 0)
(2.893191011 -0.2475562405 0)
(2.89383883 -0.2463605007 0)
(2.895790297 -0.2436078268 0)
(3 2.927613737e-14 0)
(3 2.154628259e-14 0)
(3 2.067277081e-14 0)
(3 2.392327412e-14 0)
(3 2.84770125e-14 0)
(3 3.211298823e-14 0)
(3 3.509697844e-14 0)
(3 3.752013325e-14 0)
(3 3.727572087e-14 0)
(3 1.513109369e-14 0)
(3 -1.342290672e-13 0)
(3 -6.865197951e-12 0)
(3 -3.663784384e-10 0)
(2.999999994 -1.651541616e-08 0)
(2.999999851 -3.818748672e-07 0)
(2.999996114 -1.010583175e-05 0)
(2.999959772 -0.0001054123241 0)
(2.999477555 -0.001368333323 0)
(2.997613255 -0.006496570542 0)
(2.986709344 -0.034319523 0)
(2.965815763 -0.08295884968 0)
(2.941574564 -0.1554921983 0)
(2.9100811 -0.2361559811 0)
(2.910321236 -0.2294102286 0)
(2.901304344 -0.2406501875 0)
(2.896950443 -0.2480180387 0)
(2.894744692 -0.2486016234 0)
(2.892946033 -0.24793495 0)
(2.893074479 -0.2477227901 0)
(2.893974307 -0.2467239885 0)
(2.895960613 -0.2442073235 0)
(2.899064099 -0.2396388296 0)
(3 3.07017897e-14 0)
(3 2.579864047e-14 0)
(3 2.617986863e-14 0)
(3 2.686954474e-14 0)
(3 2.920548485e-14 0)
(3 3.365583358e-14 0)
(3 4.055872454e-14 0)
(3 4.55704333e-14 0)
(3 3.934394346e-14 0)
(3 -4.56339655e-14 0)
(3 -7.825701431e-12 0)
(3 -4.189988879e-10 0)
(2.999999995 -1.393468997e-08 0)
(2.999999814 -4.737539687e-07 0)
(2.999996753 -8.488865543e-06 0)
(2.999950636 -0.0001261756054 0)
(2.999549265 -0.001224794943 0)
(2.997211389 -0.007000906581 0)
(2.987250514 -0.0343846349 0)
(2.968728726 -0.08072729193 0)
(2.930866188 -0.1661402316 0)
(2.929116427 -0.1910257498 0)
(2.906984203 -0.2446646816 0)
(2.900480323 -0.2502016231 0)
(2.896117214 -0.2462479036 0)
(2.893206759 -0.247106758 0)
(2.893045537 -0.2476766142 0)
(2.892904069 -0.2481897177 0)
(2.893863607 -0.2472303179 0)
(2.895991857 -0.244806869 0)
(2.89907969 -0.2404035601 0)
(2.902601315 -0.2343267939 0)
(3 3.312295684e-14 0)
(3 3.209202649e-14 0)
(3 2.84967179e-14 0)
(3 2.985998729e-14 0)
(3 3.101262948e-14 0)
(3 3.64900578e-14 0)
(3 3.830815449e-14 0)
(3 3.866622664e-14 0)
(3 -1.037906285e-13 0)
(3 -7.148944331e-12 0)
(3 -3.996830535e-10 0)
(2.999999993 -1.67608041e-08 0)
(2.999999844 -4.006138921e-07 0)
(2.999996038 -1.024467906e-05 0)
(2.999957708 -0.0001103266369 0)
(2.999457459 -0.001408195737 0)
(2.997579506 -0.006575696583 0)
(2.985969536 -0.0360990697 0)
(2.968248984 -0.07923217745 0)
(2.936985272 -0.1633996506 0)
(2.910874554 -0.2335046265 0)
(2.913640933 -0.2274299522 0)
(2.901384001 -0.2399738055 0)
(2.896016471 -0.2483369174 0)
(2.89417304 -0.2486725288 0)
(2.892697857 -0.2481938584 0)
(2.892965131 -0.248118481 0)
(2.89394472 -0.2475096893 0)
(2.895932737 -0.2453631353 0)
(2.899005391 -0.240992682 0)
(2.90248527 -0.2349109001 0)
(2.906007237 -0.2274725298 0)
(3 3.324166652e-14 0)
(3 3.366529273e-14 0)
(3 3.076581104e-14 0)
(3 2.798624162e-14 0)
(3 3.389397422e-14 0)
(3 3.765805696e-14 0)
(3 3.233870605e-14 0)
(3 -7.184998166e-14 0)
(3 -8.454478176e-12 0)
(3 -4.354196096e-10 0)
(2.999999994 -1.443388361e-08 0)
(2.999999806 -4.971987229e-07 0)
(2.999996713 -8.559867375e-06 0)
(2.999947316 -0.0001345790614 0)
(2.999543662 -0.001231428011 0)
(2.997023641 -0.007397087143 0)
(2.987375846 -0.03450676021 0)
(2.968067591 -0.08215920329 0)
(2.931509846 -0.1647555679 0)
(2.928992526 -0.193325025 0)
(2.907377519 -0.2490899397 0)
(2.899797883 -0.2495071105 0)
(2.896215352 -0.2460749335 0)
(2.892819598 -0.2471551174 0)
(2.89269475 -0.2483050574 0)
(2.892807519 -0.2488112163 0)
(2.893954338 -0.2479759236 0)
(2.896028273 -0.2457692463 0)
(2.898926628 -0.2414735575 0)
(2.902265443 -0.2354140992 0)
(2.905534642 -0.2283098914 0)
(2.909082191 -0.2193062205 0)
(3 3.420508648e-14 0)
(3 3.694631113e-14 0)
(3 3.254604067e-14 0)
(3 2.550603726e-14 0)
(3 2.897490793e-14 0)
(3 3.068720203e-14 0)
(3 -1.180788999e-13 0)
(3 -7.440553335e-12 0)
(3 -4.2821543e-10 0)
(2.999999993 -1.706607947e-08 0)
(2.999999835 -4.218262237e-07 0)
(2.999995944 -1.048262043e-05 0)
(2.99995545 -0.0001160992941 0)
(2.999438168 -0.001446342354 0)
(2.997493692 -0.006780988282 0)
(2.985359758 -0.0374992752 0)
(2.970032263 -0.07686838372 0)
(2.933674743 -0.1716118168 0)
(2.912986361 -0.2282180918 0)
(2.916288004 -0.2259935524 0)
(2.900740142 -0.2402597147 0)
(2.895064471 -0.2488674385 0)
(2.893653648 -0.2489836801 0)
(2.892375884 -0.2485776679 0)
(2.892806838 -0.2487515786 0)
(2.893851527 -0.2483746852 0)
(2.895776805 -0.2464412018 0)
(2.898809892 -0.2420896932 0)
(2.902160815 -0.2359593128 0)
(2.90534373 -0.2287685454 0)
(2.90856999 -0.2201144353 0)
(2.911953692 -0.2105390694 0)
(3 3.926186984e-14 0)
(3 3.970759468e-14 0)
(3 3.779935758e-14 0)
(3 3.398831801e-14 0)
(3 2.888114365e-14 0)
(3 -7.544967228e-14 0)
(3 -8.947255706e-12 0)
(3 -4.513240656e-10 0)
(2.999999994 -1.506199387e-08 0)
(2.999999798 -5.198182351e-07 0)
(2.999996633 -8.738935916e-06 0)
(2.999943902 -0.0001435420181 0)
(2.999536682 -0.001240174519 0)
(2.996801914 -0.007867104342 0)
(2.987364678 -0.03463186484 0)
(2.967320925 -0.08428478392 0)
(2.932281339 -0.1635039536 0)
(2.928919987 -0.1966369722 0)
(2.907636428 -0.251421008 0)
(2.899995004 -0.2483083413 0)
(2.895662866 -0.246599147 0)
(2.892310477 -0.2471661319 0)
(2.892196515 -0.2487434506 0)
(2.892777217 -0.249308903 0)
(2.893939908 -0.248742423 0)
(2.895801909 -0.2466641258 0)
(2.898509584 -0.2425760173 0)
(2.901801326 -0.2365519501 0)
(2.904837084 -0.2296339742 0)
(2.908049462 -0.220879482 0)
(2.911335624 -0.2113228907 0)
(2.914739284 -0.2025677038 0)
(3 3.816293551e-14 0)
(3 3.890084665e-14 0)
(3 3.978767985e-14 0)
(3 3.589808287e-14 0)
(3 -1.259867649e-13 0)
(3 -7.770785821e-12 0)
(3 -4.522780445e-10 0)
(2.999999993 -1.745346013e-08 0)
(2.999999827 -4.432360328e-07 0)
(2.99999583 -1.078715123e-05 0)
(2.999953267 -0.0001216158137 0)
(2.99941914 -0.001483947342 0)
(2.997389312 -0.007029599453 0)
(2.984819826 -0.03832975915 0)
(2.97069741 -0.07649391458 0)
(2.931501036 -0.1789137622 0)
(2.91541589 -0.2214518679 0)
(2.917472356 -0.2268168484 0)
(2.89943207 -0.2406918667 0)
(2.894343155 -0.2496544348 0)
(2.893085438 -0.2495353623 0)
(2.891565919 -0.2490415538 0)
(2.892575661 -0.2492069517 0)
(2.893700078 -0.2490114071 0)
(2.895662981 -0.2473151403 0)
(2.898517593 -0.2432449625 0)
(2.90162745 -0.23728145 0)
(2.904544952 -0.2301838061 0)
(2.907470159 -0.2218060837 0)
(2.910855027 -0.2119154002 0)
(2.914122182 -0.2034707629 0)
(2.918205334 -0.1947861137 0)
(3 3.830934161e-14 0)
(3 3.697812357e-14 0)
(3 3.451170123e-14 0)
(3 -9.224768245e-14 0)
(3 -9.337011903e-12 0)
(3 -4.654490109e-10 0)
(2.999999994 -1.569136304e-08 0)
(2.99999979 -5.406051037e-07 0)
(2.999996521 -9.010962721e-06 0)
(2.999940939 -0.0001514809936 0)
(2.999529164 -0.001255098736 0)
(2.99659641 -0.008306869606 0)
(2.987485554 -0.03445326035 0)
(2.965854497 -0.08738948966 0)
(2.933464933 -0.1609246988 0)
(2.928024851 -0.1995823859 0)
(2.90723188 -0.2523967409 0)
(2.900368797 -0.247972026 0)
(2.894183613 -0.2469343112 0)
(2.891451109 -0.2476276834 0)
(2.891560382 -0.2495823983 0)
(2.892409811 -0.2497112441 0)
(2.893494668 -0.2491062778 0)
(2.895508653 -0.2472974073 0)
(2.898311638 -0.243658292 0)
(2.901445036 -0.2378938861 0)
(2.904213718 -0.2309787107 0)
(2.90701844 -0.2226190512 0)
(2.910201051 -0.2130368668 0)
(2.913652489 -0.2040195078 0)
(2.917691372 -0.1956059944 0)
(2.92348348 -0.1842988976 0)
(3 3.351391651e-14 0)
(3 3.057815654e-14 0)
(3 -1.325885104e-13 0)
(3 -8.001258475e-12 0)
(3 -4.695253404e-10 0)
(2.999999993 -1.796396295e-08 0)
(2.999999819 -4.651942273e-07 0)
(2.999995677 -1.121756177e-05 0)
(2.999951216 -0.0001269828231 0)
(2.999398622 -0.001532110563 0)
(2.997309407 -0.007252422944 0)
(2.984378115 -0.03907589891 0)
(2.971062821 -0.07668568119 0)
(2.930189514 -0.1830257517 0)
(2.916841691 -0.2176789124 0)
(2.916125309 -0.2283869702 0)
(2.898800605 -0.2413063759 0)
(2.894355767 -0.2502603272 0)
(2.892101771 -0.2497118733 0)
(2.890378574 -0.2492922353 0)
(2.892137138 -0.2496000684 0)
(2.893185632 -0.2493652698 0)
(2.895298564 -0.2476905847 0)
(2.898184923 -0.2441082106 0)
(2.901252897 -0.2385454192 0)
(2.90401618 -0.2315871702 0)
(2.906548136 -0.223745655 0)
(2.909761818 -0.2139679574 0)
(2.913261647 -0.2045414049 0)
(2.917285843 -0.1961573036 0)
(2.922815703 -0.1856110558 0)
(2.928791038 -0.1741483537 0)
(3 3.132337087e-14 0)
(3 -7.849819406e-14 0)
(3 -9.489874866e-12 0)
(3 -4.803885941e-10 0)
(2.999999993 -1.640765452e-08 0)
(2.999999782 -5.652988956e-07 0)
(2.999996361 -9.433325587e-06 0)
(2.999938053 -0.0001593259079 0)
(2.999516498 -0.001289093613 0)
(2.996429883 -0.00868937256 0)
(2.98752237 -0.03457029857 0)
(2.964717172 -0.09018499889 0)
(2.934163948 -0.1589960497 0)
(2.927384853 -0.2011515198 0)
(2.907093339 -0.2527812868 0)
(2.900066788 -0.2479972668 0)
(2.893503969 -0.2471917901 0)
(2.890440127 -0.2477739423 0)
(2.890927062 -0.2493863019 0)
(2.892035717 -0.2495323558 0)
(2.893136424 -0.2491821766 0)
(2.895212685 -0.2477166649 0)
(2.897987184 -0.2445862397 0)
(2.901031714 -0.2392924813 0)
(2.903699538 -0.232511261 0)
(2.906233611 -0.2245205027 0)
(2.909354364 -0.2149237585 0)
(2.91302488 -0.2049423119 0)
(2.91692911 -0.196659174 0)
(2.922272264 -0.1866695958 0)
(2.928719416 -0.1745131311 0)
(2.934053053 -0.164966777 0)
(3 -1.311154694e-13 0)
(3 -8.307963117e-12 0)
(3 -4.879886233e-10 0)
(2.999999993 -1.877724117e-08 0)
(2.999999809 -4.901434502e-07 0)
(2.999995462 -1.181684086e-05 0)
(2.999949012 -0.0001327632061 0)
(2.999373705 -0.001594849961 0)
(2.997237037 -0.007474595021 0)
(2.983999275 -0.0399142452 0)
(2.97101557 -0.07741285434 0)
(2.929808657 -0.1853400451 0)
(2.916898809 -0.2166965462 0)
(2.915665515 -0.2294503509 0)
(2.899135356 -0.2418191878 0)
(2.894767026 -0.2502793357 0)
(2.891468243 -0.2494215946 0)
(2.889892737 -0.2490261362 0)
(2.891730314 -0.2496138255 0)
(2.892905609 -0.2495211127 0)
(2.895090646 -0.248276849 0)
(2.897938179 -0.2452357241 0)
(2.900851382 -0.2401758448 0)
(2.90351488 -0.2333146703 0)
(2.905900795 -0.2255019563 0)
(2.908942434 -0.2159053752 0)
(2.912538021 -0.205990886 0)
(2.916641815 -0.1969871496 0)
(2.921906244 -0.1871241567 0)
(2.928511131 -0.1750278089 0)
(2.934204624 -0.1646639878 0)
(2.938686308 -0.1569796719 0)
(3 -9.870993686e-12 0)
(3 -5.018614208e-10 0)
(2.999999993 -1.731494872e-08 0)
(2.999999771 -5.946489419e-07 0)
(2.99999616 -9.961570757e-06 0)
(2.999935196 -0.0001667519335 0)
(2.999498755 -0.001338036194 0)
(2.996305272 -0.008977542642 0)
(2.987406559 -0.03509648067 0)
(2.964032827 -0.09217520941 0)
(2.934035478 -0.1583161723 0)
(2.927518671 -0.2019048739 0)
(2.907167067 -0.2531252888 0)
(2.900210592 -0.248179899 0)
(2.893667095 -0.2476526223 0)
(2.890657385 -0.2483416922 0)
(2.890446821 -0.249191125 0)
(2.891668672 -0.2494195786 0)
(2.892809887 -0.2492537455 0)
(2.894869199 -0.2482598277 0)
(2.897651578 -0.2457631942 0)
(2.90061031 -0.2410024588 0)
(2.903235773 -0.2343184136 0)
(2.905647086 -0.2263923784 0)
(2.908525797 -0.2170310178 0)
(2.912224435 -0.2066663149 0)
(2.91636242 -0.1973508057 0)
(2.921664304 -0.1872380151 0)
(2.928088071 -0.1755404628 0)
(2.934001042 -0.1650782652 0)
(2.938952677 -0.1566975278 0)
(2.943622109 -0.1459506541 0)
(3 -5.142529242e-10 0)
(2.999999992 -1.989830886e-08 0)
(2.999999799 -5.167478986e-07 0)
(2.999995203 -1.252259766e-05 0)
(2.999946896 -0.0001382140161 0)
(2.999346958 -0.001662983368 0)
(2.997177245 -0.007657483583 0)
(2.983679459 -0.04075350435 0)
(2.970735131 -0.07817153001 0)
(2.929640146 -0.1863942545 0)
(2.9158559 -0.2174876309 0)
(2.91591088 -0.2301936664 0)
(2.899517696 -0.242621852 0)
(2.895108294 -0.2506008952 0)
(2.891560974 -0.2497343924 0)
(2.889768376 -0.2490010977 0)
(2.891292935 -0.2495932535 0)
(2.892532705 -0.2495506955 0)
(2.894735619 -0.2487045104 0)
(2.897551247 -0.2462479232 0)
(2.900414604 -0.2417557482 0)
(2.90304028 -0.2351205992 0)
(2.905305966 -0.2275067265 0)
(2.908132771 -0.2181748725 0)
(2.911858899 -0.2075103665 0)
(2.916035696 -0.1977305148 0)
(2.921153748 -0.1879390584 0)
(2.927671961 -0.175934413 0)
(2.933734685 -0.1651667187 0)
(2.938913572 -0.1567244323 0)
(2.943960046 -0.1456951616 0)
(2.949004308 -0.1317973139 0)
(2.999999993 -1.847476795e-08 0)
(2.999999758 -6.28536417e-07 0)
(2.999995933 -1.056676479e-05 0)
(2.999932442 -0.0001737976895 0)
(2.999478875 -0.001394793397 0)
(2.996217993 -0.009179793888 0)
(2.987181884 -0.03581166027 0)
(2.963708969 -0.09328874761 0)
(2.933098146 -0.1586230355 0)
(2.927500107 -0.2017391283 0)
(2.907154586 -0.2530486858 0)
(2.900484245 -0.2486638887 0)
(2.893987803 -0.2483031459 0)
(2.890910548 -0.2488818593 0)
(2.890262272 -0.2493933047 0)
(2.891186117 -0.2494692267 0)
(2.89229312 -0.2494498794 0)
(2.894445968 -0.2487665045 0)
(2.897217655 -0.2466462747 0)
(2.900109495 -0.2424499315 0)
(2.902748695 -0.2359932206 0)
(2.905079865 -0.2282319536 0)
(2.907771558 -0.2192153556 0)
(2.911636396 -0.2081548116 0)
(2.915798282 -0.1980188097 0)
(2.920653096 -0.1886102456 0)