/*--------------------------------*- C++ -*----------------------------------*\
  =========                 |
  \\      /  F ield         | OpenFOAM: The Open Source CFD Toolbox
   \\    /   O peration     | Website:  https://openfoam.org
    \\  /    A nd           | Version:  7
     \\/     M anipulation  |
\*---------------------------------------------------------------------------*/
FoamFile
{
    version     2.0;
    format      ascii;
    class       volScalarField;
    location    "4.1";
    object      T;
}
// * * * * * * * * * * * * * * * * * * * * * * * * * * * * * * * * * * * * * //

dimensions      [0 0 0 1 0 0 0];

internalField   nonuniform List<scalar> 
2222
(
1.519140364
1.514291891
1.511139885
1.507370905
1.502001397
1.496350133
1.493509183
1.491576334
1.487529977
1.483070939
1.480286402
1.478387618
1.475158174
1.472016443
1.467600191
1.462517576
1.458466358
1.45377077
1.448396752
1.443065655
1.437768406
1.431506551
1.424610917
1.419128072
1.416115158
1.413382416
1.410620897
1.40930785
1.407967372
1.406073226
1.403202557
1.399230989
1.394854462
1.387599172
1.520363491
1.516064795
1.511809499
1.507495353
1.501988428
1.496756546
1.494581915
1.491526875
1.486886745
1.482852723
1.480730952
1.479422454
1.475117839
1.471748579
1.46778933
1.463064853
1.459235444
1.454708375
1.449514373
1.443958969
1.438309886
1.432027151
1.425277266
1.420199101
1.416806914
1.413418594
1.410512323
1.40908853
1.407788417
1.405968271
1.403202119
1.399339828
1.39506527
1.388003814
1.52213431
1.517237564
1.512185037
1.507555299
1.502453761
1.497941786
1.495158203
1.49122222
1.486565625
1.48328762
1.482226988
1.47981689
1.474762336
1.47180883
1.468175448
1.463861038
1.460210978
1.45576406
1.450465843
1.444609152
1.438796764
1.432711659
1.426367846
1.421652979
1.417397686
1.413460049
1.410538723
1.409046937
1.407737791
1.405876075
1.403166985
1.399448282
1.395320038
1.388457049
1.523400675
1.51778051
1.512534129
1.508173526
1.503294095
1.49954756
1.495250879
1.49064618
1.486582063
1.484844736
1.483204579
1.479600611
1.474594872
1.471965369
1.468818414
1.464419967
1.460812394
1.45644718
1.451058808
1.445011898
1.439431487
1.433626225
1.428001433
1.422826818
1.417782572
1.413654232
1.410785144
1.409161958
1.407733392
1.405770184
1.403112634
1.399574511
1.395643929
1.388924972
1.524055783
1.518194329
1.513259944
1.508961609
1.505007606
1.500461818
1.495072251
1.490435954
1.487556951
1.486079545
1.483039585
1.479123578
1.474488739
1.472284394
1.469285562
1.464602711
1.461044315
1.456755029
1.451288855
1.445456809
1.440312208
1.435076372
1.429613788
1.423399786
1.41813447
1.414082187
1.411202832
1.409339431
1.407667692
1.405609746
1.403079243
1.399795967
1.396163868
1.389256893
1.524711877
1.518951569
1.514101018
1.510420098
1.506592238
1.500742597
1.494750312
1.490617527
1.489035015
1.4862176
1.482545109
1.478722834
1.474554335
1.472669722
1.469499317
1.464574062
1.461280691
1.457125405
1.451636159
1.446220557
1.441389927
1.436798121
1.430448896
1.423951035
1.418674769
1.414683416
1.411632969
1.409422654
1.407506142
1.405411747
1.40308954
1.400165003
1.396544251
1.389442828
1.525647766
1.51988039
1.515419159
1.512094107
1.5071764
1.500692746
1.494811899
1.491849803
1.48990209
1.485957321
1.481874963
1.478521874
1.475107484
1.473003057
1.469697147
1.464832989
1.461823705
1.457802977
1.452388455
1.447161509
1.442903291
1.437772866
1.431150767
1.424573763
1.419511735
1.41555201
1.412150126
1.409452716
1.407305261
1.405212278
1.403119969
1.40042707
1.396647165
1.389480625
1.521075036
1.517131441
1.512810877
1.507377903
1.500562155
1.4952558
1.493501365
1.490134029
1.485376926
1.48142595
1.478772044
1.47623323
1.473241665
1.469940095
1.465253763
1.462508332
1.458659059
1.453329357
1.448464959
1.443936994
1.438519371
1.43167149
1.425408734
1.420719664
1.416754304
1.412684724
1.409459672
1.407111883
1.40500714
1.403125408
1.400428475
1.39662788
1.389374298
1.522694562
1.517986074
1.513205159
1.507432262
1.500938649
1.496726592
1.494358086
1.490088228
1.484798509
1.481349547
1.479938407
1.477080751
1.473233789
1.470165894
1.46576874
1.463460288
1.459749807
1.454503041
1.449463872
1.444643485
1.438953135
1.432223454
1.426461267
1.422275573
1.417808536
1.413014703
1.409443458
1.406976026
1.404806083
1.403044038
1.400205793
1.396359692
1.389148053
1.523599223
1.51859133
1.513612448
1.507992045
1.501816656
1.498504309
1.49465323
1.489568977
1.484657499
1.482164003
1.481256772
1.477027659
1.473090245
1.470485661
1.466673201
1.464238727
1.460356684
1.455217409
1.450066129
1.44497528
1.439340509
1.433171178
1.427895729
1.423830916
1.418432249
1.413211152
1.409424298
1.406911853
1.404650025
1.402739752
1.399777528
1.395680627
1.389021262
1.524362324
1.519300223
1.514352761
1.508784648
1.503608592
1.499390917
1.49452469
1.489230623
1.484904419
1.484048206
1.481607465
1.476530905
1.472961704
1.471038506
1.467540571
1.464581563
1.460716892
1.455620994
1.450271329
1.445291676
1.440130435
1.434400629
1.42968186
1.424886298
1.419042765
1.413458395
1.409483704
1.406962472
1.404545103
1.402270045
1.399106597
1.394960582
1.389080811
1.525226527
1.520163045
1.515209547
1.510075971
1.505364372
1.499711696
1.494080957
1.489388415
1.486432849
1.48528532
1.481386323
1.476079936
1.473026755
1.471682318
1.46773065
1.464710735
1.461167162
1.455933141
1.450591532
1.446043893
1.441224539
1.435786884
1.430929105
1.425757359
1.419586392
1.413834046
1.409823114
1.407282805
1.404449162
1.401737964
1.39860293
1.39472995
1.389196969
1.526195533
1.521111029
1.516402285
1.511866341
1.506046882
1.499608641
1.49410434
1.490132546
1.488400819
1.485440345
1.480851745
1.475883061
1.473594261
1.472235561
1.467711139
1.464956102
1.461716142
1.456459603
1.451327048
1.447020266
1.442401211
1.437306256
1.431908198
1.426394291
1.420224463
1.41452077
1.410692728
1.407821767
1.404236647
1.401198269
1.398272427
1.394558679
1.389359488
1.527262718
1.522375292
1.518159449
1.512805671
1.506250789
1.499356083
1.494604925
1.492147566
1.489270673
1.485146723
1.480315001
1.476236841
1.474748308
1.472543964
1.467734665
1.465255613
1.462360058
1.457066386
1.452128652
1.448128142
1.443757655
1.438375723
1.432572072
1.427008794
1.421042964
1.415839432
1.412060832
1.408110483
1.403858755
1.400731544
1.397940488
1.394439222
1.38965827
1.528650557
1.524323804
1.519309316
1.513187935
1.506016345
1.49956998
1.496067841
1.494075335
1.489459656
1.484304775
1.480239107
1.477529612
1.475678875
1.472495902
1.467757375
1.465628437
1.463001225
1.457659031
1.453153268
1.449301403
1.444660614
1.439005256
1.433018428
1.427864705
1.422232393
1.417727655
1.412838626
1.407952584
1.403436215
1.400408198
1.397688474
1.394344526
1.390111804
1.530916934
1.525693992
1.519919022
1.513257667
1.506070653
1.50035548
1.49845819
1.494871855
1.489118029
1.483860956
1.48077707
1.479041859
1.475740403
1.4722595
1.467934601
1.466020953
1.463306009
1.458282156
1.453946073
1.449939187
1.44505305
1.439133017
1.433678096
1.428811248
1.423987988
1.418862136
1.412822508
1.407563993
1.403121681
1.40026485
1.397591262
1.394403372
1.390607499
1.532767686
1.526339609
1.520275883
1.513692049
1.506776639
1.502258969
1.500037299
1.495133788
1.488444828
1.484014775
1.482400599
1.479783285
1.475438252
1.472068329
1.468487222
1.466329591
1.46356129
1.458761121
1.454319181
1.450118485
1.445011992
1.439316053
1.434587289
1.43006793
1.425537826
1.419190521
1.412745865
1.407329791
1.402991252
1.400321561
1.397756913
1.394878286
1.391062083
1.533700257
1.526760039
1.520879853
1.514565494
1.50799473
1.504717828
1.500687709
1.494725908
1.488333088
1.485011877
1.48411809
1.479824293
1.474939176
1.472086659
1.469357431
1.466620229
1.463785986
1.459060926
1.454342675
1.450067511
1.445179881
1.440004775
1.435533944
1.431694066
1.426124915
1.41932324
1.412624443
1.407251094
1.403044549
1.400694488
1.398136388
1.395469194
1.391449711
1.534338538
1.527345413
1.521747137
1.515593619
1.510456598
1.505923777
1.500721136
1.494250754
1.488832235
1.487267606
1.484910906
1.479530809
1.474707895
1.472586037
1.470222562
1.466822572
1.463985571
1.459315001
1.454414184
1.450412145
1.445838972
1.440789628
1.436793857
1.432389194
1.42638496
1.419317266
1.412545961
1.407305051
1.403386749
1.401185754
1.398208864
1.395544576
1.391764828
1.535070924
1.528204579
1.522778127
1.517434876
1.512471347
1.506373022
1.500163309
1.494565177
1.490316287
1.489017993
1.485057438
1.478931052
1.4748865
1.473763963
1.470617827
1.466817535
1.464163668
1.459548979
1.454758869
1.450994183
1.446533523
1.441784046
1.437555108
1.432680802
1.426358549
1.419226898
1.412691389
1.407642148
1.404009376
1.401314057
1.397772851
1.395174165
1.391974887
1.536129883
1.529256646
1.524409634
1.519672863
1.513296873
1.50615285
1.5001254
1.495480283
1.492821501
1.489596442
1.48465493
1.478767994
1.47608409
1.474790747
1.470494784
1.46672491
1.464349707
1.459766063
1.455128946
1.451615713
1.447483928
1.442648143
1.437935185
1.43264617
1.426198194
1.419422109
1.413164665
1.408466571
1.404643108
1.401009492
1.39714867
1.394705413
1.392038282
1.537361527
1.530850343
1.526689961
1.520764499
1.513477932
1.505599659
1.500776024
1.497556812
1.494424397
1.489572227
1.483980514
1.479093839
1.477695664
1.474931325
1.470136917
1.466671015
1.464565012
1.459965001
1.455550923
1.452520351
1.448237588
1.443032457
1.437922158
1.432592581
1.426381967
1.420038695
1.414065476
1.409818338
1.404825627
1.400615227
1.396647614
1.394445844
1.391971508
1.538882337
1.533236224
1.527727854
1.521237863
1.513028626
1.505941166
1.502094297
1.499989481
1.494852741
1.488815178
1.484012152
1.480515061
1.478537739
1.474710539
1.469918932
1.466804214
1.464800645
1.460204233
1.456233624
1.453074227
1.448512665
1.4429681
1.437965563
1.432989966
1.427031872
1.420870218
1.415828385
1.410705093
1.404866099
1.40022162
1.396226735
1.394312882
1.391835427
1.534711021
1.528176092
1.521021975
1.513141645
1.506953629
1.504552389
1.501144615
1.494665544
1.488379467
1.484569602
1.482278507
1.478644814
1.474292228
1.470027665
1.46736887
1.46503184
1.460621376
1.456530852
1.453198032
1.448446349
1.442854428
1.438487107
1.433691274
1.427860754
1.422386713
1.417124637
1.411050097
1.404869819
1.400032369
1.39596697
1.394323487
1.391749667
1.535467235
1.527979709
1.521242262
1.514169825
1.508912793
1.506709735
1.501509569
1.493815513
1.488540047
1.486139442
1.483214388
1.478459248
1.474122638
1.470840124
1.468255748
1.465161206
1.460926031
1.456487762
1.453013735
1.448383496
1.443197015
1.439168708
1.434601953
1.4289913
1.423444354
1.417675466
1.411367284
1.404998793
1.400032577
1.395950792
1.394627153
1.391701629
1.535535621
1.528258422
1.522411886
1.515705735
1.511860911
1.507538205
1.50125946
1.49354694
1.48927796
1.487896419
1.483408162
1.477813826
1.474281975
1.472084964
1.468611083
1.465070134
1.460940358
1.456192257
1.452886184
1.44866867
1.443744365
1.440054262
1.435469248
1.429775159
1.424057081
1.418195243
1.411878551
1.405400328
1.400176254
1.39629498
1.395120406
1.391498257
1.535899712
1.529432579
1.523809224
1.518512126
1.513598605
1.507743054
1.500689996
1.493943625
1.491159049
1.488568296
1.483067997
1.477552784
1.475267289
1.472703426
1.468273906
1.464803984
1.460877117
1.456024813
1.453004054
1.449088846
1.444476976
1.440869614
1.436048615
1.430274564
1.424591525
1.418919586
1.412647497
1.405921208
1.400608294
1.39711365
1.395418928
1.390992431
1.537189358
1.53086821
1.526056827
1.521013916
1.514231667
1.507169022
1.500875408
1.494975513
1.492586326
1.488607014
1.482374207
1.477636331
1.476446731
1.472606571
1.467741754
1.464596129
1.460817328
1.455955985
1.453217286
1.449659718
1.445571418
1.441362289
1.436322809
1.430613778
1.425294967
1.419820539
1.413495407
1.406493193
1.401439909
1.398054365
1.395340009
1.390340727
1.538685155
1.532960404
1.528623512
1.522042818
1.514055217
1.506953132
1.501689152
1.496991314
1.49307104
1.488131934
1.482238667
1.478799755
1.47705561
1.472201154
1.467413239
1.464571335
1.460791171
1.455911721
1.453578321
1.450633434
1.446161837
1.441506361
1.436545207
1.431216631
1.426207944
1.420787871
1.414279096
1.407208915
1.402639491
1.398600624
1.394903698
1.389757125
1.540575568
1.535416824
1.529666627
1.522249371
1.513488861
1.507670893
1.503032682
1.498860995
1.49330317
1.487914328
1.482497213
1.480299734
1.477067347
1.471755552
1.467410227
1.464922133
1.460777421
1.45590768
1.454311296
1.451415688
1.446315298
1.441454009
1.437187644
1.43206889
1.427274298
1.421676002
1.414841317
1.408129167
1.403830128
1.398768895
1.394468247
1.389379234
1.543245461
1.536534279
1.529975856
1.521862592
1.513882004
1.508800092
1.505188271
1.499947375
1.493324269
1.488168614
1.483879828
1.480665742
1.476773539
1.471554609
1.467988843
1.465577711
1.460792071
1.456228279
1.455030362
1.451577604
1.445894642
1.441730398
1.438000764
1.433057594
1.428553748
1.422373378
1.415268594
1.409137963
1.404766244
1.398942409
1.394151206
1.389302132
1.54495694
1.53694588
1.52985366
1.522278027
1.515046054
1.510544195
1.507455557
1.500645418
1.493655026
1.488873866
1.485204044
1.480631001
1.476334572
1.471686087
1.468894498
1.465752797
1.461021333
1.457045795
1.455141085
1.451331623
1.445408456
1.442285017
1.438895265
1.434335203
1.429465605
1.422832926
1.415954378
1.410213681
1.405541641
1.399194362
1.394072061
1.389475271
1.545834861
1.537039086
1.530602133
1.523602535
1.516460622
1.513319945
1.508988808
1.501071764
1.494257075
1.490171657
1.485532659
1.480345962
1.476309488
1.472506558
1.469338839
1.465513948
1.461638252
1.457709933
1.45503247
1.450885852
1.445463337
1.442919395
1.439960963
1.435635177
1.42995429
1.423268349
1.416877125
1.411397951
1.406235394
1.399353313
1.394170264
1.390251492
1.546182428
1.537981436
1.532070637
1.52504214
1.519112883
1.515707019
1.509766384
1.501459545
1.495153561
1.490832378
1.485593225
1.480260515
1.476574819
1.473625944
1.469307011
1.465227017
1.462181496
1.45793177
1.45479734
1.450897926
1.445750904
1.44368544
1.441230309
1.436235791
1.42997182
1.423867832
1.417978376
1.412722682
1.406804545
1.399477081
1.394736701
1.391518244
1.546968695
1.539528345
1.533685686
1.527314447
1.522178718
1.516545824
1.510091984
1.502007279
1.495994613
1.491194176
1.485490615
1.480480884
1.477727403
1.474415921
1.469014056
1.465102399
1.462496904
1.458017902
1.454697437
1.451036764
1.446144945
1.444597441
1.442034979
1.436420625
1.429927916
1.424638615
1.419378778
1.413955926
1.407187341
1.399904727
1.395944677
1.39229708
1.548335268
1.541265007
1.53595972
1.530137521
1.523485438
1.516980364
1.510314048
1.502697353
1.496561549
1.491569073
1.485673725
1.481040758
1.479333779
1.474606273
1.46865673
1.46525502
1.462926949
1.458047304
1.454558979
1.451234724
1.446769359
1.445467043
1.442476984
1.436071561
1.430298942
1.425527318
1.421062511
1.414902716
1.407391128
1.400418874
1.397477361
1.392409394
1.550002142
1.543071746
1.5377917
1.531520734
1.524307312
1.51725825
1.510829835
1.503495658
1.497154289
1.492170986
1.486211573
1.482669847
1.480123467
1.474572628
1.468579197
1.465947773
1.463452595
1.457946875
1.454380199
1.451454882
1.447714333
1.446192933
1.442577694
1.435537807
1.430866721
1.427018442
1.422238269
1.4155648
1.407909039
1.401600337
1.398445848
1.392429429
1.551744565
1.544217251
1.539076639
1.532738901
1.525036788
1.517571188
1.511555827
1.504344011
1.497882587
1.492805979
1.487113479
1.484063313
1.480309479
1.474317457
1.468659564
1.466947309
1.463497253
1.457635807
1.454319908
1.451913257
1.448955658
1.44664876
1.442310686
1.435699353
1.431742026
1.428275494
1.422966027
1.41586509
1.408937019
1.403937996
1.399017193
1.392224817
1.553586718
1.545980911
1.540543883
1.53395992
1.525764701
1.518355405
1.512445695
1.505259024
1.498875665
1.493916827
1.488818337
1.484311169
1.479857202
1.474281012
1.469997095
1.467576781
1.462956638
1.45701931
1.454271429
1.453017281
1.449856411
1.446688404
1.442394999
1.436607614
1.433297679
1.429278217
1.423257254
1.416651522
1.410879525
1.405705834
1.399872723
1.391827419
1.559279978
1.552052496
1.546058998
1.539162088
1.530916548
1.524351783
1.518482288
1.510746011
1.503670278
1.498249565
1.491888591
1.486537778
1.482980798
1.478119287
1.472363168
1.468595945
1.464198807
1.459054327
1.456395424
1.454044607
1.449470674
1.446367281
1.443479398
1.439162044
1.435337313
1.431171523
1.426005745
1.421235265
1.416033059
1.410240856
1.405131638
1.397348691
1.566298164
1.559926266
1.55468295
1.548205407
1.540127071
1.533554632
1.527395138
1.519260283
1.511295371
1.505508451
1.498463574
1.491849803
1.487935765
1.482846656
1.476210613
1.472080186
1.467827971
1.462142564
1.458441263
1.455191337
1.45024812
1.446677538
1.444387465
1.440417929
1.436463779
1.433331398
1.429510187
1.425919676
1.421779419
1.416780831
1.412069744
1.404093459
1.571687595
1.566071584
1.561727098
1.55598752
1.548171258
1.542100447
1.536485
1.528864387
1.520373664
1.514224047
1.506817268
1.499003937
1.494388464
1.489193783
1.482077667
1.477240561
1.472573617
1.465904227
1.461681612
1.458043751
1.452465542
1.448208393
1.445666286
1.441706554
1.437436469
1.434396123
1.430863259
1.427534209
1.424331728
1.42034284
1.416650062
1.409887219
1.577732244
1.571468028
1.567012643
1.56225623
1.55541895
1.549750009
1.544619726
1.537210657
1.528811939
1.52280245
1.515968992
1.507952611
1.502603718
1.497208269
1.489641545
1.483447425
1.47790347
1.470822747
1.465246609
1.461677127
1.456263922
1.450359236
1.447362509
1.443184429
1.438631293
1.435421694
1.431744685
1.428327716
1.425471036
1.421954248
1.418976744
1.413608349
1.584522079
1.577466423
1.572201934
1.567619895
1.561982797
1.557056799
1.552000575
1.544707077
1.536513154
1.53080214
1.524633329
1.516826203
1.511136909
1.505791957
1.498106531
1.491031327
1.484920686
1.477508094
1.471287391
1.466938363
1.46187014
1.455936521
1.452040856
1.44700912
1.441223214
1.437434715
1.433701709
1.4297208
1.426526301
1.422971773
1.420179368
1.415562015
1.589405456
1.583953817
1.579106244
1.574230051
1.568740083
1.563647791
1.558266958
1.551381979
1.543664485
1.538261035
1.532560883
1.524781914
1.518758152
1.513666052
1.506397689
1.499275141
1.493088903
1.486014074
1.479042259
1.473762318
1.468196354
1.461774907
1.456887711
1.451795831
1.445499847
1.440695237
1.436458256
1.43177547
1.428032297
1.424358719
1.421609123
1.417140195
1.589784774
1.588435949
1.584984979
1.580064277
1.574787294
1.569537927
1.563942377
1.557457044
1.550628862
1.545383656
1.539969834
1.532680813
1.526304148
1.52139382
1.514690987
1.507415579
1.501195514
1.494433168
1.487425861
1.481149786
1.475077583
1.468671176
1.46315808
1.457616865
1.450598659
1.445164049
1.440916815
1.435877325
1.431256844
1.427585051
1.424690584
1.419489601
1.587761908
1.587599002
1.585164474
1.580715822
1.576705888
1.573228225
1.56912722
1.563904355
1.557768399
1.552346008
1.546525069
1.539739603
1.533580453
1.528957015
1.522788637
1.515470887
1.509119036
1.502471473
1.495353884
1.488741161
1.482418273
1.476227411
1.47042445
1.464819275
1.45762347
1.451159275
1.447390199
1.44230521
1.436789417
1.432686444
1.429243077
1.422771296
1.567147395
1.574790149
1.577731959
1.577158865
1.575983443
1.575369278
1.573040172
1.568809078
1.563558132
1.558143083
1.552409836
1.546220863
1.541005422
1.536114376
1.529967211
1.523005688
1.516706011
1.510358862
1.503322572
1.496542262
1.490054779
1.484137084
1.478450444
1.472551678
1.465585235
1.459223619
1.454687414
1.450227986
1.443938557
1.439158938
1.435745786
1.428129092
1.531614407
1.549924628
1.563901891
1.570729132
1.573899141
1.573772205
1.571867087
1.568016191
1.564005784
1.560153844
1.556245744
1.551713995
1.547692242
1.542944169
1.536672722
1.529703178
1.52367348
1.517711846
1.511157754
1.504517223
1.498154324
1.492642645
1.486745364
1.480647369
1.474000961
1.467833388
1.46284565
1.457462501
1.451459105
1.446096467
1.441967581
1.434163747
1.488653252
1.508087226
1.528025559
1.544901943
1.556174324
1.561796239
1.563923443
1.563309942
1.562352757
1.561028187
1.558793946
1.555624551
1.552376207
1.547953628
1.54229938
1.536040995
1.530714903
1.525112997
1.518749782
1.51185639
1.505756205
1.500643992
1.494747347
1.488758569
1.482382652
1.476545217
1.47107071
1.465303928
1.458855594
1.453486019
1.449117744
1.441123452
1.457670118
1.47020515
1.487786922
1.505730925
1.522867836
1.538109639
1.549747076
1.555618085
1.558882087
1.558888168
1.55738424
1.554653679
1.552138539
1.548955321
1.544982862
1.540366103
1.536474052
1.531617672
1.52573046
1.518920808
1.513519871
1.508629755
1.502729468
1.496572525
1.49059587
1.484952353
1.47917165
1.473189322
1.466960496
1.461789413
1.457147672
1.448692606
1.451651798
1.452504954
1.458304661
1.469615473
1.484539018
1.500631578
1.516854322
1.530372972
1.54035846
1.546858567
1.548835286
1.549150523
1.549447022
1.548542965
1.546251194
1.543123029
1.54010687
1.536081413
1.531128423
1.525056925
1.52074616
1.516141728
1.510399728
1.504307246
1.498815037
1.493085762
1.487137085
1.480938092
1.475320231
1.470327814
1.465410328
1.456780333
1.455702009
1.452995058
1.449233877
1.44962734
1.45445436
1.465561658
1.480514246
1.495453377
1.510165916
1.523979027
1.534238833
1.540073806
1.543709501
1.544805366
1.543598122
1.541492031
1.53950276
1.536703089
1.533210545
1.529065374
1.526119267
1.522048147
1.516861389
1.511154922
1.506351702
1.500919129
1.495135204
1.488927684
1.483889377
1.478734837
1.47350234
1.464800186
1.464575538
1.457318607
1.451811752
1.448692617
1.44514258
1.446189876
1.451977386
1.462158095
1.475260101
1.489764635
1.50390145
1.515568986
1.524286108
1.530785913
1.533326305
1.534500926
1.536107534
1.535668516
1.533654342
1.531198503
1.528753377
1.525305654
1.520943824
1.5164406
1.512712921
1.507984083
1.502624722
1.496700898
1.492069903
1.486775894
1.481428565
1.472814232
1.48528631
1.470962164
1.461525793
1.454217241
1.448388041
1.446411412
1.442881279
1.443568313
1.448503418
1.458273977
1.470517348
1.482992184
1.495988309
1.508386459
1.51774751
1.523928582
1.528860326
1.531570462
1.530706996
1.529155654
1.52749126
1.524881438
1.521481128
1.518907722
1.516601142
1.512923636
1.508129416
1.503070013
1.498943675
1.493957232
1.488979151
1.480876724
1.513013198
1.496079041
1.48123057
1.468357545
1.457700713
1.450281082
1.445684452
1.443093224
1.439415552
1.440319973
1.444988376
1.453379942
1.464555236
1.477213271
1.489431209
1.499965665
1.508990522
1.516633311
1.519591839
1.521040246
1.522517486
1.522301312
1.520643936
1.519260016
1.517652832
1.515003556
1.51103729
1.507191141
1.503848293
1.499817496
1.495621137
1.488458294
1.538513857
1.524548323
1.509252876
1.493060086
1.477147234
1.463559416
1.454596985
1.448113647
1.442327885
1.438744013
1.435815523
1.436690632
1.44137664
1.449745877
1.45977349
1.469971118
1.48148335
1.493251473
1.502024301
1.508265105
1.51320263
1.516549184
1.516299997
1.516369747
1.515732151
1.513884293
1.510669374
1.508245788
1.506023925
1.503185534
1.499960964
1.494043456
1.555023067
1.547174101
1.535918041
1.521051178
1.503568602
1.486044773
1.470959386
1.459650107
1.450871988
1.444189697
1.439091754
1.435371446
1.433134693
1.434307022
1.437955217
1.444044785
1.452903635
1.463502642
1.473846701
1.483332178
1.492150871
1.499866434
1.503588799
1.506599065
1.509078989
1.509458889
1.508371195
1.507421472
1.505893396
1.503822223
1.501291545
1.496782336
1.564676363
1.560640481
1.554063262
1.543601276
1.529063966
1.512220236
1.495532766
1.480458161
1.467545741
1.457475384
1.448101696
1.441070154
1.436436272
1.433488375
1.429411716
1.42944187
1.43241063
1.438908011
1.446910954
1.455322962
1.465383892
1.475974977
1.484496749
1.491588067
1.497458985
1.501470102
1.502379944
1.503128976
1.502702554
1.50157463
1.499863826
1.496577539
1.569971269
1.566783656
1.56150565
1.554031137
1.544664543
1.534046674
1.521586307
1.507337802
1.492452872
1.47783396
1.46470364
1.453519121
1.445030803
1.438529698
1.432267219
1.427692429
1.425231092
1.425848509
1.428300572
1.432790581
1.440020907
1.448869623
1.457473989
1.466153338
1.475004236
1.482695182
1.487311274
1.490700676
1.493472124
1.494820891
1.495211707
1.494511498
1.570661447
1.567388298
1.563363759
1.558195587
1.552653641
1.547454854
1.540494633
1.530994533
1.518439171
1.503493327
1.487812314
1.472882814
1.459911306
1.449921956
1.440318209
1.433003308
1.428428587
1.425844464
1.422697113
1.421435496
1.423583923
1.427915704
1.433557325
1.440226975
1.448853944
1.458066473
1.46575731
1.472773338
1.479227872
1.483981296
1.486574278
1.488621442
1.572619442
1.56820318
1.563605884
1.559790251
1.557591429
1.554626667
1.550494901
1.545196879
1.537357971
1.52649401
1.512017975
1.496533556
1.481657843
1.468103294
1.45617493
1.445571419
1.436762537
1.431095208
1.426067986
1.422250483
1.419603127
1.417910469
1.418514107
1.421250518
1.426872322
1.433758387
1.440239319
1.447476146
1.455785613
1.463340508
1.468575159
1.474966146
1.572854353
1.569422652
1.565903878
1.562895862
1.560709178
1.558605362
1.556958901
1.553844668
1.548477312
1.540300047
1.530517335
1.518527078
1.505901093
1.492320293
1.478708452
1.465310339
1.453322612
1.443519025
1.435432151
1.42861217
1.423287194
1.419001721
1.415056917
1.412581022
1.413859663
1.416502081
1.419751506
1.424771916
1.431842818
1.439003786
1.445764693
1.456167228
1.574099495
1.571529659
1.569090604
1.566613941
1.56365312
1.561889555
1.560368103
1.557667337
1.554106161
1.548462779
1.54157656
1.534269782
1.525940318
1.516102924
1.50372752
1.48975277
1.475523447
1.462303595
1.45066048
1.440482903
1.431839383
1.425440223
1.419135669
1.414528597
1.412141505
1.410063998
1.408063501
1.409388323
1.41309785
1.417742886
1.422645633
1.432513725
1.575378737
1.575315445
1.573759207
1.569075595
1.566006326
1.564149122
1.56210542
1.5588678
1.555263302
1.552127897
1.548552159
1.543852919
1.537954633
1.531132609
1.522978371
1.512095369
1.498851901
1.48486911
1.471586869
1.459116969
1.447494624
1.437688876
1.428787479
1.420539474
1.416354962
1.412804449
1.408442742
1.404310206
1.404065524
1.404756557
1.406601169
1.41249583
1.582855802
1.579859378
1.574035667
1.570522603
1.568076
1.565783662
1.563628866
1.560492448
1.557306998
1.555360257
1.553304652
1.549566997
1.545055187
1.540347839
1.53485573
1.52680507
1.517288531
1.506436449
1.494509923
1.481475027
1.468671765
1.456285599
1.445317913
1.434311384
1.425667714
1.41978063
1.41379087
1.407974229
1.404607069
1.402198916
1.399522734
1.400627592
1.579168826
1.57796747
1.57667516
1.572497388
1.56997701
1.569552359
1.567486322
1.564148199
1.561351337
1.559516607
1.556887521
1.552897947
1.549051238
1.545555432
1.541587161
1.536015462
1.528698522
1.521710212
1.513348725
1.503337001
1.491568947
1.478771761
1.466098708
1.45377046
1.44215107
1.432536843
1.424709639
1.416361994
1.410494543
1.406258317
1.401592691
1.397040313
1.585255325
1.581035611
1.575159918
1.573820982
1.574586245
1.572928131
1.570518695
1.568140717
1.5655474
1.563383626
1.560417743
1.555673767
1.551455421
1.548211431
1.54529162
1.541620814
1.536663019
1.531627799
1.525545044
1.517916303
1.509554088
1.49957929
1.487977423
1.475421427
1.463204921
1.451427386
1.441222221
1.43102471
1.421441635
1.414267754
1.409243644
1.401044947
1.570172527
1.579125507
1.578417922
1.577906746
1.576312737
1.575776231
1.573809668
1.571365562
1.568930777
1.566215475
1.562785102
1.558208576
1.553268842
1.550256697
1.548022325
1.54506822
)
;

boundaryField
{
    inlet
    {
        type            fixedValue;
        value           nonuniform 0();
    }
    outlet
    {
        type            inletOutlet;
        inletValue      uniform 1;
        value           nonuniform List<scalar> 
68
(
1.397370821
1.404097803
1.409887541
1.41361075
1.415565035
1.417144093
1.419494602
1.42277453
1.428127615
1.434154469
1.441119444
1.448693327
1.456782829
1.464799673
1.472812451
1.480875921
1.488460157
1.494047767
1.49678914
1.496584766
1.494518187
1.48862572
1.474967695
1.456168188
1.432514782
1.412496805
1.400629013
1.397040373
1.401041053
1.387570806
1.387991482
1.388466606
1.38891313
1.389211355
1.389363783
1.389372657
1.38923832
1.389027937
1.388975484
1.389066993
1.389203135
1.389399817
1.389757098
1.390250125
1.390750878
1.391195527
1.39157125
1.391878465
1.39206548
1.392091915
1.391989378
1.391848343
1.391772601
1.391700038
1.391435566
1.390891491
1.390243471
1.389681012
1.389339171
1.389304092
1.389579379
1.390513321
1.391745692
1.392313511
1.392342775
1.39232774
1.392074776
1.391737472
)
;
    }
    bottom
    {
        type            slip;
    }
    top
    {
        type            slip;
    }
    obstacle
    {
        type            zeroGradient;
    }
    defaultFaces
    {
        type            empty;
    }
    procBoundary29to23
    {
        type            processor;
        value           nonuniform List<scalar> 
34
(
1.518173982
1.513168631
1.509835788
1.506858634
1.501977748
1.496266721
1.492373146
1.49116586
1.488027423
1.483610332
1.480448114
1.477659029
1.474614888
1.472051495
1.467769813
1.462449014
1.457906402
1.453021174
1.447520762
1.442065844
1.437103988
1.431045313
1.42422468
1.41847059
1.415482268
1.413237937
1.410789641
1.409615449
1.408180441
1.406186323
1.403197158
1.399109262
1.394665322
1.387223335
)
;
    }
    procBoundary29to28
    {
        type            processor;
        value           nonuniform List<scalar> 
70
(
1.524118665
1.525367892
1.526768644
1.528681296
1.530417795
1.531477398
1.53239875
1.526726662
1.526726662
1.527975773
1.529346535
1.530455481
1.53151601
1.532661886
1.533889704
1.535222566
1.53691869
1.539401331
1.5414459
1.542656656
1.543504068
1.544342171
1.545569519
1.546963962
1.54140317
1.54140317
1.543520008
1.544647924
1.545157026
1.545668771
1.546968997
1.548502662
1.55020617
1.552636724
1.554405225
1.555394212
1.555896981
1.556739587
1.558227094
1.560136519
1.562229604
1.5671139
1.572671696
1.577480679
1.583784817
1.591362582
1.594390915
1.591134927
1.582799394
1.553177846
1.510021875
1.470375269
1.452931404
1.454412634
1.462318193
1.47784283
1.50425983
1.531661345
1.550572725
1.560146875
1.56703446
1.572106574
1.573631333
1.57433243
1.576313392
1.577370058
1.578371807
1.585390483
1.577919701
1.56703127
)
;
    }
    procBoundary29to34
    {
        type            processor;