/*--------------------------------*- C++ -*----------------------------------*\
  =========                 |
  \\      /  F ield         | OpenFOAM: The Open Source CFD Toolbox
   \\    /   O peration     | Website:  https://openfoam.org
    \\  /    A nd           | Version:  7
     \\/     M anipulation  |
\*---------------------------------------------------------------------------*/
FoamFile
{
    version     2.0;
    format      ascii;
    class       volVectorField;
    location    "2.9";
    object      U;
}
// * * * * * * * * * * * * * * * * * * * * * * * * * * * * * * * * * * * * * //

dimensions      [0 1 -1 0 0 0 0];

internalField   nonuniform List<vector> 
80000
(
(3 -3.55902319e-16 0)
(3 8.299916369e-16 0)
(3 1.889018789e-15 0)
(3 2.874378669e-15 0)
(3 1.524785899e-15 0)
(3 1.162495436e-15 0)
(3 2.912825697e-15 0)
(3 7.573671499e-15 0)
(3 5.884693165e-15 0)
(3 4.352011162e-15 0)
(3 3.239572025e-15 0)
(3 4.616281323e-15 0)
(3 3.890391061e-15 0)
(3 6.072426221e-15 0)
(3 1.150652126e-14 0)
(3 7.792183307e-15 0)
(3 3.780868645e-15 0)
(3 2.436395052e-15 0)
(3 2.973392684e-15 0)
(3 1.40399806e-15 0)
(3 1.05703428e-15 0)
(3 -7.546017513e-16 0)
(3 -2.845914793e-15 0)
(3 -2.854124538e-15 0)
(3 -4.085593066e-15 0)
(3 -4.136890572e-15 0)
(3 -2.967672517e-15 0)
(3 -3.060889201e-15 0)
(3 -7.728326342e-16 0)
(3 -1.6969966e-15 0)
(3 -1.423136652e-15 0)
(3 1.721486395e-15 0)
(3 -7.63177721e-16 0)
(3 -9.374667034e-16 0)
(3 -5.262439195e-15 0)
(3 -1.821085494e-15 0)
(3 -2.488467505e-15 0)
(3 -3.818168289e-15 0)
(3 -3.709843506e-15 0)
(3 -5.08370433e-15 0)
(3 -8.10141774e-15 0)
(3 -1.118443217e-14 0)
(3 -9.272135192e-15 0)
(3 -8.723056461e-15 0)
(3 -6.986486001e-15 0)
(3 -4.529884056e-15 0)
(3 -3.189401642e-15 0)
(3 -3.138695478e-15 0)
(3 -1.769889338e-15 0)
(3 -2.057486224e-15 0)
(3 -3.414774058e-15 0)
(3 -1.960594152e-15 0)
(3 -8.107814939e-16 0)
(3 7.826274896e-16 0)
(3 9.572370475e-16 0)
(3 3.292052541e-15 0)
(3 7.819506828e-15 0)
(3 6.280811699e-15 0)
(3 3.709591972e-15 0)
(3 -1.282919627e-15 0)
(3 -9.799055136e-16 0)
(3 6.424504911e-16 0)
(3 -1.363428168e-15 0)
(3 -2.438113818e-15 0)
(3 -2.340329352e-15 0)
(3 -7.683851977e-16 0)
(3 -1.517485924e-15 0)
(3 -2.102747908e-15 0)
(3 -1.550467894e-15 0)
(3 -3.31763311e-15 0)
(3 -4.829448519e-15 0)
(3 -4.047116518e-15 0)
(3 -3.146579056e-15 0)
(3 -5.841365274e-15 0)
(3 -6.51497133e-15 0)
(3 -5.482259923e-15 0)
(3 -1.129911606e-15 0)
(3 3.475501154e-15 0)
(3 4.706770542e-15 0)
(3 4.358515408e-15 0)
(3 2.046072243e-15 0)
(3 -7.1702872e-17 0)
(3 -1.48834124e-15 0)
(3 -3.76714844e-15 0)
(3 -4.181339993e-15 0)
(3 -2.302939485e-15 0)
(3 -2.295157784e-15 0)
(3 -4.083463885e-15 0)
(3 -1.124074796e-14 0)
(3 -1.264435022e-14 0)
(3 -1.04155005e-14 0)
(3 -7.776521788e-15 0)
(3 -3.891094564e-15 0)
(3 7.607072876e-16 0)
(3 4.136395121e-15 0)
(3 7.946163532e-15 0)
(3 1.095907002e-14 0)
(3 1.02649739e-14 0)
(3 4.518504106e-15 0)
(3 5.397943928e-15 0)
(3 -1.452693307e-15 0)
(3 -4.785957842e-16 0)
(3 7.101957286e-16 0)
(3 3.85541011e-15 0)
(3 3.699749603e-15 0)
(3 6.341593185e-15 0)
(3 5.676346993e-15 0)
(3 7.003964414e-15 0)
(3 6.597527407e-15 0)
(3 5.769773651e-15 0)
(3 3.998406293e-15 0)
(3 5.487453847e-15 0)
(3 3.376489466e-15 0)
(3 6.317313843e-15 0)
(3 9.569302461e-15 0)
(3 7.501369762e-15 0)
(3 2.720432578e-15 0)
(3 1.958716602e-15 0)
(3 5.317196308e-16 0)
(3 -1.911400272e-15 0)
(3 -4.195178626e-15 0)
(3 -1.071969001e-14 0)
(3 -9.743149446e-15 0)
(3 -7.949506348e-15 0)
(3 -9.364818788e-15 0)
(3 -7.95498476e-15 0)
(3 -6.201707586e-15 0)
(3 -3.911629216e-15 0)
(3 -9.197203337e-16 0)
(3 1.00723589e-16 0)
(3 1.347933017e-15 0)
(3 5.473494968e-15 0)
(3 2.557716725e-15 0)
(3 3.200630398e-16 0)
(3 -8.300376004e-15 0)
(3 -6.16432802e-15 0)
(3 -5.720107308e-15 0)
(3 -5.558649731e-15 0)
(3 -5.327409526e-15 0)
(3 -4.867179718e-15 0)
(3 -7.697726753e-15 0)
(3 -8.792789722e-15 0)
(3 -8.717154414e-15 0)
(3 -7.975438786e-15 0)
(3 -7.315315601e-15 0)
(3 -6.000791412e-15 0)
(3 -3.553648455e-15 0)
(3 -3.373045688e-15 0)
(3 -3.561956651e-15 0)
(3 -5.225961931e-15 0)
(3 -3.852584903e-15 0)
(3 -2.971571508e-16 0)
(3 6.550802549e-15 0)
(3 7.248020139e-15 0)
(3 6.002646861e-15 0)
(3 6.075850937e-15 0)
(3 5.735782249e-15 0)
(3 4.381721444e-15 0)
(3 2.29616491e-15 0)
(3 -1.241299785e-15 0)
(3 -2.500664239e-15 0)
(3 -1.826712186e-15 0)
(3 -2.77340606e-15 0)
(3 -5.898261739e-15 0)
(3 -5.618180819e-15 0)
(3 -4.98807531e-15 0)
(3 -4.583405811e-15 0)
(3 -5.245443722e-15 0)
(3 -5.303609064e-15 0)
(3 -1.290276931e-14 0)
(3 -1.202729992e-14 0)
(3 -7.889838293e-15 0)
(3 -3.720213494e-15 0)
(3 -5.378404781e-15 0)
(3 -6.910152115e-15 0)
(3 -6.782598247e-15 0)
(3 -4.091658617e-15 0)
(3 -1.505178614e-15 0)
(3 -1.438870837e-15 0)
(3 3.940897029e-17 0)
(3 -8.884573121e-16 0)
(3 -1.38939369e-15 0)
(3 -4.296345882e-15 0)
(3 -9.621377786e-15 0)
(3 -9.473427228e-15 0)
(3 -6.611333816e-15 0)
(3 -6.506452863e-15 0)
(3 -1.557462406e-14 0)
(3 -2.862722327e-14 0)
(3 -2.111075658e-14 0)
(3 -1.266143365e-14 0)
(3 -6.808342827e-15 0)
(3 4.747340016e-15 0)
(3 1.281912551e-14 0)
(3 1.615151086e-14 0)
(3 2.088413032e-14 0)
(3 2.079801648e-14 0)
(3 1.596491259e-14 0)
(3 8.732110623e-15 0)
(3 1.019090271e-14 0)
(3 -5.231034914e-16 0)
(3 -5.727986226e-16 0)
(3 -1.419818952e-15 0)
(3 4.887972717e-15 0)
(3 4.430513882e-15 0)
(3 3.993757238e-15 0)
(3 1.476241154e-16 0)
(3 1.80277245e-15 0)
(3 5.05566623e-15 0)
(3 8.103506633e-15 0)
(3 8.920957037e-15 0)
(3 1.179970248e-14 0)
(3 1.427541115e-14 0)
(3 7.412383448e-15 0)
(3 4.431087803e-15 0)
(3 2.387168947e-15 0)
(3 1.838006901e-15 0)
(3 1.838092317e-15 0)
(3 2.809405125e-16 0)
(3 -3.112105346e-15 0)
(3 -3.448604174e-15 0)
(3 -2.309466272e-15 0)
(3 -1.965358843e-15 0)
(3 -2.404466861e-15 0)
(3 -6.059180888e-15 0)
(3 -7.036106789e-15 0)
(3 -5.836173706e-15 0)
(3 -3.115075901e-15 0)
(3 -3.772983589e-15 0)
(3 -1.505730842e-15 0)
(3 8.762723243e-16 0)
(3 -2.461253092e-16 0)
(3 -2.438318315e-15 0)
(3 -4.820237907e-15 0)
(3 -5.99721701e-15 0)
(3 -5.605257661e-15 0)
(3 -4.789039518e-15 0)
(3 -3.160408415e-15 0)
(3 -2.177664037e-15 0)
(3 -2.167871152e-15 0)
(3 6.487936175e-17 0)
(3 -2.913559888e-15 0)
(3 -6.462242129e-15 0)
(3 -8.381791565e-15 0)
(3 -8.259541552e-15 0)
(3 -6.806366928e-15 0)
(3 -6.914445591e-15 0)
(3 -6.606093472e-15 0)
(3 -8.525411684e-15 0)
(3 -9.708854885e-15 0)
(3 -5.42831209e-15 0)
(3 1.431517652e-15 0)
(3 3.572461982e-15 0)
(3 5.046287222e-15 0)
(3 6.075026504e-15 0)
(3 3.098586316e-15 0)
(3 2.635496386e-15 0)
(3 3.313409463e-15 0)
(3 2.351190814e-15 0)
(3 1.712681708e-15 0)
(3 -2.953682063e-16 0)
(3 -3.236816835e-15 0)
(3 -2.838748443e-15 0)
(3 -2.054877329e-15 0)
(3 -2.776261877e-15 0)
(3 -9.549043824e-15 0)
(3 -8.832144941e-15 0)
(3 -1.097025082e-14 0)
(3 -1.631098992e-14 0)
(3 -1.486209106e-14 0)
(3 -1.44519108e-14 0)
(3 -1.065643286e-14 0)
(3 -9.562118837e-15 0)
(3 -8.575440304e-15 0)
(3 -8.262789627e-15 0)
(3 -9.741499413e-15 0)
(3 -1.060814443e-14 0)
(3 -1.238785798e-14 0)
(3 -1.035840393e-14 0)
(3 -9.489680483e-15 0)
(3 -6.591494395e-15 0)
(3 -5.006120534e-15 0)
(3 -5.229027992e-15 0)
(3 -6.863922756e-15 0)
(3 -4.798681075e-15 0)
(3 -3.467269218e-15 0)
(3 -1.086323681e-14 0)
(3 -2.469725237e-14 0)
(3 -1.896590858e-14 0)
(3 -1.569747993e-14 0)
(3 -8.183423318e-15 0)
(3 1.415538078e-15 0)
(3 6.472998165e-15 0)
(3 1.240433896e-14 0)
(3 1.318448502e-14 0)
(3 1.164854351e-14 0)
(3 1.348934231e-14 0)
(3 1.271564091e-14 0)
(3 1.068538137e-14 0)
(3 6.393242468e-15 0)
(3 1.295316868e-15 0)
(3 1.475600401e-15 0)
(3 1.1720034e-15 0)
(3 1.671137474e-15 0)
(3 1.105823052e-15 0)
(3 1.17003527e-15 0)
(3 1.806796921e-15 0)
(3 3.55049384e-15 0)
(3 3.637584424e-15 0)
(3 4.055570907e-15 0)
(3 5.677228744e-15 0)
(3 5.514883538e-15 0)
(3 6.523743242e-15 0)
(3 7.143152981e-15 0)
(3 9.272141134e-15 0)
(3 9.986767251e-15 0)
(3 7.276826251e-15 0)
(3 4.356245842e-15 0)
(3 2.494019653e-15 0)
(3 -3.412697914e-15 0)
(3 -5.16680818e-15 0)
(3 -4.75713397e-15 0)
(3 -6.104464331e-15 0)
(3 -7.681495586e-15 0)
(3 -9.077706933e-15 0)
(3 -8.32559604e-15 0)
(3 -6.934621471e-15 0)
(3 -6.084129339e-15 0)
(3 -4.063678055e-15 0)
(3 -5.71871277e-15 0)
(3 -6.625020025e-15 0)
(3 -8.438360043e-15 0)
(3 -8.576764994e-15 0)
(3 -6.687798676e-15 0)
(3 6.239888649e-16 0)
(3 3.827715651e-15 0)
(3 2.735197881e-15 0)
(3 -2.011405046e-15 0)
(3 -2.256412038e-15 0)
(3 -5.249912587e-15 0)
(3 -3.579428736e-15 0)
(3 -5.62094209e-15 0)
(3 -6.878979203e-15 0)
(3 -7.883406389e-15 0)
(3 -5.621068539e-15 0)
(3 -5.927748225e-15 0)
(3 -7.186187633e-15 0)
(3 -5.896171045e-15 0)
(3 -6.409550305e-15 0)
(3 -8.788416763e-15 0)
(3 -8.752484353e-15 0)
(3 -8.745970568e-15 0)
(3 -8.168261534e-15 0)
(3 -4.377990102e-15 0)
(3 -1.182665683e-15 0)
(3 9.047841381e-16 0)
(3 3.903148232e-16 0)
(3 -4.464067761e-16 0)
(3 -1.515878853e-18 0)
(3 2.770894077e-15 0)
(3 5.112130001e-16 0)
(3 4.384295981e-16 0)
(3 1.174734258e-15 0)
(3 3.715586898e-16 0)
(3 -2.747889631e-15 0)
(3 -6.084647967e-15 0)
(3 -1.26272355e-14 0)
(3 -1.379825191e-14 0)
(3 -1.634555176e-14 0)
(3 -1.268502306e-14 0)
(3 -1.238018706e-14 0)
(3 -1.381195188e-14 0)
(3 -1.477744508e-14 0)
(3 -1.476063056e-14 0)
(3 -1.32571443e-14 0)
(3 -1.292654254e-14 0)
(3 -1.16951498e-14 0)
(3 -1.22457807e-14 0)
(3 -1.042565648e-14 0)
(3 -9.736056055e-15 0)
(3 -9.779636812e-15 0)
(3 -7.465700421e-15 0)
(3 -4.701146623e-15 0)
(3 -4.348437485e-15 0)
(3 -3.306706452e-15 0)
(3 -8.233179449e-15 0)
(3 -2.005358517e-14 0)
(3 -2.034041903e-14 0)
(3 -1.585045678e-14 0)
(3 -1.191310771e-14 0)
(3 -1.076948093e-14 0)
(3 -9.707140463e-16 0)
(3 7.563781341e-15 0)
(3 1.260555678e-14 0)
(3 1.024989901e-14 0)
(3 1.293550628e-14 0)
(3 1.133537007e-14 0)
(3 1.117282966e-14 0)
(3 1.30131489e-14 0)
(3 1.111099543e-14 0)
(3 4.921942987e-16 0)
(3 -4.690310629e-16 0)
(3 2.585380176e-17 0)
(3 -4.366209412e-15 0)
(3 -3.571015886e-15 0)
(3 -3.737664025e-15 0)
(3 -3.484523127e-15 0)
(3 -2.48220166e-15 0)
(3 -4.046314301e-15 0)
(3 -1.2254143e-15 0)
(3 2.510090226e-15 0)
(3 1.170172177e-15 0)
(3 3.472160451e-15 0)
(3 1.938126468e-15 0)
(3 3.897626945e-15 0)
(3 8.227116615e-15 0)
(3 8.421362473e-15 0)
(3 4.140336883e-15 0)
(3 1.663058355e-15 0)
(3 -1.60443129e-15 0)
(3 -4.193138507e-15 0)
(3 -6.340394449e-15 0)
(3 -8.854460548e-15 0)
(3 -1.420804148e-14 0)
(3 -1.418013855e-14 0)
(3 -1.143227e-14 0)
(3 -8.336342861e-15 0)
(3 -9.241191402e-15 0)
(3 -4.299113076e-15 0)
(3 -2.740748217e-15 0)
(3 -5.036544092e-15 0)
(3 -4.086886373e-15 0)
(3 -3.041302321e-15 0)
(3 -2.924953765e-15 0)
(3 -1.320159216e-15 0)
(3 3.581149942e-15 0)
(3 4.761337106e-15 0)
(3 -9.772628814e-16 0)
(3 -8.222431392e-15 0)
(3 -5.722432713e-15 0)
(3 -6.577603275e-15 0)
(3 -5.149310768e-15 0)
(3 -1.096134791e-15 0)
(3 3.219588725e-16 0)
(3 -5.362717664e-16 0)
(3 -3.648579493e-15 0)
(3 -1.957440714e-15 0)
(3 -1.228442826e-15 0)
(3 -1.59296303e-15 0)
(3 -3.248707512e-15 0)
(3 -6.089868699e-15 0)
(3 -7.650502962e-15 0)
(3 -6.829019096e-15 0)
(3 -7.793154471e-15 0)
(3 -4.639553705e-15 0)
(3 -2.028580792e-15 0)
(3 -8.019698501e-16 0)
(3 -8.524518411e-16 0)
(3 -1.215585791e-15 0)
(3 -1.840111406e-15 0)
(3 -1.989582878e-15 0)
(3 -3.483494926e-15 0)
(3 -2.358264014e-15 0)
(3 -4.782124333e-15 0)
(3 -4.901477109e-15 0)
(3 -1.013827491e-14 0)
(3 -1.233783816e-14 0)
(3 -1.24346169e-14 0)
(3 -1.262258201e-14 0)
(3 -1.231581181e-14 0)
(3 -1.067519194e-14 0)
(3 -1.119441193e-14 0)
(3 -1.175555191e-14 0)
(3 -9.935120902e-15 0)
(3 -8.771619761e-15 0)
(3 -8.700713718e-15 0)
(3 -7.526581851e-15 0)
(3 -7.236215137e-15 0)
(3 -7.558560563e-15 0)
(3 -7.044057683e-15 0)
(3 -9.817093504e-15 0)
(3 -8.146295777e-15 0)
(3 -7.189459609e-15 0)
(3 -7.193834908e-15 0)
(3 -1.014709947e-14 0)
(3 -1.81515741e-14 0)
(3 -2.068274148e-14 0)
(3 -1.856136549e-14 0)
(3 -1.395993692e-14 0)
(3 -5.753642637e-15 0)
(3 -2.923565003e-15 0)
(3 2.692102737e-15 0)
(3 9.26485224e-15 0)
(3 1.051536166e-14 0)
(3 1.074491214e-14 0)
(3 1.163518946e-14 0)
(3 9.021976895e-15 0)
(3 1.002633605e-14 0)
(3 1.343997465e-14 0)
(3 1.786750377e-14 0)
(3 -1.9410449e-17 0)
(3 1.602083138e-16 0)
(3 7.79453758e-17 0)
(3 -5.264067286e-15 0)
(3 -4.623424404e-15 0)
(3 -5.314331351e-15 0)
(3 -5.213982082e-15 0)
(3 -7.881194381e-15 0)
(3 -5.561506252e-15 0)
(3 -2.975819991e-15 0)
(3 1.39217449e-15 0)
(3 3.211563526e-15 0)
(3 2.869736384e-15 0)
(3 2.428426182e-15 0)
(3 1.807560488e-15 0)
(3 9.863417512e-17 0)
(3 2.533144598e-15 0)
(3 3.593754651e-15 0)
(3 5.210896024e-15 0)
(3 2.325764729e-15 0)
(3 2.77035453e-16 0)
(3 -2.261230205e-15 0)
(3 -4.478544358e-15 0)
(3 -5.603102187e-15 0)
(3 -5.981464241e-15 0)
(3 -5.73835904e-15 0)
(3 -4.277063984e-15 0)
(3 -5.525060611e-15 0)
(3 -7.551150039e-15 0)
(3 -4.71939163e-15 0)
(3 -2.188648375e-15 0)
(3 -2.101206174e-16 0)
(3 -2.909419515e-16 0)
(3 -8.156667821e-16 0)
(3 -2.417033463e-15 0)
(3 -4.339668902e-15 0)
(3 -3.199066834e-15 0)
(3 -1.000345794e-15 0)
(3 -4.605404211e-15 0)
(3 -7.139678776e-16 0)
(3 -2.529304227e-15 0)
(3 -3.143361432e-15 0)
(3 -6.429453725e-16 0)
(3 2.485383849e-15 0)
(3 8.252588658e-16 0)
(3 -1.093049397e-15 0)
(3 1.610204982e-15 0)
(3 3.691051747e-16 0)
(3 2.161051436e-16 0)
(3 3.372642208e-15 0)
(3 6.020970523e-16 0)
(3 -3.304062387e-15 0)
(3 -4.262951872e-15 0)
(3 -2.110615751e-15 0)
(3 -1.61620494e-15 0)
(3 -3.984053371e-15 0)
(3 -6.213933393e-15 0)
(3 -5.767317657e-15 0)
(3 -5.493200184e-15 0)
(3 -6.819650943e-15 0)
(3 -6.222013297e-15 0)
(3 -9.759884818e-15 0)
(3 -9.726665554e-15 0)
(3 -1.171237256e-14 0)
(3 -8.539138681e-15 0)
(3 -8.898607525e-15 0)
(3 -7.750897227e-15 0)
(3 -8.267669165e-15 0)
(3 -7.008548778e-15 0)
(3 -7.967041644e-15 0)
(3 -9.48253967e-15 0)
(3 -1.012719001e-14 0)
(3 -7.541053409e-15 0)
(3 -2.874485613e-15 0)
(3 1.114622215e-15 0)
(3 -2.421523183e-16 0)
(3 -1.197173711e-15 0)
(3 -2.869658892e-15 0)
(3 -3.877750869e-15 0)
(3 -6.70748793e-15 0)
(3 -1.034399491e-14 0)
(3 -9.960955103e-15 0)
(3 -9.495783755e-15 0)
(3 -1.351226798e-14 0)
(3 -1.994750575e-14 0)
(3 -2.437013055e-14 0)
(3 -2.314620904e-14 0)
(3 -2.261004228e-14 0)
(3 -1.949912547e-14 0)
(3 -1.2229171e-14 0)
(3 -3.069082271e-16 0)
(3 4.751190017e-15 0)
(3 4.747381982e-15 0)
(3 5.184504701e-15 0)
(3 8.217337165e-15 0)
(3 8.344939899e-15 0)
(3 9.29284181e-15 0)
(3 1.350416107e-14 0)
(3 2.000168598e-14 0)
(3 2.749959353e-14 0)
(3 -1.20396356e-15 0)
(3 1.678200467e-15 0)
(3 9.288831052e-16 0)
(3 6.083289109e-16 0)
(3 -3.95668217e-16 0)
(3 -9.417761142e-16 0)
(3 2.326911748e-15 0)
(3 -1.673419792e-15 0)
(3 1.871527911e-15 0)
(3 2.491909012e-15 0)
(3 1.624432031e-15 0)
(3 3.386754269e-15 0)
(3 2.174294708e-15 0)
(3 2.200565508e-15 0)
(3 9.170076359e-16 0)
(3 3.307445597e-16 0)
(3 -8.457085671e-17 0)
(3 3.19880635e-15 0)
(3 5.764203751e-15 0)
(3 5.03442054e-15 0)
(3 4.26634716e-15 0)
(3 7.965921615e-16 0)
(3 -3.174069285e-15 0)
(3 -1.799113341e-15 0)
(3 8.786833014e-16 0)
(3 -8.969116235e-16 0)
(3 -3.246485087e-15 0)
(3 -6.14712462e-15 0)
(3 -9.179682873e-15 0)
(3 -7.573826726e-15 0)
(3 -2.691850426e-15 0)
(3 -1.680009647e-15 0)
(3 -2.282827558e-15 0)
(3 -2.322489707e-15 0)
(3 -5.414157831e-15 0)
(3 -7.456505278e-15 0)
(3 -8.249589022e-15 0)
(3 -6.514394275e-15 0)
(3 -6.233905309e-15 0)
(3 -5.687310034e-15 0)
(3 -6.545887409e-15 0)
(3 -7.369525023e-15 0)
(3 -5.911083296e-15 0)
(3 -6.300597616e-15 0)
(3 -6.902282314e-15 0)
(3 -5.302989254e-15 0)
(3 -1.872016596e-15 0)
(3 3.02473274e-15 0)
(3 2.142189466e-15 0)
(3 2.631595949e-15 0)
(3 2.538131047e-16 0)
(3 -5.700512976e-15 0)
(3 -7.975928397e-15 0)
(3 -5.376822704e-15 0)
(3 -5.843629124e-15 0)
(3 -6.303578084e-15 0)
(3 -1.033932069e-14 0)
(3 -1.049189257e-14 0)
(3 -9.62119765e-15 0)
(3 -7.463077038e-15 0)
(3 -7.610993042e-15 0)
(3 -7.82334845e-15 0)
(3 -8.483960408e-15 0)
(3 -8.426661952e-15 0)
(3 -9.279419273e-15 0)
(3 -8.740657249e-15 0)
(3 -5.546426721e-15 0)
(3 -6.063459906e-15 0)
(3 -6.147250256e-15 0)
(3 -7.853593059e-15 0)
(3 -7.4343238e-15 0)
(3 -4.108750498e-15 0)
(3 -3.092792508e-15 0)
(3 -3.267671693e-15 0)
(3 -3.411441974e-15 0)
(3 -4.001089016e-15 0)
(3 -1.429072992e-15 0)
(3 -4.85029712e-15 0)
(3 -6.552656822e-15 0)
(3 -7.007866585e-15 0)
(3 -8.735825158e-15 0)
(3 -1.023123608e-14 0)
(3 -1.013876159e-14 0)
(3 -1.913323785e-14 0)
(3 -2.209674866e-14 0)
(3 -2.493196141e-14 0)
(3 -2.572059148e-14 0)
(3 -2.371826571e-14 0)
(3 -1.944500735e-14 0)
(3 -1.031002769e-14 0)
(3 -5.886340194e-15 0)
(3 -3.535980832e-15 0)
(3 -2.988152918e-15 0)
(3 -7.244998833e-16 0)
(3 5.599469057e-15 0)
(3 8.201479239e-15 0)
(3 1.154730183e-14 0)
(3 1.501367994e-14 0)
(3 2.096151195e-14 0)
(3 2.332578746e-14 0)
(3 -1.167843454e-15 0)
(3 -2.696998598e-15 0)
(3 5.651235892e-16 0)
(3 5.350555315e-15 0)
(3 3.948964813e-15 0)
(3 2.584639827e-15 0)
(3 4.004044843e-15 0)
(3 3.160458314e-15 0)
(3 2.955925093e-15 0)
(3 3.934704908e-15 0)
(3 2.823163275e-15 0)
(3 1.541389277e-15 0)
(3 3.222205782e-15 0)
(3 4.907583895e-15 0)
(3 3.360281276e-15 0)
(3 1.295928479e-15 0)
(3 -1.206389244e-15 0)
(3 -6.175814476e-16 0)
(3 -1.825772117e-15 0)
(3 1.156902688e-15 0)
(3 3.525399068e-15 0)
(3 4.374868579e-15 0)
(3 2.891996787e-15 0)
(3 2.199949066e-15 0)
(3 2.471304455e-15 0)
(3 2.128954591e-15 0)
(3 2.008765527e-16 0)
(3 -1.957658453e-15 0)
(3 -2.93426695e-15 0)
(3 -3.911214646e-15 0)
(3 -3.220174925e-15 0)
(3 -1.773749387e-15 0)
(3 -1.100750126e-15 0)
(3 -3.238365115e-15 0)
(3 -3.041996229e-15 0)
(3 -3.602832656e-17 0)
(3 -2.457190413e-15 0)
(3 -4.065312662e-15 0)
(3 -1.427663813e-15 0)
(3 -5.600961711e-16 0)
(3 -2.09110096e-15 0)
(3 -3.052246081e-15 0)
(3 -5.322906519e-15 0)
(3 -5.558525759e-15 0)
(3 -6.053084095e-15 0)
(3 -7.030930451e-15 0)
(3 -3.897365879e-15 0)
(3 -3.55773615e-15 0)
(3 -4.475333734e-15 0)
(3 -6.072622109e-15 0)
(3 -5.748713791e-15 0)
(3 -3.897641357e-15 0)
(3 -4.964887114e-15 0)
(3 -1.003755998e-14 0)
(3 -9.678751222e-15 0)
(3 -7.815635817e-15 0)
(3 -6.995642386e-15 0)
(3 -7.395843091e-15 0)
(3 -7.598506965e-15 0)
(3 -5.916288106e-15 0)
(3 -5.200872922e-15 0)
(3 -4.202587376e-15 0)
(3 -6.409567576e-15 0)
(3 -5.879932871e-15 0)
(3 -5.705407286e-15 0)
(3 -5.731470646e-15 0)
(3 -6.109172712e-15 0)
(3 -6.079269364e-15 0)
(3 -3.703184565e-15 0)
(3 -3.384343946e-15 0)
(3 -2.698451089e-15 0)
(3 -9.331520857e-16 0)
(3 -1.015885826e-15 0)
(3 -3.779293022e-15 0)
(3 -5.600937436e-15 0)
(3 -6.693151978e-15 0)
(3 -6.796638113e-15 0)
(3 -6.506613953e-15 0)
(3 -6.311008933e-15 0)
(3 -5.134162977e-15 0)
(3 -4.999458864e-15 0)
(3 -7.171147431e-15 0)
(3 -9.858931993e-15 0)
(3 -1.312670139e-14 0)
(3 -1.427036602e-14 0)
(3 -1.489030087e-14 0)
(3 -1.212604516e-14 0)
(3 -1.167135938e-14 0)
(3 -1.182970597e-14 0)
(3 -1.02334788e-14 0)
(3 -7.807407977e-15 0)
(3 -5.400133167e-15 0)
(3 -3.240485329e-15 0)
(3 -4.261281232e-16 0)
(3 5.896761504e-15 0)
(3 1.136967141e-14 0)
(3 1.279032892e-14 0)
(3 1.622603388e-14 0)
(3 1.82158125e-14 0)
(3 1.378965544e-14 0)
(3 3.245876201e-16 0)
(3 -2.925209911e-15 0)
(3 -1.045636491e-15 0)
(3 2.512956912e-15 0)
(3 5.292321214e-15 0)
(3 8.277202261e-15 0)
(3 6.550501144e-15 0)
(3 5.894482741e-15 0)
(3 2.307077802e-15 0)
(3 -2.297761942e-15 0)
(3 -1.888834249e-15 0)
(3 -2.68547393e-15 0)
(3 -1.196442284e-15 0)
(3 -1.888386795e-15 0)
(3 -3.570623575e-15 0)
(3 -4.304250968e-15 0)
(3 -3.303487379e-15 0)
(3 -3.326092389e-15 0)
(3 -4.737041835e-15 0)
(3 -3.895559375e-15 0)
(3 -3.28452312e-15 0)
(3 -3.758509416e-17 0)
(3 7.401008105e-15 0)
(3 6.14522559e-15 0)
(3 5.302938879e-15 0)
(3 6.133669979e-15 0)
(3 4.763713631e-15 0)
(3 3.979324457e-15 0)
(3 2.041787811e-15 0)
(3 9.278626252e-16 0)
(3 -1.722830916e-15 0)
(3 -3.005962222e-15 0)
(3 -1.465042107e-15 0)
(3 -1.220980579e-15 0)
(3 -1.851898598e-15 0)
(3 -2.364517638e-16 0)
(3 9.627018392e-16 0)
(3 9.918191943e-16 0)
(3 1.652000159e-15 0)
(3 2.145345482e-15 0)
(3 3.545899525e-15 0)
(3 2.546099257e-15 0)
(3 -3.51474742e-15 0)
(3 -3.044573853e-15 0)
(3 -4.514212035e-15 0)
(3 -4.525843656e-15 0)
(3 -8.454829562e-15 0)
(3 -1.147921126e-14 0)
(3 -1.024751673e-14 0)
(3 -8.444451457e-15 0)
(3 -6.556867985e-15 0)
(3 -1.823073722e-15 0)
(3 9.480730593e-16 0)
(3 -2.626444262e-16 0)
(3 -1.229874607e-15 0)
(3 -1.120111898e-15 0)
(3 1.175524425e-16 0)
(3 -1.381751128e-15 0)
(3 -3.869321315e-15 0)
(3 -5.923389515e-15 0)
(3 -6.005851816e-15 0)
(3 -6.561869843e-15 0)
(3 -9.483301273e-15 0)
(3 -8.848529951e-15 0)
(3 -4.386987953e-15 0)
(3 -1.367224034e-15 0)
(3 -1.695192214e-15 0)
(3 -8.192551895e-16 0)
(3 9.153075581e-17 0)
(3 1.567875994e-15 0)
(3 1.769643971e-15 0)
(3 -1.050584907e-16 0)
(3 -7.871240875e-16 0)
(3 -5.220122349e-16 0)
(3 -1.453412247e-15 0)
(3 -2.806601072e-15 0)
(3 -3.742437029e-15 0)
(3 -2.689123403e-15 0)
(3 -3.871695141e-15 0)
(3 -7.478987748e-15 0)
(3 -6.639185262e-15 0)
(3 -8.155020895e-15 0)
(3 -1.019010961e-14 0)
(3 -7.893697618e-15 0)
(3 -7.233282412e-15 0)
(3 -5.337785414e-15 0)
(3 -1.946006268e-15 0)
(3 -1.874461823e-15 0)
(3 -3.220595659e-15 0)
(3 -5.350685173e-15 0)
(3 -3.894519867e-15 0)
(3 -1.134645855e-15 0)
(3 1.405946586e-15 0)
(3 2.860046101e-15 0)
(3 2.969808955e-15 0)
(3 5.28630677e-15 0)
(3 6.47761123e-15 0)
(3 1.025945155e-14 0)
(3 1.428960374e-14 0)
(3 1.150458271e-14 0)
(3 1.670212389e-16 0)
(3 4.837585314e-16 0)
(3 -1.076302893e-15 0)
(3 -2.773832928e-15 0)
(3 -1.271444737e-15 0)
(3 -1.569911882e-15 0)
(3 -8.031714667e-16 0)
(3 7.892351843e-16 0)
(3 -4.647754465e-16 0)
(3 -3.584661526e-15 0)
(3 -4.217017587e-15 0)
(3 -4.983565072e-15 0)
(3 -5.086707915e-15 0)
(3 -4.657578386e-15 0)
(3 -3.680340111e-15 0)
(3 -1.684669695e-15 0)
(3 7.836508783e-16 0)
(3 1.811046124e-15 0)
(3 1.411997166e-18 0)
(3 -4.081597294e-15 0)
(3 -3.749816867e-15 0)
(3 -4.490379114e-15 0)
(3 -2.019372306e-15 0)
(3 1.277534547e-16 0)
(3 -4.129873325e-16 0)
(3 -1.146958512e-15 0)
(3 1.735488843e-15 0)
(3 2.667403764e-15 0)
(3 3.797224892e-15 0)
(3 2.222618709e-15 0)
(3 1.000656613e-15 0)
(3 -1.591592697e-15 0)
(3 -1.465580479e-15 0)
(3 -8.310366842e-16 0)
(3 2.275970689e-16 0)
(3 -1.445310322e-15 0)
(3 1.062909411e-15 0)
(3 1.314834325e-15 0)
(3 -8.187625166e-16 0)
(3 -5.223208274e-15 0)
(3 -3.092238365e-15 0)
(3 -2.232416119e-15 0)
(3 -4.472479377e-15 0)
(3 -9.94094223e-15 0)
(3 -9.782992718e-15 0)
(3 -4.211906361e-15 0)
(3 -6.575857993e-15 0)
(3 -5.802381848e-15 0)
(3 -4.831112451e-15 0)
(3 -7.887923934e-16 0)
(3 9.148706321e-17 0)
(3 -1.851198287e-16 0)
(3 7.082353965e-16 0)
(3 1.165224724e-15 0)
(3 -1.178246928e-15 0)
(3 -3.493094822e-15 0)
(3 -3.351280925e-15 0)
(3 -4.200922657e-15 0)
(3 -3.502224515e-15 0)
(3 -3.069629231e-15 0)
(3 -4.233325119e-15 0)
(3 -6.878450839e-15 0)
(3 -8.113343362e-15 0)
(3 -4.59890806e-15 0)
(3 -3.195277731e-15 0)
(3 1.879155585e-17 0)
(3 2.04057863e-15 0)
(3 1.849490406e-15 0)
(3 1.629659404e-15 0)
(3 2.252406166e-15 0)
(3 1.768724334e-15 0)
(3 1.817179516e-16 0)
(3 -9.242572784e-16 0)
(3 -7.294563496e-16 0)
(3 -5.108197417e-16 0)
(3 -6.685725069e-17 0)
(3 -1.160197802e-15 0)
(3 -4.667053248e-15 0)
(3 -6.74864774e-15 0)
(3 -1.003118891e-14 0)
(3 -9.662124456e-15 0)
(3 -1.249679536e-14 0)
(3 -1.54526812e-14 0)
(3 -1.33470638e-14 0)
(3 -5.746527483e-15 0)
(3 -1.218323183e-15 0)
(3 -9.836203412e-16 0)
(3 -2.021393896e-15 0)
(3 1.482453275e-15 0)
(3 2.205264922e-15 0)
(3 1.371442291e-15 0)
(3 1.632532188e-15 0)
(3 3.956266622e-15 0)
(3 5.657526323e-15 0)
(3 3.950915367e-15 0)
(3 2.078459475e-15 0)
(3 3.722136172e-15 0)
(3 1.06213676e-14 0)
(3 1.210478893e-14 0)
(3 7.317711131e-15 0)
(3 9.479688837e-16 0)
(3 1.022964303e-16 0)
(3 -3.402281184e-15 0)
(3 -2.536511846e-15 0)
(3 -4.492492258e-16 0)
(3 -3.634104243e-17 0)
(3 -1.543261036e-15 0)
(3 -1.833304088e-15 0)
(3 -2.78856996e-15 0)
(3 -2.69470162e-15 0)
(3 -7.934541939e-16 0)
(3 -1.926426801e-15 0)
(3 -3.470994276e-15 0)
(3 -2.206503743e-15 0)
(3 -4.395128414e-16 0)
(3 -3.307879177e-16 0)
(3 -5.171077821e-16 0)
(3 -2.35427853e-15 0)
(3 -4.835731952e-15 0)
(3 -5.471067452e-15 0)
(3 -3.894645174e-15 0)
(3 -4.719478958e-15 0)
(3 -4.836696802e-15 0)
(3 -2.746269768e-15 0)
(3 -1.859608107e-15 0)
(3 -1.948094615e-15 0)
(3 -3.95828966e-16 0)
(3 2.394892591e-15 0)
(3 2.937228186e-15 0)
(3 2.794308599e-15 0)
(3 2.315591564e-15 0)
(3 2.833262564e-16 0)
(3 -1.60093765e-15 0)
(3 -2.01564316e-15 0)
(3 -4.131950202e-16 0)
(3 -2.949568155e-15 0)
(3 -2.775172482e-15 0)
(3 -3.017197245e-15 0)
(3 -3.862427837e-15 0)
(3 -3.419796169e-15 0)
(3 -8.422276967e-15 0)
(3 -8.394329016e-15 0)
(3 -4.439010582e-15 0)
(3 -3.760580718e-15 0)
(3 -2.502457134e-15 0)
(3 -4.18850424e-15 0)
(3 -1.919252424e-15 0)
(3 -7.309261448e-16 0)
(3 -1.992532841e-16 0)
(3 -3.144980873e-15 0)
(3 -1.607709411e-15 0)
(3 -1.651465296e-15 0)
(3 -3.751225944e-15 0)
(3 -5.756311264e-15 0)
(3 -6.874304778e-15 0)
(3 -6.814738881e-15 0)
(3 -8.209499466e-15 0)
(3 -6.911757631e-15 0)
(3 -7.895485583e-15 0)
(3 -6.851108355e-15 0)
(3 -5.066053642e-15 0)
(3 -4.679614934e-15 0)
(3 -3.204031794e-15 0)
(3 -2.362681509e-15 0)
(3 -3.966958448e-15 0)
(3 -2.762754364e-15 0)
(3 -2.573516551e-15 0)
(3 -3.118951575e-15 0)
(3 -2.29024234e-15 0)
(3 -1.786984357e-15 0)
(3 -2.104819255e-15 0)
(3 -2.363367501e-15 0)
(3 -2.718116654e-15 0)
(3 -3.163872508e-15 0)
(3 -3.73175235e-15 0)
(3 -3.447019069e-15 0)
(3 -6.200096477e-15 0)
(3 -9.94594534e-15 0)
(3 -9.294533142e-15 0)
(3 -1.183754295e-14 0)
(3 -1.476033348e-14 0)
(3 -1.565204747e-14 0)
(3 -1.575506979e-14 0)
(3 -1.618669056e-14 0)
(3 -1.290076989e-14 0)
(3 -1.388539065e-15 0)
(3 1.12889765e-15 0)
(3 2.411289539e-15 0)
(3 4.662281412e-15 0)
(3 4.872229501e-15 0)
(3 3.500312038e-15 0)
(3 2.619050768e-15 0)
(3 3.674009724e-15 0)
(3 5.940200648e-15 0)
(3 7.381971664e-15 0)
(3 5.760985553e-15 0)
(3 7.555094969e-15 0)
(3 1.493346986e-14 0)
(3 1.703191633e-14 0)
(3 5.839433373e-15 0)
(3 1.638807598e-15 0)
(3 8.018365936e-17 0)
(3 -1.656270985e-15 0)
(3 -1.539390237e-15 0)
(3 -3.606799544e-16 0)
(3 1.136101124e-15 0)
(3 -9.544574103e-18 0)
(3 -2.915370122e-15 0)
(3 -1.708979313e-15 0)
(3 -1.16192882e-15 0)
(3 -1.124361246e-15 0)
(3 -2.151876743e-15 0)
(3 -1.719488269e-15 0)
(3 -2.534403942e-15 0)
(3 -5.139853672e-15 0)
(3 -8.184666997e-15 0)
(3 -6.588439056e-15 0)
(3 -7.338656009e-15 0)
(3 -3.557403109e-15 0)
(3 -1.443870857e-15 0)
(3 6.9742297e-16 0)
(3 3.228289263e-15 0)
(3 3.510284973e-15 0)
(3 2.024457501e-15 0)
(3 3.101002033e-15 0)
(3 4.441722063e-16 0)
(3 -6.934686515e-15 0)
(3 -2.648111058e-15 0)
(3 -2.504294305e-15 0)
(3 -9.794674101e-16 0)
(3 6.672377943e-16 0)
(3 1.406872999e-15 0)
(3 4.116030803e-16 0)
(3 -9.805147748e-16 0)
(3 -1.417181377e-15 0)
(3 -1.413571018e-15 0)
(3 -1.268146465e-15 0)
(3 -5.046871246e-16 0)
(3 1.461884884e-15 0)
(3 1.600681722e-15 0)
(3 4.862201684e-16 0)
(3 -1.326147259e-15 0)
(3 9.603820923e-17 0)
(3 3.050621825e-15 0)
(3 3.360589179e-15 0)
(3 3.860567883e-16 0)
(3 -1.029119025e-15 0)
(3 -3.880006333e-15 0)
(3 -4.006662786e-15 0)
(3 -7.779874995e-15 0)
(3 -1.041431631e-14 0)
(3 -9.101308493e-15 0)
(3 -8.218046886e-15 0)
(3 -6.33816645e-15 0)
(3 -3.29365808e-15 0)
(3 1.35143376e-15 0)
(3 1.481745215e-15 0)
(3 -9.51688472e-16 0)
(3 -4.197404171e-15 0)
(3 -5.867738106e-15 0)
(3 -7.325541195e-15 0)
(3 -6.097384227e-15 0)
(3 -4.617101301e-15 0)
(3 -4.789369691e-15 0)
(3 -8.838185285e-15 0)
(3 -8.594686174e-15 0)
(3 -7.877968279e-15 0)
(3 -8.720685526e-15 0)
(3 -9.208873463e-15 0)
(3 -6.558159345e-15 0)
(3 -3.965347444e-15 0)
(3 -5.573643594e-15 0)
(3 -8.007455153e-15 0)
(3 -7.684884426e-15 0)
(3 -6.741296933e-15 0)
(3 -8.425902271e-15 0)
(3 -1.032993008e-14 0)
(3 -1.111863316e-14 0)
(3 -1.284337443e-14 0)
(3 -1.194768968e-14 0)
(3 -1.133665567e-14 0)
(3 -8.80821913e-15 0)
(3 -8.035218167e-15 0)
(3 -8.743053692e-15 0)
(3 -7.820585765e-15 0)
(3 -4.039684427e-15 0)
(3 7.679882518e-16 0)
(3 4.339447552e-15 0)
(3 7.881407975e-15 0)
(3 7.838431381e-15 0)
(3 7.232680516e-15 0)
(3 6.890704916e-15 0)
(3 7.328472817e-15 0)
(3 4.778908384e-15 0)
(3 7.890415131e-15 0)
(3 1.128735658e-14 0)
(3 1.383806791e-14 0)
(3 2.06918431e-14 0)
(3 2.085997124e-14 0)
(3 1.488786877e-14 0)
(3 1.230938207e-16 0)
(3 2.883271062e-15 0)
(3 3.582391015e-15 0)
(3 -5.096706585e-16 0)
(3 -6.766489254e-15 0)
(3 -8.360202237e-15 0)
(3 -6.237089792e-15 0)
(3 -8.815168244e-15 0)
(3 -6.821148773e-15 0)
(3 -5.378981236e-15 0)
(3 -5.811282202e-15 0)
(3 -4.482285406e-15 0)
(3 -2.819398509e-15 0)
(3 -3.907467489e-15 0)
(3 -3.451368856e-15 0)
(3 -1.277972146e-15 0)
(3 -2.351034885e-15 0)
(3 -1.703003444e-15 0)
(3 1.626494228e-15 0)
(3 1.022346937e-15 0)
(3 6.021717207e-16 0)
(3 -1.093921225e-15 0)
(3 -2.191306085e-15 0)
(3 -1.970581462e-15 0)
(3 -3.330513774e-15 0)
(3 -4.0080529e-15 0)
(3 -2.775651161e-15 0)
(3 -2.207525138e-15 0)
(3 -4.649396721e-16 0)
(3 -6.260999855e-16 0)
(3 -2.011850056e-16 0)
(3 1.789828981e-15 0)
(3 2.198582333e-15 0)
(3 2.787556485e-15 0)
(3 2.406944743e-15 0)
(3 4.838869666e-15 0)
(3 4.48380215e-15 0)
(3 2.606424362e-15 0)
(3 3.133780465e-15 0)
(3 1.251149886e-15 0)
(3 -1.946555893e-16 0)
(3 -6.78428735e-16 0)
(3 -9.276180057e-16 0)
(3 1.800708796e-16 0)
(3 1.358381578e-15 0)
(3 -1.887981438e-16 0)
(3 -1.713925435e-15 0)
(3 -2.911012409e-15 0)
(3 -2.571919713e-15 0)
(3 -2.257364649e-15 0)
(3 -2.264779471e-15 0)
(3 -3.99301109e-15 0)
(3 -4.30262913e-15 0)
(3 -1.756510393e-15 0)
(3 1.331752188e-16 0)
(3 2.152014667e-16 0)
(3 3.340440106e-15 0)
(3 2.624482997e-15 0)
(3 3.922675768e-15 0)
(3 4.107233823e-15 0)
(3 1.489465344e-15 0)
(3 2.544149983e-15 0)
(3 -6.019119076e-17 0)
(3 3.973298661e-16 0)
(3 -2.848331482e-16 0)
(3 -3.944356495e-15 0)
(3 -4.207649791e-15 0)
(3 -5.850927288e-15 0)
(3 -8.74453062e-15 0)
(3 -9.478516812e-15 0)
(3 -8.082786098e-15 0)
(3 -5.857132084e-15 0)
(3 -6.244176509e-15 0)
(3 -7.60291912e-15 0)
(3 -8.955011168e-15 0)
(3 -1.033229594e-14 0)
(3 -9.737138713e-15 0)
(3 -7.823233805e-15 0)
(3 -1.174585717e-14 0)
(3 -1.057304134e-14 0)
(3 -9.31986261e-15 0)
(3 -7.725493202e-15 0)
(3 -7.832142567e-15 0)
(3 -7.480345406e-15 0)
(3 -7.466231957e-15 0)
(3 -6.728150661e-15 0)
(3 -3.537805423e-15 0)
(3 -1.989062138e-15 0)
(3 5.343097589e-16 0)
(3 2.285323308e-15 0)
(3 4.15199666e-15 0)
(3 5.576094862e-15 0)
(3 5.806573247e-15 0)
(3 5.610884617e-15 0)
(3 6.870010906e-15 0)
(3 9.003409697e-15 0)
(3 1.102346402e-14 0)
(3 1.454520997e-14 0)