/*--------------------------------*- C++ -*----------------------------------*\
  =========                 |
  \\      /  F ield         | OpenFOAM: The Open Source CFD Toolbox
   \\    /   O peration     | Website:  https://openfoam.org
    \\  /    A nd           | Version:  7
     \\/     M anipulation  |
\*---------------------------------------------------------------------------*/
FoamFile
{
    version     2.0;
    format      ascii;
    class       volScalarField;
    location    "2.4";
    object      rho;
}
// * * * * * * * * * * * * * * * * * * * * * * * * * * * * * * * * * * * * * //

dimensions      [1 -3 0 0 0 0 0];

internalField   nonuniform List<scalar> 
555
(
1.231641455
1.237777426
1.23873675
1.236705694
1.230788207
1.228350004
1.231415857
1.243526491
1.250593577
0.9511471853
1.206866546
1.222074459
1.237160389
1.247186201
1.246116637
1.240766926
1.23258011
1.229966075
1.234321815
1.244697653
1.250987603
0.9742252176
1.213402681
1.226005334
1.245829552
1.252046867
1.248665633
1.245716581
1.242132993
1.240321618
1.241737432
1.247557159
1.25485795
0.9629048304
1.195538719
1.221955325
1.25426999
1.257983077
1.254021044
1.25342329
1.257155279
1.251924299
1.249136198
1.252020582
1.261969466
0.9451758693
1.127846446
1.217989514
1.258268585
1.264375332
1.262713571
1.267631083
1.268401947
1.259534516
1.256266555
1.258088374
1.271285388
0.9232424326
1.068967762
1.184686305
1.251217757
1.274279269
1.277573764
1.280300001
1.276296072
1.265796568
1.262627721
1.26576265
1.278715651
0.914102252
1.037573195
1.156407483
1.239218733
1.281320547
1.290399576
1.289933081
1.282017529
1.272888751
1.270038311
1.275245008
1.285486465
1.291449324
0.9039264872
0.9985687324
1.138305113
1.235942954
1.285171381
1.295639889
1.295666674
1.289768329
1.28231735
1.279781154
1.28325315
1.290159773
1.297044102
0.8864215028
0.9554816103
1.088482205
1.221840273
1.28378392
1.298103155
1.294539211
1.296554865
1.295251585
1.291511749
1.290566793
1.294987219
1.303588404
0.8789123569
0.9308387643
1.025545708
1.175288923
1.266526045
1.295521197
1.298772825
1.306191326
1.30758272
1.302168262
1.299406605
1.301448651
1.311331262
0.8756491429
0.9155885501
0.9929834045
1.120159634
1.236983288
1.294965281
1.307842037
1.317483434
1.315442072
1.308447612
1.305542252
1.309477898
1.320546772
0.8649968402
0.900451241
0.9732126458
1.096589081
1.22378917
1.298177371
1.320060368
1.327099321
1.321941012
1.313527082
1.312228736
1.318304043
1.328180307
0.857562402
0.8871174868
0.9435202025
1.076964075
1.223673871
1.308119512
1.329520516
1.335132206
1.326014301
1.32177735
1.320845735
1.326606442
1.33566968
1.340776132
0.8541013871
0.8799462967
0.9187013896
1.025302381
1.196477496
1.308530887
1.336030541
1.338025972
1.334509758
1.332287614
1.331767223
1.335433704
1.342027804
1.348424368
0.8467835926
0.875322864
0.9079731206
0.9815147301
1.13355785
1.278306014
1.332137186
1.344034383
1.345469741
1.346036765
1.343649951
1.342793412
1.349364815
1.35605551
0.8423398136
0.8689327092
0.9004504096
0.9654002473
1.090954246
1.2384718
1.324905493
1.353782224
1.359262427
1.358420264
1.353677408
1.350913801
1.358744909
1.365127017
0.840393039
0.8630028611
0.888816356
0.9509516646
1.072560565
1.224578443
1.324958535
1.368422396
1.370891116
1.368969063
1.361033853
1.359788742
1.36873099
1.374659526
0.8370733514
0.8594047783
0.8816326288
0.9264405072
1.03891296
1.209874988
1.333309141
1.3783963
1.38073406
1.374381251
1.368479259
1.368808955
1.377371395
1.382295834
0.8315743353
0.8563213751
0.8790742148
0.9128625483
0.994295239
1.157225487
1.317941126
1.381537078
1.382299946
1.378147221
1.376471953
1.377833678
1.38354213
1.387836545
0.8281732765
0.8526191095
0.8759205084
0.9065963487
0.9720027315
1.100521645
1.264417587
1.361368081
1.381762311
1.384472513
1.386352761
1.386276393
1.388345351
1.394586351
1.397309279
0.8257721538
0.8493450815
0.870813041
0.8995666542
0.9583421002
1.068940296
1.221786405
1.342457088
1.384436823
1.3935175
1.395678591
1.392406116
1.394076732
1.401987442
1.404312621
0.8226020009
0.8468689458
0.8685125734
0.8924156172
0.938449683
1.041207737
1.198092378
1.334746342
1.389788252
1.403086206
1.402873016
1.396597628
1.400444942
1.408776248
1.409228061
0.8189011361
0.8445179289
0.8681777066
0.8890310926
0.9254994699
1.003418296
1.160244392
1.32568733
1.398433617
1.410250328
1.404320946
1.400033858
1.40642324
1.41276833
1.411767152
0.8155868691
0.8416099517
0.866766819
0.8873065858
0.9198701204
0.9799928973
1.105702448
1.290954459
1.39444982
1.41014043
1.404679237
1.403424063
1.410675557
1.413999613
1.41278107
0.8128655672
0.8382880982
0.8669148158
0.8848440071
0.9116341021
0.9681179314
1.072638021
1.236452147
1.361959535
1.404266369
1.406352117
1.406908129
1.411942475
1.414467813
1.414882956
0.8105527047
0.8346472111
0.8665272158
0.88246073
0.9053460607
0.9512597519
1.049039194
1.200701563
1.336311322
1.399045637
1.40964738
1.410203557
1.411704494
1.414820357
1.416670645
0.8084706011
0.8309311336
0.8655655637
0.8810079936
0.9031011467
0.9389846554
1.015686517
1.171783585
1.319167696
1.391881986
1.411163028
1.411701515
1.409699364
1.415473817
1.417435788
1.409678658
0.8065380722
0.8272206905
0.8645911623
0.8815689801
0.9034013994
0.9338305643
0.9878113602
1.121273442
1.292843307
1.391134886
1.412890595
1.408583989
1.40761381
1.415453438
1.416510237
1.40835705
0.8049707427
0.8235215458
0.8632720516
0.8807116193
0.9016599284
0.9280013206
0.9733049704
1.073552427
1.244202646
1.377589065
1.409652948
1.401697966
1.406680724
1.416148741
1.416396962
1.406922177
0.8038963203
0.8195554356
0.8629360573
0.8830310909
0.898332906
0.9217350213
0.960377108
1.04631425
1.193503727
1.336979567
1.396372018
1.397453907
1.408340114
1.414886136
1.415382958
1.405679466
0.803232641
0.8148271051
0.8588542093
0.8864641927
0.8971807516
0.9197243138
0.9478130584
1.021553408
1.157327889
1.303401651
1.38326798
1.398851979
1.406975127
1.410816245
1.413629173
1.404248055
0.8028161775
0.8104748409
0.8550213339
0.8897736452
0.8982614984
0.9185200077
0.9412066613
0.9928927224
1.117663273
1.276360191
1.366675846
1.397621823
1.404162442
1.405129484
1.411345227
1.40217004
0.8018063212
0.8067304664
0.8512830748
0.8914117446
0.899400613
0.9154592936
0.9360279542
0.9742257726
1.068386343
1.237722704
1.353813698
1.393622172
1.397701574
1.401068111
1.408534196
1.399610248
0.8003499924
0.8034254675
0.8477903013
0.8924258919
0.9009768812
0.9134418014
0.9291569054
0.9632455979
1.037341799
1.18080667
1.331122715
1.386119277
1.3887654
1.397810399
1.405412406
1.396412059
0.7998402722
0.8003854517
0.844395879
0.8930246676
0.9030069694
0.9135566764
0.9255873797
0.95156491
1.016342506
1.137603933
1.289601522
1.366821514
1.382527498
1.395797335
1.40224001
1.393172337
1.385198771
0.7996252185
0.7974882
0.8409835582
0.893246944
0.9037727705
0.9137364303
0.9237882247
0.9411247306
0.9874186652
1.111206273
1.262301373
1.351307614
1.380016138
1.392752475
1.399331391
1.391253939
1.382287219
0.8013093294
0.794885851
0.8373818105
0.893019998
0.9068049594
0.9133108045
0.9208188966
0.9335842792
0.966399698
1.072034924
1.240470895
1.342342171
1.379470431
1.389808295
1.396509564
1.389779949
1.379277254
0.8025128942
0.7927345589
0.8337233607
0.8922694404
0.9087275271
0.9120422307
0.918847266
0.9301021624
0.956054128
1.029544714
1.1899864
1.32628905
1.376092462
1.385194332
1.394040186
1.388789501
1.376286046
0.8041274288
0.7910934615
0.8300895289
0.8910902303
0.9095805514
0.912167576
0.9187634086
0.9282455115
0.946270958
)
;

boundaryField
{
    inlet
    {
        type            calculated;
        value           nonuniform 0();
    }
    outlet
    {
        type            calculated;
        value           nonuniform 0();
    }
    bottom
    {
        type            calculated;
        value           nonuniform 0();
    }
    top
    {
        type            calculated;
        value           nonuniform 0();
    }
    obstacle
    {
        type            calculated;
        value           nonuniform List<scalar> 
38
(
0.9511471853
0.9742252176
0.9629048304
0.9451758693
0.9232424326
0.914102252
0.9039264872
0.8864215028
0.8789123569
0.8756491429
0.8649968402
0.857562402
0.8541013871
0.8467835926
0.8423398136
0.840393039
0.8370733514
0.8315743353
0.8281732765
0.8257721538
0.8226020009
0.8189011361
0.8155868691
0.8128655672
0.8105527047
0.8084706011
0.8065380722
0.8049707427
0.8038963203
0.803232641
0.8028161775
0.8018063212
0.8003499924
0.7998402722
0.7996252185
0.8013093294
0.8025128942
0.8041274288
)
;
    }
    defaultFaces
    {
        type            empty;
    }
    procBoundary21to15
    {
        type            processor;
        value           nonuniform List<scalar> 
13
(
1.228869759
1.229865922
1.232394771
1.235151114
1.233947543
1.229788995
1.23162751
1.239682839
1.249704996
0.9674307849
1.255498585
1.218144831
1.218144831
)
;
    }
    procBoundary21to22
    {
        type            processor;
        value           nonuniform List<scalar> 
35
(
1.252035927
1.253100877
1.257361641
1.267315124
1.277019936
1.284440845
1.284440845
1.288425324
1.295326171
1.303047233
1.312848991
1.323094069
1.332244865
1.332244865
1.33726008
1.346111389
1.355093033
1.364128655
1.372490722
1.380258741
1.388995323
1.388995323
1.393047279
1.399768062
1.403930673
1.405169618
1.406166221
1.407981491
1.409453612
1.409453612
1.409719734
1.406868057
1.404350862
1.40198245
1.399572259
)
;
    }
    procBoundary21to27
    {
        type            processor;
        value           nonuniform List<scalar> 
18
(
1.001192802
1.129804571
1.292879553
1.367916832
1.379266645
1.39248134
1.388330381
1.373211182
0.8063021014
0.7897997375
0.8263342116
0.8896803904
0.9142490455
0.9130750394
0.9181078246
0.923654837
1.001192802
0.9336021695
)
;
    }
    procBoundary21to28
    {
        type            processor;
        value           nonuniform List<scalar> 8(1.396569135 1.392624416 1.388570761 1.388570761 1.394679009 1.391359336 1.387902563 1.383502179);
    }
}


// ************************************************************************* //
