/*--------------------------------*- C++ -*----------------------------------*\
  =========                 |
  \\      /  F ield         | OpenFOAM: The Open Source CFD Toolbox
   \\    /   O peration     | Website:  https://openfoam.org
    \\  /    A nd           | Version:  7
     \\/     M anipulation  |
\*---------------------------------------------------------------------------*/
FoamFile
{
    version     2.0;
    format      ascii;
    class       volScalarField;
    location    "2.7";
    object      p;
}
// * * * * * * * * * * * * * * * * * * * * * * * * * * * * * * * * * * * * * //

dimensions      [1 -1 -2 0 0 0 0];

internalField   nonuniform List<scalar> 5(0.836709374 0.8174935249 0.8204799252 0.8365514787 0.8229319068);

boundaryField
{
    inlet
    {
        type            fixedValue;
        value           nonuniform 0();
    }
    outlet
    {
        type            zeroGradient;
    }
    bottom
    {
        type            slip;
    }
    top
    {
        type            slip;
    }
    obstacle
    {
        type            zeroGradient;
    }
    defaultFaces
    {
        type            empty;
    }
    procBoundary21to15
    {
        type            processor;
        value           uniform 0.8245250603;
    }
    procBoundary21to16
    {
        type            processor;
        value           nonuniform List<scalar> 3(0.9512185966 0.9925829568 0.9918437666);
    }
    procBoundary21to22
    {
        type            processor;
        value           nonuniform List<scalar> 2(0.9560388597 0.9338390747);
    }
    procBoundary21to27
    {
        type            processor;
        value           uniform 0.8077910265;
    }
}


// ************************************************************************* //
