/*--------------------------------*- C++ -*----------------------------------*\
  =========                 |
  \\      /  F ield         | OpenFOAM: The Open Source CFD Toolbox
   \\    /   O peration     | Website:  https://openfoam.org
    \\  /    A nd           | Version:  7
     \\/     M anipulation  |
\*---------------------------------------------------------------------------*/
FoamFile
{
    version     2.0;
    format      ascii;
    class       volScalarField;
    location    "2.7";
    object      T;
}
// * * * * * * * * * * * * * * * * * * * * * * * * * * * * * * * * * * * * * //

dimensions      [0 0 0 1 0 0 0];

internalField   nonuniform List<scalar> 5(0.9752918875 0.9705261771 0.97164361 0.9751985243 0.9668760893);

boundaryField
{
    inlet
    {
        type            fixedValue;
        value           nonuniform 0();
    }
    outlet
    {
        type            inletOutlet;
        inletValue      nonuniform 0();
        value           nonuniform 0();
    }
    bottom
    {
        type            slip;
    }
    top
    {
        type            slip;
    }
    obstacle
    {
        type            zeroGradient;
    }
    defaultFaces
    {
        type            empty;
    }
    procBoundary21to15
    {
        type            processor;
        value           uniform 0.9674787675;
    }
    procBoundary21to16
    {
        type            processor;
        value           nonuniform List<scalar> 3(1.01526014 1.030011466 1.02985692);
    }
    procBoundary21to22
    {
        type            processor;
        value           nonuniform List<scalar> 2(1.016634358 1.005258387);
    }
    procBoundary21to27
    {
        type            processor;
        value           uniform 0.9586156102;
    }
}


// ************************************************************************* //
