/*--------------------------------*- C++ -*----------------------------------*\
  =========                 |
  \\      /  F ield         | OpenFOAM: The Open Source CFD Toolbox
   \\    /   O peration     | Website:  https://openfoam.org
    \\  /    A nd           | Version:  7
     \\/     M anipulation  |
\*---------------------------------------------------------------------------*/
FoamFile
{
    version     2.0;
    format      ascii;
    class       volScalarField;
    location    "4.2";
    object      rho;
}
// * * * * * * * * * * * * * * * * * * * * * * * * * * * * * * * * * * * * * //

dimensions      [1 -3 0 0 0 0 0];

internalField   nonuniform List<scalar> 
22
(
1.212428876
1.011162039
1.070117668
1.249410571
1.020139022
1.096562479
1.284979447
1.02945145
1.1334434
1.319212817
1.039989746
1.178975191
1.345957065
1.049695835
1.221754165
1.359228226
1.05243953
1.252992614
1.050269236
1.266506682
1.038557626
1.316281678
)
;

boundaryField
{
    inlet
    {
        type            calculated;
        value           nonuniform 0();
    }
    outlet
    {
        type            calculated;
        value           nonuniform 0();
    }
    bottom
    {
        type            calculated;
        value           nonuniform 0();
    }
    top
    {
        type            calculated;
        value           nonuniform 0();
    }
    obstacle
    {
        type            calculated;
        value           nonuniform List<scalar> 8(1.011162039 1.020139022 1.02945145 1.039989746 1.049695835 1.05243953 1.050269236 1.038557626);
    }
    defaultFaces
    {
        type            empty;
    }
    procBoundary15to9
    {
        type            processor;
        value           nonuniform List<scalar> 4(1.153113262 0.9962423804 1.045291654 1.045291654);
    }
    procBoundary15to10
    {
        type            processor;
        value           nonuniform List<scalar> 3(1.343083942 1.355713193 1.361319117);
    }
    procBoundary15to16
    {
        type            processor;
        value           nonuniform List<scalar> 7(1.363055731 1.355476641 1.348171592 1.357106518 1.357106518 1.351624654 1.352111543);
    }
    procBoundary15to21
    {
        type            processor;
        value           nonuniform List<scalar> 2(1.040895162 1.329739065);
    }
}


// ************************************************************************* //
