/*--------------------------------*- C++ -*----------------------------------*\
  =========                 |
  \\      /  F ield         | OpenFOAM: The Open Source CFD Toolbox
   \\    /   O peration     | Website:  https://openfoam.org
    \\  /    A nd           | Version:  7
     \\/     M anipulation  |
\*---------------------------------------------------------------------------*/
FoamFile
{
    version     2.0;
    format      ascii;
    class       volScalarField;
    location    "2.2";
    object      p;
}
// * * * * * * * * * * * * * * * * * * * * * * * * * * * * * * * * * * * * * //

dimensions      [1 -1 -2 0 0 0 0];

internalField   nonuniform List<scalar> 
2222
(
0.996547248
0.9972101617
0.9979949135
0.9994420859
0.9997520938
0.9988499353
0.9983810686
0.9984570585
0.9982755526
0.9979268128
0.9975410595
0.9975570887
0.9980163922
0.9986352232
0.9993264554
1.00021388
1.000822167
1.000424292
0.9998663552
0.9995405133
0.9995127778
0.9998940914
1.000170139
0.9999218863
0.9985478774
0.997147191
0.9965227949
0.9964078073
0.9966844759
0.9970596362
0.9972677038
0.9973126784
0.9971347237
0.9978680078
0.9964382611
0.9966745852
0.9970434509
0.9978453489
0.9984950983
0.9987450241
0.9984495368
0.9981224467
0.9977143044
0.9976944277
0.9975771046
0.9971325737
0.9967821076
0.9968664231
0.9976998741
0.9990272442
1.000093146
1.000683882
0.999972972
0.9990927382
0.9986299083
0.998817171
0.999987456
1.00030459
0.999371731
0.9984291317
0.9977612363
0.9975580704
0.9976684848
0.9979867667
0.9982099932
0.9975729177
0.9968628454
0.9966739114
0.9966212812
0.9961432192
0.9960031214
0.9961240687
0.9968607555
0.9978778159
0.9982030733
0.9981230189
0.9980180472
0.99804483
0.9974975143
0.9966729557
0.9966061416
0.9964854994
0.9965188019
0.9968797548
0.9978753839
0.9991825201
0.9993465846
0.9988046999
0.9983022759
0.9982042922
0.9990726239
1.000216199
1.000343868
0.9999783409
0.9991640403
0.9977357679
0.9978226242
0.9979951174
0.998262221
0.9980005204
0.9977758424
0.9976026136
0.9970185094
0.9959860923
0.996177011
0.9963472586
0.9965137516
0.9971598909
0.9977448878
0.9982489842
0.9984420426
0.9983888874
0.9978621158
0.9972943079
0.9970311372
0.996766288
0.9963545101
0.9963132155
0.9965440797
0.9972132556
0.9985929252
0.9988608224
0.9985341051
0.9980489802
0.9979035795
0.9992530482
1.000859033
1.000842034
0.9999499372
0.9989442889
0.9978868886
0.9982087511
0.9985864501
0.9989228011
0.9989573848
0.9987321745
0.9972397508
0.99672669
0.9967339898
0.9967514232
0.9968096308
0.9969713265
0.9975009123
0.9978573308
0.9980907638
0.998238624
0.9984466108
0.9983220038
0.9977576441
0.9973009447
0.9968759417
0.9967120192
0.9966760712
0.9967078823
0.9977828925
0.9988212545
0.9987075981
0.9980200685
0.9973072814
0.9975724929
0.9991049058
1.00037589
1.000490405
1.000091885
0.9990565203
0.9986439448
0.998959022
0.9996166333
0.9998960259
0.9991417707
0.9988389975
0.9981231557
0.997607336
0.9973744082
0.997384862
0.9973658587
0.9976569093
0.9977862988
0.9978611997
0.9980233802
0.9983432763
0.9986313808
0.998463985
0.9981562357
0.9978806476
0.9974736196
0.9970852356
0.9968560311
0.9972366336
0.9980314512
0.9982896859
0.9979600557
0.9971381991
0.99612459
0.9963928199
0.9984560124
1.000585275
1.000941116
1.000124056
0.9988655473
0.9985862471
0.9989639577
0.9993738615
0.9991564951
1.000269975
0.9994231489
0.9985269452
0.9981767587
0.9980369091
0.9980487503
0.99812568
0.9982529448
0.9982166291
0.9981920859
0.9981202342
0.9983813909
0.998820576
0.9989110541
0.9988496284
0.9984989214
0.9975476984
0.9973834186
0.9970467579
0.9973160025
0.9976356697
0.9976635456
0.9971971608
0.9962838283
0.9959260715
0.9963102821
0.9982573194
1.000239374
1.000460986
0.9991345635
0.9980845211
0.9978669452
0.9983452433
0.9992921951
1.001272017
1.000393469
0.9994187368
0.9987328724
0.9983936873
0.9984583157
0.9986326287
0.9989475097
0.9989403208
0.9987270684
0.9983375634
0.9983249929
0.9985917525
0.9990269038
0.9992930953
0.9993193292
0.9989255468
0.9984331861
0.99770918
0.9975443031
0.9974749484
0.9974087421
0.9972198068
0.9964779563
0.9953804492
0.9945494674
0.995539526
0.997763801
0.9997009388
0.9995359451
0.9984025593
0.9979225362
0.9981299526
0.9991101487
1.00128473
1.00105216
1.000049132
0.9990593915
0.9984918034
0.9985071883
0.9986032957
0.9989541984
0.9991931558
0.9991438274
0.998865561
0.9986471701
0.9983262821
0.9986029092
0.9989065541
0.9995117418
1.000024215
0.9995647182
0.9989912179
0.998228739
0.9978553923
0.9976189129
0.9974838484
0.9966738003
0.9959906133
0.9956110191
0.9956553655
0.9962148193
0.9980944118
0.9995064762
0.9992696457
0.9984641836
0.9980496281
0.9983345672
0.9989582587
1.000215058
1.000891985
1.000119819
0.9992687104
0.998652238
0.9983848959
0.9983271412
0.9983645809
0.9986752925
0.9989990327
0.9989212127
0.9987110064
0.9981906958
0.9981615818
0.9982527766
0.9988090423
0.999860225
1.00018922
1.000035955
0.9991515285
0.9985446732
0.9983381028
0.9981544766
0.9977657969
0.9972824572
0.99702609
0.9957497438
0.9957645672
0.996767733
0.9986341503
0.9996320264
0.9989507576
0.9980678786
0.9979646617
0.9974146163
0.9982021791
0.9990076738
0.9995187435
0.9994142669
0.9990173018
0.998529768
0.998243041
0.9980185417
0.9980831843
0.9982794213
0.998329011
0.9984897611
0.9982727423
0.9980115089
0.9978485951
0.9982267975
0.9988821875
0.9997598203
1.000317485
0.9999614472
0.9994061902
0.9991986166
0.9990259426
0.9988936685
0.9982692636
0.996932787
0.9960387308
0.9959867128
0.9962352519
0.997326378
0.9987753218
0.9991191513
0.9985841022
0.9982503221
0.9968927036
0.996759957
0.9972225198
0.9980701099
0.9988652967
0.9991735421
0.9988913944
0.9985030398
0.998211162
0.9979651642
0.9977819477
0.9978319776
0.9981890671
0.9984855087
0.9981836277
0.9979894315
0.9980937063
0.9983708865
0.9990657514
0.9996105347
0.9999690309
0.9998448298
0.9995756934
0.999563917
0.9994688198
0.9988497467
0.9982071282
0.9977033885
0.9966636136
0.9965647365
0.9968148759
0.9977808441
0.9989077997
0.9991178454
0.9987803253
0.9971821384
0.996710688
0.9964453053
0.9965241944
0.9976404662
0.9987720725
0.9991615395
0.9989709147
0.9986778233
0.9982299933
0.9978553307
0.9978130656
0.9980996205
0.9987137552
0.9986169247
0.9985073604
0.9983669253
0.9983507709
0.9986872817
0.9988879558
0.9992146012
0.9993245809
0.9992165166
0.9993165963
0.9994343532
0.9995515703
0.9994421089
0.999064274
0.9982791494
0.9974096259
0.9970331324
0.9974586269
0.9984154688
0.9990945007
0.9990032879
0.9978745915
0.9971938654
0.9963710722
0.9958696707
0.9965164782
0.9976316507
0.9989167093
0.9993160429
0.9990584419
0.9986184651
0.9981963605
0.998031479
0.998049489
0.9985807896
0.9988633822
0.998940236
0.9987469762
0.9986001555
0.9985396945
0.9983848491
0.9984507525
0.9986272722
0.9987216541
0.9988536173
0.9993560677
1.000105806
1.000342704
0.9997733471
0.999157788
0.9981311451
0.9976044804
0.9975949966
0.9980091979
0.9985128072
0.9988318303
0.9993506012
0.9979236913
0.9966704693
0.9960406236
0.9961980605
0.9965347615
0.9977671664
0.9991370634
0.9992013347
0.9989363087
0.9985954427
0.9981624015
0.9978963276
0.9979227304
0.9983525989
0.9986654554
0.9987320872
0.9987154937
0.9984207688
0.9982820555
0.9982599178
0.9984158955
0.9986543226
0.9987718494
0.9991145212
0.9998125039
1.000293933
1.000168901
0.9997205681
0.9990308222
0.998248126
0.9978706885
0.99791403
0.998062839
0.9986224448
1.000032539
0.9994125707
0.9977882162
0.9965114915
0.9960153031
0.9960161028
0.9965432084
0.9981028762
0.9991076009
0.9990854687
0.998880733
0.9981854177
0.9978010906
0.9973831131
0.9974523983
0.9976907247
0.9980893876
0.998406241
0.9984228043
0.9983727592
0.9984152076
0.9986000896
0.9987964095
0.9988439758
0.9988823127
0.999260092
0.9998360691
1.00014911
1.000018134
0.9996344725
0.9988666673
0.9982711322
0.9980101896
0.9981296476
0.9985519061
1.00051024
1.000087252
0.999080829
0.9975620152
0.9957891156
0.9957944074
0.9959978597
0.9969679321
0.9984450005
0.9988207126
0.9988346235
0.9984654117
0.9980611266
0.9974801965
0.997174445
0.9972747898
0.9975150395
0.9979370545
0.9982638176
0.9983731733
0.9986034436
0.9987978706
0.9987840239
0.9986570062
0.9984593241
0.9985739391
0.9990075602
0.9996302029
1.000042905
0.9998461429
0.9992708547
0.99864084
0.9982029899
0.9984131795
0.9986287781
1.000107805
1.000232337
0.9994782677
0.9987440586
0.9971588817
0.9958538202
0.995919203
0.99659843
0.9975381156
0.9981775504
0.9983619869
0.9985179756
0.9983781332
0.9978780396
0.9974499446
0.9974428822
0.997413627
0.9978745239
0.9980095844
0.9981556793
0.9985016189
0.9986348694
0.9984722209
0.9981998993
0.9978853948
0.9977802491
0.9979214255
0.9986544108
0.9994929398
0.999708043
0.9994131747
0.9989356041
0.9985208072
0.998689781
0.998733757
0.9991814177
0.9993510326
0.9993184186
0.9988434054
0.9985591477
0.9977889172
0.9967188125
0.9966327246
0.9971915266
0.9978049546
0.9980111993
0.998485338
0.9985348611
0.9984434015
0.9982958096
0.9981836259
0.9981315464
0.9980202205
0.9980086421
0.9980867436
0.9982182332
0.9981577304
0.9980611811
0.9978010402
0.9974564586
0.9972050656
0.9972112676
0.9976877236
0.998485575
0.9991577253
0.9994173945
0.999149779
0.9987941881
0.9987936048
0.9987628831
0.9985834134
0.9984452624
0.9985148418
0.9986382002
0.9992125401
0.9993775429
0.998672754
0.9975557668
0.997335805
0.9978476115
0.9980366673
0.9984553648
0.9984741276
0.9986015769
0.9988293302
0.9989223307
0.9990341401
0.9990160049
0.9988501715
0.9984377565
0.9981958659
0.9979943218
0.9978847576
0.9976743173
0.9973354088
0.9970678393
0.9970257802
0.997238627
0.9976463184
0.9983334358
0.9991043444
0.9991706839
0.9989145126
0.9987416681
0.9987135944
0.998299246
0.9979267185
0.9981574589
0.9986070405
0.9995678482
0.9998867058
0.999743326
0.9991562109
0.9981499947
0.9980419882
0.9982135752
0.9984739533
0.9982766228
0.9987230704
0.9990282926
0.9991488606
0.9993823117
0.9994756451
0.9994804555
0.9993207934
0.9985445102
0.9980301226
0.9979020353
0.9977518707
0.9976460895
0.9973450069
0.9970910586
0.9971083408
0.9972726064
0.9977711285
0.9985070583
0.9989063223
0.9989236306
0.9986746651
0.9985614239
0.9982359464
0.998097525
0.9983054058
0.9987742869
0.9998174109
1.000277298
1.000153593
0.9998816755
0.9992805093
0.9988036313
0.9987465808
0.9984103896
0.9982927804
0.9984891823
0.9987149493
0.9989864634
0.9993172298
0.999541889
0.999663125
0.9995717544
0.9993778887
0.9988732402
0.9986983579
0.9986532539
0.998650143
0.9984560483
0.9978712383
0.997290836
0.9972761917
0.9975768788
0.9979408245
0.9984399044
0.9988221762
0.9986389499
0.9983749884
0.9990429935
0.9990788985
0.9993785634
0.9994682489
0.9999257757
1.000238858
1.000187448
0.9999765646
0.9995961895
0.9992287762
0.9989878185
0.9985879669
0.9983082991
0.9981678528
0.998130376
0.9983123127
0.998551289
0.9988731237
0.9991976693
0.9995602424
0.9995686137
0.9994665482
0.9993452042
0.9991771013
0.9991498332
0.9991529548
0.9989440473
0.9983516743
0.9976700064
0.9974750428
0.9976590065
0.9980988698
0.9986485465
0.9986852462
0.9983131976
0.9999308955
0.9997816791
0.9998132664
1.000041849
1.00004738
0.9999917801
0.999822713
0.9996934245
0.9996631794
0.9995441764
0.9992736318
0.9989706447
0.9986080003
0.9983717099
0.9979595154
0.9977428022
0.9978160532
0.9979228941
0.9982006877
0.9984246051
0.9988666819
0.9994953809
0.9996276816
0.9994380997
0.9992572869
0.9992486678
0.9993154655
0.9992664305
0.9991139333
0.998659932
0.9979351202
0.9975979676
0.9979704186
0.9984151698
0.9987104089
0.998416223
0.9999998593
1.000071591
0.9999967378
0.9999776195
0.9999817801
0.9998266665
0.9993467427
0.9990351013
0.9990602943
0.9990789257
0.9989496324
0.9986762063
0.9985148365
0.998481394
0.9978498769
0.9974947019
0.9974610858
0.9975636696
0.9978062701
0.9980047831
0.9982739128
0.9988320358
0.9992926377
0.9991683095
0.9989370672
0.9988391759
0.9989126797
0.9991241549
0.9991397901
0.9989700368
0.9987163633
0.9981588299
0.9979362212
0.998183829
0.9985898923
0.9989074996
0.9997033638
0.9998357137
0.9995740745
0.9993718425
0.9992896853
0.9990361497
0.998674255
0.9986305147
0.9987158028
0.9987320998
0.9985145697
0.998320963
0.9983256258
0.9986810241
0.9983951168
0.9978268669
0.997437623
0.9973878557
0.997591717
0.9977614817
0.9979753475
0.9983017229
0.9986515415
0.9986831516
0.9984816872
0.9983048542
0.9982527774
0.9983691084
0.9987889674
0.9990135245
0.9989374056
0.998786596
0.9983467616
0.9981570565
0.9985569095
0.9991897318
0.9989380155
0.9990569675
0.9987967888
0.9983690237
0.9982843505
0.9981149876
0.9982537506
0.9984098053
0.9984818291
0.9984508742
0.9981937298
0.9980285946
0.998186424
0.998650108
0.9989034838
0.9988867094
0.9985554601
0.9983282026
0.9981209296
0.9978088415
0.9977078454
0.9979303254
0.9981961932
0.9983596197
0.9981777529
0.9979566958
0.9978268372
0.9978566538
0.9981573936
0.9984184698
0.9987073944
0.9987565271
0.9985938771
0.9983195429
0.998413296
0.9991526861
0.9982769477
0.9982700626
0.9979624673
0.9975036482
0.9974412223
0.9974723068
0.9978029253
0.9984475858
0.9987254404
0.998621501
0.9982717049
0.9981348202
0.9982071243
0.9984890136
0.9990082258
0.9993329029
0.9994031952
0.9993805081
0.999152773
0.9987043706
0.9979705902
0.9976460891
0.9978332046
0.9980938906
0.9980474214
0.9977253124
0.9974434179
0.9974043395
0.9976747561
0.9978848845
0.9980765853
0.9983766252
0.998454538
0.9983180542
0.9982934696
0.9988905412
0.9976400859
0.9974878102
0.9972329948
0.9968415754
0.9968086246
0.9968382567
0.9973530777
0.9984357737
0.9988919802
0.9989859562
0.9986909352
0.9984354815
0.998323298
0.9982518595
0.9986960968
0.999193885
0.9993919058
0.9995940834
0.9995798603
0.9992556255
0.9987876766
0.9981730819
0.9980467745
0.9982708079
0.9984818155
0.9982287194
0.9976063764
0.9972076749
0.9972558548
0.9974157603
0.9976382055
0.9979224551
0.9981383091
0.9982347578
0.9981651705
0.9983917825
0.9977702659
0.9971956597
0.9968086306
0.9966419632
0.9966244734
0.9968830586
0.9972953372
0.9980779474
0.9985819603
0.9988602421
0.9987070086
0.9984576826
0.9983170404
0.9980667779
0.9983250623
0.9987628499
0.9990734774
0.9994103211
0.9995257252
0.9993560291
0.9992157416
0.9989217521
0.9987102955
0.9986564194
0.9987726038
0.9987732155
0.9984275363
0.9978885571
0.9976485013
0.9976882091
0.9977165269
0.9977633148
0.9979847209
0.9982117536
0.9980949738
0.9979444048
0.9989789039
0.9978376564
0.9974482381
0.997387464
0.9975083071
0.9975891447
0.9975436116
0.9976540131
0.9978937702
0.9982971634
0.9983931733
0.9981919719
0.9980893002
0.9979533516
0.9979780805
0.9981710703
0.9985797308
0.9990380567
0.9992901993
0.9993475791
0.9993688235
0.9991785024
0.9988568913
0.998646796
0.9986485652
0.9988236859
0.9988146586
0.9985627555
0.9982272853
0.9982015923
0.998260784
0.9982207762
0.9981605631
0.9982863053
0.9982430896
0.9978579208
1.000136965
0.999391278
0.9987942142
0.9984930526
0.9985441749
0.9983567929
0.9982086098
0.9977432108
0.9974277636
0.9976247311
0.9977871778
0.9976765824
0.9976819431
0.9977354662
0.9976114915
0.997552622
0.9978566863
0.9984180569
0.9989211742
0.9992757558
0.9993690684
0.9991422743
0.998697378
0.9983973454
0.9984071177
0.9987175134
0.9989748913
0.9989369543
0.9985890838
0.9983555622
0.9984586785
0.9985358207
0.998461582
0.9984617561
0.9985132713
0.9982530192
1.000413845
1.000139364
0.9996418521
0.9991499501
0.9990222232
0.998749722
0.9986655543
0.9983070018
0.9978120389
0.9974915574
0.997344549
0.997242841
0.9973156481
0.9975154385
0.9974895984
0.997334177
0.9973999556
0.997735585
0.9982509668
0.9988480683
0.9991236674
0.9989561339
0.9985985156
0.9982667092
0.9982232179
0.998483086
0.9988408723
0.9990039198
0.9988075211
0.9984613383
0.9983742948
0.9984443724
0.998464862
0.9984679023
0.9986143451
0.9986661534
0.9997720592
0.9999249953
0.99963513
0.9992368486
0.9990497501
0.998781466
0.998850613
0.9988210292
0.9985924473
0.9982623156
0.9977954269
0.9974788252
0.99743297
0.9975448473
0.9975591756
0.9975639391
0.9974758455
0.9974584432
0.9976012339
0.9980732487
0.9985298679
0.9986504886
0.9985832025
0.9983564625
0.9982416783
0.9982453887
0.9985791938
0.9989414849
0.9989149417
0.9987014684
0.9983560388
0.9982257328
0.998222782
0.9982730144
0.9984919471
0.9987837425
0.9987209047
0.9989875285
0.998909142
0.9988011386
0.9985251611
0.9983566617
0.9984944201
0.9987404464
0.9989001759
0.9989386087
0.9987176636
0.9984712275
0.9983063743
0.9981629509
0.9979993976
0.9980091973
0.9980634601
0.9979600684
0.997573407
0.9974348817
0.9976991757
0.9981702777
0.9984727255
0.9985316794
0.9984705411
0.9982804364
0.9983249713
0.9986933973
0.9988549364
0.99883254
0.9985358507
0.9982359795
0.9981004557
0.99809268
0.9983353872
0.9988063293
0.9976872015
0.9977507382
0.997883319
0.9980078996
0.9978250796
0.9978822166
0.9981072844
0.9984797884
0.9988082494
0.9991307307
0.9992225914
0.9991547937
0.9990120389
0.9988631987
0.9986128936
0.9985380167
0.9986888419
0.9987201392
0.9984836391
0.9977850118
0.9973508107
0.9976964668
0.9982350517
0.9984848649
0.9984875981
0.9983878501
0.9982407071
0.9983551384
0.9985117189
0.9986062558
0.9986061731
0.9985266885
0.9984172854
0.9983542102
0.9984207406
0.9987872201
0.9968978595
0.9968124912
0.9968569143
0.9970090248
0.9971855204
0.9975545022
0.9979722672
0.9984114437
0.9987456892
0.9990441041
0.9990936951
0.9990315871
0.9989477918
0.9989731806
0.9989320474
0.9987757634
0.9989082221
0.999191014
0.9993372333
0.9989378121
0.9982630481
0.9978770298
0.9980136675
0.9982102494
0.9982121351
0.9982856186
0.9983379427
0.9982614664
0.9981524324
0.9981446053
0.9982898315
0.9984379297
0.9986369011
0.9988007586
0.9988037762
0.9989512955
0.9963839989
0.9964664317
0.9963927707
0.996235232
0.9962619452
0.9968216886
0.9975042466
0.9981312239
0.9986937977
0.9989391729
0.9990621888
0.9989711313
0.9988132647
0.9986347447
0.9986844205
0.9988214236
0.9988098253
0.998906961
0.9991146047
0.999335458
0.9994231925
0.9992658498
0.9986768663
0.998230323
0.9981635001
0.9980729816
0.998126179
0.9983298194
0.9983376493
0.9982019904
0.9979710538
0.9979134342
0.9980166454
0.9983279961
0.9986963914
0.9988675093
0.9990561305
0.9972876589
0.9967850642
0.9966155997
0.9963219347
0.9963184881
0.9969547406
0.9976072221
0.9982956381
0.9987770272
0.9990228821
0.9992178801
0.9991002921
0.998872436
0.9985297049
0.9983223387
0.9984081428
0.9986122924
0.9987012894
0.9988030426
0.9990312645
0.9993808771
0.9995013857
0.9992111034
0.99872961
0.9984269709
0.9982655895
0.9981635101
0.9981846448
0.998282326
0.9984187431
0.9983979068
0.9981750511
0.997954649
0.9980151286
0.998377116
0.9987378709
0.9989729634
0.9989873572
0.9977678422
0.9971242906
0.996572099
0.9966538274
0.9970479728
0.9975268449
0.9982198065
0.9985262607
0.9986905023
0.9988093364
0.9986883644
0.9986103195
0.9984037642
0.9981324366
0.9980723797
0.9982626124
0.9983705659
0.998592393
0.9988132328
0.9990430893
0.9992000855
0.9991889732
0.9989101491
0.9985477686
0.9984260501
0.9982837908
0.9980799464
0.9981322249
0.9983933523
0.9985658915
0.998575468
0.9984458392
0.998313211
0.998390873
0.998671769
0.9988518722
1.000221643
0.9989376145
0.9980528776
0.9972698338
0.9973394102
0.9973936546
0.9976257699
0.9982030512
0.9984054076
0.9984394305
0.9982978124
0.9981030007
0.9981804033
0.9981955787
0.9980545245
0.9980025932
0.9980470097
0.998133237
0.9983804768
0.9985612197
0.9987050101
0.9987993003
0.9989061351
0.998818316
0.9986035132
0.9985288627
0.9983827028
0.9981528522
0.998106403
0.9982586859
0.9984053479
0.998507624
0.998546915
0.9985264417
0.9984850729
0.9985667415
0.9986951467
1.000122574
0.9994000384
0.9986695094
0.9981953597
0.9982303647
0.9979600199
0.9978986559
0.9982224662
0.9984056694
0.9983512238
0.9980499404
0.9977990822
0.9979023681
0.9980174846
0.9979641087
0.9980223508
0.9979984881
0.9980920001
0.9982137102
0.9982736275
0.9983813883
0.9984588258
0.9986021295
0.9986909578
0.9987083063
0.9986370732
0.9984716908
0.9983462082
0.9982646309
0.9982720105
0.9982881912
0.99835861
0.9985017082
0.9985780451
0.9985110239
0.9984798857
0.9985889289
0.9993722185
0.9991562925
0.9986472821
0.9986385234
0.9986315183
0.9983688174
0.9983096995
0.9983998367
0.9985268286
0.9983343847
0.9979364607
0.9977751496
0.9978323637
0.9979403205
0.9979763411
0.998134974
0.9980960065
0.9981835208
0.9981724423
0.9981343511
0.9981875009
0.9981910788
0.9983132768
0.9985285814
0.9986773359
0.9986037196
0.9985113593
0.9985446985
0.9984526736
0.9983043501
0.9982519736
0.9983380685
0.9985547077
0.9986083735
0.9985098366
0.9984959891
0.9986659494
0.9983433707
0.9984426964
0.9983333234
0.9986325953
0.9985066337
0.9985230115
0.9987170713
0.9986805758
0.9987080728
0.9984349687
0.9980807459
0.9980389618
0.9979488249
0.9979714265
0.9980693979
0.9982329239
0.9982208058
0.9983118047
0.9982545556
0.9982194137
0.9982136167
0.9981353503
0.9981698462
0.9983883872
0.9985583431
0.9984936429
0.9985078074
0.9986282283
0.9985491203
0.9982896172
0.9981747008
0.9982446699
0.998430608
0.9984675061
0.9984630969
0.998616743
0.9989124644
0.9972676123
0.9975842451
0.9977985905
0.9981964125
0.9982323413
0.9986973822
0.9990452889
0.9989933089
0.9987714116
0.9985919514
0.9985386097
0.9985553978
0.998284688
0.9981506252
0.9982319027
0.9982402239
0.9983079681
0.9984830276
0.9985023361
0.9984544885
0.9983567436
0.9982557793
0.9982214501
0.9983519071
0.9984409042
0.998390303
0.998490049
0.9986064063
0.9985588007
0.9983134429
0.9981589025
0.9981389123
0.9981951072
0.9982688016
0.9984555028
0.9988053097
0.9991725898
0.9963792653
0.9968788922
0.9971541528
0.9976105142
0.9979037673
0.9987854052
0.9990470576
0.9990420187
0.9986489857
0.9986837554
0.9989361345
0.9989324846
0.9986961328
0.9985023838
0.9984066642
0.9982020143
0.998387286
0.9986578333
0.9987808217
0.9986894105
0.998541258
0.9984503862
0.9983798627
0.9984057873
0.9983711637
0.9983182876
0.9984327303
0.9984995173
0.9984715445
0.9983555988
0.9982750406
0.9981869373
0.99811505
0.9981818778
0.9985107985
0.9989249608
0.9992306735
0.9959259562
0.996598078
0.9968239207
0.9970886514
0.9979199104
0.9985248515
0.9985777778
0.9986295752
0.9984642865
0.9987358754
0.9990296391
0.9989513439
0.9989152184
0.9987530855
0.9984739071
0.998267617
0.998506508
0.9987972521
0.9989204384
0.9988057729
0.9986925396
0.998647098
0.9986090076
0.9985589715
0.9983481828
0.9982798306
0.9983571478
0.9983818299
0.9983968454
0.9984466902
0.9985052341
0.9984360483
0.9982504441
0.9982512114
0.9985887632
0.9989094361
0.9990612869
0.9960935708
0.996955988
0.9969153793
0.996931405
0.9975322313
0.9977508533
0.99791176
0.9982538838
0.9984997952
0.998944664
0.9991171993
0.9989035458
0.9988031946
0.9987211932
0.998478133
0.9984284517
0.9986508955
0.9988586055
0.9989276727
0.9988444486
0.998815939
0.9988311361
0.9988050903
0.9985906337
0.9983050824
0.9982434291
0.9982432395
0.9982719677
0.9983448237
0.9985372491
0.9987012497
0.9986275658
0.9984843419
0.9984998513
0.998595331
0.9986651939
0.9987900372
0.9966659691
0.9975811755
0.9971319169
0.9970468899
0.9971985166
0.9973692969
0.9977170231
0.9981650768
0.9989614093
0.99963623
0.9993540527
0.9989136835
0.9987271349
0.9985601805
0.9984357237
0.9985295941
0.9986508531
0.9988227794
0.9988927988
0.9988423403
0.998923432
0.9989237785
0.998743288
0.9984370608
0.9982545071
0.998189444
0.9981393889
0.998200625
0.9983193473
0.9985464807
0.9986418868
0.9986110411
0.9986671658
0.9987441245
0.9985427006
0.9984525714
0.998591279
0.9976352539
0.9980629052
0.9975003645
0.9973258878
0.9972311364
0.9973585983
0.9978639308
0.9986270825
0.9997198705
0.9993967464
0.9988915783
0.9984380894
0.9983683229
0.9984066842
0.9983910063
0.9985320439
0.9985260072
0.9987046113
0.9987665739
0.9987642118
0.9988971778
0.9988099548
0.9985415253
0.9983388544
0.9982588669
0.9981844163
0.9981417013
0.9982310329
0.9983735493
0.9984901821
0.9984787673
0.9985726457
0.9986801837
0.9986854611
0.99852251
0.9984125398
0.9985113773
0.9992451615
0.998787823
0.9984607826
0.9979725162
0.9977633677
0.9974971982
0.9978696679
0.9988479509
0.9994717044
0.9995916834
0.9992368459
0.9986504498
0.9982174534
0.9980315236
0.9979271133
0.9983710774
0.9985676981
0.9984005811
0.9984981745
0.998574806
0.9986297542
0.9986520821
0.9985667693
0.9984218951
0.9983933808
0.9983906216
0.998303372
0.998324411
0.9984137639
0.9984748795
0.9983891395
0.998331518
0.9984246787
0.9985454929
0.9985400796
0.9985067914
0.9985516243
0.9985912272
0.9995772448
0.9993631784
0.9989039371
0.9985648718
0.9982421178
0.9979803277
0.99864907
0.9995193407
0.9996833013
0.9995520102
0.9990947124
0.998446756
0.9980343045
0.9977743978
0.9976883436
0.9979559292
0.9981709909
0.9982096132
0.9982701153
0.9984301348
0.9986802926
0.9985904382
0.9984592095
0.9984347683
0.998624739
0.9986370801
0.9985657023
0.9985686159
0.9985034127
0.998421769
0.9982946147
0.9982296646
0.998260993
0.9982644342
0.9982878296
0.9985022388
0.9988062578
0.9988157761
0.999488107
0.9994499551
0.9991086185
0.9988494946
0.998600398
0.9987327583
0.9991970934
0.9997037213
0.9997691989
0.9994225922
0.9987170678
0.9980644078
0.9977827976
0.9976593651
0.9977008492
0.9979378132
0.9980329513
0.9980445179
0.9982045415
0.9984121454
0.9986561152
0.9986404189
0.9985125387
0.9985817696
0.9986909226
0.9987146173
0.9986570667
0.9985673769
0.9984455255
0.9983444005
0.998228338
0.9981422322
0.9981126396
0.9980520061
0.9981598765
0.9985391767
0.9989816518
0.9990706107
0.9984874735
0.9988612409
0.9989558245
0.9989427857
0.9988437902
0.9991687978
0.9994641412
0.9997664894
0.9996474744
0.9989802115
0.9981901985
0.997691141
0.9977547657
0.9977703813
0.9978254723
0.997934534
0.9979854749
0.9980652232
0.9983014591
0.9985286336
0.9987436625
0.9987385534
0.9986386994
0.9986436123
0.9986295274
0.9986346939
0.9986303182
0.9985366278
0.9983769281
0.998218845
0.9981410115
0.9981564081
0.9980875967
0.9980366569
0.9981364693
0.9986933747
0.9989429506
0.9991181854
0.9976650452
0.9980305146
0.9981948395
0.9982879625
0.9986251289
0.9992896114
0.9994815497
0.9994331496
0.9992112896
0.998143671
0.9976376565
0.9978646052
0.9980336011
0.9980707256
0.9980180598
0.9980033324
0.9980173722
0.9981577307
0.9984559103
0.9986990073
0.9988132732
0.9987869439
0.998709467
0.9986882979
0.9985889814
0.9985334079
0.9985152734
0.9984356302
0.998258146
0.9981510512
0.9981532069
0.9982167986
0.9982120037
0.9982177434
0.9984365482
0.9986006146
0.9987387217
0.9990397073
0.9970976843
0.9974685739
0.9974379147
0.9973835882
0.9979877648
0.9989590913
0.9990838606
0.9988170272
0.9983094856
0.9974402996
0.9976384763
0.9981213748
0.9984067522
0.9984861733
0.9983412952
0.9981323923
0.9980137791
0.99828462
0.9986751032
0.9988201192
0.9987054174
0.9986740628
0.9987150114
0.9986571381
0.9984965128
0.9984004437
0.9983848501
0.9983498955
0.9983512685
0.9982820649
0.9982804806
0.9983437232
0.9983957754
0.9985038182
0.9985799835
0.9985325174
0.9984842081
0.9987918493
0.9968630721
0.9971086791
0.9969216589
0.996791066
0.9975285297
0.9985843279
0.9985592079
0.9978745305
0.997421385
0.9972858503
0.9977238458
0.9984787882
0.9988181464
0.9988260962
0.9986639697
0.9984862766
0.9983353162
0.9986032844
0.9987785529
0.998705939
0.9985373981
0.9985351037
0.9986402133
0.998590831
0.9984567679
0.9983817658
0.9984122387
0.9984434128
0.998528278
0.9985877311
0.9985975139
0.9985276693
0.9985171987
0.9985582056
0.998577991
0.9983788786
0.9983421815
0.998636572
0.9969084126
0.9969854078
0.99668058
0.9966742112
0.9972808771
0.9981457224
0.9978777294
0.9969877894
0.9970892397
0.997370002
0.997837714
0.9984949309
0.99888843
0.998937333
0.9987899184
0.9986299623
0.9985475104
0.9987714804
0.9988304532
0.9987069347
0.9985992075
0.9985161063
0.998543795
0.9985675061
0.9985342471
0.9984839937
0.998516075
0.9986298572
0.9988154677
0.9988823228
0.9987491995
0.9985304823
0.9984484681
0.9984752853
0.9983880031
0.9982430968
0.9983685852
0.9985932031
0.9971114033
0.9968841891
0.9967221716
0.9968451328
0.9972026833
0.9975273041
0.9968510708
0.9967711335
0.9971750034
0.9975281901
0.9981338256
0.9985762095
0.9988267489
0.9987242985
0.9986581952
0.9985939112
0.9987007541
0.998903999
0.9989423712
0.9988161968
0.9986653568
0.9985627518
0.9985112647
0.9985817016
0.9986329854
0.9986085052
0.9986167251
0.9987633052
0.9989271897
0.998924358
0.9987628331
0.9984936603
0.998309364
0.9982451388
0.9981801997
0.9982748811
0.9984887008
0.9986089816
0.9974378681
0.9970317141
0.9969165234
0.997205608
0.9971952003
0.9967220422
0.9966171053
0.9969366943
0.9973743179
0.9981147517
0.9984022279
0.9986646016
0.998647561
0.9983185155
0.9983346639
0.9984313294
0.9986840238
0.9988422375
0.9988611678
0.9988316383
0.9987338701
0.9986111393
0.998515098
0.9985947096
0.9987015318
0.9987410863
0.9986845403
0.9986898318
0.998720355
0.9987438675
0.9985533935
0.9983408721
0.9982276853
0.9981838871
0.9982255068
0.998341134
0.9986699582
0.9986737947
0.9979637101
0.9973245796
0.9974077412
0.9977547039
0.9971424146
0.9965307811
0.9967949085
0.9971764729
0.997765029
0.9986537348
0.9986428311
0.9986416813
0.9981119195
0.9979594725
0.9981040471
0.9982789543
0.9984398896
0.9985936362
0.9987252608
0.9988429954
0.998794679
0.9986739766
0.9985557753
0.998528672
0.9987906972
0.9988229427
0.9986794374
0.9985425655
0.9984161318
0.9983039885
0.9983500557
0.9983597486
0.9983097912
0.9982304168
0.9982887339
0.9986416045
0.9987874905
0.9987124818
0.9986317532
0.9981798177
0.9981302053
0.9981072155
0.9968953267
0.9968117076
0.997317403
0.9977813052
0.9983287568
0.9989646501
0.9987258779
0.9982358205
0.9976987278
0.9978054522
0.9979856209
0.9980974177
0.998167561
0.9983637505
0.9986550671
0.9988796177
0.998869533
0.9987638354
0.998607928
)
;

boundaryField
{
    inlet
    {
        type            fixedValue;
        value           nonuniform 0();
    }
    outlet
    {
        type            zeroGradient;
    }
    bottom
    {
        type            slip;
    }
    top
    {
        type            slip;
    }
    obstacle
    {
        type            zeroGradient;
    }
    defaultFaces
    {
        type            empty;
    }
    procBoundary17to11
    {
        type            processor;
        value           nonuniform List<scalar> 
36
(
0.9977968067
0.9984644243
0.999542474
0.9998671515
0.9995072665
0.9985666285
0.9982535138
0.9985464563
0.9986513153
0.9988327961
0.9988962993
0.999085412
0.9996586313
1.000205383
1.00000083
0.9997962907