/*--------------------------------*- C++ -*----------------------------------*\
  =========                 |
  \\      /  F ield         | OpenFOAM: The Open Source CFD Toolbox
   \\    /   O peration     | Website:  https://openfoam.org
    \\  /    A nd           | Version:  7
     \\/     M anipulation  |
\*---------------------------------------------------------------------------*/
FoamFile
{
    version     2.0;
    format      ascii;
    class       volScalarField;
    location    "3.4";
    object      p;
}
// * * * * * * * * * * * * * * * * * * * * * * * * * * * * * * * * * * * * * //

dimensions      [1 -1 -2 0 0 0 0];

internalField   nonuniform List<scalar> 
22
(
0.7288203337
1.039686257
0.7307728545
0.9702586529
0.7171367085
0.9209529279
0.7047801454
0.8669013192
1.026242587
0.6943258913
0.823063902
1.003209635
0.6855423899
0.7856304296
0.9724317
0.6779113728
0.7497883872
0.9333347622
0.6700194517
0.720760857
0.8890434327
0.6562373146
)
;

boundaryField
{
    inlet
    {
        type            fixedValue;
        value           nonuniform 0();
    }
    outlet
    {
        type            zeroGradient;
    }
    bottom
    {
        type            slip;
    }
    top
    {
        type            slip;
    }
    obstacle
    {
        type            zeroGradient;
    }
    defaultFaces
    {
        type            empty;
    }
    procBoundary21to15
    {
        type            processor;
        value           nonuniform List<scalar> 2(0.7300655285 1.01397625);
    }
    procBoundary21to22
    {
        type            processor;
        value           nonuniform List<scalar> 7(1.045263189 1.043638829 1.035352717 1.035352717 1.020474238 1.018915295 1.019023002);
    }
    procBoundary21to27
    {
        type            processor;
        value           nonuniform List<scalar> 4(0.6968025828 0.8478203102 0.6968025828 0.6824812015);
    }
    procBoundary21to28
    {
        type            processor;
        value           nonuniform List<scalar> 2(1.01154273 1.001440682);
    }
}


// ************************************************************************* //
