/*--------------------------------*- C++ -*----------------------------------*\
  =========                 |
  \\      /  F ield         | OpenFOAM: The Open Source CFD Toolbox
   \\    /   O peration     | Website:  https://openfoam.org
    \\  /    A nd           | Version:  7
     \\/     M anipulation  |
\*---------------------------------------------------------------------------*/
FoamFile
{
    version     2.0;
    format      ascii;
    class       volVectorField;
    location    "3.4";
    object      U;
}
// * * * * * * * * * * * * * * * * * * * * * * * * * * * * * * * * * * * * * //

dimensions      [0 1 -1 0 0 0 0];

internalField   nonuniform List<vector> 
22
(
(2.667700659 -0.03093967395 0)
(2.760615594 -0.03830138278 0)
(2.741520013 -0.08286327721 0)
(2.798712393 -0.05249899397 0)
(2.837660792 -0.1214607254 0)
(2.878400097 -0.09793842703 0)
(2.896968158 -0.1692634356 0)
(2.940999886 -0.1398160906 0)
(2.931567874 -0.0172954481 0)
(2.932614763 -0.2120402447 0)
(2.984272996 -0.1662569446 0)
(2.968109747 -0.03736209315 0)
(2.95138714 -0.2464907074 0)
(3.010195947 -0.1962187126 0)
(3.009986978 -0.064383821 0)
(2.961974945 -0.2733653709 0)
(3.028771496 -0.2241448955 0)
(3.043679028 -0.09481955197 0)
(2.97751683 -0.3001895192 0)
(3.048225049 -0.2529669984 0)
(3.063706321 -0.1312041388 0)
(2.97520877 -0.3190462225 0)
)
;

boundaryField
{
    inlet
    {
        type            fixedValue;
        value           nonuniform 0();
    }
    outlet
    {
        type            inletOutlet;
        inletValue      nonuniform 0();
        value           nonuniform 0();
    }
    bottom
    {
        type            slip;
    }
    top
    {
        type            slip;
    }
    obstacle
    {
        type            slip;
    }
    defaultFaces
    {
        type            empty;
    }
    procBoundary21to15
    {
        type            processor;
        value           nonuniform List<vector> 2((2.663255866 0.0321062365 0) (2.757314619 0.03902839909 0));
    }
    procBoundary21to22
    {
        type            processor;
        value           nonuniform List<vector> 7((2.830857091 -0.000913590462 0) (2.846484509 -0.007790389637 0) (2.889135963 -0.0123437379 0) (2.889135963 -0.0123437379 0) (2.92847094 0.002732423601 0) (2.967802334 -4.399487157e-05 0) (2.999107499 0.003877220686 0));
    }
    procBoundary21to27
    {
        type            processor;
        value           nonuniform List<vector> 4((3.064291139 -0.2740968253 0) (3.072026079 -0.1628848005 0) (3.064291139 -0.2740968253 0) (2.966447605 -0.3229313416 0));
    }
    procBoundary21to28
    {
        type            processor;
        value           nonuniform List<vector> 2((3.01840848 -0.002952292776 0) (3.029342972 -0.01288172444 0));
    }
}


// ************************************************************************* //
