/*--------------------------------*- C++ -*----------------------------------*\
  =========                 |
  \\      /  F ield         | OpenFOAM: The Open Source CFD Toolbox
   \\    /   O peration     | Website:  https://openfoam.org
    \\  /    A nd           | Version:  7
     \\/     M anipulation  |
\*---------------------------------------------------------------------------*/
FoamFile
{
    version     2.0;
    format      ascii;
    class       volScalarField;
    location    "2.5";
    object      p;
}
// * * * * * * * * * * * * * * * * * * * * * * * * * * * * * * * * * * * * * //

dimensions      [1 -1 -2 0 0 0 0];

internalField   nonuniform List<scalar> 
5000
(
1
1
1
1
1
1
1
1
1
1
1
1
1
1
1
1
1
1
1
1
1
1
1
1
1
1
1
1
1
1
1
1
1
1
1
1
1
1
1
1
1
1
1
1
1
1
1
1
1
1
1
1
1
1
1
1
1
1
1
1
1
1
1
1
1
1
1
1
1
1
1
1
1
1
1
1
1
1
1
1
1
1
1
1
1
1
1
1
1
1
1
1
1
1
1
1
1
1
1
1
1
1
1
1
1
1
1
1
1
1
1
1
1
1
1
1
1
1
1
1
1
1
1
1
1
1
1
1
1
1
1
1
1
1
1
1
1
1
1
1
1
1
1
1
1
1
1
1
1
1
1
1
1
1
1
1
1
1
1
1
1
1
1
1
1
1
1
1
1
1
1
1
1
1
1
1
1
1
1
1
1
1
1
1
1
1
1
1
1
1
1
1
1
1
1
1
1
1
1
1
1
1
1
1
1
1
1
1
1
1
1
1
1
1
1
1
1
1
1
1
1
1
1
1
1
1
1
1
1
1
1
1
1
1
1
1
1
1
1
1
1
1
1
1
1
1
1
1
1
1
1
1
1
1
1
1
1
1
1
1
1
1
1
1
1
1
1
1
1
1
1
1
1
1
1
1
1
1
1
1
1
1
1
1
1
1
1
1
1
1
1
1
1
1
1
1
1
1
1
1
1
1
1
1
1
1
1
1
1
1
1
1
1
1
1
1
1
1
1
1
1
1
1
1
1
1
1
1
1
1
1
1
1
1
1
1
1
1
1
1
1
1
1
1
1
1
1
1
1
1
1
1
1
1
1
1
1
1
1
1
1
1
1
1
1
1
1
1
1
1
1
1
1
1
1
1
1
1
1
1
1
1
1
1
1
1
1
1
1
1
1
1
1
1
1
1
1
1
1
1
1
1
1
1
1
1
1
1
1
1
1
1
1
1
1
1
1
1
1
1
1
1
1
1
1
1
1
1
1
1
1
1
1
1
1
1
1
1
1
1
1
1
1
1
1
1
1
1
1
1
1
1
1
1
1
1
1
1
1
1
1
1
1
1
1
1
1
1
1
1
1
1
1
1
1
1
1
1
1
1
1
1
1
1
1
1
1
1
1
1
1
1
1
1
1
1
1
1
1
1
1
1
1
1
1
1
1
1
1
1
1
1
1
1
1
1
1
1
1
1
1
1
1
1
1
1
1
1
1
1
1
1
1
1
1
1
1
1
1
1
1
1
1
1
1
1
1
1
1
1
1
1
1
1
1
1
1
1
1
1
1
1
1
1
1
1
1
1
1
1
1
1
1
1
1
1
1
1
1
1
1
1
1
1
1
1
1
1
1
1
1
1
1
1
1
1
1
1
1
1
1
1
1
1
1
1
1
1
1
1
1
1
1
1
1
1
1
1
1
1
1
1
1
1
1
1
1
1
1
1
1
1
1
1
1
1
1
1
1
1
1
1
1
1
1
1
1
1
1
1
1
1
1
1
1
1
1
1
1
1
1
1
1
1
1
1
1
1
1
1
1
1
1
1
1
1
1
1
1
1
1
1
1
1
1
1
1
1
1
1
1
1
1
1
1
1
1
1
1
1
1
1
1
1
1
1
1
1
1
1
1
1
1
1
1
1
1
1
1
1
1
1
1
1
1
1
1
1
1
1
1
1
1
1
1
1
1
1
1
1
1
1
1
1
1
1
1
1
1
1
1
1
1
1
1
1
1
1
1
1
1
1
1
1
1
1
1
1
1
1
1
1
1
1
1
1
1
1
1
1
1
1
1
1
1
1
1
1
1
1
1
1
1
1
1
1
1
1
1
1
1
1
1
1
1
1
1
1
1
1
1
1
1
1
1
1
1
1
1
1
1
1
1
1
1
1
1
1
1
1
1
1
1
1
1
1
1
1
1
1
1
1
1
1
1
1
1
1
1
1
1
1
1
1
1
1
1
1
1
1
1
1
1
1
1
1
1
1
1
1
1
1
1
1
1
1
1
1
1
1
1
1
1
1
1
1
1
1
1
1
1
1
1
1
1
1
1
1
1
1
1
1
1
1
1
1
1
1
1
1
1
1
1
1
1
1
1
1
1
1
1
1
1
1
1
1
1
1
1
1
1
1
1
1
1
1
1
1
1
1
1
1
1
1
1
1
1
1
1
1
1
1
1
1
1
1
1
1
1
1
1
1
1
1
1
1
1
1
1
1
1
1
1
1
0.9999999999
1
1
1
1
1
1
1
1
1
1
1
1
1
1
1
1
1
1
1
1
1
1
1
1
0.9999999877
1
1
1
1
1
1
1
1
1
1
1
1
1
1
1
1
1
1
1
1
1
1
0.9999999999
1.000000006
0.9999996644
1
1
1
1
1
1
1
1
1
1
1
1
1
1
1
1
1
1
1
1
1.000000003
1.000000021
1.000000124
1.00000277
0.9999983487
1
1
1
1
1
1
1
1
1
1
1
1
1
1
1
1.000000001
1.000000007
1.000000047
1.00000026
1.000001235
1.000005515
1.000020824
1.000071332
1.000343804
1.000371473
1
1
1
1
1
1
1
1
0.9999999999
1
1
1.000000002
1.000000018
1.000000116
1.000000583
1.000002534
1.000009621
1.000032885
1.000107147
1.000308616
1.000872111
1.002090649
1.004910119
1.010381519
1.017145931
1
1
0.9999999999
0.9999999999
0.9999999999
0.9999999999
1
1.000000004
1.000000036
1.000000236
1.000001185
1.000005106
1.000018691
1.000061423
1.000183193
1.00048448
1.001223007
1.002768742
1.006127979
1.012054821
1.023428457
1.039436122
1.064830455
1.09806194
1.133966417
1
1
0.9999999998
1.000000002
1.000000039
1.000000332
1.000001961
1.000008868
1.000033857
1.000108324
1.000319278
1.000812187
1.001935221
1.004097287
1.00843757
1.015453936
1.028141668
1.046123232
1.073758469
1.107794864
1.151514367
1.197972614
1.249237449
1.300338644
1.34084464
1.000000009
1.000000162
1.000001708
1.000010644
1.000048258
1.00016997
1.000519644
1.001332297
1.003080989
1.006285179
1.012368987
1.021607879
1.036028116
1.055987625
1.084398311
1.11907807
1.164298828
1.213076615
1.257830616
1.305458823
1.346620855
1.38599041
1.410996711
1.433158007
1.44728041
1.000026446
1.000149336
1.000642517
1.00191589
1.004767901
1.00980737
1.018643868
1.031895559
1.050426455
1.074178336
1.106795912
1.142833324
1.184714551
1.231425945
1.280247302
1.333097313
1.380773755
1.413979503
1.435647307
1.462754669
1.474856614
1.483197399
1.488457354
1.493297817
1.493293329
1.003557043
1.011036002
1.025743123
1.04640865
1.072340449
1.101129301
1.138656116
1.175495439
1.208512773
1.249081722
1.288127144
1.319765219
1.351325611
1.381367073
1.404681595
1.421314705
1.436188661
1.452841677
1.471834197
1.484239167
1.495946714
1.495864011
1.49220512
1.487646397
1.486956306
1.055418288
1.121531164
1.191608135
1.259831582
1.323549906
1.38542223
1.435520529
1.478465932
1.523238533
1.563118748
1.575699157
1.591327891
1.609829032
1.612317077
1.605049629
1.589573657
1.569628438
1.551895984
1.535365166
1.518579342
1.500803621
1.486603844
1.477523011
1.470371117
1.466093863
1
1
1
1
1
1
1
1
1
1
1
1.000000016
1.000000608
1.000014048
1.000221318
1.002178637
1.014683923
1.063403173
1.181769497
1.36313944
1.517151073
1.659085457
1.718101993
1.690192433
1.591223878
1
1
1
1
1
1
1
1
1
1
1.000000013
1.000000505
1.000014176
1.000199517
1.002208464
1.012949091
1.056576984
1.138612051
1.245878375
1.339844145
1.451794319
1.524450862
1.604523382
1.598569436
1.546471465
1
1
1
1
1
1
1
1
1
1.000000011
1.000000451
1.000010868
1.000209633
1.001874313
1.014016768
1.051982051
1.142369297
1.239499136
1.291772574
1.312983736
1.349630155
1.404833275
1.471187813
1.521965107
1.48687438
1
1
1
1
1
1
1
1
1.000000008
1.000000373
1.000011329
1.000164378
1.002107729
1.012110841
1.057162612
1.14264417
1.232230156
1.302164375
1.316230332
1.313863174
1.306147551
1.305513482
1.309123656
1.352879646
1.34231348
1
1
1
1
1
1
1
1.000000007
1.000000285
1.000008902
1.000187058
1.00170045
1.01388083
1.052147834
1.143781038
1.260935597
1.29776858
1.312910618
1.315994829
1.304584526
1.27080155
1.216628591
1.179275694
1.181727493
1.204329892
1
1
1
1
1
1
1.000000004
1.000000279
1.000007477
1.000145286
1.002000841
1.011662642
1.057059803
1.149385465
1.238225356
1.317446194
1.325962362
1.322103165
1.305740007
1.264939879
1.210410021
1.147409349
1.080015879
1.053065336
1.067734679
1
1
1
1
1
1.000000004
1.00000016
1.000007017
1.00013082
1.001581368
1.01328902
1.052993792
1.145342313
1.272434414
1.299476112
1.319166889
1.325329945
1.309308805
1.266837474
1.206943632
1.13528647
1.082775637
1.014460558
0.970457912
0.949013163
1
1
1
1
1.000000001
1.000000143
1.000004161
1.000120332
1.00148834
1.011211587
1.056374475
1.149613644
1.246889922
1.333191284
1.335372594
1.329955464
1.311757467
1.266353495
1.199452758
1.134407849
1.062791063
1.010333337
0.958800608
0.9089917946
0.8654001055
1
1
1
1.000000001
1.000000063
1.000004118
1.000076971
1.00140396
1.010814954
1.052070078
1.146982072
1.277584358
1.311340882
1.33553948
1.337592959
1.316732598
1.265085183
1.198889674
1.120847582
1.058640714
0.9953724965
0.940126557
0.8971348456
0.8461984239
0.7948792827
1
1
1
1.000000058
1.000002054
1.000083399
1.000978195
1.010891444
1.049590674
1.149715757
1.26052463
1.3469595
1.346602876
1.340507004
1.317147544
1.265872363
1.189358597
1.116816047
1.043847782
0.9825663059
0.9311256244
0.8750732918
0.8390089015
0.7950698207
0.7642710522
1
1
1.000000017
1.000001994
1.000044716
1.001115902
1.008190586
1.052331817
1.146814904
1.269774009
1.32415941
1.354807323
1.351812042
1.323784915
1.263675641
1.187302892
1.105777062
1.033115621
0.9682129357
0.9068623136
0.8600790008
0.8095540709
0.7716952048
0.7428592829
0.7444349577
1
1.000000004
1.000000581
1.000044496
1.00065484
1.009243717
1.04451995
1.14797288
1.281763733
1.353920011
1.3492198
1.350217131
1.326064332
1.265460456
1.177397571
1.097152408
1.018228129
0.9544840158
0.8973911434
0.8392176465
0.8013568723
0.7655211178
0.745086501
0.735088068
0.7427756508
1
1.00000028
1.000015536
1.000666219
1.006244444
1.047162387
1.148851909
1.26236062
1.357028379
1.371641667
1.363611532
1.327192521
1.255531752
1.174315209
1.082575535
1.002528265
0.9344874648
0.8684676689
0.8216348591
0.7699170176
0.7378556604
0.7267619722
0.7303316092
0.7356149008
0.7895075471
1.000000002
1.000011028
1.00030388
1.006360179
1.03820364
1.142930017
1.303596446
1.345885807
1.365429073
1.367392678
1.333986922
1.260165526
1.164191352
1.069162616
0.9910189744
0.9144557188
0.855376407
0.8014947776
0.7609773539
0.7389765339
0.7221369836
0.7228022968
0.735937185
0.7760531714
0.8776980026
1.000000211
1.000255854
1.003806954
1.03800023
1.140775556
1.268922775
1.380275619
1.384392553
1.376087242
1.334559328
1.25414622
1.151089059
1.055859108
0.9681977245
0.8900648208
0.8237723152
0.7703976448
0.7299298538
0.7120348165
0.7175260919
0.7222366308
0.7462164668
0.8083191728
0.8746850908
0.944510776
1.000016353
1.003404066
1.029149528
1.131684192
1.309331187
1.358452952
1.383468631
1.382559232
1.340396185
1.250390668
1.139957845
1.039973836
0.9449202343
0.8755398493
0.8114707665
0.7508344972
0.725182965
0.7084244689
0.7063964906
0.7195493015
0.7599772735
0.8321737823
0.9187904318
0.9664137649
0.9870393404
1.000628151
1.026989285
1.12489219
1.273298889
1.40461642
1.406209382
1.395145277
1.343050046
1.242879088
1.128563373
1.01131675
0.9215847094
0.8404220912
0.7645805914
0.7269576251
0.6975776374
0.6997277159
0.7058288579
0.7290639122
0.7990954699
0.8755909217
0.9417692994
0.9617511449
0.9821462416
0.9947727019
1.011868141
1.115986732
1.309022205
1.376854597
1.409019314
1.405163528
1.350807177
1.237596221
1.110302934
0.9977939197
0.8957389015
0.8135232214
0.757602752
0.7095628183
0.685052733
0.6860550159
0.6968469375
0.7488777406
0.8316945448
0.9017139455
0.9541332461
0.9873883584
0.9848803644
0.9881700259
0.9937233438
1.091820729
1.277508187
1.429325
1.431907481
1.419710576
1.349323375
1.226368664
1.092918133
0.9576227192
0.857638048
0.7763969934
0.7064628316
0.6801155374
0.6816795869
0.6855255228
0.7123740603
0.7757057364
0.8702521801
0.9589677177
0.9776085165
0.9900989446
0.9974922154
0.9972318819
0.9947878359
0.9948782224
1.296494067
1.39480991
1.434346785
1.429823324
1.356622281
1.22402625
1.057688317
0.9444447257
0.8370759634
0.738247353
0.6974634285
0.6568794812
0.6586467255
0.6719876429
0.7338980486
0.8241874127
0.9219230456
0.9484266083
0.980618353
0.9886709348
0.9953544356
0.9987407365
0.9978700987
0.9970634034
0.99715087
1.449433361
1.465641056
1.448290501
1.361746549
1.19788377
1.039462355
0.8875624248
0.7609926856
0.7024621781
0.6494780376
0.6546495148
0.6570864415
0.6895924555
0.7666145587
0.867616295
0.9407014108
0.9903087335
0.9909029954
0.9923598964
0.9931137842
0.9939114344
0.9947423995
0.9956049924
0.9969281884
0.9990325412
1.469994267
1.462398129
1.36924096
1.195716036
0.9981546279
0.8485166335
0.7520003151
0.6678382799
0.6171926639
0.6187888491
0.6381408458
0.704623806
0.818740437
0.9334007002
0.9668741286
0.9809995975
0.9996898712
1.000722147
0.9971631408
0.9939291609
0.9929275604
0.9937788863
0.9952796657
0.9980572261
1.001090052
1.485312316
1.384574038
1.161071659
0.9471963408
0.7794211825
0.6559393209
0.6134415386
0.6134305992
0.6161096285
0.6529912785
0.7524181732
0.8778801678
0.9476749296
0.990599224
0.9962260042
0.9962698952
0.9972766324
0.9966630924
0.9947030754
0.9930963007
0.9942101609
0.9961914275
0.9981384234
1.001180007
1.001712964
1.405073653
1.152738129
0.9080845625
0.7323202184
0.6464790645
0.5726490314
0.5668051522
0.5876404205
0.6737361597
0.8317754241
0.9280905278
0.9785862244
0.9874000832
1.000268206
0.9996190716
0.9943797986
0.9915993256
0.9920399442
0.9928182836
0.9947120897
0.9976109204
0.9990011881
0.9989979293
0.9986314451
0.9984025167
1.090413356
0.65339292
0.5920963287
0.5712583264
0.5734492375
0.5715997379
0.6076531586
0.7466310623
0.9070229845
0.9559695992
0.9820249525
0.9990453132
0.9915256012
0.989995626
0.9914588187
0.9910316231
0.9915714302
0.9934790774
0.9953240182
0.9968955217
0.9984919169
0.9995283262
0.9999729974
1.000255767
1.000402017
0.5747568089
0.5164792913
0.5048930566
0.5305135751
0.5639439204
0.6004599431
0.7311110557
0.9348590729
1.007140993
0.9844549914
0.979725382
0.9920569357
0.983855502
0.9809974179
0.9845939268
0.9866197381
0.9881179008
0.9910734126
0.9952918678
0.9957731621
0.9938295371
0.9941321331
0.9948030064
0.9971307325
0.9992410362
0.5511911019
0.5133510137
0.5058522339
0.5330535878
0.5696997743
0.629702248
0.8004069077
0.9748434784
1.025179733
0.9958374154
0.9903725563
0.9988826318
0.9872276284
0.9796830854
0.9834654943
0.9855693406
0.986387876
0.9891440398
0.9946962372
0.9988870235
0.9973909825
0.9942433107
0.9932573532
0.9947698184
0.9974564846
0.5488768833
0.5100936952
0.5070636981
0.5345833648
0.5739275357
0.6526020743
0.842161716
0.9867393222
1.027366137
0.9984269081
0.9966270475
1.004156649
0.9930003979
0.9824189625
0.9844699819
0.9875773528
0.9883216045
0.9895238216
0.9950301158
1.000757202
1.00258092
1.00146141
0.9972508792
0.9949257161
0.9966801309
0.5444770123
0.5075619795
0.5108225613
0.5361456447
0.5844971626
0.684979598
0.8624404113
0.986325786
1.014082159
0.9934792124
0.9960316267
1.002809258
0.9921158509
0.9853380924
0.9879713695
0.9921611728
0.9954613562
0.9959665676
0.9974897974
0.9995737874
1.001728729
1.003506602
1.003539403
1.002162939
1.000678597
0.5408134782
0.5045499494
0.5158098314
0.5379594376
0.5973353089
0.7284996133
0.8960250034
0.9854170045
0.9992105493
0.9871143997
0.9886668346
0.9960062339
0.9877291594
0.9861568751
0.9889493692
0.9930169053
0.9974431523
0.9988449726
0.9975982814
0.9956412757
0.9971319811
1.001272462
1.00438885
1.004890157
1.003307228
0.5368802025
0.5038585905
0.519346882
0.544388217
0.6158271611
0.7664428496
0.9435072638
0.988608987
0.9909112868
0.9790621977
0.9805204667
0.9887543085
0.9831131655
0.9842288357
0.9866335901
0.9889154031
0.9935221836
0.9961117754
0.9955860358
0.9920224238
0.9917558042
0.9961027977
1.001373807
1.003723562
1.002732776
0.5325085667
0.5040749844
0.5223047333
0.5544799222
0.6446468786
0.8180632063
0.9784709961
1.004299514
0.9984194226
0.9797047626
0.9830121966
0.9897253618
0.982756121
0.9812636036
0.9832596619
0.983364306
0.9870406589
0.9913286943
0.9942094514
0.9939170646
0.9908984207
0.9919983502
0.9961263523
0.9993678414
1.000313902
0.5286888868
0.5065499463
0.5261441961
0.5670307167
0.6811517315
0.8859768628
0.9948084384
1.021737162
1.017059696
0.9893189156
0.9922319392
0.9943593325
0.9838419357
0.9798026685
0.9830719874
0.9845934643
0.9861578801
0.9903882302
0.9969468556
0.9999841517
0.998537581
0.9950539141
0.9937704558
0.9949148274
0.9982340539
0.5255915019
0.5086058483
0.5316122532
0.5837880386
0.7254962336
0.9245954135
0.9984022027
1.019988596
1.016210763
0.9909177556
0.9944278945
0.9951420519
0.982381225
0.9797001937
0.9855600903
0.9902956217
0.9916243112
0.9937222375
0.9988222206
1.00261607
1.003296727
1.001159716
0.9978413896
0.997206589
0.9985383437
0.5232653481
0.5115904089
0.5389633252
0.6084386529
0.7761972269
0.9323354962
0.9974819024
1.010531194
1.008536661
0.9881376282
0.9925888971
0.9940266063
0.9832065796
0.9818335219
0.9876709374
0.9933969942
0.9944798089
0.9948364533
0.9971853938
0.999670132
1.001146284
1.002026311
1.000463329
0.9994548935
0.9984965654
0.5220014968
0.5167387303
0.5487831352
0.6322377221
0.8142600237
0.9567211699
0.9963127254
0.9989758051
0.9965374551
0.9853936684
0.9913016205
0.9947584597
0.9875498736
0.9836264257
0.9876039055
0.9927675067
0.9949276589
0.9942923067
0.9950354267
0.9953527527
0.99707536
1.000055424
1.001436383
1.001135727
0.9991850631
0.522459253
0.5217599276
0.5624206999
0.6671630057
0.8692422929
0.9988819058
0.9989668918
0.9906421813
0.9852979756
0.9829067587
0.9909663485
0.9942390746
0.9878714171
0.9836480052
0.9858678245
0.989746955
0.99456113
0.9946163948
0.9934422123
0.9929429713
0.9939104993
0.9971287717
1.000795116
1.001738837
1.001360487
0.5243305389
0.5276051561
0.5802271846
0.7211533678
0.9656289986
1.009972448
1.006670986
0.9976766785
0.9874073419
0.9831438128
0.9901915796
0.9909935537
0.9853762511
0.9820290166
0.9828221854
0.987700226
0.9928410947
0.9949657459
0.9937488708
0.9938501553
0.9936660547
0.9963476491
1.000349213
1.001730674
1.003051969
0.5289292729
0.5370183479
0.5998142095
0.7754195826
1.015809219
1.013326974
1.012600713
1.011628361
1.000106797
0.985030278
0.9891744862
0.9892958226
0.9817232152
0.9789037384
0.9819622065
0.986033072
0.9906497186
0.9947209164
0.9966198503
0.9982718702
0.9967997205
0.9961964938
0.9977839372
1.000447171
1.001663044
0.5318775279
0.5480740686
0.6283878247
0.8415021354
1.014387254
1.017232857
1.013738544
1.012200996
1.006231542
0.987271175
0.9894384032
0.9874312983
0.9795083334
0.9790232046
0.9856885127
0.9887683152
0.9910805881
0.9943410574
0.9991997428
1.001028083
1.000283107
0.9983021777
0.997205957
0.9987802919
0.9999380136
0.5377720934
0.5593805538
0.66532441
0.8979039559
1.032509042
1.018139121
1.007047385
1.002003023
1.002320322
0.9915327532
0.9922857229
0.9890498533
0.9812025275
0.9817783529
0.9894366267
0.9920083617
0.9924695494
0.9948209993
0.9999330351
1.002450196
1.001329813
0.9995715348
0.9981413054
0.9974304964
0.9966148258
0.5437759907
0.5738789093
0.7127915033
0.9390677211
1.047566291
1.017309459
0.9873521035
0.9838351054
0.9906169764
0.9882881968
0.9944919373
0.9922021187
0.9845038621
0.9846435663
0.9921990538
0.9949503075
0.9942290545
0.9920984157
0.995541124
1.000261843
1.002166731
1.00149538
0.9998501212
0.998387208
0.9967325968
0.5520576302
0.5908008509
0.7689627648
1.003571775
1.046773438
1.005693106
0.978367766
0.9790334776
0.9852727688
0.9889872832
0.9970318033
0.9955042959
0.9861164837
0.9827612558
0.9893454774
0.993895542
0.9937802084
0.9916976864
0.9922160877
0.9941973785
0.9979202528
1.001144589
1.001627048
1.000941876
0.9993517084
0.5617991691
0.6150966389
0.8403514807
1.059930758
1.043977943
1.004578903
0.9852826023
0.9870582556
0.9877907848
0.9877099473
0.99311566
0.9904626682
0.9817800408
0.979808109
0.9851672489
0.9915228127
0.9935921013
0.9925611017
0.9918947104
0.9931617045
0.9953668049
0.9985787959
1.001542114
1.002576719
1.002829791
0.5698123402
0.6555840487
0.9151019799
1.079057173
1.057531081
1.009838493
0.9980771771
1.001236982
0.9927486376
0.983140629
0.9877861899
0.9859996895
0.9800352328
0.9810119042
0.985808913
0.9917059182
0.9948769698
0.994832015
0.9940852301
0.9943374246
0.9950386666
0.9972477643
1.0010739
1.003300362
1.00370717
0.5795183533
0.7161423874
0.9775955192
1.093749
1.059739767
1.009987717
1.002079973
1.006096913
0.990927243
0.9784143151
0.9840255906
0.9860963249
0.9816964444
0.9807848698
0.987149327
0.9925869588
0.9951932405
0.9948176744
0.9942451369
0.9973802343
0.9978464512
0.9987326274
1.000783126
1.002524162
1.003035254
0.5910063479
0.7748259782
1.026427843
1.095573866
1.04787471
0.9921136713
0.9921525273
1.002366494
0.993757035
0.9829304562
0.9879138677
0.9849013683
0.9812531771
0.9795360213
0.9877384236
0.9910757688
0.9916628172
0.9908268959
0.9949704601
0.9995727439
1.000026763
0.9985885945
0.99854588
0.9991054901
0.9996019835
0.6051916404
0.8262754211
1.06814146
1.079710824
1.023360462
0.9730074533
0.9750215543
0.9930749966
0.9981029277
0.9917295386
0.9959289737
0.9867376271
0.9807021611
0.9847344248
0.9927873924
0.9913891063
0.9918251381
0.9928624471
0.9979677315
1.000783952
0.9990043117
0.9974224045
0.9965749193
0.9975661401
0.9968577408
0.5997005334
0.8842425947
1.085099682
1.084674463
1.013135691
0.9682367196
0.9725469086
0.985319314
0.9966991122
0.9957864702
0.9999542858
0.9890045676
0.9814588902
0.9877289393
0.9955660455
0.9936598596
0.9933106246
0.9940642255
0.9981879966
1.00037141
0.9992830794
0.9996454276
0.9990185769
0.9997797105
0.9991852362
0.6281136693
0.9728432708
1.106848122
1.076354952
1.005096941
0.9760486348
0.9803080445
0.9901792301
0.989405336
0.9891624213
0.9958550694
0.9863672821
0.9808843184
0.986321376
0.9942748664
0.9942509336
0.9942392925
0.9942386805
0.9961527672
0.9979446348
0.9989443551
1.001433195
1.001943971
1.002601094
1.001211779
0.6307469243
1.013067824
1.107105438
1.073841547
1.005218613
0.9817297048
0.9988458715
1.002925838
0.9884596533
0.9813840482
0.9876828744
0.9826294793
0.9792988041
0.9811431348
0.9902675177
0.9926637612
0.9925260938
0.9922602204
0.9917222671
0.9956849453
0.9988414993
1.000690522
1.003690106
1.004097762
1.003562117
0.6015423823
0.9190043607
1.106029213
1.090596158
1.027083162
0.9949383412
1.005233759
1.007908833
0.9865185359
0.9784802027
0.9852820695
0.9825737184
0.978750822
0.9782360876
0.9880521814
0.993476263
0.9940136233
0.9897535592
0.9898352511
0.9939910446
0.9976479811
0.9993269876
1.002111708
1.003626687
1.004292725
0.6050390998
0.8328562389
1.074545227
1.097259509
1.040737032
0.9969337173
0.9962817908
0.9989349468
0.9856323145
0.9781458917
0.985140883
0.9868797077
0.9814149664
0.9795045176
0.9881765119
0.992847448
0.9941625549
0.9933613566
0.9944672998
0.9962531524
0.9980301234
0.9986737297
0.9987773774
1.000081959
1.001060352
0.5888491657
0.7556487195
1.030810644
1.084548637
1.037341272
0.9869039335
0.9814320282
0.9859479626
0.9907832541
0.9900825471
0.9953621902
0.9895403843
0.9821764376
0.9839007266
0.991412178
0.9911101748
0.9923500088
0.992703194
0.99573259
0.9999426517
0.9999332181
0.9989474823
0.9957929904
0.9955771736
0.9966464585
0.5787890673
0.6941952322
0.9728259266
1.079672343
1.039632824
0.9823741379
0.9728805568
0.9835855818
0.9944924948
0.9945863688
0.9990680459
0.9899239487
0.9806525367
0.9829928963
0.9913746142
0.9930790255
0.9918621133
0.9915552874
0.9956342998
1.000094038
0.9998133761
0.9985105932
0.9978341362
0.998392432
0.9984835192
0.5709510236
0.6564719063
0.8997594384
1.064930805
1.055615482
0.9965443314
0.9771023313
0.987802513
0.9940619309
0.9899149659
0.995130794
0.9907685614
0.9820240269
0.9826529323
0.9908842195
0.9940575477
0.993664655
0.9940178619
0.9977816913
0.9999433581
0.9989807866
0.9983631357
0.9985245521
1.000292009
1.000347428
0.5615962092
0.6253139438
0.8375773905
1.043252792
1.059308241
1.014477699
0.995357893
1.001750492
0.9977090647
0.9848545601
0.9898174835
0.9875973172
0.9816514056
0.9831606823
0.9903483063
0.9929135656
0.9945639925
0.9958622693
0.9986134173
1.000649516
0.9996864646
0.9996749708
1.000459928
1.002366121
1.002213254
0.5520853785
0.5956594362
0.7734940951
1.024196364
1.054499055
1.022380956
1.006658403
1.009691007
1.000846955
0.9839633835
0.9867162216
0.9847115346
0.9796991383
0.980388202
0.9859638043
0.9905431126
0.9943550928
0.9949651076
0.9950954579
0.99744934
0.9997969761
1.001800205
1.002671881
1.003257552
1.003177865
0.5458538981
0.5726623933
0.7143395781
0.9838401647
1.047749164
1.025812385
1.002337275
1.003020839
0.9946288184
0.9843948774
0.9879885947
0.9870429443
0.9809267457
0.9788505102
0.9827385294
0.9881278357
0.9922839019
0.9932623508
0.9921820974
0.9944623764
0.9986245845
1.000856628
1.000261761
1.00054951
1.000835951
0.5371784326
0.5566652255
0.6640246477
0.9022886617
1.039529089
1.018464477
0.9939960759
0.9892330018
0.9862603337
0.9850206945
0.9923112633
0.992692658
0.9857984423
0.9807509501
0.9834000506
0.9883504461
0.991563383
0.9917800399
0.9917634256
0.994567449
0.9977964727
0.998998829
0.9978859959
0.9977867366
0.9989381034
0.5305517409
0.5448274472
0.6290676364
0.825956378
1.020457665
1.010985539
0.9919225926
0.9844669352
0.9830773244
0.9859282535
0.994184873
0.9941109187
0.9879680933
0.9840036703
0.9866983083
0.9919995776
0.9929374883
0.9920275064
0.9934620751
0.9972695359
0.9984472511
0.9974725553
0.9959998962
0.9961831012
0.9985436763
0.5269647868
0.5367613223
0.6007235583
0.7673327576
0.965105733
1.010632561
1.000741593
0.9892431945
0.9914269226
0.9885067519
0.9954413018
0.994372698
0.9859287204
0.9826042685
0.989155279
0.9938663061
0.9945499772
0.9949180843
0.9982936016
1.001312813
1.000593233
0.997396136
0.9964953084
0.9971481344
0.998598571
0.5240835522
0.5307294371
0.5783069121
0.7125335413
0.9223396935
0.9964524474
1.008695961
1.009652583
1.004423787
0.989504839
0.9935846673
0.9928689533
0.9824868792
0.98039257
0.9877102913
0.9930620226
0.9932290039
0.9941316401
0.9983648545
1.001892502
1.000998616
0.9988718322
0.9979572454
0.9998608846
1.000502252
0.5233849694
0.5221110773
0.5625814765
0.6724545938
0.9027642885
0.9935051614
1.012340509
1.019212145
1.011166467
0.9868605692
0.9910773721
0.9904983219
0.9800859207
0.9791329775
0.9851816629
0.990024884
0.9922170032
0.9944840708
0.9974099395
1.000511619
1.000702056
1.000045065
1.000919538
1.002255412
1.002258309
0.5223118263
0.5160281112
0.5502364632
0.6365136826
0.8486758102
0.9970652581
1.012813532
1.017293067
1.005312152
0.9858511943
0.9909358692
0.9901690052
0.9815390105
0.9794963331
0.9832590649
0.9866009643
0.9909889082
0.994189048
0.9956535125
0.998093854
0.9993297451
1.000065571
1.001356704
1.002126847
1.001835874
0.5238476622
0.5123129331
0.5390421802
0.6041912338
0.7723124363
0.9626625633
1.003087657
1.003178185
0.9943868716
0.9836425622
0.9894956961
0.9913113224
0.9846192472
0.981798226
0.9833667046
0.9857349515
0.9901985266
0.9925427096
0.9930335634
0.9951139005
0.9969547185
0.9982450785
0.9990927917
0.998863423
0.9989096099
0.5250057181
0.508636508
0.5312626908
0.5850143545
0.7194182274
0.8933390611
0.988848457
0.9919999921
0.9868948957
0.9788399326
0.9843405017
0.9914168239
0.9859345437
0.9840229071
0.985252595
0.988509327
0.9922684924
0.9925424838
0.9924924121
0.9950178433
0.9958324427
0.9954291377
0.9941346366
0.9940561356
0.996083301
0.5288093402
0.5063147879
0.525903198
0.5674939699
0.6764851633
0.8489643244
0.9735375392
0.9967379249
0.9978092583
0.9844714614
0.9892878412
0.9949253018
0.987918725
0.9850872191
0.9881779627
0.9923556326
0.9949920899
0.9953324869
0.9968416729
0.9995139636
0.9987861621
0.9969752549
0.9952105212
0.9959731524
0.9986560008
0.5327185486
0.5038909
0.5219437326
0.5536508936
0.6429628118
0.8225722214
0.9581405976
1.010194341
1.015042948
0.9931280737
0.9958093673
0.9990552633
0.9896392182
0.9841843718
0.98832836
0.9931022654
0.9950061799
0.9967664595
1.000096855
1.003127035
1.002164365
1.000470657
0.9998209158
1.000961143
1.002513521
0.536891056
0.503945684
0.5196676884
0.5446368229
0.6188215766
0.7780170635
0.9469440231
1.018137654
1.025778543
0.9968095673
0.9968860364
0.99984484
0.9872340391
0.9793438934
0.9833461332
0.9879010057
0.989927352
0.9926491763
0.9975963621
1.001956027
1.002209337
1.001542862
1.002134174
1.003439295
1.003392087
0.5408969104
0.5046469701
0.5159749283
0.5379767558
0.5964024192
0.7283491382
0.9321060091
1.016811741
1.025476427
0.9916921707
0.9894559159
0.9941588243
0.9817952127
0.9769964859
0.9805717668
0.9833675267
0.9859711007
0.9892528092
0.9928817941
0.9965241056
0.9973720703
0.997751883
0.9993904774
1.000353149
0.999480731
0.5443948239
0.5075154211
0.5106260117
0.5361377178
0.5843199587
0.6905654897
0.8912919191
0.9973339226
1.005766569
0.9827908848
0.9794046279
0.9873642447
0.9799438701
0.980296873
0.9839515108
0.9862973345
0.989142402
0.9916653595
0.993575512
0.9944779419
0.9938779204
0.994085012
0.9953210481
0.995912232
0.9964678898
0.5487204778
0.5100512649
0.5065086263
0.5345532423
0.5749290087
0.6536491541
0.8288402655
0.9639991254
0.9926807186
0.9796437986
0.9808194197
0.9909888968
0.9843277102
0.9847242783
0.9887463469
0.9905860342
0.9929841853
0.9952895232
0.9962393806
0.9965067847
0.9959000608
0.9959478534
0.9967075325
0.9972397262
0.9985744623
0.5511374033
0.5132807635
0.5066644077
0.5329007236
0.5694140016
0.6255528315
0.7810531479
0.9419655587
0.9956137624
0.987275467
0.9854588171
0.9966180235
0.989326036
0.989271418
0.9911726427
0.9926998977
0.9956023082
0.9979691336
0.9985863652
0.9989642614
0.9980208223
0.9978901927
0.9982415198
0.9986688283
1.000431141
0.5746470148
0.5164374803
0.5050212605
0.5304559309
0.5637793268
0.6011140247
0.7265815969
0.9159538417
1.000701601
0.9937659473
0.9944078798
1.00332396
0.9933053768
0.9878780255
0.98893557
0.9906093558
0.9933550249
0.9958376139
0.9974882497
0.9990601119
0.9999638332
1.000235662
1.000425175
1.00086126
1.001945221
1.09042152
0.6533896947
0.5920318624
0.5712836029
0.5734669335
0.5716643481
0.6081550344
0.7485036752
0.909442499
0.9564753342
0.9829586043
0.9994951561
0.9915832906
0.9894931726
0.9909689479
0.9906023256
0.9910605469
0.9928975157
0.9952586616
0.9968948095
0.9985696913
0.9994371867
1.000012006
1.000047371
1.000024785
1.405071691
1.152739707
0.9080967333
0.7323200376
0.6464736536
0.5726297025
0.5667918765
0.5875242308
0.6732888843
0.8311876336
0.9275940606
0.9784724961
0.9870559656
1.000119538
0.9995388766
0.9942717976
0.9916198542
0.9920913302
0.9930672997
0.9944006616
0.9967097103
0.9985018643
0.9996625239
0.9991235337
0.9983657249
1.485315164
1.384580737
1.161070631
0.9471872086
0.7794277912
0.6559351122
0.6134365179
0.6134157859
0.61609216
0.6530347591
0.7521603219
0.8779789102
0.9478187404
0.9905647473
0.9960518195
0.9963894258
0.9973219383
0.99661104
0.9948095618
0.9933982559
0.9942813794
0.9958307583
0.9976870325
1.000926651
1.001901183
1.469993091
1.462398521
1.369235845
1.195715735
0.998167728
0.8485168748
0.7520042697
0.6678381677
0.6171782984
0.6187793369
0.6380624919
0.7047429415
0.8189896159
0.9336950628
0.9663414778
0.9811175505
0.9998135448
1.000600451
0.9972108307
0.9942371939
0.9930503973
0.9936881326
0.9949618025
0.9977326287
1.001152789
1.449436974
1.465641091
1.448287985
1.361747077
1.197880385
1.039456318
0.8875634551
0.7609856335
0.7024669144
0.6494890052
0.6546327952
0.657106416
0.6897277826
0.7668074326
0.8675790528
0.9409751469
0.9903331736
0.9907921268
0.9923358486
0.9933136372
0.9940011978
0.9946757085
0.9953943811
0.9966967689
0.9989924825
1.296501275
1.394815399
1.434345392
1.429822241
1.356623058
1.224023239
1.057678205
0.9444449516
0.8370685041
0.7382451906
0.6974557586
0.6568915513
0.6586653074
0.6720123285
0.7341394527
0.8240520179
0.921618972
0.9483089525
0.9805629282
0.98869489
0.9954233704
0.9986277593
0.9977534802
0.9969755662
0.9970838397
1.091821449
1.277505391
1.429329145
1.431906112
1.419709754
1.349323362
1.226360643
1.092920098
0.9576173892
0.8576549326
0.7763898334
0.7064573286
0.6801137946
0.6816698978
0.6855354777
0.71223565
0.7755839267
0.8705657681
0.9591098963