/*--------------------------------*- C++ -*----------------------------------*\
  =========                 |
  \\      /  F ield         | OpenFOAM: The Open Source CFD Toolbox
   \\    /   O peration     | Website:  https://openfoam.org
    \\  /    A nd           | Version:  7
     \\/     M anipulation  |
\*---------------------------------------------------------------------------*/
FoamFile
{
    version     2.0;
    format      ascii;
    class       volScalarField;
    location    "2.5";
    object      rho;
}
// * * * * * * * * * * * * * * * * * * * * * * * * * * * * * * * * * * * * * //

dimensions      [1 -3 0 0 0 0 0];

internalField   nonuniform List<scalar> 
5000
(
1.40000504
1.40000504
1.40000504
1.40000504
1.40000504
1.40000504
1.40000504
1.40000504
1.40000504
1.40000504
1.40000504
1.40000504
1.40000504
1.40000504
1.40000504
1.40000504
1.40000504
1.40000504
1.40000504
1.40000504
1.40000504
1.40000504
1.40000504
1.40000504
1.40000504
1.40000504
1.40000504
1.40000504
1.40000504
1.40000504
1.40000504
1.40000504
1.40000504
1.40000504
1.40000504
1.40000504
1.40000504
1.40000504
1.40000504
1.40000504
1.40000504
1.40000504
1.40000504
1.40000504
1.40000504
1.40000504
1.40000504
1.40000504
1.40000504
1.40000504
1.40000504
1.40000504
1.40000504
1.40000504
1.40000504
1.40000504
1.40000504
1.40000504
1.40000504
1.40000504
1.40000504
1.40000504
1.40000504
1.40000504
1.40000504
1.40000504
1.40000504
1.40000504
1.40000504
1.40000504
1.40000504
1.40000504
1.40000504
1.40000504
1.40000504
1.40000504
1.40000504
1.40000504
1.40000504
1.40000504
1.40000504
1.40000504
1.40000504
1.40000504
1.40000504
1.40000504
1.40000504
1.40000504
1.40000504
1.40000504
1.40000504
1.40000504
1.40000504
1.40000504
1.40000504
1.40000504
1.40000504
1.40000504
1.40000504
1.40000504
1.40000504
1.40000504
1.40000504
1.40000504
1.40000504
1.40000504
1.40000504
1.40000504
1.40000504
1.40000504
1.40000504
1.40000504
1.40000504
1.40000504
1.40000504
1.40000504
1.40000504
1.40000504
1.40000504
1.40000504
1.40000504
1.40000504
1.40000504
1.40000504
1.40000504
1.40000504
1.40000504
1.40000504
1.40000504
1.40000504
1.40000504
1.40000504
1.40000504
1.40000504
1.40000504
1.40000504
1.40000504
1.40000504
1.40000504
1.40000504
1.40000504
1.40000504
1.40000504
1.40000504
1.40000504
1.40000504
1.40000504
1.40000504
1.40000504
1.40000504
1.40000504
1.40000504
1.40000504
1.40000504
1.40000504
1.40000504
1.40000504
1.40000504
1.40000504
1.40000504
1.40000504
1.40000504
1.40000504
1.40000504
1.40000504
1.40000504
1.40000504
1.40000504
1.40000504
1.40000504
1.40000504
1.40000504
1.40000504
1.40000504
1.40000504
1.40000504
1.40000504
1.40000504
1.40000504
1.40000504
1.40000504
1.40000504
1.40000504
1.40000504
1.40000504
1.40000504
1.40000504
1.40000504
1.40000504
1.40000504
1.40000504
1.40000504
1.40000504
1.40000504
1.40000504
1.40000504
1.40000504
1.40000504
1.40000504
1.40000504
1.40000504
1.40000504
1.40000504
1.40000504
1.40000504
1.40000504
1.40000504
1.40000504
1.40000504
1.40000504
1.40000504
1.40000504
1.40000504
1.40000504
1.40000504
1.40000504
1.40000504
1.40000504
1.40000504
1.40000504
1.40000504
1.40000504
1.40000504
1.40000504
1.40000504
1.40000504
1.40000504
1.40000504
1.40000504
1.40000504
1.40000504
1.40000504
1.40000504
1.40000504
1.40000504
1.40000504
1.40000504
1.40000504
1.40000504
1.40000504
1.40000504
1.40000504
1.40000504
1.40000504
1.40000504
1.40000504
1.40000504
1.40000504
1.40000504
1.40000504
1.40000504
1.40000504
1.40000504
1.40000504
1.40000504
1.40000504
1.40000504
1.40000504
1.40000504
1.40000504
1.40000504
1.40000504
1.40000504
1.40000504
1.40000504
1.40000504
1.40000504
1.40000504
1.40000504
1.40000504
1.40000504
1.40000504
1.40000504
1.40000504
1.40000504
1.40000504
1.40000504
1.40000504
1.40000504
1.40000504
1.40000504
1.40000504
1.40000504
1.40000504
1.40000504
1.40000504
1.40000504
1.40000504
1.40000504
1.40000504
1.40000504
1.40000504
1.40000504
1.40000504
1.40000504
1.40000504
1.40000504
1.40000504
1.40000504
1.40000504
1.40000504
1.40000504
1.40000504
1.40000504
1.40000504
1.40000504
1.40000504
1.40000504
1.40000504
1.40000504
1.40000504
1.40000504
1.40000504
1.40000504
1.40000504
1.40000504
1.40000504
1.40000504
1.40000504
1.40000504
1.40000504
1.40000504
1.40000504
1.40000504
1.40000504
1.40000504
1.40000504
1.40000504
1.40000504
1.40000504
1.40000504
1.40000504
1.40000504
1.40000504
1.40000504
1.40000504
1.40000504
1.40000504
1.40000504
1.40000504
1.40000504
1.40000504
1.40000504
1.40000504
1.40000504
1.40000504
1.40000504
1.40000504
1.40000504
1.40000504
1.40000504
1.40000504
1.40000504
1.40000504
1.40000504
1.40000504
1.40000504
1.40000504
1.40000504
1.40000504
1.40000504
1.40000504
1.40000504
1.40000504
1.40000504
1.40000504
1.40000504
1.40000504
1.40000504
1.40000504
1.40000504
1.40000504
1.40000504
1.40000504
1.40000504
1.40000504
1.40000504
1.40000504
1.40000504
1.40000504
1.40000504
1.40000504
1.40000504
1.40000504
1.40000504
1.40000504
1.40000504
1.40000504
1.40000504
1.40000504
1.40000504
1.40000504
1.40000504
1.40000504
1.40000504
1.40000504
1.40000504
1.40000504
1.40000504
1.40000504
1.40000504
1.40000504
1.40000504
1.40000504
1.40000504
1.40000504
1.40000504
1.40000504
1.40000504
1.40000504
1.40000504
1.40000504
1.40000504
1.40000504
1.40000504
1.40000504
1.40000504
1.40000504
1.40000504
1.40000504
1.40000504
1.40000504
1.40000504
1.40000504
1.40000504
1.40000504
1.40000504
1.40000504
1.40000504
1.40000504
1.40000504
1.40000504
1.40000504
1.40000504
1.40000504
1.40000504
1.40000504
1.40000504
1.40000504
1.40000504
1.40000504
1.40000504
1.40000504
1.40000504
1.40000504
1.40000504
1.40000504
1.40000504
1.40000504
1.40000504
1.40000504
1.40000504
1.40000504
1.40000504
1.40000504
1.40000504
1.40000504
1.40000504
1.40000504
1.40000504
1.40000504
1.40000504
1.40000504
1.40000504
1.40000504
1.40000504
1.40000504
1.40000504
1.40000504
1.40000504
1.40000504
1.40000504
1.40000504
1.40000504
1.40000504
1.40000504
1.40000504
1.40000504
1.40000504
1.40000504
1.40000504
1.40000504
1.40000504
1.40000504
1.40000504
1.40000504
1.40000504
1.40000504
1.40000504
1.40000504
1.40000504
1.40000504
1.40000504
1.40000504
1.40000504
1.40000504
1.40000504
1.40000504
1.40000504
1.40000504
1.40000504
1.40000504
1.40000504
1.40000504
1.40000504
1.40000504
1.40000504
1.40000504
1.40000504
1.40000504
1.40000504
1.40000504
1.40000504
1.40000504
1.40000504
1.40000504
1.40000504
1.40000504
1.40000504
1.40000504
1.40000504
1.40000504
1.40000504
1.40000504
1.40000504
1.40000504
1.40000504
1.40000504
1.40000504
1.40000504
1.40000504
1.40000504
1.40000504
1.40000504
1.40000504
1.40000504
1.40000504
1.40000504
1.40000504
1.40000504
1.40000504
1.40000504
1.40000504
1.40000504
1.40000504
1.40000504
1.40000504
1.40000504
1.40000504
1.40000504
1.40000504
1.40000504
1.40000504
1.40000504
1.40000504
1.40000504
1.40000504
1.40000504
1.40000504
1.40000504
1.40000504
1.40000504
1.40000504
1.40000504
1.40000504
1.40000504
1.40000504
1.40000504
1.40000504
1.40000504
1.40000504
1.40000504
1.40000504
1.40000504
1.40000504
1.40000504
1.40000504
1.40000504
1.40000504
1.40000504
1.40000504
1.40000504
1.40000504
1.40000504
1.40000504
1.40000504
1.40000504
1.40000504
1.40000504
1.40000504
1.40000504
1.40000504
1.40000504
1.40000504
1.40000504
1.40000504
1.40000504
1.40000504
1.40000504
1.40000504
1.40000504
1.40000504
1.40000504
1.40000504
1.40000504
1.40000504
1.40000504
1.40000504
1.40000504
1.40000504
1.40000504
1.40000504
1.40000504
1.40000504
1.40000504
1.40000504
1.40000504
1.40000504
1.40000504
1.40000504
1.40000504
1.40000504
1.40000504
1.40000504
1.40000504
1.40000504
1.40000504
1.40000504
1.40000504
1.40000504
1.40000504
1.40000504
1.40000504
1.40000504
1.40000504
1.40000504
1.40000504
1.40000504
1.40000504
1.40000504
1.40000504
1.40000504
1.40000504
1.40000504
1.40000504
1.40000504
1.40000504
1.40000504
1.40000504
1.40000504
1.40000504
1.40000504
1.40000504
1.40000504
1.40000504
1.40000504
1.40000504
1.40000504
1.40000504
1.40000504
1.40000504
1.40000504
1.40000504
1.40000504
1.40000504
1.40000504
1.40000504
1.40000504
1.40000504
1.40000504
1.40000504
1.40000504
1.40000504
1.40000504
1.40000504
1.40000504
1.40000504
1.40000504
1.40000504
1.40000504
1.40000504
1.40000504
1.40000504
1.40000504
1.40000504
1.40000504
1.40000504
1.40000504
1.40000504
1.40000504
1.40000504
1.40000504
1.40000504
1.40000504
1.40000504
1.40000504
1.40000504
1.40000504
1.40000504
1.40000504
1.40000504
1.40000504
1.40000504
1.40000504
1.40000504
1.40000504
1.40000504
1.40000504
1.40000504
1.40000504
1.40000504
1.40000504
1.40000504
1.40000504
1.40000504
1.40000504
1.40000504
1.40000504
1.40000504
1.40000504
1.40000504
1.40000504
1.40000504
1.40000504
1.40000504
1.40000504
1.40000504
1.40000504
1.40000504
1.40000504
1.40000504
1.40000504
1.40000504
1.40000504
1.40000504
1.40000504
1.40000504
1.40000504
1.40000504
1.40000504
1.40000504
1.40000504
1.40000504
1.40000504
1.40000504
1.40000504
1.40000504
1.40000504
1.40000504
1.40000504
1.40000504
1.40000504
1.40000504
1.40000504
1.40000504
1.40000504
1.40000504
1.40000504
1.40000504
1.40000504
1.40000504
1.40000504
1.40000504
1.40000504
1.40000504
1.40000504
1.40000504
1.40000504
1.40000504
1.40000504
1.40000504
1.40000504
1.40000504
1.40000504
1.40000504
1.40000504
1.40000504
1.40000504
1.40000504
1.40000504
1.40000504
1.40000504
1.40000504
1.40000504
1.40000504
1.40000504
1.40000504
1.40000504
1.40000504
1.40000504
1.40000504
1.40000504
1.40000504
1.40000504
1.40000504
1.40000504
1.40000504
1.40000504
1.40000504
1.40000504
1.40000504
1.40000504
1.40000504
1.40000504
1.40000504
1.40000504
1.40000504
1.40000504
1.40000504
1.40000504
1.40000504
1.40000504
1.40000504
1.40000504
1.40000504
1.40000504
1.40000504
1.40000504
1.40000504
1.40000504
1.40000504
1.40000504
1.40000504
1.40000504
1.40000504
1.40000504
1.40000504
1.40000504
1.40000504
1.40000504
1.40000504
1.40000504
1.40000504
1.40000504
1.40000504
1.40000504
1.40000504
1.40000504
1.40000504
1.40000504
1.40000504
1.40000504
1.40000504
1.40000504
1.40000504
1.40000504
1.40000504
1.40000504
1.40000504
1.40000504
1.40000504
1.40000504
1.40000504
1.40000504
1.40000504
1.40000504
1.40000504
1.40000504
1.40000504
1.40000504
1.40000504
1.40000504
1.40000504
1.40000504
1.40000504
1.40000504
1.40000504
1.40000504
1.40000504
1.40000504
1.40000504
1.40000504
1.40000504
1.40000504
1.40000504
1.40000504
1.40000504
1.40000504
1.40000504
1.40000504
1.40000504
1.40000504
1.40000504
1.40000504
1.40000504
1.40000504
1.40000504
1.40000504
1.40000504
1.40000504
1.40000504
1.40000504
1.40000504
1.40000504
1.40000504
1.40000504
1.40000504
1.40000504
1.40000504
1.40000504
1.40000504
1.40000504
1.40000504
1.40000504
1.40000504
1.40000504
1.40000504
1.40000504
1.40000504
1.40000504
1.40000504
1.40000504
1.40000504
1.40000504
1.40000504
1.40000504
1.40000504
1.40000504
1.40000504
1.40000504
1.40000504
1.40000504
1.40000504
1.40000504
1.40000504
1.40000504
1.40000504
1.40000504
1.40000504
1.40000504
1.40000504
1.40000504
1.40000504
1.40000504
1.40000504
1.40000504
1.40000504
1.40000504
1.40000504
1.40000504
1.40000504
1.40000504
1.40000504
1.40000504
1.40000504
1.40000504
1.40000504
1.40000504
1.40000504
1.40000504
1.40000504
1.40000504
1.40000504
1.40000504
1.40000504
1.40000504
1.40000504
1.40000504
1.40000504
1.40000504
1.40000504
1.40000504
1.40000504
1.40000504
1.40000504
1.40000504
1.40000504
1.40000504
1.40000504
1.40000504
1.40000504
1.40000504
1.40000504
1.40000504
1.40000504
1.40000504
1.40000504
1.40000504
1.40000504
1.40000504
1.40000504
1.40000504
1.40000504
1.40000504
1.40000504
1.40000504
1.40000504
1.40000504
1.40000504
1.40000504
1.40000504
1.40000504
1.40000504
1.40000504
1.40000504
1.40000504
1.40000504
1.40000504
1.40000504
1.400005028
1.40000504
1.40000504
1.40000504
1.40000504
1.40000504
1.40000504
1.40000504
1.40000504
1.40000504
1.40000504
1.40000504
1.40000504
1.40000504
1.40000504
1.40000504
1.40000504
1.40000504
1.40000504
1.40000504
1.40000504
1.40000504
1.40000504
1.40000504
1.400005046
1.400004705
1.40000504
1.40000504
1.40000504
1.40000504
1.40000504
1.40000504
1.40000504
1.40000504
1.40000504
1.40000504
1.40000504
1.40000504
1.40000504
1.40000504
1.40000504
1.40000504
1.40000504
1.40000504
1.40000504
1.40000504
1.400005043
1.400005062
1.400005165
1.400007807
1.400003394
1.40000504
1.40000504
1.40000504
1.40000504
1.40000504
1.40000504
1.40000504
1.40000504
1.40000504
1.40000504
1.40000504
1.40000504
1.40000504
1.40000504
1.40000504
1.400005041
1.400005047
1.400005087
1.4000053
1.400006278
1.400010561
1.400025869
1.400076331
1.40034687
1.400376152
1.40000504
1.40000504
1.40000504
1.40000504
1.40000504
1.40000504
1.40000504
1.40000504
1.40000504
1.40000504
1.40000504
1.400005042
1.400005058
1.400005156
1.400005624
1.400007577
1.400014668
1.400037926
1.400112077
1.400312946
1.400873717
1.402084174
1.404877703
1.410284594
1.416932664
1.40000504
1.40000504
1.40000504
1.40000504
1.40000504
1.40000504
1.40000504
1.400005044
1.400005076
1.400005276
1.400006226
1.400010147
1.400023719
1.400066373
1.400187787
1.400487928
1.401222519
1.402757116
1.406082833
1.411934503
1.423108754
1.438769298
1.463420046
1.49548915
1.529783841
1.40000504
1.40000504
1.40000504
1.400005043
1.400005079
1.400005373
1.400007003
1.400013903
1.40003884
1.400113071
1.40032309
1.40081316
1.401928122
1.404070715
1.408362087
1.415280721
1.42772409
1.44526621
1.472030172
1.504816821
1.546432513
1.590309362
1.638202638
1.685645394
1.722819321
1.400005049
1.400005203
1.400006746
1.400015656
1.400053126
1.40017428
1.40052198
1.401328842
1.403063226
1.406236865
1.412244687
1.421339572
1.435472658
1.454937852
1.482427215
1.51568205
1.558459308
1.604282675
1.646064044
1.690213843
1.727952272
1.763879699
1.786579099
1.80660285
1.819292803
1.400031345
1.400153334
1.400641599
1.401900528
1.40471939
1.409696709
1.4184011
1.431424885
1.449591023
1.472784523
1.504344098
1.538986832
1.578875735
1.622952352
1.668374043
1.716720613
1.759757678
1.789489027
1.808856223
1.833005734
1.843882345
1.851261538
1.855777026
1.859977675
1.859987198
1.403530726
1.410911852
1.425322396
1.445473063
1.470647388
1.498496969
1.534511409
1.569859703
1.601485528
1.639975288
1.67661129
1.706282674
1.735542846
1.763116278
1.784208206
1.798923951
1.81173252
1.826013132
1.842259965
1.852756251
1.862594453
1.86238826
1.858919326
1.85455151
1.853843517
1.454784978
1.519131556
1.586069613
1.650000584
1.708552403
1.764534817
1.809224779
1.847050141
1.885981816
1.920643409
1.931276424
1.94463493
1.960164971
1.962038249
1.955621287
1.942012118
1.924582542
1.909154496
1.894783621
1.880211268
1.864563195
1.85219276
1.84433213
1.838024639
1.834258818
1.40000504
1.40000504
1.40000504
1.40000504
1.40000504
1.40000504
1.40000504
1.40000504
1.40000504
1.40000504
1.40000504
1.400005056
1.400005648
1.400019089
1.400226383
1.40218195
1.414618718
1.462559335
1.576334085
1.745033222
1.883510056
2.007503006
2.057781683
2.033675786
1.947316055
1.40000504
1.40000504
1.40000504
1.40000504
1.40000504
1.40000504
1.40000504
1.40000504
1.40000504
1.40000504
1.400005053
1.400005545
1.400019218
1.400204559
1.402211606
1.412914889
1.455910256
1.535402662
1.636753827
1.723745003
1.824748789
1.889678602
1.960173331
1.954848003
1.908482433
1.40000504
1.40000504
1.40000504
1.40000504
1.40000504
1.40000504
1.40000504
1.40000504
1.40000504
1.400005052
1.400005492
1.400015909
1.400214698
1.401878467
1.413960349
1.45146188
1.538844382
1.630713738
1.679230967
1.698792859
1.732295959
1.782408308
1.841989302
1.88613259
1.854271957
1.40000504
1.40000504
1.40000504
1.40000504
1.40000504
1.40000504
1.40000504
1.40000504
1.400005048
1.400005413
1.400016371
1.40016942
1.402110813
1.412082678
1.456429347
1.539231832
1.623914033
1.688788021
1.701629454
1.699447012
1.692321659
1.691402334
1.694413229
1.733502478
1.722918355
1.40000504
1.40000504
1.40000504
1.40000504
1.40000504
1.40000504
1.40000504
1.400005048
1.400005325
1.400013943
1.400192119
1.401704683
1.413822155
1.451626097
1.540100761
1.650525859
1.684549729
1.698447122
1.701239741
1.690654429
1.65918372
1.608301121
1.572556454
1.574579624
1.594279315
1.40000504
1.40000504
1.40000504
1.40000504
1.40000504
1.40000504
1.400005045
1.400005319
1.400012518
1.400150342
1.402004202
1.411635985
1.456313479
1.545575206
1.629327658
1.702743581
1.710326321
1.706744611
1.691582235
1.653571694
1.602284015
1.542283117
1.476783331
1.450435173
1.463169435
1.40000504
1.40000504
1.40000504
1.40000504
1.40000504
1.400005044
1.4000052
1.400012059
1.400135876
1.401585469
1.413237386
1.452455999
1.541565629
1.661001746
1.685928989
1.703959872
1.709593326
1.694765796
1.655225724
1.598861471
1.530371645
1.479592036
1.41189465
1.368817423
1.345266534
1.40000504
1.40000504
1.40000504
1.40000504
1.400005042
1.400005183
1.400009202
1.400125407
1.401492725
1.411179873
1.455657597
1.545787583
1.637381195
1.716971851
1.718696009
1.713699909
1.696885891
1.654635985
1.591596603
1.529462407
1.459695503
1.408081411
1.356114673
1.305928119
1.259997099
1.40000504
1.40000504
1.40000504
1.400005041
1.400005103
1.400009159
1.400082021
1.40140815
1.410786523
1.451499332
1.543072837
1.66555707
1.696742434
1.718935032
1.720658291
1.701388557
1.653291926
1.590925842
1.516057516
1.455586288
1.39277423
1.337297876
1.293196177
1.240460713
1.185760716
1.40000504
1.40000504
1.400005041
1.400005098
1.400007095
1.400088469
1.400983009
1.410850268
1.449053495
1.54576867
1.649846459
1.729150412
1.728798333
1.723203526
1.701612146
1.65387776
1.581587031
1.512039466
1.440588939
1.379846845
1.327781509
1.270330848
1.232735518
1.186272698
1.153140904
1.40000504
1.40000504
1.400005057
1.400007034
1.400049766
1.401120531
1.408176759
1.451634828
1.542928014
1.658402336
1.70836245
1.736238568
1.733421976
1.707509079
1.651489099
1.579452831
1.50096166
1.42993166
1.36503777
1.302801782
1.254389763
1.20131098
1.16083403
1.129568603
1.131294596
1.40000504
1.400005044
1.400005621
1.400049557
1.400659987
1.40921345
1.444094441
1.543825718
1.669232022
1.735099885
1.730634763
1.731488749
1.709128082
1.652731005
1.569432333
1.492346208
1.41467199
1.351044763
1.292777913
1.232440814
1.192511052
1.15423304
1.132048928
1.121086651
1.129168344
1.40000504
1.40000532
1.400020583
1.400671281
1.406239309
1.446546418
1.544874939
1.651333644
1.737797653
1.750827908
1.743401365
1.709773764
1.642954118
1.566237515
1.477589781
1.398891266
1.330280816
1.2625328
1.213455288
1.158295751
1.123567843
1.111599233
1.115520301
1.121316702
1.178275418
1.400005042
1.400016077
1.400309083
1.406346605
1.437850052
1.538732575
1.689020379
1.727344452
1.744548057
1.74607157
1.715314008
1.646729855
1.555837347
1.464142896
1.386781777
1.309642242
1.248618399
1.192017744
1.148750285
1.124866079
1.106360433
1.107056718
1.121227416
1.164203206
1.269181595
1.400005251
1.400261042
1.403806691
1.437553076
1.536748535
1.656435281
1.758224087
1.761442156
1.753734838
1.715357431
1.6404439
1.542901764
1.450457003
1.363626003
1.284036111
1.215036327
1.158123538
1.114292906
1.094756355
1.100850397
1.106034923
1.131963366
1.197554845
1.266863811
1.33763383
1.400021401
1.403399613
1.428873976
1.527828863
1.69284846
1.737434569
1.759789538
1.758994166
1.720343452
1.636699139
1.531710207
1.434599691
1.339480987
1.268848917
1.201826597
1.136948575
1.108972237
1.090628547
1.088111987
1.102411864
1.145851825
1.222184429
1.310828601
1.359042194
1.379607739
1.40063234
1.426656278
1.521183078
1.659913681
1.778769091
1.780191255
1.770058628
1.722325806
1.629252404
1.52079295
1.4058923
1.315825206
1.23171439
1.151165069
1.110046305
1.07784298
1.080282593
1.086944015
1.112189966
1.186503207
1.26649545
1.334335855
1.35416284
1.37428943
1.386443694
1.411793876
1.512464759
1.691770239
1.753668394
1.782781331
1.779249559
1.729461421
1.624141484
1.502587799
1.392553733
1.289036862
1.203707215
1.143852255
1.091452359
1.06406039
1.065119622
1.076832099
1.132780833
1.220280039
1.29260736
1.346343565
1.378769045
1.375846319
1.378824365
1.38408652
1.489767854
1.663974826
1.801111077
1.803312692
1.79236668
1.728223666
1.613803249
1.486258733
1.351967483
1.249667835
1.163544164
1.087284854
1.058071303
1.059851607
1.064146687
1.093312245
1.161183633
1.259331535
1.348681718
1.367133565
1.379653391
1.386194171
1.385687388
1.382886309
1.383063235
1.681843854
1.771351938
1.806685989
1.802398178
1.73516866
1.61159293
1.45104518
1.338960133
1.228174192
1.122501686
1.077737402
1.032156457
1.034028331
1.048488882
1.115115612
1.210029916
1.310078747
1.336017666
1.367347583
1.37482023
1.381119212
1.38441903
1.38347034
1.382500896
1.382705113
1.820557045
1.834701288
1.819101704
1.740206398
1.586437019
1.433268816
1.279414622
1.14607796
1.081200877
1.021977092
1.027910587
1.030850723
1.066009551
1.147536839
1.251381923
1.324768617
1.373625342
1.373979905
1.375332577
1.376137673
1.377188595
1.378153788
1.379072659
1.380452441
1.382593941
1.839428948
1.832443265
1.746695837
1.583794535
1.389771853
1.23762409
1.134743612
1.042172629
0.9847707904
0.9864768054
1.007308929
1.078571119
1.19699188
1.312576632
1.346364592
1.361261472
1.380330587
1.381560471
1.37829062
1.375574851
1.375245878
1.376246947
1.377882958
1.380781083
1.384005948
1.852905861
1.761878596
1.551063413
1.340386324
1.164084769
1.027198061
0.9782161793
0.9793876776
0.9826387296
1.021958597
1.12627616
1.25475723
1.326303371
1.369898968
1.376988497
1.377593818
1.379100575
1.378721404
1.377065325
1.375976663
1.377331341
1.379529131
1.38152331
1.384523941
1.385393005
1.777467168
1.545174758
1.308600557
1.127751748
1.030513889
0.9431393006
0.9325380794
0.9550599462
1.047476405
1.211397736
1.311131244
1.362247513
1.373526769
1.38755665
1.386875241
1.381208658
1.378347303
1.378862573
1.379735868
1.381768558
1.384770043
1.386237496
1.386124618
1.385600764
1.38521174
1.45335419
1.016981657
0.9822932611
0.9646229177
0.9643749326
0.9580254847
0.9932276942
1.138360231
1.304771702
1.355578395
1.383208433
1.398103182
1.389563482
1.387187797
1.388556458
1.387746473
1.387820553
1.389158607
1.390513372
1.391702224
1.392858747
1.393574751
1.393644564
1.39356482
1.393237972
0.88590543
0.7892307253
0.8263374236
0.890105387
0.9456820584
0.9963903507
1.140433647
1.341071175
1.412222146
1.396870673
1.386198527
1.396923005
1.388386042
1.384779238
1.387935609
1.389577481
1.390333772
1.392370727
1.395730436
1.395423388
1.39230887
1.392132584
1.392172193
1.39405293
1.395721705
0.8472669381
0.784561967
0.8218379031
0.8904588638
0.9520130957
1.031151441
1.217435284
1.388444957
1.434014336
1.408762673
1.400473279
1.406849202
1.394085342
1.385283933
1.388618905
1.390120653
1.390111375
1.391904676
1.396549858
1.39977859
1.397126964
1.393240128
1.391649132
1.392711021
1.394808813
0.8381176746
0.7815822273
0.8179747344
0.8888354588
0.9564898642
1.057855681
1.264065869
1.409275626
1.441275535
1.412454762
1.409674677
1.414664883
1.402056614
1.389939529
1.391440027
1.393659759
1.393444237
1.393635721
1.398270098
1.40281141
1.403536128
1.401526806
1.396556367
1.39366992
1.394775838
0.8283139172
0.7801193062
0.8192016489
0.8874427059
0.9681109914
1.095123225
1.287646963
1.414024227
1.432195756
1.409271404
1.410543338
1.414794643
1.40273647
1.39436905
1.396280808
1.399475824
1.401717773
1.401140118
1.401610139
1.402481095
1.403549615
1.404407514
1.403602242
1.401429957
1.399266553
0.8205488088
0.7780205731
0.8230224685
0.8870424537
0.9819747594
1.14395805
1.324591128
1.414613907
1.419164939
1.404089948
1.403679935
1.408787263
1.39923501
1.395988964
1.397979841
1.400997727
1.404341306
1.404663111
1.402197721
1.399026455
1.399377069
1.402499523
1.404699549
1.404469666
1.402178795
0.8137650832
0.7783767012
0.8257329244
0.8919453894
1.001912183
1.18469521
1.373837091
1.416540494
1.410766872
1.394916347
1.394686101
1.400895547
1.394274332
1.393933878
1.3954641
1.39666295
1.400250154
1.401814698
1.399990236
1.395100588
1.393590187
1.397045138
1.401535285
1.403135747
1.401494539
0.8074418441
0.7794633881
0.8277583431
0.9011707629
1.033050544
1.238447212
1.40691083
1.42859412
1.416512159
1.393893106
1.395681494
1.400539911
1.392685655
1.389882844
1.391088342
1.389945095
1.392349525
1.396022159
1.397961534
1.396336479
1.391894066
1.391890252
1.395164145
1.397878823
1.398428803
0.8023320942
0.7827312539
0.8305876323
0.9131220724
1.071898247
1.306469286
1.416999421
1.439259301
1.430165709
1.399753909
1.401432417
1.402474307
1.391115751
1.385626469
1.38839861
1.388869504
1.389357494
1.393025489
1.398972114
1.400639867
1.398113811
1.393436845
1.391298893
1.391967776
1.394943965
0.7986762985
0.7854152719
0.834960796
0.929623507
1.11849621
1.339979908
1.410852949
1.427763535
1.421580303
1.394172792
1.397175528
1.397584755
1.383983091
1.380087197
1.385715593
1.390078608
1.391053377
1.392486218
1.397033567
1.399785641
1.399549041
1.396615609
1.392748514
1.391663083
1.392522964
0.7964130668
0.7891011593
0.8411093696
0.9544718295
1.170301801
1.339067219
1.398285092
1.406761868
1.403681867
1.381783985
1.386249254
1.387638592
1.376105588
1.37388853
1.379624551
1.385562849
1.386752116
1.386752121
1.388916858
1.391002282
1.391837232
1.392143163
1.390141132
1.388860149
1.387507662
0.7956611903
0.7950584875
0.8497486697
0.977578504
1.205224562
1.352359392
1.383677291
1.382362426
1.378784547
1.36678547
1.373044694
1.376737797
1.369084086
1.364655522
1.368745831
1.374491223
1.377162824
1.376482895
1.377253247
1.377747786
1.379384117
1.382130067
1.383182711
1.382774726
1.380562153
0.7965276653
0.8004493829
0.8626167243
1.012464997
1.253759003
1.379327261
1.37175937
1.360648933
1.353858126
1.35081053
1.359237159
1.362860657
1.356235205
1.351849491
1.354325696
1.358916542
1.364408738
1.364669546
1.363765932
1.363784789
1.36500052
1.368192524
1.371708734
1.37270121
1.372214773
0.7989252942
0.8066375943
0.8805896925
1.066293422
1.336221068
1.372827263
1.364091533
1.35305538
1.342154073
1.337278248
1.344507177
1.345666074
1.339852045
1.336495103
1.337650122
1.343150185
1.348867526
1.351277981
1.350469353
1.351124373
1.351281695
1.354023183
1.358013062
1.359551264
1.360844837
0.8041091066
0.8166506446
0.901009671
1.117437404
1.366877129
1.359292942
1.354297843
1.351647483
1.340588195
1.325392402
1.329682727
1.330020545
1.322298558
1.319456019
1.322845836
1.327361282
1.332260383
1.336430944
1.338588157
1.340631748
1.339453316
1.338993579
1.340667357
1.343466738
1.344686197
0.807458927
0.8284349355
0.9308939068
1.176517905
1.348374595
1.346776519
1.339912305
1.337868391
1.332425278
1.314022488
1.316455881
1.314561533
1.306439689
1.305735359
1.312411004
1.31571172
1.318043212
1.321120525
1.325863557
1.327884304
1.327280946
1.325426461
1.324482989
1.326181315
1.327275392
0.8140708755
0.8405142189
0.9686903219
1.221774934
1.348833501
1.331771329
1.319111408
1.314681909
1.315462337
1.30510888
1.305975378
1.302740228
1.294538416
1.294686881
1.301930975
1.304480511
1.304780888
1.306680676
1.311357499
1.313767013
1.312710464
1.310998327
1.309695685
1.309159894
1.30830845
0.8207263471
0.8559696015
1.015845831
1.250261395
1.348413525
1.318125224
1.288059208
1.285338746
1.291987877
1.289457932
1.294986732
1.29242341
1.28423186
1.283841442
1.2906436
1.293112838
1.292138801
1.28964444
1.292556731
1.296853665
1.298507991
1.297730828
1.29619542
1.294901713
1.293215332
0.8297672525
0.8738537973
1.069557803
1.299265839
1.335909464
1.296335859
1.268849854
1.269600939
1.275070826
1.277537409
1.284363523
1.282411054
1.272716387
1.26889796
1.274695712
1.278649087
1.278101472
1.275519356
1.275739641
1.277556805
1.280844475
1.283590047
1.283975895
1.283333908
1.281727718
0.8404960679
0.8994850626
1.13522496
1.338687544
1.322441202
1.283545897
1.264588119
1.265919082
1.265604578
1.263956738
1.26805739
1.265204993
1.256372688
1.253763249
1.258538723
1.264160836
1.265538781
1.263957519
1.263221811
1.264611244
1.266569731
1.269326531
1.27194193
1.2728437
1.272998533
0.8497580525
0.9418493201
1.200838973
1.344305385
1.3231501
1.276601945
1.264743546
1.267090494
1.258329
1.247944962
1.251472014
1.24965034
1.243704134
1.244091136
1.248477638
1.253823464
1.256428106
1.256030037
1.255394953
1.256097026
1.256808696
1.258684236
1.262115747
1.264139195
1.264557591
0.8605906822
1.003171458
1.250671297
1.345586175
1.312689342
1.265574379
1.257326064
1.260371921
1.246084531
1.233950725
1.238761527
1.240487331
1.23654039
1.235714729
1.241749238
1.246815986
1.249250354
1.249060406
1.248889887
1.252086322
1.252755179
1.25358961
1.255485221
1.257117043
1.257767553
0.869632512
1.05624325
1.28167369
1.33332817
1.289982686
1.239415519
1.238999545
1.248299606
1.240436347
1.231080252
1.235817356
1.233314565
1.230451448
1.229324991
1.237264062
1.240673334
1.241554857
1.241332544
1.245510215
1.249968514
1.250753334
1.249754412
1.249814424
1.250438583
1.251158654
0.8731314178
1.089891918
1.30001028
1.30605887
1.257812534
1.214297556
1.217070163
1.233972535
1.239386206
1.234823414
1.239323929
1.231553448
1.226862933
1.231111727
1.239084266
1.238367207
1.239317737
1.240946047
1.246110427
1.248926624
1.247722071
1.246659676
1.246138586
1.24724745
1.247004194
0.8507928505
1.120213435
1.297950316
1.300913863
1.241714289
1.205251735
1.210891884
1.223762507
1.235593827
1.236798599
1.241668192
1.232202787
1.226369579
1.232804816
1.240453813
1.239224904
1.239643374
1.241187102
1.245474891
1.247661905
1.246989255
1.247622434
1.247402379
1.248369449
1.248281848
0.8684382959
1.183580972
1.309537602
1.287959867
1.231084965
1.210089126
1.21562513
1.226604696
1.227939914
1.230113044
1.237285565
1.229442462
1.225536967
1.231021069
1.238830484
1.239345372
1.240057613
1.240987991
1.243070341
1.245090754
1.246423622
1.248974293
1.249732696
1.250568359
1.249703309
0.8711351642
1.217919058
1.309912822
1.285789784
1.231080032
1.215368876
1.232386562
1.238319245
1.226946453
1.22282704
1.229656754
1.226006695
1.224060713
1.226287671
1.235254971
1.237951958
1.238511431
1.239149769
1.239124978
1.2431545
1.246424526
1.248314682
1.251319412
1.251921611
1.251812806
0.8530002353
1.151099174
1.316543456
1.305704319
1.253699626
1.229090282
1.239966898
1.244120953
1.226305065
1.221125408
1.228385808
1.22646964
1.224093867
1.22443321
1.233987526
1.239164325
1.240281632
1.237255109