/*--------------------------------*- C++ -*----------------------------------*\
  =========                 |
  \\      /  F ield         | OpenFOAM: The Open Source CFD Toolbox
   \\    /   O peration     | Website:  https://openfoam.org
    \\  /    A nd           | Version:  7
     \\/     M anipulation  |
\*---------------------------------------------------------------------------*/
FoamFile
{
    version     2.0;
    format      ascii;
    class       volScalarField;
    location    "2.2";
    object      T;
}
// * * * * * * * * * * * * * * * * * * * * * * * * * * * * * * * * * * * * * //

dimensions      [0 0 0 1 0 0 0];

internalField   nonuniform List<scalar> 
2222
(
0.8796675133
0.8765567129
0.871958071
0.8694987396
0.8685489699
0.8661967667
0.9916747783
0.9859562042
0.9772144882
0.9695585891
0.964420733
0.957492509
0.9500677466
0.9458350705
0.9416402924
0.9353650452
0.9304719278
0.9266281006
0.9208547945
0.9150149804
0.9117161292
0.9083648959
0.9036621387
0.8996539199
0.8966701238
0.8933206973
0.8895132583
0.8858167623
0.8824205938
0.878577388
0.8755802303
0.873674758
0.8712418429
0.8676762411
0.8655269174
0.8633557105
0.8594395325
0.9820487136
0.9760574084
0.9667782168
0.9601619836
0.9558330602
0.9494018385
0.9427048756
0.938340465
0.9331805317
0.9260427577
0.9215152814
0.9180174217
0.9125585268
0.9080239465
0.9055024957
0.9022958494
0.897233574
0.893103176
0.8900008734
0.8860018981
0.8814702122
0.879059176
0.8770602692
0.8741791387
0.8711503358
0.8686384745
0.8654295638
0.8615514815
0.8588568863
0.8567480686
0.8564843968
0.9723894742
0.9664367395
0.957659997
0.9518484915
0.9473767622
0.9400377566
0.9334288471
0.9294786606
0.9243485521
0.9180836282
0.9144214885
0.9110878491
0.905411211
0.9008465871
0.8979901267
0.8938855765
0.8883077658
0.885633306
0.8837427297
0.8802325304
0.8762633047
0.8739323911
0.871725705
0.8679964836
0.8642069062
0.8613853995
0.8571672215
0.8558938072
0.8563153303
0.8563772208
0.85802263
0.9631858536
0.9570777199
0.9482921233
0.9427174763
0.9378070804
0.9300376254
0.9244090326
0.9210576454
0.916219857
0.9103713206
0.90694147
0.9032738902
0.8972174543
0.8934206484
0.891076814
0.8872705223
0.8825657313
0.8800201257
0.8777900647
0.8732820378
0.8693043235
0.8669454592
0.8638903217
0.8592416492
0.8578079835
0.8567527926
0.8552632503
0.8554604984
0.8564948296
0.862334546
0.8836731138
0.9530883458
0.9461688464
0.9375777937
0.9332344324
0.9291481469
0.9224334944
0.9173036323
0.913463704
0.9075065399
0.9014573367
0.8983758791
0.895008639
0.8898449417
0.8865181255
0.8840875673
0.8797276497
0.8751111809
0.8726226816
0.8697433081
0.8644586374
0.862222549
0.8613468056
0.8585496453
0.8558276819
0.8554669047
0.8548983932
0.8545261851
0.8567577755
0.8723613493
0.9032612016
0.9459096735
0.9432899749
0.9367390243
0.9292411942
0.9247525545
0.9198988148
0.9124910059
0.9077845431
0.9045194887
0.8991573198
0.8941558738
0.8911409888
0.8873206277
0.8819208233
0.8788021743
0.8761360473
0.8710318087
0.8677433029
0.8665231504
0.8642837417
0.860070472
0.8585891889
0.8569656721
0.853579952
0.8524766692
0.8527938188
0.8539143135
0.8617670319
0.8846520362
0.9310433625
0.9685816699
0.98814481
0.933750989
0.9270707324
0.9199953565
0.9157135141
0.9105769811
0.903511523
0.8993055932
0.8959284666
0.8900391033
0.8853267693
0.8826634219
0.8787118822
0.8739181683
0.8721420793
0.8702046071
0.866298181
0.8633609749
0.8616139575
0.8580597245
0.8541465524
0.8528202487
0.8511149657
0.8505895344
0.851183336
0.8554488085
0.874158636
0.9089330163
0.9494992138
0.9739338403
0.9958809687
1.005300843
0.9234720365
0.9159910694
0.9094431586
0.9058616244
0.9010436938
0.8945480216
0.8911022312
0.8877653768
0.8819616739
0.8782961672
0.8762517983
0.872693596
0.8684872359
0.8661350187
0.8635569786
0.8591224863
0.8562820155
0.8542353392
0.8502652729
0.8492881144
0.8498391963
0.8501807471
0.8516487073
0.8636073993
0.8905349544
0.9350813321
0.9751833195
1.000262942
1.002484247
1.00541925
1.008270026
0.913807491
0.9066082117
0.9007646713
0.8970987618
0.8916181209
0.8853110265
0.8826352373
0.8799643924
0.8751423152
0.8715844386
0.8689541641
0.8643091734
0.86009932
0.8579029575
0.8548849748
0.8510250138
0.8508296205
0.850172324
0.8488671688
0.848899244
0.8499322518
0.8557951369
0.8760449316
0.9179766662
0.95989117
0.9815173493
0.9919857107
1.005472987
1.006298564
1.006909846
1.00793205
0.9032480346
0.8963053432
0.8917177282
0.8889488463
0.8840667676
0.8785011615
0.8750916042
0.8712253731
0.865363567
0.8625974928
0.8603894197
0.8557820049
0.8537977599
0.8533036926
0.851085611
0.8494072831
0.8495394699
0.8492584295
0.8489437846
0.8509951942
0.8655141049
0.8964220562
0.9381314124
0.9717854873
1.001288939
1.005487101
1.002656781
1.004435949
1.005636016
1.005668378
1.005938314
0.8940990425
0.886985298
0.8824636435
0.8793210103
0.873438689
0.8682775556
0.8657766406
0.8620584129
0.8576865077
0.8571379212
0.8559068451
0.8526666276
0.8514012113
0.850342266
0.8479001606
0.8473610565
0.8476305092
0.8484790178
0.8563924879
0.8787173364
0.9240194502
0.9670822793
0.9958501214
1.000410386
1.005791768
1.008055094
1.007350195
1.006899103
1.00682163
1.006493769
1.006170922
0.8833939543
0.8758111548
0.8724395401
0.8696597943
0.8640577372
0.8616547995
0.8606089819
0.8576441142
0.8544461198
0.8533903168
0.8509947598
0.847893919
0.8473035547
0.84623983
0.8455944889
0.8460029163
0.8498154418
0.8653745184
0.9029729784
0.9487687735
0.974719504
0.9891284866
1.002867096
1.002683341
1.003484891
1.00564683
1.007354764
1.007464173
1.007575533
1.007660029
1.007459749
0.8730054625
0.866887043
0.8655168613
0.8635741466
0.8594551803
0.8572778742
0.855494071
0.8511056883
0.8486737086
0.8473105696
0.8450236947
0.8443144847
0.8448542466
0.845259037
0.8466492784
0.8568607073
0.8839620795
0.9256521174
0.9680928431
0.9992383539
1.004255577
1.002683922
1.004546788
1.004445617
1.004503
1.005709494
1.006786031
1.007327877
1.007647117
1.007872231
1.007976343
0.866679339
0.8618140125
0.8595363628
0.8560208163
0.8514918922
0.8499472753
0.8482017576
0.8450007971
0.844514493
0.8445017697
0.8441577409
0.8441629635
0.8450016717
0.851136124
0.8704276496
0.9133006356
0.9509767049
0.9823319373
0.9914263637
1.00339636
1.00770558
1.007276587
1.007407169
1.007489383
1.007112758
1.006945999
1.007076744
1.007173544
1.007295037
1.007436876
1.007618932
0.8567806644
0.852902386
0.8509513797
0.8477470743
0.8454781794
0.8457929979
0.8454335579
0.8442246135
0.8442378705
0.8445501663
0.8447081067
0.8471956973
0.8599464086
0.8941634731
0.9364893972
0.9695903244
0.9946874673
1.007071336
1.004094237
1.004779172
1.006296596
1.007458672
1.007806569
1.008023823
1.008032632
1.007972675
1.007736626
1.007264767
1.007022277
1.007009826
1.007084755
0.8483820534
0.8478719218
0.8477994984
0.8461839231
0.845210948
0.8454282252
0.8449825121
0.8444036589
0.844416679
0.845286001
0.8527862028
0.8758629564
0.9183515167
0.9660006387
0.9946714808
0.9993631418
1.004237896
1.008621055
1.008569
1.007449637
1.00728341
1.007292261
1.007420595
1.007610775
1.00768388
1.007664764
1.007537677
1.007238688
1.007115665
1.007118345
1.007170804
0.8468385842
0.846785656
0.8464160599
0.8446816122
0.8442754985
0.8443504142
0.8438454292
0.8440791807
0.8478269657
0.8633178033
0.9014027846
0.9427983883
0.9775407275
0.9885959944
1.000929935
1.002308667
1.003636789
1.006302951
1.008637081
1.008502661
1.00822371
1.007654088
1.007281897
1.006932285
1.006845089
1.006858935
1.006961422
1.007084006
1.007213973
1.00739001
1.007551043
0.8445106671
0.8445159762
0.8438953248
0.8427060155
0.8427186951
0.8429718357
0.8447592711
0.8550663217
0.8840033926
0.9251802455
0.9640334079
0.9958233809
1.005900194
1.002490039
1.00386733
1.003955166
1.00438987
1.006187886
1.007965615
1.008426932
1.008352811
1.008011435
1.007554818
1.007071437
1.006822213
1.006826197
1.006896461
1.007071953
1.007295372
1.007562141
1.007818348
0.8421968698
0.842333335
0.8423552375
0.8422823895
0.8428710843
0.848835011
0.8676784367
0.9095785237
0.9564303378
0.9905581405
0.9974797246
1.004665406
1.008627526
1.00792068
1.007373387
1.007368428
1.007275323
1.007510251
1.007797847
1.007965254
1.007910435
1.00779034
1.007617089
1.007468551
1.007320697
1.007279149
1.007250877
1.007302253
1.007420266
1.00765152
1.007910771
0.8419973227
0.8421861657
0.8425157163
0.8450123685
0.8563044632
0.8908268541
0.9348872612
0.9698140039
0.9848509481
0.9988162471
1.000948193
1.003225378
1.006600447
1.007890923
1.007777729
1.007948749
1.0082617
1.008245952
1.008101412
1.007897251
1.007686208
1.007668363
1.007676826
1.007703089
1.007698698
1.007677962
1.007603381
1.007533854
1.007575094
1.007730587
1.007885981
0.8423356045
0.8436288536
0.8508533028
0.8741165175
0.9125598761
0.9575511566
0.9942541367
1.003942373
1.00220927
1.004150106
1.005447015
1.005690454
1.007156728
1.007559543
1.007570789
1.007730067
1.007920346
1.008169713
1.008094681
1.00791473
1.007746259
1.007578687
1.007567357
1.00760419
1.007673948
1.007769834
1.007746668
1.007702314
1.007728889
1.007836539
1.007933816
0.8469375689
0.8617135354
0.8999010438
0.9391105946
0.9771221287
0.9876562931
1.001006182
1.007684864
1.00689354
1.007135763
1.008091752
1.008476989
1.008472133
1.008033981
1.007627373
1.00726059
1.007220543
1.007437306
1.007688313
1.007822823
1.007841182
1.007749486
1.00776462
1.007819911
1.007890264
1.007852855
1.007814909
1.00780431
1.007825207
1.007900687
1.008008662
0.8827813654
0.9239327968
0.9643152167
0.9897059499
1.004954667
1.005138025
1.005104087
1.006225492
1.0070588
1.007770274
1.008356745
1.008693657
1.008682512
1.008479171
1.008020052
1.007546012
1.007326916
1.007430361
1.007655447
1.007838024
1.007952995
1.007977298
1.008003027
1.00806198
1.008078028
1.008055597
1.007999649
1.007944129
1.007954127
1.007992444
1.008079467
0.9522745028
0.9882525566
0.9931907202
0.9986134132
1.006300407
1.008015496
1.007802022
1.007411434
1.007491676
1.007379257
1.007510981
1.007794669
1.008157966
1.008245394
1.00810774
1.007904965
1.007765264
1.007687848
1.007787243
1.007889611
1.007939438
1.008001497
1.008156858
1.00835281
1.008351058
1.008319236
1.00823806
1.00811813
1.008065984
1.00807728
1.008127736
0.9858855742
1.002242127
1.005321015
1.004791029
1.006062656
1.007337252
1.008314388
1.00846965
1.008259175
1.00769659
1.007449976
1.00747548
1.007719969
1.008025067
1.008043576
1.007912297
1.007881049
1.007939292
1.007980491
1.007939636
1.00793444
1.008005762
1.008259194
1.008514983
1.008520688
1.008501231
1.008424038
1.008272306
1.008203557
1.008213127
1.008250528
1.004939849
1.006543343
1.007725797
1.008252587
1.008007122
1.008061202
1.008294852
1.00875945
1.00891966
1.008655612
1.008215386
1.007944624
1.007971079
1.007976421
1.007922073
1.007786516
1.007790834
1.007889496
1.008000995
1.008097777
1.008148775
1.008285847
1.00854408
1.008665097
1.008683854
1.008683665
1.008647981
1.008556765
1.008528668
1.008547252
1.008593365
1.007375848
1.00706837
1.007642333
1.008353616
1.008801291
1.008780316
1.008721751
1.008918764
1.009199769
1.009168385
1.008982624
1.008721425
1.008382833
1.00814624
1.008066945
1.008081213
1.008130301
1.008273261
1.008465604
1.00862869
1.008722292
1.008826474
1.008932162
1.009011068
1.009039879
1.009073519
1.009100804
1.009102278
1.009129818
1.009189402
1.009255776
1.008253203
1.00786552
1.008123779
1.008870232
1.009581711
1.009759474
1.009667273
1.009576107
1.009637737
1.00961246
1.009438052
1.009177881
1.008994726
1.008941635
1.008956607
1.009058614
1.009211689
1.00941904
1.009647972
1.009811513
1.009920091
1.00993858
1.009907765
1.009877508
1.00984273
1.009838999
1.009860799
1.009899422
1.009963093
1.010020376
1.01005625
1.009092041
1.009373161
1.009743409
1.010269022
1.010679059
1.010896542
1.010757941
1.010508785
1.01032546
1.010231988
1.010153028
1.010029156
1.009934702
1.009950511
1.010069265
1.010260108
1.010456419
1.010695482
1.010931371
1.011042558
1.011051552
1.011026035
1.010971022
1.010909736
1.010832493
1.010783491
1.01075955
1.010760813
1.010779871
1.010820435
1.010845645
1.011801357
1.012163646
1.012275752
1.012323292
1.012298961
1.01218154
1.011926607
1.011658117
1.01146561
1.011354631
1.011334196
1.011285581
1.011215305
1.011177
1.011121237
1.011135777
1.011210536
1.011400316
1.011586766
1.0117151
1.011742398
1.011709117
1.01171408
1.01167226
1.011609472
1.011535837
1.011449886
1.011360458
1.011293065
1.011273553
1.011296511
1.012920532
1.013416657
1.013725901
1.013684352
1.013429767
1.013173752
1.012751949
1.012181879
1.011764666
1.011525358
1.011306905
1.011278923
1.011342283
1.011484803
1.011888484
1.012478519
1.012480142
1.012349131
1.012308423
1.011907026
1.011681855
1.011520338
1.011528205
1.011821315
1.012398971
1.012996298
1.01315398
1.013091348
1.012826243
1.012304608
1.011500104
1.010956666
1.0131967
1.013797458
1.01408815
1.014044351
1.013763181
1.013461119
1.013096055
1.012561533
1.011966658
1.011598488
1.01129585
1.011113716
1.010971245
1.010977423
1.011346421
1.011993875
1.01244423
1.012721376
1.01304632
1.012826699
1.01201997
1.011478817
1.011516643
1.011403954
1.011420449
1.012031713
1.012938912
1.013243108
1.01320296
1.01307827
1.01270552
1.0117834
1.013158545
1.013840584
1.014198664
1.014177843
1.013885999
1.01361679
1.013370305
1.013075704
1.012679861
1.012102454
1.011497277
1.01118064
1.011020013
1.01102793
1.011271038
1.011623616
1.012140424
1.012868511
1.013215833
1.013370055
1.012942361
1.011883812
1.011620324
1.011425741
1.011322915
1.011315424
1.011925562
1.012910178
1.013364949
1.013298393
1.01309837
1.012714201
1.012983225
1.013660234
1.01403618
1.014044169
1.013757787
1.013461816
1.013248157
1.013098967
1.012987884
1.012767649
1.012270982
1.011598993
1.011123616
1.011084771
1.011270424
1.011561767
1.011906127
1.012509349
1.013174433
1.013373361
1.01343074
1.012877877
1.012073518
1.011544757
1.011359536
1.011272138
1.011370838
1.011915508
1.012799406
1.013250785
1.013274051
1.01303991
1.012871434
1.013415705
1.013767602
1.013774278
1.013498049
1.013152837
1.012926334
1.012885938
1.012900561
1.012948321
1.012790387
1.012487689
1.011998885
1.01151619
1.011402784
1.011450349
1.011672371
1.01211858
1.012801
1.01336332
1.013447391
1.01349171
1.013071661
1.012104802
1.011403279
1.011299033
1.011297602
1.011417706
1.01188132
1.012652108
1.013167742
1.013138017
1.012765709
1.013166149
1.013465116
1.013457677
1.013206224
1.012865147
1.012569414
1.012557856
1.012647783
1.012800134
1.012797426
1.012784201
1.012719049
1.012383205
1.01183279
1.011401242
1.011428492
1.011826306
1.012406139
1.012952277
1.013446012
1.013428982
1.013556344
1.013149376
1.01201202
1.011289499
1.0112194
1.011306666
1.011473266
1.011832027
1.012427196
1.012899693
1.01262427
1.012993601
1.013191253
1.013140212
1.012916575
1.012597347
1.012245927
1.012201115
1.012307312
1.01254435
1.012785524
1.012855592
1.012863152
1.012813218
1.012425499
1.011733011
1.011402305
1.011569445
1.012061833
1.012493315
1.012993453
1.013407857
1.013528099
1.013582403
1.013149095
1.012031196
1.011252719
1.011167668
1.011248222
1.011465391
1.011864144
1.012239358
1.012554119
1.012850867
1.012966558
1.012836948
1.012649758
1.01239974
1.01206826
1.011882005
1.01192812
1.012146454
1.012521039
1.012675581
1.012807517
1.012832668
1.012744453
1.012280286
1.011757534
1.011587218
1.011785141
1.012088497
1.012467772
1.012959872
1.013335119
1.013517007
1.013624599
1.013235528
1.012199462
1.011309004
1.011117659
1.011296201
1.011630159
1.011985762
1.012261324
1.012572012
1.012687283
1.012606953
1.012434656
1.012286917
1.012031259
1.011740766
1.011631805
1.011703421
1.011869352
1.012248353
1.012592545
1.012780987
1.012743313
1.012585234
1.012373726
1.0119821
1.011777929
1.011841382
1.012016085
1.0124078
1.013088214
1.013524459
1.013428969
1.013766061
1.013333483
1.012545655
1.011613294
1.011329747
1.011468397
1.011821163
1.011467889
1.012070458
1.012426044
1.012533844
1.012498211
1.012281271
1.012077714
1.011931845
1.011768144
1.011517975
1.011458201
1.011556872
1.011858192
1.01225134
1.012606606
1.012726563
1.012651486
1.01275621
1.012641286
1.012153496
1.011783092
1.011749377
1.011995301
1.012389398
1.013119732
1.013377832
1.01345674
1.013639168
1.013496146
1.012948771
1.012049571
1.011614055
1.01171191
1.011255672
1.011927233
1.012395882
1.012468304
1.012335384
1.012012702
1.011896403
1.011886928
1.011837472
1.011580009
1.011367505
1.011309613
1.011409962
1.011593735
1.012095664
1.012551293
1.012730923
1.012910114
1.012877498
1.012725628
1.012175443
1.011693642
1.011812257
1.011959355
1.012337331
1.013341357
1.013325231
1.01367943
1.013735104
1.013576049
1.013157748
1.012450953
1.011929051
1.01123655
1.011743242
1.012178969
1.012259711
1.012125608
1.011784216
1.01163484
1.011782212
1.011835548
1.011731789
1.011412318
1.011179019
1.011167782
1.011356767
1.011553907
1.012173837
1.012601679
1.012868539
1.013036985
1.012832136
1.012759283
1.01222189
1.011908631
1.011709154
1.011817063
1.01264956
1.013447686
1.013571355
1.013615914
1.013624817
1.013527713
1.013192108
1.012547934
1.011505666
1.011696317
1.012055485
1.01212891
1.012024473
1.011725273
1.011550345
1.011654741
1.011764547
1.011814659
1.011645598
1.011339934
1.011162189
1.011209178
1.011318239
1.011567733
1.012490994
1.012908756
1.013028168
1.012940259
1.012969745
1.012783392
1.012427442
1.011814991
1.011720746
1.011710646
1.012757367
1.013499452
1.013614568
1.013705687
1.013641169
1.01326772
1.012928446
1.01165664
1.011684327
1.012008355
1.012119866
1.012059906
1.01182155
1.011543022
1.011605505
1.011675199
1.011807414
1.011788993
1.011648706
1.011420463
1.011125196
1.011135193
1.011110715
1.012132802
1.012915965
1.01301505
1.013016784
1.013062951
1.013170417
1.012803004
1.012267136
1.011670674
1.011438242
1.011619863
1.012588933
1.013433836
1.01362568
1.013554834
1.013336728
1.013006475
1.01168916
1.011801886
1.012078981
1.012166513
1.012123858
1.011927249
1.011652263
1.011613577
1.011676017
1.011817317
1.011832999
1.01179741
1.011679853
1.011506537
1.011200988
1.011073244
1.011511712
1.012300301
1.013064993
1.013089676
1.013256712
1.013142904
1.013021926
1.012568461
1.011841815
1.011411835
1.011216746
1.011502056
1.012167022
1.012898229
1.013260869
1.013280364
1.012938925
1.01177657
1.011933308
1.012158704
1.012175068
1.012154962
1.012005054
1.011748976
1.011685047
1.011719643
1.011851475
1.011920111
1.011882459
1.011765379
1.01170676
1.011489198
1.011187623
1.011336219
1.011524293
1.012195779
1.012879102
1.013260327
1.013131187
1.013057747
1.012719536
1.012249561
1.011506313
1.011259789
1.011170504
1.011245038
1.011633728
1.012262919
1.012779597
1.012922972
1.011713122
1.011888468
1.012053448
1.011906959
1.011733032
1.011818196
1.011763231
1.011728922
1.011711792
1.011823075
1.011928244
1.011973957
1.011881868
1.011900513
1.011746629
1.01152329
1.011326395
1.011301807
1.011592401
1.011917678
1.012395666
1.012806274
1.012958057
1.01277891
1.012506952
1.011879837
1.011256123
1.011034065
1.011073737
1.011231791
1.011464498
1.011762994
1.01078407
1.011497394
1.011686272
1.01184645
1.011688614
1.011352353
1.011280974
1.011328794
1.011397678
1.011374986
1.011401425
1.01148785
1.011679022
1.012073604
1.012166251
1.01206365
1.011880013
1.011494755
1.011494484
1.011431743
1.011661256
1.011729909
1.012033196
1.012457458
1.012756725
1.012607961
1.012320285
1.011737184
1.0112383
1.011200952
1.011237972
1.011342266
1.011452651
1.010894424
1.011501567
1.011690536
1.011876293
1.011696293
1.011450463
1.011139552
1.011045313
1.011070096
1.011125055
1.011090873
1.011146796
1.011266322
1.011574366
1.011984088
1.012319457
1.012207942
1.012047773
1.011748839
1.011618476
1.011566567
1.011620054
1.01180205
1.011967383
1.012373893
1.01256657
1.012500299
1.012419364
1.012154455
1.011720284
1.011362006
1.011339796
1.011429831
1.011183974
1.011548476
1.011729115
1.011913334
1.01186875
1.011556864
1.011192737
1.011029678
1.011027029
1.011077632
1.011084827
1.011008
1.011131142
1.011418813
1.011850021
1.012375653
1.01257341
1.012724916
1.01261207
1.012411095
1.011991524
1.011801752
1.011776215
1.011991501
1.012135156
1.012521011
1.012703032
1.012756834
1.012732678
1.012551494
1.012208147
1.011740847
1.011604401
1.011659639
1.011911064
1.012041563
1.012194269
1.012225975
1.011940149
1.011581279
1.011275329
1.011201251
1.011257866
1.0112406
1.01120065
1.011303355
1.011599147
1.011981601
1.012462727
1.012850894
1.013159361
1.013257784
1.01314304
1.013022959
1.01253769
1.012153953
1.012065581
1.012267193
1.012535709
1.012935769
1.013049099
1.013121109
1.013120519
1.012992121
1.012633269
1.012116135
1.01191059
1.012178142
1.012337787
1.012474164
1.012456955
1.012256591
1.012029244
1.011859887
1.011718464
1.011763505
1.01168785
1.011660852
1.011617683
1.011698101
1.012091585
1.012602945
1.013082286
1.013432951
1.013555303
1.013573745
1.013424412
1.013090268
1.012771493
1.012508445
1.012453562
1.012642524
1.013144535
1.01332072
1.013406128
1.013404818
1.013282449
1.013079296
1.012601529
1.012183061
1.012438181
1.012581245
1.012676319
1.012636685
1.012499313
1.01225861
1.012200351
1.012215186
1.012209929
1.012144449
1.01199141
1.011897433
1.011875558
1.012004952
1.012508239
1.013200836
1.013626314
1.013782588
1.013881812
1.013758632
1.013498832
1.013070417
1.012877681
1.012697596
1.012815086
1.013244498
1.013508785
1.013596036
1.013575417
1.013498161
1.013340645
1.012953417
1.012352584
1.012569157
1.012634248
1.012579294
1.012496125
1.012509848
1.012466725
1.012485756
1.012567939
1.01256271
1.012487748
1.012261491
1.012169911
1.012107062
1.01199245
1.012198408
1.012979845
1.013656437
1.013981469
1.014049948
1.014055138
1.013806275
1.0133309
1.013129688
1.012941477
1.012910164
1.013068467
1.013360326
1.013554695
1.013663848
1.013703256
1.013598497
1.013303333
1.012061287
1.012311481
1.012308206
1.012210703
1.012070585
1.012145143
1.012477023
1.012726085
1.012848885
1.012866901
1.012754528
1.012528129
1.012347174
1.012147199
1.011726955
1.011538198
1.011985193
1.012788761
1.013663528
1.014094281
1.014165403
1.013923628
1.013493602
1.013108539
1.012897586
1.012609892
1.012415563
1.012514621
1.012760931
1.013182364
1.013631834
1.013758544
1.013580287
1.010993394
1.011716237
1.01202187
1.012178908
1.012204114
1.011954399
1.011894693
1.012046967
1.012678456
1.013014679
1.01305489
1.012888646
1.012625408
1.0122991
1.011993616
1.01154755
1.011106635
1.011240348
1.011596566
1.012293357
1.01319993
1.01361035
1.013618159
1.013306018
1.012750512
1.01250768
1.012177899
1.011871779
1.012017137
1.01201672
1.012170861
1.012704256
1.013502253
1.013630889
1.011240956
1.011654561
1.011836108
1.012184633
1.012359841
1.012199615
1.012017215
1.011849688
1.012114079
1.012726938
1.012899483
1.012734594
1.012463345
1.012221364
1.011987747
1.011691352
1.011406353
1.01132343
1.011158923
1.011438637
1.01203714
1.012455862
1.012738248
1.012673409
1.012534813
1.01226083
1.012066103
1.01206743
1.011802741
1.011741571
1.01168109
1.01191855
1.012573505
1.013482992
1.011623386
1.011946406
1.012101827
1.012317291
1.01251348
1.012600499
1.012232759
1.011905651
1.011885443
1.01215664
1.012481665
1.012471352
1.01239282
1.012227561
1.012203646
1.011941775
1.011653149
1.011387789
1.011479885
1.011679201
1.011554687
1.012084096
1.012245734
1.012480457
1.012401726
1.012449152
1.012299839
1.012326733
1.012137095
1.012102959
1.012052475
1.011939413
1.012016064
1.012732208
1.012109015
1.012431603
1.012505434
1.012586583
1.012689973
1.012776464
1.012389201
1.011956816
1.011715489
1.011882431
1.012216357
1.012338597
1.012395663
1.012457735
1.012565162
1.012569631
1.01238148
1.01216026
1.012060688
1.011746768
1.011897636
1.011899508
1.012341551
1.012435388
1.012582821
1.012741363
1.012675814
1.012316726
1.012530631
1.012511516
1.012435499
1.012112085
1.012109622
1.012184144
1.012456097
1.012775107
1.012693218
1.012686561
1.012748463
1.012682428
1.01244363
1.012091347
1.011894774
1.011942333
1.012009194
1.012346012
1.012566663
1.012796361
1.012932104
1.013087952
1.013258249
1.013316503
1.01310159
1.012755998
1.012444036
1.012202905
1.012542025
1.012593502
1.012930631
1.012817385
1.012771281
1.012752646
1.012672119
1.012539542
1.012335188
1.012234271
1.012265657
1.011946077
1.01260908
1.012788681
1.012723382
1.012622944
1.012587434
1.012377609
1.012298473
1.012246584
1.012158296
1.01201045
1.012072967
1.012319613
1.012701616
1.012947166
1.013176799
1.013380279
1.013569931
1.013788542
1.013785676
1.013752459
1.013396738
1.013083853
1.012655726
1.012944945
1.01322474
1.013195224
1.013210698
1.013311471
1.013131525
1.012996426
1.0127424
1.012686782
1.012370028
1.012260068
1.012477737
1.012875704
1.012838148
1.012593845
1.012406997
1.012215615
1.012140834
1.012221036
1.012238921
1.012163851
1.012203263
1.012193928
1.012384057
1.01273386
1.013145597
1.013468298
1.013776341
1.014101307
1.014187173
1.014149528
1.014003124
1.013655828
1.013150302
1.013218923
1.01327442
1.013504556
1.013539466
1.013619023
1.013536588
1.013472486
1.013325877
1.013110063
1.012744759
1.012612329
1.012250869
1.01290205
1.012961759
1.012788259
1.012625142
1.01242331
1.012221439
1.012250969
1.012352176
1.012405619
1.012344127
1.012159747
1.01207685
1.012100748
1.012569692
1.01328857
1.013939478
1.014289218
1.014379895
1.014418511
1.014386669
1.013942289
1.013595589
1.013267285
1.013259436
1.013660173
1.013749108
1.013693784
1.013818237
1.013786476
1.013651879
1.013401339
1.01312298
1.011741137
1.012091928
1.012629956
1.012823648
1.013008362
1.012992155
1.012787277
1.012508894
1.012492178
1.012649136
1.012671314
1.012571255
1.012308558
1.011953102
1.011849479
1.011964379
1.012572565
1.013649174
1.01434099
1.014528671
1.014632356
1.014598905
1.014267214
1.01387412
1.013231748
1.013118911
1.013221079
1.013456268
1.013613483
1.013779401
1.013842047
1.013809679
1.013683206
1.013303937
1.011994875
1.012244933
1.012322961
1.012597883
1.013057811
1.013132185
1.013029119
1.012951888
1.012892007
1.013065811
1.013091944
1.012938684
1.012572017
1.012242181
1.011975359
1.011927432
1.011976708
1.012639286
1.013508384
1.0141115
1.014460331
1.014553822
1.014478414
1.013866181
1.013238174
1.012695111
1.012391572
1.012462141
1.012802952
1.013201269
1.013667371
1.013900613
1.0138803
1.01365475
1.012320139
1.012565676
1.01254316
1.012633269
1.012967796
1.013090634
1.013111092
1.013122498
1.013135953
1.013293398
1.013365878
1.013235135
1.013050381
1.012849507
1.012309664
1.012096457
1.011933192
1.012021127
1.012414787
1.012860445
1.013325588
1.013772295
1.014055754
1.013810761
1.013269005
1.012534072
1.012190001
1.012011177
1.011897239
1.012272552
1.012950147
1.013728762
1.013997814
1.013938186
1.012423675
1.012744657
1.012748045
1.012522704
1.012609649
1.012700115
1.012839056
1.01284295
1.013009484
1.01321024
1.013373805
1.013446826
1.013361054
1.013142933
1.012887192
1.012577489
1.012307098
1.0122315
1.011993181
1.012064791
1.012284355
1.012612113
1.012882657
1.013314889
1.013039208
1.012503887
1.012134241
1.011833818
1.011921952
1.011939714
1.012161035
1.012871313
1.013703666
1.013993766
1.012154495
1.012510292
1.012457988
1.012153622
1.012178961
1.012121228
1.012040173
1.011925133
1.012073355
1.012514084
1.01309295
1.013391332
1.013479689
1.013370704
1.013333262
1.013057632
1.012808941
1.012279965
1.012260282
1.012242819
1.012282952
1.012272454
1.012264153
1.012498528
1.012660042
1.012623807
1.012278922
1.012098695
1.012019388
1.011826211
1.01179282
1.012135123
1.012766145
1.013386472
1.011632895
1.011907103
1.011936102
1.011740734
1.011827224
1.011732437
1.011529883
1.011421741
1.011336201
1.011584166
1.012095474
1.012702267
1.013242401
1.013456474
1.01356113
1.01344186
1.013024832
1.012748414
1.012532477
1.012274444
1.012203018
1.012110076
1.012316234
1.012061494
1.012519332
1.01282185
1.012701427
1.012488001
1.011442792
1.011723536
)
;

boundaryField
{
    inlet
    {
        type            fixedValue;
        value           nonuniform 0();
    }
    outlet
    {
        type            inletOutlet;
        inletValue      nonuniform 0();
        value           nonuniform 0();
    }
    bottom
    {
        type            slip;
    }
    top
    {
        type            slip;
    }
    obstacle
    {
        type            zeroGradient;
    }
    defaultFaces
    {
        type            empty;
    }
    procBoundary10to4
    {
        type            processor;
        value           nonuniform List<scalar> 
32
(
0.8860981747
0.88380246
0.8798930551
0.8758712375
0.8734149377
0.8712957901
1.000678235
0.99482485
0.986726411
0.9787652684
0.9734279235
0.9670543444
0.9593032564
0.9539519612
0.9490388353
0.9422426869
0.9371424924
0.9338071184
0.9292947424
0.9237421231
0.9197091356
0.9156928451
0.9104165515
0.9060202619
0.9026942162
0.8991866727
0.8960090779
0.893170902
0.8896727143
0.8853956672
0.8822051934
0.8822051934
)
;
    }
    procBoundary10to5
    {
        type            processor;
        value           uniform 0.862339778;
    }
    procBoundary10to9
    {
        type            processor;
        value           nonuniform List<scalar> 
55
(
0.9989416514
0.9887224279
0.9782168297
0.9684212741
0.9584327639
0.9479114708
0.9380177906
0.9282343174
0.9180109857
0.9073278998
0.8987038828
0.8884131882
0.8779983721
0.8708700725
0.8621928442
0.8527770425
0.849062049
0.8458835383
0.8424042185
0.8419728184
0.842170536
0.8430613942
0.8529382303
0.9041464361
0.9709226329
1.005376474
1.007251622
1.007441313
1.008875085
1.011447924
1.011447924
1.012234106
1.012536416
1.012581361
1.012578074
1.01270539
1.012707288
1.012527031
1.01216607
1.011714333
1.011714333
1.010225577
1.010237782
1.010496936
1.010914203
1.011057654
1.011118034
1.011031755
1.010791846
1.010791846
1.00950051
1.009727069
1.010245964
1.010701568
1.010952663
)
;
    }
    procBoundary10to11
    {
        type            processor;
        value           nonuniform List<scalar> 
70
(
0.8573951658
0.8571373959
0.8700385435
0.9215988836
0.9803346992
0.9948431963
1.003091839
1.008305445
1.008816149
1.007080262
1.006552956
1.007277197
1.007898485
1.007654607
1.007225819
1.007296365
1.007652732
1.007902794
1.008032647
1.007978225
1.007983228
1.008061631
1.008135724
1.008183763
1.008300819
1.008633508
1.009285828
1.010066458
1.010839096
1.011306618