/*--------------------------------*- C++ -*----------------------------------*\
  =========                 |
  \\      /  F ield         | OpenFOAM: The Open Source CFD Toolbox
   \\    /   O peration     | Website:  https://openfoam.org
    \\  /    A nd           | Version:  7
     \\/     M anipulation  |
\*---------------------------------------------------------------------------*/
FoamFile
{
    version     2.0;
    format      ascii;
    class       volVectorField;
    location    "2";
    object      U;
}
// * * * * * * * * * * * * * * * * * * * * * * * * * * * * * * * * * * * * * //

dimensions      [0 1 -1 0 0 0 0];

internalField   nonuniform List<vector> 
138
(
(2.97739164 -0.004430079495 0)
(2.974633325 0.001919898253 0)
(2.975802469 -0.0005180228824 0)
(2.980768929 -0.003169006458 0)
(2.98305502 -0.001507147829 0)
(2.981900242 0.004407323751 0)
(2.977813093 0.004848504299 0)
(3.04264204 0.001275118909 0)
(3.034982368 -0.00828110218 0)
(3.029765791 -0.001144195381 0)
(3.029866069 -0.00241193228 0)
(3.032518277 -0.002223707342 0)
(3.033314847 9.348979305e-05 0)
(3.030977595 0.005464088336 0)
(3.025255106 0.005521371525 0)
(3.093933277 -0.001010955904 0)
(3.090327648 -0.007267106967 0)
(3.084681972 0.00103007618 0)
(3.082663458 -0.0004098825545 0)
(3.082125359 -0.0007383544889 0)
(3.081328217 0.000210247989 0)
(3.078727307 0.004000931294 0)
(3.072475305 0.003228630548 0)
(3.139035687 -0.002938443882 0)
(3.134439963 -0.004246670086 0)
(3.130650816 0.00334895722 0)
(3.130641897 -0.00125885739 0)
(3.127732207 -0.001628883575 0)
(3.125956432 -0.0001326250718 0)
(3.122333701 0.002535437127 0)
(3.116993793 0.0002167279155 0)
(3.182192196 -0.001756955018 0)
(3.174914724 -0.002946808442 0)
(3.170677802 0.002108522034 0)
(3.171151732 -0.002023418363 0)
(3.167995462 -0.002416987804 0)
(3.163379189 0.0001251021004 0)
(3.159201674 0.001812449447 0)
(3.154607002 -0.0007195159397 0)
(3.224198773 0.005892166639 0)
(3.219436504 0.001242049068 0)
(3.213101298 -0.004047734752 0)
(3.207501702 -0.0011554136 0)
(3.204985835 -0.004048400825 0)
(3.202042233 -0.003167422293 0)
(3.197104338 0.0005959413465 0)
(3.194097703 0.002340959825 0)
(3.187891719 -0.0009058336957 0)
(3.255981334 0.01091296329 0)
(3.250527064 0.002656333505 0)
(3.243381835 -0.006352348213 0)
(3.237910908 -0.003498452587 0)
(3.236445246 -0.004800754612 0)
(3.234720763 -0.002386744765 0)
(3.231820284 0.002057477373 0)
(3.228513046 0.005134244413 0)
(3.221957921 0.001033273123 0)
(3.279380556 0.007327184371 0)
(3.273144248 0.001332255867 0)
(3.268789111 -0.006433714559 0)
(3.265546853 -0.0005851409222 0)
(3.265662347 -0.001508843181 0)
(3.265508332 0.0004745499069 0)
(3.261896131 0.002815654066 0)
(3.258494013 0.006566027102 0)
(3.2531887 0.003877562176 0)
(3.296454019 -0.0006462675829 0)
(3.291980138 0.0003077075768 0)
(3.290362013 -0.001959318255 0)
(3.288016719 0.004431159506 0)
(3.287487031 0.001249642793 0)
(3.286976907 0.001585052124 0)
(3.283820479 0.003104713982 0)
(3.28091622 0.006370754226 0)
(3.276187555 0.003250968973 0)
(3.304213007 -0.00284408629 0)
(3.302184472 0.002658607331 0)
(3.299491883 0.0006619070589 0)
(3.296552824 0.004662777127 0)
(3.29642908 0.002049264319 0)
(3.296027107 -0.0003358485425 0)
(3.294705523 -0.0007058294602 0)
(3.292440976 0.001730034013 0)
(3.288622553 0.001856618965 0)
(3.297753702 0.000497104285 0)
(3.294391955 0.002990467845 0)
(3.291445521 0.002246971046 0)
(3.289226309 0.004258287096 0)
(3.29083828 -0.002186341015 0)
(3.291984318 -0.002913582588 0)
(3.291142072 -0.0006380919023 0)
(3.289503884 0.001562795809 0)
(3.28778662 -0.001116343489 0)
(3.276970345 0.001977098891 0)
(3.275111178 0.0002664305344 0)
(3.273314479 -0.001017545857 0)
(3.272254937 0.001275045975 0)
(3.27499776 -0.002311974439 0)
(3.277916198 -0.0007119820537 0)
(3.277366356 0.002126690703 0)
(3.276377304 0.0007416101572 0)
(3.275751724 -0.0003987095414 0)
(3.254912642 0.00689067403 0)
(3.251715365 -0.0001113164478 0)
(3.253962896 -0.0092750069 0)
(3.254600076 -0.006282006204 0)
(3.254632957 -0.001776492738 0)
(3.257163525 8.183143112e-05 0)
(3.26041637 0.003501068234 0)
(3.260968917 0.005137473495 0)
(3.260931645 0.0009481790468 0)
(3.260640142 0.001030781216 0)
(3.227632433 0.01206994126 0)
(3.231063316 0.003332884263 0)
(3.236065506 -0.009314178984 0)
(3.238986008 -0.007474724124 0)
(3.240892378 -0.00405394994 0)
(3.243027499 -0.001483875439 0)
(3.245845732 0.0008598206205 0)
(3.247574119 -0.0004653131882 0)
(3.248047472 -0.0003305096163 0)
(3.249471989 -0.0002698382711 0)
(3.209924161 0.003741931867 0)
(3.21724793 0.003181694898 0)
(3.22481814 0.0004291054245 0)
(3.230125664 -0.0005902500675 0)
(3.234285253 0.0009771923636 0)
(3.236692524 -0.001503315045 0)
(3.239027345 -0.0007802661312 0)
(3.241199417 0.0001831087802 0)
(3.24168317 0.001326536304 0)
(3.203703563 -0.00813770825 0)
(3.211373973 0.003535292272 0)
(3.218670668 0.009566167337 0)
(3.226689142 0.005540100966 0)
(3.231332397 0.004419216283 0)
(3.233537086 -0.000548989279 0)
(3.235911558 -0.0007831872319 0)
)
;

boundaryField
{
    inlet
    {
        type            fixedValue;
        value           nonuniform 0();
    }
    outlet
    {
        type            inletOutlet;
        inletValue      nonuniform 0();
        value           nonuniform 0();
    }
    bottom
    {
        type            slip;
    }
    top
    {
        type            slip;
    }
    obstacle
    {
        type            slip;
    }
    defaultFaces
    {
        type            empty;
    }
    procBoundary16to10
    {
        type            processor;
        value           nonuniform List<vector> 9((2.927447671 -0.002433562834 0) (2.925656314 0.002878392172 0) (2.926618737 -0.00139520794 0) (2.93124816 -0.003782700253 0) (2.934743209 -0.001979769857 0) (2.934306444 0.002738329774 0) (2.933087732 0.001187947622 0) (2.979119556 0.004507776685 0) (2.979119556 0.004507776685 0));
    }
    procBoundary16to11
    {
        type            processor;
        value           uniform (2.974172335 0.00295815382 0);
    }
    procBoundary16to15
    {
        type            processor;
        value           nonuniform List<vector> 
16
(
(3.04861417 -0.00579684159 0)
(3.102636922 -0.01279010256 0)
(3.148094118 -0.01394168807 0)
(3.188189833 -0.006564910389 0)
(3.188189833 -0.006564910389 0)
(3.222064105 -0.003620323941 0)
(3.260297362 0.0041557348 0)
(3.285619427 -0.001218775105 0)
(3.299786081 -0.0125246595 0)
(3.305178946 -0.01806774856 0)
(3.303192983 -0.00746650049 0)
(3.284465602 0.0008017581845 0)
(3.284465602 0.0008017581845 0)
(3.263588073 0.008415298868 0)
(3.231106066 0.006041509976 0)
(3.209544903 -0.005697018608 0)
)
;
    }
    procBoundary16to17
    {
        type            processor;
        value           nonuniform List<vector> 
15
(
(3.020393379 0.003856462211 0)
(3.066764744 0.001794383341 0)
(3.110629049 -0.0006952158838 0)
(3.149947732 -0.001301155298 0)
(3.184300096 -0.001075299279 0)
(3.218686856 -0.0007903681381 0)
(3.250736716 -3.209721759e-05 0)
(3.274145136 -0.0007658932459 0)
(3.287006845 -0.001249014368 0)
(3.287721706 -0.0009130801261 0)
(3.276603982 -0.001313653448 0)
(3.262175143 0.003537146103 0)
(3.25143792 0.001841675592 0)
(3.244744095 -0.001298400216 0)
(3.244744095 -0.001298400216 0)
)
;
    }
    procBoundary16to21
    {
        type            processor;
        value           uniform (3.199520922 -0.01525195776 0);
    }
    procBoundary16to22
    {
        type            processor;
        value           nonuniform List<vector> 10((3.237723414 0.001536315081 0) (3.239480324 0.002591139356 0) (3.205650281 -0.008363034406 0) (3.214496075 0.001819806345 0) (3.218759326 0.009976887738 0) (3.225499476 0.006952510393 0) (3.231546253 0.005080691725 0) (3.232117819 0.0004234803287 0) (3.237723414 0.001536315081 0) (3.234697614 -0.002145147798 0));
    }
}


// ************************************************************************* //
