/*--------------------------------*- C++ -*----------------------------------*\
  =========                 |
  \\      /  F ield         | OpenFOAM: The Open Source CFD Toolbox
   \\    /   O peration     | Website:  https://openfoam.org
    \\  /    A nd           | Version:  7
     \\/     M anipulation  |
\*---------------------------------------------------------------------------*/
FoamFile
{
    version     2.0;
    format      ascii;
    class       volScalarField;
    location    "2.2";
    object      T;
}
// * * * * * * * * * * * * * * * * * * * * * * * * * * * * * * * * * * * * * //

dimensions      [0 0 0 1 0 0 0];

internalField   nonuniform List<scalar> 
22
(
1.069438191
1.085604089
1.0995302
1.06943819
1.085604089
1.0995302
1.112316819
1.123050093
1.131570464
1.141910987
1.013917662
1.021274756
1.030363994
1.039483799
1.049726858
1.058455251
1.07219006
1.000612636
1.001513158
1.00322927
1.006017338
1.010320697
)
;

boundaryField
{
    inlet
    {
        type            fixedValue;
        value           nonuniform 0();
    }
    outlet
    {
        type            inletOutlet;
        inletValue      nonuniform 0();
        value           nonuniform 0();
    }
    bottom
    {
        type            slip;
    }
    top
    {
        type            slip;
    }
    obstacle
    {
        type            zeroGradient;
    }
    defaultFaces
    {
        type            empty;
    }
    procBoundary20to13
    {
        type            processor;
        value           uniform 1.052301173;
    }
    procBoundary20to14
    {
        type            processor;
        value           nonuniform List<scalar> 4(1.013917662 1.021274756 1.030363994 1.112316819);
    }
    procBoundary20to19
    {
        type            processor;
        value           nonuniform List<scalar> 3(1.052301173 1.007541599 1.000193703);
    }
    procBoundary20to26
    {
        type            processor;
        value           nonuniform List<scalar> 8(1.016217235 1.023100087 1.000003332 1.000016101 1.00006204 1.00018794 1.016217235 1.000496044);
    }
    procBoundary20to27
    {
        type            processor;
        value           nonuniform List<scalar> 2(1.070403296 1.074142689);
    }
}


// ************************************************************************* //
