/*--------------------------------*- C++ -*----------------------------------*\
  =========                 |
  \\      /  F ield         | OpenFOAM: The Open Source CFD Toolbox
   \\    /   O peration     | Website:  https://openfoam.org
    \\  /    A nd           | Version:  7
     \\/     M anipulation  |
\*---------------------------------------------------------------------------*/
FoamFile
{
    version     2.0;
    format      ascii;
    class       volVectorField;
    location    "1.3";
    object      U;
}
// * * * * * * * * * * * * * * * * * * * * * * * * * * * * * * * * * * * * * //

dimensions      [0 1 -1 0 0 0 0];

internalField   nonuniform List<vector> 
138
(
(3 -1.248153301e-15 0)
(3 -4.080318541e-16 0)
(3 2.327039931e-17 0)
(3 1.316602896e-16 0)
(3 -1.088438128e-15 0)
(3 -1.801721134e-15 0)
(3 -2.331724494e-15 0)
(3 -2.365638348e-15 0)
(3 -2.737421587e-15 0)
(3 -4.787744029e-15 0)
(3 -6.378853359e-15 0)
(3 -6.114541251e-15 0)
(3 -6.019034414e-15 0)
(3 -4.809333703e-15 0)
(3 -3.8300932e-15 0)
(3 -2.848464155e-15 0)
(3 -7.159605148e-15 0)
(3 -7.001647504e-15 0)
(3 -6.99124362e-15 0)
(3 -7.135124482e-15 0)
(3 -7.664917773e-15 0)
(3 -8.455317141e-15 0)
(3 -7.946439392e-15 0)
(3 -7.791384464e-15 0)
(3 -8.199986083e-15 0)
(3 -8.049741542e-15 0)
(3 -6.637365506e-15 0)
(3 -5.620993399e-15 0)
(3 -5.510558359e-15 0)
(3 -4.968490349e-15 0)
(3 -2.826526207e-15 0)
(3 -1.495456857e-15 0)
(3 -9.247520573e-16 0)
(3 -7.484165125e-17 0)
(3 8.062582865e-17 0)
(3 6.185664497e-16 0)
(3 1.727913468e-15 0)
(3 2.85373195e-15 0)
(3 1.984013765e-15 0)
(3 -4.052123939e-16 0)
(3 -1.089288057e-15 0)
(3 5.907469723e-16 0)
(3 1.430717346e-15 0)
(3 1.129576397e-15 0)
(3 1.197850821e-15 0)
(3 8.618722873e-16 0)
(3 8.320522415e-16 0)
(3 9.129323746e-16 0)
(3 1.117215384e-15 0)
(3 9.367769725e-16 0)
(3 -2.635561028e-15 0)
(3 -1.641416159e-15 0)
(3 -1.060134754e-15 0)
(3 -7.169188768e-16 0)
(3 -1.914283701e-16 0)
(3 -8.349187605e-16 0)
(3 -1.561360355e-15 0)
(3 -2.400709319e-15 0)
(3 -2.20416793e-15 0)
(3 -1.21341017e-15 0)
(3 4.91729448e-16 0)
(3 2.924061823e-16 0)
(3 2.822491826e-16 0)
(3 -1.458884407e-15 0)
(3 -3.198561349e-15 0)
(3 -3.007725235e-15 0)
(3 -3.280529242e-15 0)
(3 -6.218480904e-15 0)
(3 -6.657834017e-15 0)
(3 -6.819614625e-15 0)
(3 -5.990190875e-15 0)
(3 -5.361757796e-15 0)
(3 -5.062308823e-15 0)
(3 -4.670083812e-15 0)
(3 -4.03527322e-15 0)
(3 -3.764592514e-15 0)
(3 -2.168771665e-15 0)
(3 -1.063791372e-17 0)
(3 9.176309081e-16 0)
(3 -1.670678359e-17 0)
(3 -1.524090758e-16 0)
(3 -5.286503683e-16 0)
(3 -1.663417932e-15 0)
(3 -1.715334794e-15 0)
(3 -6.719900695e-15 0)
(3 -6.967831906e-15 0)
(3 -6.714835676e-15 0)
(3 -6.404745129e-15 0)
(3 -5.403377163e-15 0)
(3 -4.090679865e-15 0)
(3 -2.538309352e-15 0)
(3 -2.353452106e-15 0)
(3 -2.194086562e-15 0)
(3 -2.019128325e-15 0)
(3 -1.768520241e-15 0)
(3 -1.722049272e-15 0)
(3 -1.222046718e-15 0)
(3 2.692265189e-16 0)
(3 5.738502562e-16 0)
(3 -9.440520174e-17 0)
(3 3.293031269e-16 0)
(3 -3.757550394e-15 0)
(3 -4.136379336e-15 0)
(3 -4.28586384e-15 0)
(3 -4.827554233e-15 0)
(3 -4.732683124e-15 0)
(3 -4.268079672e-15 0)
(3 -4.229997098e-15 0)
(3 -5.164442071e-15 0)
(3 -5.896072473e-15 0)
(3 -6.544446858e-15 0)
(3 -8.691166087e-15 0)
(3 -8.006982218e-15 0)
(3 -6.451637571e-15 0)
(3 -4.43595353e-15 0)
(3 -2.322748714e-15 0)
(3 -2.572286438e-15 0)
(3 -2.251219691e-15 0)
(3 -1.428889136e-15 0)
(3 -3.709829332e-15 0)
(3 -4.117181815e-15 0)
(3 -3.716581845e-15 0)
(3 -3.547489377e-15 0)
(3 -4.391873314e-15 0)
(3 -4.482123456e-15 0)
(3 -5.125864885e-15 0)
(3 -6.339289024e-15 0)
(3 -7.800503878e-15 0)
(3 -9.052267237e-15 0)
(3 -9.382301379e-15 0)
(3 -8.910798387e-15 0)
(3 -7.288804618e-15 0)
(3 -5.822005939e-15 0)
(3 -5.927617885e-15 0)
(3 -6.822294762e-15 0)
(3 -7.913925319e-15 0)
(3 -8.596473938e-15 0)
(3 -1.086263198e-14 0)
)
;

boundaryField
{
    inlet
    {
        type            fixedValue;
        value           nonuniform 0();
    }
    outlet
    {
        type            inletOutlet;
        inletValue      nonuniform 0();
        value           nonuniform 0();
    }
    bottom
    {
        type            slip;
    }
    top
    {
        type            slip;
    }
    obstacle
    {
        type            slip;
    }
    defaultFaces
    {
        type            empty;
    }
    procBoundary2to1
    {
        type            processor;
        value           nonuniform List<vector> 8((3 -1.447735861e-15 0) (3 -7.240126485e-15 0) (3 1.247868569e-16 0) (3 -3.775491604e-15 0) (3 -6.70272516e-15 0) (3 -6.193684912e-15 0) (3 -3.002090187e-15 0) (3 -9.108726956e-16 0));
    }
    procBoundary2to3
    {
        type            processor;
        value           nonuniform List<vector> 10((3 -1.799492026e-15 0) (3 -1.799492026e-15 0) (3 -2.055835326e-15 0) (3 -2.607250331e-15 0) (3 -8.296242769e-15 0) (3 -3.340154478e-15 0) (3 1.814632122e-15 0) (3 -7.287412306e-16 0) (3 2.959377419e-15 0) (3 4.460707953e-14 0));
    }
    procBoundary2to8
    {
        type            processor;
        value           nonuniform List<vector> 
18
(
(3 -1.939429675e-16 0)
(3 -1.474062301e-15 0)
(3 -2.153746116e-15 0)
(3 -2.446068716e-15 0)
(3 -2.834617551e-15 0)
(3 -4.332817631e-15 0)
(3 -5.031719864e-15 0)
(3 -5.480742747e-15 0)
(3 -6.214401057e-15 0)
(3 -7.372919271e-15 0)
(3 -7.38750332e-15 0)
(3 -6.933697214e-15 0)
(3 -6.994478965e-15 0)
(3 -7.305415012e-15 0)
(3 -7.305415012e-15 0)
(3 -1.027133156e-14 0)
(3 -1.042748787e-14 0)
(3 -1.118803834e-14 0)
)
;
    }
}


// ************************************************************************* //
