/*--------------------------------*- C++ -*----------------------------------*\
  =========                 |
  \\      /  F ield         | OpenFOAM: The Open Source CFD Toolbox
   \\    /   O peration     | Website:  https://openfoam.org
    \\  /    A nd           | Version:  7
     \\/     M anipulation  |
\*---------------------------------------------------------------------------*/
FoamFile
{
    version     2.0;
    format      ascii;
    class       volScalarField;
    location    "2.2";
    object      p;
}
// * * * * * * * * * * * * * * * * * * * * * * * * * * * * * * * * * * * * * //

dimensions      [1 -1 -2 0 0 0 0];

internalField   nonuniform List<scalar> 
2222
(
1
1
1.000000015
1.000000386
1.000009586
1.000130008
1.001451669
1.009698811
1.047816833
1.153194043
1.37001244
1.605888327
1.807421503
1.988069686
2.049482006
2.045426719
2.037531116
2.02130429
1.994044167
1.961189402
1.929203816
1.899752989
1.869911082
1.838525635
1.806456764
1.773926255
1.739784201
1.705151317
1.671352607
1.637579252
1.607707922
1.557204232
1
1.000000014
1.000000503
1.000008769
1.000144866
1.001313954
1.009771398
1.040480845
1.127716625
1.253165187
1.385177009
1.539085467
1.69981481
1.809017426
1.918298195
1.980129894
2.016884327
2.009731129
1.98554634
1.957179252
1.928909747
1.899814761
1.868377386
1.836551183
1.804530236
1.771422219
1.737236524
1.703750699
1.670825897
1.637068553
1.606918188
1.556601688
1.000000017
1.00000042
1.000010403
1.000128733
1.001451909
1.008678868
1.044132689
1.118509561
1.240122909
1.357375276
1.406408633
1.465914576
1.553563089
1.671204864
1.824705724
1.928724287
1.987316083
1.983724238
1.972807321
1.952337268
1.928042697
1.89840154
1.865559919
1.834640397
1.802998953
1.769287971
1.735547915
1.703453182
1.671228301
1.63728013
1.607111541
1.557158112
1.000000518
1.000008862
1.000148457
1.001304766
1.009808798
1.040490585
1.124232518
1.254102317
1.34189852
1.415211104
1.420700408
1.428083799
1.45802256
1.528291853
1.640017692
1.763037761
1.890415519
1.928839604
1.947776283
1.945901311
1.931669844
1.903408063
1.87261341
1.843861713
1.812011335
1.777667068
1.744813302
1.713691156
1.681816264
1.647856297
1.618274361
1.569276697
1.00001052
1.00013337
1.001435773
1.009205049
1.042573482
1.129284268
1.237208164
1.352413083
1.40565991
1.432874824
1.434620068
1.432837623
1.434443442
1.448932424
1.494475344
1.597103528
1.735352749
1.847010252
1.928585508
1.921681807
1.898618077
1.872512425
1.850546436
1.823224877
1.788624321
1.757104896
1.728654287
1.697983146
1.665094472
1.632282228
1.604630686
1.556907756
1.000146748
1.001390629
1.009475035
1.043683709
1.121869514
1.259056246
1.354146262
1.412037006
1.421685616
1.429981943
1.43725862
1.436608354
1.433831076
1.42793727
1.432041312
1.46330031
1.539965367
1.660770943
1.80518244
1.835246762
1.862779863
1.861304655
1.845836272
1.814359499
1.781012592
1.753141769
1.724620398
1.692166888
1.659483406
1.628096767
1.601058247
1.553629529
1.001411727
1.009839023
1.04193263
1.132518949
1.24897004
1.342172022
1.405639363
1.434032412
1.434513761
1.433809691
1.435815307
1.434520143
1.428892237
1.419766315
1.404484694
1.404850412
1.422465039
1.490932752
1.611835013
1.736319408
1.839663064
1.838592602
1.81922689
1.790211027
1.770083665
1.746979247
1.714289032
1.680618018
1.652142209
1.623506862
1.595854167
1.548090265
1.009288949
1.04607618
1.123905001
1.251985245
1.373058971
1.4064027
1.420889538
1.434103674
1.437848239
1.4371125
1.435155947
1.429930465
1.420453957
1.407576079
1.392079288
1.374998014
1.371633784
1.384777604
1.437023289
1.554575755
1.688668442
1.743779214
1.777114531
1.77530852
1.764663897
1.737771897
1.70336356
1.6738239
1.647751707
1.619076884
1.590735864
1.543677518
1.041997376
1.134757789
1.255556887
1.338547761
1.41081999
1.430818583
1.432882773
1.436332635
1.437949441
1.436065152
1.43070065
1.421429151
1.408512023
1.393743504
1.37834397
1.361268152
1.344303909
1.337994468
1.347680807
1.395141707
1.494854559
1.628150936
1.728163607
1.75826293
1.74337909
1.711845783
1.689045934
1.669776024
1.643004177
1.609380355
1.581655123
1.538276489
1.126483067
1.252539671
1.371040203
1.415739413
1.42455322
1.430979585
1.436315286
1.437924667
1.436916014
1.432230107
1.422904239
1.410151415
1.394888906
1.379383428
1.363379457
1.347130737
1.329769007
1.313048171
1.305046777
1.311878654
1.352059757
1.450373121
1.564924622
1.671538231
1.692569532
1.691375105
1.685463216
1.665546073
1.634118557
1.600180189
1.574622691
1.533111918
1.261484801
1.341012086
1.40859207
1.433580445
1.435193835
1.434947506
1.437046628
1.437068101
1.433626711
1.424872243
1.412036894
1.396839274
1.38108836
1.36455829
1.348489628
1.331704763
1.315897901
1.298565992
1.281666347
1.272405131
1.278755422
1.310954649
1.399736177
1.529680412
1.624954155
1.679056723
1.671233908
1.642230543
1.615345701
1.595388639
1.573257486
1.529935788
1.376114713
1.414476251
1.421762175
1.430164716
1.438183067
1.43856864
1.437987538
1.434155083
1.425782849
1.413490862
1.3986814
1.382985386
1.366536641
1.349712963
1.33317268
1.317231374
1.300698737
1.284419476
1.267074575
1.251474996
1.240468689
1.24468683
1.274948415
1.354379077
1.46841595
1.594914735
1.610992714
1.613750864
1.609486225
1.5969569
1.575517198
1.527309901
1.410054782
1.434665414
1.435134296
1.435773584
1.438706778
1.438499233
1.434794522
1.42655538
1.414336702
1.399468348
1.384498689
1.367968015
1.351188489
1.334492596
1.318592622
1.301843923
1.285027928
1.268959586
1.253545269
1.236431744
1.219786022
1.208150025
1.212200012
1.235550832
1.313826751
1.439130319
1.532223469
1.599082338
1.597245239
1.574887361
1.549064983
1.514367211
1.419969365
1.432662891
1.440460334
1.440324111
1.439141926
1.435420759
1.427636084
1.415533855
1.400658089
1.384991985
1.368932881
1.351947616
1.335360761
1.32001785
1.302844273
1.28553156
1.269238324
1.25408164
1.237913592
1.220885621
1.204470153
1.189953802
1.178320882
1.180749206
1.204320567
1.270683402
1.388214859
1.509213548
1.542416387
1.545761529
1.539146333
1.513914798
1.435409478
1.437940329
1.440950801
1.440425591
1.436669869
1.428591159
1.416697668
1.402090124
1.386338602
1.369948371
1.352618473
1.336239257
1.320933271
1.303682261
1.285784381
1.269243106
1.254487934
1.237771391
1.220423258
1.204982548
1.191165165
1.176339228
1.160051369
1.148758962
1.151188052
1.170534037
1.239964542
1.352398532
1.456213001
1.523416114
1.522930412
1.500171008
1.441988984
1.441854433
1.441058627
1.437440585
1.429536335
1.417581362
1.403206759
1.38792837
1.371409928
1.353826306
1.337382335
1.321824123
1.304538687
1.285664418
1.269347178
1.254772505
1.237665233
1.219776317
1.203886872
1.19139938
1.176942447
1.160956005
1.146116158
1.132247153
1.121990965
1.123622754
1.142124159
1.200984571
1.320070149
1.421185024
1.481121603
1.476292325
1.442290476
1.441887358
1.438422118
1.43067034
1.418993069
1.404555848
1.389423449
1.373101227
1.355374735
1.338563143
1.322846881
1.305097235
1.285770494
1.269473453
1.254867347
1.237842585
1.218772319
1.203407644
1.191296618
1.176467293
1.160002294
1.145397855
1.133580951
1.120507502
1.104559587
1.093827439
1.095217024
1.113867266
1.171248214
1.274687786
1.400556775
1.448807533
1.442340833
1.438930255
1.431487545
1.420114559
1.406016365
1.390885058
1.374767841
1.356989116
1.339967709
1.323906645
1.305805388
1.286156267
1.269398947
1.25496884
1.237738757
1.21807994
1.203058306
1.191361803
1.176354702
1.15855496
1.14367054
1.133167057
1.120265641
1.105522979
1.090801232
1.077001713
1.068689897
1.070309484
1.084657581
1.144533716
1.246680952
1.371413278
1.439733027
1.432341466
1.42123476
1.407318703
1.392442898
1.376334246
1.358481199
1.341269143
1.325113377
1.306692012
1.286475972
1.269429332
1.25475594
1.237690426
1.217800572
1.202666571
1.19123843
1.176296734
1.157066962
1.142572703
1.13224827
1.11951323
1.10368496
1.088862474
1.078447545
1.066750818
1.052237138
1.042549505
1.043975911
1.060815227
1.109997681
1.256799039
1.433227137
1.422460784
1.408733938
1.393814446
1.37789383
1.359954609
1.342458065
1.326342907
1.307679444
1.286805539
1.269502696
1.254831688
1.237411196
1.2176449
1.202185216
1.190887691
1.175876455
1.156066979
1.141395226
1.131525444
1.118908782
1.101589712
1.086441707
1.077314048
1.066483413
1.053724885
1.039597688
1.026293641
1.018877532
1.020753889
1.033091486
1.132125715
1.423650762
1.410199672
1.395312964
1.379368887
1.36146892
1.34348919
1.327094977
1.308671305
1.287141421
1.269563647
1.255259417
1.237578526
1.216905916
1.20167046
1.190374483
1.175470001
1.15526261
1.139927795
1.130511432
1.118144053
1.099745208
1.084730574
1.075864989
1.065655213
1.051964492
1.037645604
1.027571966
1.016244789
1.002877404
0.9950556204
0.9953947955
1.040012037
1.411759153
1.396936846
1.380946975
1.362958278
1.344515391
1.327576036
1.309435923
1.288104991
1.269450502
1.255290514
1.238014511
1.216566566
1.200764515
1.189875509
1.175054381
1.154332353
1.138317172
1.129000284
1.116972153
1.098598
1.082850974
1.074525688
1.06478332
1.049340899
1.035260006
1.025730735
1.015240528
1.004881058
0.9911335247
0.9770485717
0.972249163
0.9860791712
1.398704219
1.382691611
1.364278954
1.345531332
1.328211489
1.309958382
1.288986429
1.269786185
1.25489011
1.238389422
1.217051597
1.200139671
1.189047437
1.17439232
1.153272548
1.136649911
1.127318895
1.115851398
1.097348948
1.080894476
1.073027854
1.063269135
1.047546104
1.03299597
1.022811452
1.014315788
1.002333128
0.9890448223
0.9796235148
0.9658716708
0.9569982052
0.9548437489
1.384454114
1.365918665
1.346437288
1.329161693
1.310622049
1.289347695
1.270126829
1.254978702
1.238502163
1.217751574
1.199783051
1.18800268
1.173634104
1.152460054
1.135025152
1.125804251
1.114514778
1.096088239
1.078933399
1.070724198
1.061929184
1.046231065
1.029826033
1.021180339
1.011644164
0.9996946649
0.9874294903
0.9746994443
0.9670529964
0.9563149381
0.9461823741
0.9347599397
1.367682118
1.347442795
1.329632497
1.311737177
1.289851907
1.270250579
1.255471534
1.238923771
1.217825009
1.199320985
1.187052381
1.173041745
1.152057059
1.133583894
1.123980293
1.113073722
1.094932275
1.076851722
1.068592889
1.06012783
1.044365301
1.028061871
1.01790893
1.009385988
0.9976422226
0.9828379655
0.9733445949
0.9633706032
0.9547751212
0.9456889212
0.9345740544
0.919900683
1.348751026
1.329873004
1.312510794
1.291403446
1.270314224
1.255425695
1.239460153
1.217803564
1.198514408
1.186224572
1.172541319
1.151787428
1.132024694
1.121948453
1.111698865
1.093995164
1.075260607
1.066301544
1.05803074
1.042981408
1.024715886
1.015427949
1.007083125
0.9944222181
0.9814165134
0.9691606121
0.9613709719
0.9526179896
0.941996221
0.9319595598
0.9220823402
0.9077585163
1.330502654
1.312967586
1.292967141
1.27110203
1.254881977
1.239772543
1.218573495
1.197732987
1.184947574
1.171721147
1.151296216
1.130549172
1.119884322
1.110339596
1.093679702
1.073701862
1.06365983
1.05588992
1.040805306
1.022402411
1.012190004
1.004404676
0.9934103571
0.9778203593
0.9668963501
0.9580134053
0.9493532627
0.940163562
0.927528496
0.917950004
0.9108972564
0.897138195
1.313608765
1.29381796
1.272103688
1.254682576
1.239742253
1.219640626
1.197313647
1.183250532
1.170476751
1.150980435
1.129511908
1.117917672
1.108640212
1.092942462
1.072364805
1.060871076
1.053191626
1.03957441
1.019750535
1.008932432
1.002049952
0.9903044632
0.9764048345
0.9631895038
0.9546944276
0.9469909491
0.936885333
0.9256448123
0.9140939436
0.9070030946
0.8997457412
0.8848434352
1.294620351
1.272777787
1.254891178
1.239685452
1.22008766
1.197049944
1.181550179
1.169301508
1.150902186
1.12885134
1.115952146
1.106540774
1.091614097
1.071139737
1.058245942
1.05073524
1.037718179
1.017762856
1.005675975
0.9984791522
0.9884226527
0.973142803
0.9606651971
0.9519358695
0.9440582552
0.9350425248
0.9219359193
0.9103299344
0.9033886178
0.8959478771
0.8863340029
0.8722125428
1.273391523
1.254754387
1.239478996
1.22019629
1.196683811
1.180033634
1.168219623
1.150976552
1.128191755
1.113723456
1.104511576
1.090273889
1.069710484
1.055829009
1.048031375
1.035880302
1.015816176
1.001900288
0.9957710828
0.9852366057
0.9710987875
0.9582656524
0.9490773769
0.9413895837
0.9313857456
0.9187625476
0.9060585936
0.8995670452
0.8933417318
0.8825687533
0.8731478481
0.861318069
1.254188971
1.238951375
1.22047946
1.196570709
1.178415608
1.166654922
1.150819986
1.127771009
1.111353219
1.102421332
1.089371944
1.068387953
1.052575182
1.045024687
1.033815169
1.013837232
0.9987884401
0.9922745643
0.9835980632
0.96836433
0.9553541969
0.946436794
0.9375929063
0.9283000212
0.9151081296
0.9027710729
0.8965412724
0.8905703921
0.8800835207
0.8685584159
0.8621823666
0.8508550921
1.238160019
1.22093795
1.196957406
1.176753399
1.16459599
1.150082864
1.128042303
1.109345326
1.099932883
1.088191052
1.067449753
1.048935526
1.041196708
1.031689598
1.012940471
0.9951789098
0.9890658648
0.9807341893
0.9662655225
0.9522226362
0.9427153432
0.9345667531
0.9248627385
0.9130057675
0.8996974063
0.89288137
0.8873244938
0.8767197424
0.8646474554
0.8575789198
0.8519381941
0.8395273627
1.22110317
1.197578595
1.175214996
1.162538319
1.149118877
1.128376179
1.107998941
1.097136262
1.08607039
1.066885923
1.045912698
1.037152702
1.029065053
1.012139333
0.9927217998
0.9845436301
0.977786153
0.9639810911
0.9488454233
0.9395909093
0.9310334305
0.922185111
0.9103998006
0.8966157158
0.8884018217
0.8834229549
0.8741042903
0.8609851885
0.8541314515
0.8485938154
0.8413675595
0.8280432539
1.198328561
1.17420729
1.160631634
1.148263614
1.128314374
1.106490771
1.094243791
1.083593599
1.065890351
1.044162865
1.03332982
1.025826174
1.01107312
0.9901618746
0.9806011643
0.9739140233
0.9619234642
0.9464867648
0.9358354225
0.927702363
0.9184520436
0.9074295899
0.8931333885
0.8836681236
0.8791426902
0.8716751488
0.8585483316
0.8500510907
0.8451722692
0.8373464095
0.8282494126
0.8156854195
1.174311282
1.158591929
1.146845939
1.128089687
1.104638997
1.091128466
1.081234113
1.064794288
1.042489652
1.029665655
1.022326456
1.009141641
0.988671412
0.9764793012
0.9706326395
0.9596991598
0.9434474593
0.9323780074
0.9237379509
0.9145824909
0.9038548534
0.8904298741
0.879835396
0.8750807166
0.8688550214
0.8568529609
0.8460248864
0.8410400963
0.8340729447
0.8229742728
0.8152028577
0.8047933328
1.156569093
1.144554829
1.127765832
1.103654729
1.087780028
1.078503578
1.063631843
1.040510114
1.025581564
1.018633476
1.007378085
0.9873168946
0.9730666188
0.9668770632
0.9571902483
0.9407165781
0.9275320893
0.9203081497
0.9111937051
0.9003744995
0.8878960118
0.8767639506
0.8708990025
0.8648016517
0.8539159128
0.8418214706
0.8360662012
0.8299542618
0.8192514901
0.8099786887
0.8051449086
0.794563083
1.142324354
1.126967674
1.103807851
1.084678297
1.07480925
1.061808509
1.039165497
1.021293687
1.014683659
1.005380026
0.9867434804
0.9691908679
0.9624985996
0.9542034421
0.9377723331
0.9232306822
0.9162146799
0.9087350164
0.8973775804
0.8845985883
0.8734641362
0.8669437627
0.8609911305
0.8507360277
0.8380450402
0.8316678288
0.8266704115
0.8167146323
0.8058451125
0.8003949141
0.794846261
0.7826141271
1.125928692
1.103434748
1.082059063
1.070848605
1.059123954
1.038740129
1.018143275
1.01033682
1.002503594
0.9857804974
0.9656744683
0.957324572
0.950529629
0.936356816
0.9189717339
0.9117734162
0.9051965515
0.8943802393
0.8806472351
0.8694086761
0.8628143137
0.8570818172
0.8475447215
0.8342924743
0.8269773239
0.8225846035
0.8139762922
0.8012143243
0.7949407667
0.7902676535
0.7831081512
0.771138285
1.102340006
1.079443275
1.067395584
1.056617601
1.038205225
1.016138831
1.005812212
0.9984510606
0.9841503372
0.9631338475
0.9524485274
0.9465198614
0.9346304782
0.9162523075
0.9065105335
0.9006939027
0.8908076921
0.8772878031
0.8659664065
0.8589774578
0.853233673
0.8447319443
0.8314340533
0.8220873183
0.8179545965
0.8108817023
0.79727596
0.7887571511
0.7857381985
0.779450584
0.770841454
0.7601441427
1.077118902
1.063818129
1.054101699
1.037106822
1.014015376
1.001169178
0.9942384483
0.9819362189
0.9618273773
0.9482319483
0.9421377589
0.932041133
0.913539428
0.9012689281
0.8960382694
0.8871054867
0.8739861869
0.8632624361
0.85540897
0.8481456376
0.8401026758
0.8284397447
0.8169450571
0.8118002504
0.8064457121
0.7950760041
0.7837222005
0.7805434401
0.7762383842
0.7664830801
0.7593806955
0.7505413414
1.059337339
1.050317733
1.035719074
1.011986381
0.9965934992
0.99017694
0.9798314282
0.9605695463
0.9439345135
0.9370512471
0.9284177439
0.9115315966
0.8963485509
0.8916191658
0.8842900774
0.8706314833
0.859755048
0.8523821608
0.8437834447
0.8348944756
0.8251766164
0.8136326127
0.8066406497
0.8016669686
0.7926534044
0.7801696615
0.7750495104
0.771343936
0.7629868484
0.7537876797
0.749494143
0.7401266299
1.045385809
1.03365277
1.01176253
0.9925098043
0.9856469189
0.9769468878
0.9588122606
0.9391989521
0.9313591939
0.9244557974
0.9099924357
0.8927676624
0.8865641716
0.8807723115
0.8674616313
0.8544212555
0.8479929378
0.839812517
0.8295281893
0.8206008844
0.8109267363
0.8023706111
0.7966285388
0.7889156177
0.7770177211
0.7703157956
0.7671933741
0.7599533715
0.7494444931
0.743719784
0.7390777293
0.7284464962
1.030679552
1.012185319
0.989715003
0.9800302
0.9725479614
0.957068766
0.9353542617
0.9257776213
0.9203058642
0.9086680749
0.8898194187
0.8806400475
0.8759102152
0.865033416
0.849389107
0.8427822378
0.8365294718
0.825894313
0.8161336596
0.8076156928
0.7988629663
0.7918272001
0.7840916048
0.7731686124
0.7655050741
0.7622406572
0.7560184444
0.744165537
0.7379146197
0.7345179359
0.7289014708
0.7179374206
1.010831289
0.9878071462
0.9744303549
0.9675254125
0.9551976269
0.9341510809
0.9205346284
0.9150925138
0.9056471308
0.887252992
0.8742006533
0.870091129
0.8621242276
0.8465289557
0.8368459269
0.8315575422
0.8223435399
0.8111716265
0.8026451931
0.7941565401
0.7868656752
0.7800921507
0.7702806335
0.7609832208
0.7569131395
0.7520677105
0.7409457077
0.7322507906
0.729976011
0.7258957561
0.7181207535
0.7069834003
0.9859931661
0.9699770667
0.9629039908
0.9527403075
0.9335728417
0.9157531877
0.9089203809
0.9012093597
0.8852430806
0.8691737937
0.8644473146
0.85853375
0.8448058259
0.8317174076
0.8262493362
0.8183562599
0.8066437979
0.7977172255
0.7894071367
0.7813379116
0.7750879869
0.7670856333
0.7566119089
0.7508233514
0.7471150637
0.7391965295
0.7276571632
0.7237319462
0.7210320354
0.7135647556
0.7045340752
0.6963277881
0.966528778
0.9583201403
0.9489533449
0.9315573517
0.9113840375
0.9027821203
0.8964448361
0.88364531
0.866053908
0.85861822
0.8534409941
0.8416812161
0.8265547777
0.8198638375
0.81333285
0.8021280005
0.7926838746
0.7856495997
0.7768114153
0.7693801151
0.763276579
0.754390835
0.7459177707
0.741676238
0.7362225903
0.7244149375
0.716413357
0.7138493229
0.7090770995
0.6994622396
0.6951242933
0.6891739907
0.9528114668
0.944030867
0.9286323638
0.9082511938
0.8977040409
0.8919474185
0.8813184877
0.8634779044
0.8523807969
0.8476597424
0.8383592038
0.8224823228
0.8138109965
0.8087680494
0.7986762364
0.7876834143
0.7814610834
0.7734152305
0.763601912
0.7572248007
0.7509987644
0.7417978825
0.7347289581
0.7296085184
0.7211198589
0.710764731
0.7082047892
0.7050865941
0.6977498468
0.6908370399
0.6875733049
0.6792701307
0.9389381409
0.9258144179
0.9062409111
0.8930161835
0.8866971129
0.8773928754
0.8603745674
0.8461342842
0.8412598417
0.8342770562
0.8195016089
0.8073741197
0.8030209105
0.7952801778
0.7827296793
0.7757478039
0.7699058551
0.7600497496
0.7512414791
0.7457317376
0.7383106758
0.7289711579
0.7227234919
0.7165507507
0.7086511167
0.7046957697
0.7014047254
0.6943738477
0.6864448616
0.6819214215
0.6772330633
0.6667985374
0.9235076773
0.9044699135
0.8876855849
0.880439317
0.8724318522
0.8574609233
0.8411394716
0.8352552888
0.8299797793
0.8176077731
0.80228037
0.7968875397
0.7912950748
0.7786896027
0.7687059041
0.7636487142
0.7559188665
0.7448742054
0.7390095469
0.733595824
0.7256230804
0.7186190362
0.712539647
0.7056573647
0.7002389293
0.69635654
0.6893279719
0.6802138078
0.675766424
0.6715110679
0.6646050456
0.6534519175
0.9020731341
0.8817717643
0.8735743295
0.8674475591
0.8551875279
0.8377527829
0.8290088255
0.8241697368
0.8142261249
0.7977196586
0.7894793523
0.7854485216
0.7757308903
0.7629548719
0.7573110338
0.7512472466
0.7410514793
0.7335662926
0.7291706928
0.7227080634
0.7152890304
0.7079213976
0.7000206192
0.6935065081
0.6896051393
0.6842993129
0.675786928
0.6708995852
0.6675349882
0.6616725461
0.6521302065
0.644860477
0.8778357995
0.8666954419
0.8621732327
0.8528890978
0.8353841751
0.8226155262
0.8178706684
0.8101331921
0.7943305959
0.7822413424
0.7787257139
0.7718495523
0.7591516301
0.751643079
0.7462922147
0.7375540299
0.728647961
0.7238326387
0.7171319029
0.7091013786
0.7021407049
0.693784531
0.6868621469
0.6840431801
0.6807014171
0.6735554189
0.6654519332
0.6606330573
0.6554161025
0.646540767
0.6375143597
0.6392372683
0.8604778862
0.8549950366
0.8480951867
0.8325240977
0.8156463512
0.8100672578
0.8045534099
0.7916639695
0.776141791
0.7718500177
0.767517378
0.7568746971
0.7469620571
0.7418671832
0.7340520911
0.7234480637
0.7171221996
0.7105271807
0.7015843531
0.6957793945
0.6911048715
0.6848087207
0.6796102211
0.6762154707
0.6707170203
0.6602355754
0.653107588
0.649023285
0.6427592523
0.6363171782
0.634463639
0.647048404
0.8465377799
0.8409516595
0.8293953553
0.8107891996
0.8026183609
0.7989363583
0.7897453052
0.7732742635
0.7648997992
0.7613801908
0.7526617331
0.7404379684
0.7344289439
0.7283828628
0.7176510253
0.7104206803
0.7060971661
0.6982528739
0.6909457679
0.6873811206
0.6828943192
0.674927067
0.6693236658
0.6638351467
0.6547680491
0.6449165804
0.6393319287
0.6350872952
0.632726926
0.6332981041
0.6387437114
0.7031921397
0.833389314
0.8250313257
0.8089338311
0.7956316575
0.7915267133
0.7853703389
0.7708359575
0.7573253218
0.7537853821
0.7477720844
0.734795479
0.7266675769
0.7227190407
0.7143577961
0.7052051927
0.7021107825
0.6970177775
0.6868906046
0.6801454722
0.6765217442
0.6695070884
0.6616896309
0.6567871889
0.6504962362
0.6416698972
0.635564729
0.633640136
0.6311026568
0.632296151
0.6477594216
0.6898731068
0.8177722084
0.8203120873
0.8074367262
0.7914029812
0.7838462342
0.7783150301
0.7667874224
0.7501724446
0.7449749595
0.7415733366
0.7316943619
0.7204625852
0.7168951354
0.7119302312
0.7009604489
0.6947718039
0.6910404689
0.6823844542
0.6715987261
0.6682385349
0.664499083
0.6571450264
0.6506197943
0.6435187855
0.6359990213
0.6287198259
0.6284417574
0.6298651213
0.6374203339
0.6643537919
0.7342878813
0.8321870891
0.944600367
0.8019433512
0.7866239042
0.7763383826
0.770504453
0.7619919608
0.7471145346
0.7382259328
0.7358235532
0.7296208082
0.7172775688
0.7098393721
0.7057179515
0.6960660559
0.6856868723
0.6814937763
0.6766519255
0.6679697943
0.6630088089
0.6600519877
0.6532837389
0.6452091135
0.6369044605
0.6317837224
0.6285327662
0.6259055378
0.6282420764
0.643574638
0.698793464
0.7785292578
0.8666066664
0.9276199261
0.9690386696
0.7812845244
0.7711456815
0.7653289764
0.7576669966
0.7452210264
0.7327529224
0.7283787382
0.7231562938
0.7122153587
0.7014378848
0.6969349058
0.6904333773
0.6796196173
0.6756492487
0.6722990914
0.6662505787
0.6584297072
0.6536137004
0.6466683934
0.6381718272
0.6292702629
0.6221882712
0.6228752202
0.62437722
0.6315806423
0.6682296397
0.7357689964
0.8353596296
0.9273432333
0.9777765329
0.9858069712
0.9861427837
0.7652805594
0.7599502118
0.7532163236
0.7416459673
0.727505775
0.7207125384
0.7155346989
0.7060791365
0.6946860619
0.6905502502
0.6864796305
0.6781971576
0.6717339926
0.6669222612
0.6612217054
0.6522074945
0.6453006788
0.6391859042
0.6313543916
0.6250886346
0.6214080381
0.6198689521
0.622350939
0.6399091363
0.6935781945
0.7924772111
0.889997233
0.9270268098
0.9622940259
0.9927735849
0.9964006483
0.9967414018
0.7513798203
0.7454866024
0.7347918747
0.7205320383
0.712998228
0.7093146625
0.7018254123
0.691493307
0.6854611018
0.6819788516
0.6744178145
0.6655868904
0.6594136487
0.6532010662
0.6448769649
0.637626967
0.6323694648
0.6246554096
0.6179903027
0.617251905
0.6183765401
0.6262958455
0.6650512373
0.7350077853
0.8317954276
0.9090225122
0.980679072
0.9889473154
0.985990363
0.989099426
0.9934200559
0.9975545346
0.7373683445
0.7297695203
0.7164031813
0.7071728117
0.7042923288
0.6986327995
0.6879476909
0.6783905791
0.674064435
0.6672433156
0.6572329751
0.651727009
0.6474076372
0.640799863
0.6317616023
0.6260562637
0.6187552532
0.6157055702
0.6151507601
0.6171549398
0.6380321764
0.6912589596
0.7953533509
0.8955935944
0.9658263378
0.9770972524
0.9943166656
0.9993412809
0.9976275147
0.9948472573
0.995563396
0.9966863944
0.7247513391
0.7137815378
0.7002468171
0.6957122609
0.6917846661
0.6821746014
0.6696982784
0.6650597961
0.6613300448
0.6528408778
0.6463645042
0.6419986742
0.636203754
0.6248643613
0.6183492594
0.6145444475
0.6118386393
0.6128727413
0.6228328064
0.6593890583
0.7414419432
0.8491374891
0.9078301296
0.9497110765
0.9874161657
0.9853862547
0.9882953019
0.9936976572
0.9981213825
0.9976530452
0.9975963818
0.9973393919
0.7098890362
0.6943512872
0.6852399101
0.6822695519
0.6760467434
0.6643426926
0.6583853921
0.656532084
0.6503624682
0.6406307279
0.6332697373
0.6280267608
0.6183008668
0.6118468753
0.6113797745
0.6103021059
0.6123753719
0.6349955561
0.6958533716
0.7908477633
0.8894157396
0.9689329526
0.9827441163
0.9817273592
0.9890194133
0.9887931623
0.9890716775
0.9929685909
0.9963736817
0.9973792551
0.9979532845
0.9981753569
0.6898957263
0.6767344804
0.674226995
0.6708449804
0.6628062517
0.6526912446
0.6488534913
0.6439993659
0.6336116672
0.6233880206
0.6189346207
0.6136818143
0.6059777645
0.6063759103
0.6080771255
0.6195620493
0.6563971044
0.751436879
0.854584038
0.9384560414
0.9567310972
0.9826430672
0.9945382033
0.9955131606
0.9967991266
0.9973520582
0.9962340956
0.996575329
0.9973225958
0.9975360826
0.9979536338
0.9984380675
0.6741028975
0.6677759941
0.6643262314
0.6577209519
0.6459181656
0.6386014215
0.6345265094
0.6271480157
0.6181365765
0.6111924767
0.6076558758
0.6025086314
0.6025015496
0.6067569317
0.6298568238
0.7004612672
0.7998357516
0.8806593684
0.9341188208
0.9799472786
0.9803897148
0.9863166286
0.9919785548
0.9966940479
0.9985323871
0.9992887467
0.9999570682
0.9999522571
0.9994421916
0.9984732305
0.9981222743
0.998513821
0.6601437112
0.6554382128
0.6493394889
0.6393210707
0.6303790357
0.6278449867
0.6221249607
0.6125122062
0.6032998402
0.5999454102
0.59978412
0.6011688937
0.6144724994
0.6592672819
0.7433168435
0.8568497231
0.9544667508
0.9725802063
0.9833424467
0.9956284909
0.9991419368
0.9968706436
0.9965595484
0.9969108113
0.9977490537
0.9985349904
0.9990517195
0.999720509
0.9995481705
0.9989742368
0.9985063793
0.9985555923
0.6466435108
0.6422223484
0.6354459627
0.6260781434
0.6207129922
0.6147793027
0.6052842346
0.5967623676
0.5962659644
0.5976044973
0.6039492477
0.6314630815
0.710854998
0.8013248558
0.9027454663
0.9360477677
0.9778698683
0.9893367557
0.9932040462
0.9990301159
1.001023237
1.000632855
0.999716498
0.9981445344
0.9970335242
0.996669185
0.996872516
0.997688133
0.9984589478
0.9987631031
0.9988372417
0.9987288321
0.6375614515
0.631152255
0.6204865729
0.6114266346
0.6057584011
0.5973497904
0.5926202895
0.5935423349
0.5964134344
0.6105615557
0.6662147557
0.7597228074
0.8621838665
0.9413276935
0.9903717578
0.9856809752
0.9895672696
0.9918255835
0.9918669778
0.9934241208
0.9958824123
0.9985154284
0.999114208
0.998891276
0.9980597364
0.9973437345
0.9972453817
0.9975814674
0.9982522827
0.998733447
0.9989864076
0.9989364269
0.6232825463
0.6117674106
0.6008205464
0.5984019696
0.5941428706
0.5917464699
0.5921787679
0.5989912654
0.6306262677
0.7033427915
0.8240926714
0.9340245059
0.957547075
0.9767432306
0.9978299141
0.9976720016
0.9978306292
0.9970543384
0.9949539588
0.9938197308
0.993817295
0.9957366014
0.9978995002
0.998789394
0.9989579928
0.9989510728
0.9989100245
0.9989131376
0.999149151
0.999209056
0.9991438895
0.9989932205
0.6047983016
0.5951316948
0.5928220424
0.5911293694
0.5883870773
0.5905965005
0.6076548924
0.6696511078
0.7597075334
0.8703795162
0.9183809117
0.9638468486
0.976121393
0.9832619351
0.9924449951
0.9966487281
0.9984563713
0.998938611
0.9980599735
0.9963249645
0.9957956372
0.9965302637
0.9979492327
0.9987691863
0.9992781988
0.9996777041
1.000041807
1.000065581
0.999979657
0.9996985746
0.999118624
0.9987398831
0.5913232924
0.5859034907
0.586402291
0.5865973258
0.593619459
0.6361727065
0.7171011991
0.828836003
0.9248374864
0.9841725166
0.982788969
0.9872704174
0.9919859515
0.9940600343
)
;

boundaryField
{
    inlet
    {
        type            fixedValue;
        value           nonuniform 0();
    }
    outlet
    {
        type            zeroGradient;
    }
    bottom
    {
        type            slip;
    }
    top
    {
        type            slip;
    }
    obstacle
    {
        type            zeroGradient;
    }
    defaultFaces
    {
        type            empty;
    }
    procBoundary5to4
    {
        type            processor;
        value           nonuniform List<scalar> 
69
(
1
1
1
1.000000014
1.000000443
1.000009524
1.000143714
1.001496363
1.010411927
1.047548616
1.135634098
1.253675163
1.341802053
1.409098151
1.434927536
1.435343537
1.439455767
1.443065807
1.443134225
1.440055022
1.43397193
1.425034983
1.413372459
1.400141408
1.385790217
1.369139011
1.349992414
1.331582148
1.31465552
1.29612198
1.274727261
1.253853615
1.237328718
1.220551922
1.199082335
1.175004202
1.154916828
1.14066263
1.124498319
1.102102129
1.07642419
1.055054446
1.040775824
1.026972954
1.008018166
0.9843392509
0.9626836904
0.9465811773
0.933963101
0.9192708767
0.8994758132
0.8776713326
0.856199853
0.8393234884
0.8280061833
0.8140655678
0.7957812707
0.7759978948
0.7581768759
0.7415489123
0.7296112106
0.7179274496
0.7014258622
0.6862282477
0.6699414183
0.6518137669
0.640987848
0.6293500066
0.6131966617
)
;
    }
    procBoundary5to10
    {
        type            processor;
        value           uniform 0.6006098029;
    }
    procBoundary5to11
    {
        type            processor;
        value           nonuniform List<scalar> 
33
(
0.9961460939
0.9976000635
0.9979897008
0.9986220863
0.998839915
0.9989181204
0.9988542468
0.9988610587
0.9989494674
0.9988715787