/*--------------------------------*- C++ -*----------------------------------*\
  =========                 |
  \\      /  F ield         | OpenFOAM: The Open Source CFD Toolbox
   \\    /   O peration     | Website:  https://openfoam.org
    \\  /    A nd           | Version:  7
     \\/     M anipulation  |
\*---------------------------------------------------------------------------*/
FoamFile
{
    version     2.0;
    format      ascii;
    class       volScalarField;
    location    "0.5";
    object      rho;
}
// * * * * * * * * * * * * * * * * * * * * * * * * * * * * * * * * * * * * * //

dimensions      [1 -3 0 0 0 0 0];

internalField   nonuniform List<scalar> 
22
(
1.40000504
1.40000504
1.400005509
1.400043667
1.400005043
1.400020774
1.400623196
1.400005468
1.400315872
1.405726684
1.433386096
1.400033971
1.403798907
1.431054388
1.491067419
1.400957112
1.425986839
1.497346321
1.541909856
1.414133196
1.494376553
1.566692367
)
;

boundaryField
{
    inlet
    {
        type            calculated;
        value           nonuniform 0();
    }
    outlet
    {
        type            calculated;
        value           nonuniform 0();
    }
    bottom
    {
        type            calculated;
        value           nonuniform List<scalar> 4(1.40000504 1.40000504 1.400005509 1.400043667);
    }
    top
    {
        type            calculated;
        value           nonuniform 0();
    }
    obstacle
    {
        type            calculated;
        value           nonuniform 0();
    }
    defaultFaces
    {
        type            empty;
    }
    procBoundary3to2
    {
        type            processor;
        value           nonuniform List<scalar> 5(1.40000504 1.40000504 1.40000504 1.40000504 1.40000504);
    }
    procBoundary3to4
    {
        type            processor;
        value           nonuniform List<scalar> 6(1.400887573 1.407077399 1.407077399 1.488242739 1.535005907 1.539414941);
    }
    procBoundary3to8
    {
        type            processor;
        value           nonuniform List<scalar> 2(1.400005239 1.400091185);
    }
    procBoundary3to9
    {
        type            processor;
        value           nonuniform List<scalar> 5(1.56206267 1.489924769 1.577717297 1.56206267 1.573010877);
    }
}


// ************************************************************************* //
