/*--------------------------------*- C++ -*----------------------------------*\
  =========                 |
  \\      /  F ield         | OpenFOAM: The Open Source CFD Toolbox
   \\    /   O peration     | Website:  https://openfoam.org
    \\  /    A nd           | Version:  7
     \\/     M anipulation  |
\*---------------------------------------------------------------------------*/
FoamFile
{
    version     2.0;
    format      ascii;
    class       volScalarField;
    location    "2";
    object      T;
}
// * * * * * * * * * * * * * * * * * * * * * * * * * * * * * * * * * * * * * //

dimensions      [0 0 0 1 0 0 0];

internalField   nonuniform List<scalar> 
2222
(
1.901639564
1.902243669
1.904597232
1.90758509
1.909649233
1.909368673
1.906907223
1.901923339
1.895553386
1.888744069
1.881477911
1.872954591
1.862698415
1.850801744
1.837684103
1.823968496
1.810269718
2.67414496
2.631547684
2.584397189
2.527262659
2.460404638
2.387287595
2.315558825
2.24848995
2.178755378
2.119466227
2.078472304
2.037598832
1.998590511
1.970064698
1.943859629
1.917068892
1.898118197
1.884451203
1.873920117
1.866183288
1.864862915
1.866205118
1.869748914
1.87425215
1.879573657
1.880007476
1.878775509
1.876444102
1.873326509
1.869608147
1.865129221
1.859325263
1.851706285
1.842175544
1.830883777
1.818418547
1.805540946
2.672220896
2.625434376
2.570231362
2.500365575
2.419683904
2.336733755
2.262033731
2.198090189
2.129543713
2.07408909
2.037387115
2.000100924
1.964841702
1.935121246
1.908634304
1.885410095
1.867303274
1.852854097
1.840654244
1.838120361
1.837372979
1.838168182
1.841512509
1.847048589
1.848511876
1.848427511
1.847981961
1.848717155
1.848666722
1.847653055
1.845921315
1.843132482
1.838678443
1.831903535
1.822671107
1.811693953
1.799898695
2.668197193
2.61479706
2.547411169
2.46288879
2.3690763
2.279671398
2.20810013
2.147413353
2.080161023
2.031395778
1.999312729
1.96208276
1.928951964
1.903901094
1.880669511
1.860001065
1.841926228
1.825414818
1.813991738
1.806869683
1.803378638
1.804641751
1.80768504
1.812083786
1.813568982
1.818939706
1.822318057
1.820905293
1.820863122
1.82189259
1.823392627
1.823974946
1.822818611
1.819143777
1.812368633
1.803294942
1.793059308
2.660831404
2.596867613
2.514064635
2.414941019
2.312519437
2.223334776
2.159038187
2.098572606
2.035613646
1.994978907
1.967590729
1.932129644
1.900888337
1.877690521
1.856588666
1.836068671
1.81847979
1.801945848
1.793475954
1.783818374
1.776385867
1.776193021
1.777041437
1.778878658
1.781224995
1.784642161
1.787197939
1.788427312
1.790465636
1.794467963
1.799306851
1.803382544
1.804932561
1.803678264
1.799584894
1.792899105
1.78460556
2.648685807
2.56873676
2.468832813
2.359797466
2.255132346
2.170613886
2.112781473
2.057220237
1.996391223
1.960830282
1.936486857
1.904730306
1.876449454
1.855686382
1.834570492
1.815087522
1.798250659
1.784217301
1.773592237
1.761070867
1.753960872
1.748232436
1.746415477
1.747865028
1.751885086
1.754035931
1.755500062
1.759102378
1.763951512
1.769614726
1.775365447
1.780642761
1.784452716
1.784938935
1.783660922
1.78000588
1.77411392
2.629449937
2.528427974
2.413854318
2.302404447
2.201762667
2.124534171
2.073575879
2.021553548
1.965391302
1.934736964
1.913044651
1.881817063
1.855731021
1.836707276
1.815652731
1.797339052
1.781251984
1.770383342
1.757604123
1.745135656
1.737078068
1.727573049
1.723329537
1.721046499
1.722316734
1.72434087
1.726446541
1.730176695
1.735695395
1.741992528
1.748404272
1.754894561
1.76059713
1.764313861
1.765885369
1.764765412
1.761304854
2.600508008
2.476977429
2.353815758
2.250364657
2.155472402
2.086575312
2.042734487
1.994120631
1.940921611
1.913264361
1.893273216
1.862204628
1.838137745
1.820121275
1.799777357
1.780950034
1.767204552
1.757436153
1.742049705
1.731931272
1.721622838
1.710539516
1.704060099
1.698088362
1.6965702
1.697731512
1.701499519
1.705979504
1.711112935
1.718228024
1.726122155
1.733288305
1.7391806
1.743552259
1.7463136
1.746572603
1.745349377
2.55891486
2.4194247
2.296711904
2.203762677
2.117266902
2.05717022
2.018843002
1.972095527
1.920308003
1.895451133
1.875527563
1.84386799
1.821707403
1.805354397
1.7846172
1.765475822
1.75554946
1.743965404
1.72811574
1.719558073
1.706856974
1.695885403
1.687231931
1.67888738
1.674531965
1.672755251
1.673805611
1.677466552
1.683284602
1.691104095
1.700238091
1.707931208
1.714083453
1.718974919
1.723050116
1.726071812
1.727796406
2.506426353
2.359760007
2.251453029
2.165102556
2.087026612
2.035577123
1.999595888
1.9529405
1.902044831
1.879717703
1.858496964
1.826036942
1.806541025
1.791658622
1.768400746
1.751357302
1.744407493
1.729240259
1.715900704
1.706938557
1.693079055
1.682730513
1.672161384
1.66232103
1.655646969
1.651468218
1.651703389
1.654632738
1.661170942
1.669182654
1.677672861
1.6858913
1.690925778
1.695559329
1.700303653
1.704884876
1.708544793
2.447842333
2.305326569
2.213148315
2.13402809
2.063736399
2.015465468
1.982013944
1.934567168
1.884008774
1.863496021
1.840597535
1.807848649
1.791840455
1.777090334
1.75095018
1.738412529
1.731518056
1.713691211
1.703773818
1.693193092
1.680364069
1.669623116
1.658002843
1.648145939
1.640315757
1.634351772
1.63113554
1.631578276
1.634981396
1.641301078
1.649037305
1.657672367
1.664716147
1.670169154
1.675252269
1.681086961
1.686696686
2.387040294
2.265214412
2.183524578
2.109662393
2.042762857
1.998090254
1.96461835
1.915138297
1.865263846
1.84610289
1.821191701
1.788970796
1.776083068
1.760056606
1.733370439
1.725361418
1.715713687
1.698838519
1.690892822
1.679481389
1.668117079
1.655859012
1.644882387
1.636055055
1.627786519
1.620642006
1.615675336
1.614101214
1.615479513
1.619467329
1.625603796
1.632644952
1.641287927
1.648952486
1.655150101
1.660079343
1.66576023
2.330813054
2.231632097
2.158902561
2.088852453
2.023152411
1.979911088
1.945858053
1.894111305
1.845419093
1.827365816
1.800384625
1.769088336
1.758376537
1.740689383
1.716499
1.710037893
1.697543966
1.684268254
1.676183493
1.665942526
1.65463067
1.641669609
1.632986714
1.624747166
1.616727983
1.609130592
1.602922122
1.598899931
1.597770103
1.599496916
1.603481808
1.608894502
1.615006581
1.621922749
1.629066726
1.636153861
1.642664163
2.288853875
2.203541049
2.137975468
2.070082992
2.003779743
1.96130767
1.925782026
1.871488827
1.824560866
1.807731674
1.778721227
1.748130339
1.738926652
1.720386141
1.699085198
1.691606211
1.679855938
1.669123313
1.660950958
1.652395839
1.639530935
1.62848244
1.62174563
1.613410762
1.606367693
1.598952195
1.592003219
1.586301075
1.582730248
1.582507231
1.584270712
1.587197714
1.591527649
1.597635659
1.604937861
1.6142581
1.624317963
2.26047982
2.180785571
2.118569546
2.050984398
1.984641726
1.942691221
1.904946735
1.847900672
1.803477538
1.787855247
1.756597432
1.726563643
1.719035962
1.700355034
1.679559661
1.671980488
1.662763512
1.652064619
1.645532124
1.637914384
1.623773161
1.616003449
1.609954878
1.601916703
1.596142635
1.589188756
1.581893988
1.575074673
1.569796662
1.566988842
1.566286344
1.56729148
1.570202445
1.575158994
1.582088704
1.591075773
1.600767878
2.242904204
2.162821482
2.099387312
2.031088041
1.965685639
1.92439918
1.884029153
1.823980394
1.782717136
1.767988741
1.734324888
1.705672358
1.699747521
1.680311078
1.659037713
1.654436226
1.64541783
1.634708399
1.630863468
1.623040106
1.608838511
1.603928326
1.597479442
1.590523224
1.585718472
1.579415563
1.572124749
1.564721069
1.558288356
1.553448679
1.550035033
1.549909984
1.551216433
1.554283975
1.560442199
1.56915967
1.57876089
2.231537241
2.148852577
2.080830539
2.0106655
1.946694333
1.906233922
1.863076311
1.800156794
1.762657604
1.747944341
1.711990517
1.685830169
1.680779046
1.659971947
1.640335133
1.638024048
1.62654949
1.617452138
1.616328712
1.607152857
1.594686446
1.591989372
1.584412641
1.579181542
1.575285795
1.569576637
1.562423
1.554884201
1.54778757
1.541670874
1.536682495
1.534270331
1.53452721
1.536222679
1.540752127
1.547746345
1.557214891
2.223063959
2.138716228
2.064984494
1.990823181
1.927288654
1.887701402
1.8418304
1.776395778
1.742498336
1.726995306
1.689589452
1.666906108
1.661683287
1.640328672
1.624291561
1.621420894
1.607768203
1.601741034
1.602489284
1.591018388
1.582554013
1.580033148
1.571416005
1.568108173
1.564999719
1.559632185
1.552582396
1.545035096
1.537715632
1.531084982
1.525316794
1.52114068
1.519708981
1.520319782
1.522929001
1.528401242
1.536592375
2.216577582
2.131086733
2.052161669
1.972696987
1.907699232
1.867967209
1.819184124
1.752104049
1.721784327
1.704895478
1.666913644
1.647400054
1.641187595
1.621003406
1.608485456
1.602389451
1.589287364
1.587944835
1.587935814
1.575142131
1.571371014
1.567025855
1.558979863
1.557231635
1.554524066
1.549423459
1.542701145
1.535360321
1.528189069
1.521521233
1.515394069
1.51012469
1.506705245
1.506489242
1.507927798
1.512261463
1.520143374
2.211963243
2.124713665
2.041645573
1.956423842
1.887992259
1.846550687
1.794540785
1.726847982
1.699492887
1.680886851
1.643078261
1.626294466
1.619969523
1.602515508
1.591697776
1.582202125
1.57340663
1.576048322
1.572512993
1.560930999
1.560208551
1.554009131
1.546840015
1.546500201
1.544174247
1.538963286
1.532559143
1.525534911
1.51859144
1.512205577
1.506060505
1.500279251
1.495827425
1.493991553
1.494426344
1.496696916
1.501407842
2.208232146
2.118763683
2.031999936
1.941481844
1.868849109
1.823175273
1.766926164
1.699695739
1.675512887
1.65561304
1.617943441
1.602694512
1.597152967
1.583356216
1.571508778
1.560876036
1.559061463
1.562978988
1.555752062
1.54763679
1.548120373
1.54088616
1.535198285
1.536046881
1.533398299
1.528188262
1.52233482
1.515592362
1.509062375
1.503117422
1.497191499
1.491559586
1.486767086
1.483848992
1.483117918
1.48405511
1.487073896
2.205528975
2.112919025
2.022214144
1.926974343
1.849810538
1.798040352
1.736987201
1.671141643
1.649541839
1.628182121
1.590431634
1.57700553
1.574424457
1.564063315
1.549570056
1.540973993
1.544765288
1.547737175
1.538725559
1.53497541
1.535069967
1.527211611
1.52391352
1.524893273
1.521315664
1.516905102
1.511718462
1.505105203
1.49904393
1.493874423
1.488598488
1.483482403
1.47863937
1.474595822
1.471505776
1.471251858
1.472786691
2.20365525
2.107075387
2.01124068
1.911385305
1.830742445
1.771798695
1.704764509
1.640127973
1.621715324
1.599530691
1.561491381
1.549239365
1.549967408
1.542530333
1.525616823
1.520764207
1.529084888
1.529839947
1.521603393
1.522437205
1.521267555
1.513074064
1.512914277
1.512714433
1.508791708
1.505707696
1.500892984
1.494446915
1.488984164
1.484963792
1.480554949
1.476015873
1.471435361
1.467020191
1.463310442
1.461498155
1.461687086
2.202912951
2.10078672
1.998426708
1.894030828
1.809786008
1.744142594
1.671633029
1.607875257
1.591728547
1.568845626
1.530976646
1.521614216
1.525346593
1.519691754
1.502636433
1.500809162
1.511311538
1.510564386
1.504583062
1.507990096
1.505535859
1.499415942
1.500988313
1.499306751
1.496237207
1.494067362
1.489124131
1.483059461
1.479245302
1.476170039
1.472188356
1.468271477
1.464086012
1.459288938
1.454385685
1.450877439
1.449478316
2.202916776
2.093409148
1.98273893
1.872737702
1.786316436
1.715259862
1.636960194
1.57365599
1.559954047
1.536262336
1.4990955
1.492308502
1.498496535
1.494524391
1.478992412
1.479520124
1.491982301
1.490612154
1.48739612
1.491940757
1.488817467
1.486775671
1.487978818
1.485507366
1.483957622
1.48214234
1.476745862
1.471757857
1.4699514
1.467325943
1.463933891
1.460811605
1.457041476
1.45245978
1.447991101
1.443986629
1.440908753
2.203199004
2.083379965
1.963346989
1.84742944
1.758379176
1.683806723
1.600732556
1.538512959
1.526946982
1.502502759
1.466996664
1.463276464
1.471847801
1.469165831
1.456109434
1.458126022
1.471878315
1.470785665
1.468895056
1.475092935
1.47289189
1.473210231
1.473587353
1.471742476
1.471075933
1.469223468
1.463966146
1.460972432
1.460301429
1.457763114
1.455381532
1.45301057
1.449590792
1.44528301
1.440689313
1.43583059
1.431483263
2.202446718
2.069780742
1.938992166
1.81676851
1.726026769
1.649652394
1.563160726
1.503042141
1.491205031
1.464469986
1.432109634
1.431151816
1.443202068
1.442447123
1.432636547
1.436369765
1.451609976
1.451064333
1.44984826
1.457779328
1.45759615
1.459157009
1.459192631
1.458044495
1.457667965
1.455706084
1.451387684
1.450758013
1.450526613
1.448553145
1.447163996
1.445275556
1.442165282
1.438266492
1.434096997
1.429516504
1.424647616
2.198859848
2.050966227
1.909063071
1.781674029
1.689431399
1.610474733
1.521281358
1.468333611
1.457126639
1.427263365
1.398419811
1.399233623
1.414067177
1.414932755
1.408997064
1.414163819
1.431573491
1.43160567
1.431831589
1.440741964
1.442346781
1.444262563
1.444518329
1.443890237
1.44394881
1.442361849
1.43966065
1.440315891
1.440180195
1.439204456
1.4384667
1.436891556
1.434218127
1.430892238
1.42699306
1.422123964
1.416574637
2.192009335
2.027007983
1.874290995
1.740642382
1.647656458
1.569416115
1.480248155
1.432768809
1.417853796
1.384444091
1.361229133
1.365331079
1.383749409
1.386999249
1.384575622
1.391607585
1.412151426
1.412996911
1.414270011
1.424745848
1.42715914
1.42900071
1.429792849
1.430010116
1.430886395
1.429875314
1.428939614
1.430161624
1.430551709
1.430167897
1.429888117
1.428748561
1.42648115
1.42342506
1.419716283
1.415317981
1.410275841
2.181266434
1.997318188
1.832818414
1.696435411
1.602138146
1.52148623
1.434990731
1.398625216
1.380953016
1.344067326
1.326573941
1.331913304
1.352027496
1.357471653
1.357970396
1.367697949
1.391788001
1.39410504
1.396910874
1.409440691
1.411975408
1.413822881
1.414930199
1.416412016
1.41838111
1.417989466
1.417869227
1.419242095
1.420090519
1.420052059
1.420288934
1.419791568
1.418101912
1.41569809
1.41246601
1.407963009
1.402431257
2.164984658
1.961990343
1.785355944
1.646311397
1.553767245
1.47116848
1.388319738
1.359602803
1.340169539
1.302249769
1.291263372
1.298881018
1.321023066
1.327850067
1.330804127
1.343657456
1.370827246
1.375343445
1.379798105
1.394826152
1.397402715
1.399044537
1.400981677
1.4039078
1.406893902
1.407210577
1.407748536
1.409374569
1.410726541
1.411387402
1.411974747
1.411774561
1.41044116
1.408153124
1.404884702
1.40087412
1.396499689
2.143947039
1.919239588
1.732894533
1.59024455
1.498767566
1.417749551
1.342296288
1.321898463
1.30163455
1.265061329
1.258189432
1.266037813
1.288490549
1.296701235
1.301942013
1.317707704
1.347267229
1.354919449
1.361512925
1.379197617
1.382993438
1.384254024
1.387754214
1.391628981
1.394866714
1.395668378
1.396355786
1.39771895
1.399250059
1.400751308
1.401694203
1.401561671
1.400525198
1.398831623
1.396309957
1.392661803
1.387949202
2.117821389
1.86833882
1.671561257
1.529884741
1.440989533
1.35894288
1.29045546
1.280455543
1.262644537
1.230339483
1.226095303
1.234681564
1.257063182
1.266132179
1.273241609
1.291439983
1.322743804
1.333970875
1.343073759
1.36323469
1.3689548
1.370580345
1.376224506
1.380918678
1.384352424
1.385874028
1.386917709
1.388273708
1.390556575
1.392838625
1.394374729
1.394475773
1.393847797
1.392217273
1.389512366
1.386108943
1.382473413
2.081427454
1.811354726
1.598759137
1.46388405
1.38471632
1.301561188
1.246189425
1.242160631
1.224274211
1.198174906
1.193720393
1.20117545
1.223383459
1.234858118
1.243926681
1.264195542
1.29668271
1.31104478
1.322741336
1.344974575
1.353257591
1.355978964
1.363195912
1.369042561
1.372051264
1.373799437
1.375103377
1.376317382
1.378355105
1.381348487
1.383258472
1.383190036
1.382421067
1.38088329
1.379448449
1.377494311
1.374414491
2.038327124
1.743176998
1.525333151
1.393097599
1.31494305
1.232045193
1.199680953
1.204374772
1.189393058
1.169448655
1.165481989
1.170039339
1.19034249
1.204414899
1.215018763
1.23681312
1.270047221
1.287584766
1.302019096
1.326044556
1.337683978
1.342659214
1.351746557
1.358987484
1.362450152
1.364638297
1.366232494
1.367630854
1.369885629
1.373184132
1.374929026
1.375282836
1.374953862
1.373990033
1.37229567
1.369596431
1.36675462
1.995261988
1.657360835
1.443881725
1.324166958
1.258304609
1.178304459
1.161113132
1.164562274
1.150544517
1.133775859
1.132699363
1.136578986
1.15494627
1.172928317
1.186239941
1.209993678
1.243742828
1.262685272
1.279206595
1.30451447
1.319650236
1.327097328
1.337452787
1.346127824
1.350659174
1.353117162
1.354708528
1.356160293
1.358496116
1.361571943
1.363751344
1.36480111
1.36473655
1.363630118
1.361972115
1.361391756
1.360054987
1.931903868
1.58160132
1.346515643
1.240065544
1.188130805
1.122373951
1.125255228
1.131406624
1.11883665
1.106267273
1.106259509
1.109383731
1.123763138
1.142551644
1.156853195
1.181234937
1.215461689
1.237339743
1.256208702
1.282439461
1.3011301
1.31176022
1.324181121
1.334691618
1.340276755
1.342871634
1.34499737
1.347581725
1.350375698
1.353420314
1.355702156
1.355759418
1.355704444
1.355349363
1.355031673
1.353790427
1.352239277
1.871184925
1.474033377
1.248692142
1.1828672
1.130903583
1.082093398
1.07999411
1.082368244
1.073563444
1.065926612
1.069267235
1.074852733
1.089767073
1.111466634
1.129735413
1.156601506
1.189913875
1.211674672
1.232118328
1.258859294
1.280500417
1.294755998
1.308643086
1.320865824
1.32807622
1.331958125
1.334589098
1.336857559
1.33932578
1.342176454
1.343984846
1.344386074
1.34544225
1.345538135
1.344985719
1.344344443
1.344513152
1.830722573
1.352782669
1.126479827
1.102465184
1.062392723
1.038022922
1.035097381
1.045151658
1.04603628
1.046604109
1.050641502
1.054055058
1.058879988
1.077626739
1.099698102
1.126775211
1.162402132
1.187392
1.207329707
1.233244791
1.256722406
1.273447645
1.291967716
1.306540919
1.31424508
1.317780846
1.321886137
1.326306869
1.3297315
1.332826735
1.334655822
1.336023982
1.336697132
1.336476372
1.336310038
1.337183458
1.337525451
1.406862028
1.282534545
1.128761511
1.075627361
1.043543114
1.032434754
1.032827187
1.029848752
1.027949553
1.029609877
1.033141839
1.039362631
1.051867774
1.070388125
1.091164747
1.119019685
1.152395474
1.176303746
1.199028817
1.225525853
1.249440944
1.267387456
1.284582627
1.295720577
1.304976198
1.31207117
1.317111545
1.321858364
1.325021296
1.327432843
1.328841539
1.33040825
1.330697085
1.330602271
1.330652674
1.331584622
1.387123055
1.259298846
1.113928381
1.059612213
1.032274138
1.027887655
1.028697706
1.023383883
1.018764778
1.024176492
1.02923719
1.035830443
1.048983708
1.067291967
1.088619404
1.117683977
1.148685277
1.172608002
1.19703957
1.224895094
1.248290608
1.265966618
1.280995217
1.292391156
1.303661951
1.311201338
1.315720751
1.318978983
1.322411406
1.325256947
1.326480594
1.32740091
1.327777498
1.328525939
1.328332517
1.329152478
1.390121237
1.247430889
1.11547344
1.054951937
1.028975606
1.028467906
1.028642961
1.02116187
1.013019019
1.01797356
1.02390046
1.032395503
1.046862761
1.063551853
1.08374931
1.113500342
1.142872004
1.16837756
1.193841649
1.221632513
1.246530747
1.26483481
1.279349012
1.29135424
1.302097309
1.309281821
1.314065183
1.31628943
1.318903615
1.322499834
1.324441696
1.324890939
1.323807334
1.325466018
1.326823615
1.327772681
1.375230608
1.233234598
1.118602953
1.051700287
1.028674261
1.030699351
1.030492855
1.020062646
1.012547445
1.0156419
1.019508034
1.027744095
1.04271827
1.060217951
1.080954813
1.113026585
1.14180094
1.166568169
1.192691421
1.219486295
1.241844878
1.260838488
1.278399829
1.290886529
1.299580655
1.305596916
1.311598094
1.315196663
1.316973339
1.318936098
1.321642493
1.322987452
1.321358178
1.321513345
1.324819523
1.326445099
1.331954943
1.227552106
1.116870913
1.049485741
1.030272516
1.03340386
1.03023523
1.018156689
1.012440376
1.015350763
1.018250257
1.025333126
1.037850923
1.056811602
1.080202017
1.111817542
1.139929336
1.16509676
1.191165099
1.21756263
1.23976624
1.258570901
1.276221368
1.290197441
1.297854731
1.302823654
1.309048899
1.31422887
1.315937886
1.316780016
1.317882615
1.320323847
1.320326575
1.319847434
1.322113025
1.324378424
1.309695547
1.225443566
1.114568726
1.049164285
1.033734026
1.033094099
1.027060809
1.015132752
1.013537729
1.015884052
1.018010037
1.024670866
1.036224738
1.054488068
1.079967049
1.110612835
1.137387068
1.162428047
1.188939673
1.214934985
1.237519816
1.256120391
1.273136085
1.288112687
1.296392801
1.301863691
1.306854839
1.312195789
1.314613829
1.315620177
1.315819183
1.31636959
1.318609365
1.319176333
1.319966181
1.321617643
1.307913262
1.225934805
1.115211402
1.050525379
1.033173295
1.029176075
1.021059777
1.010911335
1.015945908
1.017611549
1.019258365
1.024627549
1.035837934
1.053607611
1.080293398
1.110780964
1.136596822
1.16134387
1.188443412
1.214017953
1.235461268
1.253888873
1.271159302
1.284385958
1.293289001
1.300956198
1.305289637
1.308417347
1.312178793
1.31425983
1.314702892
1.313479062
1.315385649
1.317690673
1.31809822
1.319926648
1.306726393
1.226641481
1.116168913
1.052449259
1.032544538
1.024215465
1.014416161
1.006626822
1.015782832
1.01688126
1.020252165
1.025763925
1.036152605
1.053528404
1.08121693
1.112225135
1.135579861
1.160401136
1.18862693
1.213833055
1.235093164
1.254176883
1.270158482
1.281554615
1.289150773
1.29803355
1.303531651
1.305440291
1.308384968
1.311842979
1.313283323
1.312040582
1.311929447
1.31548334
1.316867338
1.318701174
1.304389982
1.224830077
1.115726952
1.052479293
1.031819216
1.02156914
1.010805289
1.00466262
1.013768122
1.014419127
1.01923646
1.026731797
1.036417283
1.053873595
1.082253163
1.111494062
1.134830922
1.160135828
1.189148093
1.214431985
1.235061258
1.252741786
1.268536348
1.280250215
1.287160137
1.294385511
1.301099427
1.304461022
1.305934678
1.307655798
1.310563892
1.310930915
1.310388637
1.313311338
1.315878651
1.316821604
1.299244198
1.216505688
1.113023966
1.05180033
1.031094311
1.019617652
1.008999768
1.004138844
1.01000364
1.011769536
1.017466683
1.025606388
1.036267196
1.054519001
1.083168493
1.111432947
1.135046461
1.160282057
1.188118824
1.212799902
1.23246314
1.249466506
1.265130619
1.278599929
1.286860939
1.292622865
1.298929677
1.303565316
1.304799495
1.304864874
1.305781941
1.308884403
1.309673811
1.310728982
1.3142404
1.289571605
1.205227647
1.109338533
1.050908168
1.029298385
1.017421563
1.008296764
1.004118212
1.007289556
1.009042425
1.014751186
1.023411165
1.036229592
1.055933532
1.084076652
1.111722338
1.135483401
1.160821215
1.188406017
1.212390886
1.231536
1.248177945
1.262190331
1.27538444
1.285980755
1.292318062
1.297426058
1.301877061
1.303690724
1.303706029
1.302654604
1.30514206
1.307884908
1.307961734
1.311583002
1.278634089
1.196419022
1.106648008
1.049254212
1.026240175
1.014447995
1.008093917
1.005359375
1.006360694
1.007565841
1.012260423
1.020785825
1.035453424
1.057762432
1.085086878
1.112258809
1.136088135
1.161622247
1.189086011
1.211735468
1.230777049
1.247817716
1.26100635
1.27211197
1.283448255
1.29199984
1.296224898
1.299254625
1.301385377
1.302524258
1.301601446
1.301730698
1.304542083
1.306294762
1.309135862
1.274554954
1.191540789
1.105586259
1.048053569
1.023591222
1.011532789
1.007620552
1.007153751
1.006373212
1.006635825
1.010631981
1.01887107
1.034757647
1.058789176
1.086418465
1.113149309
1.136836372
1.162540033
1.189372003
1.209548821
1.228928542
1.24683966
1.260615513
1.270978485
1.280507066
1.29013115
1.294712171
1.296445864
1.296655483
1.3001203
1.300982282
1.300499764
1.302224781
1.305331042
1.307646576
1.273140804
1.18916519
1.105764601
1.048313817
1.021975033
1.009540645
1.006083445
1.006931987
1.006050907
1.005398533
1.00912227
1.017315922
1.034751737
1.059119767
1.087392575
1.113759847
1.137713356
1.163833185
1.189641709
1.209366006
1.226456218
1.244331907
1.259345197
1.271068781
1.278948995
1.28660867
1.292372256
1.29411518
1.293128362
1.295733029
1.299087309
1.300199568
1.301329301
1.304474926
1.305959511
1.267777213
1.187310473
1.107704673
1.049498888
1.021851991
1.008484973
1.00450296
1.005644855
1.004347187
1.003497766
1.007179783
1.01616096
1.034858869
1.059574708
1.088277858
1.114277883
1.138772823
1.165405113
1.190140811
1.208676288
1.22553791
1.242214213
1.25699832
1.270343605
1.278447161
1.282621428
1.28833686
1.291503478
1.292074637
1.292598843
1.295479354
1.298779545
1.300295842
1.303193124
1.303609748
1.259948325
1.184058278
1.109645483
1.050340069
1.02213403
1.008193147
1.003943141
1.004813998
1.001956641
1.000483111
1.00439856
1.016009222
1.035225285
1.060068482
1.08882569
1.114608087
1.139574522
1.166938842
1.191572573
1.208003461
1.225276518
1.241471396
1.255192374
1.268182965
1.277491573
1.280766572
1.283176952
1.287647911
1.291133529
1.291590465
1.292435504
1.295827665
1.298264131
1.301027461
1.301240812
1.243128821
1.178875356
1.110723546
1.049902191
1.021182782
1.008720336
1.003627848
1.004302194
1.000582245
0.997860654
1.002018815
1.015369568
1.035035128
1.060570487
1.089500571
1.115345726
1.14043199
1.168038681
1.190792538
1.208163309
1.225529106
1.240981528
1.254257126
1.265588153
1.275458816
1.279632053
1.281057205
1.283867745
1.289091795
1.291414523
1.291490351
1.292780613
1.295458356
1.297580142
1.299873637
1.226869762
1.176044129
1.111339473
1.047867562
1.019233117
1.009054461
1.003737817
1.004134011
0.9999209949
0.9970378306
1.0009965
1.015032219
1.035043481
1.061121944
1.091242487
1.115945519
1.141416279
1.168932678
1.190438541
1.208410353
1.225447738
1.241603688
1.253805555
1.263706938
1.272233073
1.278186593
1.280478995
1.282251859
1.285962016
1.289949128
1.291298799
1.291500915
1.29370911
1.295346868
1.222863682
1.176053251
1.112358127
1.048177036
1.018007333
1.008140344
1.003884648
1.003680587
0.9999838616
0.9967101616
1.000392978
1.014921554
1.03532731
1.06174375
1.090075903
1.115757771
1.142693113
1.170122806
1.191349681
1.208728553
1.224528031
1.241131312
1.254357636
1.262607105
1.268708091
1.275528308
1.280051376
1.281925157
1.283962522
1.286693367
1.290030008
1.291013261
1.292743121
1.294440474
1.222589159
1.177585362
1.115350028
1.048992415
1.017029859
1.005639607
1.002830282
1.001797393
0.9996165003
0.997343411
1.000119561
1.014931348
1.035778007
1.062205555
1.09005775
1.116271546
1.144259897
1.171489355
1.190927121
1.208530317
1.224485905
1.240096036
1.254123066
1.262571815
1.267307402
1.271917074
1.278126342
1.281736826
1.283078474
1.283431083
1.287492079
1.290084877
1.291976289
1.294299854
1.222670193
1.179661679
1.118467677
1.050305302
1.016076367
1.003281588
1.000243499
0.9986312859
0.9980348464
0.9980441204
1.000300071
1.015240018
1.036378644
1.06289669
1.090649559
1.116776732
1.145287666
1.171741642
1.191199711
1.208718262
1.224863112
1.239870478
1.252439567
1.261855859
1.267169159
1.270571752
1.274459813
1.27997886
1.282068772
1.282009136
1.284137711
1.288183371
1.290680604
1.293653241
1.223127628
1.181054576
1.119320885
1.051556016
1.01541652
1.002336965
0.9991485533
0.9972441871
0.9953670101
0.9976745893
1.001821617
1.015928035
1.037543923
1.064291429
1.090959099
1.117628949
1.146497849
1.172444449
1.191512073
1.208926273
1.225405086
1.239846676
1.250434236
1.260060525
1.266828136
1.270440611
1.272127244
1.276209507
1.280189908
1.281275986
1.281993848
1.284863948
1.288318294
1.291969494
1.224172587
1.182216353
1.118516427
1.052956072
1.015610136
1.001372111
0.9986717046
0.9964080196
0.9930295846
0.995765967
1.003656997
1.017534109
1.039070649
1.065155152
1.091650835
1.118673538
1.147827068
1.173837088
1.191538709
1.208979197
1.22611379
1.240012953
1.24972773
1.257446097
1.265095638
)
;

boundaryField
{
    inlet
    {
        type            fixedValue;
        value           nonuniform 0();
    }
    outlet
    {
        type            inletOutlet;
        inletValue      nonuniform 0();
        value           nonuniform 0();
    }
    bottom
    {
        type            slip;
    }
    top
    {
        type            slip;
    }
    obstacle
    {
        type            zeroGradient;
    }
    defaultFaces
    {
        type            empty;
    }
    procBoundary9to3
    {
        type            processor;
        value           nonuniform List<scalar> 
38
(
1.940221775
1.938775587
1.938641127
1.93866846
1.938204643
1.936101908
1.931272306
1.923660827
1.914425565
1.90469081
1.894802148
1.884060737
1.871867967
1.858198179
1.843586686
1.828808168
1.814457595
2.674794676
2.63515193
2.593654201
2.545765985
2.490245528
2.427923776
2.362999072
2.297428852
2.226816977
2.164908548
2.120473364
2.07847856
2.037754163
2.004953321
1.975724655
1.955459648
1.93799618
1.924680871
1.914321097
1.904170677
1.904170677
)
;
    }
    procBoundary9to4
    {
        type            processor;
        value           nonuniform List<scalar> 9(1.796898667 1.792714433 1.787867415 1.782164455 1.775200487 1.766511456 1.755819408 1.742583808 1.727594748);
    }
    procBoundary9to8
    {
        type            processor;
        value           nonuniform List<scalar> 
17
(
2.699566779
2.696984187
2.692519489
2.68604842
2.678601784
2.668810431
2.653789898
2.62735229
2.586616088
2.534435228
2.476651037
2.419382641
2.371781295
2.334453406
2.307853005
2.291791482
2.281631972
)
;
    }
    procBoundary9to10
    {
        type            processor;
        value           nonuniform List<scalar> 
55
(
1.711103745
1.691735568
1.67157074
1.649068558
1.633236363
1.610156345
1.588299074
1.567391076
1.546206578
1.529795809
1.50904723
1.493014251
1.476430406
1.463337517
1.450234735
1.439688245
1.428664359
1.42041865
1.411350432
1.404871982
1.396709791
1.391674985
1.382608597
1.378605108
1.370356175
1.363914357
1.357276463
1.350496217
1.343832853
1.337162862
1.332456848
1.332456848
1.330313135
1.328299783
1.326787713
1.325149829
1.323106813
1.321485752
1.320282895
1.318926658
1.313948137
1.313948137
1.311677904
1.3104975
1.310143865
1.309414833
1.307570701
1.304687967
1.30290978
1.299151551
1.299151551
1.299029242
1.298201818
1.296242921
1.293248854
)
;
    }
    procBoundary9to14
    {
        type            processor;
        value           nonuniform List<scalar> 
21
(
2.274989142
2.270961593
2.26877513
2.268119551
2.268977141
2.271507832
2.276370755
2.283296481
2.291376271
2.299721433
2.306700005
2.313807868
2.316850796
2.31791072
2.317140058
2.315101434
2.312158709
2.309446036
2.308999281
2.314875034
2.340315627
)
;
    }
    procBoundary9to15
    {
        type            processor;