/*--------------------------------*- C++ -*----------------------------------*\
  =========                 |
  \\      /  F ield         | OpenFOAM: The Open Source CFD Toolbox
   \\    /   O peration     | Website:  https://openfoam.org
    \\  /    A nd           | Version:  7
     \\/     M anipulation  |
\*---------------------------------------------------------------------------*/
FoamFile
{
    version     2.0;
    format      ascii;
    class       volScalarField;
    location    "0.6";
    object      T;
}
// * * * * * * * * * * * * * * * * * * * * * * * * * * * * * * * * * * * * * //

dimensions      [0 0 0 1 0 0 0];

internalField   nonuniform List<scalar> 
2222
(
0.8778114834
0.8764324408
0.8751863843
0.8723844517
0.8687871129
0.8659396678
0.9941390275
0.9843238373
0.9749661189
0.9713095717
0.9648748705
0.9546674101
0.9509294896
0.947467069
0.939396614
0.9343251872
0.9319450394
0.926041439
0.9197151908
0.9163388683
0.9120270012
0.9074944859
0.9040196791
0.8999871455
0.8965264337
0.8941305482
0.8907032843
0.8851395213
0.8820696203
0.8802289287
0.8770744014
0.8733693047
0.8716186617
0.8695442301
0.8662323771
0.8617285412
0.8602578421
0.9842717116
0.9724692382
0.9666223923
0.9629868822
0.9544142185
0.9466973541
0.9440998969
0.9388014589
0.9302445157
0.9268680666
0.9233154421
0.9161329836
0.9125216045
0.9100239612
0.9053799083
0.9011726175
0.8978362891
0.8930713822
0.8892903356
0.8866283267
0.8824667942
0.8771100571
0.8757726204
0.8746068244
0.8715689181
0.8680738447
0.8657771593
0.8636269246
0.8594094464
0.8576046758
0.8585335906
0.9725380955
0.9621285246
0.9588295998
0.9539100698
0.9439005946
0.9390821932
0.9362361453
0.9288205928
0.9221652483
0.9197859103
0.9148716332
0.908204571
0.9055109632
0.9022979104
0.8973163921
0.8941569305
0.8907866415
0.8856109188
0.8829012066
0.8810625083
0.877553108
0.8732304132
0.8712908723
0.8689873323
0.8652448078
0.8612791
0.859118567
0.8569041517
0.8557966459
0.8561992151
0.8584125199
0.960733656
0.954061105
0.9510544553
0.9435012523
0.9341102452
0.9310971938
0.9269312612
0.9181668469
0.9144344951
0.9124776136
0.9070024948
0.9019245735
0.899324693
0.8944523432
0.8892811948
0.886712456
0.8832782431
0.8786234472
0.8767319624
0.8750927463
0.8709551946
0.8667059487
0.8640065923
0.8618228632
0.8580036122
0.8563333385
0.8560388528
0.8551803793
0.8557903113
0.8618343561
0.8836311907
0.9494142788
0.9454103258
0.9412601022
0.9314900613
0.9259702321
0.9240208596
0.9184085866
0.9103415365
0.9074016427
0.9038649531
0.8967562581
0.8933724235
0.8909049147
0.8852126922
0.8824317421
0.8810717738
0.8774359885
0.8726473439
0.8701768374
0.8674798614
0.8635132776
0.8606574153
0.8591031865
0.8571598758
0.8535341364
0.8533951867
0.854299884
0.8572562394
0.8726393256
0.9031942609
0.9462356146
0.9399578806
0.9373138827
0.9311178517
0.9211952852
0.9179220864
0.9152396872
0.9077945473
0.9021798035
0.9003331663
0.895515282
0.8891542321
0.8872441145
0.884219272
0.8786558659
0.8762095788
0.8744234039
0.8697696185
0.8669910646
0.8650659809
0.8623569112
0.8582124735
0.855973932
0.8549001691
0.8529431269
0.8522427656
0.8534208826
0.861951773
0.8848681456
0.9307400763
0.9691158494
0.9902447125
0.9317062606
0.9290142854
0.9209399246
0.9131396733
0.9104882396
0.9056359993
0.8968019238
0.8938726813
0.8918185822
0.8857763044
0.8815066364
0.8802249839
0.8762960344
0.8712924799
0.8691503453
0.8662011942
0.8620607109
0.8598934897
0.8581850909
0.8555398628
0.8510912751
0.8506789177
0.8514386935
0.8522572282
0.8560531718
0.8741072238
0.9101295093
0.9509258588
0.9736525049
0.9937816487
1.004664815
0.9230631254
0.9181375051
0.9080888774
0.9040074108
0.9019684775
0.8957707058
0.8894973559
0.8881936378
0.8847988303
0.8778812749
0.8746728004
0.8722715996
0.8667436572
0.8647813537
0.8640387375
0.86102863
0.8574425722
0.8551177548
0.8537160631
0.8513033989
0.849862458
0.8501607438
0.852227923
0.8647899237
0.8913969846
0.9350249279
0.9763193588
1.000634121
1.002451347
1.005353876
1.008107569
0.9146696732
0.9071135593
0.8986119273
0.8964198363
0.8929365425
0.8849382443
0.8811788696
0.8798205333
0.8748083277
0.8697283602
0.8689109859
0.8663104912
0.8613339747
0.8596519803
0.8577430335
0.8546726064
0.851224662
0.8501376086
0.8493600794
0.8490006925
0.8496493449
0.855430397
0.875943342
0.9192157396
0.9589288766
0.9827449197
0.9925835259
1.005578981
1.006520639
1.007281737
1.008408821
0.9039365689
0.8949287294
0.8910261203
0.8898277489
0.8847353055
0.8770827329
0.8745982046
0.8718151162
0.8657001974
0.8628328883
0.8618391636
0.8578809107
0.8543543529
0.8528166008
0.851008616
0.8490922882
0.8481212236
0.8477049084
0.8479040569
0.8500909731
0.8648394294
0.8963482145
0.9385966782
0.9703864066
0.9998265817
1.0059895
1.003020762
1.004597888
1.005827167
1.006145224
1.006562582
0.8934865436
0.8846706904
0.8822413481
0.8798418499
0.8727523279
0.8682671736
0.8674771502
0.8639469135
0.859018973
0.8578712111
0.8560725044
0.8522248532
0.8512680867
0.8500749192
0.8484592644
0.8471061679
0.8472215197
0.8482580466
0.8565062642
0.8786766935
0.9233656159
0.9672992844
0.996626878
1.000558613
1.005715016
1.008292289
1.007633107
1.007024666
1.006931363
1.00670886
1.006376739
0.8817328976
0.876407054
0.8750911075
0.8712458725
0.8643988305
0.8620952827
0.8603666793
0.8549638048
0.8528806508
0.8530634372
0.8513782173
0.8489874617
0.8478930488
0.8466918352
0.846001066
0.8462834681
0.8499761848
0.865369544
0.9033873106
0.9485386028
0.9749773991
0.9895686172
1.003581992
1.003372121
1.004181633
1.006187822
1.007652786
1.007477295
1.007480686
1.007536323
1.007266162
0.8695596383
0.8681176387
0.8673091265
0.8625422555
0.8581461467
0.85752763
0.8551923709
0.8510822953
0.8497206303
0.8484939742
0.8457571675
0.8449900103
0.8452197072
0.8454333728
0.846970549
0.8575311006
0.8851226576
0.9262095384
0.9681202824
0.9990267159
1.00448232
1.002571175
1.004501095
1.004493978
1.004461237
1.005537442
1.006850606
1.007323222
1.00754934
1.007739742
1.007946874
0.8641042457
0.8623126774
0.8593519622
0.8530967708
0.8519099587
0.8516817586
0.8489194942
0.8462090042
0.8457359571
0.8446295425
0.8442215146
0.8444911682
0.8454051796
0.8513875405
0.8707681812
0.9144824099
0.9516986046
0.9828117859
0.9913997695
1.003075412
1.007823581
1.007370134
1.007424114
1.007391466
1.006855071
1.006663097
1.007050626
1.007150957
1.007266479
1.007463837
1.007753024
0.8561427946
0.8556365283
0.8521703752
0.849244199
0.8487641091
0.8476319991
0.84482005
0.8442893685
0.8442945259
0.8442928905
0.844449667
0.8471621569
0.8600490225
0.8944307312
0.937090792
0.9696317486
0.9934592919
1.007068371
1.004377083
1.004683537
1.006281201
1.007584376
1.007961709
1.008200889
1.008222613
1.008130125
1.007928298
1.007394878
1.007138002
1.007156318
1.007277875
0.8515272579
0.8505138918
0.8466721287
0.8454722756
0.8457096688
0.8450663186
0.8440985974
0.8442414299
0.8440532587
0.8448277475
0.8523676752
0.8758918061
0.9178215455
0.9658802579
0.9952450193
0.9995667678
1.003946428
1.008596001
1.008772212
1.007620384
1.007442867
1.007520761
1.007721728
1.007959531
1.00806041
1.008022734
1.007866201
1.007483234
1.007243508
1.007253704
1.00731167
0.8473492002
0.8454333242
0.8434727806
0.8435182771
0.8436608447
0.8433760439
0.8433590703
0.8439029971
0.8478362935
0.8634006801
0.9019210627
0.942454019
0.9778424848
0.9891428022
1.00174218
1.002736168
1.003861139
1.006481563
1.008820887
1.00865495
1.008420179
1.007916814
1.007556741
1.007281206
1.007273852
1.007282022
1.007312487
1.007305116
1.007340569
1.007483349
1.007627046
0.8443542499
0.8435397369
0.8432547486
0.8433979441
0.8431730923
0.8431538714
0.8447619193
0.8550748535
0.8844553701
0.9255483162
0.9640419339
0.9951330099
1.006198846
1.00275549
1.004145603
1.003909523
1.004003018
1.005533177
1.007783635
1.008550029
1.008536401
1.008275447
1.00776683
1.00735375
1.007131363
1.007126214
1.007153679
1.007249376
1.00743843
1.007660159
1.00788537
0.843911948
0.8431024515
0.8429546539
0.8430209214
0.843611462
0.8492536216
0.8681176157
0.9095154704
0.9570699533
0.9905273662
0.9982316565
1.004752523
1.008682323
1.008111529
1.007437197
1.007132469
1.006723681
1.00693371
1.007681765
1.008046946
1.008081274
1.008026293
1.007884676
1.007713506
1.007549165
1.007523182
1.007502661
1.007504827
1.007584323
1.007730253
1.007959144
0.8431387396
0.8425591744
0.8427108144
0.8452475925
0.8566171512
0.8909445519
0.934779378
0.9706745048
0.9850137398
0.9987692563
1.000913247
1.003223494
1.006540446
1.008098538
1.007896017
1.007910646
1.008131277
1.008197792
1.008133865
1.008042813
1.007859799
1.007907104
1.0079442
1.007939123
1.007969126
1.008002139
1.007971225
1.007863535
1.007744897
1.007785514
1.007918564
0.8426260967
0.8436346691
0.8507160597
0.8743996054
0.9128007456
0.9570956378
0.9936419055
1.004582105
1.002281759
1.003835076
1.004530277
1.005121781
1.007036172
1.00770456
1.00771541
1.007860353
1.008065354
1.008282133
1.008244903
1.008089545
1.007931016
1.0077831
1.007804002
1.007849626
1.008070843
1.008182096
1.008148409
1.008035386
1.007884743
1.007846416
1.007921499
0.8468529604
0.8617980633
0.8998003394
0.9391659278
0.9769061454
0.9875047512
1.000514135
1.008089579
1.007223149
1.007237702
1.007808868
1.00823501
1.008421359
1.0081836
1.007808154
1.00740867
1.00736089
1.007565437
1.007836725
1.007976179
1.008009245
1.007935796
1.007957535
1.00801619
1.008014219
1.008061182
1.008056144
1.008015443
1.007955541
1.007940929
1.007992896
0.8826291909
0.9242276379
0.9644957706
0.9895201533
1.004758784
1.005309922
1.005209927
1.006453013
1.007371435
1.007868558
1.008386318
1.008693251
1.008795662
1.008683629
1.008241379
1.007674677
1.007416755
1.007476985
1.007721666
1.007967592
1.00807248
1.008104966
1.008110759
1.008127371
1.008162678
1.008173023
1.008147148
1.008098881
1.008062387
1.008057486
1.008096612
0.9526713603
0.9897855678
0.9948586059
0.9992278756
1.006272997
1.008058828
1.007844027
1.007521528
1.00760482
1.007523504
1.007738711
1.007986202
1.008298051
1.008451869
1.00829069
1.008034091
1.007800519
1.007687141
1.00779104
1.007971202
1.008039652
1.008072248
1.008130078
1.008289149
1.008379936
1.008363959
1.008332917
1.008267191
1.008174064
1.008162699
1.008170397
0.9856953294
1.000479545
1.005018066
1.004664216
1.005973834
1.007316609
1.008269729
1.008439937
1.008249302
1.007745766
1.007454127
1.007459934
1.007688527
1.00805385
1.008184758
1.008114214
1.008006027
1.007998306
1.008042372
1.008081981
1.008028518
1.008042038
1.00815531
1.008477468
1.008570996
1.008563144
1.00852964
1.008418601
1.008297155
1.008291385
1.008303975
1.004992651
1.006511315
1.007798289
1.00827719
1.00801888
1.008092101
1.008314102
1.008789115
1.008951967
1.008675298
1.008147772
1.007859857
1.007882573
1.007969759
1.008011359
1.007985484
1.007946993
1.007992254
1.008084694
1.008168421
1.008209951
1.008253285
1.008451829
1.008626674
1.008689459
1.008711147
1.008715274
1.008683642
1.008622109
1.00863102
1.008659621
1.007796665
1.007591434
1.008038429
1.008481075
1.008853316
1.008835485
1.008784393
1.00897519
1.009266781
1.009233924
1.009012594
1.008732285
1.008470114
1.008229757
1.008241426
1.008271495
1.008326037
1.008429304
1.008573552
1.008696951
1.008780714
1.008824053
1.008906949
1.00902182
1.009092573
1.009126097
1.009168335
1.009199925
1.009223507
1.009276497
1.00934089
1.008667532
1.008417947
1.008484776
1.009003447
1.009649506
1.009883127
1.009790669
1.009715214
1.009781784
1.009757307
1.009593869
1.009354697
1.009207098
1.00917896
1.009157881
1.009220083
1.009338475
1.009487868
1.00967425
1.009823551
1.009937054
1.009948401
1.009914546
1.009892437
1.00988757
1.009868858
1.009895568
1.009944028
1.009986134
1.010042542
1.010105502
1.009066275
1.009296623
1.009638681
1.01018634
1.010636785
1.010933483
1.010792351
1.010551698
1.01037804
1.01032079
1.010302154
1.010273711
1.010220199
1.010260059
1.010294679
1.010352666
1.010461805
1.010621478
1.010804092
1.010902005
1.010957825
1.01094944
1.010918036
1.010867714
1.010812613
1.010780533
1.010799876
1.010826686
1.010843532
1.010870484
1.010909088
1.01143576
1.011654855
1.011859129
1.012038788
1.012122105
1.012068245
1.011846507
1.011605802
1.01146686
1.011374596
1.011309315
1.01123913
1.011164617
1.011121839
1.011063322
1.0111096
1.011263699
1.011521905
1.011772483
1.011861392
1.011838087
1.011812442
1.011677695
1.011590334
1.011539265
1.011546979
1.011581886
1.011608779
1.011636098
1.011639788
1.011631972
1.012773555
1.012906975
1.013224453
1.013280968
1.013246249
1.012955495
1.012613728
1.012263575
1.012012028
1.011975403
1.011932169
1.011847694
1.011663254
1.011410327
1.01107631
1.011085063
1.011176861
1.01133501
1.011715489
1.012108656
1.012117412
1.012284491
1.012230023
1.012037967
1.011855582
1.011737552
1.011757938
1.011866523
1.012053125
1.012272238
1.012421004
1.012467474
1.012979253
1.013222455
1.013622905
1.013710681
1.013729525
1.013349967
1.012742566
1.012274587
1.011953224
1.011918663
1.011931995
1.01185024
1.011631681
1.011349432
1.010967775
1.011040264
1.011023738
1.011106429
1.011358452
1.011585869
1.011597806
1.011912793
1.012047303
1.011974398
1.011779287
1.0115428
1.011486226
1.011499325
1.011575483
1.011714309
1.01190752
1.012119046
1.013247545
1.013379034
1.013797804
1.013958133
1.014002348
1.013794113
1.013268672
1.012371758
1.012001383
1.011972913
1.01199864
1.011946388
1.011692733
1.011385466
1.011028362
1.01121604
1.011172478
1.011236506
1.011417797
1.011530818
1.011666398
1.011820903
1.01192465
1.012073835
1.011889749
1.011706423
1.011659529
1.011665656
1.01166425
1.011705004
1.011758901
1.011876763
1.013170854
1.01342295
1.013872238
1.014027759
1.013997489
1.013894453
1.01356266
1.012804193
1.012174828
1.012034284
1.012047217
1.012049408
1.011912284
1.011779785
1.011602214
1.011758434
1.0115377
1.011453182
1.011536955
1.011599636
1.011738037
1.011871072
1.011907036
1.012179978
1.012008081
1.011859476
1.011795975
1.01177267
1.011778059
1.011841127
1.011962226
1.01203762
1.012933623
1.013230675
1.01368267
1.013837101
1.013744449
1.013643288
1.013495202
1.013005008
1.012468519
1.012246221
1.012165484
1.012150561
1.012103275
1.012066224
1.012110743
1.012448129
1.012468243
1.012424692
1.012354538
1.012054186
1.011861801
1.011877943
1.011930981
1.012229923
1.01226749
1.012309879
1.012230338
1.012118282
1.012025009
1.012000277
1.012094056
1.012096756
1.012576343
1.012897512
1.013318961
1.013422354
1.013275338
1.013160266
1.01312027
1.01283046
1.012502126
1.012327139
1.012227111
1.012146222
1.012073887
1.012113503
1.012249356
1.012590251
1.012857958
1.013110065
1.013202433
1.012997759
1.012603056
1.012212901
1.012132229
1.01248706
1.01276438
1.013001231
1.013045753
1.013052485
1.012937766
1.012740504
1.012505918
1.012247899
1.012253175
1.012556141
1.012882047
1.012927705
1.012782419
1.012627364
1.012571472
1.012483009
1.012335184
1.012230232
1.012172443
1.012100248
1.012063414
1.012117057
1.012260549
1.012588596
1.012963049
1.013270594
1.013455489
1.013468282
1.013272652
1.012959413
1.012831638
1.012939216
1.013122226
1.013199199
1.013515763
1.013677364
1.013714324
1.013615602
1.013437321
1.013069605
1.011999999
1.012280332
1.012498282
1.012496034
1.012286804
1.012064912
1.012055251
1.012072609
1.012124201
1.012125327
1.012078964
1.012031324
1.012028433
1.011985587
1.012089687
1.012383385
1.012681324
1.013007209
1.013152643
1.013267488
1.013350841
1.013344187
1.013144035
1.013120497
1.013089416
1.013307197
1.013365835
1.013574337
1.013697019
1.013994988
1.013846238
1.013795277
1.011855042
1.012144307
1.012334506
1.012298039
1.012038362
1.011755898
1.011623719
1.011731357
1.011932869
1.012038597
1.012032288
1.01198508
1.011960565
1.011867431
1.011907135
1.012011253
1.012207124
1.012507146
1.012780675
1.013110987
1.013211912
1.013188863
1.013332738
1.013269857
1.013094839
1.013199755
1.013250909
1.013532507
1.01371417
1.013831291
1.014008821
1.013811764
1.011593431
1.011774338
1.012104282
1.012308008
1.012288367
1.012164068
1.011822321
1.011494691
1.011605273
1.011821205
1.011993429
1.012069287
1.012014212
1.012018392
1.011916401
1.011845357
1.011752978
1.011932483
1.012221612
1.012383562
1.012949149
1.013121284
1.013067182
1.013143937
1.013092266
1.013092677
1.012983217
1.013247615
1.013484289
1.013682988
1.013544542
1.0138329
1.013887276
1.011574539
1.011821949
1.012125307
1.012333785
1.012331012
1.012286182
1.012044113
1.011684167
1.011669602
1.011780126
1.011888436
1.011981342
1.012020541
1.012080104
1.012022469
1.011826483
1.011670822
1.011778786
1.011818298
1.011806479
1.012144177
1.012434981
1.0128387
1.012762764
1.01269988
1.012710627
1.012625563
1.012668979
1.012706871
1.012945046
1.013412896
1.013612557
1.013799959
1.011521174
1.011811385
1.012189336
1.012455551
1.012504411
1.01238297
1.012109418
1.01185882
1.011734423
1.011717959
1.011707168
1.011775865
1.011910905
1.012011338
1.012080446
1.012021238
1.011926824
1.011761611
1.011639963
1.011620937
1.011806865
1.011973795
1.012157841
1.012282895
1.012254614
1.012135384
1.012096803
1.011987253
1.011952504
1.012011513
1.0123506
1.012635116
1.013038516
1.011486224
1.011725809
1.012113331
1.012466816
1.012520573
1.012375719
1.012131078
1.011868607
1.011691819
1.011634263
1.011525391
1.011502934
1.011757616
1.01188425
1.011959967
1.01214691
1.01229686
1.012264915
1.012022835
1.01170981
1.01168041
1.011773414
1.011896289
1.012025243
1.012021491
1.011940755
1.01190238
1.011829692
1.011840622
1.011777427
1.011770239
1.011968635
1.011980885
1.011488806
1.011718518
1.012060107
1.012321661
1.012393738
1.01232359
1.012144341
1.011871136
1.01166265
1.011536642
1.011254844
1.011115281
1.011339242
1.011520766
1.011835611
1.012131388
1.012465562
1.012656836
1.012649155
1.01233413
1.011918144
1.011787846
1.011841416
1.011922494
1.0118869
1.011843265
1.011790593
1.011758681
1.011700324
1.011639131
1.011659047
1.011613133
1.011631146
1.011761854
1.011766363
1.012059642
1.012136413
1.011938938
1.011815966
1.011932874
1.011846127
1.011657176
1.011401995
1.011125709
1.010957648
1.011152559
1.011130577
1.011438976
1.012206233
1.012610691
1.012915755
1.012922439
1.012692905
1.012408874
1.012281449
1.012165863
1.012126592
1.012071158
1.01201434
1.011978574
1.011946527
1.011788517
1.011691661
1.011673036
1.011556939
1.011611057
1.01189492
1.011961208
1.012161899
1.012078757
1.011663547
1.011163982
1.011209862
1.011423741
1.011577693
1.011413763
1.011192023
1.011021817
1.011242126
1.011191168
1.011149975
1.011654855
1.012465901
1.012945092
1.012982532
1.012841809
1.012674777
1.012590901
1.012539994
1.012490112
1.012486512
1.012534826
1.012576316
1.01249893
1.012473902
1.012363835
1.012234515
1.012004096
1.011718211
1.012039155
1.012117247
1.012271716
1.012138143
1.011731099
1.011063464
1.010829711
1.010981278
1.011358916
1.01151471
1.011478156
1.011470706
1.011598466
1.011379443
1.011226625
1.011248801
1.011690626
1.012579389
1.012908452
1.012953332
1.012773234
1.012779097
1.012682239
1.012739318
1.012757138
1.012731272
1.012808117
1.012894314
1.012900284
1.012972532
1.012822346
1.012728195
1.011541135
1.012154265
1.012197751
1.012261298
1.012156315
1.011805218
1.011140768
1.010880866
1.010951284
1.011279618
1.011703774
1.011885528
1.012011083
1.012126393
1.011982336
1.011436961
1.011343609
1.011334796
1.011590131
1.012303588
1.012871177
1.012879613
1.012913687
1.012847782
1.012857451
1.012870961
1.012880594
1.012963238
1.013024956
1.013073309
1.01310856
1.013114739
1.013112052
1.01170691
1.012161177
1.012193102
1.012253833
1.012182914
1.011872851
1.011391942
1.011116351
1.011135878
1.011441988
1.011958756
1.012188189
1.01236403
1.012485429
1.012477923
1.012105958
1.011385953
1.011161214
1.011186871
1.0116048
1.012309198
1.012745523
1.012907748
1.012918034
1.012842701
1.012834783
1.012981927
1.01308027
1.013130257
1.013211446
1.013253535
1.013273145
1.013318643
1.011625634
1.012195452
1.012305317
1.012430259
1.012368848
1.012074533
1.011741893
1.011422168
1.011399042
1.011592227
1.011964906
1.01229776
1.012485471
1.012618105
1.012648276
1.012603866
1.012145571
1.011501904
1.011242078
1.011469741
1.011849011
1.012188396
1.012413266
1.012481896
1.012404955
1.012436391
1.012710893
1.012995297
1.013170975
1.013293907
1.013389167
1.0133528
1.013486239
1.01175878
1.012383894
1.012534617
1.012699139
1.012608899
1.012311329
1.011959042
1.011616321
1.011598631
1.011647788
1.011708985
1.012010915
1.012226983
1.012485124
1.012672169
1.01276665
1.012766908
1.012500601
1.011775534
1.011687179
1.011827713
1.01195225
1.011957051
1.011908215
1.011824888
1.01171885
1.011784358
1.012165093
1.012627978
1.012945953
1.01322319
1.013375616
1.01359164
1.012008402
1.0125995
1.012738709
1.012852359
1.012740004
1.012488656
1.012119898
1.011826308
1.011757524
1.011627636
1.011459917
1.011352381
1.01142654
1.011734366
1.012449021
1.012898614
1.012973803
1.012985192
1.012707124
1.012528085
1.012066967
1.011973568
1.012046188
1.011946172
1.011762524
1.011544434
1.011272614
1.011402565
1.011701245
1.011928766
1.012204743
1.012596871
1.013137118
1.012170459
1.012571697
1.012746296
1.012779155
1.012692678
1.012519161
1.012231751
1.012039507
1.011846369
1.011657363
1.011383599
1.011195618
1.011015832
1.01109869
1.011732869
1.012897783
1.013290708
1.013394182
1.013283805
1.013255977
1.012933615
1.012475696
1.012155168
1.011990648
1.011791069
1.011491424
1.01152468
1.011456125
1.011281273
1.011541115
1.011519908
1.011686831
1.011956819
1.012133776
1.012379717
1.012370162
1.01223391
1.012049528
1.012078665
1.012087258
1.01210165
1.011966504
1.011769604
1.011486633
1.01119896
1.011106144
1.011098189
1.011339613
1.012388432
1.013464178
1.013682197
1.013592019
1.013553385
1.013439689
1.013269538
1.012889038
1.012684446
1.012499191
1.012132285
1.011722378
1.01141685
1.011510458
1.011406768
1.011634074
1.011375818
1.011485738
1.011824774
1.011760894
1.011759689
1.011671558
1.011479282
1.011490149
1.011590885
1.01194542
1.012133446
1.012153235
1.011995006
1.01162202
1.011384431
1.011287045
1.011480435
1.011850903
1.012971728
1.013770614
1.013739454
1.013729809
1.013679023
1.013488768
1.013433755
1.013327694
1.01323342
1.013056501
1.012552972
1.012052066
1.011806693
1.011624172
1.011684629
1.011669205
1.011534634
1.010714452
1.011407222
1.011380132
1.011414667
1.011443291
1.011366587
1.011267333
1.011338804
1.011828736
1.01229248
1.012551481
1.01247167
1.012358617
1.012103769
1.011904861
1.011764618
1.011842207
1.012053322
1.01287249
1.013505078
1.013688246
1.013782945
1.013710882
1.013719876
1.013615186
1.013512535
1.013335953
1.013178071
1.012922096
1.012453555
1.012181584
1.011864705
1.012060589
1.011701859
1.010835156
1.011423986
1.011500666
1.011693427
1.011743769
1.011651671
1.011565936
1.01161008
1.011918986
1.012485807
1.012879058
1.01285476
1.01274584
1.012697888
1.012583582
1.012338302
1.012037392
1.011842927
1.011853531
1.012361329
1.013179291
1.013754511
1.013882487
1.013835202
1.013788877
1.013681431
1.013549043
1.013484141
1.013248116
1.012926677
1.012674054
1.01232863
1.01215163
1.012072345
1.011170344
1.011615913
1.011656659
1.01198848
1.012140823
1.012101777
1.011966524
1.01193438
1.012093464
1.012686031
1.013091479
1.013107177
1.013006602
1.012994065
1.012950726
1.012722294
1.012253748
1.011673644
1.011478812
1.011617694
1.012139533
1.012936845
1.01350592
1.013783334
1.013868296
1.01383093
1.013748181
1.013602775
1.013465095
1.0132821
1.012990654
1.012970159
1.012679001
1.01261015
1.01173483
1.012050949
1.011995437
1.012136921
1.012389112
1.012418508
1.012099785
1.012006597
1.012201045
1.012712655
1.013149794
1.013198302
1.013169622
1.013155891
1.013159561
1.012926195
1.012334313
1.011794931
1.011653889
1.011574115
1.011744392
1.012076513
1.012394006
1.0128706
1.013252932
1.013519788
1.013640905
1.013661823
1.013629457
1.013534799
1.013355623
1.013256343
1.013264004
1.013138369
1.012164601
1.012502049
1.012427852
1.012350642
1.012540324
1.012533864
1.012293044
1.012126897
1.012146575
1.012269598
1.012515481
1.012684399
1.012852706
1.013002925
1.013147527
1.013033465
1.012566788
1.012250709
1.011913525
1.011771029
1.011981803
1.011864146
1.011853976
1.011993342
1.012120097
1.01234587
1.012667733
1.013140716
1.013479246
1.013534389
1.013593912
1.013485935
1.013561642
1.013479172
1.012473871
1.012799376
1.012727936
1.01253626
1.012608916
1.012569988
1.012429933
1.012213824
1.011947994
1.01190088
1.011873076
1.011795295
1.011877611
1.012115821
1.012545101
1.012864682
1.012797344
1.012545376
1.012375493
1.012283757
1.012143023
1.012162243
1.012058039
1.01169094
1.011650475
1.011670354
1.011800715
1.012119454
1.012561767
1.013051785
1.013458233
1.013650933
1.013691456
1.0137277
1.012487504
1.012858701
1.012744889
1.012479133
1.01233544
1.012276091
1.012161263
1.012040631
1.011889321
1.011675307
1.011564275
1.011587631
1.011411509
1.01147817
1.011681233
1.012311852
1.012831694
1.012823646
1.012823816
1.012878781
1.012761829
1.012561487
1.012111544
1.011947082
1.011903776
1.01184302
1.011842841
1.011655063
1.011871005
1.012329111
1.012809481
1.013427295
1.013714975
1.013826689
1.011951289
1.012396758
1.012309502
1.012156205
1.011936553
1.011879204
1.011834082
1.011844987
1.012004469
1.011888861
1.011784821
1.011540115
1.01156436
1.011356262
1.011532459
1.011803119
1.012704816
1.013075283
1.01318874
1.013287092
1.013284767
1.013071894
1.012599173
1.012408092
1.01220931
1.012023246
1.011913045
1.011995384
1.012086294
1.011986129
1.012458872
1.012849423
1.013378777
1.011205538
1.011509185
1.011871158
1.01200586
1.01202888
1.011865013
1.011839174
1.011852217
1.011946536
1.012122472
1.012425826
1.012374878
1.012075358
1.011826832
1.011642363
1.011655183
1.011802635
1.012322705
1.013196786
1.013402046
1.013556618
1.013592694
1.013456804
1.013130469
1.012645943
1.012212564
1.012015551
1.011993946
1.01234441
1.012334505
1.012299576
1.012338589
1.012708805
1.012979792
1.011289298
1.011614388
1.011767532
1.011968347
1.012107614
1.012076758
1.012050954
1.012069392
1.012222495
1.012490519
1.012758274
1.012828156
1.012825379
1.012592115
1.012466144
1.012095954
1.012081355
1.012186242
1.01275544
1.013413268
1.013708154
1.013711633
1.013738446
1.01352083
1.013074209
1.012671274
1.01240954
1.012378268
1.012265131
1.012272582
1.012643881
1.012569474
1.012775781
1.012872191
1.011523967
1.011868184
1.011877115
1.012026366
1.012310993
1.012373357
1.012252791
1.012278065
1.012509492
1.012811111
1.013027482
1.013143882
1.013153566
1.013104666
1.01299142
1.012829207
1.012549519
1.012234609
1.012294585
1.01298525
1.013595522
1.013715791
1.013821391
1.013725478
1.013493042
1.013182873
1.012909345
1.012739458
1.01254319
1.012571792
1.012735123
1.012919625
1.012910431
1.013062908
1.011616078
1.011981882
1.012061833
1.012170982
1.012538655
1.012676888
1.012579692
1.012494588
1.012628834
1.012976561
1.01322279
1.013382911
1.013329533
1.013395439
1.013258537
1.013133425
1.012581209
1.012126481
1.012190084
1.012537351
1.013045184
1.013384573
1.013612328
1.01372693
1.013704542
1.013433329
1.013163037
1.013002171
1.012893581
1.012866346
1.012746697
1.013112215
1.013178753
1.013324468
1.011604699
1.012001069
1.012203106
1.012322655
1.012652582
1.012873784
1.012796793
1.012669806
1.012641665
1.012876274
1.013138117
1.013360685
1.013419837
1.013491512
1.013417035
1.013210321
1.012849105
1.012552122
1.012266975
1.012455816
1.012661451
1.012863664
1.013032941
1.013437902
1.013589306
1.013452026
1.01317374
1.012933558
1.013128171
1.013096789
1.012921296
1.012999183
1.013327259
1.013312633
1.011549292
1.011910217
1.012065008
1.012132023
1.012429771
1.012597891
1.012535031
1.012321276
1.012151954
1.0122101
1.012316819
1.012510129
1.01282521
1.013089685
1.01332001
1.013256562
1.013075541
1.012801993
1.012681004
1.012657724
1.012739751
1.012591656
1.012713624
1.012880875
1.013240939
1.013428998
1.013233303
1.012962889
1.011380938
1.011600336
)
;

boundaryField
{
    inlet
    {
        type            fixedValue;
        value           nonuniform 0();
    }
    outlet
    {
        type            inletOutlet;
        inletValue      nonuniform 0();
        value           nonuniform 0();
    }
    bottom
    {
        type            slip;
    }
    top
    {
        type            slip;
    }
    obstacle
    {
        type            zeroGradient;
    }
    defaultFaces
    {
        type            empty;
    }
    procBoundary10to4
    {
        type            processor;
        value           nonuniform List<scalar> 
32
(
0.8849723725
0.881745041
0.8799658143
0.8769881826
0.8731527455
0.8711919349
1.002496451
0.9951341558
0.983710564
0.9789042125
0.9746955451
0.9652169954
0.9584190617
0.9554330234
0.9488293199
0.94084258
0.9382860197
0.9343630679
0.9273212736
0.9232052046
0.9198557716
0.9154694572
0.9111934231
0.9067546879
0.9027199187
0.8996912086
0.8964491642
0.8916476559
0.888413078
0.8862495112
0.8829705841
0.8829705841
)
;
    }
    procBoundary10to5
    {
        type            processor;
        value           uniform 0.8638276583;
    }
    procBoundary10to9
    {
        type            processor;
        value           nonuniform List<scalar> 
55
(
0.9987449815
0.9906671509
0.9817453634
0.9719103747
0.9607927697
0.9478365975
0.9351986149
0.9258705693
0.9173069831
0.9075207753
0.9001294849
0.8903136686
0.8782499014
0.8698803547
0.8582622151
0.8521819902
0.8478035908
0.84430729
0.8440287163
0.8433613524
0.8425230926
0.8427608617
0.852810501
0.9037214427
0.9718568395
1.005614542
1.007338033
1.007565655
1.00881301
1.011295431
1.011295431
1.012493436
1.012834828
1.013197344
1.013091553
1.012872382
1.012549446
1.012192033
1.011904569
1.011675144
1.011675144
1.010657634
1.010659586
1.01078645
1.010826622
1.010901479
1.010995727
1.01126118
1.01139157
1.01139157
1.010298553
1.010379001
1.010468112
1.010729708
1.011104348
)
;
    }
    procBoundary10to11
    {
        type            processor;
        value           nonuniform List<scalar> 
70
(
0.858926555
0.8590937852
0.8706985967
0.9219279258
0.9806279587
0.9957719252
1.002964952
1.008299056
1.008862027
1.007348526
1.006532806
1.007044811
1.007882051
1.007792139
1.007457003
1.007412522
1.007712551
1.007991688
1.008113044
1.008043812
1.00802322
1.008097231
1.00821427
1.00825217
1.008367064
1.008712238