/*--------------------------------*- C++ -*----------------------------------*\
  =========                 |
  \\      /  F ield         | OpenFOAM: The Open Source CFD Toolbox
   \\    /   O peration     | Website:  https://openfoam.org
    \\  /    A nd           | Version:  7
     \\/     M anipulation  |
\*---------------------------------------------------------------------------*/
FoamFile
{
    version     2.0;
    format      ascii;
    class       volVectorField;
    location    "4.6";
    object      U;
}
// * * * * * * * * * * * * * * * * * * * * * * * * * * * * * * * * * * * * * //

dimensions      [0 1 -1 0 0 0 0];

internalField   nonuniform List<vector> 
2222
(
(3 -5.180341058e-15 0)
(3 -4.274469924e-15 0)
(3 -5.646014486e-15 0)
(3 -4.216396682e-15 0)
(3 -1.891324254e-15 0)
(3 -2.447616808e-15 0)
(3 -4.086982075e-16 0)
(3 -9.405418933e-16 0)
(3 -3.301318445e-16 0)
(3 1.471650645e-15 0)
(3 3.096073032e-15 0)
(3 4.351995605e-15 0)
(3 5.838130652e-15 0)
(3 7.764054582e-15 0)
(3 8.064110381e-15 0)
(3 7.439739796e-15 0)
(3 6.509473308e-15 0)
(3 4.313689563e-15 0)
(3 7.897259283e-17 0)
(3 -4.822064185e-15 0)
(3 -6.926693776e-15 0)
(3 -6.764711801e-15 0)
(3 -6.89692391e-15 0)
(3 -6.2234945e-15 0)
(3 -5.855203621e-15 0)
(3 -4.599108155e-15 0)
(3 -2.019834055e-15 0)
(3 -1.57249901e-15 0)
(3 -1.182607241e-16 0)
(3 1.264193504e-15 0)
(3 7.706333083e-15 0)
(3 1.242718765e-14 0)
(3 1.337428935e-14 0)
(3 1.248663919e-14 0)
(3 1.202729174e-14 0)
(3 1.199244975e-14 0)
(3 1.300056725e-14 0)
(3 1.480914883e-14 0)
(3 1.451321014e-14 0)
(3 1.390161226e-14 0)
(3 1.314198632e-14 0)
(3 1.184826097e-14 0)
(3 8.976102203e-15 0)
(3 1.029238267e-14 0)
(3 1.110786503e-14 0)
(3 1.175815208e-14 0)
(3 1.241396465e-14 0)
(3 1.226589997e-14 0)
(3 1.218087136e-14 0)
(3 1.26829546e-14 0)
(3 1.319754399e-14 0)
(3 1.34064727e-14 0)
(3 9.388194351e-15 0)
(3 8.422055636e-15 0)
(3 6.183752977e-15 0)
(3 -9.357205478e-15 0)
(3 -7.484154175e-15 0)
(3 -6.515860955e-15 0)
(3 -6.313697831e-15 0)
(3 -8.989690557e-15 0)
(3 -9.543525518e-15 0)
(3 -7.912979698e-15 0)
(3 -6.029859674e-15 0)
(3 -4.461544418e-15 0)
(3 -2.091966421e-15 0)
(3 -5.287429396e-16 0)
(3 1.419175135e-15 0)
(3 3.285847914e-15 0)
(3 3.606285612e-15 0)
(3 4.044021589e-15 0)
(3 4.546879467e-15 0)
(3 4.78504005e-15 0)
(3 4.469976055e-15 0)
(3 2.412240771e-15 0)
(3 -3.103350387e-16 0)
(3 -2.22474326e-15 0)
(3 -3.291183161e-15 0)
(3 -3.113131188e-15 0)
(3 -2.259366889e-15 0)
(3 -2.467354228e-15 0)
(3 -1.571954419e-15 0)
(3 -1.247413978e-15 0)
(3 -1.328397917e-15 0)
(3 3.955447559e-16 0)
(3 2.664309111e-15 0)
(3 5.122218648e-15 0)
(3 8.808116608e-15 0)
(3 1.141035154e-14 0)
(3 1.278702686e-14 0)
(3 1.359411931e-14 0)
(3 1.344518766e-14 0)
(3 1.288690629e-14 0)
(3 1.290725978e-14 0)
(3 1.21926381e-14 0)
(3 1.141610537e-14 0)
(3 9.855016198e-15 0)
(3 8.468757733e-15 0)
(3 8.99017873e-15 0)
(3 8.987275008e-15 0)
(3 8.64296573e-15 0)
(3 7.713254649e-15 0)
(3 6.496751191e-15 0)
(3 5.708799343e-15 0)
(3 6.426805446e-15 0)
(3 5.364047899e-15 0)
(3 4.224823941e-15 0)
(3 3.647428986e-15 0)
(3 3.168236685e-15 0)
(3 2.954556092e-15 0)
(3 2.14681627e-15 0)
(3 1.360508281e-15 0)
(3 8.920537883e-16 0)
(3 -4.254011546e-16 0)
(3 -2.176760975e-15 0)
(3 -3.31488442e-15 0)
(3 -3.359290869e-15 0)
(3 -2.87354635e-15 0)
(3 -2.029459997e-15 0)
(3 -1.818764985e-15 0)
(3 -3.120762097e-15 0)
(3 -4.282768829e-15 0)
(3 -3.808806501e-15 0)
(3 -9.786918439e-15 0)
(3 -9.495232273e-15 0)
(3 -9.620237464e-15 0)
(3 -1.015281207e-14 0)
(3 -1.352060922e-14 0)
(3 -1.509041237e-14 0)
(3 -1.479422126e-14 0)
(3 -1.162301802e-14 0)
(3 -8.318165748e-15 0)
(3 -5.45468564e-15 0)
(3 -4.185532211e-15 0)
(3 -2.293066664e-15 0)
(3 5.098219362e-18 0)
(3 2.786271325e-15 0)
(3 5.337001657e-15 0)
(3 6.374020711e-15 0)
(3 6.792632757e-15 0)
(3 6.359637237e-15 0)
(3 3.360316814e-15 0)
(3 1.625021717e-15 0)
(3 1.091312096e-16 0)
(3 -2.056409669e-15 0)
(3 -2.395220795e-15 0)
(3 -2.477096843e-15 0)
(3 -2.154205334e-15 0)
(3 -2.632466153e-15 0)
(3 -2.769904444e-15 0)
(3 -2.707457879e-15 0)
(3 -3.916948317e-16 0)
(3 6.238649541e-16 0)
(3 2.582043175e-15 0)
(3 3.236939501e-15 0)
(3 4.685270599e-15 0)
(3 5.947154628e-15 0)
(3 7.621883102e-15 0)
(3 8.667424488e-15 0)
(3 7.726078181e-15 0)
(3 7.307466978e-15 0)
(3 5.999132328e-15 0)
(3 5.897635814e-15 0)
(3 6.599344879e-15 0)
(3 7.303585273e-15 0)
(3 5.857563809e-15 0)
(3 4.979859599e-15 0)
(3 3.736952051e-15 0)
(3 3.300943663e-15 0)
(3 2.564260613e-15 0)
(3 2.303608022e-15 0)
(3 -2.277660914e-16 0)
(3 -3.863846479e-15 0)
(3 -6.423889305e-15 0)
(3 -6.801814257e-15 0)
(3 -5.531179029e-15 0)
(3 -5.426838323e-15 0)
(3 -4.3993025e-15 0)
(3 -3.502924348e-15 0)
(3 -3.421053989e-15 0)
(3 -3.179930657e-15 0)
(3 -6.242669889e-15 0)
(3 -6.349706424e-15 0)
(3 -6.422468338e-15 0)
(3 -5.786606369e-15 0)
(3 -5.889768196e-15 0)
(3 -5.786583069e-15 0)
(3 -5.34419593e-15 0)
(3 -3.489844655e-15 0)
(3 -3.073535801e-15 0)
(3 -6.809956172e-15 0)
(3 -8.696689822e-15 0)
(3 -9.960682591e-15 0)
(3 -1.068656181e-14 0)
(3 -1.018604136e-14 0)
(3 -1.007914167e-14 0)
(3 -1.049135784e-14 0)
(3 -1.0075768e-14 0)
(3 -8.399608243e-15 0)
(3 -4.903059052e-15 0)
(3 -1.551756791e-15 0)
(3 1.142114403e-15 0)
(3 2.030934815e-15 0)
(3 3.44153983e-15 0)
(3 4.569355599e-15 0)
(3 5.710091918e-15 0)
(3 5.430436865e-15 0)
(3 4.379095346e-15 0)
(3 2.70074649e-15 0)
(3 8.334934193e-16 0)
(3 2.027713949e-16 0)
(3 -9.567746097e-16 0)
(3 -8.828493109e-16 0)
(3 -6.866575449e-16 0)
(3 -4.95706214e-16 0)
(3 -5.902794626e-16 0)
(3 -4.583870761e-16 0)
(3 5.868261451e-16 0)
(3 1.272472445e-17 0)
(3 3.169732212e-16 0)
(3 -9.964718881e-16 0)
(3 -1.700419137e-15 0)
(3 -1.847079299e-15 0)
(3 -2.803263635e-15 0)
(3 4.241494218e-16 0)
(3 2.244195232e-15 0)
(3 3.518694468e-15 0)
(3 3.458054746e-15 0)
(3 4.048212005e-15 0)
(3 4.573393309e-15 0)
(3 4.671826724e-15 0)
(3 3.058748664e-15 0)
(3 1.945044434e-15 0)
(3 2.780621554e-16 0)
(3 -4.654596658e-16 0)
(3 -2.22644094e-16 0)
(3 -5.292776417e-16 0)
(3 -2.051412535e-15 0)
(3 -7.731430341e-15 0)
(3 -1.175206216e-14 0)
(3 -1.33260923e-14 0)
(3 -1.268489472e-14 0)
(3 -1.227337662e-14 0)
(3 -1.224643052e-14 0)
(3 -1.047248796e-14 0)
(3 -8.185028786e-15 0)
(3 -6.512790751e-15 0)
(3 -5.887188637e-15 0)
(3 -5.970952084e-15 0)
(3 -5.674284308e-15 0)
(3 -6.141841339e-15 0)
(3 -6.101188502e-15 0)
(3 -5.657786419e-15 0)
(3 -5.70990961e-15 0)
(3 -6.248036275e-15 0)
(3 -5.617986628e-15 0)
(3 -3.605269229e-15 0)
(3 -6.729472777e-15 0)
(3 -8.620383675e-15 0)
(3 -9.328443001e-15 0)
(3 -9.784833637e-15 0)
(3 -8.987318177e-15 0)
(3 -8.448996198e-15 0)
(3 -8.205001556e-15 0)
(3 -6.826354487e-15 0)
(3 -5.169460009e-15 0)
(3 -3.039285932e-15 0)
(3 -2.19177671e-15 0)
(3 2.110758176e-16 0)
(3 1.392751386e-15 0)
(3 2.024822118e-15 0)
(3 1.539663784e-15 0)
(3 1.843712867e-16 0)
(3 -5.023699045e-16 0)
(3 -9.559787778e-16 0)
(3 -9.891533662e-16 0)
(3 -1.74168261e-15 0)
(3 -1.609527974e-15 0)
(3 -1.349801871e-15 0)
(3 -1.94565157e-15 0)
(3 -6.741003954e-16 0)
(3 -1.502114613e-15 0)
(3 -2.484424859e-15 0)
(3 -2.43689469e-15 0)
(3 -2.846123201e-15 0)
(3 -2.994676449e-15 0)
(3 -3.181222037e-15 0)
(3 -2.626010502e-15 0)
(3 -3.135757895e-15 0)
(3 -3.496907248e-15 0)
(3 -3.033742862e-15 0)
(3 -1.822673294e-15 0)
(3 4.213178486e-17 0)
(3 2.389100434e-15 0)
(3 2.889551497e-15 0)
(3 2.205711386e-15 0)
(3 9.765823993e-16 0)
(3 -3.751864515e-17 0)
(3 -1.918973555e-15 0)
(3 -2.862857502e-15 0)
(3 -4.498068462e-15 0)
(3 -6.586447437e-15 0)
(3 -7.043578442e-15 0)
(3 -7.234779993e-15 0)
(3 -9.023759649e-15 0)
(3 -1.09047598e-14 0)
(3 -1.136292584e-14 0)
(3 -1.228286078e-14 0)
(3 -1.267199638e-14 0)
(3 -1.435091303e-14 0)
(3 -1.516204343e-14 0)
(3 -1.355742431e-14 0)
(3 -1.031380841e-14 0)
(3 -8.175709947e-15 0)
(3 -6.838126917e-15 0)
(3 -4.801523161e-15 0)
(3 -4.573684769e-15 0)
(3 -4.156708502e-15 0)
(3 -5.095481947e-15 0)
(3 -5.825035465e-15 0)
(3 -5.704700194e-15 0)
(3 -5.029114741e-15 0)
(3 -4.585038388e-15 0)
(3 -1.59972178e-15 0)
(3 -7.823104872e-15 0)
(3 -6.885958187e-15 0)
(3 -7.157932116e-15 0)
(3 -8.464283993e-15 0)
(3 -9.269873072e-15 0)
(3 -1.111962484e-14 0)
(3 -1.218647239e-14 0)
(3 -1.267666233e-14 0)
(3 -1.173993882e-14 0)
(3 -1.071867629e-14 0)
(3 -9.337966522e-15 0)
(3 -7.40334615e-15 0)
(3 -6.87189751e-15 0)
(3 -7.914099516e-15 0)
(3 -8.377046806e-15 0)
(3 -9.92365206e-15 0)
(3 -1.063975506e-14 0)
(3 -1.010273011e-14 0)
(3 -8.981410313e-15 0)
(3 -7.977147082e-15 0)
(3 -7.137519489e-15 0)
(3 -4.831187564e-15 0)
(3 -3.46911439e-15 0)
(3 -4.758013302e-15 0)
(3 -5.724979496e-15 0)
(3 -5.588064827e-15 0)
(3 -5.224445763e-15 0)
(3 -5.902264354e-15 0)
(3 -9.537739944e-15 0)
(3 -1.112317526e-14 0)
(3 -1.120026257e-14 0)
(3 -1.000400484e-14 0)
(3 -8.365651473e-15 0)
(3 -6.64591536e-15 0)
(3 -4.571941862e-15 0)
(3 -4.283264253e-15 0)
(3 -4.951783762e-15 0)
(3 -5.203766702e-15 0)
(3 -5.925617755e-15 0)
(3 -6.471123667e-15 0)
(3 -6.732848298e-15 0)
(3 -7.859713031e-15 0)
(3 -7.748842111e-15 0)
(3 -7.315604439e-15 0)
(3 -8.384242769e-15 0)
(3 -8.878498365e-15 0)
(3 -9.402976774e-15 0)
(3 -1.076319723e-14 0)
(3 -1.020464146e-14 0)
(3 -1.08835428e-14 0)
(3 -1.141805582e-14 0)
(3 -1.251305887e-14 0)
(3 -1.429648002e-14 0)
(3 -1.491725929e-14 0)
(3 -1.494122179e-14 0)
(3 -1.271070802e-14 0)
(3 -1.042821661e-14 0)
(3 -7.95131885e-15 0)
(3 -6.161594463e-15 0)
(3 -5.48345806e-15 0)
(3 -5.03133435e-15 0)
(3 -5.88024311e-15 0)
(3 -7.368406332e-15 0)
(3 -8.117573161e-15 0)
(3 -7.173414269e-15 0)
(3 -3.81927684e-15 0)
(3 7.308436676e-16 0)
(3 -6.832007932e-15 0)
(3 -7.555406596e-15 0)
(3 -8.501046076e-15 0)
(3 -9.867013349e-15 0)
(3 -1.151741095e-14 0)
(3 -1.332923311e-14 0)
(3 -1.350444528e-14 0)
(3 -1.379247212e-14 0)
(3 -1.39244487e-14 0)
(3 -1.369374141e-14 0)
(3 -1.248411282e-14 0)
(3 -1.169826105e-14 0)
(3 -1.214339801e-14 0)
(3 -1.54852029e-14 0)
(3 -1.718011875e-14 0)
(3 -1.597545707e-14 0)
(3 -1.356330607e-14 0)
(3 -1.278320878e-14 0)
(3 -1.127205246e-14 0)
(3 -9.891257184e-15 0)
(3 -9.311916066e-15 0)
(3 -9.094675073e-15 0)
(3 -9.881924982e-15 0)
(3 -1.28623503e-14 0)
(3 -1.504446646e-14 0)
(3 -1.689973981e-14 0)
(3 -1.859728396e-14 0)
(3 -1.905268809e-14 0)
(3 -1.877417916e-14 0)
(3 -1.778439934e-14 0)
(3 -1.768828105e-14 0)
(3 -1.67599025e-14 0)
(3 -1.556627089e-14 0)
(3 -1.379761905e-14 0)
(3 -1.25258443e-14 0)
(3 -1.25472137e-14 0)
(3 -1.289239419e-14 0)
(3 -1.29671085e-14 0)
(3 -1.27459495e-14 0)
(3 -1.300673046e-14 0)
(3 -1.306748893e-14 0)
(3 -1.269871854e-14 0)
(3 -1.272207884e-14 0)
(3 -1.206869433e-14 0)
(3 -1.085997076e-14 0)
(3 -1.039235027e-14 0)
(3 -1.071471273e-14 0)
(3 -1.209366882e-14 0)
(3 -1.388485957e-14 0)
(3 -1.441038001e-14 0)
(3 -1.483299316e-14 0)
(3 -1.53256607e-14 0)
(3 -1.485392484e-14 0)
(3 -1.356355895e-14 0)
(3 -1.185550336e-14 0)
(3 -9.608604925e-15 0)
(3 -8.753727802e-15 0)
(3 -7.58513853e-15 0)
(3 -8.434229449e-15 0)
(3 -7.46567301e-15 0)
(3 -6.23884964e-15 0)
(3 -5.838679573e-15 0)
(3 -5.96309209e-15 0)
(3 -6.23853661e-15 0)
(3 -6.919401273e-15 0)
(3 -5.169424957e-15 0)
(3 -4.620221763e-16 0)
(3 -6.340896241e-15 0)
(3 -9.172834673e-15 0)
(3 -1.111906599e-14 0)
(3 -1.034402145e-14 0)
(3 -9.864011035e-15 0)
(3 -1.049499291e-14 0)
(3 -9.142181885e-15 0)
(3 -9.915423601e-15 0)
(3 -1.116200118e-14 0)
(3 -1.201320758e-14 0)
(3 -1.394208666e-14 0)
(3 -1.700534821e-14 0)
(3 -1.92239604e-14 0)
(3 -1.966724154e-14 0)
(3 -1.927028323e-14 0)
(3 -1.884709341e-14 0)
(3 -1.746682555e-14 0)
(3 -1.538315558e-14 0)
(3 -1.528863743e-14 0)
(3 -1.467900419e-14 0)
(3 -1.398715012e-14 0)
(3 -1.508977517e-14 0)
(3 -1.647675553e-14 0)
(3 -1.789012563e-14 0)
(3 -1.964190177e-14 0)
(3 -2.33633566e-14 0)
(3 -2.61067673e-14 0)
(3 -2.69066776e-14 0)
(3 -2.592453264e-14 0)
(3 -2.511058044e-14 0)
(3 -2.471989038e-14 0)
(3 -2.181559781e-14 0)
(3 -2.255360263e-14 0)
(3 -2.383299983e-14 0)
(3 -2.201988133e-14 0)
(3 -1.982446662e-14 0)
(3 -1.653140326e-14 0)
(3 -1.531199796e-14 0)
(3 -1.354882979e-14 0)
(3 -1.309534835e-14 0)
(3 -1.27626253e-14 0)
(3 -1.262327574e-14 0)
(3 -1.40458714e-14 0)
(3 -1.413010623e-14 0)
(3 -1.302549531e-14 0)
(3 -1.2106296e-14 0)
(3 -1.354223829e-14 0)
(3 -1.493404638e-14 0)
(3 -1.471259998e-14 0)
(3 -1.412717754e-14 0)
(3 -1.296573501e-14 0)
(3 -1.291625246e-14 0)
(3 -1.15617595e-14 0)
(3 -9.789623319e-15 0)
(3 -9.405747796e-15 0)
(3 -8.360594443e-15 0)
(3 -7.189504787e-15 0)
(3 -8.135434336e-15 0)
(3 -9.393399614e-15 0)
(3 -7.620357024e-15 0)
(3 -6.763852624e-15 0)
(3 -5.989601112e-15 0)
(3 -4.71737212e-15 0)
(3 -4.091748151e-15 0)
(3 -4.296105164e-15 0)
(3 -5.030513211e-15 0)
(3 -4.115266933e-15 0)
(3 -3.591771039e-15 0)
(3 -3.027586522e-15 0)
(3 -2.43497364e-15 0)
(3 -2.314277246e-15 0)
(3 1.168917956e-15 0)
(3 1.358240258e-15 0)
(3 -1.679393121e-16 0)
(3 -2.072901528e-15 0)
(3 -5.909682919e-15 0)
(3 -8.332992669e-15 0)
(3 -1.030109459e-14 0)
(3 -1.40432028e-14 0)
(3 -1.767662188e-14 0)
(3 -1.963460902e-14 0)
(3 -2.09746178e-14 0)
(3 -1.950855049e-14 0)
(3 -1.942737069e-14 0)
(3 -1.736903216e-14 0)
(3 -1.679225481e-14 0)
(3 -1.681190981e-14 0)
(3 -1.7474438e-14 0)
(3 -1.893781322e-14 0)
(3 -2.202352163e-14 0)
(3 -2.308613042e-14 0)
(3 -2.409226958e-14 0)
(3 -2.704849189e-14 0)
(3 -3.050046853e-14 0)
(3 -3.256808602e-14 0)
(3 -3.347473313e-14 0)
(3 -3.353883002e-14 0)
(3 -3.257449499e-14 0)
(3 -2.935197054e-14 0)
(3 -2.891604586e-14 0)
(3 -2.817048514e-14 0)
(3 -2.792778894e-14 0)
(3 -2.661890919e-14 0)
(3 -2.215968795e-14 0)
(3 -1.998969519e-14 0)
(3 -1.760667307e-14 0)
(3 -1.441888512e-14 0)
(3 -1.155820856e-14 0)
(3 -1.140742822e-14 0)
(3 -1.047654185e-14 0)
(3 -9.828161136e-15 0)
(3 -1.162953572e-14 0)
(3 -1.189035361e-14 0)
(3 -1.141830957e-14 0)
(3 -9.915473561e-15 0)
(3 -1.066141569e-14 0)
(3 -1.097914264e-14 0)
(3 -1.013371904e-14 0)
(3 -8.98930534e-15 0)
(3 -9.612252264e-15 0)
(3 -1.044117337e-14 0)
(3 -9.314391899e-15 0)
(3 -9.787854271e-15 0)
(3 -9.859326629e-15 0)
(3 -9.288986152e-15 0)
(3 -8.081822179e-15 0)
(3 -4.029904087e-15 0)
(3 3.186518394e-16 0)
(3 2.094190417e-16 0)
(3 1.18177449e-15 0)
(3 2.001792952e-15 0)
(3 2.615862371e-15 0)
(3 2.537252935e-15 0)
(3 2.191429613e-15 0)
(3 -3.685140032e-15 0)
(3 -5.680414399e-16 0)
(3 2.780851934e-16 0)
(3 8.820334312e-16 0)
(3 1.338565375e-15 0)
(3 1.51471843e-15 0)
(3 -3.411835085e-17 0)
(3 -7.427576973e-16 0)
(3 -2.580711352e-15 0)
(3 -2.874130248e-15 0)
(3 -7.43768837e-15 0)
(3 -1.01943066e-14 0)
(3 -1.01199479e-14 0)
(3 -1.294688822e-14 0)
(3 -1.486034294e-14 0)
(3 -1.658905901e-14 0)
(3 -1.819789679e-14 0)
(3 -1.94040802e-14 0)
(3 -1.947491866e-14 0)
(3 -1.956265684e-14 0)
(3 -2.064473089e-14 0)
(3 -2.261462082e-14 0)
(3 -2.710795543e-14 0)
(3 -3.009960454e-14 0)
(3 -3.04616526e-14 0)
(3 -3.033631151e-14 0)
(3 -3.050479626e-14 0)
(3 -3.175221677e-14 0)
(3 -3.2656693e-14 0)
(3 -3.396095757e-14 0)
(3 -3.549708141e-14 0)
(3 -3.526281596e-14 0)
(3 -3.380663404e-14 0)
(3 -3.326328212e-14 0)
(3 -3.505420073e-14 0)
(3 -3.410119169e-14 0)
(3 -3.176702913e-14 0)
(3 -2.853922451e-14 0)
(3 -2.286648118e-14 0)
(3 -1.699874446e-14 0)
(3 -1.419819894e-14 0)
(3 -1.274625111e-14 0)
(3 -9.895674749e-15 0)
(3 -7.446457111e-15 0)
(3 -6.973534774e-15 0)
(3 -7.60076127e-15 0)
(3 -7.271239977e-15 0)
(3 -6.52243472e-15 0)
(3 -7.505528313e-15 0)
(3 -8.71202508e-15 0)
(3 -8.969413151e-15 0)
(3 -8.92733235e-15 0)
(3 -9.602116494e-15 0)
(3 -9.563126714e-15 0)
(3 -9.038398787e-15 0)
(3 -8.374652621e-15 0)
(3 -7.329165432e-15 0)
(3 -5.005335445e-15 0)
(3 4.911636922e-16 0)
(3 5.385614841e-15 0)
(3 5.782287926e-15 0)
(3 6.117295435e-15 0)
(3 5.664928008e-15 0)
(3 5.196850888e-15 0)
(3 8.039355589e-15 0)
(3 8.668936903e-15 0)
(3 3.914734672e-15 0)
(3 -1.288283497e-15 0)
(3 1.757730899e-16 0)
(3 4.970949511e-16 0)
(3 -9.552730045e-16 0)
(3 -3.566270628e-15 0)
(3 -4.866165071e-15 0)
(3 -4.78936465e-15 0)
(3 -3.867824741e-15 0)
(3 -1.069764149e-15 0)
(3 1.32119862e-15 0)
(3 -8.435666279e-16 0)
(3 -4.962595507e-15 0)
(3 -7.346383446e-15 0)
(3 -7.949773004e-15 0)
(3 -7.268118557e-15 0)
(3 -8.589947755e-15 0)
(3 -1.305957575e-14 0)
(3 -1.488048766e-14 0)
(3 -1.567000222e-14 0)
(3 -1.571397337e-14 0)
(3 -1.564414358e-14 0)
(3 -1.728080091e-14 0)
(3 -2.14315828e-14 0)
(3 -2.273421965e-14 0)
(3 -2.402675315e-14 0)
(3 -2.526381499e-14 0)
(3 -2.601465966e-14 0)
(3 -2.646930726e-14 0)
(3 -2.748215781e-14 0)
(3 -2.94800805e-14 0)
(3 -3.106819097e-14 0)
(3 -3.239717685e-14 0)
(3 -3.298715518e-14 0)
(3 -3.102748667e-14 0)
(3 -2.868526068e-14 0)
(3 -2.621423804e-14 0)
(3 -2.375676122e-14 0)
(3 -2.06167305e-14 0)
(3 -1.926857184e-14 0)
(3 -1.817672312e-14 0)
(3 -1.529022018e-14 0)
(3 -1.300163183e-14 0)
(3 -1.243919279e-14 0)
(3 -1.06902094e-14 0)
(3 -8.639153131e-15 0)
(3 -7.029629594e-15 0)
(3 -6.247077689e-15 0)
(3 -6.397193071e-15 0)
(3 -6.070690603e-15 0)
(3 -6.17133386e-15 0)
(3 -6.211367628e-15 0)
(3 -6.857561814e-15 0)
(3 -5.6329851e-15 0)
(3 -4.489920036e-15 0)
(3 -7.031555872e-15 0)
(3 -7.200932587e-15 0)
(3 -5.581116462e-15 0)
(3 -3.456807946e-15 0)
(3 1.080294894e-16 0)
(3 1.873419463e-15 0)
(3 4.197365181e-15 0)
(3 8.859034419e-15 0)
(3 1.164854075e-14 0)
(3 1.240292351e-14 0)
(3 1.091270746e-14 0)
(3 7.874068214e-15 0)
(3 5.413103773e-15 0)
(3 -5.326339868e-15 0)
(3 -4.447642027e-15 0)
(3 -2.35410651e-15 0)
(3 -2.594742064e-15 0)
(3 -3.717909294e-15 0)
(3 -4.444286698e-15 0)
(3 -4.938888849e-15 0)
(3 -4.995004675e-15 0)
(3 -2.754586654e-15 0)
(3 -2.333881703e-15 0)
(3 -1.779418002e-15 0)
(3 -2.250905839e-15 0)
(3 -2.205297957e-15 0)
(3 -1.388930787e-15 0)
(3 -8.329984693e-17 0)
(3 2.573763252e-16 0)
(3 -1.869449472e-15 0)
(3 -4.326048739e-15 0)
(3 -8.14600733e-15 0)
(3 -1.187137609e-14 0)
(3 -1.290693982e-14 0)
(3 -1.358730063e-14 0)
(3 -1.297112032e-14 0)
(3 -1.126955079e-14 0)
(3 -1.408658072e-14 0)
(3 -1.561175914e-14 0)
(3 -1.491665828e-14 0)
(3 -1.699985805e-14 0)
(3 -2.109496768e-14 0)
(3 -2.559372553e-14 0)
(3 -2.75073762e-14 0)
(3 -2.650986258e-14 0)
(3 -2.554720535e-14 0)
(3 -2.308984509e-14 0)
(3 -1.965606247e-14 0)
(3 -1.823221446e-14 0)
(3 -1.806733071e-14 0)
(3 -1.85270788e-14 0)
(3 -1.857545328e-14 0)
(3 -1.706987478e-14 0)
(3 -1.599417378e-14 0)
(3 -1.422380977e-14 0)
(3 -1.403247746e-14 0)
(3 -1.323116754e-14 0)
(3 -1.040636639e-14 0)
(3 -8.214557912e-15 0)
(3 -6.800035513e-15 0)
(3 -5.022206092e-15 0)
(3 -4.273165497e-15 0)
(3 -3.088579024e-15 0)
(3 -1.567542544e-15 0)
(3 -8.79459642e-16 0)
(3 -6.30111043e-16 0)
(3 -1.28358063e-15 0)
(3 -3.78237942e-15 0)
(3 -4.320427347e-15 0)
(3 -2.033854082e-15 0)
(3 -6.098522299e-16 0)
(3 -3.340667626e-16 0)
(3 5.940268841e-16 0)
(3 1.338367101e-15 0)
(3 4.236920658e-15 0)
(3 8.913039673e-15 0)
(3 9.171184902e-15 0)
(3 8.48700157e-15 0)
(3 7.40677599e-15 0)
(3 7.28636412e-15 0)
(3 -7.678232997e-15 0)
(3 -7.097763234e-15 0)
(3 -6.83657317e-15 0)
(3 -6.015471957e-15 0)
(3 -5.536188172e-15 0)
(3 -5.091004048e-15 0)
(3 -3.940394054e-15 0)
(3 -3.183347291e-15 0)
(3 -2.856766803e-15 0)
(3 -2.498202478e-15 0)
(3 -2.1662943e-15 0)
(3 -1.864037378e-15 0)
(3 -7.68400261e-16 0)
(3 -5.62542362e-16 0)
(3 -1.153453303e-15 0)
(3 -1.298688327e-15 0)
(3 -1.111490124e-15 0)
(3 -1.446054894e-15 0)
(3 -3.171966241e-15 0)
(3 -5.386061241e-15 0)
(3 -7.96775923e-15 0)
(3 -7.900879343e-15 0)
(3 -6.835173169e-15 0)
(3 -7.527581771e-15 0)
(3 -9.440484814e-15 0)
(3 -1.016070149e-14 0)
(3 -1.033322975e-14 0)
(3 -9.733408866e-15 0)
(3 -1.209993647e-14 0)
(3 -1.829494897e-14 0)
(3 -2.28038406e-14 0)
(3 -2.245824771e-14 0)
(3 -2.116136992e-14 0)
(3 -1.865036665e-14 0)
(3 -1.72763903e-14 0)
(3 -1.649028315e-14 0)
(3 -1.652833538e-14 0)
(3 -1.774320681e-14 0)
(3 -1.978094565e-14 0)
(3 -2.158333578e-14 0)
(3 -2.171990872e-14 0)
(3 -1.947657068e-14 0)
(3 -1.537103823e-14 0)
(3 -1.254462895e-14 0)
(3 -1.030731869e-14 0)
(3 -9.685312944e-15 0)
(3 -9.388194476e-15 0)
(3 -8.069073582e-15 0)
(3 -6.922276841e-15 0)
(3 -6.844005969e-15 0)
(3 -5.820333681e-15 0)
(3 -4.284050169e-15 0)
(3 -2.487874574e-15 0)
(3 -2.042015421e-15 0)
(3 -1.214764885e-15 0)
(3 -1.264777225e-15 0)
(3 -1.133167132e-15 0)
(3 -1.204126385e-15 0)
(3 -6.554720977e-16 0)
(3 9.777938665e-16 0)
(3 1.451797999e-15 0)
(3 2.326783238e-15 0)
(3 3.681356245e-15 0)
(3 7.123670609e-15 0)
(3 8.844011404e-15 0)
(3 7.456334332e-15 0)
(3 6.42869582e-15 0)
(3 -6.940764138e-15 0)
(3 -8.218756053e-15 0)
(3 -8.927039639e-15 0)
(3 -7.833742444e-15 0)
(3 -5.584119026e-15 0)
(3 -5.218174534e-15 0)
(3 -4.085886374e-15 0)
(3 -2.78234265e-15 0)
(3 -2.48574443e-15 0)
(3 -1.37359927e-15 0)
(3 -1.072060797e-15 0)
(3 7.699252184e-16 0)
(3 1.342087481e-15 0)
(3 1.022141131e-15 0)
(3 5.380207266e-16 0)
(3 3.800469799e-16 0)
(3 -3.884073304e-16 0)
(3 -1.974203731e-15 0)
(3 -3.354894189e-15 0)
(3 -4.325421664e-15 0)
(3 -5.721458573e-15 0)
(3 -5.600867614e-15 0)
(3 -5.325244354e-15 0)
(3 -5.366869351e-15 0)
(3 -7.659114905e-15 0)
(3 -8.148363388e-15 0)
(3 -7.724369546e-15 0)
(3 -6.954910596e-15 0)
(3 -7.833130178e-15 0)
(3 -9.429429779e-15 0)
(3 -1.068368319e-14 0)
(3 -1.211988157e-14 0)
(3 -1.542071498e-14 0)
(3 -1.791959301e-14 0)
(3 -1.775796106e-14 0)
(3 -1.761131963e-14 0)
(3 -1.735851072e-14 0)
(3 -1.894970543e-14 0)
(3 -2.295153305e-14 0)
(3 -2.389155438e-14 0)
(3 -2.253202296e-14 0)
(3 -2.139776227e-14 0)
(3 -2.16837246e-14 0)
(3 -2.104027549e-14 0)
(3 -1.921076044e-14 0)
(3 -1.875684128e-14 0)
(3 -1.768990748e-14 0)
(3 -1.766489722e-14 0)
(3 -1.633107528e-14 0)
(3 -1.304761654e-14 0)
(3 -1.16205244e-14 0)
(3 -1.03412272e-14 0)
(3 -9.798060966e-15 0)
(3 -6.298879864e-15 0)
(3 -1.717077774e-15 0)
(3 -1.578329294e-15 0)
(3 -2.363390955e-15 0)
(3 -2.191397454e-15 0)
(3 -3.156312993e-15 0)
(3 -4.069975605e-15 0)
(3 -3.352866004e-15 0)
(3 -2.491410223e-15 0)
(3 -6.688331981e-16 0)
(3 1.462356434e-17 0)
(3 -2.129852955e-16 0)
(3 3.065267566e-16 0)
(3 1.935767648e-15 0)
(3 -5.75757157e-15 0)
(3 -4.835379697e-15 0)
(3 -4.666042561e-15 0)
(3 -3.27412194e-15 0)
(3 -2.131341916e-15 0)
(3 -1.287991591e-15 0)
(3 -1.290506508e-15 0)
(3 -1.568506165e-15 0)
(3 -1.546023368e-15 0)
(3 -3.916456527e-16 0)
(3 2.330405959e-15 0)
(3 3.102464772e-15 0)
(3 3.673515591e-15 0)
(3 5.194528602e-15 0)
(3 7.897571756e-15 0)
(3 9.358203353e-15 0)
(3 7.358274431e-15 0)
(3 3.739833867e-15 0)
(3 3.362425749e-16 0)
(3 -1.55056971e-15 0)
(3 -1.693181045e-15 0)
(3 -2.847739287e-16 0)
(3 4.999155338e-16 0)
(3 5.104634131e-16 0)
(3 -4.93671361e-16 0)
(3 -1.038853581e-15 0)
(3 -9.829920922e-16 0)
(3 -4.57771669e-16 0)
(3 -1.187248245e-15 0)
(3 -6.886360855e-16 0)
(3 5.340013525e-16 0)
(3 -1.680302828e-15 0)
(3 -7.229758627e-15 0)
(3 -1.110448295e-14 0)
(3 -1.228021282e-14 0)
(3 -1.350045364e-14 0)
(3 -1.403120634e-14 0)
(3 -1.571651289e-14 0)
(3 -1.760325022e-14 0)
(3 -1.829938673e-14 0)
(3 -1.945898124e-14 0)
(3 -2.105323647e-14 0)
(3 -2.34334563e-14 0)
(3 -2.471424989e-14 0)
(3 -2.600451894e-14 0)
(3 -2.621461479e-14 0)
(3 -2.55405768e-14 0)
(3 -2.438007514e-14 0)
(3 -2.304397307e-14 0)
(3 -2.190061903e-14 0)
(3 -1.90809616e-14 0)
(3 -1.649074011e-14 0)
(3 -1.308706741e-14 0)
(3 -1.127691745e-14 0)
(3 -1.008146989e-14 0)
(3 -5.946374076e-15 0)
(3 -4.525699429e-15 0)
(3 -3.913029292e-15 0)
(3 -3.835910269e-15 0)
(3 -4.165042354e-15 0)
(3 -4.048809839e-15 0)
(3 -3.228480553e-15 0)
(3 -3.352333875e-15 0)
(3 -2.757874957e-15 0)
(3 -1.592994516e-15 0)
(3 1.15868023e-15 0)
(3 3.785606526e-15 0)
(3 -3.195803105e-15 0)
(3 -3.165504257e-15 0)
(3 -3.083431464e-15 0)
(3 -2.233727091e-15 0)
(3 -1.350969031e-15 0)
(3 -4.660084781e-17 0)
(3 3.570841811e-16 0)
(3 1.016524246e-15 0)
(3 1.88652802e-15 0)
(3 3.122649371e-15 0)
(3 5.018180251e-15 0)
(3 6.349612742e-15 0)
(3 6.360907358e-15 0)
(3 7.719133365e-15 0)
(3 8.056882455e-15 0)
(3 8.383889819e-15 0)
(3 9.065895739e-15 0)
(3 8.708727305e-15 0)
(3 9.302637378e-15 0)
(3 7.583405452e-15 0)
(3 6.094870658e-15 0)
(3 5.188931687e-15 0)
(3 4.974944138e-15 0)
(3 3.196711513e-15 0)
(3 2.945183013e-15 0)
(3 2.129644216e-15 0)
(3 1.492622643e-15 0)
(3 4.278083439e-15 0)
(3 6.381811525e-15 0)
(3 8.558847931e-15 0)
(3 5.698542886e-15 0)
(3 5.716666778e-16 0)
(3 -2.638738403e-15 0)
(3 -6.54864738e-15 0)
(3 -9.688019294e-15 0)
(3 -9.526553943e-15 0)
(3 -9.748298497e-15 0)
(3 -9.771734645e-15 0)
(3 -1.243094097e-14 0)
(3 -1.520639589e-14 0)
(3 -1.688057413e-14 0)
(3 -1.971557891e-14 0)
(3 -2.250854187e-14 0)
(3 -2.601386879e-14 0)
(3 -2.859095987e-14 0)
(3 -2.932996656e-14 0)
(3 -3.027018451e-14 0)
(3 -2.949921721e-14 0)
(3 -2.81759634e-14 0)
(3 -2.451303298e-14 0)
(3 -2.336626973e-14 0)
(3 -2.288367924e-14 0)
(3 -1.775289341e-14 0)
(3 -1.514458203e-14 0)
(3 -1.30467296e-14 0)
(3 -7.62994039e-15 0)
(3 -5.931039519e-15 0)
(3 -6.045408047e-15 0)
(3 -6.386575941e-15 0)
(3 -6.38387126e-15 0)
(3 -7.116113529e-15 0)
(3 -6.705713361e-15 0)
(3 -6.009950803e-15 0)
(3 -2.916701508e-15 0)
(3 8.5701378e-16 0)
(3 2.010507181e-15 0)
(3 4.092615762e-15 0)
(3 -1.355441792e-17 0)
(3 -2.668778446e-15 0)
(3 -3.443842165e-15 0)
(3 -3.036097685e-15 0)
(3 -1.935714455e-15 0)
(3 -1.01632624e-15 0)
(3 -7.686822367e-16 0)
(3 4.317293187e-16 0)
(3 1.129326639e-15 0)
(3 9.938915048e-16 0)
(3 1.352206472e-15 0)
(3 2.639008624e-15 0)
(3 4.376612177e-15 0)
(3 4.498083543e-15 0)
(3 3.563342117e-15 0)
(3 3.760931729e-15 0)
(3 4.608525177e-15 0)
(3 7.06787888e-15 0)
(3 1.000502971e-14 0)
(3 1.032271581e-14 0)
(3 1.016552202e-14 0)
(3 8.653121405e-15 0)
(3 7.593301001e-15 0)
(3 8.400916767e-15 0)
(3 7.093826147e-15 0)
(3 8.006148904e-15 0)
(3 1.120920514e-14 0)
(3 1.221322379e-14 0)
(3 1.275645936e-14 0)
(3 1.144073082e-14 0)
(3 9.019391804e-15 0)
(3 9.085687043e-15 0)
(3 1.113953421e-14 0)
(3 5.274087576e-15 0)
(3 1.405500216e-15 0)
(3 -2.996588447e-15 0)
(3 -6.241575878e-15 0)
(3 -7.61851558e-15 0)
(3 -8.204707988e-15 0)
(3 -1.049374074e-14 0)
(3 -1.256959626e-14 0)
(3 -1.732326979e-14 0)
(3 -2.143797485e-14 0)
(3 -2.427925584e-14 0)
(3 -2.555762051e-14 0)
(3 -2.620700921e-14 0)
(3 -2.515973074e-14 0)
(3 -2.457122876e-14 0)
(3 -2.345694342e-14 0)
(3 -2.202796085e-14 0)
(3 -2.276581843e-14 0)
(3 -2.201806686e-14 0)
(3 -2.051070796e-14 0)
(3 -1.910653972e-14 0)
(3 -1.685369011e-14 0)
(3 -1.65406507e-14 0)
(3 -1.29229255e-14 0)
(3 -1.2637456e-14 0)
(3 -1.158322643e-14 0)
(3 -1.087928454e-14 0)
(3 -1.064760682e-14 0)
(3 -1.001701141e-14 0)
(3 -8.890970579e-15 0)
(3 -6.394865865e-15 0)
(3 -4.457894508e-15 0)
(3 -1.588395405e-15 0)
(3 -1.747079198e-16 0)
(3 -5.138128979e-15 0)
(3 -3.941287865e-15 0)
(3 -2.293547264e-15 0)
(3 -1.322216657e-15 0)
(3 -3.413673472e-16 0)
(3 3.137557357e-16 0)
(3 -1.971985781e-17 0)
(3 -1.472725511e-16 0)
(3 -2.561840931e-15 0)
(3 -1.977277918e-15 0)
(3 -2.345160757e-15 0)
(3 -2.597936251e-15 0)
(3 -2.299953249e-15 0)
(3 -1.348775708e-15 0)
(3 -1.049939674e-15 0)
(3 7.621376347e-16 0)
(3 6.372744564e-16 0)
(3 1.791350309e-15 0)
(3 3.1911845e-15 0)
(3 4.73271325e-15 0)
(3 7.397379114e-15 0)
(3 1.248570686e-14 0)
(3 1.469475695e-14 0)
(3 1.670730747e-14 0)
(3 1.700745013e-14 0)
(3 1.629908186e-14 0)
(3 1.615233754e-14 0)
(3 1.602524268e-14 0)
(3 1.690073572e-14 0)
(3 1.55806283e-14 0)
(3 1.353660411e-14 0)
(3 1.445697143e-14 0)
(3 1.405997721e-14 0)
(3 9.842692757e-15 0)
(3 7.472760653e-15 0)
(3 3.962083368e-15 0)
(3 3.79725938e-15 0)
(3 2.14240827e-15 0)
(3 4.375931263e-16 0)
(3 -3.613415332e-15 0)
(3 -1.320194042e-14 0)
(3 -1.584827833e-14 0)
(3 -1.485003121e-14 0)
(3 -1.409066822e-14 0)
(3 -1.664251981e-14 0)
(3 -1.769847758e-14 0)
(3 -1.741885817e-14 0)
(3 -1.730964282e-14 0)
(3 -1.785088726e-14 0)
(3 -1.811516359e-14 0)
(3 -1.874788375e-14 0)
(3 -1.962827816e-14 0)
(3 -2.009225445e-14 0)
(3 -2.04402479e-14 0)
(3 -2.310963531e-14 0)
(3 -2.346993695e-14 0)
(3 -2.142373951e-14 0)
(3 -1.831110488e-14 0)
(3 -1.45427618e-14 0)
(3 -1.261832554e-14 0)
(3 -1.328643067e-14 0)
(3 -1.307537748e-14 0)
(3 -1.189767644e-14 0)
(3 -9.438589609e-15 0)
(3 -7.318184543e-15 0)
(3 -5.46664104e-15 0)
(3 -2.872346553e-15 0)
(3 -9.115032494e-15 0)
(3 -6.967790537e-15 0)
(3 -6.78216378e-15 0)
(3 -5.783411475e-15 0)
(3 -5.273735635e-15 0)
(3 -4.794654042e-15 0)
(3 -5.587044973e-15 0)
(3 -6.035592282e-15 0)
(3 -4.726262233e-15 0)
(3 -4.964468293e-15 0)
(3 -6.758993848e-15 0)
(3 -8.23041169e-15 0)
(3 -9.341417108e-15 0)
(3 -8.568639105e-15 0)
(3 -6.854412792e-15 0)
(3 -5.107456258e-15 0)
(3 -4.356752282e-15 0)
(3 -3.995649525e-15 0)
(3 -2.757607537e-15 0)
(3 -1.535354224e-15 0)
(3 1.018948501e-15 0)
(3 5.294994672e-15 0)
(3 1.001271322e-14 0)
(3 1.430380968e-14 0)
(3 1.808306112e-14 0)
(3 1.9248622e-14 0)
(3 1.953906296e-14 0)
(3 1.812924134e-14 0)
(3 1.668924243e-14 0)
(3 1.699672705e-14 0)
(3 1.762931849e-14 0)
(3 1.911288526e-14 0)
(3 1.997243952e-14 0)
(3 2.035883578e-14 0)
(3 2.034664286e-14 0)
(3 1.948986629e-14 0)
(3 1.849712708e-14 0)
(3 1.521544501e-14 0)
(3 9.618510404e-15 0)
(3 4.180931066e-15 0)
(3 1.578809739e-15 0)
(3 -1.23013162e-15 0)
(3 -3.830397097e-15 0)
(3 -4.456751202e-15 0)
(3 -5.990612688e-15 0)
(3 -1.14858719e-14 0)
(3 -1.468977669e-14 0)
(3 -1.494911824e-14 0)
(3 -1.385785763e-14 0)
(3 -1.425446705e-14 0)
(3 -1.632871662e-14 0)
(3 -2.081089083e-14 0)
(3 -2.18721067e-14 0)
(3 -2.240821183e-14 0)
(3 -2.421869218e-14 0)
(3 -2.470817892e-14 0)
(3 -2.508005544e-14 0)
(3 -2.453422766e-14 0)
(3 -2.203271317e-14 0)
(3 -2.159294979e-14 0)
(3 -2.094101328e-14 0)
(3 -1.722919335e-14 0)
(3 -1.535671864e-14 0)
(3 -1.223219164e-14 0)
(3 -1.01840946e-14 0)
(3 -8.84906387e-15 0)
(3 -5.763972327e-15 0)
(3 -6.495539799e-15 0)
(3 -6.2472298e-15 0)
(3 -6.43985303e-15 0)
(3 -6.810841269e-15 0)
(3 -6.981193663e-15 0)
(3 -7.986640553e-15 0)
(3 -8.452592055e-15 0)
(3 -1.030748933e-14 0)
(3 -1.070921635e-14 0)
(3 -1.216749293e-14 0)
(3 -1.218146813e-14 0)
(3 -1.189133047e-14 0)
(3 -1.103867277e-14 0)
(3 -9.685499083e-15 0)
(3 -9.235258638e-15 0)
(3 -9.469885077e-15 0)
(3 -6.146243905e-15 0)
(3 -4.489656586e-15 0)
(3 -3.118130667e-15 0)
(3 -1.814923909e-15 0)
(3 4.150174746e-16 0)
(3 1.598895774e-15 0)
(3 4.377087071e-15 0)
(3 7.900186202e-15 0)
(3 1.147365446e-14 0)
(3 1.349524742e-14 0)
(3 1.510468487e-14 0)
(3 1.649326402e-14 0)
(3 1.741737244e-14 0)
(3 1.747634672e-14 0)
(3 1.711455064e-14 0)
(3 1.736716244e-14 0)
(3 1.721109646e-14 0)
(3 1.824256024e-14 0)