/*--------------------------------*- C++ -*----------------------------------*\
  =========                 |
  \\      /  F ield         | OpenFOAM: The Open Source CFD Toolbox
   \\    /   O peration     | Website:  https://openfoam.org
    \\  /    A nd           | Version:  7
     \\/     M anipulation  |
\*---------------------------------------------------------------------------*/
FoamFile
{
    version     2.0;
    format      ascii;
    class       volScalarField;
    location    "4";
    object      p;
}
// * * * * * * * * * * * * * * * * * * * * * * * * * * * * * * * * * * * * * //

dimensions      [1 -1 -2 0 0 0 0];

internalField   nonuniform List<scalar> 
2222
(
1.009919388
1.010296163
1.010166742
1.009874857
1.010027632
1.011179055
1.013246674
1.014822073
1.016167253
1.019174549
1.058484672
1.484950203
2.193192707
2.270752991
2.247315395
2.283038502
2.27919628
1.008813708
1.009495121
1.010294801
1.010980283
1.011373464
1.011995979
1.012834532
1.013193339
1.01321309
1.012776151
1.011847173
1.01107923
1.010786806
1.010928137
1.011235625
1.01107105
1.009701837
1.007202043
1.005114111
1.004855602
1.005844972
1.007547759
1.009475785
1.010924998
1.011781194
1.012237452
1.012666434
1.013530846
1.014215489
1.014121449
1.014558205
1.017373317
1.048579432
1.404219003
2.092441902
2.216563649
2.255204355
2.300688939
2.286217529
1.007377211
1.008076923
1.009382917
1.011007307
1.011862117
1.012783354
1.013281057
1.013431025
1.013111099
1.012430815
1.011624061
1.010982326
1.010712129
1.010874049
1.010602792
1.008872679
1.005975678
1.003829408
1.003628951
1.004223
1.005683672
1.007689279
1.009822829
1.011584912
1.012811879
1.013781789
1.014805876
1.015233407
1.01477103
1.01428552
1.015935885
1.03530006
1.346683122
2.038963727
2.213792356
2.275573954
2.313416677
2.291078768
1.007906159
1.008108049
1.008337113
1.009350202
1.010416045
1.011533206
1.012163585
1.012144166
1.011780197
1.011669075
1.011246218
1.010451949
1.009765461
1.009578054
1.009309078
1.00790145
1.005890795
1.004481204
1.003736975
1.003355362
1.003868474
1.00524048
1.007158032
1.009331029
1.011412123
1.013339701
1.014915324
1.015699911
1.015456425
1.014650495
1.015502609
1.031294065
1.305893042
2.012074823
2.222609208
2.295146035
2.318678933
2.290408945
1.011274939
1.011585751
1.010879431
1.009865612
1.009560959
1.009962936
1.010384021
1.01051726
1.010616631
1.010880828
1.010650461
1.009870978
1.009095336
1.008428882
1.00775237
1.007144448
1.007297529
1.007827143
1.007756256
1.007120302
1.006166846
1.005434337
1.005420343
1.006438598
1.00821291
1.010269614
1.012346751
1.014296107
1.015495884
1.015657414
1.015981654
1.027201325
1.263884752
1.975079472
2.24072128
2.312772262
2.316694522
2.286039879
1.01013863
1.01069408
1.011045324
1.011039886
1.011075918
1.011308932
1.011621113
1.011815545
1.012013631
1.01186799
1.011035942
1.009698453
1.008150774
1.006890192
1.005645886
1.005119068
1.006086051
1.00749635
1.008691704
1.009519869
1.009700506
1.009257037
1.008604597
1.008017063
1.007877422
1.008495108
1.009815959
1.011651807
1.013299107
1.014574451
1.016176665
1.025149259
1.21516709
1.922537316
2.270885051
2.323998282
2.320496567
2.287211164
1.007631129
1.007815284
1.008413364
1.009022011
1.0096205
1.010546485
1.011435829
1.011788816
1.011891982
1.011712484
1.010941894
1.009746469
1.008574193
1.007516859
1.006212099
1.005546927
1.005890591
1.006545837
1.007073443
1.007393443
1.007795426
1.008567447
1.009358989
1.01000533
1.010770149
1.011745783
1.012679678
1.013237463
1.013271354
1.013624338
1.015215116
1.023389817
1.147021606
1.850784445
2.275613222
2.324916355
2.332681875
2.295643632
1.009683697
1.00977158
1.009728779
1.009746452
1.010024212
1.010682586
1.011268256
1.011330441
1.011171327
1.010541101
1.009320025
1.007939113
1.007008463
1.006402616
1.006070463
1.006611826
1.00757859
1.008112119
1.007876713
1.006993006
1.006106572
1.005747346
1.006006334
1.007086405
1.009026937
1.011346764
1.01380135
1.015616115
1.016373606
1.016166039
1.016348167
1.02224639
1.12565081
1.762533687
2.254813325
2.321654649
2.348335725
2.305684997
1.010610836
1.010814285
1.01075703
1.010562282
1.010376273
1.010307542
1.010471038
1.010647184
1.010655616
1.010011622
1.008750173
1.007528476
1.007128819
1.006923921
1.006868451
1.00735703
1.008110585
1.008387295
1.008102845
1.007643214
1.007328479
1.007038362
1.006955447
1.00749892
1.008955742
1.010913013
1.01315664
1.014919101
1.01625031
1.016793953
1.017047317
1.021034637
1.105642138
1.640934204
2.188984805
2.32221841
2.362458905
2.312162698
1.009743987
1.009894112
1.009826252
1.009519601
1.009218747
1.009356902
1.009774928
1.009999939
1.009867637
1.009149119
1.007917363
1.007115149
1.00721788
1.007483429
1.007661819
1.007799876
1.007943686
1.007642468
1.006879801
1.006326097
1.006359485
1.006972791
1.007931815
1.009029025
1.010753166
1.012502644
1.01407867
1.015104176
1.015882626
1.015936399
1.016326616
1.019395939
1.087219111
1.528374607
2.117769027
2.32921982
2.363559712
2.304847805
1.007911012
1.007885511
1.007626284
1.007135642
1.007194306
1.008149946
1.008672145
1.008618032
1.008377908
1.007665459
1.006949234
1.006979204
1.007577445
1.008269033
1.008950977
1.009381822
1.009431301
1.008675882
1.007155106
1.00609463
1.005899927
1.006407425
1.007440337
1.009012891
1.011309421
1.013475152
1.015071132
1.015905243
1.016208009
1.015477484
1.015175855
1.017547975
1.07119777
1.48352853
2.100414303
2.332076318
2.337545043
2.278092653
1.010026768
1.009609702
1.008632331
1.007696958
1.007325428
1.006934481
1.006530651
1.006649948
1.006287279
1.005693357
1.005363137
1.005751203
1.006486039
1.007542286
1.008758003
1.009763809
1.00971019
1.008380725
1.006833333
1.006253285
1.006389867
1.006905634
1.007911657
1.009764337
1.011934883
1.013697912
1.014825387
1.015395535
1.015608413
1.014866211
1.014052888
1.016266335
1.05735377
1.430170631
2.10004165
2.319019297
2.30297658
2.264750701
1.010842597
1.009948088
1.008744467
1.007491523
1.006142062
1.005086896
1.005592923
1.006401284
1.006483102
1.006417002
1.006109728
1.006641608
1.007402447
1.008523095
1.009644498
1.009949643
1.00909215
1.008002998
1.007635951
1.007768854
1.008036365
1.008477508
1.009338903
1.010573832
1.011807381
1.012855414
1.01365696
1.014040154
1.01404135
1.013258851
1.012391806
1.0145546
1.045406865
1.367222374
2.073699037
2.295155326
2.29214177
2.272720531
1.008289742
1.008141294
1.007417241
1.006286234
1.005464815
1.00592784
1.00675627
1.006584168
1.006824058
1.007297241
1.008144798
1.009309798
1.010073498
1.010467189
1.010560337
1.010157138
1.009398252
1.00861133
1.007822672
1.007149829
1.007026439
1.007491242
1.008404051
1.00962813
1.010994219
1.012363657
1.013462825
1.013889301
1.013972078
1.013578594
1.012669939
1.014390177
1.037423776
1.30347544
2.012006233
2.27163186
2.286369011
2.283832946
1.008452412
1.008035799
1.006776674
1.006172256
1.005495032
1.004268802
1.003402339
1.003553725
1.004836542
1.006403316
1.007461917
1.008118993
1.008531254
1.009008995
1.009282628
1.008809608
1.007487293
1.006424517
1.006206224
1.006784824
1.008044342
1.009780104
1.011926795
1.01389601
1.014472337
1.014429971
1.014578896
1.015244947
1.015306334
1.013688947
1.01462552
1.030736891
1.235600701
1.903753659
2.249972425
2.287320059
2.302796153
1.010521686
1.009617314
1.007417172
1.00520721
1.003593403
1.001824239
1.000861603
1.001431097
1.0031709
1.004618926
1.005373847
1.005944734
1.006539788
1.007233434
1.007529
1.007186689
1.006753519
1.007316374
1.009054897
1.010868291
1.012280424
1.013277208
1.013352745
1.012591892
1.012409617
1.012005154
1.012619353
1.013516497
1.013346287
1.011892158
1.012506818
1.024782524
1.171964456
1.833837541
2.250833891
2.321095999
2.327664563
1.010404495
1.008964753
1.00658501
1.004082404
1.001661146
1.000273117
0.9999956604
1.000855026
1.002799146
1.004072199
1.005019247
1.005917817
1.00657914
1.006961369
1.007036463
1.007468205
1.008945024
1.011661368
1.013267152
1.013208552
1.012537735
1.011829184
1.011147274
1.00996631
1.009122462
1.009952106
1.011097983
1.011693341
1.011476257
1.010846079
1.011535762
1.022220418
1.132632262
1.818220037
2.263537312
2.358633001
2.328649437
1.009884178
1.008234856
1.005789743
1.00280351
1.000847362
1.00019132
1.000968778
1.002008732
1.002941848
1.003868592
1.004937213
1.006212037
1.007188303
1.007396304
1.008302447
1.010426849
1.012741262
1.013356902
1.012734192
1.012028824
1.011139186
1.010035833
1.008509008
1.007865385
1.008442202
1.010269744
1.011591674
1.011951034
1.012185089
1.012628431
1.013455534
1.021288982
1.109607841
1.788927205
2.220502542
2.348700553
2.314280282
1.008318156
1.007048023
1.005061918
1.002665829
1.001756438
1.002210613
1.001691006
1.001482806
1.001825051
1.002748242
1.003961354
1.005558836
1.006958803
1.007972292
1.01075975
1.01318457
1.013549603
1.012881457
1.011856206
1.010270956
1.008893335
1.008032742
1.007650892
1.008255716
1.010513882
1.012664568
1.01319506
1.013913826
1.014985969
1.01491764
1.014769453
1.01988077
1.090401017
1.737403241
2.15918211
2.322078718
2.283665249
1.007510738
1.006834275
1.005432847
1.004213075
1.003539954
1.00255629
1.001197406
1.000466677
1.000368999
1.000983069
1.002370197
1.004158881
1.006178037
1.009175051
1.011985589
1.013402293
1.013686385
1.012520087
1.010252147
1.008882783
1.008364797
1.008174098
1.008835527
1.010741535
1.012573793
1.013381694
1.01408142
1.015278018
1.015644282
1.014669393
1.014234256
1.018339925
1.072708051
1.649942297
2.099491766
2.28500069
2.270149174
1.007602863
1.006831908
1.005269594
1.00443269
1.003657215
1.001834398
0.9997141042
0.9988965089
0.9988621096
0.9996743951
1.001233272
1.003407836
1.00610315
1.00920119
1.011629606
1.013198822
1.013616944
1.012130195
1.010426787
1.00973575
1.009718048
1.010231645
1.010953599
1.011838578
1.012615831
1.013517187
1.01462363
1.015279946
1.015377441
1.014295436
1.01365008
1.016718283
1.059004457
1.518333911
2.047003816
2.246462461
2.260455361
1.008653715
1.007715822
1.005976961
1.004134438
1.002212175
0.9999056578
0.9983867413
0.9980532342
0.9982764119
0.9994503292
1.001360371
1.003880433
1.006764453
1.009415027
1.010948357
1.012259331
1.012848371
1.012307019
1.011659065
1.011299963
1.011038234
1.01103765
1.011355582
1.011779697
1.012464335
1.013478167
1.01471045
1.015270826
1.01512736
1.01387487
1.013253099
1.015449895
1.04929453
1.406745678
2.019139628
2.218779771
2.267011171
1.008938312
1.007665819
1.005710531
1.003258506
1.000813326
0.9988890769
0.998334488
0.9983637287
0.998765978
1.000072008
1.002307563
1.004892718
1.00744151
1.009336797
1.010448831
1.011356391
1.012014223
1.012115117
1.012122434
1.012030391
1.011622463
1.011319248
1.011335548
1.011728329
1.012596305
1.01379506
1.014673863
1.014937192
1.014742072
1.013847306
1.013220789
1.014658922
1.041137511
1.352847315
2.042922765
2.236314057
2.307727793
1.007769766
1.006413716
1.00465445
1.002396367
1.000661891
0.9995809624
0.9992449094
0.9994093667
0.9999392566
1.001260039
1.003526881
1.005906569
1.007915309
1.009260874
1.01013704
1.010778384
1.011339583
1.011594916
1.01159982
1.011567202
1.01147383
1.011393136
1.011555818
1.012157463
1.013058789
1.014015737
1.014522188
1.014653666
1.014477336
1.013815155
1.013180695
1.014106826
1.033465521
1.320974146
2.04209727
2.271809517
2.335760135
1.005991384
1.005239188
1.004258946
1.002692844
1.001312753
1.000608706
1.000169945
1.000213836
1.000801459
1.002141298
1.004243999
1.006274947
1.007679154
1.008613143
1.009201938
1.009853237
1.010543364
1.010980239
1.011169164
1.011359405
1.011653876
1.011929548
1.012269127
1.012849765
1.01357475
1.0140914
1.014247553
1.014151838
1.013968589
1.013383934
1.01298155
1.013654752
1.027822889
1.278386564
2.013976899
2.230190362
2.329738976
1.005115082
1.005141689
1.004773018
1.003820633
1.002387535
1.001143676
1.000270512
1.000231379
1.001191517
1.002869707
1.004899214
1.006359308
1.007094321
1.007706376
1.008229623
1.00875473
1.009569978
1.010547143
1.011448407
1.012084076
1.012425547
1.012557545
1.012784996
1.01317776
1.013507532
1.013429385
1.013042282
1.012934127
1.013149409
1.012999984
1.012877734
1.013503578
1.024657977
1.214291629
1.945653947
2.172067027
2.307349777
1.005624038
1.005784344
1.005040515
1.003217667
1.00112146
0.9999423435
1.000009823
1.001477009
1.003761938
1.005814183
1.006959857
1.007293351
1.007462802
1.007716223
1.008168911
1.009281249
1.010879709
1.012365311
1.013190864
1.013385001
1.013155932
1.012852836
1.012543348
1.012011562
1.011482733
1.011338901
1.011764579
1.012546655
1.01296784
1.013164
1.013682554
1.022801389
1.156374891
1.832238299
2.142266743
2.275976941
1.006302302
1.006560568
1.005686114
1.003422926
1.000695766
0.9996596936
0.9999017988
1.00183926
1.004694569
1.006840434
1.008005676
1.008223077
1.007933033
1.007893613
1.008593621
1.01031153
1.012383974
1.013737901
1.014194532
1.01408342
1.013351724
1.012074307
1.010615913
1.009731365
1.009664194
1.010419703
1.011391507
1.012478403
1.013422185
1.013739844
1.014051031
1.021227809
1.128994949
1.732209018
2.115108243
2.254197602
1.006430337
1.006737642
1.00581164
1.003262783
1.000780426
1.000307659
1.001131623
1.003664748
1.006815282
1.008826124
1.009882524
1.009877344
1.00926236
1.009129261
1.010214737
1.012141337
1.013855226
1.014776038
1.014758298
1.013863335
1.011943233
1.009667737
1.008281339
1.00825228
1.009470276
1.010897715
1.012084451
1.013263838
1.014326353
1.014424686
1.01446187
1.019487002
1.11289158
1.66673125
2.137485379
2.275538283
1.005725943
1.006115893
1.005359661
1.003520212
1.002236895
1.002236626
1.003238966
1.005551015
1.008328466
1.010163661
1.011127198
1.011074845
1.010683189
1.011163209
1.012450911
1.013885538
1.014974501
1.015056714
1.014003841
1.011620313
1.00883865
1.007381002
1.007568662
1.009043388
1.010834994
1.01224597
1.013196892
1.014247759
1.01513491
1.014950336
1.014556464
1.017640897
1.095247594
1.619538402
2.151915503
2.330554627
1.005290501
1.005791511
1.005455382
1.004683994
1.004109815
1.004063831
1.004813741
1.006525408
1.008576022
1.010046024
1.010913065
1.011369215
1.012058648
1.013166213
1.014250682
1.014894962
1.014715475
1.013136844
1.010354014
1.007805037
1.007148721
1.007984811
1.009527126
1.011251904
1.012586777
1.013511036
1.014109675
1.014746891
1.015053366
1.014381975
1.013808936
1.016124943
1.074790309
1.56076238
2.142066475
2.313599044
1.004941466
1.005845703
1.006067871
1.005792919
1.005218663
1.004813293
1.005337393
1.006524574
1.007915293
1.009050642
1.010172269
1.011540848
1.012889273
1.014258293
1.01480397
1.014225221
1.011842222
1.008794743
1.007387645
1.007719321
1.008748894
1.010245989
1.011808985
1.012994676
1.01363933
1.013998775
1.014159389
1.014060734
1.013507194
1.012571568
1.012964316
1.015757975
1.060617529
1.486614524
2.118939022
2.278860438
1.003838338
1.005426171
1.006108425
1.005937027
1.005234546
1.004170454
1.004525919
1.005631966
1.007384554
1.009286984
1.010987372
1.012493152
1.013833081
1.014318553
1.013689954
1.011052199
1.008015772
1.00757467
1.008412922
1.00948998
1.010856863
1.012253341
1.013288843
1.013757569
1.013681035
1.013271474
1.012631666
1.011654707
1.01065511
1.010974235
1.012831272
1.016356317
1.052924121
1.418078599
2.056059471
2.223120836
1.002227327
1.004411568
1.005250348
1.005034456
1.004104134
1.003351879
1.004147496
1.005834401
1.008047969
1.010120864
1.012063274
1.013826074
1.014392546
1.013566133
1.010883306
1.008219333
1.008018765
1.008636756
1.009846951
1.011508691
1.012883514
1.013798132
1.013818838
1.013434543
1.012608334
1.011359945
1.009893102
1.009052212
1.009612358
1.011283298
1.013233608
1.016767852
1.046769756
1.369381511
1.994207392
2.184994238
1.001915151
1.004022825
1.004644681
1.004320734
1.003744388
1.003569344
1.004445168
1.006263123
1.008891896
1.011448137
1.013481665
1.014357561
1.014106306
1.011760951
1.009092908
1.008536843
1.008797916
1.009875682
1.011769647
1.013794334
1.014687549
1.014184917
1.01339598
1.01204512
1.010447945
1.008937428
1.00847716
1.009198832
1.010564438
1.012294309
1.0138999
1.016446605
1.040086701
1.331560088
1.965157516
2.187644995
1.002030652
1.004016554
1.00467555
1.004378281
1.00404862
1.004325849
1.005433255
1.007254051
1.009921354
1.012475063
1.013863961
1.014277275
1.012756207
1.01021705
1.009343562
1.009226536
1.010002751
1.011879114
1.014201937
1.015527713
1.015018093
1.013765234
1.011893776
1.009560335
1.008102041
1.008232735
1.009043427
1.010017663
1.011719502
1.013411859
1.014604368
1.016355398
1.033854628
1.293306427
1.941789159
2.232033847
1.002829563
1.004291854
1.005019032
1.004910661
1.005011874
1.005313394
1.006246404
1.007718566
1.010141649
1.012506333
1.0134807
1.012953601
1.011473343
1.010506474
1.010051436
1.010530606
1.012220136
1.014309894
1.015353907
1.015278399
1.014367637
1.011992534
1.008862562
1.007174058
1.007445869
1.008494508
1.00970665
1.011117851
1.013062161
1.014635942
1.015360256
1.016628835
1.029540419
1.245536511
1.908421015
2.26828762
1.003856592
1.004766968
1.005405105
1.005350197
1.005186583
1.005299856
1.006282258
1.007531472
1.00973976
1.011995472
1.012347763
1.012087721
1.01155359
1.011322775
1.011584631
1.012607985
1.013989442
1.014610355
1.014888044
1.014287393
1.012095445
1.008604627
1.00667629
1.006891302
1.007635914
1.008831195
1.0105127
1.012242178
1.014363064
1.015834842
1.016259382
1.017129438
1.026822926
1.194862564
1.850012337
2.266548031
1.004408459
1.004923775
1.0053979
1.005340688
1.00492022
1.004659896
1.005661399
1.007365338
1.009645741
1.011629387
1.012152908
1.012317425
1.012651614
1.013104957
1.013476522
1.013669884
1.013767185
1.013766363
1.012783527
1.010905444
1.00821679
1.00649302
1.006537036
1.007144594
1.008089817
1.009554612
1.011483587
1.013430884
1.015512969
1.016378693
1.016332818
1.01693834
1.024350699
1.15435541
1.758140631
2.24484309
1.004732088
1.004983686
1.005105126
1.004847707
1.004647613
1.004540521
1.005422724
1.007309225
1.009796929
1.011874638
1.01278191
1.013650615
1.014682795
1.014987336
1.014196221
1.013262209
1.012481928
1.010882246
1.008897203
1.007300369
1.006584828
1.006658416
1.006998768
1.007790376
1.009154663
1.010888538
1.012753763
1.014557902
1.015706424
1.016129197
1.015902122
1.015691637
1.020485633
1.125678467
1.670594608
2.175100755
1.004562338
1.004782681
1.004606014
1.00455081
1.0048328
1.006026555
1.008226206
1.010612135
1.012736263
1.014143146
1.015274835
1.015779466
1.01509799
1.013692162
1.012018352
1.009471287
1.00759491
1.006954016
1.006627831
1.006649985
1.007060391
1.007946381
1.009365563
1.011097552
1.012745756
1.014036529
1.014740367
1.015236299
1.01535072
1.013526207
1.012983671
1.016246203
1.101479405
1.61154702
2.124218114
1.004458911
1.004980889
1.004922301
1.005051351
1.005687768
1.007227208
1.009220382
1.010990915
1.013120216
1.014616207
1.015228826
1.015395505
1.014536278
1.012326026
1.009522493
1.00768204
1.007005206
1.006750731
1.006694031
1.007014568
1.008068768
1.010095773
1.012473822
1.013891192
1.014194749
1.014177857
1.014073072
1.013994264
1.012500375
1.011969855
1.012424068
1.015087338
1.079171095
1.563688711
2.120227756
1.005262533
1.005806803
1.00554765
1.005569267
1.006127625
1.007528116
1.009125787
1.010778281
1.012910067
1.014181826
1.014466698
1.014467702
1.0136497
1.011362155
1.008824402
1.007459083
1.007049781
1.007014969
1.007149698
1.008163653
1.01071574
1.013604649
1.015032224
1.014992058
1.01410467
1.013413727
1.012758036
1.010985126
1.011289294
1.011928733
1.012521673
1.015310717
1.061323505
1.510073832
2.118937313
1.006465377
1.006494149
1.005643024
1.00558001
1.006001416
1.007060131
1.008623963
1.010524756
1.012700108
1.013639642
1.013769588
1.013615555
1.012704665
1.010767299
1.008681957
1.007671992
1.007600633
1.007756439
1.008584032
1.010926577
1.01361128
1.014787556
1.014827228
1.014244724
1.013286012
1.011618676
1.009946995
1.010320692
1.011058975
1.01240495
1.013827854
1.016746092
1.050769518
1.441355581
2.113798202
1.007122041
1.006390232
1.005377531
1.005534946
1.006022061
1.006774917
1.008342608
1.010636716
1.012796851
1.013395492
1.013449117
1.013196346
1.012307341
1.010705635
1.00887902
1.008236573
1.008380613
1.009046536
1.010856356
1.013081129
1.013986189
1.014129164
1.013691518
1.01265979
1.01042597
1.00930696
1.009512094
1.010173192
1.011865201
1.014613333
1.016651178
1.01878056
1.044630365
1.362351292
2.097252889
1.006733266
1.005606307
1.005035283
1.005556932
1.006614845
1.007466761
1.008945762
1.011311684
1.013099914
1.013474776
1.013519982
1.013368003
1.012711322
1.010858347
1.00894564
1.008581524
1.008929487
1.010266203
1.012165551
1.012969177
1.012976169
1.01271624
1.011592328
1.00920876
1.008658864
1.008721727
1.009433216
1.011216487
1.014606179
1.017689271
1.018336903
1.019091636
1.039432229
1.293028364
2.052455427
1.005860526
1.004862576
1.004894274
1.005818381
1.007436736
1.008848355
1.010157452
1.01176551
1.013055774
1.013508727
1.013619156
1.013623418
1.012927667
1.010741334
1.008935767
1.008715549
1.00933445
1.010939892
1.011737839
1.011705555
1.011455852
1.010125237
1.008006787
1.007726955
1.007965011
1.008632399
1.010743376
1.014421787
1.017576062
1.018652273
1.018118716
1.018101723
1.033639321
1.242522772
1.970681258
1.005289552
1.004690228
1.005272366
1.006392003
1.008125865
1.009781974
1.010521064
1.011357314
1.012512319
1.013174928
1.013331962
1.013259016
1.012116687
1.01013913
1.008945119
1.008969973
1.009883983
1.010744064
1.010481498
1.010079963
1.008694438
1.007246091
1.007114826
1.007143294
1.008110703
1.010248716
1.014062735
1.017240379
1.01825258
1.018148802
1.016933869
1.016541232
1.027252286
1.201410403
1.903789749
1.005296463
1.005251173
1.005992608
1.006564909
1.007702347
1.009156117
1.010055994
1.010715624
1.012014256
1.012758742
1.012844647
1.012567452
1.011301791
1.009686099
1.00937525
1.009745483
1.010308012
1.009769331
1.009063823
1.007349853
1.006301835
1.006514989
1.006918214
1.007809301
1.009846554
1.013581453
1.016555779
1.017540917
1.017725403
1.017060069
1.015153922
1.014004916
1.021840454
1.161166564
1.867575071
1.006072015
1.006264886
1.006099273
1.006234066
1.007018907
1.008226771
1.009223361
1.010348847
1.011965522
1.012607589
1.012532011
1.012057601
1.011063864
1.010349984
1.010614956
1.010683254
1.009921452
1.008774247
1.006880703
1.005854542
1.005699168
1.006230225
1.007357134
1.009280095
1.012560058
1.015661592
1.016734551
1.017046787
1.016585472
1.015459173
1.013256559
1.013111757
1.018657456
1.122634174
1.837782085
1.007230366
1.006752513
1.005622639
1.005807935
1.006479707
1.007359794
1.008685682
1.010564773
1.012504675
1.012796411
1.012522064
1.011941454
1.011465408
1.011615446
1.011594624
1.010666369
1.009263666
1.007470865
1.006235433
1.005660025
1.005858526
1.006768501
1.008511367
1.011216593
1.014300909
1.01583738
1.01610077
1.015943181
1.015048573
1.013198382
1.012495284
1.012601992
1.017226002
1.093970537
1.803856286
1.007739328
1.006505948
1.0050332
1.005475775
1.006282057
1.007161468
1.008826782
1.011273425
1.012730157
1.012759995
1.012518872
1.012167235
1.012211065
1.012072959
1.011198013
1.009972633
1.008260778
1.006899501
1.006047727
1.006037666
1.006808963
1.008125149
1.010157863
1.012740385
1.014444635
1.015223138
1.015238848
1.014395458
1.013305791
1.012562448
1.012129785
1.012424035
1.016049022
1.075740367
1.759595309
1.007499171
1.006097944
1.004875777
1.005543421
1.00673782
1.007779181
1.009518569
1.011214055
1.012245638
1.012171166
1.011963562
1.011984242
1.011991014
1.011503582
1.010460485
1.008846567
1.007482942
1.006634494
1.006563919
1.007303907
1.008415848
1.009837518
1.011754189
1.013257943
1.013960795
1.014286472
1.014023287
1.013517312
1.012547356
1.012175111
1.012005538
1.012182976
1.014913063
1.061817327
1.696767117
1.007040579
1.005746491
1.005273102
1.006240244
1.007599498
1.008503629
1.009536336
1.01062339
1.01156302
1.011515826
1.011375747
1.011423438
1.011346346
1.0108101
1.009383953
1.007959342
1.007187117
1.007180314
1.008001287
1.008935464
1.009845759
1.010956038
1.012133116
1.012925489
1.013349548
1.013292379
1.012979136
1.012357403
1.011970842
1.011971534
1.01194688
1.011854819
1.013782491
1.048726484
1.621003345
1.005448302
1.005592623
1.006557547
1.007478866
1.008173754
1.008997509
1.009867656
1.010393865
1.010641984
1.01095751
1.010776865
1.010525545
1.009734523
1.008667518
1.007875247
1.007854767
1.008546576
1.008984669
1.009298751
1.009980699
1.011009143
1.011689322
1.012262142
1.012450437
1.012465804
1.012225551
1.011837354
1.011823871
1.012184084
1.012118823
1.011568553
1.01276184
1.037258055
1.560683216
1.005163587
1.005483996
1.006311301
1.007136519
1.007649161
1.008216455
1.008532605
1.009145655
1.010245313
1.01060877
1.010569922
1.0100436
1.009183728
1.008526943
1.008563708
1.009171575
1.009293364
1.008825935
1.008949046
1.009615724
1.010563115
1.011143713
1.011417074
1.011344365
1.01139562
1.011556682
1.011751715
1.012491525
1.012881973
1.012246802
1.011361838
1.012477929
1.029660381
1.523030985
1.0050401
1.005454189
1.006078079
1.006638037
1.006776358
1.007035236
1.007597461
1.008833188
1.01023172
1.010606448
1.010502422
1.009892944
1.009217295
1.009241526
1.00967253
1.009569889
1.008961341
1.008472463
1.008600907
1.00929056
1.009999382
1.01053617
1.010422827
1.010629524
1.011004845
1.011355865
1.012429242
1.013412066
1.012999014
1.011924896
1.011149988
1.012209632
1.025229509
1.493544324
1.005348094
1.005869164
1.006079714
1.006446349
1.006436906
1.006629071
1.007380736
1.009061254
1.01042601
1.010591713
1.010538072
1.010093721
1.009852197
1.009873117
1.009643978
1.009207377
1.008489258
1.008067229
1.008385745
1.009191422
1.009810284
1.009956196
1.010143351
1.010420226
1.011192513
1.012510014
1.013777744
1.013546066
1.012541728
1.011402374
1.010974173
1.011961574
1.022494949
1.460723461
1.006113002
1.006432041
1.0064196
1.006538739
1.006356516
1.00655698
1.007598373
1.009389574
1.010194534
1.010221175
1.010200361
1.009990934
1.009914631
1.00983332
1.009393631
1.008679209
1.007993907
1.007825077
1.008427141
1.009394046
1.009720581
1.009844798
1.010114328
1.010834446
1.012475271
1.013998468
1.014121934
1.013236427
1.011928469
1.010750626
1.010709036
1.011880406
1.020475798
1.416580235
1.006356069
1.006251845
1.006497318
1.006712373
1.006474401
1.006671711
1.007610337
1.009107164
1.009822849
1.009773511
1.009735202
1.009618738
1.009567536
1.009519133
1.009118696
1.008473496
1.007931082
1.008046409
1.008966881
1.009628063
1.009774979
1.009917383
1.010608413
1.012242376
1.013792095
1.014053574
1.013773417
1.012790943
1.011192293
1.010393117
1.010426664
1.012159112
1.019776279
1.364284607
1.005898714
1.005819284
1.006210182
1.006509788
1.006229953
1.006409643
1.00727007
1.008740169
1.009254447
1.009296362
1.009175431
1.009061158
1.009008234
1.008908168
1.008755859
1.008397224
1.008267295
1.008801312
1.009235289
1.009487402
1.009706676
1.010124464
1.011431376
1.013312109
1.013872207
1.013848047
1.013312508
1.011711226
1.010513888
1.010372592
1.010800979
1.013006582
1.01936622
1.322476107
1.005192264
1.005065447
1.005730104
1.006221706
1.005952837
1.006081297
1.00683402
1.007996681
1.008853025
1.008674165
1.008551223
1.008344304
1.008347213
1.008549771
1.008671778
1.008874641
1.009200138
1.009207438
1.009153797
1.009336497
1.009638622
1.010463029
1.012125517
1.013248132
1.013574828
1.013560546
1.012670391
1.011046336
1.010289661
1.01049094
1.011903815
1.013838384
1.018527882
1.296393024
)
;

boundaryField
{
    inlet
    {
        type            fixedValue;
        value           nonuniform 0();
    }
    outlet
    {
        type            zeroGradient;
    }
    bottom
    {
        type            slip;
    }
    top
    {
        type            slip;
    }
    obstacle
    {
        type            zeroGradient;
    }
    defaultFaces
    {
        type            empty;
    }
    procBoundary23to17
    {
        type            processor;
        value           nonuniform List<scalar> 
40
(
1.008675373
1.007932769
1.007276326
1.00764418
1.009137696
1.011614983
1.014450997
1.016323955
1.017690585
1.02111973
1.065360573
1.555460855
2.238182032
2.313219506
2.26518683
2.269254661
2.27377069
1.008747881
1.010131463
1.010940856
1.01112964
1.011038175
1.011697924
1.012547993
1.012910406
1.012808806
1.012285908
1.011423424
1.010620427
1.010165732
1.010189188
1.010205274
1.010362994
1.010190638
1.00929143
1.008022404
1.00762708
1.008029935
1.008981452
1.008981452
)
;
    }
    procBoundary23to22
    {
        type            processor;
        value           nonuniform List<scalar> 
65
(
1.007291104
1.007784955
1.007784955
1.008021753
1.009786957
1.009070223
1.007521984
1.009197851
1.009850797
1.00943654
1.007766719
1.009668484
1.011223771
1.008080227
1.007711329
1.007711329
1.010240033
1.011123387
1.010530781
1.009304653
1.007656682
1.007357067
1.008645075
1.009513976
1.008848187
1.00686955
1.00512525
1.00512759
1.00512759
1.005632659
1.005609616
1.004600929
1.004001684
1.003757701
1.002748953
1.000671729
0.9996922127
0.9999458318
1.000849554
1.002984487
1.004352499
1.004413349
1.004123153
1.004123153
1.00371445
1.00427974
1.005778495
1.00692735
1.006960818
1.00632671
1.005713536
1.005507051
1.005945094
1.007185796
1.008088295
1.007909763
1.007454481
1.006458898
1.006458898
1.005551548
1.005207332
1.005153718
1.005697053
1.006268519
1.005860589
)
;
    }
    procBoundary23to28
    {
        type            processor;
        value           uniform 1.005277082;
    }
    procBoundary23to29
    {
        type            processor;
        value           nonuniform List<scalar> 
34
(
1.004191657
1.003913836
1.004865159
1.005710861
1.005572513
1.005785949
1.006413722
1.00751153
1.008590667
1.008580091
1.008064137
1.007879826
1.008033364
1.008440577
1.009112989
1.009568466
1.009473588
1.009148589
1.008961869
1.009227294
1.009797594
1.011000967
1.012430332
1.013021478
1.013164478
1.012820066
1.011888344
1.011182984
1.010965641
1.01198081
1.013363372
1.013908315
1.017281658
1.275412382
)
;
    }
}


// ************************************************************************* //
