/*--------------------------------*- C++ -*----------------------------------*\
  =========                 |
  \\      /  F ield         | OpenFOAM: The Open Source CFD Toolbox
   \\    /   O peration     | Website:  https://openfoam.org
    \\  /    A nd           | Version:  7
     \\/     M anipulation  |
\*---------------------------------------------------------------------------*/
FoamFile
{
    version     2.0;
    format      ascii;
    class       volVectorField;
    location    "2";
    object      U;
}
// * * * * * * * * * * * * * * * * * * * * * * * * * * * * * * * * * * * * * //

dimensions      [0 1 -1 0 0 0 0];

internalField   nonuniform List<vector> 
2222
(
(3 5.797474083e-16 0)
(2.986795928 0.001304076368 0)
(2.972722956 0.006759163443 0)
(2.957700699 0.02692759945 0)
(2.944671338 0.02848502566 0)
(2.935862885 0.03348612179 0)
(2.922005386 0.07196897916 0)
(2.911879914 0.09233905006 0)
(2.909656292 0.08511657394 0)
(2.896368775 0.1099810899 0)
(2.884907114 0.1424113283 0)
(2.886605471 0.1486704342 0)
(2.874587863 0.1701998655 0)
(2.865068293 0.1838523909 0)
(2.866310415 0.1995182375 0)
(2.862859731 0.2155585352 0)
(2.855912608 0.2333560056 0)
(2.848626475 0.245868892 0)
(2.845716242 0.2521496302 0)
(2.848207987 0.2623997734 0)
(2.850219777 0.2750553679 0)
(2.849269181 0.2773769125 0)
(2.851404095 0.2739138574 0)
(2.854767772 0.2723046267 0)
(2.856644193 0.2747947115 0)
(2.856260378 0.2760205735 0)
(2.855186195 0.2754697939 0)
(2.854517064 0.2723762667 0)
(2.856859166 0.2709171186 0)
(2.858572116 0.2705298911 0)
(2.860772856 0.2708077311 0)
(2.863074705 0.2715698043 0)
(2.864736277 0.2703702959 0)
(2.865284634 0.2673488072 0)
(2.998552448 0.002218051077 0)
(2.995088817 0.008195727027 0)
(2.990245549 0.0176289083 0)
(2.982025797 0.03621364283 0)
(2.973103897 0.05761379903 0)
(2.966574575 0.07479658469 0)
(2.949416541 0.1157575022 0)
(2.94231881 0.1448197161 0)
(2.934682305 0.1678907726 0)
(2.914845471 0.2111139176 0)
(2.91268832 0.2297856785 0)
(2.898325617 0.2633611532 0)
(2.884292992 0.2985095649 0)
(2.882924196 0.3013006215 0)
(2.870575149 0.3194142398 0)
(2.865774807 0.3365191373 0)
(2.857142123 0.3287222768 0)
(2.853872502 0.3155580662 0)
(2.852353717 0.3118362628 0)
(2.850818845 0.3118144451 0)
(2.850808363 0.3032987973 0)
(2.852376431 0.2957345862 0)
(2.859509801 0.2907867954 0)
(2.864872508 0.2871216807 0)
(2.866342924 0.2853235219 0)
(2.868418216 0.2843830291 0)
(2.870253982 0.2804948395 0)
(2.872739587 0.2753218575 0)
(2.873433242 0.271961617 0)
(2.874175634 0.2699201929 0)
(2.875981938 0.2695524923 0)
(2.877418896 0.2693255779 0)
(2.878481971 0.2646782365 0)
(2.999991 1.410530802e-05 0)
(2.999945471 8.828566079e-05 0)
(2.999776524 0.0004098274313 0)
(2.999444197 0.001113664992 0)
(2.998764875 0.002586410103 0)
(2.997151087 0.005981343175 0)
(2.995040038 0.01130414205 0)
(2.992992646 0.01831923536 0)
(2.989441303 0.02780120971 0)
(2.983885053 0.04315191203 0)
(2.979370418 0.05820668353 0)
(2.973734257 0.07740023638 0)
(2.967735853 0.1048695948 0)
(2.966609443 0.1151521497 0)
(2.958100053 0.1407942251 0)
(2.948591477 0.1804588671 0)
(2.951120471 0.186883807 0)
(2.942695316 0.205974828 0)
(2.92609496 0.2340754818 0)
(2.924630629 0.2423328872 0)
(2.915057995 0.2585828828 0)
(2.905085455 0.2703994875 0)
(2.900495778 0.2725329479 0)
(2.89586478 0.2728703843 0)
(2.894295567 0.2745856246 0)
(2.892535598 0.2785409237 0)
(2.890743239 0.2796567564 0)
(2.889489482 0.2801841076 0)
(2.887987922 0.2809487997 0)
(2.887046744 0.2813720838 0)
(2.887087149 0.2818962346 0)
(2.888160218 0.2826012726 0)
(2.888155798 0.2805965908 0)
(2.999999994 9.774320024e-09 0)
(2.999999922 1.248733235e-07 0)
(2.999999378 1.021056788e-06 0)
(2.999996684 6.029308032e-06 0)
(2.999985793 2.578484484e-05 0)
(2.999947254 9.306699641e-05 0)
(2.999849313 0.0002930950387 0)
(2.999641376 0.0007655562876 0)
(2.999219289 0.001672135475 0)
(2.998353872 0.003568430634 0)
(2.99684188 0.007244065938 0)
(2.994819282 0.01225887815 0)
(2.991353984 0.02175015191 0)
(2.987369729 0.03441188161 0)
(2.981927853 0.04880410752 0)
(2.971873726 0.07714380244 0)
(2.969362089 0.09774081785 0)
(2.959748382 0.1312893721 0)
(2.946682882 0.1731821723 0)
(2.948706412 0.1816476611 0)
(2.9345084 0.2177641012 0)
(2.922604521 0.2544063077 0)
(2.922469709 0.2507663548 0)
(2.913093471 0.2636854435 0)
(2.900047621 0.2871804458 0)
(2.895870604 0.2886021965 0)
(2.893073798 0.2928101826 0)
(2.891404423 0.2982441268 0)
(2.889623013 0.2969601144 0)
(2.888236631 0.2932936705 0)
(2.887402333 0.2884622484 0)
(2.888385436 0.2866453218 0)
(2.889846815 0.2844407076 0)
(3 1.34551686e-12 0)
(3 9.762562322e-13 0)
(3 1.431908512e-10 0)
(2.999999998 2.500117702e-09 0)
(2.999999983 2.497733816e-08 0)
(2.999999882 1.801687565e-07 0)
(2.999999393 9.902891169e-07 0)
(2.99999756 4.082855101e-06 0)
(2.999991192 1.508958683e-05 0)
(2.999971296 4.929739809e-05 0)
(2.999920188 0.0001423761871 0)
(2.999797815 0.0003770634715 0)
(2.999537556 0.0008744573567 0)
(2.99903372 0.001932236405 0)
(2.998057057 0.003875276324 0)
(2.996315303 0.007465099616 0)
(2.993723376 0.01380429425 0)
(2.989906233 0.02227035951 0)
(2.983917382 0.03715544948 0)
(2.977542993 0.0546880349 0)
(2.96771748 0.07868536549 0)
(2.958052846 0.1069520129 0)
(2.954821344 0.1216565501 0)
(2.937230248 0.1615846962 0)
(2.925860999 0.1964410584 0)
(2.929269069 0.1901071864 0)
(2.917787046 0.2138043011 0)
(2.909194367 0.2435188674 0)
(2.908820072 0.24109384 0)
(2.905558924 0.2473114048 0)
(2.900402475 0.2562787557 0)
(2.899473406 0.257747754 0)
(2.895835944 0.2628146096 0)
(3 -4.330068231e-15 0)
(3 -1.968373265e-15 0)
(3 -1.606967621e-14 0)
(3 2.730053111e-13 0)
(3 4.928457582e-13 0)
(3 1.456831932e-11 0)
(3 2.483704162e-10 0)
(2.999999998 2.407337e-09 0)
(2.999999989 1.581581545e-08 0)
(2.999999938 9.420816762e-08 0)
(2.999999714 4.460530321e-07 0)
(2.999998875 1.799599626e-06 0)
(2.999995963 6.614783296e-06 0)
(2.999987268 2.112790526e-05 0)
(2.999962542 6.371440964e-05 0)
(2.999898934 0.0001744643203 0)
(2.999751852 0.0004402927118 0)
(2.99942549 0.001035947633 0)
(2.99873978 0.002324504678 0)
(2.997438585 0.004950484926 0)
(2.995316298 0.008878923788 0)
(2.991416238 0.01720382636 0)
(2.986350707 0.02904051354 0)
(2.97955815 0.04226235778 0)
(2.968928244 0.06738479128 0)
(2.961651779 0.088995103 0)
(2.94719383 0.1211027743 0)
(2.932808506 0.1575264711 0)
(2.93412167 0.1640703495 0)
(2.916036959 0.2026534317 0)
(2.904021874 0.2410545423 0)
(2.906128569 0.2388810473 0)
(2.895191563 0.2577853038 0)
(3 -1.681266039e-15 0)
(3 -1.530771474e-15 0)
(3 -3.598970361e-15 0)
(3 -4.188944007e-15 0)
(3 -3.635501076e-15 0)
(3 -9.195438202e-15 0)
(3 -6.015066358e-14 0)
(3 2.886006072e-13 0)
(3 2.576620981e-13 0)
(3 8.112894157e-12 0)
(3 1.181635251e-10 0)
(2.999999999 8.970918557e-10 0)
(2.999999996 5.842733009e-09 0)
(2.999999979 3.179432526e-08 0)
(2.999999904 1.487069605e-07 0)
(2.999999599 6.379051721e-07 0)
(2.999998521 2.366243519e-06 0)
(2.999994952 8.315701974e-06 0)
(2.999983871 2.675945346e-05 0)
(2.999953139 7.859450308e-05 0)
(2.999867771 0.00022911218 0)
(2.999665292 0.0005799183362 0)
(2.999232625 0.001383616497 0)
(2.998310734 0.003091449796 0)
(2.996598205 0.006428964448 0)
(2.993949698 0.01213226575 0)
(2.989658149 0.0203749569 0)
(2.983059019 0.03458433079 0)
(2.975793783 0.05215437396 0)
(2.964528893 0.07619012797 0)
(2.954496963 0.1010474303 0)
(2.949377768 0.1164085361 0)
(2.930304018 0.1581504279 0)
(3 -6.857570305e-15 0)
(3 -6.475674982e-15 0)
(3 -6.462494214e-15 0)
(3 -6.866390566e-15 0)
(3 -7.864966783e-15 0)
(3 -1.24019466e-14 0)
(3 -1.776044355e-14 0)
(3 -1.679431002e-14 0)
(3 -1.75689139e-14 0)
(3 -2.029816425e-14 0)
(3 -3.490291823e-15 0)
(3 2.550532442e-14 0)
(3 -4.240855971e-13 0)
(3 3.226725034e-12 0)
(3 2.532408287e-11 0)
(3 2.155065163e-10 0)
(2.999999999 1.526492637e-09 0)
(2.999999995 8.192439638e-09 0)
(2.999999973 4.275147969e-08 0)
(2.999999875 1.990475202e-07 0)
(2.999999475 8.367122705e-07 0)
(2.99999791 3.40086981e-06 0)
(2.999992646 1.220183607e-05 0)
(2.999976212 4.024085339e-05 0)
(2.999929284 0.0001222040114 0)
(2.999810937 0.0003385105844 0)
(2.999531684 0.0008473046969 0)
(2.99891885 0.00200407196 0)
(2.997722822 0.004397812921 0)
(2.995781363 0.007961538172 0)
(2.991942708 0.01621351289 0)
(2.986854854 0.02781620821 0)
(2.980684342 0.03939701164 0)
(3 -9.524303341e-15 0)
(3 -9.264492189e-15 0)
(3 -9.620105587e-15 0)
(3 -1.010555261e-14 0)
(3 -1.017983714e-14 0)
(3 -9.993351516e-15 0)
(3 -9.786699579e-15 0)
(3 -1.025992811e-14 0)
(3 -1.136342402e-14 0)
(3 -1.017186739e-14 0)
(3 -8.657230289e-15 0)
(3 -1.579714594e-14 0)
(3 -1.454860842e-14 0)
(3 -7.054301363e-15 0)
(3 -5.460321821e-15 0)
(3 -3.870809794e-14 0)
(3 2.421731889e-13 0)
(3 9.616922883e-14 0)
(3 2.97617241e-12 0)
(3 3.972679179e-11 0)
(3 3.023799629e-10 0)
(2.999999999 2.237910951e-09 0)
(2.999999991 1.333100485e-08 0)
(2.999999955 7.135518609e-08 0)
(2.999999786 3.460296213e-07 0)
(2.999999111 1.447505099e-06 0)
(2.999996568 5.782247791e-06 0)
(2.999988002 2.025126505e-05 0)
(2.999962478 6.424188864e-05 0)
(2.999888238 0.0002011872546 0)
(2.999713227 0.0005115842788 0)
(2.999314879 0.001282904993 0)
(2.99845819 0.002941855168 0)
(3 -6.220011919e-15 0)
(3 -6.655039889e-15 0)
(3 -7.365009574e-15 0)
(3 -8.283906973e-15 0)
(3 -8.156745099e-15 0)
(3 -7.221172687e-15 0)
(3 -6.376146694e-15 0)
(3 -5.35084848e-15 0)
(3 -4.557461085e-15 0)
(3 -3.974047775e-15 0)
(3 -3.675771708e-15 0)
(3 -2.380855302e-15 0)
(3 -2.766449009e-15 0)
(3 -2.5358103e-15 0)
(3 -3.846170417e-15 0)
(3 -4.891455875e-15 0)
(3 -5.946734277e-15 0)
(3 -1.249936674e-14 0)
(3 -1.604526387e-14 0)
(3 -8.883141461e-15 0)
(3 2.102852687e-14 0)
(3 -3.281452497e-13 0)
(3 1.772356893e-12 0)
(3 5.452263421e-12 0)
(3 7.449289625e-11 0)
(3 6.740354519e-10 0)
(2.999999997 4.265662047e-09 0)
(2.999999983 2.731530276e-08 0)
(2.99999991 1.428576453e-07 0)
(2.999999597 6.50109477e-07 0)
(2.999998284 2.883577141e-06 0)
(2.999993843 1.042317634e-05 0)
(2.999979166 3.610362327e-05 0)
(3 -5.029796328e-15 0)
(3 -5.493419819e-15 0)
(3 -5.870300558e-15 0)
(3 -5.671618805e-15 0)
(3 -4.948984768e-15 0)
(3 -3.578151103e-15 0)
(3 -2.542364662e-15 0)
(3 -1.09253827e-15 0)
(3 -4.630495889e-17 0)
(3 9.832856857e-17 0)
(3 1.123357558e-16 0)
(3 1.207316939e-15 0)
(3 2.730761813e-15 0)
(3 3.942407157e-15 0)
(3 4.072900196e-15 0)
(3 3.201373029e-15 0)
(3 1.68749646e-16 0)
(3 -3.615137367e-15 0)
(3 -6.155392456e-15 0)
(3 -5.259857046e-15 0)
(3 -7.202801464e-15 0)
(3 -7.113457534e-15 0)
(3 -6.978563885e-15 0)
(3 -7.842565881e-15 0)
(3 -2.519297129e-14 0)
(3 5.427809271e-14 0)
(3 1.114143926e-13 0)
(3 2.2324215e-15 0)
(3 2.339422457e-11 0)
(3 1.967241481e-10 0)
(2.999999999 1.605940373e-09 0)
(2.999999993 1.07417369e-08 0)
(2.999999963 5.832720678e-08 0)
(3 -3.635430208e-15 0)
(3 -3.626021937e-15 0)
(3 -2.589095014e-15 0)
(3 -1.173855069e-15 0)
(3 -2.509867437e-16 0)
(3 9.501424033e-16 0)
(3 2.246723521e-15 0)
(3 3.62971917e-15 0)
(3 4.288724718e-15 0)
(3 4.813639187e-15 0)
(3 6.113313581e-15 0)
(3 6.504317749e-15 0)
(3 7.096734954e-15 0)
(3 7.84499131e-15 0)
(3 8.488833263e-15 0)
(3 7.522617856e-15 0)
(3 6.341338352e-15 0)
(3 5.129409535e-15 0)
(3 1.598824044e-15 0)
(3 -6.157172441e-16 0)
(3 -1.002650119e-15 0)
(3 -2.070223926e-15 0)
(3 -4.093715977e-15 0)
(3 -6.042693736e-15 0)
(3 -8.236141952e-15 0)
(3 -9.807488969e-15 0)
(3 -2.811632785e-14 0)
(3 -3.065682694e-14 0)
(3 -1.634102288e-14 0)
(3 1.055239265e-14 0)
(3 -2.531090613e-13 0)
(3 1.029218548e-12 0)
(3 5.212179296e-12 0)
(3 -3.55339981e-15 0)
(3 -1.945645574e-15 0)
(3 4.46608635e-16 0)
(3 1.535496822e-15 0)
(3 2.610924094e-15 0)
(3 4.371776371e-15 0)
(3 6.539380508e-15 0)
(3 7.390549948e-15 0)
(3 8.972647916e-15 0)
(3 1.072965716e-14 0)
(3 9.842865616e-15 0)
(3 8.530200218e-15 0)
(3 7.698973034e-15 0)
(3 6.477830233e-15 0)
(3 6.3477956e-15 0)
(3 6.343956865e-15 0)
(3 5.586770383e-15 0)
(3 4.191126246e-15 0)
(3 1.705571925e-15 0)
(3 -3.039604666e-16 0)
(3 -6.52050745e-16 0)
(3 -8.052458244e-16 0)
(3 -1.040482531e-15 0)
(3 -9.301072622e-16 0)
(3 -6.960755607e-16 0)
(3 -2.09304709e-15 0)
(3 -3.054791806e-15 0)
(3 -5.180975447e-15 0)
(3 -4.014948621e-15 0)
(3 -7.565082219e-15 0)
(3 -9.591665717e-15 0)
(3 -8.692888055e-15 0)
(3 -7.468596242e-15 0)
(3 -3.402379925e-15 0)
(3 -1.528144412e-15 0)
(3 -5.766593359e-16 0)
(3 5.28772825e-16 0)
(3 1.582716667e-15 0)
(3 2.30460149e-15 0)
(3 4.193444318e-15 0)
(3 5.881312258e-15 0)
(3 8.396815244e-15 0)
(3 8.905493508e-15 0)
(3 8.928140486e-15 0)
(3 8.318258349e-15 0)
(3 8.09697213e-15 0)
(3 5.320709419e-15 0)
(3 4.128262918e-15 0)
(3 3.883931159e-15 0)
(3 2.981875926e-15 0)
(3 2.334736917e-15 0)
(3 1.558674096e-15 0)
(3 5.71839561e-16 0)
(3 -7.833056467e-17 0)
(3 -5.316495485e-16 0)
(3 -9.485847705e-16 0)
(3 -1.307592403e-15 0)
(3 -1.660664574e-16 0)
(3 1.415322035e-15 0)
(3 2.473510418e-15 0)
(3 3.098965579e-15 0)
(3 3.685406849e-15 0)
(3 2.300951937e-15 0)
(3 1.133462641e-15 0)
(3 -2.042574908e-15 0)
(3 -2.64192143e-15 0)
(3 -1.902646926e-15 0)
(3 -7.508886415e-16 0)
(3 4.847757543e-16 0)
(3 1.621881162e-15 0)
(3 2.320755823e-15 0)
(3 3.540004422e-15 0)
(3 4.351596865e-15 0)
(3 7.286387505e-15 0)
(3 8.959311784e-15 0)
(3 8.540401699e-15 0)
(3 9.086055727e-15 0)
(3 7.387410157e-15 0)
(3 4.805862199e-15 0)
(3 5.496153014e-16 0)
(3 1.097190884e-16 0)
(3 7.918374679e-16 0)
(3 2.058561635e-15 0)
(3 1.4262322e-15 0)
(3 6.471857525e-17 0)
(3 -5.7511774e-16 0)
(3 -5.465179019e-16 0)
(3 -8.886836006e-16 0)
(3 -1.278619766e-15 0)
(3 -2.630811685e-15 0)
(3 -2.867127074e-15 0)
(3 -1.274638743e-15 0)
(3 -7.294572988e-17 0)
(3 2.27302704e-15 0)
(3 4.023930801e-15 0)
(3 5.635123567e-15 0)
(3 5.724461864e-15 0)
(3 4.812925021e-15 0)
(3 3.942396799e-15 0)
(3 2.771302802e-15 0)
(3 3.796399473e-15 0)
(3 4.370338619e-15 0)
(3 4.65304025e-15 0)
(3 5.388724907e-15 0)
(3 6.176676847e-15 0)
(3 6.689555019e-15 0)
(3 7.057286975e-15 0)
(3 6.520661992e-15 0)
(3 6.10253144e-15 0)
(3 3.135734432e-15 0)
(3 7.627700303e-16 0)
(3 -1.218257745e-15 0)
(3 -1.7927046e-15 0)
(3 -2.574976915e-15 0)
(3 -2.98809428e-15 0)
(3 -2.94575194e-15 0)
(3 -3.119462449e-15 0)
(3 -3.020146553e-15 0)
(3 -2.797763783e-15 0)
(3 -2.570518409e-15 0)
(3 -2.47890181e-15 0)
(3 -2.557645551e-15 0)
(3 -3.021480287e-15 0)
(3 -4.017067864e-15 0)
(3 -7.350640701e-16 0)
(3 1.823666059e-15 0)
(3 3.594714555e-15 0)
(3 4.024013868e-15 0)
(3 3.495373512e-15 0)
(3 4.504670944e-15 0)
(3 4.714778735e-15 0)
(3 4.201561651e-15 0)
(3 8.155227692e-15 0)
(3 7.658498397e-15 0)
(3 6.271027058e-15 0)
(3 5.279888484e-15 0)
(3 5.014779504e-15 0)
(3 4.704035948e-15 0)
(3 3.407717938e-15 0)
(3 1.121285658e-16 0)
(3 -1.311200479e-15 0)
(3 -1.725824702e-15 0)
(3 -3.932829869e-15 0)
(3 -4.932200198e-15 0)
(3 -4.338122483e-15 0)
(3 -2.827582493e-15 0)
(3 -2.414185912e-15 0)
(3 -3.84811919e-15 0)
(3 -5.229547398e-15 0)
(3 -6.346997946e-15 0)
(3 -5.669360818e-15 0)
(3 -5.314129317e-15 0)
(3 -5.991494757e-15 0)
(3 -6.038849616e-15 0)
(3 -3.802500939e-15 0)
(3 -3.968834666e-15 0)
(3 -5.100738007e-15 0)
(3 -2.980763087e-15 0)
(3 -2.12537569e-15 0)
(3 -1.12037763e-15 0)
(3 -2.82183879e-16 0)
(3 -6.962496914e-17 0)
(3 2.276239694e-15 0)
(3 3.38910905e-15 0)
(3 3.134405185e-15 0)
(3 5.321405192e-15 0)
(3 4.425645781e-15 0)
(3 4.145358205e-15 0)
(3 3.857134047e-15 0)
(3 3.439165761e-15 0)
(3 3.329670142e-15 0)
(3 1.900860374e-15 0)
(3 -1.627700926e-16 0)
(3 -1.532172117e-15 0)
(3 -3.13491654e-15 0)
(3 -3.439784041e-15 0)
(3 -3.574749125e-15 0)
(3 -2.749795011e-15 0)
(3 -1.645081151e-15 0)
(3 -1.022892501e-15 0)
(3 -1.130579164e-15 0)
(3 -1.956767615e-15 0)
(3 -3.105561956e-15 0)
(3 -3.765782422e-15 0)
(3 -3.843683414e-15 0)
(3 -4.824270136e-15 0)
(3 -5.677795852e-15 0)
(3 -5.669075038e-15 0)
(3 -2.004857422e-15 0)
(3 -1.307046176e-15 0)
(3 -1.365020359e-15 0)
(3 -2.284145755e-15 0)
(3 -2.716736413e-15 0)
(3 -2.876010815e-15 0)
(3 -2.336766243e-15 0)
(3 -1.563434609e-15 0)
(3 -1.239914165e-18 0)
(3 8.055213238e-16 0)
(3 3.348141474e-15 0)
(3 3.79834459e-15 0)
(3 3.739718324e-15 0)
(3 1.972488265e-15 0)
(3 -1.423209073e-16 0)
(3 -1.331404407e-15 0)
(3 -2.007528529e-15 0)
(3 -2.973295176e-15 0)
(3 -4.222159624e-15 0)
(3 -4.961418136e-15 0)
(3 -4.335346355e-15 0)
(3 -2.142514558e-15 0)
(3 -1.668651232e-15 0)
(3 -6.23038168e-16 0)
(3 -2.046985353e-16 0)
(3 6.902364699e-16 0)
(3 1.777808067e-15 0)
(3 2.784270164e-15 0)
(3 1.830465395e-15 0)
(3 5.520757055e-16 0)
(3 -2.207117894e-16 0)
(3 -1.030296137e-15 0)
(3 7.546902954e-16 0)
(3 1.710191407e-15 0)
(3 2.29511492e-15 0)
(3 1.802273749e-15 0)
(3 9.360791989e-16 0)
(3 5.463646736e-17 0)
(3 -1.637533814e-15 0)
(3 -3.434417889e-15 0)
(3 -4.474452341e-15 0)
(3 -2.927444403e-15 0)
(3 -9.134402876e-16 0)
(3 9.787474791e-16 0)
(3 1.027606956e-15 0)
(3 6.735440874e-16 0)
(3 -1.433917877e-15 0)
(3 -2.672905473e-15 0)
(3 -3.651325681e-15 0)
(3 -3.411383238e-15 0)
(3 -2.300018595e-15 0)
(3 -1.880049046e-15 0)
(3 -2.42932582e-15 0)
(3 -3.118410828e-15 0)
(3 -2.696593907e-15 0)
(3 -1.35179791e-15 0)
(3 -1.056597796e-15 0)
(3 -1.024090845e-15 0)
(3 -8.81604083e-16 0)
(3 2.230313324e-15 0)
(3 3.689839321e-15 0)
(3 4.329431163e-15 0)
(3 4.934743669e-15 0)
(3 5.087399206e-15 0)
(3 4.90788388e-15 0)
(3 5.474531005e-15 0)
(3 4.711703141e-15 0)
(3 3.611936623e-15 0)
(3 2.86803821e-15 0)
(3 3.770609484e-15 0)
(3 4.2589189e-15 0)
(3 3.823460194e-15 0)
(3 1.236298859e-15 0)
(3 -8.27404258e-16 0)
(3 -1.109918917e-15 0)
(3 -3.472845422e-16 0)
(3 2.36661371e-15 0)
(3 1.139550426e-15 0)
(3 -3.676762783e-16 0)
(3 -9.855720397e-16 0)
(3 -2.683990778e-15 0)
(3 -3.99425472e-15 0)
(3 -4.407368105e-15 0)
(3 -1.603303807e-15 0)
(3 -9.923766915e-17 0)
(3 6.480012275e-16 0)
(3 4.29451129e-16 0)
(3 2.739164289e-16 0)
(3 9.468503296e-16 0)
(3 3.494518488e-16 0)
(3 2.81147104e-16 0)
(3 1.096926989e-15 0)
(3 3.161198612e-15 0)
(3 3.061940613e-15 0)
(3 3.967081735e-15 0)
(3 6.959757394e-15 0)
(3 7.338319594e-15 0)
(3 7.241593853e-15 0)
(3 6.807928226e-15 0)
(3 6.565220722e-15 0)
(3 5.871752887e-15 0)
(3 5.316016683e-15 0)
(3 4.800601512e-15 0)
(3 4.433292054e-15 0)
(3 2.648083252e-15 0)
(3 -2.826840971e-17 0)
(3 -1.486855282e-15 0)
(3 -1.815036901e-15 0)
(3 -2.467064587e-15 0)
(3 6.055101203e-15 0)
(3 4.955457531e-15 0)
(3 2.985351196e-15 0)
(3 1.889553769e-15 0)
(3 4.897325154e-16 0)
(3 -7.395408105e-16 0)
(3 -1.162694427e-15 0)
(3 3.32610921e-16 0)
(3 1.029600505e-15 0)
(3 1.209579203e-15 0)
(3 1.065877515e-15 0)
(3 9.361723728e-16 0)
(3 1.056845341e-15 0)
(3 2.248783752e-15 0)
(3 3.78081354e-15 0)
(3 4.70391208e-15 0)
(3 6.203771889e-15 0)
(3 6.983690349e-15 0)
(3 8.829915776e-15 0)
(3 9.150942332e-15 0)
(3 9.02284283e-15 0)
(3 9.244725762e-15 0)
(3 8.794925213e-15 0)
(3 8.703758842e-15 0)
(3 7.347451533e-15 0)
(3 5.328273747e-15 0)
(3 2.795713114e-15 0)
(3 -7.025472058e-17 0)
(3 -2.137941368e-15 0)
(3 -3.454008298e-15 0)
(3 -4.264370849e-15 0)
(3 -4.471776863e-15 0)
(3 -5.953702143e-15 0)
(3 5.23285701e-15 0)
(3 4.288560184e-15 0)
(3 3.880251922e-15 0)
(3 3.36964225e-15 0)
(3 3.005636665e-15 0)
(3 2.266011866e-15 0)
(3 1.17109808e-15 0)
(3 -2.786957741e-16 0)
(3 -1.317575941e-15 0)
(3 -1.481340601e-15 0)
(3 2.998357465e-16 0)
(3 2.053175581e-15 0)
(3 2.786453653e-15 0)
(3 3.179035161e-15 0)
(3 4.514471688e-15 0)
(3 6.732856967e-15 0)
(3 7.143446854e-15 0)
(3 8.045114309e-15 0)
(3 9.318457693e-15 0)
(3 1.025955603e-14 0)
(3 9.884751339e-15 0)
(3 9.186254992e-15 0)
(3 7.773777052e-15 0)
(3 7.747173944e-15 0)
(3 6.5104287e-15 0)
(3 2.734435105e-15 0)
(3 1.948106006e-16 0)
(3 -3.295645365e-16 0)
(3 -1.05586457e-15 0)
(3 -2.854707734e-15 0)
(3 -3.58444068e-15 0)
(3 -4.54612093e-15 0)
(3 -6.854460494e-15 0)
(3 3.941431729e-15 0)
(3 3.317683883e-15 0)
(3 3.464514971e-15 0)
(3 3.952731522e-15 0)
(3 4.189628684e-15 0)
(3 3.903690834e-15 0)
(3 3.632816072e-15 0)
(3 2.169235096e-15 0)
(3 4.807439444e-16 0)
(3 4.83438118e-16 0)
(3 1.73944731e-15 0)
(3 3.070222733e-15 0)
(3 5.173685942e-15 0)
(3 6.485825199e-15 0)
(3 7.333092295e-15 0)
(3 8.196229725e-15 0)
(3 9.073598368e-15 0)
(3 8.936735394e-15 0)
(3 8.43876863e-15 0)
(3 8.187023376e-15 0)
(3 7.001633861e-15 0)
(3 5.898356256e-15 0)
(3 4.824110481e-15 0)
(3 4.415495549e-15 0)
(3 3.296954072e-15 0)
(3 4.439779188e-16 0)
(3 2.008207257e-16 0)
(3 3.793763296e-16 0)
(3 -7.311168697e-16 0)
(3 -3.312119184e-15 0)
(3 -4.03475907e-15 0)
(3 -5.969603251e-15 0)
(3 -9.197514301e-15 0)
(3 4.928289758e-15 0)
(3 4.047380952e-15 0)
(3 3.024848858e-15 0)
(3 2.444407492e-15 0)
(3 2.233766727e-15 0)
(3 3.198619373e-15 0)
(3 4.215988561e-15 0)
(3 4.676936775e-15 0)
(3 4.669999176e-15 0)
(3 4.340838206e-15 0)
(3 4.35666562e-15 0)
(3 7.664793052e-15 0)
(3 8.68613871e-15 0)
(3 9.667437123e-15 0)
(3 9.543180199e-15 0)
(3 1.040504238e-14 0)
(3 1.060760254e-14 0)
(3 1.036591918e-14 0)
(3 9.223090648e-15 0)
(3 8.893602983e-15 0)
(3 9.396159742e-15 0)
(3 9.251615737e-15 0)
(3 7.19794044e-15 0)
(3 5.584886346e-15 0)
(3 3.090927549e-15 0)
(3 1.976408665e-15 0)
(3 1.297155579e-15 0)
(3 1.61315572e-15 0)
(3 1.73725209e-16 0)
(3 -2.558326228e-15 0)
(3 -3.540591698e-15 0)
(3 -5.6000086e-15 0)
(3 -7.644432942e-15 0)
(3 4.879600755e-15 0)
(3 4.060363722e-15 0)
(3 3.124810389e-15 0)
(3 2.001540967e-15 0)
(3 1.134637756e-15 0)
(3 1.796440983e-15 0)
(3 2.178724328e-15 0)
(3 3.065992249e-15 0)
(3 4.803320272e-15 0)
(3 5.563165446e-15 0)
(3 6.796659245e-15 0)
(3 9.370111846e-15 0)
(3 9.593251578e-15 0)
(3 8.925743836e-15 0)
(3 8.688354662e-15 0)
(3 8.663421913e-15 0)
(3 8.822067053e-15 0)
(3 8.610685706e-15 0)
(3 8.240868299e-15 0)
(3 7.50666333e-15 0)
(3 7.269998387e-15 0)
(3 6.564345233e-15 0)
(3 5.532916736e-15 0)
(3 4.932983774e-15 0)
(3 4.203818987e-15 0)
(3 3.701108917e-15 0)
(3 3.178432398e-15 0)
(3 3.556458962e-15 0)
(3 2.756947376e-15 0)
(3 1.342722965e-16 0)
(3 -2.058218593e-15 0)
(3 -3.793191734e-15 0)
(3 -4.854524955e-15 0)
(3 4.69104554e-15 0)
(3 4.233858355e-15 0)
(3 4.095739413e-15 0)
(3 3.289129618e-15 0)
(3 3.215762217e-15 0)
(3 2.339337087e-15 0)
(3 1.576030562e-15 0)
(3 1.341240268e-15 0)
(3 1.945077562e-15 0)
(3 3.216830432e-15 0)
(3 3.82664315e-15 0)
(3 3.5536329e-15 0)
(3 3.239326248e-15 0)
(3 3.426971612e-15 0)
(3 3.405245162e-15 0)
(3 3.613126237e-15 0)
(3 4.181567683e-15 0)
(3 3.881052023e-15 0)
(3 4.089467758e-15 0)
(3 4.106494786e-15 0)
(3 3.834304299e-15 0)
(3 3.696316984e-15 0)
(3 3.629620438e-15 0)
(3 3.544017457e-15 0)
(3 3.565722897e-15 0)
(3 3.096389983e-15 0)
(3 3.181662724e-15 0)
(3 2.064970597e-15 0)
(3 7.904625723e-16 0)
(3 -3.862474513e-16 0)
(3 -2.29337794e-15 0)
(3 -2.582567723e-15 0)
(3 -1.293757705e-15 0)
(3 -1.314019377e-15 0)
(3 -1.005269236e-15 0)
(3 -8.223049794e-16 0)
(3 -4.591084179e-17 0)
(3 1.477439187e-15 0)
(3 1.527190919e-15 0)
(3 1.978579708e-15 0)
(3 2.181679865e-15 0)
(3 1.057350139e-15 0)
(3 2.779256983e-16 0)
(3 -4.736035959e-16 0)
(3 -9.459409553e-16 0)
(3 -9.671455602e-16 0)
(3 -3.294612451e-16 0)
(3 -6.111904165e-17 0)
(3 3.961065622e-16 0)
(3 -1.525183764e-16 0)
(3 -8.460607693e-17 0)
(3 -1.584737239e-17 0)
(3 1.267365224e-15 0)
(3 1.123649218e-15 0)
(3 2.749120456e-15 0)
(3 4.316512631e-15 0)
(3 4.184154111e-15 0)
(3 3.813229865e-15 0)
(3 2.598180619e-15 0)
(3 3.85347312e-16 0)
(3 -7.195552988e-16 0)
(3 -1.514947883e-15 0)
(3 -1.607777102e-15 0)
(3 -4.545242347e-17 0)
(3 4.918017393e-17 0)
(3 1.852533692e-15 0)
(3 -3.60206942e-15 0)
(3 -3.310110269e-15 0)
(3 -2.460610332e-15 0)
(3 -2.064446926e-15 0)
(3 -2.248555667e-15 0)
(3 -1.773678579e-15 0)
(3 -1.157205082e-15 0)
(3 -1.254623662e-15 0)
(3 -2.160256085e-15 0)
(3 -3.36854828e-15 0)
(3 -3.624139512e-15 0)
(3 -3.259718262e-15 0)
(3 -2.733040845e-15 0)
(3 -2.378872347e-15 0)
(3 -2.527700734e-15 0)
(3 -2.944134603e-15 0)
(3 -3.166057859e-15 0)
(3 -4.594431496e-15 0)
(3 -4.791351924e-15 0)
(3 -3.11054606e-15 0)
(3 -1.637433963e-15 0)
(3 -2.291733175e-16 0)
(3 8.934061713e-16 0)
(3 1.325320801e-15 0)
(3 2.486754526e-15 0)
(3 3.159473064e-15 0)
(3 2.95254896e-15 0)
(3 2.501756979e-15 0)
(3 2.146415803e-15 0)
(3 2.705764159e-15 0)
(3 3.857014281e-15 0)
(3 4.009117636e-15 0)
(3 3.71092429e-15 0)
(3 -4.348895053e-15 0)
(3 -3.986219218e-15 0)
(3 -3.445203496e-15 0)
(3 -4.02428507e-15 0)
(3 -4.705189919e-15 0)
(3 -4.680180876e-15 0)
(3 -5.491943046e-15 0)
(3 -4.862334189e-15 0)
(3 -4.684887976e-15 0)
(3 -4.288129886e-15 0)
(3 -3.584712692e-15 0)
(3 -2.948297313e-15 0)
(3 -3.417929837e-15 0)
(3 -3.644741481e-15 0)
(3 -4.438156114e-15 0)
(3 -5.141352572e-15 0)
(3 -5.747782853e-15 0)
(3 -5.616254455e-15 0)
(3 -5.191218374e-15 0)
(3 -4.410047395e-15 0)
(3 -3.757539729e-15 0)
(3 -2.401023956e-15 0)
(3 -7.329287882e-16 0)
(3 -1.591287742e-16 0)
(3 1.38198214e-15 0)
(3 2.849792737e-15 0)
(3 4.188911433e-15 0)
(3 4.213037055e-15 0)
(3 5.03862901e-15 0)
(3 5.949682156e-15 0)
(3 5.897935328e-15 0)
(3 5.83175275e-15 0)
(3 5.685007731e-15 0)
(3 -3.593263778e-15 0)
(3 -2.756755774e-15 0)
(3 -3.49303496e-15 0)
(3 -3.234204601e-15 0)
(3 -2.695549401e-15 0)
(3 -2.685821955e-15 0)
(3 -2.31357428e-15 0)
(3 -2.288921957e-15 0)
(3 -2.436874204e-15 0)
(3 -2.190024099e-15 0)
(3 -2.560224159e-15 0)
(3 -2.76006198e-15 0)
(3 -4.784951827e-15 0)
(3 -7.020570672e-15 0)
(3 -6.82072371e-15 0)
(3 -6.680482066e-15 0)
(3 -6.489029935e-15 0)
(3 -5.724495844e-15 0)
(3 -5.333894417e-15 0)
(3 -5.248488259e-15 0)
(3 -5.659326539e-15 0)
(3 -5.833506233e-15 0)
(3 -3.707974368e-15 0)
(3 5.395890614e-17 0)
(3 1.457206664e-15 0)
(3 2.050739534e-15 0)
(3 3.442543088e-15 0)
(3 5.40831876e-15 0)
(3 5.496209736e-15 0)
(3 6.052619141e-15 0)
(3 7.161184794e-15 0)
(3 7.245949028e-15 0)
(3 7.477827114e-15 0)
(3 8.438903796e-16 0)
(3 2.064212351e-15 0)
(3 2.808340068e-15 0)
(3 3.001722826e-15 0)
(3 2.668968649e-15 0)
(3 2.144149132e-15 0)
(3 1.823804466e-15 0)
(3 1.122572606e-15 0)
(3 -6.587937968e-16 0)
(3 -2.257625385e-15 0)
(3 -4.5589168e-15 0)
(3 -5.910306054e-15 0)
(3 -6.941481883e-15 0)
(3 -8.196491258e-15 0)
(3 -7.975011312e-15 0)
(3 -7.235563816e-15 0)
(3 -6.129751269e-15 0)
(3 -5.212715509e-15 0)
(3 -5.20302458e-15 0)
(3 -5.629708278e-15 0)
(3 -6.156368891e-15 0)
(3 -6.123183767e-15 0)
(3 -4.289093862e-15 0)
(3 -2.830242596e-15 0)
(3 -7.483689066e-16 0)
(3 -7.271741828e-17 0)
(3 6.312627311e-16 0)
(3 2.825580688e-15 0)
(3 4.456667029e-15 0)
(3 5.618788178e-15 0)
(3 6.330656228e-15 0)
(3 7.165116568e-15 0)
(3 7.749982275e-15 0)
(3 4.338576286e-15 0)
(3 4.567626942e-15 0)
(3 4.64109197e-15 0)
(3 4.170234109e-15 0)
(3 3.079741568e-15 0)
(3 1.551181323e-15 0)
(3 -3.701894552e-16 0)
(3 -1.857350419e-15 0)
(3 -3.633349536e-15 0)
(3 -4.961023587e-15 0)
(3 -6.127213424e-15 0)
(3 -6.910256351e-15 0)
(3 -6.34967444e-15 0)
(3 -5.586641158e-15 0)
(3 -4.503730177e-15 0)
(3 -4.386453675e-15 0)
(3 -4.837543687e-15 0)
(3 -3.765614358e-15 0)
(3 -2.878790465e-15 0)
(3 -2.706290632e-15 0)
(3 -2.667153055e-15 0)
(3 -1.787216893e-15 0)
(3 -1.341350287e-16 0)
(3 1.156155786e-16 0)
(3 5.534065313e-16 0)
(3 1.606836571e-15 0)
(3 2.385891777e-15 0)
(3 4.451498016e-15 0)
(3 5.265628252e-15 0)
(3 4.947084015e-15 0)
(3 5.03590389e-15 0)
(3 5.232321289e-15 0)
(3 6.005373595e-15 0)
(3 3.020188419e-15 0)
(3 2.357832423e-15 0)
(3 1.735694269e-15 0)
(3 1.069178591e-15 0)
(3 -5.695986001e-18 0)
(3 -1.921245881e-15 0)
(3 -3.881320875e-15 0)
(3 -5.425245244e-15 0)
(3 -5.325763144e-15 0)
(3 -5.300542569e-15 0)
(3 2.406683375e-15 0)
(3 4.733955632e-15 0)
(3 5.755889357e-15 0)
(3 8.268623182e-15 0)
(3 1.065321773e-14 0)
(3 1.380603417e-14 0)
(3 1.361423225e-14 0)
(3 1.251391314e-14 0)
(3 1.001148053e-14 0)
(3 5.352468881e-15 0)
(3 7.509856635e-16 0)
(3 -2.196753624e-15 0)
(3 -3.007225475e-15 0)
(3 -3.525587222e-15 0)
(3 -3.108963904e-15 0)
(3 -1.554497626e-15 0)
(3 1.961728243e-15 0)
(3 4.146109056e-15 0)
(3 6.643658094e-15 0)
(3 6.24549984e-15 0)
(3 4.554047546e-15 0)
(3 1.512098387e-15 0)
(3 -1.057246954e-15 0)
(3 -2.624947492e-15 0)
(3 -2.800683355e-15 0)
(3 -3.281809462e-15 0)
(3 -3.739998106e-15 0)
(3 -4.292374264e-15 0)
(3 -3.692259377e-15 0)
(3 -3.101780606e-15 0)
(3 -3.10160699e-15 0)
(3 -4.627529823e-15 0)
(3 -8.217545932e-15 0)
(3 -4.078717469e-16 0)
(3 2.547741712e-15 0)
(3 7.475261693e-15 0)
(3 1.030718291e-14 0)
(3 1.069693433e-14 0)
(3 9.418333052e-15 0)
(3 8.975886421e-15 0)
(3 6.739511661e-15 0)
(3 4.493506885e-15 0)
(3 2.418635832e-15 0)
(3 4.62385519e-16 0)
(3 -9.731441142e-16 0)
(3 -4.086793408e-15 0)
(3 -5.579389573e-15 0)
(3 -5.6192012e-15 0)
(3 -5.486230227e-15 0)
(3 -4.438821034e-15 0)
(3 -1.029701952e-15 0)
(3 2.386234336e-15 0)
(3 4.931633309e-15 0)
(3 5.571645209e-15 0)
(3 3.152375153e-15 0)
(3 1.213604665e-15 0)
(3 -9.966287868e-16 0)
(3 -1.829680944e-15 0)
(3 -3.378636615e-15 0)
(3 -2.439731973e-15 0)
(3 -2.930906122e-15 0)
(3 -3.820467803e-15 0)
(3 -4.48090038e-15 0)
(3 -5.844223384e-15 0)
(3 -7.996756853e-15 0)
(3 -1.029169877e-14 0)
(3 3.040555128e-15 0)
(3 5.859081545e-15 0)
(3 8.154300406e-15 0)
(3 1.012143707e-14 0)
(3 8.053390342e-15 0)
(3 5.787401674e-15 0)
(3 4.185015929e-15 0)
(3 2.144086288e-15 0)
(3 -1.827333644e-16 0)
(3 -9.954794727e-17 0)
(3 -5.062077639e-16 0)
(3 -8.470763025e-16 0)
(3 -2.280297909e-15 0)
(3 -2.509740899e-15 0)
(3 -3.356768382e-15 0)
(3 -4.095884373e-15 0)
(3 -4.10448805e-15 0)
(3 -2.202411159e-15 0)
(3 6.152436646e-16 0)
(3 4.188123152e-15 0)
(3 6.42143176e-15 0)
(3 5.681106554e-15 0)
(3 4.126958047e-15 0)
(3 2.922742368e-15 0)
(3 9.083871615e-16 0)
(3 -9.016093264e-16 0)
(3 -1.416924743e-15 0)
(3 -1.077988859e-15 0)
(3 -2.735290037e-15 0)
(3 -5.925632348e-15 0)
(3 -8.350787543e-15 0)
(3 -9.811417048e-15 0)
(3 -1.050913815e-14 0)
(3 2.914667376e-15 0)
(3 3.797111112e-15 0)
(3 4.875725252e-15 0)
(3 5.191421761e-15 0)
(3 4.780172379e-15 0)
(3 3.372775808e-15 0)
(3 1.373786393e-15 0)
(3 -4.800022203e-16 0)
(3 -7.4607109e-16 0)
(3 2.280259821e-16 0)
(3 -8.168486731e-16 0)
(3 -1.554745143e-15 0)
(3 -8.976330576e-16 0)
(3 -4.269236705e-16 0)
(3 -4.368327724e-16 0)
(3 -1.52987638e-15 0)
(3 -3.130357482e-15 0)
(3 -2.42240017e-15 0)
(3 -2.379530584e-15 0)
(3 -6.125988451e-16 0)
(3 5.823421878e-16 0)
(3 4.510300171e-15 0)
(3 4.129232914e-15 0)
(3 3.595420979e-15 0)
(3 3.404000031e-15 0)
(3 2.28926549e-15 0)