/*--------------------------------*- C++ -*----------------------------------*\
  =========                 |
  \\      /  F ield         | OpenFOAM: The Open Source CFD Toolbox
   \\    /   O peration     | Website:  https://openfoam.org
    \\  /    A nd           | Version:  7
     \\/     M anipulation  |
\*---------------------------------------------------------------------------*/
FoamFile
{
    version     2.0;
    format      ascii;
    class       volScalarField;
    location    "4.6";
    object      T;
}
// * * * * * * * * * * * * * * * * * * * * * * * * * * * * * * * * * * * * * //

dimensions      [0 0 0 1 0 0 0];

internalField   nonuniform List<scalar> 5(0.9932971849 0.9577296949 0.9780310174 0.9590374022 0.9668589283);

boundaryField
{
    inlet
    {
        type            fixedValue;
        value           nonuniform 0();
    }
    outlet
    {
        type            inletOutlet;
        inletValue      nonuniform 0();
        value           nonuniform 0();
    }
    bottom
    {
        type            slip;
    }
    top
    {
        type            slip;
    }
    obstacle
    {
        type            zeroGradient;
    }
    defaultFaces
    {
        type            empty;
    }
    procBoundary15to4
    {
        type            processor;
        value           uniform 0.9991826864;
    }
    procBoundary15to9
    {
        type            processor;
        value           nonuniform List<scalar> 3(1.017300841 1.052655173 1.052655173);
    }
    procBoundary15to10
    {
        type            processor;
        value           nonuniform List<scalar> 4(1.024758094 0.9914282768 0.9914282768 1.00536127);
    }
    procBoundary15to21
    {
        type            processor;
        value           uniform 0.9745725978;
    }
}


// ************************************************************************* //
