/*--------------------------------*- C++ -*----------------------------------*\
  =========                 |
  \\      /  F ield         | OpenFOAM: The Open Source CFD Toolbox
   \\    /   O peration     | Website:  https://openfoam.org
    \\  /    A nd           | Version:  7
     \\/     M anipulation  |
\*---------------------------------------------------------------------------*/
FoamFile
{
    version     2.0;
    format      ascii;
    class       volScalarField;
    location    "1.5";
    object      p;
}
// * * * * * * * * * * * * * * * * * * * * * * * * * * * * * * * * * * * * * //

dimensions      [1 -1 -2 0 0 0 0];

internalField   nonuniform List<scalar> 
555
(
1.000626006
0.9998204583
0.9984822188
0.9967868854
0.9967031848
0.6524203867
0.7224844454
0.8298189099
0.9215804948
0.9810043601
0.982994743
0.9891445643
0.9873574189
0.9867029112
0.9893886446
0.9947673868
0.9975823218
0.9990237185
0.9992022901
0.9993533299
0.9993444354
0.7806675575
0.8940964389
0.9408000442
0.9616962982
0.9923192476
0.9964487163
0.996501171
0.9965762747
0.9946579287
0.9945360232
0.9957012476
0.997558149
0.9981511511
0.9990706582
0.9995952184
0.9997390066
0.895877006
0.9566142785
0.9797720515
0.9798515418
0.987881421
0.9940676865
0.9969835693
0.9982251627
0.9988463456
0.9992962663
0.9994466689
0.9993746063
0.9990787231
0.9986979569
0.9986405
0.9989018036
0.9789228699
0.9887058809
0.9964200398
0.9975606613
0.9960626884
0.9963654492
0.9965535298
0.9976102094
0.999102222
0.9999750794
1.000191839
0.9999880053
0.9996547365
0.9990206938
0.9986203573
0.9987290772
0.9929555301
0.9953695801
0.9982183693
0.9999813073
0.9997431416
0.9987126046
0.9974805613
0.9968431249
0.9968685106
0.9975974758
0.9983629521
0.9990497028
0.9994329311
0.9995127577
0.9992439294
0.9990958955
0.9906838849
0.9918006156
0.9934549128
0.996137557
0.9979014743
0.9982179981
0.9982720015
0.9977355998
0.9973269344
0.9971797689
0.9973814203
0.9980747529
0.9990366323
0.9997261916
0.9997825532
0.9996025302
0.9935630928
0.992286171
0.9920412258
0.9933165189
0.9956133821
0.9972158727
0.9981866368
0.9984235625
0.9983205035
0.9983724338
0.9985292295
0.998899137
0.9994300448
0.9999043345
0.9999798975
0.9997047271
0.9957194266
0.9943738275
0.9936959069
0.9944262751
0.9965967105
0.9978513484
0.9984038903
0.9986521783
0.9988532786
0.9991902649
0.9997824731
1.000024304
1.000081588
1.000053915
0.9999640959
0.9995032275
0.9959772325
0.9966187372
0.9972828111
0.9979606423
0.9990430978
0.9992850652
0.9987880556
0.9986179029
0.9987750197
0.9991434374
0.9999415506
1.000269035
1.000304584
1.000172828
1.000006094
0.9995000254
0.9958239012
0.9966446117
0.9979971646
0.9989755807
0.9994827655
0.9997659579
0.9992710916
0.9986904909
0.998555895
0.9988496673
0.999710439
1.000073953
0.9999475643
0.9996630883
0.999594035
0.9995074731
0.9960003614
0.9964666464
0.9976694488
0.9988554494
0.9994601516
0.9997679344
0.9994849093
0.9989157187
0.998818479
0.9988862104
0.9990560337
0.9992555831
0.9992135171
0.9991055045
0.9990394236
0.9990499911
0.9970913396
0.9969835825
0.9973093257
0.9980032859
0.9988631008
0.9992053636
0.9993236902
0.9990046605
0.9989908882
0.9992097147
0.9992926677
0.9993693511
0.9993404863
0.9992831908
0.9991624321
0.9988443824
0.9980412086
0.9977174309
0.9976994701
0.9977743172
0.9980060199
0.9982860751
0.9982450674
0.9983918732
0.9990572949
0.9996556302
0.9999962022
1.000234877
1.00025994
1.000056439
0.9997731351
0.9991087829
0.9982156653
0.9983105425
0.9981755964
0.9982971324
0.9983872306
0.998397996
0.9983025112
0.99829555
0.9986773923
0.9991666299
0.9995501105
0.9999066324
1.000048871
0.9999958396
0.9997892572
0.9991991691
0.9997493857
0.9992264683
0.9988420749
0.9987782458
0.9988200592
0.9988060239
0.9987780604
0.9986330699
0.9985125375
0.9984590502
0.9984367999
0.998502326
0.9986213883
0.9987471005
0.9987631736
0.9988799753
0.9999157051
1.000118909
1.000621345
1.001272032
1.001442394
1.000462561
0.9991705349
0.998211991
0.9977018206
0.998211825
0.9991397846
0.9994983958
0.9997517141
0.9996088117
0.9987057513
0.9977103739
0.9964915942
0.9971794436
0.9995711507
1.002518678
1.003246903
1.002022693
1.000547677
0.9988955071
0.9978552217
0.9978784488
0.9992827134
1.000116216
1.000532005
1.000426818
0.9996421315
0.9979666331
0.9954156471
0.9953855212
0.9969001571
0.9999988979
1.002481767
1.002588345
1.000755479
0.9991157018
0.9982067966
0.9982152535
0.9987735727
0.9994694382
0.9999330091
1.000120676
0.9994262549
0.997325752
0.9962460992
0.995673602
0.9963538988
0.9978841498
0.9993887599
0.9997032835
0.9984855138
0.9974743305
0.9975238743
0.9980664031
0.998444726
0.9988215138
0.9987202343
0.9982163056
0.9974333645
0.9954653451
0.9978412048
0.9970050201
0.9972510167
0.9978889619
0.9977233983
0.9968363452
0.9959139309
0.9957496799
0.9966094897
0.99736345
0.997882023
0.9981150166
0.9978402556
0.9969816769
0.995645795
0.994600918
0.9991015198
0.9979577188
0.9973164322
0.9967602437
0.9956027718
0.9946054157
0.9948050619
0.9954055831
0.9963523147
0.9970404943
0.9976586641
0.9977301142
0.9971966847
0.9963456623
0.9948710971
0.9947113949
0.999660264
0.9973921653
0.9959224563
0.9948808138
0.9943936621
0.9947167959
0.9952016021
0.9961986444
0.9967793272
0.997286814
0.9974549277
0.9975277962
0.9966008303
0.9963780049
0.9967978979
0.9975599318
1.0005061
0.9995796045
0.9985394434
0.9974286402
0.9968078347
0.9970765627
0.9978388205
0.998062977
0.9975601956
0.9976466882
0.9972237814
0.9969837264
0.998374733
0.9993011104
0.9997635366
1.000694187
1.000482707
0.9996604535
0.9993870251
0.9992915299
0.9996802776
1.000426805
1.001541478
1.001635002
1.000320274
0.9984255947
0.9979240099
0.9986901224
0.9997769248
1.001151288
1.001902404
1.002908935
0.9998418883
0.9994232964
0.9998563287
1.000302764
1.001229484
1.002396352
1.003018525
1.002408868
1.001067751
1.000099393
0.9995127503
0.9994845273
1.000864517
1.0022085
1.00238868
1.003043785
0.998285897
0.9988493513
0.9995740572
1.000464205
1.002522443
1.003189976
1.00319892
1.002251721
1.001066658
1.000029574
0.9997768133
1.000113816
1.001356441
1.001038356
1.000408098
1.000381784
0.9979178365
0.9983771207
0.9999065132
1.001291962
1.001413934
1.00191318
1.001529251
1.000499288
0.9998661821
0.9995601679
0.9998749404
0.9999545432
0.9996698129
0.998633622
0.9975445073
0.9969613447
0.9980507851
0.9978503164
0.9984079919
0.9994608378
0.999832469
0.9995673087
0.9990262675
0.9985529268
0.9985255478
0.9989149156
0.9987517193
0.998538344
0.9977222938
0.9964196734
0.9953169179
0.9945549455
0.9994925823
0.9982198417
0.997647424
0.9980520928
0.9983759874
0.998233059
0.9975342892
0.9971546359
0.9976207843
0.9980533806
0.998393413
0.9981465204
0.9973973857
0.9963636904
0.9950741691
0.9941925948
0.9933297379
1.00086118
0.9995019507
0.9977875147
0.9977076228
0.9973045222
0.9966815889
0.995938516
0.9964151187
0.997227177
0.9977378203
0.997883365
0.9975471132
0.9967055279
0.995720062
0.994449616
0.9936974574
0.9929078689
1.001105548
1.000864291
0.9992567711
0.9969680697
0.9959479765
0.9955749939
0.995627842
0.9962823211
0.9973979334
0.9980239546
0.9982336249
0.9981764409
0.9976789165
0.9971386498
0.9964462912
0.9960207209
0.995451507
1.000741108
1.000464025
0.999829791
0.9986108422
0.9972562576
0.9967772506
0.9969526829
0.997672589
0.9985439237
0.9992322999
0.999999716
1.000640182
1.001024039
1.001251226
1.001421019
1.001042941
1.000543782
0.9994361264
0.999520738
0.9991406525
0.9987005457
0.9980670086
0.9977010072
0.9980464113
0.9986715856
0.9992865345
0.9998791254
1.000927009
1.001997224
1.002940073
1.00333715
1.003495085
1.002849438
1.002312952
0.9984649485
0.9986127531
0.9985265167
0.9985492398
0.9983048655
0.9979300839
0.9982143161
0.9984214307
0.9988853737
0.9991961297
1.000137514
1.00137937
1.002582815
1.003476719
1.003534016
1.002717605
1.002393461
)
;

boundaryField
{
    inlet
    {
        type            fixedValue;
        value           nonuniform 0();
    }
    outlet
    {
        type            zeroGradient;
    }
    bottom
    {
        type            slip;
    }
    top
    {
        type            slip;
    }
    obstacle
    {
        type            zeroGradient;
    }
    defaultFaces
    {
        type            empty;
    }
    procBoundary11to5
    {
        type            processor;
        value           nonuniform List<scalar> 
17
(
1.000046247
0.9987405133
0.9949020209
0.9930942158
0.9943659957
0.6195803195
0.6310405644
0.6847443842
0.770365338
0.8733445661
0.914861859
0.9645383706
0.9786932533
0.9858097569
0.9942489445
0.9996297224
0.9996297224
)
;
    }
    procBoundary11to10
    {
        type            processor;
        value           nonuniform List<scalar> 
34
(
0.6185528848
0.6731900876
0.8338835758
0.9708585359
0.9890667828
0.9867872208
0.9944647716
0.9965831162
0.995355319
0.9951896229
0.9968786098
0.9979687849
0.9979251983
0.9975614779
0.9996227138
0.9996209749
0.9971286535
0.9966335071
0.9977709407
0.9990328043
0.999800054
1.000718889
1.000858831
1.000712918
0.9996705129
0.9988572096
0.9987017114
0.9987720983
0.9987720983
1.000720083
1.001203969
1.000978687
0.9997926883
0.9986213493
)
;
    }
    procBoundary11to16
    {
        type            processor;
        value           uniform 0.9978473789;
    }
    procBoundary11to17
    {
        type            processor;
        value           nonuniform List<scalar> 
17
(
0.99790689
0.9980921177
0.9983434903
0.9988228649
0.9988629898
0.9983410558
0.9983463827
0.9979375055
0.9975694209
0.9977633314
0.9985269141
0.9997955836
1.001452505
1.003725858
1.003552077
1.002576496
1.002136096
)
;
    }
}


// ************************************************************************* //
