/*--------------------------------*- C++ -*----------------------------------*\
  =========                 |
  \\      /  F ield         | OpenFOAM: The Open Source CFD Toolbox
   \\    /   O peration     | Website:  https://openfoam.org
    \\  /    A nd           | Version:  7
     \\/     M anipulation  |
\*---------------------------------------------------------------------------*/
FoamFile
{
    version     2.0;
    format      ascii;
    class       volScalarField;
    location    "2.6";
    object      rho;
}
// * * * * * * * * * * * * * * * * * * * * * * * * * * * * * * * * * * * * * //

dimensions      [1 -3 0 0 0 0 0];

internalField   nonuniform List<scalar> 
2222
(
2.816690785
2.827000587
2.8307543
2.830493851
2.828429888
2.818943464
2.823295083
2.828407087
2.835675321
2.842434755
2.843668286
2.844805139
2.845527558
2.845524032
2.845555838
2.845837253
2.828554617
2.82864304
2.831132631
2.840210068
2.851588595
2.857013822
2.858242989
2.858632279
2.85754985
2.854721211
2.85278266
2.85190739
2.852001242
2.853013571
2.852711751
2.85149906
2.849311067
2.828455989
2.828625385
2.831265972
2.840515983
2.851781759
2.857018209
2.858194009
2.858555227
2.857389512
2.854567288
2.852717782
2.851896408
2.852070042
2.85309818
2.852780388
2.851530306
2.849283066
2.847817016
2.847821598
2.848359959
2.848805248
2.848692178
2.84829665
2.847584822
2.847020801
2.847130291
2.848023656
2.850249251
2.852195534
2.852240601
2.85160923
2.850078084
2.847572336
2.84550823
2.845202913
2.84553565
2.847332216
2.850205106
2.851201004
2.850792591
2.849694029
2.847631952
2.845071627
2.844043846
2.844103664
2.844787922
2.846528049
2.848613168
2.849339023
2.84922281
2.848582121
2.847444009
2.846262005
2.84556952
2.84530007
2.84530181
2.845520104
2.84624814
2.847034774
2.847512449
2.847694015
2.847661912
2.847428281
2.84683414
2.846023664
2.845182729
2.845068677
2.818854665
2.823239253
2.828399706
2.835785502
2.842447485
2.843663041
2.844846598
2.845541188
2.84550696
2.845530069
2.845821123
2.845948134
2.845894934
2.845499407
2.844736407
2.844111588
2.844272352
2.844955457
2.846452015
2.849099188
2.850636136
2.850460832
2.849434928
2.84691688
2.843509668
2.842259174
2.842416134
2.843461534
2.846170599
2.848602731
2.848935305
2.848786036
2.847989571
2.846078511
2.84424631
2.843743684
2.843703376
2.844165539
2.845566929
2.846736208
2.846888459
2.84655211
2.845924747
2.845366229
2.845098052
2.844841865
2.844576865
2.844416976
2.844462568
2.84498067
2.84554395
2.845848991
2.84596171
2.845897614
2.845604535
2.845038029
2.844250563
2.843575842
2.843444337
2.843773015
2.844832244
2.846010923
2.846388748
2.846363443
2.84612265
2.845529385
2.844338175
2.816730254
2.827068584
2.830764761
2.830474465
2.828362902
2.824976815
2.821443472
2.820775154
2.822089592
2.82543901
2.831136329
2.837726002
2.841101492
2.842021129
2.842087978
2.840019432
2.83790942
2.838161527
2.83899996
2.841408593
2.844391643
2.844749492
2.843815035
2.841482081
2.838146649
2.8353771
2.834756569
2.835148079
2.836331257
2.838893453
2.841568647
2.842438023
2.842384753
2.841634467
2.840479414
2.839485947
2.838399067
2.837723927
2.837598313
2.837855981
2.838908844
2.840435549
2.841528991
2.841996914
2.842012221
2.84173358
2.841016018
2.839386236
2.837742132
2.837311854
2.837700587
2.838979373
2.840952048
2.842135401
2.842186421
2.84200066
2.841524639
2.840111903
2.838511143
2.838208797
2.838515998
2.839595371
2.841427549
2.842746353
2.842926701
2.842617195
2.841480001
2.822489479
2.817334829
2.814698232
2.810141728
2.805251514
2.802359506
2.79911803
2.799614041
2.802318869
2.807349562
2.816261989
2.828495151
2.833515289
2.834394349
2.834438644
2.832398752
2.828240355
2.825472249
2.825509519
2.826504243
2.828694736
2.831626088
2.833627384
2.834052128
2.833545384
2.831932346
2.830301691
2.828956719
2.828146165
2.827868522
2.828223472
2.829500798
2.831229379
2.832935805
2.833791464
2.83385137
2.833821988
2.833261409
2.831659597
2.830114463
2.829698379
2.830234675
2.831858049
2.834353194
2.836026887
2.836172425
2.835712248
2.834605533
2.8325864
2.830816327
2.830336184
2.830509458
2.83161917
2.833963314
2.836085673
2.836655556
2.836502591
2.835589291
2.834188698
2.832883282
2.832456627
2.832503029
2.83294888
2.834214654
2.835815905
2.836728792
2.836609596
2.799738252
2.782186759
2.783680397
2.790461024
2.799373837
2.802058955
2.802622787
2.79885826
2.798554275
2.800497968
2.803789873
2.810196598
2.817391981
2.820132876
2.821101989
2.821712699
2.821138698
2.819380124
2.818506235
2.819547817
2.821276955
2.822900618
2.825036383
2.827229494
2.828580441
2.828886679
2.828289344
2.827001583
2.825367483
2.823363315
2.821173952
2.820102086
2.820355285
2.822008916
2.825764541
2.829516739
2.830511988
2.830450348
2.829681893
2.827378923
2.824592319
2.823283341
2.823255149
2.824141657
2.826543541
2.829413426
2.83078634
2.830893854
2.830154609
2.828385095
2.826378085
2.825466303
2.825182731
2.825381159
2.826723185
2.828638796
2.830078308
2.830654087
2.830598662
2.830006832
2.828993885
2.828069926
2.827504369
2.827316176
2.827600175
2.828539248
2.830399998
2.820333137
2.818308548
2.818635776
2.829454154
2.835230181
2.833334845
2.82934655
2.822646438
2.816264652
2.809426236
2.800858026
2.794962229
2.794981529
2.79609443
2.798881977
2.805230477
2.813493145
2.817654573
2.821607818
2.824324576
2.823913223
2.821743555
2.818748647
2.817981816
2.818578563
2.821741317
2.826107169
2.827771418
2.827822423
2.826879699
2.823508585
2.819188568
2.817980009
2.818277517
2.819460358
2.822683943
2.826824789
2.828464443
2.828422624
2.827262689
2.824562512
2.821630644
2.820621199
2.820820788
2.821446801
2.823070016
2.825797704
2.827967704
2.828568846
2.828381539
2.827507252
2.82578367
2.824022131
2.823071541
2.822805399
2.822913019
2.823831161
2.825691029
2.827542281
2.82823861
2.828290654
2.827934266
2.826736553
2.825423056
2.82471816
2.824501982
2.825253541
2.826120745
2.857166328
2.86675641
2.861859521
2.857582053
2.853215121
2.847100481
2.837178149
2.821692946
2.81194527
2.803501054
2.796048144
2.791180038
2.790546989
2.792277202
2.79839237
2.809101533
2.821507284
2.827403433
2.828187167
2.827112451
2.8220509
2.813901709
2.810834939
2.811317577
2.81381724
2.819406598
2.827081089
2.830985946
2.831497541
2.831252453
2.828721222
2.823721346
2.819979776
2.818997769
2.818849021
2.820174997
2.822637097
2.825022888
2.826692423
2.827279969
2.827153629
2.825482393
2.823000526
2.821774389
2.821716433
2.822060285
2.82316755
2.82531924
2.827592892
2.828343269
2.828218955
2.827478645
2.825260728
2.82264571
2.821722357
2.821754231
2.822380542
2.824006262
2.826556734
2.828317831
2.828517107
2.82831519
2.827150137
2.824807872
2.82337373
2.823267009
2.355495304
2.568070631
2.71733964
2.731421769
2.766662422
2.78253864
2.78248612
2.797577216
2.818516394
2.827816827
2.831322367
2.830803932
2.828508898
2.822803839
2.815789665
2.812757859
2.81076278
2.812526769
2.817312486
2.819643811
2.820733719
2.821478606
2.819992173
2.81571522
2.815229946
2.816721827
2.819317679
2.823061547
2.827629146
2.83234158
2.834187139
2.833959737
2.832423415
2.829207793
2.824694659
2.82121714
2.820009791
2.819964955
2.820932487
2.823795025
2.828371719
2.83160157
2.832119997
2.831533974
2.82898342
2.824735839
2.822359198
2.822124631
2.822424876
2.823970604
2.826878412
2.82956482
2.830271152
2.829995017
2.828534565
2.825749273
2.823583865
2.823210978
2.823444791
2.824475788
2.826495486
2.828492253
2.829234718
2.829075842
2.828470705
2.826809362
2.824799768
1.576212817
1.721536826
1.948478661
2.160397211
2.373167501
2.594384986
2.65926448
2.723628809
2.806650169
2.824904265
2.836402822
2.848027167
2.848223116
2.844510848
2.836146974
2.821512974
2.802025764
2.794576495
2.795704051
2.800806651
2.810091921
2.822003456
2.831001466
2.833796263
2.834557732
2.833484823
2.828155733
2.822269333
2.820782847
2.821607052
2.825208471
2.830710165
2.835071502
2.836685628
2.836651837
2.833954237
2.828797316
2.824859192
2.824191044
2.824782911
2.826711306
2.83093325
2.834583631
2.83515347
2.83469224
2.832719462
2.82856473
2.825123703
2.824539003
2.824843023
2.825929912
2.828254757
2.831637014
2.833630437
2.833803957
2.833250136
2.830971207
2.827763264
2.826070557
2.826079994
2.826305444
2.827092358
2.828679312
2.830795338
2.831851684
2.8318436
2.830930738
1.40217561
1.408015772
1.431082637
1.487182012
1.579211314
1.756887866
1.975505303
2.165724608
2.420760591
2.548304059
2.625624964
2.721095814
2.786706362
2.793591334
2.80754432
2.818145758
2.813950567
2.809312447
2.811930861
2.813971461
2.818259709
2.827519685
2.838887313
2.844121458
2.844040032
2.841285099
2.835066496
2.826212622
2.81865616
2.818019211
2.819680384
2.823810816
2.83120068
2.840690327
2.845846095
2.846597555
2.845420831
2.84057955
2.833615794
2.828957483
2.828375708
2.828390091
2.829879868
2.833804727
2.837537396
2.838968346
2.838898155
2.836901511
2.833236724
2.830077382
2.829144545
2.829607979
2.830757544
2.833134885
2.836041639
2.837339156
2.837471918
2.836761342
2.834287191
2.830907982
2.829100422
2.829094411
2.829768698
2.831000406
2.833300665
2.835302008
2.836516841
1.400005509
1.40001239
1.40009062
1.40057736
1.402531531
1.410872826
1.43874619
1.489722605
1.598099453
1.786164067
1.974725
2.213974667
2.412624139
2.526554183
2.658965383
2.783017011
2.799384613
2.819245479
2.836192803
2.834067686
2.829578077
2.827866073
2.826728732
2.826588109
2.830233659
2.83510195
2.83527853
2.833919322
2.829809644
2.82616061
2.826642405
2.828134085
2.830898955
2.837252132
2.844279629
2.847337408
2.847467349
2.846100559
2.844041247
2.839050994
2.832367273
2.830124161
2.8304432
2.831807931
2.835070802
2.840501201
2.844162733
2.844970352
2.844737752
2.842529691
2.837482488
2.833089017
2.832305419
2.832489572
2.833547746
2.836497594
2.84015703
2.841891349
2.842261782
2.841500107
2.838625467
2.834808427
2.832871564
2.832857123
2.833634019
2.835169479
2.8384918
1.400005039
1.400005036
1.400005058
1.400005054
1.400005855
1.400019344
1.40013252
1.400666022
1.403116972
1.414201241
1.440928394
1.501326829
1.632383379
1.794442006
1.990784699
2.239184194
2.400999096
2.549173264
2.722976473
2.753642117
2.765474367
2.783301455
2.778831554
2.778431678
2.7979684
2.822282032
2.834600958
2.844709087
2.85246399
2.852676411
2.851256107
2.84720072
2.838152996
2.829656524
2.828868898
2.830965112
2.836752411
2.844636194
2.848886974
2.849551554
2.847154099
2.841663863
2.837438747
2.835957909
2.836445482
2.83795635
2.842745547
2.847598291
2.848773405
2.848240074
2.846518943
2.842220351
2.836940141
2.834545332
2.834679201
2.835903798
2.838372065
2.842701315
2.845956127
2.846682346
2.846605046
2.845068782
2.841383598
2.837446112
2.835977062
2.836095775
2.837371092
1.40000504
1.40000504
1.40000504
1.40000504
1.400005039
1.400005035
1.400005065
1.40000504
1.400006587
1.400027986
1.400166105
1.400876782
1.404465238
1.415787872
1.443322759
1.521128619
1.652263618
1.808824815
2.043594544
2.243455956
2.413164291
2.642471801
2.713480163
2.741932717
2.79113743
2.817212488
2.823230821
2.835334097
2.847833209
2.853131591
2.854313974
2.850867547
2.837897582
2.822992528
2.819095987
2.821285428
2.826663939
2.836311663
2.847753568
2.85442874
2.855818285
2.855789423
2.853117203
2.84689619
2.839660557
2.836982923
2.83662816
2.837608195
2.841211568
2.846623943
2.849606466
2.850133531
2.849252591
2.84581089
2.841067322
2.838638815
2.838707221
2.839323965
2.841440054
2.845416334
2.848328736
2.848825376
2.848748678
2.846932465
2.842883219
2.839243364
2.838529565
1.40000504
1.40000504
1.40000504
1.40000504
1.40000504
1.40000504
1.40000504
1.400005038
1.400005037
1.400005041
1.400005034
1.400005106
1.400008079
1.400034433
1.400199426
1.401256404
1.405669376
1.417364478
1.45393088
1.538754442
1.653397092
1.852109399
2.082358202
2.263988025
2.502140973
2.625301655
2.665390979
2.720465555
2.768191111
2.798392022
2.820311665
2.831540775
2.835163909
2.837136851
2.838624062
2.839131739
2.839173946
2.840291516
2.843114181
2.849824596
2.856080836
2.858012624
2.857165422
2.85404296
2.848138629
2.839825291
2.835355462
2.835226407
2.836722764
2.840637841
2.847820553
2.85454752
2.856008736
2.855580301
2.853144269
2.847608086
2.841372489
2.838986021
2.838884941
2.839409956
2.842441008
2.848077455
2.851444197
2.851928258
2.851470253
2.848873971
2.843441609
1.40000504
1.40000504
1.40000504
1.40000504
1.40000504
1.40000504
1.40000504
1.40000504
1.40000504
1.40000504
1.400005039
1.400005038
1.400005038
1.40000504
1.400005016
1.400005328
1.40000982
1.400043354
1.4002924
1.401678205
1.406217122
1.421986595
1.471683592
1.548588361
1.685468768
1.899760934
2.101083604
2.343840788
2.51909762
2.603156903
2.692359099
2.789865054
2.816053705
2.833623913
2.85170487
2.852461421
2.851341284
2.844869027
2.829787252
2.822150973
2.824175699
2.834391642
2.846578287
2.852988424
2.85486026
2.8541696
2.849484333
2.844636167
2.841237278
2.840205032
2.840791176
2.84522513
2.851384454
2.8546276
2.855001659
2.854292804
2.851390614
2.845221521
2.839823577
2.838855864
2.839397167
2.841322112
2.845841303
2.851613333
2.854170967
2.85431014
2.853222869
1.40000504
1.40000504
1.40000504
1.40000504
1.40000504
1.40000504
1.40000504
1.40000504
1.40000504
1.40000504
1.40000504
1.40000504
1.40000504
1.40000504
1.400005037
1.400005038
1.400005038
1.400005043
1.400005044
1.400005564
1.400011551
1.400068168
1.400481811
1.402069724
1.407780105
1.431013434
1.480055382
1.57261487
1.749970114
1.941070528
2.156952847
2.390852465
2.508975227
2.622065911
2.755021163
2.804781836
2.811388034
2.816659855
2.816164609
2.805579031
2.809006745
2.819801317
2.835222631
2.8490453
2.859490477
2.863887905
2.864259179
2.862604487
2.856289198
2.844820068
2.836563797
2.834908314
2.835496528
2.839443854
2.848409288
2.856237829
2.857758195
2.857267272
2.85343049
2.846112912
2.840637845
2.839739716
2.840203262
2.842643134
2.848262369
2.853934075
2.856061976
1.40000504
1.40000504
1.40000504
1.40000504
1.40000504
1.40000504
1.40000504
1.40000504
1.40000504
1.40000504
1.40000504
1.40000504
1.40000504
1.40000504
1.40000504
1.40000504
1.40000504
1.40000504
1.40000504
1.40000504
1.400005037
1.400005055
1.40000508
1.400005846
1.400015942
1.400117766
1.400657559
1.402845113
1.412811502
1.438727142
1.49158154
1.61983434
1.799347734
1.99862609
2.24930296
2.412715912
2.55093486
2.727602911
2.790352655
2.803483985
2.829602045
2.833591669
2.83488534
2.839113822
2.844374024
2.854411127
2.861719842
2.863033562
2.860721526
2.85327606
2.84219767
2.833687438
2.83132383
2.832117531
2.836326346
2.846304218
2.857210821
2.861003006
2.8610703
2.859401194
2.853658523
2.844924067
2.839549647
2.838762964
2.839235141
2.842446289
2.850551056
1.40000504
1.40000504
1.40000504
1.40000504
1.40000504
1.40000504
1.40000504
1.40000504
1.40000504
1.40000504
1.40000504
1.40000504
1.40000504
1.40000504
1.40000504
1.40000504
1.40000504
1.40000504
1.40000504
1.40000504
1.40000504
1.40000504
1.40000504
1.400005039
1.400005036
1.400005061
1.400005109
1.400006827
1.400029285
1.400176821
1.400884347
1.404779762
1.418431316
1.448989316
1.530980608
1.670824036
1.837986947
2.095647186
2.302018528
2.467830692
2.680389156
2.752260407
2.759109086
2.780180222
2.784318529
2.791866002
2.822192974
2.846285322
2.855308703
2.861174096
2.861599056
2.858756919
2.850792912
2.840389858
2.835875005
2.835304774
2.838254938
2.847275247
2.856831556
2.860635365
2.860774738
2.858912009
2.852652279
2.843664865
2.838595688
2.837832772
2.838334803
1.40000504
1.40000504
1.40000504
1.40000504
1.40000504
1.40000504
1.40000504
1.40000504
1.40000504
1.40000504
1.40000504
1.40000504
1.40000504
1.40000504
1.40000504
1.40000504
1.40000504
1.40000504
1.40000504
1.40000504
1.40000504
1.40000504
1.40000504
1.40000504
1.40000504
1.40000504
1.40000504
1.400005039
1.400005043
1.400005031
1.400005202
1.400009894
1.400052426
1.400288622
1.401669452
1.407547302
1.423169553
1.473707573
1.584181172
1.721377637
1.946172275
2.168829953
2.3589122
2.614501848
2.701338394
2.727773723
2.774455636
2.803875738
2.83122873
2.853394655
2.865872121
2.868242278
2.867310213
2.860949516
2.849415976
2.833982181
2.827939134
2.828418778
2.832323749
2.844502629
2.858889127
2.863396644
2.863398513
2.860862444
2.85285298
2.842033226
2.8353655
1.40000504
1.40000504
1.40000504
1.40000504
1.40000504
1.40000504
1.40000504
1.40000504
1.40000504
1.40000504
1.40000504
1.40000504
1.40000504
1.40000504
1.40000504
1.40000504
1.40000504
1.40000504
1.40000504
1.40000504
1.40000504
1.40000504
1.40000504
1.40000504
1.40000504
1.40000504
1.40000504
1.40000504
1.40000504
1.400005039
1.400005038
1.400005037
1.400005047
1.400005031
1.400005745
1.4000154
1.400085724
1.400606581
1.403372172
1.411265612
1.43795634
1.51098787
1.620120506
1.821248292
2.054405098
2.254307077
2.515977122
2.629870692
2.676793595
2.738038474
2.785164439
2.833370046
2.85695176
2.86285407
2.863696712
2.857059366
2.843643143
2.831487999
2.826113685
2.826976401
2.834964593
2.849399525
2.860649356
2.863825486
2.86325551
2.859795753
2.848380771
1.40000504
1.40000504
1.40000504
1.40000504
1.40000504
1.40000504
1.40000504
1.40000504
1.40000504
1.40000504
1.40000504
1.40000504
1.40000504
1.40000504
1.40000504
1.40000504
1.40000504
1.40000504
1.40000504
1.40000504
1.40000504
1.40000504
1.40000504
1.40000504
1.40000504
1.40000504
1.40000504
1.40000504
1.40000504
1.40000504
1.40000504
1.40000504
1.40000504
1.400005038
1.400005039
1.40000504
1.400005028
1.400005134
1.400007533
1.40002771
1.400194085
1.40130008
1.40525882
1.420405591
1.469944208
1.548491678
1.703155113
1.927510853
2.143143812
2.422014821
2.556987109
2.638268657
2.727443962
2.801784863
2.840388646
2.856034758
2.862021674
2.861350022
2.848144213
2.831978352
2.825521233
2.824827514
2.829556822
2.844129382
2.85949743
2.863750117
2.864076474
1.40000504
1.40000504
1.40000504
1.40000504
1.40000504
1.40000504
1.40000504
1.40000504
1.40000504
1.40000504
1.40000504
1.40000504
1.40000504
1.40000504
1.40000504
1.40000504
1.40000504
1.40000504
1.40000504
1.40000504
1.40000504
1.40000504
1.40000504
1.40000504
1.40000504
1.40000504
1.40000504
1.40000504
1.40000504
1.40000504
1.40000504
1.40000504
1.40000504
1.40000504
1.40000504
1.40000504
1.400005038
1.400005039
1.400005039
1.400005045
1.400005038
1.400005493
1.400011423
1.400072095
1.400548017
1.402370633
1.40990867
1.440048448
1.498488771
1.624301318
1.829570885
2.033912531
2.305515776
2.478653755
2.586461602
2.697276537
2.802542652
2.838499878
2.849157142
2.853624311
2.848408174
2.826774101
2.818934025
2.820576297
2.828710313
2.846461295
2.864176611
1.40000504
1.40000504
1.40000504
1.40000504
1.40000504
1.40000504
1.40000504
1.40000504
1.40000504
1.40000504
1.40000504
1.40000504
1.40000504
1.40000504
1.40000504
1.40000504
1.40000504
1.40000504
1.40000504
1.40000504
1.40000504
1.40000504
1.40000504
1.40000504
1.40000504
1.40000504
1.40000504
1.40000504
1.40000504
1.40000504
1.40000504
1.40000504
1.40000504
1.40000504
1.40000504
1.40000504
1.40000504
1.40000504
1.40000504
1.40000504
1.40000504
1.40000504
1.400005038
1.400005044
1.400005113
1.40000655
1.400025823
1.400217642
1.401135241
1.405380445
1.423770369
1.462271241
1.555037807
1.738408235
1.941305862
2.206163847
2.408562102
2.541890156
2.684061389
2.802932542
2.830483706
2.838189916
2.84149549
2.83182875
2.817695058
2.819317681
2.830481329
1.40000504
1.40000504
1.40000504
1.40000504
1.40000504
1.40000504
1.40000504
1.40000504
1.40000504
1.40000504
1.40000504
1.40000504
1.40000504
1.40000504
1.40000504
1.40000504
1.40000504
1.40000504
1.40000504
1.40000504
1.40000504
1.40000504
1.40000504
1.40000504
1.40000504
1.40000504
1.40000504
1.40000504
1.40000504
1.40000504
1.40000504
1.40000504
1.40000504
1.40000504
1.40000504
1.40000504
1.40000504
1.40000504
1.40000504
1.40000504
1.40000504
1.40000504
1.40000504
1.40000504
1.40000504
1.400005039
1.400005045
1.400005042
1.400005426
1.400012383
1.400088381
1.400497616
1.402694643
1.414114808
1.44190636
1.513516439
1.66739081
1.84962118
2.10696264
2.336344749
2.492196812
2.65984548
2.795579025
2.821445675
2.823164788
2.825603003
2.813689513
1.40000504
1.40000504
1.40000504
1.40000504
1.40000504
1.40000504
1.40000504
1.40000504
1.40000504
1.40000504
1.40000504
1.40000504
1.40000504
1.40000504
1.40000504
1.40000504
1.40000504
1.40000504
1.40000504
1.40000504
1.40000504
1.40000504
1.40000504
1.40000504
1.40000504
1.40000504
1.40000504
1.40000504
1.40000504
1.40000504
1.40000504
1.40000504
1.40000504
1.40000504
1.40000504
1.40000504
1.40000504
1.40000504
1.40000504
1.40000504
1.40000504
1.40000504
1.40000504
1.40000504
1.40000504
1.40000504
1.40000504
1.40000504
1.400005039
1.40000504
1.400005039
1.40000509
1.400007476
1.400041693
1.400255202
1.401508876
1.40826805
1.426375082
1.479804975
1.611402654
1.777792548
2.022559119
2.269371348
2.448067709
2.631349378
2.789531609
2.802016103
1.40000504
1.40000504
1.40000504
1.40000504
1.40000504
1.40000504
1.40000504
1.40000504
1.40000504
1.40000504
1.40000504
1.40000504
1.40000504
1.40000504
1.40000504
1.40000504
1.40000504
1.40000504
1.40000504
1.40000504
1.40000504
1.40000504
1.40000504
1.40000504
1.40000504
1.40000504
1.40000504
1.40000504
1.40000504
1.40000504
1.40000504
1.40000504
1.40000504
1.40000504
1.40000504
1.40000504
1.40000504
1.40000504
1.40000504
1.40000504
1.40000504
1.40000504
1.40000504
1.40000504
1.40000504
1.40000504
1.40000504
1.40000504
1.40000504
1.40000504
1.40000504
1.400005039
1.400005038
1.400005049
1.400005039
1.400005871
1.400019502
1.400120455
1.400821566
1.405178069
1.417636511
1.45922637
1.564047566
1.71654574
1.943414765
2.194216759
2.417426156
1.40000504
1.40000504
1.40000504
1.40000504
1.40000504
1.40000504
1.40000504
1.40000504
1.40000504
1.40000504
1.40000504
1.40000504
1.40000504
1.40000504
1.40000504
1.40000504
1.40000504
1.40000504
1.40000504
1.40000504
1.40000504
1.40000504
1.40000504
1.40000504
1.40000504
1.40000504
1.40000504
1.40000504
1.40000504
1.40000504
1.40000504
1.40000504
1.40000504
1.40000504
1.40000504
1.40000504
1.40000504
1.40000504
1.40000504
1.40000504
1.40000504
1.40000504
1.40000504
1.40000504
1.40000504
1.40000504
1.40000504
1.40000504
1.40000504
1.40000504
1.40000504
1.40000504
1.40000504
1.40000504
1.400005039
1.400005039
1.400005042
1.400005031
1.400005304
1.400012018
1.400063002
1.400504374
1.403083551
1.411714522
1.445104869
1.527881091
1.626198275
1.40000504
1.40000504
1.40000504
1.40000504
1.40000504
1.40000504
1.40000504
1.40000504
1.40000504
1.40000504
1.40000504
1.40000504
1.40000504
1.40000504
1.40000504
1.40000504
1.40000504
1.40000504
1.40000504
1.40000504
1.40000504
1.40000504
1.40000504
1.40000504
1.40000504
1.40000504
1.40000504
1.40000504
1.40000504
1.40000504
1.40000504
1.40000504
1.40000504
1.40000504
1.40000504
1.40000504
1.40000504
1.40000504
1.40000504
1.40000504
1.40000504
1.40000504
1.40000504
1.40000504
1.40000504
1.40000504
1.40000504
1.40000504
1.40000504
1.40000504
1.40000504
1.40000504
1.40000504
1.40000504
1.40000504
1.40000504
1.40000504
1.400005039
1.400005039
1.40000504
1.400005032
1.400005139
1.400007831
1.400037473
1.400290219
1.403427264
1.395583873
1.40000504
1.40000504
1.40000504
1.40000504
1.40000504
1.40000504
1.40000504
1.40000504
1.40000504
1.40000504
1.40000504
1.40000504
1.40000504
1.40000504
1.40000504
1.40000504
1.40000504
1.40000504
1.40000504
1.40000504
1.40000504
1.40000504
1.40000504
1.40000504
1.40000504
1.40000504
1.40000504
1.40000504
1.40000504
1.40000504
1.40000504
1.40000504
1.40000504
1.40000504
1.40000504
1.40000504
1.40000504
1.40000504
1.40000504
1.40000504
1.40000504
1.40000504
1.40000504
1.40000504
1.40000504
1.40000504
1.40000504
1.40000504
1.40000504
1.40000504
1.40000504
1.40000504
1.40000504
1.40000504
1.40000504
1.40000504
1.40000504
1.40000504
1.40000504
1.40000504
1.40000504
1.40000504
1.400005039
1.400005053
1.400005039
1.40001865
1.399295964
1.40000504
1.40000504
1.40000504
1.40000504
1.40000504
1.40000504
1.40000504
1.40000504
1.40000504
1.40000504
1.40000504
1.40000504
1.40000504
1.40000504
1.40000504
1.40000504
1.40000504
1.40000504
1.40000504
1.40000504
1.40000504
1.40000504
1.40000504
1.40000504
1.40000504
1.40000504
1.40000504
1.40000504
1.40000504
1.40000504
1.40000504
1.40000504
1.40000504
1.40000504
1.40000504
1.40000504
1.40000504
1.40000504
1.40000504
1.40000504
1.40000504
1.40000504
1.40000504
1.40000504
1.40000504
1.40000504
1.40000504
1.40000504
1.40000504
1.40000504
1.40000504
1.40000504
1.40000504
1.40000504
1.40000504
1.40000504
1.40000504
1.40000504
1.40000504
1.40000504
1.40000504
1.40000504
1.40000504
1.40000504
1.40000504
1.40000504
1.40000504
1.40000504
1.40000504
1.40000504
1.40000504
1.40000504
1.40000504
1.40000504
1.40000504
1.40000504
1.40000504
1.40000504
1.40000504
1.40000504
1.40000504
1.40000504
1.40000504
1.40000504
1.40000504
1.40000504
1.40000504
1.40000504
1.40000504
1.40000504
1.40000504
1.40000504
1.40000504
1.40000504
1.40000504
1.40000504
1.40000504
1.40000504
1.40000504
1.40000504
1.40000504
1.40000504
1.40000504
1.40000504
1.40000504
1.40000504
1.40000504
1.40000504
1.40000504
1.40000504
1.40000504
1.40000504
1.40000504
1.40000504
1.40000504
1.40000504
1.40000504
1.40000504
1.40000504
1.40000504
1.40000504
1.40000504
1.40000504
1.40000504
1.40000504
1.40000504
1.40000504
1.40000504
1.40000504
1.40000504
1.40000504
1.40000504
1.40000504
1.40000504
1.40000504
1.40000504
1.40000504
1.40000504
1.40000504
1.40000504
1.40000504
1.40000504
1.40000504
1.40000504
1.40000504
1.40000504
1.40000504
1.40000504
1.40000504
1.40000504
1.40000504
1.40000504
1.40000504
1.40000504
1.40000504
1.40000504
1.40000504
1.40000504
1.40000504
1.40000504
1.40000504
1.40000504
1.40000504
1.40000504
1.40000504
1.40000504
1.40000504
1.40000504
1.40000504
1.40000504
1.40000504
1.40000504
1.40000504
1.40000504
1.40000504
1.40000504
1.40000504
1.40000504
1.40000504
1.40000504
1.40000504
1.40000504
1.40000504
1.40000504
1.40000504
1.40000504
1.40000504
1.40000504
1.40000504
1.40000504
1.40000504
1.40000504
1.40000504
1.40000504
1.40000504
1.40000504
1.40000504
1.40000504
1.40000504
1.40000504
1.40000504
1.40000504
1.40000504
1.40000504
1.40000504
1.40000504
1.40000504
1.40000504
1.40000504
1.40000504
1.40000504
1.40000504
1.40000504
1.40000504
1.40000504
1.40000504
1.40000504
1.40000504
1.40000504
1.40000504
1.40000504
1.40000504
1.40000504
1.40000504
1.40000504
1.40000504
1.40000504
1.40000504
1.40000504
1.40000504
1.40000504
1.40000504
1.40000504
1.40000504
1.40000504
1.40000504
1.40000504
1.40000504
1.40000504
1.40000504
1.40000504
1.40000504
1.40000504
1.40000504
1.40000504
1.40000504
)
;

boundaryField
{
    inlet
    {
        type            calculated;
        value           nonuniform 0();
    }
    outlet
    {
        type            calculated;
        value           nonuniform 0();
    }
    bottom
    {
        type            calculated;
        value           nonuniform 0();
    }
    top
    {
        type            calculated;
        value           nonuniform 0();
    }
    obstacle
    {
        type            calculated;
        value           nonuniform List<scalar> 
84
(
2.828455989
2.828625385
2.831265972
2.840515983
2.851781759
2.857018209
2.858194009
2.858555227
2.857389512
2.854567288
2.852717782
2.851896408
2.852070042
2.85309818
2.852780388
2.851530306
2.849283066
2.847817016
2.847821598
2.848359959
2.848805248
2.848692178
2.84829665
2.847584822
2.847020801
2.847130291
2.848023656
2.850249251
2.852195534
2.852240601
2.85160923
2.850078084
2.847572336
2.84550823
2.845202913
2.84553565
2.847332216
2.850205106
2.851201004
2.850792591
2.849694029
2.847631952
2.845071627
2.844043846
2.844103664
2.844787922
2.846528049
2.848613168
2.849339023
2.84922281
2.848582121
2.847444009
2.846262005
2.84556952
2.84530007
2.84530181
2.845520104
2.84624814
2.847034774
2.847512449
2.847694015
2.847661912
2.847428281
2.84683414
2.846023664
2.845182729
2.845068677
2.828554617
2.82864304
2.831132631
2.840210068
2.851588595
2.857013822
2.858242989
2.858632279
2.85754985
2.854721211
2.85278266
2.85190739
2.852001242
2.853013571
2.852711751
2.85149906
2.849311067
)
;
    }
    defaultFaces
    {
        type            empty;
    }
    procBoundary20to13
    {
        type            processor;
        value           nonuniform List<scalar> 3(2.806596621 2.817324216 2.833433447);
    }
    procBoundary20to14
    {
        type            processor;
        value           nonuniform List<scalar> 
20
(
2.82233452
2.817151817
2.8145486
2.810077828
2.805300401
2.825095795
2.825095795
2.821506574
2.820748201
2.822044031
2.825358463
2.830994638
2.845955551
2.845955551
2.845922132
2.845545294
2.844786046
2.844126632
2.84425937
2.847827605
)
;
    }
    procBoundary20to19
    {
        type            processor;
        value           nonuniform List<scalar> 
31
(
2.833107776
2.817223401
2.806629321
2.828384198
2.838140358
2.831746669
2.812159967
2.168850606
1.480505552
1.400450794
1.400005069
1.40000504
1.40000504
1.40000504
1.40000504
1.40000504
1.40000504
1.40000504
1.40000504
1.40000504
1.40000504
1.40000504
1.40000504
1.40000504
1.40000504
1.40000504
1.40000504
1.40000504
1.40000504
1.40000504
1.40000504
)
;
    }
    procBoundary20to25
    {
        type            processor;
        value           nonuniform List<scalar> 6(1.40000504 1.40000504 1.40000504 1.40000504 1.40000504 1.40000504);
    }
    procBoundary20to26
    {
        type            processor;
        value           nonuniform List<scalar> 
73
(
1.40000504
1.40000504
1.40000504
1.40000504
1.40000504
1.400005039
1.400005047
1.399993847
1.40000504
1.40000504
1.40000504
1.40000504
1.40000504
1.40000504
1.40000504
1.40000504
1.40000504
1.40000504
1.40000504
1.40000504
1.40000504
1.40000504
1.40000504
1.40000504
1.40000504
1.40000504
1.40000504
1.40000504
1.40000504
1.40000504
1.40000504
1.40000504
1.40000504
1.40000504
1.40000504
1.40000504
1.40000504
1.40000504
1.40000504
1.40000504
1.40000504
1.40000504
1.40000504
1.40000504
1.40000504
1.40000504
1.40000504
1.40000504
1.40000504
1.40000504
1.40000504
1.40000504
1.40000504
1.40000504
1.40000504
1.40000504
1.40000504
1.40000504
1.40000504
1.40000504
1.40000504
1.40000504
1.40000504
1.40000504
1.40000504
1.40000504