/*--------------------------------*- C++ -*----------------------------------*\
  =========                 |
  \\      /  F ield         | OpenFOAM: The Open Source CFD Toolbox
   \\    /   O peration     | Website:  https://openfoam.org
    \\  /    A nd           | Version:  7
     \\/     M anipulation  |
\*---------------------------------------------------------------------------*/
FoamFile
{
    version     2.0;
    format      ascii;
    class       volVectorField;
    location    "2.3";
    object      U;
}
// * * * * * * * * * * * * * * * * * * * * * * * * * * * * * * * * * * * * * //

dimensions      [0 1 -1 0 0 0 0];

internalField   nonuniform List<vector> 
2222
(
(3 -4.341281116e-12 0)
(3 -1.174158073e-11 0)
(3 -6.654395431e-12 0)
(3 -5.497070647e-11 0)
(3 -4.94351665e-11 0)
(3 -6.217582863e-10 0)
(2.999999997 4.099785172e-09 0)
(3.000004082 -8.04743724e-06 0)
(3 4.006381459e-15 0)
(3 4.011613202e-15 0)
(3 6.11920867e-15 0)
(3 6.752605099e-15 0)
(3 6.908601042e-15 0)
(3 6.022189557e-15 0)
(3 4.675935041e-15 0)
(3 -2.579378454e-14 0)
(3 -1.965930955e-13 0)
(3 -3.248000339e-14 0)
(3 -1.289295831e-13 0)
(3 -3.594252382e-12 0)
(3 -5.710467457e-11 0)
(3 -5.971972119e-11 0)
(3.000000007 -1.364315072e-08 0)
(3 -4.59962092e-15 0)
(3 -2.672389386e-15 0)
(3 -2.354899486e-15 0)
(3 -1.767816279e-15 0)
(3 -6.485470453e-16 0)
(3 5.216780984e-16 0)
(3 1.714373616e-15 0)
(3 2.357876828e-15 0)
(3 4.107413867e-15 0)
(3 6.057160138e-15 0)
(3 6.10078602e-15 0)
(3 5.687917846e-15 0)
(3 5.425174494e-15 0)
(3 4.619028037e-15 0)
(3 3.583519947e-15 0)
(3 2.923170519e-15 0)
(3 3.274302729e-15 0)
(3 1.406875935e-14 0)
(3 8.55804234e-15 0)
(3 -2.911221739e-14 0)
(3 -5.498568816e-13 0)
(3 -5.708954897e-12 0)
(3 -1.397885248e-11 0)
(3 -3.329457386e-16 0)
(3 -1.351521025e-15 0)
(3 -2.802344521e-15 0)
(3 -4.20061893e-15 0)
(3 -4.358701767e-15 0)
(3 -4.536668559e-15 0)
(3 -5.4270279e-15 0)
(3 -6.558868265e-15 0)
(3 -6.555187022e-15 0)
(3 -6.046780232e-15 0)
(3 -5.023451887e-15 0)
(3 -3.719208893e-15 0)
(3 -1.3359666e-15 0)
(3 4.635086683e-16 0)
(3 2.371074964e-15 0)
(3 4.365257413e-15 0)
(3 4.724727907e-15 0)
(3 5.221939097e-15 0)
(3 4.565840747e-15 0)
(3 3.83677678e-15 0)
(3 4.018633462e-15 0)
(3 4.480838091e-15 0)
(3 4.561364665e-15 0)
(3 3.171375644e-15 0)
(3 3.579113839e-15 0)
(3 3.543184349e-15 0)
(3 2.384136861e-15 0)
(3 2.13129254e-15 0)
(3 5.295025245e-16 0)
(3 -6.735037567e-14 0)
(3 -1.041697332e-13 0)
(3 3.457964881e-16 0)
(3 -3.550949256e-16 0)
(3 -3.241550614e-16 0)
(3 -3.318024695e-16 0)
(3 -2.698953659e-16 0)
(3 -6.782578591e-16 0)
(3 -7.535977181e-16 0)
(3 -9.217429769e-16 0)
(3 -1.207248274e-15 0)
(3 -1.787198548e-15 0)
(3 -3.465541881e-15 0)
(3 -4.206931251e-15 0)
(3 -3.163427954e-15 0)
(3 -2.907527412e-15 0)
(3 -2.729561046e-15 0)
(3 -2.526794376e-15 0)
(3 -3.724750119e-15 0)
(3 -3.462239894e-15 0)
(3 -2.700112107e-15 0)
(3 -1.029267766e-15 0)
(3 3.837966651e-16 0)
(3 1.542787211e-15 0)
(3 3.260152733e-15 0)
(3 5.129523807e-15 0)
(3 5.630895738e-15 0)
(3 4.636485023e-15 0)
(3 3.861067187e-15 0)
(3 2.721991853e-15 0)
(3 2.160587044e-15 0)
(3 2.430995325e-15 0)
(3 3.01655081e-15 0)
(3 3.523472377e-15 0)
(3 3.769990869e-15 0)
(3 2.791734118e-15 0)
(3 1.25333627e-15 0)
(3 5.715545946e-16 0)
(3 2.069118772e-15 0)
(3 2.231615734e-15 0)
(3 1.348081531e-15 0)
(3 -4.869909647e-15 0)
(3 -4.967856525e-15 0)
(3 -6.203429222e-15 0)
(3 -5.947150524e-15 0)
(3 -4.627143373e-15 0)
(3 -2.965139225e-15 0)
(3 -1.065266402e-15 0)
(3 -1.297007618e-15 0)
(3 -3.563165381e-16 0)
(3 -4.731681176e-16 0)
(3 -5.524612929e-16 0)
(3 -2.67120238e-16 0)
(3 -5.303479415e-16 0)
(3 -1.14097623e-15 0)
(3 -2.022097118e-15 0)
(3 -2.263130941e-15 0)
(3 -2.958360296e-15 0)
(3 -3.390597219e-15 0)
(3 -3.317321837e-15 0)
(3 -3.946824981e-15 0)
(3 -3.91551753e-15 0)
(3 -3.86763421e-15 0)
(3 -2.994372344e-15 0)
(3 -8.717225439e-16 0)
(3 8.548735206e-16 0)
(3 5.545153015e-16 0)
(3 5.078349621e-16 0)
(3 1.049739315e-15 0)
(3 2.87885946e-15 0)
(3 3.267428792e-15 0)
(3 3.676740105e-15 0)
(3 3.613011754e-15 0)
(3 3.425555928e-15 0)
(3 3.779419411e-15 0)
(3 3.281800501e-15 0)
(3 3.195572107e-15 0)
(3 2.89943732e-15 0)
(3 2.627565077e-15 0)
(3 2.212757259e-15 0)
(3 1.080771335e-15 0)
(3 5.048516304e-17 0)
(3 1.415982363e-15 0)
(3 2.131660476e-15 0)
(3 1.005279675e-15 0)
(3 -1.973304912e-16 0)
(3 -3.9458119e-16 0)
(3 -3.193142767e-16 0)
(3 8.410215178e-17 0)
(3 1.442140791e-15 0)
(3 1.586603747e-15 0)
(3 1.062508367e-15 0)
(3 6.90654848e-16 0)
(3 -1.041266606e-16 0)
(3 -9.867117329e-16 0)
(3 -1.239408218e-15 0)
(3 -1.67192809e-15 0)
(3 -2.328606233e-15 0)
(3 -3.385140719e-15 0)
(3 -3.691618631e-15 0)
(3 -3.727147154e-15 0)
(3 -3.626889628e-15 0)
(3 -3.353508198e-15 0)
(3 -2.758669969e-15 0)
(3 -3.250937387e-15 0)
(3 -4.213421768e-15 0)
(3 -4.062268967e-15 0)
(3 -4.105510266e-15 0)
(3 -3.458066233e-15 0)
(3 -3.260622748e-15 0)
(3 -3.669566458e-15 0)
(3 -4.12182949e-15 0)
(3 -3.74835576e-15 0)
(3 -3.687657659e-15 0)
(3 -3.641417654e-15 0)
(3 -3.770938674e-15 0)
(3 -3.70293034e-15 0)
(3 -3.092070751e-15 0)
(3 -2.875508485e-15 0)
(3 -2.254378163e-15 0)
(3 -1.048404493e-15 0)
(3 1.01534182e-15 0)
(3 2.266506709e-15 0)
(3 2.925644244e-15 0)
(3 3.796952799e-15 0)
(3 4.538493312e-15 0)
(3 6.754008814e-15 0)
(3 7.040793822e-15 0)
(3 6.30206258e-15 0)
(3 4.678898213e-15 0)
(3 3.345372615e-15 0)
(3 2.893007471e-15 0)
(3 2.7702797e-15 0)
(3 1.928678489e-15 0)
(3 9.177434931e-16 0)
(3 3.273645225e-16 0)
(3 -6.725704042e-16 0)
(3 -1.416522205e-15 0)
(3 -1.234850448e-15 0)
(3 -1.977307524e-15 0)
(3 -1.539494086e-15 0)
(3 -1.904411502e-15 0)
(3 -1.656473605e-15 0)
(3 -1.828589593e-15 0)
(3 -2.847330394e-15 0)
(3 -3.72601475e-15 0)
(3 4.74850268e-15 0)
(3 4.710592694e-15 0)
(3 4.608066173e-15 0)
(3 5.794400821e-15 0)
(3 4.745956213e-15 0)
(3 4.733064432e-15 0)
(3 4.455278468e-15 0)
(3 2.934333375e-15 0)
(3 -4.585155603e-16 0)
(3 -1.037668866e-15 0)
(3 -3.566920859e-16 0)
(3 -1.847314725e-15 0)
(3 -2.459759351e-15 0)
(3 -1.641087816e-15 0)
(3 -1.336967469e-15 0)
(3 -1.157244396e-15 0)
(3 -1.701079475e-15 0)
(3 -2.998928415e-15 0)
(3 -2.899337597e-15 0)
(3 -3.076158728e-15 0)
(3 -3.915851857e-15 0)
(3 -5.432277448e-15 0)
(3 -5.689788645e-15 0)
(3 -5.212157995e-15 0)
(3 -5.212632377e-15 0)
(3 -4.91775706e-15 0)
(3 -5.433560524e-15 0)
(3 -5.510793454e-15 0)
(3 -5.662258514e-15 0)
(3 -5.291026439e-15 0)
(3 -4.942958899e-15 0)
(3 -5.138206825e-15 0)
(3 -4.851648562e-15 0)
(3 -4.814432399e-15 0)
(3 -4.161457287e-15 0)
(3 -3.676323194e-15 0)
(3 -3.126876814e-15 0)
(3 -2.320521019e-15 0)
(3 -2.192149598e-15 0)
(3 -1.171618658e-15 0)
(3 1.318351976e-15 0)
(3 2.767410067e-15 0)
(3 3.121099552e-15 0)
(3 3.832136711e-15 0)
(3 5.597486609e-15 0)
(3 6.046152784e-15 0)
(3 5.750402063e-15 0)
(3 5.832430526e-15 0)
(3 5.83456092e-15 0)
(3 6.027949335e-15 0)
(3 6.0178919e-15 0)
(3 5.299256848e-15 0)
(3 4.584833135e-15 0)
(3 3.680212487e-15 0)
(3 2.283165871e-15 0)
(3 1.168875185e-15 0)
(3 -7.074336732e-18 0)
(3 -1.094683238e-15 0)
(3 -2.288848658e-15 0)
(3 -2.792316746e-15 0)
(3 -4.036486755e-15 0)
(3 -5.451328979e-15 0)
(3 -4.592329254e-15 0)
(3 -4.329313528e-15 0)
(3 -4.09442793e-15 0)
(3 -5.43314717e-15 0)
(3 3.296331812e-15 0)
(3 3.465088901e-15 0)
(3 2.130208753e-15 0)
(3 1.942498519e-16 0)
(3 7.258666497e-16 0)
(3 1.718576875e-15 0)
(3 1.592294798e-15 0)
(3 1.224299821e-15 0)
(3 7.922227822e-16 0)
(3 -1.543442984e-15 0)
(3 -2.573871255e-15 0)
(3 -3.70819713e-15 0)
(3 -4.02220947e-15 0)
(3 -3.91058306e-15 0)
(3 -3.604928372e-15 0)
(3 -3.799913745e-15 0)
(3 -4.231555646e-15 0)
(3 -4.797625757e-15 0)
(3 -5.028718142e-15 0)
(3 -5.16041602e-15 0)
(3 -6.134897134e-15 0)
(3 -6.78342584e-15 0)
(3 -7.508027243e-15 0)
(3 -8.070290259e-15 0)
(3 -7.613188536e-15 0)
(3 -6.425903804e-15 0)
(3 -7.0538829e-15 0)
(3 -8.068330661e-15 0)
(3 -9.349731975e-15 0)
(3 -1.017757365e-14 0)
(3 -9.730942183e-15 0)
(3 -8.642526024e-15 0)
(3 -8.3484129e-15 0)
(3 -7.90564587e-15 0)
(3 -6.453393101e-15 0)
(3 -4.330681423e-15 0)
(3 -3.586493647e-15 0)
(3 -2.326841587e-15 0)
(3 -1.497438949e-15 0)
(3 -4.311027348e-17 0)
(3 1.17359087e-15 0)
(3 2.089720977e-15 0)
(3 2.593593458e-15 0)
(3 4.066274374e-15 0)
(3 4.427865956e-15 0)
(3 4.225501151e-15 0)
(3 4.554748631e-15 0)
(3 6.289489798e-15 0)
(3 7.205302014e-15 0)
(3 7.189552791e-15 0)
(3 6.531860411e-15 0)
(3 4.987494124e-15 0)
(3 3.9707405e-15 0)
(3 2.719193086e-15 0)
(3 1.544573959e-15 0)
(3 4.782383441e-16 0)
(3 -7.662441478e-16 0)
(3 -1.821359834e-15 0)
(3 -3.702657943e-15 0)
(3 -4.613776369e-15 0)
(3 -5.200661118e-15 0)
(3 -6.163369136e-15 0)
(3 -6.593206069e-15 0)
(3 -6.26152041e-15 0)
(3 -4.414307189e-15 0)
(3 -4.061993244e-15 0)
(3 7.611993601e-16 0)
(3 1.479928081e-16 0)
(3 -1.2961491e-15 0)
(3 -1.981741122e-15 0)
(3 -1.843079504e-15 0)
(3 -1.255701957e-15 0)
(3 -1.406528236e-16 0)
(3 1.613992658e-15 0)
(3 1.763121191e-15 0)
(3 5.459679721e-16 0)
(3 -6.165466438e-16 0)
(3 -4.407208824e-16 0)
(3 -3.433349152e-16 0)
(3 -1.793860751e-15 0)
(3 -4.134167505e-15 0)
(3 -5.015545412e-15 0)
(3 -5.255737508e-15 0)
(3 -5.51650094e-15 0)
(3 -6.452601934e-15 0)
(3 -6.562674363e-15 0)
(3 -6.629660256e-15 0)
(3 -6.705931304e-15 0)
(3 -6.693462193e-15 0)
(3 -6.934773139e-15 0)
(3 -7.610236615e-15 0)
(3 -8.07079164e-15 0)
(3 -8.408999143e-15 0)
(3 -8.299301557e-15 0)
(3 -8.144885701e-15 0)
(3 -8.415233256e-15 0)
(3 -8.835400147e-15 0)
(3 -8.164835033e-15 0)
(3 -7.890077072e-15 0)
(3 -6.460418673e-15 0)
(3 -4.566021531e-15 0)
(3 -3.547401847e-15 0)
(3 -3.509766224e-15 0)
(3 -2.665044231e-15 0)
(3 -5.950090225e-17 0)
(3 2.577026637e-15 0)
(3 3.414261424e-15 0)
(3 3.291238641e-15 0)
(3 3.233608681e-15 0)
(3 3.578035155e-15 0)
(3 3.818769998e-15 0)
(3 5.184715058e-15 0)
(3 6.570452095e-15 0)
(3 6.772145254e-15 0)
(3 7.151588843e-15 0)
(3 8.002755655e-15 0)
(3 6.565748073e-15 0)
(3 5.290745252e-15 0)
(3 4.725237555e-15 0)
(3 3.078232573e-15 0)
(3 2.5342895e-16 0)
(3 -2.024325983e-15 0)
(3 -2.834969094e-15 0)
(3 -2.86607308e-15 0)
(3 -3.027475669e-15 0)
(3 -4.057385184e-15 0)
(3 -4.390851717e-15 0)
(3 -4.392452605e-15 0)
(3 -3.988357148e-15 0)
(3 -4.281925227e-15 0)
(3 -4.265401153e-15 0)
(3 -3.085410565e-15 0)
(3 3.712476346e-15 0)
(3 2.606174876e-15 0)
(3 2.004110725e-15 0)
(3 2.171566115e-15 0)
(3 1.513273296e-15 0)
(3 6.629043227e-16 0)
(3 4.272370929e-16 0)
(3 8.063847383e-16 0)
(3 1.710859173e-15 0)
(3 1.257260275e-15 0)
(3 5.293204534e-16 0)
(3 -3.80677746e-17 0)
(3 -5.711582918e-16 0)
(3 -1.661958581e-15 0)
(3 -2.797074211e-15 0)
(3 -4.55926333e-15 0)
(3 -5.892363502e-15 0)
(3 -6.168615322e-15 0)
(3 -6.161665727e-15 0)
(3 -6.527662709e-15 0)
(3 -5.947759531e-15 0)
(3 -4.8677502e-15 0)
(3 -4.810650036e-15 0)
(3 -5.102970594e-15 0)
(3 -5.804966775e-15 0)
(3 -7.043521337e-15 0)
(3 -7.971654357e-15 0)
(3 -8.676790384e-15 0)
(3 -8.739098443e-15 0)
(3 -8.101029889e-15 0)
(3 -8.000705542e-15 0)
(3 -8.065614578e-15 0)
(3 -8.028588367e-15 0)
(3 -7.1193084e-15 0)
(3 -6.862598088e-15 0)
(3 -5.741495304e-15 0)
(3 -4.29886605e-15 0)
(3 -4.018062846e-15 0)
(3 -2.159134603e-15 0)
(3 -1.229263661e-15 0)
(3 -1.106046851e-15 0)
(3 4.150640484e-16 0)
(3 1.074967188e-15 0)
(3 3.166009037e-15 0)
(3 5.485665065e-15 0)
(3 7.552331586e-15 0)
(3 8.744009833e-15 0)
(3 8.306308256e-15 0)
(3 7.130430486e-15 0)
(3 7.16579811e-15 0)
(3 6.632304019e-15 0)
(3 6.19268667e-15 0)
(3 6.28101646e-15 0)
(3 5.371725222e-15 0)
(3 1.651200592e-15 0)
(3 -2.09469672e-15 0)
(3 -3.391027084e-15 0)
(3 -4.138651093e-15 0)
(3 -5.180849877e-15 0)
(3 -5.800203266e-15 0)
(3 -6.468518842e-15 0)
(3 -5.58961079e-15 0)
(3 -4.123587542e-15 0)
(3 -3.64168171e-15 0)
(3 -3.541673063e-15 0)
(3 -2.017357549e-15 0)
(3 4.143943321e-15 0)
(3 3.571973002e-15 0)
(3 3.659879433e-15 0)
(3 3.198096492e-15 0)
(3 3.278435554e-15 0)
(3 1.920390795e-15 0)
(3 -8.055465449e-16 0)
(3 -8.91760262e-16 0)
(3 -6.156358932e-16 0)
(3 5.584721557e-16 0)
(3 7.47334364e-16 0)
(3 4.732370781e-16 0)
(3 9.461637058e-16 0)
(3 1.228817422e-15 0)
(3 8.7091282e-16 0)
(3 4.78063151e-16 0)
(3 -9.888912788e-16 0)
(3 -3.551175552e-15 0)
(3 -4.804409465e-15 0)
(3 -4.56715479e-15 0)
(3 -4.773673363e-15 0)
(3 -5.50152109e-15 0)
(3 -5.336541157e-15 0)
(3 -6.3028615e-15 0)
(3 -6.240083905e-15 0)
(3 -5.791058051e-15 0)
(3 -6.447219565e-15 0)
(3 -7.240197154e-15 0)
(3 -7.243353279e-15 0)
(3 -6.989466235e-15 0)
(3 -6.588268859e-15 0)
(3 -7.080278468e-15 0)
(3 -7.296694407e-15 0)
(3 -7.576530127e-15 0)
(3 -8.117327541e-15 0)
(3 -7.531865304e-15 0)
(3 -6.689307545e-15 0)
(3 -5.187125165e-15 0)
(3 -3.140824063e-15 0)
(3 -2.891336735e-15 0)
(3 -2.156442949e-15 0)
(3 -6.594250672e-16 0)
(3 2.703849302e-15 0)
(3 4.69840257e-15 0)
(3 6.348787518e-15 0)
(3 7.418725354e-15 0)
(3 6.058115647e-15 0)
(3 6.368315025e-15 0)
(3 6.927110142e-15 0)
(3 6.399759161e-15 0)
(3 6.769573389e-15 0)
(3 6.619048596e-15 0)
(3 6.044686751e-15 0)
(3 4.409113176e-15 0)
(3 3.265952373e-15 0)
(3 2.53290048e-15 0)
(3 -3.777497378e-16 0)
(3 -2.93030182e-15 0)
(3 -5.421992108e-15 0)
(3 -7.607594742e-15 0)
(3 -8.094691408e-15 0)
(3 -6.989467087e-15 0)
(3 -6.26907937e-15 0)
(3 -5.680193291e-15 0)
(3 -4.736168761e-15 0)
(3 -3.157462621e-15 0)
(3 -6.610403024e-16 0)
(3 -6.861627492e-16 0)
(3 -5.416190917e-16 0)
(3 -1.474447615e-15 0)
(3 -2.093547459e-15 0)
(3 -1.914033235e-15 0)
(3 -2.07621463e-15 0)
(3 -1.414072332e-15 0)
(3 4.369888109e-16 0)
(3 5.479698029e-16 0)
(3 2.650280623e-16 0)
(3 -3.84411646e-16 0)
(3 -7.703524301e-16 0)
(3 -1.023912355e-15 0)
(3 -8.003702999e-16 0)
(3 -8.819349491e-16 0)
(3 -9.957656512e-16 0)
(3 -1.334638658e-15 0)
(3 -1.996134485e-15 0)
(3 -3.187507691e-15 0)
(3 -4.047115641e-15 0)
(3 -4.880895226e-15 0)
(3 -5.376395599e-15 0)
(3 -5.307971964e-15 0)
(3 -5.645821263e-15 0)
(3 -6.668140976e-15 0)
(3 -7.334343061e-15 0)
(3 -7.67779202e-15 0)
(3 -7.184419905e-15 0)
(3 -6.877186008e-15 0)
(3 -6.622820935e-15 0)
(3 -6.527145045e-15 0)
(3 -6.411147984e-15 0)
(3 -5.406403258e-15 0)
(3 -5.126925201e-15 0)
(3 -4.706393864e-15 0)
(3 -3.751458285e-15 0)
(3 -3.639459315e-15 0)
(3 -4.777748289e-15 0)
(3 -4.668230101e-15 0)
(3 -2.372740409e-15 0)
(3 4.25976048e-16 0)
(3 1.114304381e-15 0)
(3 1.677307913e-15 0)
(3 1.151254458e-15 0)
(3 -3.375761988e-16 0)
(3 -2.064592566e-15 0)
(3 7.25046265e-17 0)
(3 4.33660148e-15 0)
(3 5.034762329e-15 0)
(3 6.185426856e-15 0)
(3 4.82359657e-15 0)
(3 3.822753112e-15 0)
(3 2.441014704e-15 0)
(3 1.152998809e-15 0)
(3 6.9847438e-16 0)
(3 -1.105393239e-15 0)
(3 -3.437691464e-15 0)
(3 -3.643273599e-15 0)
(3 -4.613620893e-15 0)
(3 -5.832550458e-15 0)
(3 -6.768481844e-15 0)
(3 -6.569784594e-15 0)
(3 -6.332670906e-15 0)
(3 -5.767966905e-15 0)
(3 -5.188508711e-15 0)
(3 -2.764396295e-15 0)
(3 -2.944956688e-15 0)
(3 -2.973851087e-15 0)
(3 -3.413663612e-15 0)
(3 -3.48670348e-15 0)
(3 -2.933544418e-15 0)
(3 -2.389283564e-15 0)
(3 -1.589427064e-15 0)
(3 -1.744943845e-16 0)
(3 6.331829767e-16 0)
(3 4.995398714e-16 0)
(3 -1.818149729e-15 0)
(3 -3.775777215e-15 0)
(3 -4.315702765e-15 0)
(3 -3.609609607e-15 0)
(3 -2.850405336e-15 0)
(3 -2.450437075e-15 0)
(3 -1.570321791e-15 0)
(3 -9.017437646e-16 0)
(3 -1.301999555e-15 0)
(3 -2.261710959e-15 0)
(3 -2.954613799e-15 0)
(3 -2.976017314e-15 0)
(3 -2.817571382e-15 0)
(3 -3.245168764e-15 0)
(3 -5.027472293e-15 0)
(3 -5.911835924e-15 0)
(3 -6.200497097e-15 0)
(3 -5.598058154e-15 0)
(3 -5.854271769e-15 0)
(3 -6.558037596e-15 0)
(3 -6.084532443e-15 0)
(3 -4.315519826e-15 0)
(3 -3.867140162e-15 0)
(3 -4.100045879e-15 0)
(3 -4.182990594e-15 0)
(3 -4.423434737e-15 0)
(3 -4.185052346e-15 0)
(3 -4.660721726e-15 0)
(3 -4.864310024e-15 0)
(3 -2.474309626e-15 0)
(3 -8.883834235e-16 0)
(3 -9.32003035e-16 0)
(3 -1.129011443e-15 0)
(3 -2.141226718e-15 0)
(3 -3.360108319e-15 0)
(3 -3.269097691e-15 0)
(3 -1.448784871e-16 0)
(3 1.705349414e-15 0)
(3 1.435130063e-15 0)
(3 -4.783620202e-16 0)
(3 -1.254111444e-15 0)
(3 -9.150456993e-16 0)
(3 -8.405007737e-16 0)
(3 -2.175594386e-16 0)
(3 1.628540692e-16 0)
(3 -1.156948347e-15 0)
(3 -2.547168913e-15 0)
(3 -2.27437868e-15 0)
(3 -2.243540805e-15 0)
(3 -3.084707698e-15 0)
(3 -4.405070918e-15 0)
(3 -5.059231499e-15 0)
(3 -5.673213785e-15 0)
(3 -5.216707492e-15 0)
(3 -3.690023382e-15 0)
(3 -3.898373851e-15 0)
(3 -3.539212153e-15 0)
(3 -3.466673663e-15 0)
(3 -3.08849431e-15 0)
(3 -2.103026884e-15 0)
(3 -4.607492842e-16 0)
(3 6.482022042e-16 0)
(3 3.302510517e-17 0)
(3 -1.144079168e-15 0)
(3 -1.026942963e-15 0)
(3 -2.365616354e-15 0)
(3 -5.101592129e-15 0)
(3 -5.406647344e-15 0)
(3 -5.885744334e-15 0)
(3 -5.562032995e-15 0)
(3 -5.499231483e-15 0)
(3 -3.104892172e-15 0)
(3 -1.039832025e-15 0)
(3 1.351286095e-16 0)
(3 -1.324677565e-15 0)
(3 -2.286303706e-15 0)
(3 -2.367374414e-15 0)
(3 -2.393592029e-15 0)
(3 -2.001695994e-15 0)
(3 -2.023903964e-15 0)
(3 -2.875943579e-15 0)
(3 -3.85302265e-15 0)
(3 -3.335625204e-15 0)
(3 -3.24187465e-15 0)
(3 -3.621237249e-15 0)
(3 -3.854391261e-15 0)
(3 -3.783101044e-15 0)
(3 -3.804374011e-15 0)
(3 -4.137049031e-15 0)
(3 -4.632234991e-15 0)
(3 -4.310010973e-15 0)
(3 -3.965068227e-15 0)
(3 -3.1141853e-15 0)
(3 -2.798041319e-15 0)
(3 -2.498767307e-15 0)
(3 -2.533531801e-15 0)
(3 -2.256074866e-15 0)
(3 -2.289855331e-15 0)
(3 -2.265540048e-15 0)
(3 -3.099033203e-15 0)
(3 -2.409287525e-15 0)
(3 -1.016835789e-15 0)
(3 -1.996057659e-16 0)
(3 -3.163630519e-15 0)
(3 -3.34425228e-15 0)
(3 -3.153695417e-15 0)
(3 -2.750536322e-15 0)
(3 -2.231901168e-15 0)
(3 -1.504413076e-15 0)
(3 -1.23605205e-15 0)
(3 -1.084294123e-15 0)
(3 -6.08687033e-16 0)
(3 -5.919155759e-16 0)
(3 -1.048074976e-15 0)
(3 -1.923174387e-15 0)
(3 -3.435384134e-15 0)
(3 -3.731209569e-15 0)
(3 -3.877420252e-15 0)
(3 -3.927151761e-15 0)
(3 -3.673301268e-15 0)
(3 -2.80621735e-15 0)
(3 -4.110103529e-15 0)
(3 -4.430174965e-15 0)
(3 -4.487599545e-15 0)
(3 -2.782983756e-15 0)
(3 -1.617080456e-15 0)
(3 -1.175457621e-15 0)
(3 -9.349384059e-16 0)
(3 -9.433318603e-16 0)
(3 -1.135276572e-15 0)
(3 -2.209930244e-15 0)
(3 -4.215460173e-15 0)
(3 -4.734395063e-15 0)
(3 -5.654055443e-15 0)
(3 -5.787542231e-15 0)
(3 -5.18888024e-15 0)
(3 -4.459113481e-15 0)
(3 -3.237764389e-15 0)
(3 -8.774932671e-16 0)
(3 3.926047704e-16 0)
(3 6.974782268e-16 0)
(3 2.465252181e-15 0)
(3 2.431210352e-15 0)
(3 9.176556254e-16 0)
(3 9.26517441e-16 0)
(3 5.98335239e-16 0)
(3 -2.829055608e-16 0)
(3 -2.463893057e-16 0)
(3 -2.079182136e-15 0)
(3 -5.632169941e-15 0)
(3 -5.54573652e-15 0)
(3 -5.050798259e-15 0)
(3 -5.426897362e-15 0)
(3 -5.810739935e-15 0)
(3 -5.597756959e-15 0)
(3 -4.327467748e-15 0)
(3 -2.722514752e-15 0)
(3 -9.666630916e-16 0)
(3 3.620257841e-16 0)
(3 1.402746469e-15 0)
(3 1.803966536e-15 0)
(3 7.322854276e-16 0)
(3 -6.307119344e-16 0)
(3 -2.643092402e-15 0)
(3 -3.451093253e-15 0)
(3 -4.119625966e-15 0)
(3 -4.279200223e-15 0)
(3 -3.84472509e-15 0)
(3 -3.164222587e-15 0)
(3 -5.045793606e-15 0)
(3 -5.997087673e-15 0)
(3 -5.278480667e-15 0)
(3 -4.27011956e-15 0)
(3 -2.774961993e-15 0)
(3 -1.565522851e-15 0)
(3 -1.135926408e-15 0)
(3 -5.581965647e-16 0)
(3 -5.516441479e-16 0)
(3 -1.744735973e-15 0)
(3 -3.200786735e-15 0)
(3 -3.383228169e-15 0)
(3 -3.671649671e-15 0)
(3 -3.077323297e-15 0)
(3 -2.022985642e-15 0)
(3 -1.178541134e-15 0)
(3 2.889095984e-17 0)
(3 -5.915446157e-16 0)
(3 -3.843197036e-15 0)
(3 -3.072920216e-15 0)
(3 -2.742285169e-15 0)
(3 -1.221147429e-15 0)
(3 1.167102436e-16 0)
(3 -2.961446282e-16 0)
(3 2.880068875e-16 0)
(3 9.029854497e-16 0)
(3 4.884833702e-16 0)
(3 2.650204059e-16 0)
(3 -3.168171757e-16 0)
(3 -1.199461368e-15 0)
(3 -9.652803342e-16 0)
(3 -3.650878619e-16 0)
(3 -4.146690996e-16 0)
(3 -1.155090462e-15 0)
(3 -8.296131464e-16 0)
(3 3.32001131e-16 0)
(3 2.194098305e-15 0)
(3 3.877593122e-15 0)
(3 4.958253884e-15 0)
(3 4.46143842e-15 0)
(3 3.634636555e-15 0)
(3 2.030615668e-15 0)
(3 -8.877176798e-16 0)
(3 -1.467572891e-15 0)
(3 -1.492259332e-15 0)
(3 -2.682260172e-15 0)
(3 -5.250054414e-15 0)
(3 -6.664936602e-15 0)
(3 -6.003634289e-15 0)
(3 -4.882295635e-15 0)
(3 -4.163056086e-15 0)
(3 -4.187061347e-15 0)
(3 -3.734378519e-15 0)
(3 -2.179106186e-15 0)
(3 -1.443320886e-16 0)
(3 6.947457452e-16 0)
(3 1.815294124e-15 0)
(3 4.395996454e-15 0)
(3 4.916842328e-15 0)
(3 4.552280089e-15 0)
(3 3.817930075e-15 0)
(3 2.345442422e-15 0)
(3 1.934814254e-15 0)
(3 4.818969195e-16 0)
(3 -1.741907614e-15 0)
(3 -4.074024918e-15 0)
(3 -5.079751186e-15 0)
(3 -4.690079697e-15 0)
(3 -4.239329425e-15 0)
(3 -3.891394822e-15 0)
(3 -2.823806113e-15 0)
(3 -3.002190894e-15 0)
(3 -2.944422354e-15 0)
(3 -3.037707707e-15 0)
(3 -2.803554197e-15 0)
(3 -2.899958133e-15 0)
(3 -3.152140849e-15 0)
(3 -2.854191777e-15 0)
(3 -2.571980698e-15 0)
(3 -2.311016537e-15 0)
(3 -1.671712286e-15 0)
(3 -3.787238285e-17 0)
(3 1.052991191e-16 0)
(3 -8.098223006e-16 0)
(3 1.759886202e-16 0)
(3 -6.601227659e-16 0)
(3 -1.699264637e-15 0)
(3 -1.564405416e-15 0)
(3 -1.469413914e-15 0)
(3 -1.056685938e-15 0)
(3 -2.135425187e-15 0)
(3 -3.054582202e-15 0)
(3 -2.931000566e-15 0)
(3 -1.072840625e-15 0)
(3 -3.598510644e-16 0)
(3 4.664073278e-16 0)
(3 1.125072886e-15 0)
(3 1.369743068e-15 0)
(3 2.134988565e-15 0)
(3 2.652264321e-15 0)
(3 2.819288204e-15 0)
(3 2.489796743e-15 0)
(3 2.169027679e-15 0)
(3 2.85435667e-15 0)
(3 4.361210015e-15 0)
(3 4.659684884e-15 0)
(3 3.71064957e-15 0)
(3 2.642633785e-15 0)
(3 1.062825359e-15 0)
(3 -1.423632666e-15 0)
(3 -2.285080062e-15 0)
(3 -2.707803325e-15 0)
(3 -2.831420675e-15 0)
(3 -3.725927921e-15 0)
(3 -3.571431152e-15 0)
(3 -3.328623932e-15 0)
(3 -3.401545297e-15 0)
(3 -2.999621386e-15 0)
(3 -3.078193582e-15 0)
(3 -2.772518445e-15 0)
(3 -7.315621393e-16 0)
(3 4.582219753e-18 0)
(3 9.036451787e-16 0)
(3 1.91050832e-15 0)
(3 2.855281016e-15 0)
(3 2.446740186e-15 0)
(3 2.662980563e-15 0)
(3 2.644143205e-15 0)
(3 2.764407266e-15 0)
(3 1.859327001e-15 0)
(3 7.446252004e-16 0)
(3 -1.248107722e-15 0)
(3 -2.152073345e-15 0)
(3 -3.183582806e-15 0)
(3 -4.30333657e-15 0)
(3 -4.094037767e-15 0)
(3 -3.643026733e-15 0)
(3 -3.183420499e-15 0)
(3 -3.184829279e-15 0)
(3 -4.12731231e-15 0)
(3 -4.500905029e-15 0)
(3 -4.275375839e-15 0)
(3 -4.015540218e-15 0)
(3 -3.204674475e-15 0)
(3 -1.929654546e-15 0)
(3 -3.090916304e-16 0)
(3 6.030790396e-16 0)
(3 8.128787474e-16 0)
(3 6.589211433e-16 0)
(3 7.644367054e-16 0)
(3 -6.742001963e-16 0)
(3 -1.886279316e-15 0)
(3 -2.325184601e-15 0)
(3 -3.205784671e-15 0)
(3 -3.751113428e-15 0)
(3 -3.94679943e-15 0)
(3 -4.343455821e-15 0)
(3 -4.54626355e-15 0)
(3 -3.855925029e-15 0)
(3 -3.515679248e-15 0)
(3 -2.707980984e-15 0)
(3 -1.074627957e-15 0)
(3 1.070963436e-15 0)
(3 1.73852747e-15 0)
(3 2.392105162e-15 0)
(3 3.52589696e-15 0)
(3 4.589518823e-15 0)
(3 4.27659331e-15 0)
(3 3.966513851e-15 0)
(3 2.28800589e-15 0)
(3 1.699995399e-15 0)
(3 1.03619948e-15 0)
(3 2.660230197e-16 0)
(3 1.006915878e-15 0)
(3 1.226304151e-15 0)
(3 9.735310992e-16 0)
(3 1.165331827e-15 0)
(3 1.268076929e-15 0)
(3 1.523465372e-15 0)
(3 2.113780089e-15 0)
(3 2.146321401e-15 0)
(3 2.415576663e-15 0)
(3 2.226068468e-15 0)
(3 3.587238205e-15 0)
(3 4.275378351e-15 0)
(3 3.940411141e-15 0)
(3 3.771202497e-15 0)
(3 4.11516469e-15 0)
(3 3.835082913e-15 0)
(3 3.225028482e-15 0)
(3 2.125810694e-15 0)
(3 1.542482935e-15 0)
(3 1.511279713e-15 0)
(3 2.328008186e-15 0)
(3 2.268941554e-15 0)
(3 1.289445582e-15 0)
(3 5.842133358e-16 0)
(3 -1.47136975e-15 0)
(3 -1.86894365e-15 0)
(3 -2.674826908e-15 0)
(3 -3.627814879e-15 0)
(3 -4.492179442e-15 0)
(3 -4.715599881e-15 0)
(3 -4.61816947e-15 0)
(3 -4.142720514e-15 0)
(3 -3.908297881e-15 0)
(3 -4.126372832e-15 0)
(3 -4.365038149e-15 0)
(3 -4.724043662e-15 0)
(3 -4.538293751e-15 0)
(3 -3.840845574e-15 0)
(3 -2.182852406e-15 0)
(3 -1.025349544e-15 0)
(3 -1.030385374e-15 0)
(3 -5.675118833e-16 0)
(3 1.166302501e-15 0)
(3 5.597950477e-16 0)
(3 6.766567023e-16 0)
(3 9.263324284e-17 0)
(3 -8.947043218e-16 0)
(3 -2.048465363e-15 0)
(3 -2.759257644e-15 0)
(3 -2.524266416e-15 0)
(3 -2.441014138e-15 0)
(3 -7.100725847e-16 0)
(3 -4.698245084e-16 0)
(3 5.526230003e-16 0)
(3 1.483296565e-15 0)
(3 2.780557472e-15 0)
(3 3.609924281e-15 0)
(3 4.498759009e-15 0)
(3 5.460572567e-15 0)
(3 5.88281205e-15 0)
(3 6.043720991e-15 0)
(3 5.597689526e-15 0)
(3 4.95928926e-15 0)
(3 2.119269186e-15 0)
(3 -3.398060564e-17 0)
(3 3.146750892e-16 0)
(3 1.725182494e-15 0)
(3 3.952973769e-15 0)
(3 4.637668293e-15 0)
(3 4.185417277e-15 0)
(3 3.719990774e-15 0)
(3 3.700154372e-15 0)
(3 4.022299869e-15 0)
(3 4.632683164e-15 0)
(3 5.235178126e-15 0)
(3 5.754623845e-15 0)
(3 6.309773278e-15 0)
(3 6.788339337e-15 0)
(3 6.868385897e-15 0)
(3 6.290330303e-15 0)
(3 5.243741273e-15 0)
(3 5.871143179e-15 0)
(3 6.070364148e-15 0)
(3 6.446889978e-15 0)
(3 5.708233776e-15 0)
(3 4.788045931e-15 0)
(3 3.511064506e-15 0)
(3 1.571140762e-15 0)
(3 -3.098152936e-16 0)
(3 -6.302058446e-16 0)
(3 -1.511245125e-15 0)
(3 -2.444424989e-15 0)
(3 -2.660206948e-15 0)
(3 -2.787541227e-15 0)
(3 -3.091760888e-15 0)
(3 -5.013658113e-15 0)
(3 -5.8891693e-15 0)
(3 -6.74091442e-15 0)
(3 -6.355510871e-15 0)
(3 -6.358807043e-15 0)
(3 -6.464768171e-15 0)
(3 -4.658361815e-15 0)
(3 -3.678558954e-15 0)
(3 -2.385483177e-15 0)
(3 -1.009489525e-15 0)
(3 -1.191592351e-15 0)
(3 -1.352432894e-15 0)
(3 -1.216427214e-15 0)
(3 -2.836256318e-15 0)
(3 2.744611416e-15 0)
(3 3.423734379e-15 0)
(3 3.252460224e-15 0)
(3 2.801768993e-15 0)
(3 2.156765287e-15 0)
(3 1.253520569e-15 0)
(3 -3.993638875e-17 0)
(3 2.487153385e-16 0)
(3 5.806465812e-16 0)
(3 1.629176444e-15 0)
(3 2.93630918e-15 0)
(3 3.314707192e-15 0)
(3 3.194573163e-15 0)
(3 3.133687234e-15 0)
(3 4.273391662e-15 0)
(3 4.875079333e-15 0)
(3 5.586916763e-15 0)
(3 7.009225248e-15 0)
(3 6.671737375e-15 0)
(3 5.257818355e-15 0)
(3 3.283416269e-15 0)
(3 2.625454843e-15 0)
(3 3.023430065e-15 0)
(3 3.633810028e-15 0)
(3 3.901919458e-15 0)
(3 4.479843514e-15 0)
(3 4.88111794e-15 0)
(3 5.602396671e-15 0)
(3 6.455542241e-15 0)
(3 6.438062948e-15 0)
(3 6.868378821e-15 0)
(3 7.338733429e-15 0)
(3 7.709159472e-15 0)
(3 7.963254643e-15 0)
(3 7.846202502e-15 0)
(3 8.400125539e-15 0)
(3 8.689494942e-15 0)
(3 8.708874111e-15 0)
(3 8.817050164e-15 0)
(3 8.486475705e-15 0)
(3 8.448879204e-15 0)
(3 8.007957649e-15 0)
(3 7.137889242e-15 0)
(3 4.990894105e-15 0)
(3 2.608336384e-15 0)
(3 7.479641253e-16 0)
(3 -1.860195393e-15 0)
(3 -2.379406049e-15 0)
(3 -3.025645391e-15 0)
(3 -3.435680632e-15 0)
(3 -3.697447408e-15 0)
(3 -3.99526455e-15 0)
(3 -5.060373874e-15 0)
(3 -7.169036871e-15 0)
(3 -7.324951494e-15 0)
(3 -6.803937724e-15 0)
(3 -5.840729724e-15 0)
(3 -6.062010541e-15 0)
(3 -5.586313407e-15 0)
(3 -4.513526099e-15 0)
(3 -2.794483203e-15 0)
(3 -2.784845387e-15 0)
(3 -3.246445837e-15 0)
(3 -3.594690047e-15 0)
(3 -4.471037867e-15 0)
(3 -3.796839841e-15 0)
(3 5.334338226e-16 0)
(3 1.272250416e-15 0)
(3 2.095392457e-15 0)
(3 2.849916564e-15 0)
(3 2.459198011e-15 0)
(3 1.076422149e-15 0)
(3 -3.564842843e-17 0)
(3 3.294336125e-16 0)
(3 9.610016581e-16 0)
(3 2.426922428e-15 0)
(3 2.524505211e-15 0)
(3 2.671486468e-15 0)
(3 2.589836731e-15 0)
(3 3.013103275e-15 0)
(3 4.212129461e-15 0)
(3 5.089674903e-15 0)
(3 4.586821827e-15 0)
(3 3.417079985e-15 0)
(3 3.028092604e-15 0)
(3 2.232729426e-15 0)
(3 1.866730139e-15 0)
(3 2.131265827e-15 0)
(3 2.386424979e-15 0)
(3 2.119549256e-15 0)
(3 2.314154186e-15 0)
(3 2.70785584e-15 0)
(3 2.811901335e-15 0)
(3 4.498613891e-15 0)
(3 5.479010873e-15 0)
(3 6.227749867e-15 0)
(3 7.126989449e-15 0)
(3 7.298605068e-15 0)
(3 8.220106744e-15 0)
(3 9.637608981e-15 0)
(3 9.706976891e-15 0)
(3 1.084316538e-14 0)
(3 1.104954305e-14 0)
(3 1.04197971e-14 0)
(3 9.742443893e-15 0)
(3 9.509210544e-15 0)
(3 8.253509781e-15 0)
(3 7.522088758e-15 0)
(3 7.071075305e-15 0)
(3 6.134878802e-15 0)
(3 4.39561824e-15 0)
(3 3.544487277e-15 0)
(3 2.163769509e-15 0)
(3 6.947614127e-16 0)
(3 -7.049414953e-16 0)
(3 -1.978704288e-15 0)
(3 -2.720537811e-15 0)
(3 -3.298282291e-15 0)
(3 -4.439209146e-15 0)
(3 -4.059465821e-15 0)
(3 -4.203583008e-15 0)
(3 -5.120536418e-15 0)
(3 -5.786339524e-15 0)
(3 -5.670489771e-15 0)
(3 -5.610020606e-15 0)
(3 -5.759107226e-15 0)
(3 -5.559066017e-15 0)
(3 -5.437562164e-15 0)
(3 -5.377545356e-15 0)
(3 -4.269744576e-15 0)
(3 -4.053423295e-15 0)
(3 -4.309990639e-15 0)
(3 1.383010756e-15 0)
(3 1.187686713e-15 0)
(3 6.850372739e-16 0)
(3 8.485834275e-16 0)
(3 1.389972666e-15 0)
(3 1.469871548e-15 0)
(3 1.351467626e-15 0)
(3 1.571597997e-15 0)
(3 1.433111637e-15 0)
(3 8.404707615e-16 0)
(3 4.198759247e-17 0)
(3 -1.078858877e-16 0)
(3 7.688137916e-16 0)
(3 1.491588384e-15 0)
(3 1.26579382e-15 0)
(3 1.176105733e-15 0)
(3 -2.140739433e-16 0)
(3 -1.027690082e-15 0)
(3 -2.898923621e-15 0)
(3 -3.894875554e-15 0)
(3 -2.729648537e-15 0)
(3 -1.990994023e-15 0)
(3 -1.298329397e-15 0)
(3 2.786394428e-16 0)
(3 1.830709579e-15 0)
(3 1.773929673e-15 0)
(3 2.131199401e-15 0)
(3 2.791048775e-15 0)
(3 5.013582556e-15 0)
(3 6.424001926e-15 0)
(3 7.418226701e-15 0)
(3 7.98485941e-15 0)
(3 8.793057696e-15 0)
(3 9.217790162e-15 0)
(3 9.233275704e-15 0)
(3 9.508574414e-15 0)
(3 9.766123626e-15 0)
(3 9.802096456e-15 0)
(3 9.808320421e-15 0)
(3 1.021315604e-14 0)
(3 1.000387805e-14 0)
(3 9.205982603e-15 0)
(3 7.539368115e-15 0)
(3 7.233156649e-15 0)
(3 6.982823374e-15 0)
(3 6.325390059e-15 0)
(3 5.267424432e-15 0)
(3 3.13361278e-15 0)
(3 9.012795046e-16 0)
(3 -1.336116446e-15 0)
(3 -1.280201649e-15 0)
(3 -8.906695984e-16 0)
(3 -1.224715177e-15 0)
(3 -1.694329301e-15 0)
(3 -2.280499748e-15 0)
(3 -2.673907546e-15 0)
(3 -3.394905311e-15 0)
(3 -2.737250398e-15 0)
(3 -1.574668974e-15 0)
(3 -2.337698614e-15 0)
(3 -4.315666147e-15 0)
(3 -4.479288262e-15 0)
(3 -4.085580442e-15 0)
(3 -3.209719211e-15 0)
(3 -2.574260047e-15 0)
(3 -3.390300306e-15 0)
(3 1.728873349e-15 0)
(3 1.164269711e-15 0)
(3 -2.494282919e-16 0)
(3 4.264669712e-17 0)
(3 1.06943799e-15 0)
(3 2.782556969e-15 0)
(3 3.439677402e-15 0)
(3 2.574307616e-15 0)
(3 1.141231707e-15 0)
(3 8.490084976e-16 0)
(3 -5.68649225e-16 0)
(3 -1.123058763e-15 0)
(3 -1.716247582e-15 0)
(3 -2.061421053e-15 0)
(3 -2.29247296e-15 0)
(3 -2.822929396e-15 0)
(3 -2.98524318e-15 0)
(3 -3.38776364e-15 0)
(3 -2.796364437e-15 0)
(3 -2.309374387e-15 0)
(3 -1.366162225e-15 0)
(3 -4.394501509e-16 0)
(3 8.406409508e-17 0)
(3 3.12938848e-16 0)
(3 4.55146515e-16 0)