/*--------------------------------*- C++ -*----------------------------------*\
  =========                 |
  \\      /  F ield         | OpenFOAM: The Open Source CFD Toolbox
   \\    /   O peration     | Website:  https://openfoam.org
    \\  /    A nd           | Version:  7
     \\/     M anipulation  |
\*---------------------------------------------------------------------------*/
FoamFile
{
    version     2.0;
    format      ascii;
    class       volScalarField;
    location    "3";
    object      T;
}
// * * * * * * * * * * * * * * * * * * * * * * * * * * * * * * * * * * * * * //

dimensions      [0 0 0 1 0 0 0];

internalField   nonuniform List<scalar> 
2222
(
1
1
1
1
1
1
1
1
1
1
1
1
1
1
1
1
1
1
1
1
1
1
1
1
1
1
1
1
1
1.000000002
1.000001003
1.000324546
1.014467317
1.260047294
1.666969951
1.926995537
1.923939154
1
1
1
1
1
1
1
1
1
1
1
1
1
1
1
1
1
1
1
1
1
1
1
1
1
1
1
1
1.000000094
1.000020789
1.003279557
1.07954841
1.301998663
1.508535444
1.791669115
1.904702878
1
1
1
1
1
1
1
1
1
1
1
1
1
1
1
1
1
1
1
1
1
1
1
1
1
1
1
1.000000007
1.00000169
1.000225887
1.019914294
1.219948675
1.396536702
1.435018024
1.661709232
1.886553186
1
1
1
1
1
1
1
1
1
1
1
1
1
1
1
1
1
1
1
1
1
1
1
1
1
1
1
1.000000095
1.00001833
1.001651779
1.083788589
1.353863452
1.445762821
1.446800162
1.498883967
1.758291371
1
1
1
1
1
1
1
1
1
1
1
1
1
1
1
1
1
1
1
1
1
1
1
1
1
1
1.000000004
1.000000869
1.000149476
1.01050072
1.215142237
1.425238303
1.465960617
1.460013725
1.457685262
1.560419429
1
1
1
1
1
1
1
1
1
1
1
1
1
1
1
1
1
1
1
1
1
1
1
1
1
1
1.000000031
1.000008084
1.00110099
1.054489099
1.356935176
1.453882483
1.467365041
1.463955995
1.450216517
1.45550046
1
1
1
1
1
1
1
1
1
1
1
1
1
1
1
1
1
1
1
1
1
1
1
1
1
1.000000001
1.000000315
1.000103809
1.008515415
1.170626375
1.443848613
1.470761938
1.467894294
1.465404405
1.447321915
1.432901619
1
1
1
1
1
1
1
1
1
1
1
1
1
1
1
1
1
1
1
1
1
1
1
1
1
1.000000015
1.000007611
1.001475258
1.052522112
1.322635395
1.477074013
1.476125787
1.469044563
1.46192176
1.44753599
1.425095904
1
1
1
1
1
1
1
1
1
1
1
1
1
1
1
1
1
1
1
1
1
1
1
1
1.000000001
1.000000625
1.00017986
1.015446798
1.171106558
1.425265437
1.484135718
1.481573309
1.470091712
1.456745298
1.445938369
1.425012502
1
1
1
1
1
1
1
1
1
1
1
1
1
1
1
1
1
1
1
1
1
1
1
1
1.000000047
1.000016441
1.002360485
1.085731866
1.309997518
1.466048909
1.481798927
1.47861087
1.467622591
1.453457344
1.441651274
1.425975984
1
1
1
1
1
1
1
1
1
1
1
1
1
1
1
1
1
1
1
1
1
1
1
1.000000003
1.000001182
1.000215577
1.018465372
1.224298018
1.407455306
1.478679258
1.481218346
1.474182353
1.462386971
1.450597454
1.438853907
1.4232501
1
1
1
1
1
1
1
1
1
1
1
1
1
1
1
1
1
1
1
1
1
1
1
1.000000068
1.000016162
1.001709513
1.088151818
1.346026428
1.454246811
1.481477928
1.476505863
1.46634193
1.455786456
1.446221796
1.435352549
1.41933295
1
1
1
1
1
1
1
1
1
1
1
1
1
1
1
1
1
1
1
1
1
1
1.000000004
1.000000819
1.000148272
1.010778365
1.231122646
1.421245732
1.475324288
1.482126179
1.473222021
1.460214762
1.450557594
1.441691994
1.431720832
1.417228516
1
1
1
1
1
1
1
1
1
1
1
1
1
1
1
1
1
1
1
1
1
1
1.000000035
1.000007855
1.001067417
1.056552755
1.367413842
1.457578242
1.48287999
1.483172039
1.471141174
1.455286435
1.444521455
1.435954736
1.426694233
1.413988388
1
1
1
1
1
1
1
1
1
1
1
1
1
1
1
1
1
1
1
1
1
1.000000001
1.000000281
1.000078713
1.00720291
1.180192956
1.44538066
1.477798302
1.484882831
1.483180872
1.468499159
1.451060128
1.439425522
1.431004988
1.421860252
1.410538763
1
1
1
1
1
1
1
1
1
1
1
1
1
1
1
1
1
1
1
1
1
1.000000009
1.000003468
1.00085421
1.042692097
1.34071715
1.482558243
1.487095504
1.486309389
1.479512928
1.464075118
1.447724681
1.43517405
1.42567702
1.415980118
1.405435502
1
1
1
1
1
1
1
1
1
1
1
1
1
1
1
1
1
1
1
1
1
1.000000149
1.000071828
1.008805074
1.152009495
1.447080201
1.500878192
1.496199446
1.487503194
1.473488815
1.458654134
1.444243747
1.430931457
1.420420277
1.410360764
1.400226095
1
1
1
1
1
1
1
1
1
1
1
1
1
1
1
1
1
1
1
1
1.000000007
1.000005209
1.001233623
1.058954245
1.305476333
1.492115259
1.502135517
1.496556323
1.486024812
1.467815533
1.453521644
1.440637439
1.426938253
1.415221748
1.404406889
1.394125104
1
1
1
1
1
1
1
1
1
1
1
1
1
1
1
1
1
1
1
1
1.000000365
1.000117312
1.013043692
1.187428591
1.418665069
1.503432409
1.505564345
1.497536577
1.484065649
1.464119259
1.448848762
1.436280205
1.422113661
1.409460346
1.398347857
1.387923232
1
1
1
1
1
1
1
1
1
1
1
1
1
1
1
1
1
1
1
1.000000024
1.000009154
1.001356948
1.075498089
1.323594898
1.472394396
1.504870817
1.500545399
1.489967797
1.479132899
1.460619429
1.443616325
1.431349106
1.417366681
1.404138084
1.392734009
1.381832835
1
1
1
1
1
1
1
1
1
1
1
1
1
1
1
1
1
1
1.000000002
1.000000556
1.000110891
1.009750693
1.215840616
1.416181966
1.492221543
1.502947351
1.496314879
1.48436113
1.474173538
1.458004255
1.439385642
1.426629904
1.412499606
1.39838309
1.386385419
1.37525567
1
1
1
1
1
1
1
1
1
1
1
1
1
1
1
1
1
1
1.00000003
1.0000067
1.000799245
1.051286411
1.352244687
1.465433666
1.502318619
1.500851067
1.492276016
1.47850492
1.467681609
1.454374927
1.435231957
1.421538176
1.4074756
1.392861754
1.38024936
1.369181927
1
1
1
1
1
1
1
1
1
1
1
1
1
1
1
1
1
1.000000002
1.000000283
1.000056114
1.004615823
1.166832567
1.434027085
1.487426991
1.502362776
1.499369016
1.487392069
1.471867794
1.460323314
1.449672183
1.431917182
1.416988739
1.402763041
1.387669845
1.373896582
1.362301394
1
1
1
1
1
1
1
1
1
1
1
1
1
1
1
1
1
1.000000012
1.000002131
1.000405214
1.026570525
1.326729134
1.475175357
1.496659534
1.503452757
1.497656166
1.482468176
1.466462418
1.454013049
1.444366461
1.428536772
1.412440366
1.397902236
1.382382789
1.367439491
1.355169503
1
1
1
1
1
1
1
1
1
1
1
1
1
1
1
1
1
1.000000072
1.00002115
1.003198576
1.112089984
1.443752183
1.501497927
1.503370884
1.499945912
1.492251026
1.476570647
1.460703337
1.447420772
1.437979075
1.424411477
1.407817836
1.393188386
1.377607242
1.36156685
1.348105584
1
1
1
1
1
1
1
1
1
1
1
1
1
1
1
1
1.000000002
1.000000788
1.000320201
1.02568859
1.276214544
1.502531526
1.507070618
1.502619981
1.495773889
1.485907343
1.470259503
1.455511495
1.441923309
1.432218587
1.420139366
1.403410987
1.388622925
1.373073525
1.355904601
1.341095169
1
1
1
1
1
1
1
1
1
1
1
1
1
1
1
1
1.000000035
1.000023416
1.004648155
1.120700786
1.421882752
1.521510083
1.520102963
1.507774843
1.493393318
1.479772434
1.464517153
1.450221204
1.435914511
1.425121851
1.413936693
1.397894388
1.383528735
1.368733563
1.351104152
1.335064655
1
1
1
1
1
1
1
1
1
1
1
1
1
1
1
1.000000002
1.000001599
1.000511895
1.040091055
1.27782392
1.492598601
1.521758591
1.517597071
1.50652544
1.490194646
1.474399103
1.458513801
1.44394667
1.429373921
1.417743184
1.407557252
1.392564469
1.378808962
1.364779087
1.346955241
1.329616214
1
1
1
1
1
1
1
1
1
1
1
1
1
1
1
1.000000097
1.000040102
1.005844255
1.159233061
1.398161902
1.510134619
1.522673311
1.518101641
1.505498728
1.487819793
1.470689719
1.453443955
1.437542499
1.422282885
1.409311432
1.398628327
1.384719759
1.372276338
1.359938364
1.34310751
1.325164851
1
1
1
1
1
1
1
1
1
1
1
1
1
1
1.000000005
1.000002554
1.000472202
1.039004327
1.312072684
1.468957835
1.519902907
1.519624096
1.51316879
1.501277428
1.484895709
1.466998233
1.448474029
1.430411304
1.41428092
1.400508104
1.389423772
1.376515823
1.365644844
1.355087897
1.33975072
1.321410188
1
1
1
1
1
1
1
1
1
1
1
1
1
1
1.000000128
1.000033041
1.003309361
1.146636023
1.413588992
1.491441154
1.517675348
1.515767148
1.507339421
1.496184515
1.480730438
1.463168389
1.444647061
1.424747745
1.407383065
1.392573494
1.3802541
1.367288333
1.357659132
1.348774195
1.335603063
1.317736681
1
1
1
1
1
1
1
1
1
1
1
1
1
1.000000006
1.00000152
1.000261466
1.019113157
1.305890835
1.467788079
1.508292978
1.51959129
1.514003916
1.503182467
1.492939599
1.47755101
1.459517756
1.441335697
1.41991602
1.40100369
1.385069366
1.371268138
1.357944656
1.349257697
1.341757282
1.33107199
1.314174213
1
1
1
1
1
1
1
1
1
1
1
1
1
1.000000057
1.000013411
1.001645152
1.086318972
1.426777789
1.495784972
1.507558737
1.51565489
1.510566133
1.496872781
1.483234096
1.468536045
1.453176671
1.437527757
1.415956277
1.395990815
1.379498735
1.364398017
1.350206275
1.341528637
1.334474879
1.325645746
1.310107658
1
1
1
1
1
1
1
1
1
1
1
1
1.000000002
1.000000445
1.000117068
1.0106446
1.236374518
1.494602823
1.507333711
1.509793407
1.514262603
1.506840665
1.490409607
1.475106172
1.460605261
1.447111847
1.433526454
1.412653372
1.391898954
1.37527919
1.359130414
1.343648094
1.334290883
1.32700167
1.319401944
1.305469863
1
1
1
1
1
1
1
1
1
1
1
1
1.000000013
1.000004984
1.001150555
1.058819481
1.400620607
1.525548379
1.51857963
1.511605602
1.508195691
1.498862413
1.482950467
1.466936041
1.451564919
1.438554588
1.427038101
1.408687792
1.388100707
1.372095074
1.355766973
1.339202622
1.328571119
1.320379755
1.313004403
1.30031639
1
1
1
1
1
1
1
1
1
1
1
1
1.000000177
1.000089482
1.011528623
1.188040322
1.496440054
1.533570615
1.525786707
1.511095539
1.501409887
1.490639588
1.475006177
1.457955416
1.441593314
1.429337756
1.419720535
1.404537742
1.384607584
1.369392941
1.353523282
1.33611706
1.323927602
1.314379669
1.306333472
1.294420247
1
1
1
1
1
1
1
1
1
1
1
1.000000006
1.000005343
1.00144272
1.073491193
1.348863463
1.53059422
1.534851004
1.528977967
1.512939419
1.497586793
1.484295519
1.468429177
1.450159693
1.432653508
1.420448318
1.411480728
1.398788065
1.380232347
1.36622377
1.351474217
1.3338709
1.320344892
1.309553711
1.300393292
1.288647096
1
1
1
1
1
1
1
1
1
1
1
1.000000312
1.000124227
1.015414173
1.217353726
1.459888844
1.537844838
1.537797219
1.530521462
1.5142084
1.496299178
1.479997983
1.463542315
1.444036834
1.424669622
1.411804085
1.402839349
1.391956232
1.375143089
1.36243446
1.349258556
1.331986039
1.317329449
1.305349471
1.294666904
1.282312651
1
1
1
1
1
1
1
1
1
1
1.000000016
1.000008524
1.001567584
1.089357112
1.355690038
1.505533075
1.535635211
1.532536103
1.52489593
1.512515001
1.494974449
1.47655049
1.460187367
1.440442247
1.41939733
1.405285813
1.395456753
1.384918759
1.369336599
1.357664804
1.345973498
1.329465633
1.31401372
1.301347154
1.28937665
1.276177902
1
1
1
1
1
1
1
1
1
1.000000001
1.00000043
1.000113882
1.012214405
1.247311956
1.442074104
1.518574722
1.53155979
1.528401076
1.520814896
1.510062772
1.4936946
1.47443468
1.458247838
1.438900341
1.416316234
1.400165123
1.388644706
1.377446153
1.362549973
1.351580588
1.341156958
1.32587613
1.310072796
1.297095607
1.284168113
1.269897871
1
1
1
1
1
1
1
1
1
1.000000019
1.000006094
1.000904844
1.06475844
1.389746593
1.485600314
1.526071998
1.525864919
1.521696323
1.512729638
1.503471346
1.490219766
1.471418739
1.45600718
1.437775927
1.414286606
1.396553987
1.383553559
1.371234061
1.356227997
1.345171868
1.335138725
1.320926528
1.304761425
1.291735304
1.278381683
1.263330458
1
1
1
1
1
1
1
1
1.000000001
1.000000238
1.000059374
1.005676462
1.201981237
1.470086439
1.50459759
1.520226738
1.521687432
1.515650301
1.504102217
1.494850351
1.484207427
1.467560304
1.453467286
1.436763008
1.413035212
1.393831118
1.379111254
1.364784504
1.348767873
1.33731183
1.327323446
1.314145004
1.297970052
1.285266819
1.272077457
1.256688815
1
1
1
1
1
1
1
1
1.000000009
1.000002305
1.000470056
1.033086185
1.373827968
1.506041941
1.514792511
1.521104357
1.520511214
1.511537908
1.497560438
1.487299904
1.477351837
1.462432252
1.449513928
1.434386498
1.410892172
1.390347215
1.374727814
1.358966565
1.341977561
1.329855676
1.319325038
1.306611503
1.290276408
1.277571607
1.264561819
1.249154239
1
1
1
1
1
1
1
1
1.000000071
1.000024879
1.003663198
1.130755946
1.483275045
1.526834434
1.523403047
1.520346351
1.518958091
1.508504691
1.49218476
1.480170974
1.469593043
1.455716823
1.443822732
1.430119917
1.407797173
1.386466696
1.370129717
1.353120186
1.334418604
1.321161141
1.310008842
1.297504426
1.281209885
1.268634918
1.256210064
1.24143725
1
1
1
1
1
1
1
1.000000002
1.000000883
1.000327842
1.02733106
1.300173728
1.529152611
1.531755686
1.527959992
1.521284258
1.518549945
1.506754186
1.4891985
1.475304598
1.463429273
1.449613794
1.43756037
1.423997577
1.402671431
1.380477207
1.363721644
1.346152734
1.326449116
1.312334404
1.300629495
1.288124441
1.272033424
1.259422491
1.247213561
1.232859684
1
1
1
1
1
1
1
1.000000032
1.000020852
1.004156413
1.122013112
1.441017261
1.544655978
1.542672372
1.535667121
1.525167913
1.518609391
1.506465506
1.48824499
1.471809121
1.457106337
1.44204172
1.42957584
1.415709539
1.395416175
1.372950081
1.356135527
1.338637497
1.318239123
1.302943267
1.290579996
1.277885421
1.26203954
1.24938415
1.237453219
1.223794834
1
1
1
1
1
1
1.000000001
1.000001209
1.000405563
1.035621402
1.276720642
1.507367299
1.540406538
1.538825257
1.537402532
1.528180994
1.520260258
1.507392999
1.487367989
1.468924806
1.45188578
1.435498376
1.422147551
1.407059614
1.386907705
1.364040603
1.346767702
1.32920057
1.308543105
1.292561877
1.280112454
1.267519284
1.252104373
1.239557295
1.227946985
1.215012632
1
1
1
1
1
1
1.000000074
1.000030743
1.004725132
1.149256452
1.394710341
1.522851079
1.541151409
1.539464728
1.538000156
1.529886096
1.521542678
1.507793375
1.486512669
1.466531531
1.447054962
1.427682663
1.412758044
1.396648975
1.376685159
1.353877144
1.336439419
1.319208537
1.299043471
1.282564251
1.269928518
1.25719391
1.241985982
1.229539087
1.218177654
1.205751464
1
1
1
1
1
1.000000004
1.000001921
1.000394628
1.034651673
1.306135837
1.464846806
1.528057993
1.538929656
1.538174659
1.5365584
1.529790475
1.521126105
1.506013188
1.483258029
1.462011193
1.440930213
1.419587388
1.403396395
1.386244148
1.366144047
1.343306625
1.325547264
1.308424894
1.288691057
1.27159854
1.259042057
1.246590731
1.231966899
1.219766053
1.208725662
1.196956037
1
1
1
1
1
1.000000095
1.000026313
1.003069447
1.141900819
1.415186
1.490035805
1.527480498
1.536458836
1.534947303
1.533338213
1.527055446
1.517688999
1.501524608
1.477905829
1.455874785
1.433992502
1.410941827
1.393095955
1.374883106
1.354517423
1.332038688
1.314230888
1.297429988
1.278579479
1.26142896
1.249011687
1.236851959
1.222536958
1.210322679
1.199563834
1.188225542
1
1
1
1
1.000000004
1.00000121
1.000228998
1.019303223
1.308123645
1.479069318
1.511793617
1.533965479
1.536435367
1.534225628
1.530534015
1.523201176
1.512633676
1.49527438
1.470484448
1.4472118
1.424467254
1.400340377
1.381405305
1.362984513
1.342962456
1.321143878
1.303459214
1.286956103
1.268860093
1.251452009
1.238955998
1.227004967
1.213072351
1.200973579
1.190506428
1.179603657
1
1
1
1
1.000000042
1.000011661
1.001554135
1.090532465
1.432520384
1.505149139
1.525875397
1.541862483
1.53985722
1.534850464
1.528089076
1.517912295
1.505277535
1.486615678
1.460957512
1.436942467
1.413960077
1.389750616
1.369890133
1.351268522
1.331391911
1.309948904
1.292356952
1.276312415
1.259022385
1.241770786
1.229359345
1.217817186
1.204486204
1.192407872
1.182202106
1.171605606
1
1
1
1.000000001
1.000000324
1.000103779
1.010379437
1.240855153
1.498671531
1.528563274
1.539145774
1.546546185
1.545457274
1.537752409
1.526746359
1.512839895
1.496986196
1.476514058
1.450214904
1.425452265
1.402194789
1.378364961
1.357653815
1.339239153
1.320103799
1.299528782
1.28225289
1.266587623
1.249973346
1.232900616
1.220377592
1.208861402
1.195727826
1.183509711
1.173526853
1.163229477
1
1
1
1.000000007
1.000003776
1.000979986
1.057519404
1.393262487
1.529944025
1.540306943
1.546275354
1.549050468
1.548025288
1.538852752
1.524033378
1.505709845
1.486688575
1.464804891
1.43819027
1.413146539
1.390161494
1.367294895
1.346295238
1.328131354
1.309544561
1.289386548
1.272077556
1.256783078
1.240715668
1.223931338
1.211387353
1.200081822
1.187438036
1.175221055
1.165402578
1.155320627
1
1
1
1.000000162
1.000077935
1.00989784
1.183275688
1.480134987
1.546891662
1.549765805
1.549986478
1.549665269
1.548077961
1.537773
1.519539784
1.497242319
1.47549843
1.452552049
1.425964758
1.40100379
1.378398395
1.356490009
1.335225037
1.317072698
1.298999281
1.279528102
1.262298564
1.247265842
1.231740751
1.215320575
1.202752649
1.191475705
1.179068637
1.166708693
1.1570456
1.147218906
1
1
1.000000007
1.000005906
1.00141402
1.066290003
1.338217442
1.519798012
1.553760496
1.554051265
1.551138411
1.548548299
1.54581703
1.534395632
1.513282938
1.487473418
1.463209886
1.43963157
1.41341803
1.388630823
1.366728924
1.345918803
1.324731294
1.306785879
1.28928846
1.270493834
1.253218696
1.238278923
1.223012293
1.206795635
1.194144631
1.182924864
1.170782362
1.158397437
1.148809975
1.139136438
1
1
1.000000247
1.000118549
1.0152992
1.206884676
1.446833962
1.542521659
1.557099287
1.555873616
1.551398464
1.546108834
1.540662641
1.527027099
1.503776563
1.475648199
1.450345361
1.427408715
1.401903465
1.377311841
1.355862213
1.335762664
1.314725613
1.29671736
1.279310745
1.260854562
1.243460205
1.228697592
1.213870362
1.197999944
1.185367502
1.174205627
1.162303869
1.149881266
1.140383236
1.130913607
1.120150673
1
1.000000004
1.000004777
1.001253482
1.085327537
1.358965846
1.504708913
1.552934927
1.55653422
1.554679725
1.551479222
1.543030669
1.533836836
1.517477021
1.493163376
1.464083499
1.438212237
1.415701842
1.39079115
1.366168235
1.345096135
1.325632914
1.304762915
1.286716173
1.269561028
1.251561956
1.23415461
1.219389856
1.204809437
1.189218751
1.176561614
1.165454963
1.153763484
1.141362549
1.131912268
1.122622166
1.112175218
1
1.000000099
1.000057754
1.009040113
1.235270503
1.467539342
1.539678868
1.554020566
1.557876812
1.556127779
1.549419603
1.539376044
1.526298598
1.507222039
1.482504247
1.452874876
1.426406861
1.404250829
1.379934267
1.35520036
1.334498943
1.315467339
1.294779609
1.276621829
1.259547226
1.241878778
1.224335474
1.209632418
1.195394239
1.180096093
1.167502248
1.156530305
1.145090016
1.132715761
1.123271861
1.114134205
1.104081012
1
1.000002008
1.000520105
1.049782189
1.384280006
1.52326575
1.554119694
1.55586785
1.554447867
1.550434928
1.542629331
1.532883397
1.518072825
1.496576465
1.472073668
1.442435697
1.415581122
1.393547904
1.369638274
1.344605912
1.323924851
1.305073024
1.284575589
1.26627427
1.249384992
1.232018843
1.214464237
1.199767047
1.185778179
1.170810499
1.15833049
1.147500655
1.136307509
1.12404985
1.114626996
1.105676281
1.095933487
1
1.000030906
1.004197128
1.167944316
1.476364342
1.555037606
1.557266172
1.554860093
1.55093065
1.544676222
1.536351991
1.525635889
1.50691074
1.485419326
1.462097511
1.432715357
1.405169957
1.382782489
1.359069221
1.333643399
1.313053208
1.294362756
1.274072113
1.255592336
1.238794103
1.221812389
1.204326928
1.189649987
1.175908924
1.161302285
1.149000987
1.138357162
1.127399987
1.115220417
1.105779551
1.09696574
1.087552347
1.000000004
1.000357957
1.029290605
1.33773466
1.531040932
1.557694341
1.556700117
1.554203871
1.547284938
1.539202291
1.530462132
1.516964895
1.49721725
1.475553761
1.452484313
1.422983519
1.39476836
1.372006839
1.348417482
1.322600402
)
;

boundaryField
{
    inlet
    {
        type            fixedValue;
        value           nonuniform 0();
    }
    outlet
    {
        type            inletOutlet;
        inletValue      nonuniform 0();
        value           nonuniform 0();
    }
    bottom
    {
        type            slip;
    }
    top
    {
        type            slip;
    }
    obstacle
    {
        type            zeroGradient;
    }
    defaultFaces
    {
        type            empty;
    }
    procBoundary3to2
    {
        type            processor;
        value           nonuniform List<scalar> 
37
(
1
1
1
1
1
1
1
1
1
1
1
1
1
1
1
1
1
1
1
1
1
1
1
1
1
1
1
1
1
1
1
1
1
1
1
1
1
)
;
    }
    procBoundary3to4
    {
        type            processor;
        value           nonuniform List<scalar> 
62
(
1.897814381
1.895245014
1.898394122
1.888793367
1.825880872
1.643377537
1.475988922
1.423140631
1.410367969
1.40714321
1.40773893
1.406823373
1.401381863
1.396356652
1.393297144
1.38975284
1.386487457
1.382246957
1.377733627
1.372527994
1.366441779
1.360180236
1.352757662
1.345304855
1.337367849
1.329322802
1.322114115
1.315603908
1.310566361
1.306409655
1.302967164
1.299832892
1.296530368
1.292636476
1.288156194
1.282666393
1.27712646
1.270575436
1.264192957
1.257172101
1.249928926
1.242429619
1.234337002
1.226326385
1.21733277
1.208451802
1.199725553
1.190695326
1.182477562
1.174186263
1.16626898
1.158676403
1.150843809
1.143318788
1.135677283
1.127928393
1.127928393
1.108598914
1.100669228
1.092743456
1.084681719
1.076531548
)
;
    }
    procBoundary3to8
    {
        type            processor;
        value           nonuniform List<scalar> 
26
(
1
1
1
1
1
1
1
1
1
1
1
1
1
1
1
1
1
1
1
1
1
1
1
1
1
1
)
;
    }
    procBoundary3to9
    {
        type            processor;
        value           nonuniform List<scalar> 
38
(
1.301956307
1.283353617
1.263346714
1.244640716
1.228011085
1.211318582
1.193900425
1.179287461
1.165854217
1.151653769
1.139504762
1.129017089
1.11832632
1.106416995
1.097037933
1.088376774
1.07923028
1.00000033
1.003399925
1.125023681
1.469277248
1.560447528
1.559057692
1.556763113
1.550884475
1.539829346
1.533393216
1.523874982
1.509414099
1.488462414
1.465983635
1.442643352
1.41279119
1.383849988
1.360663067
1.337223959
1.301956307
1.311084057
)
;
    }
}


// ************************************************************************* //
