/*--------------------------------*- C++ -*----------------------------------*\
  =========                 |
  \\      /  F ield         | OpenFOAM: The Open Source CFD Toolbox
   \\    /   O peration     | Website:  https://openfoam.org
    \\  /    A nd           | Version:  7
     \\/     M anipulation  |
\*---------------------------------------------------------------------------*/
FoamFile
{
    version     2.0;
    format      ascii;
    class       volScalarField;
    location    "3.4";
    object      rho;
}
// * * * * * * * * * * * * * * * * * * * * * * * * * * * * * * * * * * * * * //

dimensions      [1 -3 0 0 0 0 0];

internalField   nonuniform List<scalar> 
555
(
1.813521335
1.79519356
1.762924903
1.719421724
1.40000504
1.400005073
1.400013205
1.400159087
1.402744558
1.416949027
1.477069109
1.595700169
1.724354839
1.771518252
1.809500144
1.822195452
1.821004982
1.814769552
1.797188592
1.765580572
1.721730279
1.67001406
1.400005041
1.400006524
1.400164779
1.401886614
1.41767681
1.473338457
1.587663678
1.726000521
1.80504034
1.813621178
1.819480865
1.821411518
1.816816676
1.79966426
1.767916325
1.724671674
1.671580281
1.615876591
1.400005197
1.400050267
1.401918613
1.414400829
1.472487927
1.592778572
1.725600887
1.774474036
1.811919267
1.823839711
1.823268768
1.818038733
1.802051769
1.771101664
1.727441709
1.672888122
1.614026622
1.55690793
1.400017338
1.400849946
1.414455127
1.467795703
1.583445829
1.725541462
1.807939266
1.815699305
1.82206072
1.823804195
1.820206099
1.805074472
1.774654651
1.73067484
1.676106684
1.61265445
1.552289591
1.493283811
1.400431662
1.409434038
1.465800337
1.588944921
1.728510431
1.777427264
1.814080935
1.826770024
1.826546098
1.822230636
1.807951894
1.778482521
1.733687637
1.678281172
1.612735634
1.545859961
1.486669618
1.422838406
1.407068639
1.456913804
1.582481671
1.726463643
1.81545896
1.817878905
1.822975233
1.826178294
1.823890758
1.810917532
1.782585591
1.737585116
1.680336379
1.613370462
1.540766396
1.476339631
1.415960222
1.34929073
1.452902572
1.587148606
1.719770845
1.788294466
1.830260187
1.834015527
1.830964559
1.826480784
1.813155546
1.785828532
1.741090793
1.680817392
1.613191859
1.536716189
1.463983805
1.403525311
1.336766658
1.274490789
1.578649063
1.738603547
1.815633688
1.813679129
1.823779167
1.830135018
1.827290337
1.815087492
1.788916388
1.745531534
1.683045818
1.611275669
1.53468465
1.451295889
1.386144425
1.327348426
1.259195345
1.212403506
1.724803131
1.813243863
1.842131314
1.837802341
1.828793165
1.826167215
1.8165471
1.792298047
1.74978738
1.68547959
1.607853752
1.529471832
1.440570738
1.362010131
1.306269263
1.240530469
1.181233824
1.157739615
1.79580394
1.816840733
1.838276672
1.838753717
1.833935314
1.820729808
1.796215221
1.754745654
1.689728832
1.603370948
1.521681259
1.431695344
1.3393921
1.285468498
1.22791796
1.155150865
1.113094041
1.089046565
1.837056763
1.83058145
1.830838266
1.829705228
1.821511246
1.800908465
1.760475312
1.693887798
1.601143849
1.508347113
1.417977692
1.313667161
1.244369414
1.20052597
1.13412354
1.089067043
1.069510213
1.034733777
1.839770825
1.835367692
1.827277812
1.819327471
1.803693309
1.767210429
1.699547159
1.598007562
1.4954213
1.401381882
1.290460957
1.216738828
1.171616617
1.107312346
1.035613417
1.020313072
1.010911421
0.9789230701
1.831753016
1.826232353
1.819121539
1.805462663
1.771731496
1.702098866
1.594602955
1.479753964
1.37133968
1.256093683
1.164149546
1.132236139
1.091062782
1.031805627
0.9971937803
0.980231285
0.9508484159
0.9216603333
1.826510243
1.820054628
1.809634438
1.778933258
1.705757452
1.585230868
1.463191762
1.343154915
1.227546533
1.141914098
1.086008222
1.038222719
0.977056471
0.9529803038
0.9553074783
0.9474926041
0.9251464535
0.9144767861
1.820426891
1.814096648
1.788974147
1.712948346
1.57840249
1.428778051
1.297605553
1.160668602
1.076859361
1.05286413
1.019313904
0.9768328655
0.9397479912
0.9183957463
0.9098982444
0.9081345331
0.9083395946
0.9149007156
1.818219943
1.799773304
1.724507171
1.566001917
1.39723182
1.253218915
1.118858976
1.045113069
0.9959549366
0.9478184037
0.9243597601
0.9146372756
0.9129097795
0.9109414913
0.9037328063
0.9026230582
0.9149291796
0.987549902
1.813953652
1.740366159
1.559022697
1.347426467
1.16174409
1.025519022
0.9896656262
0.9750795357
0.9493231767
0.9134983688
0.8874939291
0.8799294558
0.8860287092
0.9037327283
0.9089982918
0.9424079847
1.034332441
1.176431989
1.757568083
1.547265783
1.311060655
1.148216529
1.022477051
0.9328307503
0.9043557744
0.8943667493
0.8960956964
0.8957657829
0.8899045102
0.8864969184
0.8911455666
0.9100903271
0.9722134703
1.111802256
1.272083492
1.322676649
1.455904269
1.031101847
0.9609442738
0.9688960193
0.9739358496
0.9497798213
0.9147631954
0.8987825675
0.8949942209
0.8955587937
0.8962259165
0.9052602912
0.9435164609
1.057084939
1.23355244
1.290337405
1.346704651
1.363244426
0.8952748321
0.8016830271
0.7993711408
0.8919748616
0.9543358771
0.9409611041
0.9153897255
0.9038339412
0.8992959315
0.902472966
0.9120294468
0.9428366931
1.03773698
1.197050756
1.335168985
1.379169566
1.358037829
1.362149863
0.8574796205
0.7940909412
0.8032165455
0.8938241433
0.9541489841
0.9355389577
0.9142178931
0.9049414482
0.9014211169
0.90491468
0.9182603851
0.9631974159
1.084200947
1.237640397
1.347511629
1.380231406
1.359485414
1.363958217
0.8473921404
0.7927643444
0.7988149827
0.8857591797
0.9491747195
0.9313376734
0.9145696539
0.9065174481
0.9035630368
0.9073754155
0.9243389824
0.9802075709
1.124267442
1.272771323
1.358890518
1.379847339
1.359953863
1.366073043
0.8385281498
0.7913148841
0.7988368476
0.8826876674
0.9463896669
0.9278793893
0.9140372073
0.9079674582
0.9063242379
0.9111974098
0.9333655684
1.011937956
1.163062438
1.30867526
1.372718757
1.380469039
1.361271245
1.367152934
0.8299801159
0.7889181662
0.8009016848
0.8816437713
0.943444217
0.9239627488
0.9146675717
0.9096024186
0.9086180493
0.915068773
0.9456010045
1.0402111
1.20530526
1.334300899
1.381328835
1.381260174
1.362910053
1.368811501
0.8222643221
0.7858604159
0.8041195877
0.8826238308
0.94062894
0.9222171294
0.9154201946
0.9116943704
0.9110593151
0.919322305
0.9589694153
1.064675391
1.24602837
1.349484589
1.385255846
1.38266216
1.364412655
1.370778632
0.8152652936
0.7832692478
0.8076653324
0.8845803685
0.937485227
0.9198820907
0.9156339916
0.9137896605
0.9151276772
0.9263247251
0.9735173062
1.108370014
1.27456299
1.362367119
1.386972724
1.383752378
1.366275723
1.373446507
0.8092011598
0.7818131777
0.811235056
0.8872958388
0.934267445
0.9191093587
0.9157996246
0.9152257877
0.9189792872
0.9361215989
1.0005296
1.156597945
1.296788473
1.367319894
1.387243124
1.38436242
1.36942168
1.376985074
0.8039307658
0.7803095607
0.8154768496
0.8903505942
0.9309939216
0.9184029839
0.9170872258
0.9168774507
0.9214417954
0.9467248072
1.037601897
1.188520863
1.31732262
1.370355965
1.386404671
1.384132092
1.371863029
0.7994768304
0.7802823426
0.8200108165
0.8929838885
0.9276925227
0.9175385302
0.9187653018
0.9198711216
0.9259851393
0.9612661561
1.066089094
1.2267568
1.336285726
1.373101966
1.385763234
1.383235399
1.373021763
0.7957008448
0.7806619975
0.824513575
0.8952611309
0.9242991912
0.9160448698
0.918863193
0.9231059616
0.936201055
0.9803812232
1.099237208
1.278478814
1.359263768
1.37503635
1.386474285
1.38202788
1.373143359
0.7925819543
0.7818013943
0.8286975751
0.8970991695
0.9210720154
0.9159365801
0.919108635
0.9247437482
0.9450610375
1.002209905
1.15011346
1.303134785
1.372407077
1.37996045
)
;

boundaryField
{
    inlet
    {
        type            calculated;
        value           nonuniform 0();
    }
    outlet
    {
        type            calculated;
        value           nonuniform 0();
    }
    bottom
    {
        type            calculated;
        value           nonuniform 0();
    }
    top
    {
        type            calculated;
        value           nonuniform 0();
    }
    obstacle
    {
        type            calculated;
        value           nonuniform List<scalar> 
12
(
0.8952748321
0.8574796205
0.8473921404
0.8385281498
0.8299801159
0.8222643221
0.8152652936
0.8092011598
0.8039307658
0.7994768304
0.7957008448
0.7925819543
)
;
    }
    defaultFaces
    {
        type            empty;
    }
    procBoundary9to3
    {
        type            processor;
        value           nonuniform List<scalar> 
19
(
1.818399488
1.81131834
1.792556552
1.760504545
1.40000504
1.400005041
1.400005298
1.400012879
1.400277892
1.402505727
1.419750812
1.476754397
1.588774226
1.723280017
1.803415723
1.813032687
1.816657505
1.818446533
1.818446533
)
;
    }
    procBoundary9to4
    {
        type            processor;
        value           nonuniform List<scalar> 5(1.669757475 1.617878648 1.560969673 1.497965608 1.430543181);
    }
    procBoundary9to8
    {
        type            processor;
        value           nonuniform List<scalar> 2(1.40000504 1.40000504);
    }
    procBoundary9to10
    {
        type            processor;
        value           nonuniform List<scalar> 
27
(
1.362008474
1.299163008
1.237014183
1.177454331
1.123301703
1.043429804
0.9865501837
0.9582099987
0.9222880095
0.9168950096
0.9464044037
1.105956485
1.299012123
1.355238536
1.370549167
1.369480186
1.372443439
1.374628402
1.376166675
1.377140834
1.378364865
1.379717689
1.381960443
1.379390733
1.379390733
1.380813492
1.380728279
)
;
    }
    procBoundary9to14
    {
        type            processor;
        value           nonuniform List<scalar> 
17
(
1.40000504
1.400005024
1.400004974
1.400035963
1.404674781
1.465108667
1.637496516
1.78018099
1.836962224
1.837250472
1.832554702
1.834816171
1.823873346
1.820243211
1.819127868
1.820955189
1.826528468
)
;
    }
    procBoundary9to15
    {
        type            processor;
        value           nonuniform List<scalar> 
18
(
1.387305076
1.381211645
1.373619835
0.7903929372
0.7836734096
0.8326104405
0.8985007279
0.9181458587
0.9167676608
0.9211067993
0.9279405955
0.9523905497
1.035088569
1.187947853
1.307759144
1.375858846
1.387305076
1.388685682
)
;
    }
}


// ************************************************************************* //
