/*--------------------------------*- C++ -*----------------------------------*\
  =========                 |
  \\      /  F ield         | OpenFOAM: The Open Source CFD Toolbox
   \\    /   O peration     | Website:  https://openfoam.org
    \\  /    A nd           | Version:  7
     \\/     M anipulation  |
\*---------------------------------------------------------------------------*/
FoamFile
{
    version     2.0;
    format      ascii;
    class       volScalarField;
    location    "4.2";
    object      rho;
}
// * * * * * * * * * * * * * * * * * * * * * * * * * * * * * * * * * * * * * //

dimensions      [1 -3 0 0 0 0 0];

internalField   nonuniform List<scalar> 
555
(
1.407236793
1.408136265
1.409184141
1.411335952
1.414016265
1.414397104
1.414145524
1.414266572
1.414376635
1.414759465
1.414599282
1.399090455
1.403813789
1.402133743
1.402988455
1.403885984
1.404136839
1.404674301
1.405877662
1.407098235
1.409220679
1.411750377
1.41255319
1.41261154
1.412702569
1.412756197
1.412580555
1.413611961
1.39418957
1.39996071
1.39914587
1.400268538
1.401275044
1.401510644
1.402019323
1.403261567
1.404628558
1.406691545
1.40897201
1.410348747
1.410977029
1.410846825
1.4104912
1.410509031
1.411270666
1.39039807
1.396651402
1.396130275
1.39781232
1.399002429
1.399182585
1.39978122
1.401134709
1.402022346
1.403384727
1.405382633
1.407076349
1.408076597
1.408345173
1.408242601
1.408061333
1.408672385
1.393874505
1.394003548
1.396339812
1.397474003
1.397281373
1.397095649
1.398007127
1.398267406
1.39920269
1.40087487
1.403144683
1.404628352
1.405002162
1.405107208
1.405306786
1.405915443
1.391810256
1.391819445
1.39387361
1.394621525
1.394061732
1.393490714
1.394147873
1.393925624
1.394291666
1.395708541
1.39823977
1.399939466
1.400663582
1.401518349
1.402343179
1.402493691
1.389106215
1.38886134
1.390264503
1.390870245
1.39017157
1.389752494
1.390650056
1.39061237
1.390930619
1.392132019
1.393994928
1.395059699
1.395794718
1.39655613
1.397291483
1.396785695
1.386234318
1.385164692
1.38521525
1.386470463
1.386882761
1.38716939
1.388465035
1.388759678
1.389112408
1.390211202
1.391499914
1.392198813
1.393047688
1.393226143
1.392541617
1.391353754
1.38979939
1.382215162
1.380701437
1.381394784
1.384356605
1.385265872
1.385849185
1.387172368
1.387512997
1.387922357
1.388945609
1.390000912
1.390646317
1.391389691
1.391504427
1.390682833
1.389357529
1.38848574
1.380703423
1.379435198
1.380097219
1.383171914
1.384107664
1.385458567
1.387147585
1.387698969
1.388107015
1.388676137
1.389415403
1.390139071
1.390297516
1.390463383
1.38979047
1.388069455
1.387299291
1.380700217
1.379185995
1.379527393
1.383347556
1.384468616
1.384332374
1.385690616
1.386405723
1.386782293
1.387214597
1.387933084
1.388654538
1.389477496
1.389403998
1.389024154
1.388544259
1.387100375
1.381730861
1.380226411
1.380970915
1.384492225
1.383658343
1.382982556
1.383910188
1.384237077
1.384405109
1.384779101
1.385748086
1.386737609
1.387436489
1.38769581
1.38760132
1.387438687
1.387614763
1.380289908
1.38036417
1.383892373
1.382513637
1.380446556
1.380870414
1.380815232
1.380922528
1.381285659
1.382393617
1.383661146
1.384509712
1.384893711
1.385392349
1.385939917
1.387321203
1.379786404
1.378665065
1.381423165
1.379542722
1.377461719
1.378340047
1.3787247
1.378836601
1.378900742
1.379151508
1.379856739
1.38101858
1.381720921
1.382934216
1.384213582
1.385978744
1.378025936
1.374711354
1.377088674
1.376570452
1.376344891
1.37745058
1.377932703
1.378172673
1.378261885
1.378290436
1.378675407
1.379281762
1.380231863
1.38114665
1.382623549
1.384622974
1.374086985
1.370374388
1.374538932
1.375504876
1.375743673
1.376650165
1.377409043
1.377708231
1.377992388
1.378254287
1.378595858
1.379406057
1.3802167
1.380678387
1.381806434
1.383383343
1.372093908
1.369003126
1.373774003
1.374799893
1.375236974
1.376251996
1.37732691
1.377520648
1.377842042
1.378052881
1.378445512
1.379477418
1.380676558
1.381620187
1.381754936
1.381592681
1.371600564
1.368272713
1.373631935
1.375596142
1.375942349
1.376977093
1.377651726
1.377709872
1.378082785
1.378341155
1.378921104
1.380325787
1.382124256
1.383231745
1.382183386
1.378942802
1.372154398
1.368546187
1.37399786
1.375669965
1.375858698
1.376632106
1.377621632
1.378508709
1.378799562
1.379028944
1.379673343
1.380840366
1.381867709
1.382242306
1.381264612
1.378292846
1.371890436
1.367772402
1.37299179
1.374343442
1.374225321
1.374984941
1.376354208
1.377494955
1.377668484
1.377556642
1.377979204
1.378847054
1.379702269
1.380243578
1.379464423
1.378148877
1.365269896
1.368889023
1.373305168
1.372844025
1.372437935
1.373055151
1.374367491
1.375188982
1.375537366
1.375720552
1.375927854
1.376529329
1.377563621
1.378569387
1.379372413
1.379751094
1.34992765
1.3784322
1.381803053
1.374757864
1.372550697
1.372909378
1.373030237
1.373463513
1.374540712
1.375674296
1.376508519
1.377090921
1.37806391
1.37875958
1.379146683
1.379136115
1.28545214
1.359296447
1.364561974
1.367603043
1.373682136
1.373933539
1.372471678
1.373957135
1.376156627
1.377627354
1.378296107
1.377633891
1.377825362
1.378449973
1.378946611
1.379280305
1.108278337
1.257127889
1.30541675
1.353893861
1.376489149
1.371797066
1.372217514
1.377389665
1.380692004
1.380550409
1.379981491
1.377940159
1.377645765
1.378117116
1.379340546
1.380818263
0.9521279605
1.031516064
1.16358945
1.285150947
1.362873964
1.363388565
1.37545697
1.383490568
1.383432139
1.382695922
1.380143933
1.377588025
1.377620605
1.378413134
1.380870364
1.382522824
0.9199677526
0.9289936548
0.9828442597
1.080636637
1.211748162
1.297222947
1.370328437
1.376361461
1.372837389
1.37913395
1.37963178
1.379109417
1.380028248
1.382093208
1.384093384
1.384146083
0.9260926685
0.9302941599
0.9317224865
0.949850195
1.022512632
1.149074904
1.272595577
1.3115419
1.347359765
1.384871347
1.382445166
1.381798382
1.38419109
1.386085527
1.386269278
1.384634299
0.959233099
0.9501320259
0.938144258
0.9324827968
0.9375475024
0.981755355
1.069316708
1.194548378
1.307004819
1.368608609
1.368679983
1.376277897
1.382963948
1.384374293
1.383940236
1.382990053
0.9868127408
0.9695300858
0.9581061243
0.939614836
0.9389760648
0.9445374034
0.9616324366
1.020945607
1.116198585
1.236734116
1.299975377
1.354638115
1.367225813
1.374436316
1.380515701
1.381878297
1.048817729
1.016514471
1.008566824
0.9876302991
0.9591914584
0.9516205953
0.9507032107
0.9541477771
0.9778878387
1.053167958
1.18726167
1.312198503
1.338419048
1.363769463
1.386305208
1.383575274
1.124925385
1.077254832
1.043279981
1.025995691
0.9961172126
0.9652801658
0.9624847009
0.9584664239
0.957063296
0.9660546603
1.020499889
1.120848738
1.235869158
1.327286746
1.375762732
1.370178763
1.172216513
1.134108907
1.085384051
1.071045637
1.055879604
1.020532215
0.9965904403
0.9866062258
0.9705391458
0.9610122387
0.9651523928
0.989770315
1.068066296
1.164027197
1.275365586
1.318131146
1.230951041
1.200572877
1.157861865
1.119672447
1.098298063
1.06613746
1.023429122
1.011056632
0.9999380553
0.9748366947
0.9671939818
0.9720820793
0.9854306589
1.021440027
1.105053274
1.232132908
1.298878905
1.257182995
1.216523626
1.168585045
1.138427213
1.118901583
1.083143447
1.05303261
1.043905189
1.022204684
0.9912420607
0.9836367788
0.979385928
0.9799621667
0.9949529164
1.061251352
1.366379924
1.313905666
1.273188827
1.228934103
1.189627856
1.169255058
1.139949629
1.097137277
)
;

boundaryField
{
    inlet
    {
        type            calculated;
        value           nonuniform 0();
    }
    outlet
    {
        type            calculated;
        value           nonuniform 0();
    }
    bottom
    {
        type            calculated;
        value           nonuniform 0();
    }
    top
    {
        type            calculated;
        value           nonuniform 0();
    }
    obstacle
    {
        type            calculated;
        value           nonuniform 0();
    }
    defaultFaces
    {
        type            empty;
    }
    procBoundary28to21
    {
        type            processor;
        value           nonuniform List<scalar> 8(1.401999637 1.397128231 1.392059679 1.38691865 1.38691865 1.383525292 1.380407462 1.376385515);
    }
    procBoundary28to22
    {
        type            processor;
        value           nonuniform List<scalar> 
18
(
1.4116017
1.411954248
1.412155582
1.413666326
1.416097031
1.415794619
1.415197153
1.415313781
1.415949179
1.415974548
1.415573138
1.403764294
1.408334746
1.406048861
1.406209631
1.406838709
1.406908097
1.406908097
)
;
    }
    procBoundary28to23
    {
        type            processor;
        value           uniform 1.414595429;
    }
    procBoundary28to27
    {
        type            processor;
        value           nonuniform List<scalar> 
28
(
1.372461857
1.370456602
1.369221724
1.368632191
1.381733994
1.381733994
1.380762162
1.378431343
1.37538868
1.3734942
1.372303945
1.372075096
1.371763361
1.374175654
1.33330075
1.176617773
0.9812294362
0.9166069967
0.9182978408
0.924620349
0.9767992231
1.033369151
1.087802553
1.151614589
1.207323039
1.280704203
1.35663802
1.42389813
)
;
    }
    procBoundary28to29
    {
        type            processor;
        value           nonuniform List<scalar> 
34
(
1.413770397
1.412362511
1.410049889
1.406680877
1.401960955
1.395237777
1.395237777
1.389412534
1.388034827
1.386546475
1.38677074
1.387725792
1.388587838
1.387789005
1.385822667
1.383701337
1.378940572
1.377128647
1.376094848
1.377342869
1.37977785
1.378830735
1.379667105
1.381389011
1.382526214
1.383022229
1.382508857
1.382000326
1.382890738
1.382780854
1.375051095
1.360191642
1.330635896
1.165236329
)
;
    }
    procBoundary28to34
    {
        type            processor;
        value           nonuniform List<scalar> 
17
(
1.073606194
1.059595069
1.031224404
1.000062652
0.9925754594
0.9843752099
0.984370049
0.9906857167
1.433775316
1.378786865
1.333733632
1.29016972
1.24146997
1.207932312
1.18318624
1.073606194
1.146674336
)
;
    }
}


// ************************************************************************* //
