/*--------------------------------*- C++ -*----------------------------------*\
  =========                 |
  \\      /  F ield         | OpenFOAM: The Open Source CFD Toolbox
   \\    /   O peration     | Website:  https://openfoam.org
    \\  /    A nd           | Version:  7
     \\/     M anipulation  |
\*---------------------------------------------------------------------------*/
FoamFile
{
    version     2.0;
    format      ascii;
    class       volVectorField;
    location    "3.4";
    object      U;
}
// * * * * * * * * * * * * * * * * * * * * * * * * * * * * * * * * * * * * * //

dimensions      [0 1 -1 0 0 0 0];

internalField   nonuniform List<vector> 
2222
(
(2.994426129 0.002467963463 0)
(2.995492978 0.002301071682 0)
(2.994850551 0.003547219536 0)
(2.994235222 0.003609657973 0)
(2.993899303 0.003276835919 0)
(2.994225559 0.001858691919 0)
(2.994086492 0.0004823135888 0)
(2.994698244 -0.0002813830091 0)
(2.994843411 -0.0002437540072 0)
(2.995084278 -0.0002556662703 0)
(2.995240256 -0.0002658912746 0)
(2.994901239 0.000325822333 0)
(2.994835148 0.0005201958673 0)
(2.994826238 0.0005304715863 0)
(2.994869663 0.0002148587087 0)
(2.994820174 -6.533844217e-05 0)
(2.994809184 -5.813977544e-05 0)
(2.99485362 9.624965235e-05 0)
(3.094726427 0.3607801395 0)
(3.095884114 0.3605373179 0)
(3.09494019 0.35515634 0)
(3.087635377 0.3344927104 0)
(3.072850568 0.2696075993 0)
(3.047281678 0.163369312 0)
(3.043937069 0.1144228563 0)
(3.039432855 0.06780582647 0)
(3.013466485 0.02771039356 0)
(3.00844125 0.01735352332 0)
(2.997266606 0.007913143966 0)
(2.995532135 0.005607682346 0)
(2.993792214 0.002344534497 0)
(2.994008338 0.001091713451 0)
(2.99449737 0.0001186282542 0)
(2.994478985 -4.724650344e-05 0)
(2.99427571 0.0002797193168 0)
(2.993781667 0.001033271497 0)
(2.993706221 0.001501298708 0)
(2.994038236 0.0009910763637 0)
(2.994186012 0.0003835329184 0)
(2.99451645 -0.0002227687469 0)
(2.994837724 -0.0007487438626 0)
(2.995101164 -0.0009744067692 0)
(2.995132425 -0.0008932253862 0)
(2.99485677 -0.0003967282591 0)
(2.994630678 0.0002912248785 0)
(2.994585729 0.000456728237 0)
(2.994629945 0.0003999060642 0)
(2.994660197 0.0002056915059 0)
(2.994685322 0.0001919099306 0)
(2.994787029 0.0003562886749 0)
(3.094195206 0.3623886022 0)
(3.09110819 0.3478036419 0)
(3.083330965 0.3136543894 0)
(3.048906856 0.1943071386 0)
(3.053315749 0.1347578612 0)
(3.02206176 0.01129250817 0)
(3.006693551 -0.02068137028 0)
(2.991771891 0.008111447957 0)
(2.994957957 0.006681683005 0)
(2.998404995 0.004569830476 0)
(2.996551778 0.003857466383 0)
(2.992795669 0.003140665886 0)
(2.992334392 0.003111989059 0)
(2.992801507 0.002322060427 0)
(2.993528298 0.0009389398449 0)
(2.99368391 -0.0002405372825 0)
(2.993615466 -0.0003658774841 0)
(2.993545268 -8.406046363e-05 0)
(2.993680473 0.0002910040595 0)
(2.993976792 0.0005284434728 0)
(2.99428069 0.0002962377945 0)
(2.99444903 -5.573929182e-05 0)
(2.994703187 -0.000584852367 0)
(2.994912431 -0.0008864463854 0)
(2.994926814 -0.0008067853552 0)
(2.994722364 -0.0003485594262 0)
(2.994518303 0.000240928745 0)
(2.994440463 0.0004955385432 0)
(2.994426845 0.0005079248856 0)
(2.994394558 0.0004679859995 0)
(2.994420492 0.0005064141053 0)
(2.994509762 0.0006384163985 0)
(3.084327704 0.3293629332 0)
(3.066575466 0.2579575806 0)
(3.040886926 0.1476514333 0)
(3.026747917 0.08417499269 0)
(3.028938145 0.05846626561 0)
(3.013910013 0.01960275375 0)
(3.000056527 0.001682226392 0)
(2.996588872 0.003880737109 0)
(2.995951629 0.002366882694 0)
(2.995888231 -3.697546126e-05 0)
(2.995475652 -0.00153442116 0)
(2.992443313 -0.0001627542958 0)
(2.991487935 0.002544962001 0)
(2.99248673 0.002134673444 0)
(2.992753265 0.001591805045 0)
(2.992888086 0.0006283233306 0)
(2.993098659 0.0001231786089 0)
(2.993287548 0.0001910075176 0)
(2.993668034 0.0002518029162 0)
(2.994004895 0.0003230436273 0)
(2.994252503 0.0003627900133 0)
(2.994372058 8.697447736e-05 0)
(2.994527275 -0.0002489294762 0)
(2.994686954 -0.0004253894213 0)
(2.994649025 -0.0003640879141 0)
(2.99452156 -8.177792475e-06 0)
(2.994373687 0.0004540000962 0)
(2.994279577 0.0005712101983 0)
(2.994229235 0.000535079112 0)
(2.994104569 0.0004623579656 0)
(2.994093636 0.0004972179249 0)
(2.994143765 0.0005939000496 0)
(3.06442426 0.2200819496 0)
(3.037451906 0.1252384614 0)
(3.024918421 0.05977341686 0)
(3.012271041 -0.01386960998 0)
(2.995525453 -0.001310125406 0)
(2.994122852 0.004530284148 0)
(2.994189083 0.003949063708 0)
(2.994997931 0.003377096359 0)
(2.995739827 0.001961307181 0)
(2.996039961 -0.0005143634778 0)
(2.994679523 -0.001453581864 0)
(2.993383384 -0.000277991389 0)
(2.992340953 0.001630699519 0)
(2.992369376 0.002081055571 0)
(2.992428745 0.001633707918 0)
(2.992604446 0.0008564739953 0)
(2.992716803 0.0007431352326 0)
(2.993180267 0.0006300516204 0)
(2.993616303 0.0005203925006 0)
(2.993907791 0.0003859472675 0)
(2.994124488 0.0002798991035 0)
(2.994196449 8.645116216e-06 0)
(2.994279628 -0.0002146802489 0)
(2.994334095 -0.0002542519442 0)
(2.9942284 -0.0001386746846 0)
(2.99414286 0.0001915733956 0)
(2.994086019 0.000485105787 0)
(2.994049569 0.0005484343944 0)
(2.993994168 0.0005035876427 0)
(2.993904549 0.0004092832543 0)
(2.993853679 0.000439820941 0)
(2.993843684 0.0004578017032 0)
(3.024907028 0.005068349383 0)
(3.008106016 0.002382306997 0)
(3.003537314 0.009259804351 0)
(3.003804709 0.0009454583522 0)
(3.001441684 -0.001271861603 0)
(2.996382263 0.0002541580653 0)
(2.99304282 0.001280613834 0)
(2.993034438 0.002787119818 0)
(2.99451866 0.003528042583 0)
(2.994504311 0.0026188062 0)
(2.994208962 0.001915446212 0)
(2.993585661 0.001866955701 0)
(2.99296118 0.002355884884 0)
(2.992661229 0.001820286607 0)
(2.992612285 0.0006355331168 0)
(2.992800766 0.000186090292 0)
(2.992908364 5.214769579e-05 0)
(2.993134482 2.986804856e-05 0)
(2.993557659 0.0002114674708 0)
(2.993834945 0.0001605939587 0)
(2.993930483 3.349278834e-05 0)
(2.993869824 -0.0001819373168 0)
(2.993848332 -0.0003896121333 0)
(2.993814096 -0.0004285254522 0)
(2.993693662 -0.0002922238073 0)
(2.993632486 -2.862663987e-05 0)
(2.993691784 0.0003178140231 0)
(2.9938121 0.0005930326421 0)
(2.993787205 0.0006438621821 0)
(2.993769058 0.0006185280667 0)
(2.993717438 0.0006560572313 0)
(2.993641489 0.0005943399628 0)
(3.010612581 0.02822571588 0)
(3.005424503 0.0177020401 0)
(3.002462867 0.01288813958 0)
(2.999859919 0.004734915724 0)
(2.999726222 -0.001789576114 0)
(2.995460201 -0.002800760394 0)
(2.993817534 -0.0009866681338 0)
(2.993227974 0.00104315362 0)
(2.993681875 0.002424803462 0)
(2.994123385 0.003024067561 0)
(2.993571692 0.003195463663 0)
(2.993412679 0.003119034034 0)
(2.993171465 0.002874825488 0)
(2.993050056 0.001904629678 0)
(2.99306614 -1.636211711e-05 0)
(2.993176413 -0.0008053031285 0)
(2.99330104 -0.0009202438324 0)
(2.993371735 -0.0007644771078 0)
(2.993495182 -0.0004312927426 0)
(2.993719439 -0.000162196954 0)
(2.993659469 -0.0001438376699 0)
(2.993533187 -0.0002126379178 0)
(2.993422905 -0.0004002552082 0)
(2.993373671 -0.0004724577722 0)
(2.993281146 -0.0004248595311 0)
(2.993266964 -0.0002104440283 0)
(2.993376813 0.0001711692485 0)
(2.993549481 0.0005877595635 0)
(2.993616236 0.0008094366242 0)
(2.993610971 0.0008135212198 0)
(2.993563883 0.000856380319 0)
(2.993493455 0.0007689162109 0)
(2.989606883 0.00675412432 0)
(2.993904614 0.004830615835 0)
(2.997892311 0.00528121972 0)
(2.995833919 0.002219866943 0)
(2.995403005 0.001008609333 0)
(2.9942436 4.544572769e-05 0)
(2.99287089 0.0002997055978 0)
(2.993109765 0.001090630285 0)
(2.993141234 0.001485435042 0)
(2.993381319 0.001995815923 0)
(2.993281164 0.00245409408 0)
(2.993266558 0.002606728925 0)
(2.993371094 0.002358788759 0)
(2.993602287 0.001500873381 0)
(2.993732363 -6.195594774e-05 0)
(2.993834628 -0.000971560854 0)
(2.993899355 -0.001261471425 0)
(2.993775312 -0.001116809411 0)
(2.993678985 -0.0008510247993 0)
(2.993660638 -0.0004812125421 0)
(2.993394936 -0.0001433236411 0)
(2.993258552 -8.549440435e-05 0)
(2.993129515 -0.0001734593588 0)
(2.993006733 -0.0002809553087 0)
(2.992913321 -0.000263446772 0)
(2.99294609 -0.0001113621039 0)
(2.993108923 0.0002457917443 0)
(2.993308326 0.0006863190826 0)
(2.993410646 0.0008620762076 0)
(2.993427595 0.0008657099212 0)
(2.993410679 0.0008988141807 0)
(2.993410886 0.0007703929438 0)
(2.9934793 0.002020297051 0)
(2.993050084 0.0006838056163 0)
(2.993912184 -0.0001990903459 0)
(2.99455806 -0.0007941892024 0)
(2.993399234 0.000668087423 0)
(2.992897816 0.0007672892069 0)
(2.992294801 0.001280064418 0)
(2.992115263 0.001483896347 0)
(2.992769701 0.001093928741 0)
(2.992964114 0.000879333194 0)
(2.993107655 0.0008711315563 0)
(2.993261541 0.001172172034 0)
(2.993829518 0.001284383858 0)
(2.994280105 0.0008193744634 0)
(2.994672414 8.512641241e-05 0)
(2.994763971 -0.000657876054 0)
(2.994397836 -0.0008859038661 0)
(2.994123362 -0.0008361512151 0)
(2.993884298 -0.0006601793536 0)
(2.993612688 -0.0003221227515 0)
(2.99320449 -6.529433532e-05 0)
(2.992939245 2.824486648e-06 0)
(2.992782352 -1.703190032e-05 0)
(2.992618013 -6.316363417e-05 0)
(2.992549315 -8.576401877e-05 0)
(2.992635581 3.727241146e-05 0)
(2.992858191 0.0003451175943 0)
(2.993058508 0.0006279462083 0)
(2.993190078 0.0007242006357 0)
(2.993288951 0.0007160717238 0)
(2.993310476 0.0007472271988 0)
(2.993381339 0.0006102498896 0)
(2.994131435 -0.0004905026159 0)
(2.993338147 -0.001307919234 0)
(2.99422921 -0.002705254267 0)
(2.994003669 -0.002796620406 0)
(2.993190806 -0.001537279384 0)
(2.991874364 0.0005296535733 0)
(2.991684638 0.001767194659 0)
(2.991710652 0.001853552005 0)
(2.992199363 0.001396585785 0)
(2.992443174 0.0008599565994 0)
(2.992819392 0.0006689688568 0)
(2.993357245 0.00080906182 0)
(2.994091827 0.0009915052489 0)
(2.994856339 0.0007675841876 0)
(2.995252347 0.0002742306862 0)
(2.995112212 -0.0003693638306 0)
(2.994670694 -0.0005626671428 0)
(2.994278558 -0.0005025528951 0)
(2.994043981 -0.0003345071404 0)
(2.993599737 -8.312901615e-05 0)
(2.993174687 0.0001105426284 0)
(2.992700099 0.0001101426803 0)
(2.992543171 5.776662976e-05 0)
(2.992376846 7.893057091e-06 0)
(2.992296705 -5.643437196e-06 0)
(2.992391446 0.0001171382496 0)
(2.992595025 0.0003303418802 0)
(2.992789754 0.0004676409152 0)
(2.993018717 0.0005295777049 0)
(2.993141699 0.0004726188061 0)
(2.993194703 0.0004525254986 0)
(2.99333243 0.0003936169948 0)
(2.993108112 0.001616981986 0)
(2.993306329 0.001051880107 0)
(2.993603485 -0.0002673991768 0)
(2.993384077 -0.001228601643 0)
(2.992862814 -0.0004438476404 0)
(2.991935945 0.0007109068858 0)
(2.991705336 0.001527319062 0)
(2.991757642 0.001640519436 0)
(2.991977875 0.001412107931 0)
(2.992168275 0.001106297292 0)
(2.992609255 0.0008341838756 0)
(2.993408492 0.0009332528338 0)
(2.994350853 0.0009239984817 0)
(2.994824227 0.0006393929994 0)
(2.995278719 0.0002424820065 0)
(2.99520033 -0.000178929843 0)
(2.99477969 -0.0003522838288 0)
(2.994342953 -0.0002856178393 0)
(2.994122704 -0.0001516261385 0)
(2.993604774 9.120696047e-05 0)
(2.993112037 0.0002967186714 0)
(2.992661115 0.0002864702807 0)
(2.992505847 0.0002086754366 0)
(2.992354464 9.988996626e-05 0)
(2.992255958 1.347359119e-05 0)
(2.992286145 4.87407831e-05 0)
(2.992396337 0.0001182373952 0)
(2.992667351 0.0002153527984 0)
(2.992881911 0.0002670841132 0)
(2.993012778 0.0002506880172 0)
(2.993095261 0.0002489501781 0)
(2.993279666 0.0002790621983 0)
(2.993410068 0.001256023353 0)
(2.993476261 0.001987341034 0)
(2.9932104 0.001727981506 0)
(2.992916282 0.001367758089 0)
(2.992501078 0.001208965257 0)
(2.99193938 0.001467089829 0)
(2.99169272 0.001429029773 0)
(2.991937022 0.001235300436 0)
(2.992046057 0.001100894175 0)
(2.992336809 0.0008149912762 0)
(2.992688129 0.0005889910689 0)
(2.99334439 0.0007699914314 0)
(2.994267953 0.0006699727198 0)
(2.994641424 0.0004868215558 0)
(2.995002263 0.0002865273344 0)
(2.995058721 -6.534875775e-05 0)
(2.994653809 -0.0002537541293 0)
(2.994400566 -0.0002068571259 0)
(2.994101633 -6.981606866e-05 0)
(2.993605662 0.0002699560607 0)
(2.993126743 0.0004841347871 0)
(2.992758876 0.0004709001233 0)
(2.992599188 0.0003698900764 0)
(2.992471236 0.0002126173247 0)
(2.992399166 1.447009052e-05 0)
(2.992359357 -7.05979463e-05 0)
(2.992403571 -5.471810157e-05 0)
(2.992668216 -3.54028994e-05 0)
(2.992817202 2.354812882e-05 0)
(2.992977385 7.03364233e-05 0)
(2.993046418 0.0001464626766 0)
(2.9932138 0.000208683615 0)
(2.993849577 0.001375781403 0)
(2.993468899 0.001761708998 0)
(2.993299851 0.001877442723 0)
(2.99258843 0.00189301041 0)
(2.9922625 0.001844351118 0)
(2.991948607 0.001708148367 0)
(2.991819376 0.001350381799 0)
(2.992135214 0.000832476364 0)
(2.99241342 0.0004218240633 0)
(2.992660552 0.0002560786028 0)
(2.99295584 9.163618492e-05 0)
(2.993224099 0.0003232177877 0)
(2.994003589 0.0004086174764 0)
(2.994233239 0.0003483721674 0)
(2.994492798 0.0001697224729 0)
(2.994580162 -1.107350627e-05 0)
(2.994466811 -5.45482847e-05 0)
(2.99432397 -1.971348304e-05 0)
(2.994058082 0.0001560400302 0)
(2.993647393 0.0005081644811 0)
(2.993230372 0.0006693897459 0)
(2.992953611 0.0006399487989 0)
(2.992813838 0.0005119548934 0)
(2.992702163 0.0002888028692 0)
(2.992626525 7.082499115e-05 0)
(2.992535609 -7.019888744e-05 0)
(2.992503856 -0.0001311605303 0)
(2.992732595 -0.0001379323202 0)
(2.992782552 -9.361879904e-05 0)
(2.992884973 -2.625930305e-05 0)
(2.992959439 3.78082223e-05 0)
(2.993133946 0.0001164285846 0)
(2.993593874 0.001438450296 0)
(2.993293421 0.0008027874228 0)
(2.993171943 0.00074343786 0)
(2.992735603 0.0007725756529 0)
(2.992182638 0.001086697496 0)
(2.992099483 0.001220467227 0)
(2.992203366 0.001040997014 0)
(2.992618605 0.0006354523887 0)
(2.992807502 6.140679282e-05 0)
(2.993047391 -0.0003162439569 0)
(2.993319872 -0.0004862079234 0)
(2.993351799 -0.0002037442812 0)
(2.993610715 0.0001331351552 0)
(2.993911489 0.0001940531353 0)
(2.994015438 0.0001508189877 0)
(2.99415174 7.594392646e-05 0)
(2.994156848 8.028897783e-05 0)
(2.994102095 0.000140708357 0)
(2.993987732 0.0003224274099 0)
(2.993674932 0.0006546449285 0)
(2.993391433 0.0007720062525 0)
(2.993221474 0.0007275366664 0)
(2.993128777 0.0005928247342 0)
(2.99301326 0.0003337284056 0)
(2.992899943 0.0001044436053 0)
(2.992764455 -1.092307315e-05 0)
(2.992701017 -0.0001300104517 0)
(2.992851895 -0.00019859344 0)
(2.992878901 -0.0001894003222 0)
(2.992921693 -0.0001534746227 0)
(2.992966332 -0.000105973063 0)
(2.993067866 9.404562697e-06 0)
(2.993105677 0.001616683493 0)
(2.992984793 0.0007238942338 0)
(2.992902669 0.0005001046187 0)
(2.992689777 0.0004468488261 0)
(2.992378958 0.0006080909494 0)
(2.992606888 0.0007090281654 0)
(2.992850184 0.000623906574 0)
(2.993212716 0.0004240824332 0)
(2.993417699 -9.062501623e-07 0)
(2.993517151 -0.00044571417 0)
(2.993565005 -0.0006216001922 0)
(2.993365171 -0.0003825042165 0)
(2.993393735 -1.662058346e-05 0)
(2.993509316 0.0001762215042 0)
(2.99360083 0.000175224479 0)
(2.993732931 0.000141788392 0)
(2.993823191 0.0001468344445 0)
(2.993836298 0.0002168725238 0)
(2.993809959 0.0004332009354 0)
(2.993710354 0.0006806339229 0)
(2.993578091 0.0007501561541 0)
(2.993496491 0.000712322355 0)
(2.993429955 0.0005589355399 0)
(2.993316441 0.0002961547115 0)
(2.993176081 9.710112189e-05 0)
(2.993042334 -5.621746572e-06 0)
(2.992975799 -0.000134284533 0)
(2.992968618 -0.000244124963 0)
(2.992955931 -0.0002489323197 0)
(2.992943321 -0.0002214734661 0)
(2.992940837 -0.000193120487 0)
(2.992982945 -8.24009919e-05 0)
(2.992908746 0.001562915921 0)
(2.992712295 0.001001022933 0)
(2.992629566 0.0006161793157 0)
(2.992552847 0.0004806874877 0)
(2.99263451 0.0006483003889 0)
(2.99317732 0.0006817452087 0)
(2.993513381 0.0006230501194 0)
(2.993822771 0.0004129271675 0)
(2.993929892 -6.345524564e-05 0)
(2.993864134 -0.0003946684153 0)
(2.993667443 -0.0004711726799 0)
(2.993240073 -0.0001841343895 0)
(2.993106332 0.0001526244954 0)
(2.993072407 0.0002563696468 0)
(2.993218127 0.0002243205345 0)
(2.993373826 0.0001481718224 0)
(2.993537602 0.0001520167181 0)
(2.993620959 0.0002247768543 0)
(2.993672343 0.0004107604822 0)
(2.99377164 0.0005975369821 0)
(2.993765339 0.0006275997277 0)
(2.993714406 0.0005949597126 0)
(2.993647904 0.0004486678319 0)
(2.993542035 0.0002087889028 0)
(2.99338863 3.007347163e-05 0)
(2.993244513 -6.619264736e-05 0)
(2.993164976 -0.0001757522608 0)
(2.993083355 -0.0002710090597 0)
(2.993046051 -0.0002858336591 0)
(2.992990825 -0.0002711169606 0)
(2.992941557 -0.0002436037614 0)
(2.992899223 -0.0001330431687 0)
(2.993007101 0.001357816108 0)
(2.992727052 0.001086657768 0)
(2.992461165 0.0007538033649 0)
(2.992396615 0.0006417702531 0)
(2.992819104 0.0005915549507 0)
(2.993522844 0.0004286876859 0)
(2.993793307 0.0003237480043 0)
(2.994142751 9.850250842e-05 0)
(2.994143587 -0.0002807925812 0)
(2.993955598 -0.000444971202 0)
(2.99366623 -0.0004333022735 0)
(2.993131684 -8.762550054e-05 0)
(2.992929643 0.0002139544908 0)
(2.992848585 0.0002883570927 0)
(2.992973155 0.0002170892124 0)
(2.99311195 0.0001067451797 0)
(2.993256061 0.0001051291366 0)
(2.993463556 0.000177081569 0)
(2.993587561 0.0003431643592 0)
(2.993764597 0.0005131782948 0)
(2.993869814 0.0005312779714 0)
(2.993823781 0.0004662653423 0)
(2.993738254 0.000341481926 0)
(2.993595624 0.0001855713126 0)
(2.993428073 2.424497352e-05 0)
(2.993292662 -8.280198326e-05 0)
(2.993222952 -0.0001492658057 0)
(2.993140071 -0.0001979390419 0)
(2.993098653 -0.0002101341061 0)
(2.993019801 -0.0002003636413 0)
(2.992941473 -0.0001849436155 0)
(2.992830935 -9.405861105e-05 0)
(2.993094061 0.000976728693 0)
(2.992834274 0.0005807198173 0)
(2.992529917 0.0002256255589 0)
(2.992389016 7.886820142e-05 0)
(2.992860859 5.316491201e-05 0)
(2.993588485 1.962245772e-05 0)
(2.993797703 1.698178157e-06 0)
(2.994074862 -0.0001264543068 0)
(2.994072776 -0.0003710023262 0)
(2.993766085 -0.0004302920749 0)
(2.993522436 -0.0003735484879 0)
(2.993034841 -0.0001234245637 0)
(2.992698874 0.0001337635464 0)
(2.992682727 0.0001687870765 0)
(2.99280165 0.0001370152326 0)
(2.992926523 8.18686445e-05 0)
(2.993061187 6.080518275e-05 0)
(2.993282524 0.0001451920778 0)
(2.99352965 0.0002861889124 0)
(2.993707891 0.0004272532207 0)
(2.993786641 0.000483836542 0)
(2.993746019 0.0004613019512 0)
(2.993623249 0.0003482725343 0)
(2.993462033 0.0002253938613 0)
(2.993277855 9.19350261e-05 0)
(2.993158879 -3.636079488e-06 0)
(2.99309535 -7.838925263e-05 0)
(2.993036677 -0.0001117144675 0)
(2.993007086 -0.0001157876821 0)
(2.992944299 -0.0001035499425 0)
(2.992875749 -0.0001014864987 0)
(2.992757153 -4.285069166e-05 0)
(2.99312755 0.0006288858114 0)
(2.992875711 -0.0001079324848 0)
(2.992670738 -0.0005074143193 0)
(2.99254552 -0.0005813468032 0)
(2.992871693 -0.0004763025418 0)
(2.993409419 -0.000298644918 0)
(2.99359579 -0.0002082472599 0)
(2.99377505 -0.0002225195753 0)
(2.993755185 -0.0003438311098 0)
(2.993380764 -0.0003897736908 0)
(2.993137474 -0.0003378499161 0)
(2.992720035 -0.0001848743287 0)
(2.992391562 2.76317323e-05 0)
(2.992422255 9.083954507e-05 0)
(2.992630569 8.593119288e-05 0)
(2.992773439 8.465708368e-05 0)
(2.992933872 8.733409875e-05 0)
(2.993170468 0.000136306629 0)
(2.993429402 0.0002556571797 0)
(2.993580388 0.0004040359619 0)
(2.993554418 0.0004430851737 0)
(2.99345233 0.000406754617 0)
(2.993310944 0.0003205607418 0)
(2.99310763 0.0002635744104 0)
(2.992923202 0.0001914030239 0)
(2.992819681 0.0001241397628 0)
(2.992782129 0.0001270667754 0)
(2.992805195 7.446996814e-05 0)
(2.992798869 5.500719328e-05 0)
(2.992774 1.514739719e-05 0)
(2.992736342 -3.941335894e-05 0)
(2.992648984 -3.474147181e-05 0)
(2.993025087 5.673795221e-05 0)
(2.992904811 -0.000339676968 0)
(2.99273719 -0.0006331531874 0)
(2.992639272 -0.0007806968034 0)
(2.99278694 -0.0006435677404 0)
(2.993053465 -0.0003875150816 0)
(2.993168059 -0.0002625011086 0)
(2.993325497 -0.0002093496091 0)
(2.993316725 -0.0002597021823 0)
(2.992940981 -0.0003134833015 0)
(2.992601584 -0.0002774386989 0)
(2.992328987 -0.0002030642455 0)
(2.992124551 -6.107675678e-05 0)
(2.992177328 2.972859455e-06 0)
(2.992421297 5.909515026e-05 0)
(2.992611797 0.0001137403607 0)
(2.992787699 0.0001251899621 0)
(2.993051269 0.0001818487577 0)
(2.993272471 0.0002935377675 0)
(2.993356789 0.000401128525 0)
(2.993244042 0.0004201697698 0)
(2.993076366 0.0003459680957 0)
(2.9928974 0.0003225101025 0)
(2.992600332 0.0003157953299 0)
(2.992438134 0.0003042607125 0)
(2.992355782 0.0002649233452 0)
(2.992347103 0.0002816924731 0)
(2.992459496 0.0002358883406 0)
(2.992493916 0.000189442121 0)
(2.992537833 0.0001267848089 0)
(2.992553386 4.278354925e-05 0)
(2.992518825 -8.753101399e-06 0)
(2.992800399 -0.0003914469551 0)
(2.992774734 -0.0004811999229 0)
(2.992650052 -0.0006149112807 0)
(2.992550685 -0.0006713838156 0)
(2.9926002 -0.0004511147226 0)
(2.992748447 -0.0002299867512 0)
(2.992846461 -0.0001556032993 0)
(2.992958441 -9.316320619e-05 0)
(2.992894757 -0.0001809838964 0)
(2.992533956 -0.0002622508512 0)
(2.992224587 -0.0002382329086 0)
(2.992031713 -0.0001858448273 0)
(2.991907678 -5.986183199e-05 0)
(2.992002737 2.880513475e-05 0)
(2.992241887 0.0001080048122 0)
(2.992389386 0.0001423974807 0)
(2.992606539 0.0001293124997 0)
(2.992878501 0.0001384602549 0)
(2.993075544 0.0002235500619 0)
(2.993105872 0.000311169543 0)
(2.992925704 0.0003280479067 0)
(2.992763054 0.0002896494995 0)
(2.992553222 0.0003237199069 0)
(2.992161034 0.0003703654925 0)
(2.992027315 0.0003909422901 0)
(2.991985372 0.0003669834016 0)
(2.992007187 0.0003733500657 0)
(2.992154883 0.0003320779359 0)
(2.992241395 0.0002710323113 0)
(2.992316081 0.0001945048087 0)
(2.992382053 8.98937936e-05 0)
(2.992412024 1.308562122e-05 0)
(2.992556097 -0.0005262106892 0)
(2.99256809 -0.000518390667 0)
(2.992480419 -0.0005550738825 0)
(2.992340616 -0.0005457774429 0)
(2.992356179 -0.0002973765439 0)
(2.992483934 -6.635585248e-05 0)
(2.992540772 -3.914983775e-06 0)
(2.992606409 4.698622668e-05 0)
(2.992569987 -5.00032477e-05 0)
(2.992296425 -0.0001910553121 0)
(2.992079306 -0.0001960908888 0)
(2.991940687 -0.0001523378807 0)
(2.991838623 -5.866330474e-05 0)
(2.991926235 2.785978948e-05 0)
(2.992121467 0.0001075216513 0)
(2.992236796 0.0001166957475 0)
(2.992472477 6.309430777e-05 0)
(2.992720966 2.200489178e-05 0)
(2.99289365 8.994145702e-05 0)
(2.992906137 0.000177795141 0)
(2.992732284 0.0002194906059 0)
(2.992625326 0.0002183440776 0)
(2.992398582 0.0002752928309 0)
(2.991998063 0.0003922466628 0)
(2.991899236 0.0004502182756 0)
(2.991878496 0.0004483203593 0)
(2.991919752 0.0004580067669 0)
(2.992057328 0.0004066438846 0)
(2.992157457 0.0003246644962 0)
(2.992234399 0.0002522411718 0)
(2.992313624 0.0001534045607 0)
(2.9923757 6.930955321e-05 0)
(2.992413687 -0.0004186997209 0)
(2.992406408 -0.0004283906855 0)
(2.992329961 -0.0003760352365 0)
(2.992181802 -0.000275365727 0)
(2.992113667 -7.579042936e-05 0)
(2.992265531 0.0001990336004 0)
(2.992329161 0.0002574999629 0)
(2.992398981 0.0002673480656 0)
(2.992467983 0.0001515536636 0)
(2.992322611 -1.86471202e-05 0)
(2.992179626 -0.0001063276958 0)
(2.99207236 -8.914379088e-05 0)
(2.991982397 -4.619401624e-05 0)
(2.992017448 1.076129911e-05 0)
(2.992144213 5.370948118e-05 0)
(2.992241435 4.373124009e-05 0)
(2.99243859 -2.927198685e-05 0)
(2.992641758 -8.387995749e-05 0)
(2.992800646 -4.31875664e-05 0)
(2.992832284 1.99410525e-05 0)
(2.992718516 6.868694735e-05 0)
(2.992635881 7.861052212e-05 0)
(2.992428317 0.0001461834748 0)
(2.992105731 0.0003507213837 0)
(2.99201622 0.0004747272717 0)
(2.992009963 0.0005009739114 0)
(2.992052207 0.0005096814267 0)
(2.992164109 0.000458910414 0)
(2.992241023 0.000350090741 0)
(2.992306925 0.000272631427 0)
(2.992365757 0.0001665937717 0)
(2.992421617 9.677894192e-05 0)
(2.992533332 -0.0002643606096 0)
(2.992557598 -0.0003328265158 0)
(2.992544876 -0.0003316425031 0)
(2.992513879 -0.000274238937 0)
(2.992496812 -0.0001039440015 0)
(2.992572889 0.0002017562458 0)
(2.992669223 0.0004677862367 0)
(2.992684828 0.0004836148105 0)
(2.992747253 0.0003872996294 0)
(2.992643746 0.0002006553835 0)
(2.992509309 2.532113507e-05 0)
(2.992408997 5.970325515e-06 0)
(2.992318871 -3.189671105e-06 0)
(2.99228996 1.663322119e-06 0)
(2.992338911 2.051847711e-07 0)
(2.992394744 -2.306182213e-05 0)
(2.992524914 -0.0001021416058 0)
(2.992681914 -0.0001808829835 0)
(2.992834531 -0.0001874314247 0)
(2.992865114 -0.000118827817 0)
(2.992788503 -3.020703053e-05 0)
(2.992722959 -1.001470635e-05 0)
(2.992574132 5.711227891e-05 0)
(2.992321571 0.0002868211583 0)
(2.992263149 0.0004477210298 0)
(2.992299306 0.0004849921615 0)
(2.992340636 0.0004831810062 0)
(2.992429288 0.0004602452237 0)
(2.992477172 0.0003331855766 0)
(2.992515111 0.0002490865419 0)
(2.992551752 0.0001392190229 0)
(2.99259416 9.644343284e-05 0)
(2.992945006 -0.0001330202139 0)
(2.993079282 -0.0002960795655 0)
(2.993138696 -0.0003368072807 0)
(2.993181537 -0.0002956363454 0)
(2.993267384 -0.0001427642849 0)
(2.993368957 0.0002030258042 0)
(2.993385477 0.0005785660361 0)
(2.99336804 0.0006536440827 0)
(2.993368304 0.0006020144894 0)
(2.993270883 0.0004062709466 0)
(2.993038026 0.0002140922994 0)
(2.992928814 0.0001188917649 0)
(2.992814554 6.62398717e-05 0)
(2.992702956 2.285569617e-05 0)
(2.992673428 -1.564342708e-05 0)
(2.992684591 -6.492728188e-05 0)
(2.9927527 -0.0001506945335 0)
(2.992873965 -0.0002448103913 0)
(2.993006299 -0.000264794026 0)
(2.993005189 -0.0001985655635 0)
(2.992961627 -9.896311145e-05 0)
(2.992910464 -6.365252684e-05 0)
(2.992795509 6.757228461e-06 0)
(2.992631506 0.0002209308849 0)
(2.992619354 0.000398058586 0)
(2.992674358 0.0004473916084 0)
(2.992707247 0.000441777588 0)
(2.99278355 0.0004304699428 0)
(2.992830617 0.0002869576481 0)
(2.992846536 0.0001755509329 0)
(2.992862663 3.905824952e-05 0)
(2.992883152 -1.756126214e-05 0)
(2.993698752 -2.024493265e-05 0)
(2.993766929 -0.0002554399571 0)
(2.993843423 -0.000385955999 0)
(2.993912123 -0.000361133382 0)
(2.994038915 -0.0002092163918 0)
(2.994172199 0.0001411195439 0)
(2.994217183 0.0005601716624 0)
(2.994211909 0.0006823465911 0)
(2.994225059 0.0006533514291 0)
(2.994044575 0.0005682857784 0)
(2.993739303 0.0003699642083 0)
(2.993621014 0.0002257067388 0)
(2.993386304 0.0001190789196 0)
(2.993215087 8.629865825e-05 0)
(2.993141346 3.643895404e-05 0)
(2.993106435 -3.977887608e-05 0)
(2.99314196 -0.0001280723845 0)
(2.993264781 -0.0001887023039 0)
(2.99337879 -0.0001820422873 0)
(2.993380926 -0.0001491825226 0)
(2.993364905 -6.097901144e-05 0)
(2.99333428 -1.016742213e-05 0)
(2.993247357 5.827007303e-05 0)
(2.993145575 0.000218421893 0)
(2.993154083 0.0003659837707 0)
(2.993206687 0.0004082566871 0)
(2.993226313 0.0003969579283 0)
(2.993265733 0.0003840658888 0)
(2.993291368 0.00025359332 0)
(2.993257377 8.658875578e-05 0)
(2.993235181 -0.0001005343753 0)
(2.993222728 -0.0001717363632 0)
(2.994427843 -2.777521168e-05 0)
(2.994556388 -0.0002897341588 0)
(2.994700772 -0.0004720072902 0)
(2.9947829 -0.0004593380391 0)
(2.994892401 -0.0003133936076 0)
(2.995011835 6.1271816e-05 0)
(2.995049676 0.000490295062 0)
(2.995039597 0.0006227246642 0)
(2.994981698 0.0006634572686 0)
(2.994726282 0.0005819107112 0)
(2.994363731 0.0003814416689 0)
(2.994209999 0.0002354445592 0)
(2.993888417 0.0001454319441 0)
(2.993705508 8.197824902e-05 0)
(2.993576151 3.234443109e-05 0)
(2.993522641 -3.15491746e-05 0)
(2.993559915 -0.0001530658339 0)
(2.993676382 -0.000241198649 0)
(2.993809702 -0.0001568274927 0)
(2.993838043 -3.215705383e-05 0)
(2.99384382 3.745638676e-05 0)
(2.993828466 8.835285281e-05 0)
(2.993762395 0.0001664952192 0)
(2.993686405 0.0003122107492 0)
(2.993675517 0.0004450618647 0)
(2.993687373 0.0004734314475 0)
(2.993691481 0.0004326686881 0)
(2.993695026 0.0003891317046 0)
(2.993674621 0.000295460841 0)
(2.993576527 0.0001087593702 0)
(2.99347215 -0.0001480452376 0)
(2.993459466 -0.0002268346952 0)
(2.99469209 -0.0001973145723 0)
(2.994935449 -0.0003902419329 0)
(2.995089091 -0.0004625460696 0)
(2.995158928 -0.0004117455217 0)
(2.995198341 -0.0002076081862 0)
(2.99526693 0.0002029841823 0)
(2.995257731 0.0006154284017 0)
(2.995184217 0.0007329257961 0)
(2.995046056 0.0007616943593 0)
(2.994786759 0.0007069536554 0)
(2.994420162 0.0004854529373 0)
(2.994231344 0.0003298796021 0)
(2.993895607 0.0002531492172 0)
(2.993749463 0.000185393687 0)
(2.993623066 0.0001141037911 0)
(2.99356953 4.216178943e-05 0)
(2.993608911 -0.0001132626293 0)
(2.993689022 -0.0002437693324 0)
(2.99380702 -0.0001852219163 0)
(2.993828848 -2.903932497e-05 0)
(2.993812387 0.0001186116787 0)
(2.993809496 0.0001972294234 0)
(2.993741498 0.0003043045651 0)
(2.99364991 0.0004672402268 0)
(2.993610458 0.0006011103782 0)
(2.993588458 0.0006122059661 0)
(2.993574342 0.0005472058652 0)
(2.993577305 0.0004778440604 0)
(2.993567096 0.0003839417698 0)
(2.993473379 0.0002114267975 0)
(2.993355787 -0.0001008135465 0)
(2.99332326 -0.0002477822814 0)
(2.993633731 -0.0004209044457 0)
(2.993711976 -0.0006154546537 0)
(2.993739072 -0.0006061225469 0)
(2.993721201 -0.0005402692184 0)
(2.993679898 -0.0003029356287 0)
(2.993706617 0.0001466834718 0)
(2.993752962 0.0005808341265 0)
(2.993732906 0.0006990504398 0)
(2.993697464 0.0006854518065 0)
(2.993577704 0.0005918524862 0)
(2.993406406 0.0003541655234 0)
(2.9932741 0.000213678572 0)
(2.993031019 8.453397948e-05 0)
(2.992958791 2.985018212e-05 0)
(2.992888609 -4.313234664e-05 0)
(2.992843254 -0.0001012340258 0)
(2.992844272 -0.0002021476582 0)
(2.992857823 -0.0003425598036 0)
(2.992847099 -0.0003174368234 0)
(2.992818905 -0.0002693388476 0)
(2.992783957 -0.0001661781617 0)
(2.992762845 -9.06656037e-05 0)
(2.99270159 2.552576721e-06 0)
(2.992625577 0.0001705347594 0)
(2.992616392 0.0003496711376 0)
(2.992663897 0.0004300839839 0)
(2.992721142 0.000408826885 0)
(2.992790846 0.0002953780824 0)
(2.992828491 0.0002216088923 0)
(2.9928308 4.601748174e-05 0)
(2.992784959 -0.0002721162205 0)
(2.992710465 -0.0004791948012 0)
(2.991147931 -0.0001302993982 0)
(2.991003142 -0.0003365712419 0)
(2.99083598 -0.0003014566392 0)
(2.990757754 -0.0002155597448 0)