/*--------------------------------*- C++ -*----------------------------------*\
  =========                 |
  \\      /  F ield         | OpenFOAM: The Open Source CFD Toolbox
   \\    /   O peration     | Website:  https://openfoam.org
    \\  /    A nd           | Version:  7
     \\/     M anipulation  |
\*---------------------------------------------------------------------------*/
FoamFile
{
    version     2.0;
    format      ascii;
    class       volScalarField;
    location    "1.5";
    object      T;
}
// * * * * * * * * * * * * * * * * * * * * * * * * * * * * * * * * * * * * * //

dimensions      [0 0 0 1 0 0 0];

internalField   nonuniform List<scalar> 
22
(
1.069438134
1.085604164
1.099530308
1.069438134
1.085604165
1.099530308
1.11231674
1.12304997
1.131570496
1.141911057
1.013917695
1.021274705
1.030363931
1.039483874
1.049726922
1.058455203
1.072189979
1.000612636
1.001513155
1.003229263
1.00601734
1.010320717
)
;

boundaryField
{
    inlet
    {
        type            fixedValue;
        value           nonuniform 0();
    }
    outlet
    {
        type            inletOutlet;
        inletValue      nonuniform 0();
        value           nonuniform 0();
    }
    bottom
    {
        type            slip;
    }
    top
    {
        type            slip;
    }
    obstacle
    {
        type            zeroGradient;
    }
    defaultFaces
    {
        type            empty;
    }
    procBoundary20to13
    {
        type            processor;
        value           uniform 1.052301139;
    }
    procBoundary20to14
    {
        type            processor;
        value           nonuniform List<scalar> 4(1.013917695 1.021274705 1.030363931 1.11231674);
    }
    procBoundary20to19
    {
        type            processor;
        value           nonuniform List<scalar> 3(1.052301139 1.007541624 1.000193704);
    }
    procBoundary20to26
    {
        type            processor;
        value           nonuniform List<scalar> 8(1.016217238 1.023100072 1.000003332 1.000016101 1.00006204 1.00018794 1.016217238 1.000496046);
    }
    procBoundary20to27
    {
        type            processor;
        value           nonuniform List<scalar> 2(1.070403233 1.074142769);
    }
}


// ************************************************************************* //
