/*--------------------------------*- C++ -*----------------------------------*\
  =========                 |
  \\      /  F ield         | OpenFOAM: The Open Source CFD Toolbox
   \\    /   O peration     | Website:  https://openfoam.org
    \\  /    A nd           | Version:  7
     \\/     M anipulation  |
\*---------------------------------------------------------------------------*/
FoamFile
{
    version     2.0;
    format      ascii;
    class       volScalarField;
    location    "0.6";
    object      T;
}
// * * * * * * * * * * * * * * * * * * * * * * * * * * * * * * * * * * * * * //

dimensions      [0 0 0 1 0 0 0];

internalField   nonuniform List<scalar> 8(0.9944983407 0.9904687234 1.01002367 0.9988533626 1.013670649 1.009736681 1.014741995 1.015066098);

boundaryField
{
    inlet
    {
        type            fixedValue;
        value           nonuniform 0();
    }
    outlet
    {
        type            inletOutlet;
        inletValue      nonuniform 0();
        value           nonuniform 0();
    }
    bottom
    {
        type            slip;
    }
    top
    {
        type            slip;
    }
    obstacle
    {
        type            zeroGradient;
    }
    defaultFaces
    {
        type            empty;
    }
    procBoundary34to28
    {
        type            processor;
        value           nonuniform List<scalar> 2(0.9982594139 1.003591239);
    }
    procBoundary34to33
    {
        type            processor;
        value           nonuniform List<scalar> 4(1.017490357 1.016839441 1.012202416 1.006111435);
    }
    procBoundary34to35
    {
        type            processor;
        value           nonuniform List<scalar> 4(0.9947806675 0.9957346069 0.9993957577 1.007739098);
    }
}


// ************************************************************************* //
