/*--------------------------------*- C++ -*----------------------------------*\
  =========                 |
  \\      /  F ield         | OpenFOAM: The Open Source CFD Toolbox
   \\    /   O peration     | Website:  https://openfoam.org
    \\  /    A nd           | Version:  7
     \\/     M anipulation  |
\*---------------------------------------------------------------------------*/
FoamFile
{
    version     2.0;
    format      ascii;
    class       volScalarField;
    location    "2";
    object      rho;
}
// * * * * * * * * * * * * * * * * * * * * * * * * * * * * * * * * * * * * * //

dimensions      [1 -3 0 0 0 0 0];

internalField   nonuniform List<scalar> 
2223
(
1.044675008
1.044517511
1.044567074
1.044687685
1.044774909
1.044814569
1.044814276
1.044775923
1.044634513
1.044269937
1.04352255
1.042221008
1.040195144
1.037515315
1.033967052
1.029703582
1.024998108
1.019349775
1.013906842
1.007917923
1.001749421
0.9960758975
1.041132585
1.041483688
1.041413681
1.041416976
1.041653716
1.042168786
1.042758256
1.043296961
1.043713822
1.043986386
1.044236819
1.044527171
1.044763965
1.044826527
1.044825506
1.044770964
1.044715224
1.044786251
1.044793383
1.044690907
1.044332885
1.043594662
1.042352963
1.040465637
1.037980974
1.034560116
1.030676566
1.026105682
1.020882193
1.015659285
1.009694788
1.042338991
1.041822835
1.041306484
1.041266607
1.041378917
1.041572502
1.041643136
1.041883489
1.042446353
1.043239513
1.043884497
1.044245297
1.044567658
1.04471881
1.044695389
1.044618579
1.044665399
1.044791967
1.044869912
1.044872775
1.044830286
1.044686952
1.044376016
1.043764078
1.042629049
1.040871731
1.03840939
1.035123879
1.031394244
1.026877758
1.021922551
1.043158926
1.042157075
1.041674907
1.041937084
1.042051072
1.041833124
1.041310672
1.041180728
1.041350909
1.041951053
1.042644775
1.04304823
1.043426929
1.043889774
1.044255864
1.044497889
1.044763931
1.044868335
1.044883479
1.044836149
1.04477793
1.044768305
1.04478084
1.044712749
1.044444859
1.043848022
1.042760062
1.041140915
1.038815818
1.035783185
1.032214832
1.047482234
1.046016674
1.044816269
1.043939424
1.042737831
1.041679761
1.04123683
1.041198218
1.041468796
1.041743864
1.041890176
1.042056656
1.04233375
1.042874516
1.043622114
1.044269799
1.044603494
1.04468554
1.044615357
1.044563896
1.044632788
1.044773139
1.044850437
1.044840258
1.044781734
1.044647082
1.044394799
1.043891724
1.042950468
1.041447413
1.039230038
1.057574976
1.052712086
1.048576581
1.045125143
1.04308796
1.042498617
1.042748393
1.042405664
1.041991949
1.041768718
1.041611515
1.041580818
1.041616114
1.041856977
1.042374099
1.043050229
1.043499426
1.043773983
1.04407756
1.044338351
1.044535549
1.044780703
1.044830803
1.044794602
1.044681791
1.044692321
1.044723732
1.0446788
1.044500242
1.044063972
1.043192658
1.063708986
1.058106937
1.054361418
1.050765529
1.047745204
1.046878424
1.046297861
1.044698921
1.042578009
1.0415332
1.041563384
1.041720496
1.04177616
1.04176614
1.041808773
1.041997017
1.042378228
1.042824386
1.043377858
1.043997279
1.044294709
1.044464877
1.04450151
1.04447613
1.044524892
1.044663365
1.044782702
1.044807465
1.044797254
1.044744178
1.044573108
1.077564426
1.071203001
1.066071145
1.062453392
1.057325298
1.051333903
1.04808424
1.046594392
1.044589842
1.042487172
1.042603416
1.043140333
1.042805882
1.042159206
1.041749747
1.041681734
1.041771431
1.041952683
1.042272449
1.042745117
1.043250393
1.043642407
1.043963079
1.044211165
1.044498733
1.044751149
1.044809799
1.044802973
1.044779639
1.044760309
1.044738955
1.093796263
1.086237055
1.076971335
1.069336378
1.064975511
1.059074112
1.052288351
1.052069197
1.051458242
1.047985212
1.045343046
1.044645455
1.04379753
1.042342507
1.041695559
1.041725442
1.041867323
1.04190551
1.041918986
1.041995041
1.042257424
1.042701131
1.04324121
1.04376025
1.044130131
1.044519942
1.04466984
1.04462376
1.044595335
1.04455815
1.044523377
1.111485831
1.101900221
1.09494922
1.084217816
1.078172966
1.074518934
1.066877588
1.059879295
1.057052367
1.053582012
1.048128533
1.045376116
1.04524492
1.044356288
1.042902355
1.042629923
1.042724655
1.042451448
1.041994316
1.041864839
1.041921543
1.042108463
1.042432594
1.042779775
1.042995364
1.043316558
1.043784853
1.044124557
1.044376084
1.04447683
1.044440626
1.13374023
1.119716273
1.111545783
1.103643721
1.092052018
1.085077574
1.078988537
1.068506348
1.062110125
1.061098941
1.057272679
1.050959156
1.050149207
1.049522882
1.046897406
1.044316978
1.043394593
1.042981138
1.042320425
1.04195563
1.042022064
1.042280512
1.042328164
1.042257929
1.042236771
1.04234273
1.042732871
1.043339958
1.04392123
1.044351527
1.044446932
1.151741928
1.141745338
1.127825301
1.120167323
1.111410132
1.099896002
1.094195639
1.087283261
1.076517294
1.072453133
1.068980118
1.061282009
1.054708604
1.052917436
1.050871263
1.046914471
1.044336432
1.044514412
1.044394825
1.043602697
1.042821324
1.042495173
1.042323527
1.042238832
1.042106231
1.041992669
1.042054117
1.042398216
1.042980683
1.043599775
1.044054476
1.167147815
1.161271427
1.149467144
1.136626113
1.129318366
1.119151897
1.109089482
1.102646914
1.092527277
1.081305913
1.077076302
1.072534137
1.06318862
1.058185395
1.057872628
1.055498947
1.050670889
1.048365525
1.047242184
1.045812069
1.043915363
1.042551303
1.042362873
1.042582505
1.042620163
1.042338443
1.042221022
1.042262976
1.042437377
1.042769094
1.043106141
1.184378425
1.175374964
1.168675966
1.156710479
1.145336263
1.13710042
1.126484364
1.118038409
1.111048661
1.098677062
1.090180114
1.087502963
1.08097583
1.070716147
1.065136672
1.062460976
1.057947218
1.051986454
1.04899129
1.048423897
1.047517018
1.044890888
1.04320855
1.043396904
1.0434395
1.042929798
1.042599725
1.042583473
1.042566449
1.042453009
1.042487886
1.208381319
1.192365688
1.184487874
1.176885227
1.164582618
1.153959751
1.144480509
1.134489071
1.127461469
1.118398835
1.105200105
1.098015233
1.09300724
1.084553721
1.074315415
1.069462561
1.067255064
1.062927138
1.056025526
1.053758021
1.052860812
1.050413319
1.046200253
1.044252631
1.044096748
1.043534014
1.042810482
1.042739759
1.042634586
1.042444218
1.042257276
1.227420304
1.214250908
1.199592252
1.191712045
1.183389164
1.172357042
1.161590769
1.150841037
1.142574254
1.13594918
1.125200565
1.112562816
1.106833425
1.101827024
1.093442938
1.083527849
1.077679934
1.073921984
1.067706429
1.059227491
1.055427104
1.054701305
1.052382105
1.0476767
1.046740882
1.046676951
1.045391494
1.043937321
1.043520331
1.043158745
1.042533499
1.243589951
1.23548323
1.221551459
1.207796125
1.199724874
1.191279864
1.180548526
1.168596475
1.157901934
1.151415901
1.143922068
1.131406076
1.12108854
1.11485066
1.107641945
1.098543853
1.087980226
1.081678433
1.078975275
1.07295195
1.06321519
1.061472227
1.060383953
1.055658807
1.051044019
1.05002284
1.048509135
1.045909257
1.044620702
1.044446557
1.043806463
1.260127127
1.250749329
1.241617124
1.227850096
1.214610624
1.205950494
1.197905849
1.187690309
1.17462499
1.165031036
1.159370109
1.150660173
1.138287028
1.129229555
1.122296308
1.115728954
1.107439296
1.096578876
1.090952098
1.08690842
1.078288224
1.069243015
1.066516106
1.063586907
1.05684617
1.05341272
1.052589963
1.049986985
1.046276212
1.04548174
1.045180317
1.282634198
1.267368136
1.258256874
1.248947719
1.235220162
1.221942037
1.213550185
1.20605843
1.194888304
1.180906055
1.173248959
1.16757343
1.157045822
1.145336588
1.137301934
1.129879317
1.122298865
1.112840251
1.101941988
1.096418567
1.091881431
1.082225807
1.075056094
1.07371835
1.069375718
1.061919254
1.059100902
1.05691587
1.052563817
1.048425454
1.047650749
1.303424235
1.288845801
1.274257842
1.264799183
1.255068207
1.241503693
1.228000245
1.219862971
1.21258417
1.200742943
1.186879905
1.180552549
1.174394132
1.163141854
1.152432703
1.144758906
1.137178251
1.129741662
1.120043764
1.110900616
1.106260468
1.099649497
1.088783356
1.082779871
1.078902082
1.071214749
1.063658357
1.062312965
1.060258259
1.05461924
1.051104381
1.320606638
1.309603191
1.29522064
1.281008547
1.271603016
1.262081935
1.248301344
1.234764355
1.22753144
1.220266118
1.206931491
1.193985268
1.188653067
1.181570823
1.169278327
1.159362635
1.152365727
1.144903267
1.135877408
1.125281321
1.117723053
1.112203584
1.103571992
1.093467685
1.089728796
1.085700419
1.076607432
1.07105232
1.069265662
1.065129968
1.058027967
1.33829657
1.326626521
1.315502741
1.30138819
1.287408893
1.277891146
1.268184326
1.254159058
1.240815205
1.233882359
1.226068495
1.212171063
1.200464682
1.195354072
1.187604003
1.175111845
1.165793015
1.15956728
1.152163318
1.141949213
1.132085169
1.126734718
1.120831389
1.110187891
1.101781565
1.097839877
1.091161715
1.08040515
1.075127072
1.073612579
1.069437598
1.356570241
1.343793991
1.332342564
1.321305699
1.307484361
1.293669711
1.284344805
1.274730145
1.260292648
1.24755915
1.241273001
1.232914826
1.218013045
1.207857817
1.203031399
1.194180612
1.180994889
1.17271861
1.167238305
1.158994576
1.147227034
1.13880564
1.133781192
1.126035628
1.114134771
1.107505992
1.104342195
1.097248677
1.086460171
1.083144614
1.080806732
1.371474781
1.361122556
1.348996431
1.337808034
1.32689982
1.313298989
1.299767219
1.290516953
1.28052081
1.2658154
1.253855612
1.247488026
1.238183515
1.223186628
1.214218828
1.209182791
1.199763094
1.186438913
1.179214064
1.174097736
1.165076583
1.152578772
1.146129495
1.14189629
1.13314598
1.121419357
1.116425619
1.11211167
1.102792019
1.092344316
1.088520504
1.382971532
1.375087569
1.365401327
1.353899697
1.34302507
1.332330883
1.31893739
1.305741271
1.296710384
1.286497144
1.271527237
1.260537207
1.254429121
1.244262488
1.229079549
1.22149514
1.21640132
1.205594936
1.192315328
1.186539407
1.181338512
1.170582302
1.158591189
1.153476111
1.148143487
1.137579858
1.126719804
1.122425462
1.117785135
1.107970462
1.099088606
1.391401563
1.385605622
1.378388233
1.369381501
1.35851228
1.348017701
1.337521278
1.324323387
1.311596769
1.302652357
1.291915562
1.276975012
1.266859679
1.260292041
1.249126147
1.234550753
1.227786306
1.222026686
1.210440684
1.197980714
1.193035001
1.187297687
1.175673569
1.164908832
1.160690566
1.154917476
1.143715235
1.134807339
1.13087058
1.124648702
1.113701866
1.396383269
1.393012832
1.387932466
1.381384317
1.373059267
1.362840716
1.352779222
1.342493994
1.329531205
1.317322364
1.308481537
1.297338372
1.282565506
1.273375043
1.266619436
1.254462848
1.240702402
1.234872547
1.228502685
1.215539473
1.204568544
1.200239711
1.193384382
1.180611074
1.171971245
1.167633016
1.159985644
1.148417279
1.14113378
1.136674505
1.12947859
1.398769157
1.397194384
1.39437845
1.389971379
1.384089105
1.37643364
1.366888874
1.35730783
1.347225792
1.334545668
1.322929233
1.31404367
1.302353035
1.288116554
1.279605259
1.272024013
1.258994944
1.246612931
1.240985925
1.233396781
1.220028846
1.210881165
1.206348038
1.198173437
1.185702556
1.178861272
1.174089066
1.165396386
1.154708176
1.148935572
1.1440145
1.399683155
1.399098207
1.397850024
1.395523813
1.391742482
1.386510111
1.379516648
1.370662288
1.361585929
1.351724275
1.339409828
1.328394484
1.319418848
1.307295368
1.293786707
1.285851707
1.277594648
1.263901475
1.253117219
1.247655625
1.238806035
1.225251932
1.217907029
1.212894142
1.202979614
1.191391117
1.18588769
1.180043236
1.16981964
1.160452804
1.155204457
1.399942867
1.399783367
1.399348716
1.398373207
1.39647455
1.3932659
1.388659151
1.382315056
1.374164586
1.365608673
1.355980708
1.34411656
1.333706931
1.324519418
1.312003472
1.299492327
1.291779623
1.282404252
1.268572026
1.259344322
1.253280994
1.242913875
1.230323383
1.224207647
1.218148094
1.20705368
1.197216921
1.192304145
1.185404415
1.174672346
1.167077792
1.399996441
1.399965139
1.399854709
1.399536694
1.398785155
1.397254762
1.394564045
1.3905475
1.384841445
1.377396688
1.369366161
1.360006407
1.348683257
1.338823282
1.329385439
1.316695497
1.305232849
1.29756139
1.287201752
1.27374022
1.265835221
1.259163827
1.247504115
1.23636236
1.230954847
1.223654545
1.211615555
1.203644156
1.198781775
1.190327852
1.179365058
1.400004222
1.399999935
1.399979867
1.399904686
1.399675674
1.399105093
1.39788753
1.395658184
1.392192546
1.387104851
1.380362539
1.372853753
1.363808301
1.353097144
1.343717245
1.333990521
1.321347721
1.310904971
1.302941682
1.291551129
1.279007179
1.271851456
1.264022915
1.25154051
1.242101089
1.23666524
1.227976733
1.216006393
1.209587977
1.204451645
1.194913926
1.400004988
1.400004594
1.400002065
1.399989434
1.399939125
1.399776856
1.399350116
1.398394408
1.396570352
1.393611165
1.389120138
1.383062093
1.376071999
1.367399911
1.357351231
1.348354433
1.338381709
1.326061257
1.316447646
1.308064548
1.295973333
1.284623165
1.277862386
1.268971612
1.256254537
1.248435067
1.242776964
1.232646685
1.221281509
1.216012851
1.210218025
1.400005038
1.400005014
1.400004801
1.400003339
1.399995536
1.399962457
1.399849372
1.399535063
1.398795383
1.397321665
1.39482324
1.39089937
1.38550122
1.379023228
1.370790819
1.361420457
1.352728269
1.342581842
1.330789783
1.321781171
1.312804269
1.300348941
1.29021978
1.283322553
1.273208162
1.260907638
1.254143377
1.24776864
1.236616276
1.226351787
1.221586775
1.40000504
1.400005039
1.400005028
1.400004915
1.400004086
1.399999357
1.399977993
1.399900506
1.399672613
1.39910835
1.39793316
1.39584767
1.392458322
1.387683668
1.381718454
1.373983116
1.365282567
1.356834709
1.346648479
1.335517216
1.326872618
1.317324827
1.304907309
1.295834608
1.288665591
1.277604358
1.266137435
1.260154497
1.25309454
1.241102325
1.232201772
1.40000504
1.40000504
1.40000504
1.400005034
1.400004976
1.400004516
1.400001704
1.399988156
1.399935966
1.399773356
1.399349289
1.398424409
1.396704798
1.393810214
1.389621056
1.384164603
1.37697835
1.368913484
1.360686216
1.350602756
1.340169075
1.331698624
1.321611099
1.309568146
1.301242139
1.293492239
1.281742191
1.271346125
1.26547356
1.257394294
1.245284336
1.40000504
1.40000504
1.40000504
1.40000504
1.400005037
1.400005008
1.400004757
1.400003118
1.399994684
1.399960141
1.399845994
1.399532104
1.398814034
1.397413627
1.394971286
1.391323753
1.386376362
1.379766007
1.37230364
1.364297516
1.354461927
1.344693733
1.336263758
1.325800768
1.314341741
1.306499411
1.298169649
1.286100561
1.27681771
1.270966295
1.261964095
1.40000504
1.40000504
1.40000504
1.40000504
1.40000504
1.400005039
1.400005024
1.400004891
1.400003954
1.399998801
1.399976338
1.399897532
1.39966879
1.399118889
1.39799337
1.395956661
1.392808742
1.388362181
1.382343507
1.37544271
1.367691568
1.35821545
1.349044147
1.340578878
1.329895807
1.319142306
1.311500494
1.302474741
1.29044712
1.282129462
1.275848514
1.40000504
1.40000504
1.40000504
1.40000504
1.40000504
1.40000504
1.40000504
1.400005033
1.400004963
1.400004438
1.40000135
1.399987002
1.399933511
1.399769442
1.39935429
1.398461688
1.396784026
1.394091222
1.3901371
1.384701316
1.378337456
1.370881498
1.361853549
1.353192661
1.344668053
1.333968376
1.323908156
1.316302732
1.306688054
1.294998735
1.287448467
1.40000504
1.40000504
1.40000504
1.40000504
1.40000504
1.40000504
1.40000504
1.40000504
1.400005037
1.400005001
1.400004713
1.400002898
1.399993901
1.399958216
1.399842434
1.399533568
1.398835539
1.397470129
1.395190359
1.391710065
1.386844237
1.380987585
1.373882957
1.365353278
1.357130889
1.348555072
1.33799774
1.328583599
1.320848034
1.310716703
1.299608681
1.40000504
1.40000504
1.40000504
1.40000504
1.40000504
1.40000504
1.40000504
1.40000504
1.40000504
1.400005039
1.400005021
1.400004866
1.40000382
1.399998284
1.3999749
1.399894538
1.399668238
1.39913011
1.398032822
1.396122557
1.393095378
1.388771518
1.383409359
1.376694495
1.368698969
1.36085298
1.352270065
1.342005597
1.333124873
1.325191106
1.31472053
1.304331666
1.40000504
1.40000504
1.40000504
1.40000504
1.40000504
1.40000504
1.40000504
1.40000504
1.40000504
1.40000504
1.400005039
1.400005031
1.400004949
1.400004359
1.400001018
1.399985974
1.39993114
1.399767918
1.399359248
1.398488515
1.396906368
1.394302146
1.390494391
1.38560714
1.379325888
1.371866676
1.364366025
1.355832361
1.345954399
1.337517024
1.329314696
1.318674783
1.40000504
1.40000504
1.40000504
1.40000504
1.40000504
1.40000504
1.40000504
1.40000504
1.40000504
1.40000504
1.40000504
1.40000504
1.400005036
1.400004994
1.400004668
1.400002692
1.399993195
1.399956429
1.399840598
1.399534936
1.398853286
1.397557947
1.395344758
1.392017404
1.387598301
1.381769756
1.374850398
1.367668796
1.35926021
1.349833966
1.341731848
1.333273523
1.40000504
1.40000504
1.40000504
1.40000504
1.40000504
1.40000504
1.40000504
1.40000504
1.40000504
1.40000504
1.40000504
1.40000504
1.40000504
1.400005038
1.400005017
1.400004841
1.400003695
1.399997815
1.399973605
1.39989276
1.399667707
1.399141332
1.398094374
1.39623463
1.393355012
1.38938615
1.384035468
1.377633069
1.37077345
1.362557544
1.353607241
1.345769537
1.40000504
1.40000504
1.40000504
1.40000504
1.40000504
1.40000504
1.40000504
1.40000504
1.40000504
1.40000504
1.40000504
1.40000504
1.40000504
1.40000504
1.400005039
1.400005029
1.400004936
1.400004285
1.400000716
1.399985064
1.3999296
1.399766514
1.399365859
1.398530412
1.396987456
1.394516228
1.390986446
1.386113184
1.380222865
1.373679569
1.36572994
1.357256473
1.40000504
1.40000504
1.40000504
1.40000504
1.40000504
1.40000504
1.40000504
1.40000504
1.40000504
1.40000504
1.40000504
1.40000504
1.40000504
1.40000504
1.40000504
1.40000504
1.400005035
1.400004987
1.400004625
1.400002501
1.399992572
1.39995518
1.399838935
1.399538391
1.398880856
1.397616007
1.395518162
1.392403825
1.388011857
1.382608094
1.376407106
1.368772271
1.40000504
1.40000504
1.40000504
1.40000504
1.40000504
1.40000504
1.40000504
1.40000504
1.40000504
1.40000504
1.40000504
1.40000504
1.40000504
1.40000504
1.40000504
1.40000504
1.40000504
1.400005038
1.400005013
1.400004817
1.400003579
1.399997399
1.399972642
1.399891158
1.399669168
1.399158732
1.398135386
1.396371974
1.393655663
1.389725049
1.384800666
1.37895009
1.40000504
1.40000504
1.40000504
1.40000504
1.40000504
1.40000504
1.40000504
1.40000504
1.40000504
1.40000504
1.40000504
1.40000504
1.40000504
1.40000504
1.40000504
1.40000504
1.40000504
1.40000504
1.400005039
1.400005027
1.400004922
1.400004216
1.400000445
1.399984353
1.399928211
1.399766777
1.39937641
1.398558758
1.397093768
1.394747352
1.391268862
1.386792041
1.40000504
1.40000504
1.40000504
1.40000504
1.40000504
1.40000504
1.40000504
1.40000504
1.40000504
1.40000504
1.40000504
1.40000504
1.40000504
1.40000504
1.40000504
1.40000504
1.40000504
1.40000504
1.40000504
1.40000504
1.400005034
1.400004979
1.400004584
1.400002329
1.399992065
1.399954055
1.399838543
1.399544381
1.39890022
1.397695989
1.395693703
1.392639753
1.40000504
1.40000504
1.40000504
1.40000504
1.40000504
1.40000504
1.40000504
1.40000504
1.40000504
1.40000504
1.40000504
1.40000504
1.40000504
1.40000504
1.40000504
1.40000504
1.40000504
1.40000504
1.40000504
1.40000504
1.40000504
1.400005037
1.40000501
1.400004793
1.400003471
1.399997048
1.399971773
1.399890461
1.399672195
1.399171528
1.39819444
1.396502729
1.40000504
1.40000504
1.40000504
1.40000504
1.40000504
1.40000504
1.40000504
1.40000504
1.40000504
1.40000504
1.40000504
1.40000504
1.40000504
1.40000504
1.40000504
1.40000504
1.40000504
1.40000504
1.40000504
1.40000504
1.40000504
1.40000504
1.400005039
1.400005025
1.400004909
1.40000415
1.400000207
1.3999837
1.399927428
1.399767947
1.399384426
1.398601045
1.40000504
1.40000504
1.40000504
1.40000504
1.40000504
1.40000504
1.40000504
1.40000504
1.40000504
1.40000504
1.40000504
1.40000504
1.40000504
1.40000504
1.40000504
1.40000504
1.40000504
1.40000504
1.40000504
1.40000504
1.40000504
1.40000504
1.40000504
1.40000504
1.400005033
1.400004972
1.400004545
1.400002171
1.399991587
1.399953301
1.399838652
1.399548951
1.40000504
1.40000504
1.40000504
1.40000504
1.40000504
1.40000504
1.40000504
1.40000504
1.40000504
1.40000504
1.40000504
1.40000504
1.40000504
1.40000504
1.40000504
1.40000504
1.40000504
1.40000504
1.40000504
1.40000504
1.40000504
1.40000504
1.40000504
1.40000504
1.40000504
1.400005037
1.400005006
1.40000477
1.400003369
1.399996709
1.399971112
1.399890017
1.40000504
1.40000504
1.40000504
1.40000504
1.40000504
1.40000504
1.40000504
1.40000504
1.40000504
1.40000504
1.40000504
1.40000504
1.40000504
1.40000504
1.40000504
1.40000504
1.40000504
1.40000504
1.40000504
1.40000504
1.40000504
1.40000504
1.40000504
1.40000504
1.40000504
1.40000504
1.400005039
1.400005023
1.400004896
1.400004086
1.399999974
1.399983166
1.40000504
1.40000504
1.40000504
1.40000504
1.40000504
1.40000504
1.40000504
1.40000504
1.40000504
1.40000504
1.40000504
1.40000504
1.40000504
1.40000504
1.40000504
1.40000504
1.40000504
1.40000504
1.40000504
1.40000504
1.40000504
1.40000504
1.40000504
1.40000504
1.40000504
1.40000504
1.40000504
1.40000504
1.400005032
1.400004965
1.400004506
1.400002018
1.40000504
1.40000504
1.40000504
1.40000504
1.40000504
1.40000504
1.40000504
1.40000504
1.40000504
1.40000504
1.40000504
1.40000504
1.40000504
1.40000504
1.40000504
1.40000504
1.40000504
1.40000504
1.40000504
1.40000504
1.40000504
1.40000504
1.40000504
1.40000504
1.40000504
1.40000504
1.40000504
1.40000504
1.40000504
1.400005036
1.400005002
1.400004748
1.40000504
1.40000504
1.40000504
1.40000504
1.40000504
1.40000504
1.40000504
1.40000504
1.40000504
1.40000504
1.40000504
1.40000504
1.40000504
1.40000504
1.40000504
1.40000504
1.40000504
1.40000504
1.40000504
1.40000504
1.40000504
1.40000504
1.40000504
1.40000504
1.40000504
1.40000504
1.40000504
1.40000504
1.40000504
1.40000504
1.400005038
1.400005021
1.40000504
1.40000504
1.40000504
1.40000504
1.40000504
1.40000504
1.40000504
1.40000504
1.40000504
1.40000504
1.40000504
1.40000504
1.40000504
1.40000504
1.40000504
1.40000504
1.40000504
1.40000504
1.40000504
1.40000504
1.40000504
1.40000504
1.40000504
1.40000504
1.40000504
1.40000504
1.40000504
1.40000504
1.40000504
1.40000504
1.40000504
1.400005039
1.40000504
1.40000504
1.40000504
1.40000504
1.40000504
1.40000504
1.40000504
1.40000504
1.40000504
1.40000504
1.40000504
1.40000504
1.40000504
1.40000504
1.40000504
1.40000504
1.40000504
1.40000504
1.40000504
1.40000504
1.40000504
1.40000504
1.40000504
1.40000504
1.40000504
1.40000504
1.40000504
1.40000504
1.40000504
1.40000504
1.40000504
1.40000504
1.40000504
1.40000504
1.40000504
1.40000504
1.40000504
1.40000504
1.40000504
1.40000504
1.40000504
1.40000504
1.40000504
1.40000504
1.40000504
1.40000504
1.40000504
1.40000504
1.40000504
1.40000504
1.40000504
1.40000504
1.40000504
1.40000504
1.40000504
1.40000504
1.40000504
1.40000504
1.40000504
1.40000504
1.40000504
1.40000504
1.40000504
1.40000504
1.40000504
1.40000504
1.40000504
1.40000504
1.40000504
1.40000504
1.40000504
1.40000504
1.40000504
1.40000504
1.40000504
1.40000504
1.40000504
1.40000504
1.40000504
1.40000504
1.40000504
1.40000504
1.40000504
1.40000504
1.40000504
1.40000504
1.40000504
1.40000504
1.40000504
1.40000504
1.40000504
1.40000504
1.40000504
1.40000504
1.40000504
1.40000504
1.40000504
1.40000504
1.40000504
1.40000504
1.40000504
1.40000504
1.40000504
1.40000504
1.40000504
1.40000504
1.40000504
1.40000504
1.40000504
1.40000504
1.40000504
1.40000504
1.40000504
1.40000504
1.40000504
1.40000504
1.40000504
1.40000504
1.40000504
1.40000504
1.40000504
1.40000504
1.40000504
1.40000504
1.40000504
1.40000504
1.40000504
1.40000504
1.40000504
1.40000504
1.40000504
1.40000504
1.40000504
1.40000504
1.40000504
1.40000504
1.40000504
1.40000504
1.40000504
1.40000504
1.40000504
1.40000504
1.40000504
1.40000504
1.40000504
1.40000504
1.40000504
1.40000504
1.40000504
1.40000504
1.40000504
1.40000504
1.40000504
1.40000504
1.40000504
1.40000504
1.40000504
1.40000504
1.40000504
1.40000504
1.40000504
1.40000504
1.40000504
1.40000504
1.40000504
1.40000504
1.40000504
1.40000504
1.40000504
1.40000504
1.40000504
1.40000504
1.40000504
1.40000504
1.40000504
1.40000504
1.40000504
1.40000504
1.40000504
1.40000504
1.40000504
1.40000504
1.40000504
1.40000504
1.40000504
1.40000504
1.40000504
1.40000504
1.40000504
1.40000504
1.40000504
1.40000504
1.40000504
1.40000504
1.40000504
1.40000504
1.40000504
1.40000504
1.40000504
1.40000504
1.40000504
1.40000504
1.40000504
1.40000504
1.40000504
1.40000504
1.40000504
1.40000504
1.40000504
1.40000504
1.40000504
1.40000504
1.40000504
1.40000504
1.40000504
1.40000504
1.40000504
1.40000504
1.40000504
1.40000504
1.40000504
1.40000504
1.40000504
1.40000504
1.40000504
1.40000504
1.40000504
1.40000504
1.40000504
1.40000504
1.40000504
1.40000504
1.40000504
1.40000504
1.40000504
1.40000504
1.40000504
1.40000504
1.40000504
1.40000504
1.40000504
1.40000504
1.40000504
1.40000504
1.40000504
1.40000504
1.40000504
1.40000504
1.40000504
1.40000504
1.40000504
1.40000504
1.40000504
1.40000504
1.40000504
1.40000504
1.40000504
1.40000504
1.40000504
1.40000504
1.40000504
1.40000504
1.40000504
1.40000504
1.40000504
1.40000504
1.40000504
1.40000504
1.40000504
1.40000504
1.40000504
1.40000504
1.40000504
1.40000504
1.40000504
1.40000504
1.40000504
1.40000504
1.40000504
1.40000504
1.40000504
1.40000504
1.40000504
1.40000504
1.40000504
1.40000504
1.40000504
1.40000504
1.40000504
1.40000504
1.40000504
1.40000504
1.40000504
1.40000504
1.40000504
1.40000504
1.40000504
1.40000504
1.40000504
1.40000504
1.40000504
1.40000504
1.40000504
1.40000504
1.40000504
1.40000504
1.40000504
1.40000504
1.40000504
1.40000504
1.40000504
1.40000504
1.40000504
1.40000504
1.40000504
1.40000504
1.40000504
1.40000504
1.40000504
1.40000504
1.40000504
1.40000504
1.40000504
1.40000504
1.40000504
1.40000504
1.40000504
1.40000504
1.40000504
1.40000504
1.40000504
1.40000504
1.40000504
1.40000504
1.40000504
1.40000504
1.40000504
1.40000504
1.40000504
1.40000504
1.40000504
1.40000504
1.40000504
1.40000504
1.40000504
1.40000504
1.40000504
1.40000504
1.40000504
1.40000504
1.40000504
1.40000504
1.40000504
1.40000504
1.40000504
1.40000504
1.40000504
1.40000504
1.40000504
1.40000504
1.40000504
1.40000504
1.40000504
1.40000504
1.40000504
1.40000504
1.40000504
1.40000504
1.40000504
1.40000504
1.40000504
1.40000504
1.40000504
1.40000504
1.40000504
1.40000504
1.40000504
1.40000504
1.40000504
1.40000504
1.40000504
1.40000504
1.40000504
1.40000504
1.40000504
1.40000504
1.40000504
1.40000504
1.40000504
1.40000504
1.40000504
1.40000504
1.40000504
1.40000504
1.40000504
1.40000504
1.40000504
1.40000504
1.40000504
1.40000504
1.40000504
1.40000504
1.40000504
1.40000504
1.40000504
1.40000504
1.40000504
1.40000504
1.40000504
1.40000504
1.40000504
1.40000504
1.40000504
1.40000504
1.40000504
1.40000504
)
;

boundaryField
{
    inlet
    {
        type            calculated;
        value           nonuniform 0();
    }
    outlet
    {
        type            calculated;
        value           nonuniform 0();
    }
    bottom
    {
        type            calculated;
        value           nonuniform 0();
    }
    top
    {
        type            calculated;
        value           nonuniform List<scalar> 
32
(
1.40000504
1.40000504
1.40000504
1.40000504
1.40000504
1.40000504
1.40000504
1.40000504
1.40000504
1.40000504
1.40000504
1.40000504
1.40000504
1.40000504
1.40000504
1.40000504
1.40000504
1.40000504
1.40000504
1.40000504
1.40000504
1.40000504
1.40000504
1.40000504
1.40000504
1.40000504
1.40000504
1.40000504
1.40000504
1.40000504
1.40000504
1.40000504
)
;
    }
    obstacle
    {
        type            calculated;
        value           nonuniform 0();
    }
    defaultFaces
    {
        type            empty;
    }
    procBoundary34to27
    {
        type            processor;
        value           nonuniform List<scalar> 9(1.040780468 1.042782768 1.046052619 1.051146986 1.060745119 1.069001041 1.084762902 1.104310654 1.124668014);
    }
    procBoundary34to28
    {
        type            processor;
        value           nonuniform List<scalar> 
32
(
1.044947621
1.044844265
1.044728375
1.044682553
1.04470353
1.044672694
1.044530585
1.044143321
1.043344587
1.041979798
1.039834164
1.037043834
1.033358718
1.028868568
1.02408278
1.018473312
1.012761849
1.006726763
0.9998741212
0.9934571717
0.9861575373
0.9784616143
1.040766948
1.041103733
1.041737387
1.042349007
1.042919148
1.043549552
1.044199804
1.044663555
1.044778324
1.044778324
)
;
    }
    procBoundary34to29
    {
        type            processor;
        value           uniform 0.9894018607;
    }
    procBoundary34to33
    {
        type            processor;
        value           nonuniform List<scalar> 
61
(
1.143132015
1.157644841
1.177572763
1.200783953
1.220673608
1.235175153
1.253135829
1.276163134
1.297128002
1.314271359
1.332536087
1.351750379
1.367537528
1.380008152
1.389521132
1.395391585
1.398342871
1.399544545
1.399909774
1.399990817
1.400003571
1.400004938
1.400005036
1.40000504
1.40000504
1.40000504
1.40000504
1.40000504
1.40000504
1.40000504
1.40000504
1.40000504
1.40000504
1.40000504
1.40000504
1.40000504
1.40000504
1.40000504
1.40000504
1.40000504
1.40000504
1.40000504
1.40000504
1.40000504
1.40000504
1.40000504
1.40000504
1.40000504
1.40000504
1.40000504
1.40000504
1.40000504
1.40000504
1.40000504
1.40000504
1.40000504
1.40000504
1.40000504
1.40000504
1.40000504
1.40000504
)
;
    }
    procBoundary34to35
    {
        type            processor;
        value           nonuniform List<scalar> 
71
(
1.003518251
1.016848443
1.02789256
1.036329807
1.041788978
1.044131008
1.044668581
1.044481558
1.044439746
1.044512902
1.044313065
1.043390899
1.042591938
1.042206136
1.042282718
1.042735958
1.044035476
1.047407157
1.051117526
1.054140334
1.060972435
1.074089744
1.085228906
1.096546405
1.105874409
1.11892721
1.135467518
1.14908308
1.162318764
1.173234024
1.184519319
1.199305442
1.215075798
1.227662881
1.237609025
1.250029193
1.265875867
1.280772767
1.292517695
1.292517695
1.297496475
1.309046612
1.32264013
1.337072153
1.349618983
1.360758079
1.371691067
1.381322287
1.388605244
1.393851909
1.397190402
1.398929548
1.399674494
1.399926767
1.399991185
1.400003272
1.400004883
1.400005031
1.40000504
1.40000504
1.40000504
1.40000504
1.40000504
1.40000504
1.40000504
1.40000504
1.40000504
1.40000504
1.40000504
1.40000504
1.40000504
)
;
    }
}

