/*--------------------------------*- C++ -*----------------------------------*\
  =========                 |
  \\      /  F ield         | OpenFOAM: The Open Source CFD Toolbox
   \\    /   O peration     | Website:  https://openfoam.org
    \\  /    A nd           | Version:  7
     \\/     M anipulation  |
\*---------------------------------------------------------------------------*/
FoamFile
{
    version     2.0;
    format      ascii;
    class       volScalarField;
    location    "0.4";
    object      p;
}
// * * * * * * * * * * * * * * * * * * * * * * * * * * * * * * * * * * * * * //

dimensions      [1 -1 -2 0 0 0 0];

internalField   nonuniform List<scalar> 
2222
(
4.163999629
3.978977709
3.79772253
3.620997509
3.454011761
3.301704349
3.16428424
3.03739568
2.916536965
2.799790145
2.687222145
2.578566445
2.476185881
2.37980292
2.285559663
2.19356969
2.105588584
2.023886447
1.948733819
1.87990333
1.816109055
1.75507205
1.697825834
1.64372369
1.590422703
1.536941951
1.484208022
1.434059636
1.387319047
1.343905776
1.30245926
1.262788355
4.20183897
4.016166833
3.833916016
3.655949601
3.487528568
3.333618679
3.194705371
3.066961736
2.945601729
2.828348928
2.715300105
2.605753051
2.501265352
2.402870791
2.308144053
2.216160706
2.128594384
2.046445474
1.970308979
1.900049496
1.835552318
1.773839396
1.715962841
1.661350959
1.607821305
1.554240715
1.501084516
1.450212698
1.402609281
1.358375189
1.316944127
1.277287444
4.162428471
3.978814822
3.800919915
3.627960291
3.462821918
3.309509991
3.170146761
3.043382182
2.925032071
2.810380716
2.697649168
2.585445579
2.478699243
2.378737985
2.286432941
2.199148263
2.113929132
2.031519176
1.955107072
1.88475556
1.821277626
1.75990115
1.701297518
1.646267815
1.593864413
1.542241
1.490271217
1.438994807
1.390823973
1.345202698
1.30430319
1.266436852
4.159028734
3.974882994
3.797802569
3.626725112
3.462918924
3.308469534
3.166989048
3.039504178
2.922987582
2.811263215
2.69843285
2.581850616
2.47399894
2.372906174
2.279343882
2.194588678
2.110675238
2.028533996
1.952207188
1.88132811
1.81763528
1.759315981
1.701824
1.646494664
1.593887488
1.542628807
1.490949214
1.43940578
1.390680717
1.343469322
1.302139813
1.26523419
4.15573144
3.970689552
3.790702309
3.615850174
3.449629451
3.296521955
3.159018434
3.033913708
2.915396753
2.799653444
2.687254706
2.582352927
2.478780964
2.378801724
2.281898975
2.190699829
2.109394708
2.031978173
1.955552744
1.883144199
1.816578502
1.764301266
1.714069031
1.659255889
1.60566336
1.555001596
1.503919178
1.451513886
1.396458639
1.345737604
1.303967891
1.267334959
4.147798271
3.963142583
3.78439815
3.611109373
3.445728036
3.293308011
3.156970014
3.033263227
2.914343589
2.796476973
2.682914146
2.589804432
2.495997652
2.396996926
2.295188654
2.193087201
2.107477695
2.031235968
1.957584357
1.88666665
1.817047205
1.759379897
1.701387202
1.644404567
1.588666977
1.538692414
1.489032459
1.437310014
1.389955504
1.353321087
1.313650464
1.277365308
4.139172374
3.955586216
3.778336091
3.6060404
3.44171109
3.291056202
3.154954341
3.028443268
2.907620479
2.792574563
2.683598251
2.575608983
2.470705873
2.370565744
2.274272241
2.183702152
2.100323547
2.033893855
1.969534035
1.900303114
1.830691507
1.761016778
1.701028155
1.644540861
1.58820834
1.53468279
1.484805235
1.433637718
1.389352681
1.344564827
1.301237338
1.263329737
4.130613414
3.947894289
3.771377284
3.599664594
3.436320866
3.285849906
3.148526072
3.021382816
2.901868439
2.788242967
2.678444524
2.569628027
2.465095834
2.364021125
2.267593002
2.179640642
2.099398273
2.022145703
1.949715589
1.881038756
1.813947474
1.750267446
1.702053179
1.655085848
1.599245006
1.537181914
1.482106242
1.434840981
1.389836968
1.344594273
1.301146244
1.26098863
4.119678807
3.938357264
3.763146015
3.592465961
3.429563575
3.278472765
3.140433668
3.013486284
2.89457022
2.780807297
2.671049417
2.564503834
2.463221918
2.36499049
2.270380867
2.181918782
2.100059401
2.021684185
1.94785411
1.878590589
1.811965036
1.749028147
1.692128764
1.637565569
1.58294788
1.526784874
1.47554641
1.437772467
1.397336229
1.353850648
1.310474256
1.266633951
4.109441293
3.929384032
3.755053137
3.585114807
3.422679387
3.271394121
3.132913594
3.006033844
2.888172169
2.776332338
2.668155389
2.562412943
2.459676491
2.35975147
2.264545752
2.175870866
2.091921447
2.011842375
1.936950051
1.870864719
1.815465291
1.760388553
1.696223418
1.635262536
1.58164439
1.527391504
1.477916655
1.4293913
1.381394978
1.338441877
1.297525705
1.257614383
4.09965998
3.919960906
3.745205515
3.575228548
3.412921501
3.261882641
3.124399154
2.999302207
2.882965063
2.771322316
2.66198331
2.554612202
2.45037804
2.350638607
2.257103142
2.169188603
2.085484613
2.007673339
1.936516514
1.869993526
1.807745166
1.749069863
1.690198069
1.629573754
1.578961404
1.5376435
1.488212727
1.432318344
1.380145248
1.334617912
1.295200686
1.257745771
4.089483741
3.910657913
3.735827864
3.565283381
3.402560604
3.252114114
3.116035813
2.992080487
2.876124957
2.765051497
2.657267066
2.551397941
2.448142086
2.349235299
2.255291587
2.166387987
2.082507787
2.004044372
1.931240254
1.863250385
1.799055169
1.738341992
1.683399257
1.632522832
1.578723544
1.524210855
1.474400917
1.426071875
1.377572083
1.330559379
1.292837557
1.263748701
4.081387411
3.900206163
3.722662446
3.551643607
3.390792684
3.242659645
3.107978685
2.984941004
2.869911873
2.758902959
2.649977605
2.543175257
2.440508949
2.342866971
2.24914654
2.159612951
2.075759011
1.998271004
1.927006388
1.861562446
1.799748094
1.739562586
1.681673632
1.627507399
1.573683251
1.518662591
1.467345539
1.422184973
1.378625402
1.334802671
1.292322848
1.253408975
4.071144918
3.887725777
3.707734495
3.536090596
3.377186321
3.231919773
3.099345582
2.97718554
2.861381132
2.748619686
2.638524504
2.53206513
2.431482076
2.337397553
2.247368819
2.158759783
2.073211419
1.995369866
1.925176959
1.859808312
1.796997417
1.735215919
1.674763177
1.618574534
1.567549744
1.518616268
1.469108881
1.420213041
1.373815821
1.330121078
1.28867713
1.251004446
4.056725415
3.871176028
3.691176305
3.521715341
3.366148537
3.223407558
3.09136455
2.968381467
2.852296567
2.740332374
2.631132767
2.525248656
2.424612904
2.329844032
2.239128645
2.150559115
2.064974603
1.986955235
1.917921245
1.853437309
1.791150761
1.731621551
1.674987689
1.620226619
1.566712948
1.515159237
1.464322086
1.414108475
1.367226101
1.324581512
1.284357686
1.246393318
4.040649814
3.85188531
3.67160716
3.504796052
3.352687799
3.212855326
3.082548882
2.959639291
2.842442657
2.729355027
2.619760447
2.514158916
2.413784087
2.318040383
2.225860829
2.13945974
2.059900672
1.985419649
1.915148871
1.848677089
1.785957416
1.726910339
1.670532285
1.614584307
1.558719806
1.506852666
1.460446866
1.415534461
1.370550527
1.326672398
1.285582803
1.247354331
4.020849851
3.831326878
3.653250415
3.489634115
3.340381204
3.202698802
3.073370902
2.950400482
2.833231425
2.72162738
2.614428823
2.510431426
2.410344749
2.314441466
2.222670999
2.135904445
2.054797536
1.978796469
1.90745789
1.840742272
1.777755707
1.717875964
1.661746799
1.60920888
1.55813461
1.507304702
1.45787501
1.411048196
1.365874927
1.322275483
1.281552446
1.243737486
3.998220915
3.807779763
3.633010097
3.474018881
3.327319021
3.18986579
3.060621921
2.939310164
2.824367449
2.712964482
2.604028568
2.498605494
2.398645075
2.304622231
2.214683697
2.127318202
2.046851314
1.975243191
1.907098612
1.840933024
1.777831438
1.717695647
1.660261124
1.60591082
1.553691234
1.50097571
1.449121812
1.402412284
1.359710871
1.318187594
1.278136056
1.2406731
3.976981857
3.787330539
3.614062197
3.45760047
3.312675244
3.175892008
3.047194936
2.926932793
2.812879582
2.702250651
2.594083626
2.488583782
2.387797694
2.29369977
2.206356042
2.124302989
2.045245515
1.97022897
1.901096487
1.836065427
1.774414552
1.715504663
1.657601089
1.600056836
1.545765364
1.496278467
1.448582933
1.401163176
1.355998255
1.313980893
1.27461264
1.237451558
3.95547285
3.769621563
3.597598205
3.441670137
3.29664112
3.159569896
3.031366039
2.912780756
2.801340139
2.692602635
2.584299881
2.477923512
2.377667969
2.285165213
2.198011359
2.11452482
2.034113287
1.958844864
1.891793167
1.82921033
1.769038529
1.712023013
1.657244766
1.602160243
1.545764493
1.491136876
1.442035578
1.396203622
1.351932676
1.309275792
1.269063325
1.231605965
3.932721147
3.751325999
3.578362225
3.420846189
3.276627597
3.141411307
3.014409104
2.896055557
2.78497442
2.677803669
2.571612215
2.466302647
2.36559257
2.272021275
2.184112377
2.101737322
2.026680653
1.955106991
1.885320482
1.820524955
1.760793034
1.704153851
1.649549159
1.596159518
1.541319344
1.485383282
1.434334763
1.391826613
1.352134013
1.310944691
1.27020638
1.232484953
3.916972319
3.735559244
3.559302978
3.399376069
3.256489047
3.124451538
2.999197394
2.880678756
2.769813405
2.664720707
2.560948657
2.456890108
2.355906539
2.262930858
2.178539426
2.098481202
2.019688892
1.944671545
1.874349581
1.809723623
1.750969595
1.695598636
1.641041848
1.587151014
1.536202944
1.486487568
1.436153512
1.387324334
1.342859344
1.302028075
1.263442056
1.22722225
3.914019506
3.720024422
3.54127084
3.377602589
3.234127091
3.105874721
2.984218813
2.866721255
2.755895469
2.650493745
2.547266976
2.445160372
2.345675693
2.252391796
2.166946148
2.086363966
2.007733711
1.935078859
1.870067064
1.805732342
1.743692683
1.688182029
1.63748503
1.586061814
1.531273112
1.477777144
1.428660988
1.381144137
1.335048512
1.292267398
1.254589834
1.220261555
3.871393926
3.694096039
3.521843847
3.357106936
3.21281053
3.086755525
2.968216425
2.851651621
2.742732924
2.64113343
2.540379691
2.43821005
2.336355663
2.239007407
2.150937318
2.073361701
2.002890189
1.93282178
1.863028422
1.798339031
1.739078696
1.682703386
1.628191906
1.575200724
1.522019011
1.468963006
1.419843343
1.376858128
1.335055951
1.292213121
1.252130401
1.217151367
3.85120431
3.672250257
3.502230121
3.342042236
3.19878285
3.073628165
2.955946099
2.838649153
2.730765275
2.628632927
2.526442569
2.423735474
2.323423287
2.227754553
2.141617275
2.065683674
1.993693983
1.922403773
1.853664779
1.791670585
1.732339784
1.673004308
1.615528665
1.561681672
1.513433044
1.467643243
1.419633292
1.371828369
1.328304668
1.286389817
1.2456432
1.210498248
3.843504182
3.651515367
3.482949695
3.340050633
3.201970469
3.074670074
2.949462366
2.829342432
2.718688525
2.613542903
2.511531022
2.410732033
2.31298677
2.220872738
2.134200508
2.052400533
1.978961535
1.914823441
1.85318538
1.789378516
1.725919529
1.666405569
1.611965865
1.561615039
1.511496574
1.461272193
1.412940176
1.366118447
1.321297227
1.280426684
1.242756767
1.207576455
3.792873109
3.612150245
3.449345641
3.298275902
3.159153197
3.033989041
2.923522402
2.815279885
2.703474195
2.592562355
2.489749171
2.393974281
2.301046952
2.211833786
2.125543562
2.044937615
1.972031988
1.904702626
1.841993099
1.780826614
1.7198617
1.660810664
1.605807745
1.553931187
1.502186236
1.450643357
1.403695655
1.363026416
1.322458932
1.279725729
1.238842262
1.201796401
3.766240656
3.58413948
3.415256688
3.270903768
3.140849348
3.018427804
2.904066984
2.799866042
2.68587682
2.56988446
2.466185734
2.375036626
2.287113248
2.200761366
2.118440464
2.037138004
1.956812491
1.884881251
1.824306569
1.768485241
1.711087102
1.652794505
1.596448067
1.543576496
1.494664169
1.448184198
1.401731112
1.356577423
1.313993143
1.271840186
1.233004699
1.200486805
3.740614839
3.567233708
3.392960296
3.252210819
3.143824747
3.019799629
2.893653136
2.776251996
2.659092035
2.548812261
2.449155459
2.36016826
2.277577358
2.19469873
2.110745365
2.025450058
1.944645033
1.875182537
1.815758362
1.760279117
1.704603822
1.648475566
1.593356043
1.54058138
1.489457409
1.439783392
1.391994932
1.346420295
1.305286813
1.268899665
1.233592653
1.1990743
3.710677963
3.536811915
3.368028156
3.225029446
3.101326285
2.988055762
2.877985392
2.760465314
2.64442769
2.536280279
2.435850503
2.343198409
2.261283011
2.183451009
2.101149872
2.015568633
1.936537374
1.866876174
1.80423941
1.746849255
1.692300156
1.638377386
1.584660946
1.531642687
1.478706291
1.427577007
1.383520053
1.343781289
1.303574204
1.262150503
1.223863486
1.191656893
3.674937206
3.508864803
3.351842494
3.207233405
3.076939271
2.974778534
2.878046347
2.764420767
2.649772957
2.540755516
2.434022155
2.332283847
2.24274766
2.168183481
2.09171014
2.006649414
1.927256197
1.858074036
1.794673503
1.737015352
1.68408765
1.632111563
1.579048849
1.525784361
1.47435986
1.426279708
1.380073544
1.336012548
1.29483922
1.257217301
1.222273551
1.189585739
3.654307469
3.480529728
3.31818868
3.176087704
3.053620591
2.94672876
2.838039928
2.729524077
2.620330118
2.510736005
2.406751559
2.314317304
2.2281271
2.145064706
2.068794017
1.995576312
1.920998461
1.852628214
1.78795817
1.729314674
1.675843233
1.623212712
1.569736319
1.516821638
1.466148984
1.417030101
1.369689902
1.32791856
1.290659672
1.252985407
1.215302271
1.180117257
3.616061124
3.444378956
3.29083163
3.151981858
3.031253189
2.922323086
2.815252995
2.71201855
2.607121515
2.494833943
2.389591967
2.300722808
2.215938742
2.131579855
2.052260228
1.986083887
1.922477786
1.848556955
1.780151106
1.720804679
1.664837538
1.609300223
1.555011892
1.503864569
1.454715399
1.407513752
1.364050639
1.322648997
1.282473959
1.244084847
1.209009262
1.176952499
3.589716101
3.421052838
3.266586818
3.127726902
3.010012791
2.901206894
2.793775396
2.686843623
2.580868554
2.478361633
2.378334257
2.280122906
2.200718327
2.128184359
2.046365215
1.970258946
1.896466317
1.829835449
1.770200109
1.71386268
1.658529732
1.603837289
1.550402021
1.500551844
1.452719919
1.405137373
1.357586948
1.314993971
1.278487426
1.243073958
1.2059742
1.17155281
3.552463101
3.385146875
3.234823059
3.103358026
2.987276996
2.876139832
2.765740364
2.657747788
2.554065131
2.461059965
2.369359083
2.269808834
2.17683547
2.095976083
2.030096723
1.960554853
1.887395987
1.819581761
1.759909894
1.704610867
1.649981475
1.594902199
1.541082324
1.491768257
1.444456452
1.396323082
1.350030495
1.309841355
1.27229281
1.234626744
1.198390446
1.166420363
3.520159536
3.361386587
3.213368806
3.083241469
2.968568158
2.860083447
2.750872872
2.640440632
2.536502797
2.441238734
2.347423944
2.257052046
2.164260399
2.077782726
2.01918363
1.961875659
1.891036478
1.813393259
1.747843928
1.692545709
1.640387276
1.586650826
1.534284467
1.485891948
1.438589715
1.389577903
1.342047987
1.299653152
1.262300874
1.228894652
1.195931735
1.163302004
3.486461039
3.326515028
3.179011074
3.053540085
2.943151374
2.837563581
2.727999668
2.612129328
2.500122678
2.402924627
2.318889899
2.243858484
2.158770164
2.07249409
1.995174548
1.926289601
1.865648624
1.802826585
1.741550667
1.684707296
1.627684204
1.575636469
1.526704356
1.47815181
1.42896531
1.380079506
1.335267537
1.29614976
1.259860361
1.22300505
1.18710456
1.155857876
3.454797297
3.303291392
3.155725993
3.026351687
2.919242266
2.819411127
2.713747085
2.597349792
2.478292629
2.376957251
2.299340242
2.223673306
2.141620056
2.062738312
1.981858616
1.908467908
1.849677484
1.801383004
1.743767382
1.67912585
1.616376052
1.563959518
1.517844516
1.468816596
1.418110205
1.370455298
1.327565388
1.288207288
1.25109664
1.215038029
1.181981053
1.151972407
3.42696686
3.279244121
3.122797316
2.984760042
2.881931772
2.793204814
2.698113017
2.589770431
2.469241459
2.352422097
2.263945472
2.191782419
2.128563623
2.059100983
1.976854612
1.901937502
1.8366785
1.77563368
1.717821484
1.661723797
1.608584911
1.554026695
1.501006982
1.452986139
1.407381323
1.362068837
1.318749677
1.279583835
1.244032802
1.209868385
1.174919941
1.142544505
3.39713284
3.259634207
3.101219921
2.95031167
2.836827973
2.753190255
2.673451581
2.580744334
2.464247108
2.339735029
2.240474169
2.166682275
2.101125284
2.036537047
1.977317462
1.905557988
1.831264196
1.765370747
1.705366404
1.649524743
1.597643617
1.544694697
1.49262547
1.444739165
1.398799932
1.354231463
1.312341602
1.273402977
1.238289352
1.204380123
1.169596729
1.137183049
3.367089024
3.235222876
3.079364477
2.92331795
2.795229444
2.709873263
2.640249828
2.558113191
2.452175292
2.334862839
2.226583792
2.143907615
2.081125326
2.021342104
1.953630123
1.883749531
1.814527462
1.749519228
1.691889057
1.638678105
1.58614431
1.541959412
1.493496891
1.442858875
1.394183713
1.349219061
1.304870591
1.263803427
1.228315442
1.195146384
1.160497775
1.12771611
3.328413288
3.209318193
3.061370385
2.907508858
2.776680204
2.673248803
2.589760254
2.513188995
2.428270355
2.325059566
2.219420911
2.133699081
2.060403612
1.992445561
1.9285819
1.868031732
1.802474543
1.737240805
1.682094033
1.632892156
1.581575617
1.524023178
1.472057346
1.426243006
1.383082747
1.340118394
1.298020347
1.257956166
1.222806526
1.190010317
1.15637701
1.12453751
3.283414011
3.171785794
3.045335957
2.912147122
2.780322803
2.660360177
2.55935373
2.475105375
2.390716694
2.296627222
2.202954968
2.117212778
2.04227472
1.97793157
1.918682716
1.857498441
1.79146998
1.727471123
1.669470033
1.615150586
1.563216044
1.509599068
1.459475691
1.416149039
1.377000322
1.335130065
1.293413141
1.252450446
1.215823815
1.181501605
1.147238592
1.115411601
3.225841212
3.124396124
3.012809622
2.887677412
2.764207763
2.654073346
2.550557344
2.451382626
2.353936229
2.262676724
2.181785947
2.106327703
2.032441612
1.960501665
1.895337971
1.833876073
1.771854303
1.71093889
1.653157588
1.601131965
1.552220194
1.504554563
1.457859353
1.410797268
1.365929289
1.330961264
1.290590648
1.24829763
1.211590935
1.176588784
1.14113911
1.110596703
3.185725089
3.069777644
2.938350088
2.830807902
2.741374148
2.646800201
2.542449595
2.43063049
2.323687501
2.238869249
2.163351759
2.089842959
2.017907249
1.946196782
1.88025398
1.820261718
1.76300747
1.705969805
1.649586646
1.595289171
1.540137792
1.48802328
1.441351127
1.399898551
1.360610683
1.315835796
1.275081624
1.24616544
1.213006576
1.175183373
1.136741835
1.102063542
3.189554221
3.055382461
2.903028519
2.765519509
2.678149496
2.607171137
2.525226071
2.415968068
2.306858032
2.21141094
2.13394746
2.069383692
2.004670532
1.93504526
1.86530445
1.800991449
1.741632004
1.684529066
1.6294764
1.576505673
1.526193588
1.478906676
1.434562903
1.392685554
1.350770469
1.307018942
1.268520444
1.229074829
1.193791873
1.161061808
1.128810156
1.096468675
3.191024595
3.057902236
2.900909282
2.744026676
2.639352877
2.565116644
2.481668186
2.384433636
2.279733961
2.179072145
2.104751433
2.049071011
1.991751925
1.925050308
1.853462716
1.787181252
1.726951223
1.671113816
1.619667215
1.570025515
1.519172542
1.468334499
1.422797467
1.379796588
1.338556982
1.304572952
1.265078621
1.223082517
1.186832846
1.154273102
1.122594095
1.092226374
3.094062167
3.002130739
2.867207818
2.718028242
2.61482433
2.535579384
2.44962602
2.359757127
2.261631093
2.166323873
2.08984217
2.028499039
1.971785475
1.910242961
1.843300779
1.775701348
1.711212184
1.653143474
1.601340688
1.551519799
1.501383762
1.456014715
1.416019138
1.375246082
1.334805383
1.290859432
1.250134267
1.222099729
1.187863216
1.148933495
1.117922743
1.092493619
3.008149194
2.943716316
2.812148243
2.668722297
2.564765869
2.489293127
2.411690944
2.335024217
2.253046863
2.159919908
2.073687284
2.00677772
1.945060132
1.880760014
1.815678994
1.75229947
1.692872418
1.639505664
1.590257443
1.543452271
1.497732276
1.450826996
1.402782823
1.358993242
1.318400083
1.278120342
1.241860653
1.205586953
1.172157077
1.140591856
1.108574252
1.076934585
2.929691987
2.890201927
2.787921604
2.655978766
2.546126916
2.452786839
2.373374832
2.303547379
2.2206125
2.134870858
2.063006939
1.999587372
1.934882617
1.867866287
1.804101048
1.74494979
1.686630442
1.627892963
1.574203719
1.525550882
1.478015272
1.430540503
1.389109387
1.350471213
1.312418577
1.272933052
1.232413495
1.195257958
1.161929859
1.134770893
1.103085819
1.070963849
2.565569456
2.795821419
2.748752269
2.663934204
2.548441666
2.438744196
2.364265815
2.286371245
2.191305338
2.095787768
2.027175662
1.973952099
1.916438949
1.85122291
1.783121889
1.718609262
1.658568814
1.605380854
1.559969269
1.515431837
1.4700279
1.425000395
1.379992083
1.336822173
1.296766935
1.258209939
1.224051418
1.19146804
1.15976424
1.125721829
1.095544422
1.070666443
2.062421188
2.687212968
2.641115434
2.57310553
2.482039129
2.398167184
2.329745337
2.260477015
2.170280354
2.066585157
1.993344255
1.94379729
1.896582667
1.83956806
1.772528241
1.706842198
1.648043499
1.595634093
1.546073428
1.498989219
1.453311669
1.40579642
1.361305718
1.325463351
1.290510406
1.254819159
1.214704252
1.177848911
1.14531423
1.116171866
1.089236603
1.059051019
1.390853256
2.356352387
2.588459941
2.522802038
2.447595005
2.372042788
2.298497317
2.231313609
2.14429205
2.044725536
1.962205766
1.918848936
1.874175673
1.815944383
1.751063503
1.687451559
1.626487087
1.569816548
1.521746388
1.484101089
1.444517005
1.399642485
1.356784761
1.31472835
1.27579478
1.238078587
1.203934646
1.171734728
1.141421727
1.110715126
1.079819217
1.04932735
0.9617600319
1.740290363
2.446106636
2.495646301
2.43890117
2.323841255
2.230100051
2.182677136
2.125167087
2.036095886
1.950948012
1.899537638
1.846033395
1.789834097
1.734476439
1.675887057
1.615879547
1.560339012
1.515801382
1.473528113
1.428330976
1.381851006
1.338188274
1.303535651
1.269976335
1.234247485
1.194591526
1.15814663
1.128719562
1.105547752
1.076484636
1.046050908
0.8305858235
1.159522008
2.007053864
2.447589128
2.417945704
2.321837213
2.223336051
2.154398211
2.083362711
1.99789763
1.94273122
1.894881655
1.839545356
1.774129758
1.708422088
1.649416245
1.591391647
1.537093044
1.492301725
1.453822776
1.417425342
1.375920798
1.334505428
1.29292697
1.25468892
1.216931324
1.183190484
1.152840895
1.126345012
1.096144541
1.063977403
1.034976674
0.792701297
0.8486591465
1.483910379
2.234705939
2.284050862
2.278686067
2.23601022
2.147852976
2.049531419
1.962703841
1.905311245
1.86207204
1.811267688
1.749340168
1.687454507
1.629411358
1.574219829
1.524903897
1.483873952
1.446343924
1.402496202
1.357248001
1.314871723
1.281712735
1.248751383
1.212935984
1.173547986
1.139885712
1.113082213
1.08897939
1.060615287
1.032090002
0.7681088924
0.9829259017
1.772324506
2.257378747
2.231564355
2.173795244
2.101661009
2.026903889
1.950237563
1.878252092
1.835758997
1.798690638
1.74401852
1.677277375
1.612636176
1.553126426
1.502724359
1.461922643
1.425478231
1.390941144
1.351489932
1.311003562
1.270683489
1.233210693
1.195904236
1.163067049
1.135748374
1.110480109
1.080052014
1.048393069
1.020738107
0.7396735508
0.7603053015
1.19252598
2.063414223
2.122755677
2.085891824
2.06066127
2.025222883
1.950738532
1.873954263
1.825468111
1.773015496
1.710730385
1.643728752
1.58394951
1.53535596
1.49172979
1.454495544
1.4207877
1.379500028
1.332811909
1.290701639
1.257322526
1.226295551
1.191858966
1.155444846
1.122721486
1.09540144
1.069084973
1.043694179
1.01822466
0.7238074017
0.7058454956
0.8054613575
1.515507528
1.988707156
2.092280525
2.056310277
1.97622076
1.891110449
1.842225425
1.803488448
1.75379339
1.68952487
1.625623507
1.573139712
1.523122136
1.472678999
1.433755765
1.399018089
1.361510368
1.324169239
1.285429386
1.24952825
1.211962207
1.175912994
1.141973739
1.116404451
1.091855593
1.064793335
1.033130908
1.005339263
0.708632345
0.6835766377
0.6766348469
0.964042735
1.715486605
2.025924452
2.00285535
1.937305694
1.882082827
1.834386288
1.787007861
1.726789836
1.657152748
1.593609071
1.542124943
1.496810312
1.460664471
1.427372268
1.393747911
1.355814467
1.308247078
1.264761801
1.230041027
1.201487333
1.171101955
1.139181133
1.106542233
1.077825776
1.05108222
1.026699483
1.002215441
0.6933849029
0.668776525
0.6451700431
0.6911700944
1.259342336
1.771036628
1.960033016
1.944414677
1.892205844
1.789944683
1.734774825
1.701848597
1.644284436
1.579105819
1.530581678
1.491399865
1.449085852
1.408398686
1.372836131
1.332537265
1.290956441
1.256299226
1.225357996
1.193216214
1.15710759
1.123820756
1.095123533
1.072299571
1.048313248
1.019937503
0.9906887554
0.6772879781
0.6544210244
0.6291682977
0.6220006754
0.8199096662
1.462530946
1.897922134
1.865813823
1.822499939
1.779347329
1.737382417
1.679820515
1.606356446
1.547094643
1.505920095
1.469001664
1.429046018
1.396113787
1.36519196
1.326558773
1.282616437
1.239004704
1.204964002
1.175263203
1.148265185
1.119668413
1.092095811
1.064237689
1.035309244
1.007378327
0.9837271546
0.6613058838
0.6377594929
0.6152713138
0.5996011842
0.6294135502
1.027790054
1.655018299
1.767062441
1.80732359
1.787269312
1.719506428
1.641091168
1.578891221
1.529208916
1.493544608
1.460760024
1.424608035
1.386860039
1.346912967
1.304076769
1.257911458
1.222127348
1.196769552
1.171359132
1.142331822
1.10822471
1.077428407
1.050997308
1.027497321
1.004006512
0.9795763923
0.6468355837
0.6228527728
0.601987409
0.58809231
0.5816137836
0.6900859643
1.21928442
1.76297685
1.744436837
1.699524534
1.667852568
1.637379189
1.578913902
1.513902816
1.475831723
1.44325222
1.402571619
1.360997133
1.328531404
1.29482559
1.252005186
1.214831439
1.183777695
1.154951221
1.1245742
1.094417924
1.069953512
1.047283526
1.022987224
0.995848944
0.9699794312
0.6321442959
0.6086475259
0.5867884726
0.5764016963
0.5643170665
0.573217557
0.8066986431
1.509443828
1.64649045
1.682344933
1.66197192
1.612326534
1.539903196
1.48720188
1.458900006
1.429834058
1.390653944
1.352903279
1.320086529
1.278142158
1.230726302
1.193230677
1.167299749
1.145005146
1.118927539
1.090886887
1.064456238
1.037445764
1.009178869
0.9827666734
0.9589650443
0.6174161341
0.5947431851
0.5719777027
0.5639524498
0.5536456288
0.5442818191
0.5867384105
1.048863584
1.511740718
1.649152061
1.62411075
1.562268797
1.514686856
1.487949844
1.457385283
1.412034125
1.365081591
1.329762487
1.294876099
1.256295562
1.219161367
1.186539617
1.16281027
1.138911011
1.108032477
1.075851648
1.047972503
1.02424432
1.001273737
0.979171156
0.9571980261
0.6030342519
0.5813478439
0.5582467043
0.550732799
0.5424907434
0.5307719222
0.5255173112
0.6662000846
1.228540194
1.510847036
1.57800446
1.555867969
1.521690842
1.472705327
1.425742057
1.387553566
1.347432388
1.315618849
1.284788281
1.250567509
1.211122847
1.173836819
1.145642384
1.118937399
1.089897446
1.061963443
1.040545318
1.020861147
0.9980869631
0.9707605106
0.9445145858
0.5892523558
0.5686684435
0.5457638817
0.537935497
0.5303716022
0.5195507304
0.506470223
0.5189818112
0.8125971563
1.289037328
1.542368478
1.527163173
1.484837494
1.443625158
1.418379247
1.386524796
1.335993422
1.294853946
1.264253093
1.230825114
1.191417241
1.157626603
1.132347404
1.109338879
1.08416147
1.056927637
1.033923708
1.011640476
0.9852348712
0.9578498816
0.9378406608
0.5742723375
0.5553614649
0.5334121976
0.5251668238
0.5179273773
0.5079752402
0.4953248461
0.4837165989
0.5499062398
0.9605683204
1.417032034
1.425729463
1.451365355
1.44631265
1.415789627
1.36551034
1.309427492
1.270620447
1.243787857
1.215065235
1.182047511
1.152239673
1.127812815
1.102462462
1.072948809
1.041359542
1.015965155
0.9969883394
0.9766031775
0.9528292395
0.9292261924
0.5606404914
0.5428186529
0.521464248
0.5125002992
0.5053476118
0.4955404728
0.4839806187
0.4705847331
0.4718518693
0.6338141432
1.104641428
1.423416651
1.425264216
1.411006247
1.386185649
1.350644475
1.304591292
1.262693546
1.236592544
1.209833468
1.174487734
1.140437663
1.111635734
1.082550128
1.052977863
1.026051744
1.006988127
)
;

boundaryField
{
    inlet
    {
        type            fixedValue;
        value           nonuniform 0();
    }
    outlet
    {
        type            zeroGradient;
    }
    bottom
    {
        type            slip;
    }
    top
    {
        type            slip;
    }
    obstacle
    {
        type            zeroGradient;
    }
    defaultFaces
    {
        type            empty;
    }
    procBoundary4to3
    {
        type            processor;
        value           nonuniform List<scalar> 
62
(
4.356115669
4.394358593
4.35470526
4.352371886
4.34876134
4.340715683
4.331776754
4.322647443
4.310736405
4.298941821
4.287047118
4.274441609
4.265666598
4.25593806
4.244482672
4.23233972
4.216290037
4.196895652
4.173806666
4.147020215
4.119596083
4.102724236
4.111130483
4.058370316
4.034885915
4.020134271
3.979124572
3.948321835
3.917778075
3.890379215
3.853642444
3.828613405
3.792506892
3.762437932
3.726567234
3.684108974
3.647418456
3.603782592
3.563696815
3.515124053
3.475268096
3.425510119
3.391596171
3.342119849
3.28272033
3.288270008
3.257710569
3.125757377
2.832837658
2.410007453
1.704160161
1.11023957
0.8997377553
0.8486386763
0.8254089875
0.8109712797
0.7737196373
0.7737196373
0.7592242405
0.7446684924
0.7274297271
0.7114537819
)
;
    }
    procBoundary4to5
    {
        type            processor;
        value           nonuniform List<scalar> 
69
(
1.227613754
1.241044305
1.229568622
1.228292994
1.231374011
1.242616772
1.229769178
1.226102975
1.225974771
1.222331956
1.223985272
1.232127181
1.218499208
1.215762297
1.211698012
1.21136986
1.207489426
1.205693685
1.20207979
1.196257286
1.197813482
1.19341245
1.187502792
1.185706137
1.180182735
1.174404421
1.169490494
1.170587338
1.165929552
1.163003269
1.158045099
1.148041662
1.147555552
1.140021133
1.136780141
1.132440284
1.127549699
1.122334943
1.113556424
1.108081545
1.099639431
1.096350308
1.088670859
1.084078908
1.073038382
1.068432366
1.065450707
1.067482141
1.051606866
1.044735454
1.043811363
1.032363677
1.025262216
1.018682015
1.014233199
1.005097906
0.9983689354
0.9918866458
0.9819879444
0.9792566191
0.966486032
0.9629487288
0.9560228862
0.9460929181
0.9381016205
0.935697471
0.9212242431
0.9185794521
0.9067544257
)
;
    }
    procBoundary4to9
    {
        type            processor;
        value           nonuniform List<scalar> 9(0.695419178 0.6788111139 0.663267053 0.6475123362 0.6317335777 0.6164064939 0.6020654985 0.5863578837 0.5724235806);
    }
    procBoundary4to10
    {
        type            processor;
        value           nonuniform List<scalar> 
32
(
0.9919285341
0.9737404103
0.9470008125
0.9229137164
0.5472249848
0.5301623041
0.5095337786
0.5001593803
0.4929262336
0.4834539685
0.4717278868
0.4600143269
0.4504506024
0.4757994435