/*--------------------------------*- C++ -*----------------------------------*\
  =========                 |
  \\      /  F ield         | OpenFOAM: The Open Source CFD Toolbox
   \\    /   O peration     | Website:  https://openfoam.org
    \\  /    A nd           | Version:  7
     \\/     M anipulation  |
\*---------------------------------------------------------------------------*/
FoamFile
{
    version     2.0;
    format      ascii;
    class       volScalarField;
    location    "3.9";
    object      p;
}
// * * * * * * * * * * * * * * * * * * * * * * * * * * * * * * * * * * * * * //

dimensions      [1 -1 -2 0 0 0 0];

internalField   nonuniform List<scalar> 5(1.058989109 0.9562998082 1.05608566 0.9335771778 1.048190303);

boundaryField
{
    inlet
    {
        type            fixedValue;
        value           nonuniform 0();
    }
    outlet
    {
        type            zeroGradient;
    }
    bottom
    {
        type            slip;
    }
    top
    {
        type            slip;
    }
    obstacle
    {
        type            zeroGradient;
    }
    defaultFaces
    {
        type            empty;
    }
    procBoundary22to16
    {
        type            processor;
        value           nonuniform List<scalar> 3(1.061711257 0.9940145115 0.9940145115);
    }
    procBoundary22to21
    {
        type            processor;
        value           nonuniform List<scalar> 2(0.8368448298 0.8231167293);
    }
    procBoundary22to28
    {
        type            processor;
        value           nonuniform List<scalar> 2(0.9000883349 1.034086692);
    }
    procBoundary22to29
    {
        type            processor;
        value           nonuniform List<scalar> 3(1.025603424 1.027771615 1.027580752);
    }
}


// ************************************************************************* //
