/*--------------------------------*- C++ -*----------------------------------*\
  =========                 |
  \\      /  F ield         | OpenFOAM: The Open Source CFD Toolbox
   \\    /   O peration     | Website:  https://openfoam.org
    \\  /    A nd           | Version:  7
     \\/     M anipulation  |
\*---------------------------------------------------------------------------*/
FoamFile
{
    version     2.0;
    format      ascii;
    class       volScalarField;
    location    "4.9";
    object      rho;
}
// * * * * * * * * * * * * * * * * * * * * * * * * * * * * * * * * * * * * * //

dimensions      [1 -3 0 0 0 0 0];

internalField   nonuniform List<scalar> 
22
(
1.21104577
1.011349432
1.068966989
1.244980521
1.020266981
1.097244665
1.284391205
1.029316153
1.136710458
1.322016088
1.039910382
1.178650673
1.347362994
1.049724797
1.216891385
1.359461336
1.052787389
1.250796598
1.050684382
1.273838413
1.03730664
1.327283104
)
;

boundaryField
{
    inlet
    {
        type            calculated;
        value           nonuniform 0();
    }
    outlet
    {
        type            calculated;
        value           nonuniform 0();
    }
    bottom
    {
        type            calculated;
        value           nonuniform 0();
    }
    top
    {
        type            calculated;
        value           nonuniform 0();
    }
    obstacle
    {
        type            calculated;
        value           nonuniform List<scalar> 8(1.011349432 1.020266981 1.029316153 1.039910382 1.049724797 1.052787389 1.050684382 1.03730664);
    }
    defaultFaces
    {
        type            empty;
    }
    procBoundary15to9
    {
        type            processor;
        value           nonuniform List<scalar> 4(1.154760421 0.9962240789 1.044884181 1.044884181);
    }
    procBoundary15to10
    {
        type            processor;
        value           nonuniform List<scalar> 3(1.342618716 1.354286314 1.359072498);
    }
    procBoundary15to16
    {
        type            processor;
        value           nonuniform List<scalar> 7(1.359698489 1.354028294 1.350177733 1.356057937 1.356057937 1.352404312 1.349474511);
    }
    procBoundary15to21
    {
        type            processor;
        value           nonuniform List<scalar> 2(1.040944397 1.312998399);
    }
}


// ************************************************************************* //
