/*--------------------------------*- C++ -*----------------------------------*\
  =========                 |
  \\      /  F ield         | OpenFOAM: The Open Source CFD Toolbox
   \\    /   O peration     | Website:  https://openfoam.org
    \\  /    A nd           | Version:  7
     \\/     M anipulation  |
\*---------------------------------------------------------------------------*/
FoamFile
{
    version     2.0;
    format      ascii;
    class       volScalarField;
    location    "5";
    object      p;
}
// * * * * * * * * * * * * * * * * * * * * * * * * * * * * * * * * * * * * * //

dimensions      [1 -1 -2 0 0 0 0];

internalField   nonuniform List<scalar> 
2222
(
1.006796933
1.00719715
1.007026064
1.00659234
1.005403653
1.006447731
1.006630427
1.006007366
1.005385704
1.004964137
1.005107203
1.005626851
1.006236844
1.006490584
1.006332932
1.00599856
1.00569924
1.00534018
1.004900204
1.004671153
1.004853322
1.005565076
1.006035836
1.006235064
1.006238535
1.00600772
1.005589807
1.005065869
1.004771818
1.00509243
1.006248553
1.007033736
1.007047838
1.006543529
1.006552342
1.006248857
1.005488454
1.005099036
1.004959016
1.005359366
1.006056155
1.006382862
1.006000174
1.005107736
1.004790131
1.005081063
1.005698153
1.006328929
1.006565935
1.006298257
1.005884498
1.005504552
1.005212846
1.004894194
1.004711655
1.005046365
1.00588179
1.00652666
1.006502459
1.006136724
1.00580994
1.005532531
1.00522415
1.005108482
1.005475647
1.006236006
1.006722344
1.006445983
1.005312444
1.005778465
1.005866459
1.005797383
1.005562066
1.005278815
1.005305238
1.005723217
1.006088656
1.005652157
1.005237464
1.005209526
1.005378087
1.005773567
1.006295412
1.006395782
1.006066339
1.005755687
1.005578205
1.005328672
1.005017264
1.004969696
1.005370536
1.00613189
1.006535849
1.006376715
1.006073552
1.005865689
1.00564674
1.005430717
1.005252174
1.005393975
1.005962681
1.006228403
1.004285445
1.004511528
1.005245406
1.006137874
1.006246272
1.005783567
1.005160687
1.005107019
1.005706572
1.006051484
1.005839721
1.00564473
1.00561544
1.005687913
1.005855133
1.00603702
1.0059605
1.005794278
1.005693465
1.005689354
1.005611905
1.005371178
1.005235577
1.005457614
1.006092299
1.006497143
1.006346601
1.006093843
1.005893932
1.005647692
1.005234755
1.004979098
1.005195491
1.00577961
1.004874194
1.004287729
1.004323811
1.005081616
1.00614618
1.006229377
1.005726978
1.005340576
1.005363087
1.005610912
1.00588371
1.00599165
1.006080772
1.006059473
1.005833164
1.005734826
1.005679532
1.00560541
1.005568721
1.005806296
1.0060975
1.006001817
1.005695411
1.005387865
1.005458436
1.006084397
1.00641108
1.006196993
1.005917119
1.005645944
1.005307917
1.005000187
1.004986861
1.005384111
1.005751475
1.004620678
1.004077376
1.004295477
1.005114461
1.006141344
1.006256765
1.00588119
1.005352917
1.005205685
1.005548323
1.005950399
1.006326225
1.006443931
1.006224367
1.005867383
1.005597593
1.005528221
1.005555287
1.005772774
1.00610874
1.006358187
1.006182689
1.00568
1.005244747
1.005437262
1.006110092
1.00614892
1.005827989
1.005584823
1.005452761
1.005355879
1.00515475
1.005266641
1.005917829
1.005247334
1.00476504
1.004631111
1.004640614
1.005230338
1.00599271
1.00622859
1.005950746
1.005519898
1.005431117
1.005612091
1.006003173
1.006462152
1.006542106
1.006159201
1.005761526
1.0057022
1.005749872
1.005742059
1.005841146
1.006099174
1.006246542
1.005906406
1.005325965
1.005068359
1.005452008
1.005890569
1.005728907
1.005413928
1.005396953
1.005703389
1.005663586
1.005637745
1.005249483
1.005563392
1.005518048
1.005363511
1.004972305
1.0047766
1.005250821
1.006138046
1.006453012
1.006062642
1.005627898
1.005550241
1.005650714
1.005922605
1.006340376
1.006337946
1.006126095
1.006041035
1.006059041
1.005897116
1.005718562
1.005703448
1.005897045
1.005893154
1.005502321
1.005036915
1.004981225
1.005372904
1.005620352
1.00549312
1.005594557
1.005995138
1.006168798
1.006104361
1.004470254
1.004529955
1.005144357
1.005775269
1.005687775
1.00529196
1.005058068
1.005522909
1.006128675
1.006248048
1.006085041
1.005940286
1.005702764
1.005576183
1.005824846
1.006241551
1.006348687
1.006222128
1.006128675
1.005963541
1.005776488
1.00557094
1.005498257
1.005580882
1.005569046
1.005280178
1.00490962
1.004848301
1.005297439
1.005673802
1.0060181
1.006268607
1.006354786
1.006345752
1.005365959
1.004328579
1.003925956
1.004202153
1.005188777
1.006075823
1.005938154
1.005396642
1.005164068
1.005365473
1.005917139
1.006326001
1.006351681
1.006149919
1.005833265
1.005671566
1.005872769
1.006156608
1.006087653
1.005908856
1.00580694
1.005852523
1.005796965
1.00560552
1.005564114
1.005661459
1.005472734
1.004906604
1.004588449
1.004974704
1.005853536
1.006394178
1.006447131
1.006356713
1.006364521
1.00604819
1.005216382
1.00450066
1.004100117
1.004429799
1.005265897
1.005964354
1.005819874
1.005523485
1.00513996
1.005141393
1.005564298
1.006120168
1.006440738
1.006342239
1.005884602
1.005673307
1.005759165
1.005677678
1.005473113
1.005378472
1.005588741
1.005882934
1.005995155
1.00599843
1.005889078
1.005536901
1.004992432
1.004678911
1.00488652
1.005821573
1.006526552
1.006512887
1.006263352
1.00609972
1.006281823
1.006089227
1.005454183
1.004843267
1.004492558
1.00461919
1.005366625
1.005912619
1.005928172
1.00538663
1.004817654
1.004904796
1.005397076
1.006055772
1.006481937
1.006177335
1.005672348
1.005431081
1.005306791
1.00513939
1.005048945
1.005173457
1.005654357
1.006253706
1.006424439
1.006154489
1.005646989
1.00520029
1.005019684
1.005085265
1.005519901
1.006174834
1.00641118
1.006296137
1.005934829
1.005216061
1.00540844
1.005594166
1.005593782
1.005333268
1.004900558
1.004914241
1.005337041
1.00576265
1.005611055
1.005210628
1.005017228
1.005082783
1.0054356
1.005980997
1.006233029
1.00581136
1.005344346
1.005204187
1.005108653
1.005014768
1.005039892
1.005363677
1.005915447
1.006312726
1.006197593
1.005816687
1.005503236
1.005414437
1.005394951
1.005396281
1.005617181
1.005991027
1.006113061
1.0057808
1.00459875
1.00443086
1.004720148
1.005508613
1.006023843
1.005669039
1.005047146
1.004918908
1.005315089
1.005634968
1.005679
1.005529857
1.005414493
1.00534787
1.00549106
1.005849549
1.005791484
1.005436962
1.00528925
1.00530083
1.005325485
1.005372785
1.005353475
1.005379351
1.005671271
1.00602888
1.006146334
1.006005402
1.005750524
1.005549973
1.005361514
1.005253656
1.005481111
1.005694221
1.005603038
1.004930202
1.00420214
1.00396277
1.00443092
1.005566113
1.006055542
1.005611919
1.005118392
1.005058305
1.005170714
1.005528666
1.005765434
1.005848131
1.005800465
1.005565349
1.005570365
1.005714629
1.005578414
1.005435394
1.005488378
1.005655338
1.0057262
1.005548463
1.00519596
1.005227344
1.005824447
1.006358937
1.006379973
1.005987632
1.005636905
1.005318464
1.00507361
1.005020609
1.005077386
1.005276467
1.005561837
1.004646455
1.004011304
1.003919797
1.004622981
1.005651306
1.005988291
1.005759229
1.005334238
1.004965551
1.005177598
1.005528847
1.005933244
1.006163316
1.00601339
1.005698086
1.00565914
1.005702604
1.005583243
1.00554233
1.005613859
1.005688413
1.005650421
1.005436361
1.005375259
1.005740117
1.00633638
1.006500657
1.006102046
1.005711654
1.005375509
1.005131626
1.004980112
1.004975899
1.005374903
1.005681864
1.005009971
1.004468971
1.004241074
1.004254934
1.004882688
1.005720342
1.006135594
1.005961044
1.00541063
1.005100659
1.005200518
1.005509083
1.005988142
1.006321896
1.006043381
1.005762962
1.005809994
1.005710665
1.005518963
1.005379854
1.00542259
1.005636353
1.005875468
1.00593518
1.005827574
1.005981331
1.006254613
1.006089559
1.00572027
1.005420102
1.005282569
1.005292484
1.005412084
1.005910274
1.005033482
1.004845425
1.004800066
1.004810877
1.004684088
1.004622865
1.005163225
1.005953929
1.006314382
1.00605725
1.005528644
1.005237272
1.005294888
1.005605928
1.006143552
1.006291532
1.005992454
1.005829358
1.005682215
1.005425063
1.005190712
1.005171588
1.00547408
1.005978162
1.006245992
1.006013236
1.005745325
1.005772554
1.005973762
1.005774864
1.005482079
1.005531004
1.005851609
1.006241829
1.006569743
1.004317957
1.004034014
1.004383555
1.005038224
1.005220559
1.004995576
1.004930933
1.005382695
1.005922465
1.00616842
1.0059683
1.005697551
1.005555032
1.005506407
1.005812384
1.006224235
1.006082207
1.005721282
1.005522645
1.005383728
1.005351222
1.005430298
1.005602294
1.005837285
1.005988236
1.005870776
1.005470303
1.005382161
1.005674311
1.005845191
1.005788385
1.006025058
1.006491295
1.006923138
1.00698035
1.004476067
1.003696463
1.003712165
1.004373357
1.005284934
1.005456502
1.005175799
1.005084031
1.005240739
1.005552275
1.005900053
1.00610809
1.006091982
1.005921725
1.005830392
1.005943661
1.005879628
1.005516198
1.005308676
1.005354448
1.005602442
1.005798093
1.005766343
1.005586423
1.005506626
1.005531621
1.005364047
1.005243623
1.00538397
1.005770489
1.006122342
1.006487211
1.006842908
1.007073033
1.006896308
1.005113277
1.004132947
1.003527884
1.003635488
1.004578974
1.005479577
1.005451302
1.005285231
1.005016724
1.004853089
1.005137501
1.005801766
1.006332312
1.006458054
1.006121682
1.005745053
1.005573561
1.005357641
1.005152883
1.005256001
1.005569657
1.005873499
1.00590119
1.005588435
1.00525646
1.005235195
1.005356449
1.005288924
1.005276564
1.005643676
1.006262599
1.00659394
1.006795173
1.006756064
1.006360607
1.005441327
1.004373686
1.003925366
1.003761806
1.003987499
1.00488269
1.005455763
1.005564233
1.005289384
1.004796522
1.004686881
1.005107263
1.005825545
1.006541814
1.006404508
1.005844853
1.005458937
1.005309725
1.005208248
1.005174227
1.00521369
1.005424507
1.005737327
1.00571306
1.005489061
1.005365
1.005384978
1.005348673
1.005328263
1.005578444
1.006091069
1.006343023
1.006364809
1.006138717
1.005795938
1.005415657
1.004970187
1.004891699
1.004400232
1.004097628
1.004431449
1.004981927
1.005613249
1.005434375
1.00501068
1.004973291
1.005001571
1.005229238
1.005884994
1.006401077
1.006060609
1.005554491
1.005476327
1.00544743
1.005223162
1.004907317
1.004802748
1.005097781
1.005735216
1.005954246
1.005747954
1.005421555
1.005284868
1.005413808
1.005561592
1.005682515
1.005756837
1.005704226
1.005648196
1.005540489
1.004749226
1.004821273
1.004948632
1.005196084
1.005336353
1.005061862
1.004499407
1.004599448
1.0051953
1.005539173
1.005540584
1.005407031
1.005225687
1.00520673
1.005284709
1.005835277
1.006183852
1.005991738
1.005809408
1.005619758
1.005200223
1.004761797
1.004638687
1.004854742
1.005617454
1.006211854
1.006060109
1.005536617
1.005314497
1.005424564
1.005529264
1.00533937
1.005082671
1.004987494
1.005126871
1.005381881
1.004791153
1.004285054
1.00409783
1.004772629
1.005609778
1.005710249
1.005382472
1.004746897
1.004840664
1.005207201
1.005679816
1.00575571
1.005829777
1.005648607
1.005306062
1.005467844
1.006044516
1.006293056
1.006002227
1.005543958
1.00510806
1.004990397
1.005062161
1.005287444
1.005556204
1.005917339
1.006028593
1.005710934
1.005452757
1.0053239
1.005247862
1.004923984
1.004785328
1.004954666
1.00523098
1.005670262
1.00534781
1.004246863
1.00372207
1.003864967
1.005009027
1.005939973
1.005854415
1.005551765
1.005126497
1.00485813
1.005154449
1.005823817
1.006052904
1.006078696
1.005952903
1.005646337
1.005875705
1.006151897
1.005889314
1.00546132
1.00542165
1.005503968
1.005760096
1.005769642
1.005612782
1.005476286
1.005579833
1.005731799
1.005559787
1.005177046
1.004905907
1.004993558
1.005157519
1.005344975
1.005661924
1.006031367
1.005701654
1.004876809
1.003885459
1.003675804
1.004165737
1.00545928
1.006204712
1.006160792
1.005858504
1.004977515
1.004817897
1.005136373
1.005818384
1.006323019
1.006345436
1.006134423
1.00578387
1.005627813
1.005592524
1.005534394
1.005671148
1.006030601
1.00613509
1.006066204
1.005520146
1.005167355
1.005258512
1.005602627
1.005569435
1.005259337
1.005100581
1.005249456
1.005652456
1.005970882
1.006069868
1.006129841
1.005863153
1.005095629
1.004635683
1.004128801
1.004133248
1.004600348
1.005767309
1.006424553
1.006205191
1.005660182
1.004880845
1.00485582
1.005173817
1.006034768
1.006588802
1.006369999
1.005667789
1.005276247
1.005409525
1.00563566
1.005814343
1.005901232
1.006016315
1.005926912
1.005784809
1.005511521
1.005360304
1.005579065
1.005752224
1.005639877
1.005498265
1.005660181
1.005973841
1.00614878
1.006150674
1.005967102
1.005395577
1.005218273
1.004934343
1.004821883
1.004639652
1.004485178
1.004912942
1.005938005
1.006375089
1.00600779
1.00566294
1.005130166
1.005061139
1.005435813
1.006244443
1.00651412
1.005967265
1.005419049
1.005485526
1.005761894
1.005792698
1.00561025
1.005297739
1.005394936
1.005791836
1.005937802
1.005817746
1.005731241
1.005855646
1.005976175
1.006005068
1.00584501
1.005811877
1.005799351
1.005776697
1.005740375
1.004449897
1.004445008
1.004951008
1.005159399
1.005228278
1.004908328
1.004708157
1.005036371
1.005866998
1.006181902
1.006027524
1.005956446
1.005628721
1.005403759
1.005637854
1.006186986
1.006220165
1.00583226
1.005698822
1.005715869
1.005553076
1.005175498
1.004975283
1.005219039
1.00566133
1.006261815
1.006386397
1.00612671
1.006084744
1.006201097
1.006113648
1.005907371
1.005337602
1.005084248
1.005321083
1.005831238
1.004221866
1.003583684
1.003900062
1.005012671
1.005583721
1.005513708
1.004966662
1.004846172
1.004952605
1.00569153
1.006209344
1.006315011
1.006410353
1.006073971
1.00566708
1.005782365
1.006364764
1.006203182
1.005744252
1.005372491
1.005182624
1.005120643
1.005198208
1.005393219
1.005869564
1.006455767
1.006764903
1.006585981
1.006241665
1.006098851
1.005890286
1.005434656
1.005062923
1.005148531
1.005427107
1.005938993
1.004573089
1.003473081
1.003239298
1.00383348
1.005374965
1.005854423
1.005789388
1.005194044
1.004732564
1.004753302
1.005602732
1.006479825
1.006721682
1.006768206
1.006306148
1.005889591
1.006025043
1.006293487
1.005572483
1.004938598
1.005074607
1.005459861
1.005976717
1.006229925
1.006003437
1.005912301
1.006505535
1.006731434
1.006384049
1.005728602
1.005182443
1.005050425
1.005286442
1.005541351
1.005784104
1.006231815
1.005498885
1.004281595
1.003301817
1.003347969
1.004196728
1.005733659
1.006031003
1.00610673
1.005103709
1.004561242
1.004731712
1.005658332
1.006765767
1.007066108
1.006983187
1.006240785
1.005826223
1.005736285
1.005344496
1.005037071
1.004928586
1.005756844
1.006684851
1.006919355
1.006713955
1.006240948
1.005982168
1.006086976
1.005882316
1.005228115
1.004929593
1.005040951
1.005513399
1.006035497
1.006437383
1.006614882
1.005698276
1.005231906
1.00455202
1.003581422
1.00375555
1.004570248
1.005982548
1.006355851
1.006151307
1.005082967
1.004643911
1.00481002
1.005560158
1.006843769
1.007241274
1.006917775
1.005776248
1.005322731
1.005487091
1.005378942
1.005250403
1.005273181
1.006360324
1.007125107
1.007056279
1.006745017
1.005650522
1.005065858
1.004975696
1.005218003
1.005157452
1.005296605
1.005843714
1.006579028
1.006907243
1.006842426
1.005153634
1.005342776
1.005356017
1.005021545
1.004047786
1.004112495
1.004806837
1.006361461
1.006420473
1.00624415
1.005400944
1.004839383
1.004872296
1.005434718
1.006871161
1.007074217
1.006405107
1.005548627
1.00575369
1.00594997
1.005879713
1.005703755
1.005564606
1.006068427
1.006942713
1.006435662
1.005397256
1.004672161
1.004653948
1.005161162
1.005586958
1.00594358
1.00635614
1.00651071
1.006825365
1.006951291
1.003387463
1.004292057
1.005458491
1.005768478
1.005548517
1.004402884
1.004322515
1.005114433
1.006364169
1.006541359
1.006549019
1.005970396
1.005064187
1.004965735
1.005495246
1.006780735
1.006715831
1.006065153
1.005984991
1.006307169
1.006349686
1.006226296
1.0052894
1.004737615
1.00505074
1.005863775
1.005892019
1.005225897
1.004865093
1.005084921
1.006131785
1.006566822
1.006632635
1.00660551
1.006442856
1.006288258
1.002893198
1.002659525
1.003986059
1.005746953
1.006191402
1.005866002
1.004723738
1.004482767
1.004994797
1.006326672
1.006715785
1.006847248
1.006548672
1.005582463
1.00513862
1.005641417
1.006791736
1.006573927
1.006189657
1.006321097
1.006464492
1.006034531
1.004978902
1.004126833
1.003888324
1.004505592
1.005906769
1.005927062
1.005619682
1.005466281
1.00595164
1.006733311
1.006795477
1.006397381
1.005704588
1.005397889
1.005810182
1.003901749
1.002516356
1.002496273
1.00408
1.006126916
1.006449105
1.006150206
1.004810595
1.004267924
1.004738944
1.006190313
1.006884866
1.007119033
1.006996409
1.005970861
1.00533044
1.006174161
1.006781397
1.006327934
1.005864113
1.005706814
1.005687874
1.00567296
1.005008722
1.004063168
1.003965285
1.004788517
1.006320484
1.00641649
1.006044027
1.005870232
1.006041148
1.006004417
1.005478121
1.005101241
1.005085503
1.006312135
1.005563258
1.004105771
1.002600163
1.002661467
1.004395166
1.006449349
1.006775819
1.006297487
1.004696539
1.004079131
1.004443341
1.005900429
1.007094764
1.007370873
1.007228526
1.005966122
1.005651384
1.006393834
1.006146983
1.005233357
1.004761227
1.005150958
1.005745342
1.005834069
1.005219383
1.004277793
1.004279885
1.005423532
1.006559121
1.006402446
1.005924235
1.005060046
1.004618291
1.00493379
1.005374823
1.005369576
1.006322573
1.005847162
1.005533207
1.004564789
1.002882908
1.003078695
1.004671874
1.006787614
1.006846554
1.006371982
1.004768364
1.004111206
1.004381174
1.00553557
1.007214645
1.00746334
1.007175372
1.005652071
1.005656538
1.005882472
1.005625305
1.004706899
1.004294657
1.004987581
1.005921971
1.006027046
1.005624171
1.004562815
1.004619482
1.005461474
1.006136593
1.005461618
1.004318456
1.004131418
1.004497843
1.005423652
1.005988677
1.004146175
1.005389298
1.005908699
1.005691525
1.005025809
1.003292146
1.003458414
1.005029274
1.006951792
1.006864695
1.00667089
1.00544492
1.00444292
1.004563441
1.005385878
1.007190667
1.007399779
1.006555264
1.005492026
1.005826065
1.00607007
1.005619429
1.004362351
1.003992117
1.004801571
1.00613851
1.006227867
1.005948972
1.004547097
1.004401333
1.004869457
1.005228699
1.005053219
1.004444069
1.004708273
1.005108541
1.006263196
1.003022616
1.003107515
1.004554726
1.006139007
1.006071735
1.005453824
1.003676903
1.003944368
1.005057636
1.006873446
1.007116899
1.007116275
1.006426882
1.004919943
1.004771531
1.005375431
1.006997206
1.006886638
1.005801435
1.005613154
1.006229994
1.006365457
1.005611477
1.004061197
1.003821701
1.004648871
1.006244803
1.006311067
1.005759959
1.004308006
1.004179472
1.004525875
1.005439455
1.005568024
1.005338014
1.005342714
1.005873927
1.003291822
1.002525448
1.002822383
1.004283366
1.006425064
1.006609341
1.005840295
1.004139242
1.004040635
1.004910811
1.006639438
1.007562111
1.007459694
1.007264705
1.005587509
1.004959524
1.005591283
1.006895136
1.006343086
1.005602122
1.005565665
1.006439243
1.006594784
1.005667532
1.004023118
1.003849315
1.004537257
1.006047664
1.00619651
1.005447319
1.004339152
1.004368922
1.004980927
1.006247913
1.006450748
1.006217467
1.006141892
1.005768877
1.003395469
1.002492512
1.002978944
1.004608755
1.006823188
1.007001375
1.006213429
1.004167967
1.003937374
1.004656393
1.006238028
1.007699216
1.0079326
1.007791911
1.005950003
1.005192651
1.006027777
1.006515575
1.005691711
1.004971782
1.005293121
1.006728932
1.007007401
1.006032497
1.004119695
1.003876618
1.00445645
1.005970918
1.00615927
1.005493801
1.004596179
1.004916628
1.0057934
1.006954228
1.007065647
1.006908548
1.006476536
1.00574908
1.003753549
1.002830465
1.003451398
1.00507843
1.007197122
1.007286399
1.006088611
1.004040715
1.003882283
1.004404404
1.005767605
1.007629458
1.008340236
1.0079643
1.005783735
1.005453583
1.0061957
1.00568452
1.004766647
1.004632332
1.00546783
1.007299526
1.007481252
1.006431958
1.00424062
1.003917926
1.004509471
1.006381623
1.006523034
1.006133644
1.005181736
1.005240657
1.006047546
1.007144882
1.007247227
1.006041881
1.006336707
1.005975619
1.00416042
1.00337421
1.003988903
1.005471109
1.007363683
1.00722375
1.006028455
1.004173094
1.003909099
1.004377911
1.005552901
1.007595599
1.008421932
1.007575213
1.005271725
1.005358142
1.005790229
1.005347092
1.004551381
1.004762938
1.005945029
1.007700548
1.007721505
1.006643488
1.004429753
1.004207458
1.005095385
1.006979971
1.007176841
1.006712691
1.005394205
1.005275213
1.005871829
1.007042086
1.003752743
1.005324703
1.006431777
1.006307608
1.004685548
1.003851888
1.004395056
1.005668465
1.007162983
1.007176765
1.006369732
1.00476604
1.004190488
1.004680463
1.005654836
1.007583913
1.008005978
1.006284127
1.004966245
1.005546366
1.006135122
1.005504293
1.004645337
1.004908712
1.006129821
1.007788403
1.007781877
1.00691121
1.004947147
1.004761781
1.005907841
1.007235622
1.00710104
1.00652762
1.004844327
1.00476828
1.005368836
1.002780293
1.003161894
1.005081998
1.006736421
1.00675301
1.00506772
1.004145608
1.004512592
1.005556742
1.00703694
1.007307941
1.007039021
1.005652325
1.004571401
1.00495335
1.00573716
1.00752057
1.007150823
1.005078424
1.005165088
1.006524903
1.006856863
1.005693127
1.004705542
1.004907264
1.005986991
1.007755558
1.007891877
1.007323782
1.005412179
1.005250728
1.005977823
1.006869795
1.006534264
1.005978975
1.004362373
1.004445688
1.00236284
1.002486591
1.003084006
1.005280598
1.007151142
1.007012504
1.005259337
1.00410293
1.004413794
1.005336332
1.007022299
1.007666521
1.007698182
1.006536993
1.00487204
1.005103048
1.005827025
1.007264354
1.006311003
1.005245623
1.005961367
1.007334664
1.007298782
1.005487938
1.004473537
1.004802461
1.005896299
1.007806256
1.008011518
1.00751438
1.00505905
1.004736879
1.005060299
1.006048436
1.006330548
1.005777638
1.004428821
1.006627943
1.004194073
1.002104662
1.002470747
1.003395337
1.005782906
1.007371191
1.00720206
1.00506018
1.003844106
1.004309743
1.005145685
1.006929901
1.007993597
1.008173049
1.007001713
1.004893381
1.005156954
1.006381912
1.007233137
1.006002924
1.005477684
1.006366323
1.007502555
1.007179325
1.005150791
1.004356321
1.004895148
1.006007621
1.007670817
1.007534122
1.006713136
1.004174025
1.003960336
1.004561822
1.005978808
1.006445181
1.005975158
1.006928835
1.006287057
1.004394632
1.002202639
1.002725863
1.003941094
1.006135754
1.007473317
1.007069633
1.004771706
1.003661302
1.004357218
1.005079067
1.006661706
1.008137075
1.008337096
1.006910657
1.004803774
1.005685053
1.007422973
1.007194752
1.005177064
1.005240261
1.006485662
1.007430667
1.00705948
1.005137397
1.004349156
1.004837941
1.00570232
1.006873351
1.006781711
1.005785916
1.003885994
1.004073714
1.004761842
1.006326739
1.007055411
1.005620858
1.006347866
1.00632742
1.004806449
1.002556996
1.003158698
1.004353892
1.006570701
1.007571716
1.006987378
1.004879048
1.003737054
1.004305632
1.005045906
1.00658137
1.008285499
1.008319286
1.006446224
1.005105893
1.006418904
1.007293099
1.006068096
1.004550524
1.004923194
1.006519279
1.00743805
1.007092093
1.005352415
1.004225805
1.004326678
1.004867455
1.006093806
1.006405299
1.005692963
1.004089918
1.004328132
1.005216689
1.007143176
1.003838556
1.004906273
1.006363711
1.00659747
1.005314123
1.003018956
1.003480201
1.004819889
1.006719371
1.007448518
1.007180936
1.005479977
1.003882255
1.004199729
1.00517823
1.0065911
1.008161078
1.008049381
1.005647605
1.005500571
1.006698352
1.006924631
1.004849835
1.004200429
1.004910437
1.006567802
1.007444989
1.007130075
1.005309937
1.003587079
1.003741629
1.004418115
1.006237504
1.006832677
1.006288722
1.004646849
1.004765637
1.006057783
1.002673841
1.003410595
1.004761674
1.006507757
1.006993756
1.005794544
1.003370357
1.003836535
1.005149921
1.007065657
1.0076607
1.007409774
1.006052143
1.004318851
1.004156822
1.005255363
1.006731645
1.008053962
1.00717493
1.004660951
1.005454378
1.006619385
1.00635246
1.004179628
1.004062144
1.005014119
1.006454163
1.007204706
1.006799679
1.005048614
1.003197129
1.003607107
1.004785019
1.006780851
1.007548216
1.007002103
1.005302683
1.005557222
1.002510318
1.002140381
1.003184039
1.004789568
1.006792565
1.007408507
1.006066555
1.003814579
1.004086777
1.005331505
1.006741236
1.007260331
1.007325439
1.00664184
1.004965348
1.004272878
1.00543236
1.006917299
1.007442959
1.005344447
1.00443423
1.005736896
1.006933898
1.006104672
1.003989219
1.003951202
1.00495817
1.006088838
1.006759398
1.006583451
1.005301453
1.003602075
1.004120588
1.005693243
1.007530281
1.008020424
1.007430529
1.005428692
1.004948663
1.002562515
1.001990361
1.003266412
1.005369797
1.007254998
1.007864081
1.006359536
1.003846047
1.003921035
1.004770021
1.005911557
1.006957379
1.007644346
1.007406473
1.005425547
1.004279633
1.005264054
1.006652107
1.006294033
1.004051668
1.004675695
1.006257561
1.006913765
1.006075832
1.004139848
1.003737823
1.004493853
1.005496735
1.006478969
1.006855101
1.006032609
1.004378373
1.004880691
1.006087858
1.007725857
1.008208702
1.007074606
1.006361505
1.005311932
1.003067385
1.002558848
1.003878745
1.005928276
1.007861601
1.007943258
1.005759095
1.003370121
1.003273263
1.004255557
1.005633304
1.007218679
1.008129257
1.007712926
1.005123037
1.004048835
1.005357426
1.006616796
1.005349076
1.003908134
1.004784836
1.006534518
1.007161971
1.006281077
1.004186906
1.003424671
1.004062936
1.005363093
1.006822407
1.007614224
1.006843629
1.004625723
1.004946771
1.00619784
1.00740637
1.007578474
1.00564087
1.006635149
1.005871993
1.003518003
1.003223646
1.004694008
1.006415187
1.007398007
1.007354697
1.00510664
1.003302266
1.003354001
1.004297844
1.005659514
1.007032143
1.008022878
1.007406767
1.004679744
1.004428286
1.006416717
1.006503564
1.004139436
1.003722057
1.005247729
1.006670996
1.007130987
1.006486507
1.004656042
1.0037276
1.004358693
1.005780292
1.007451293
1.007988921
1.006738171
1.004525373
1.004564862
1.005661042
1.007042253
1.004428797
1.005836793
1.006913535
1.006599928
1.004242004
1.003726561
1.004358304
1.005974453
1.007054674
1.007391699
1.005495295
1.003706889
1.003335443
1.003912658
1.00521742
1.006716824
1.008101321
1.006963154
1.004270458
1.00522444
1.006766775
1.005504892
1.003238488
1.003649821
1.005045639
1.006393808
1.007334737
1.007076247
1.005549426
1.004385692
1.00491517
1.005926157
1.007065623
1.007768932
1.006389258
1.004076821
1.004071419
1.005480743
1.002691589
1.003519863
1.005548533
1.007108776
1.007094856
1.004427273
1.00343511
1.004041058
1.00575796
1.00727611
1.007689993
1.006722943
1.00490774
1.00359338
1.003925435
1.005205922
1.007206229
1.008203164
1.006093186
1.004012592
1.005612003
1.00690318
1.005266641
1.003056821
1.003468179
1.004846752
1.006293199
1.007730162
1.008206875
1.006667445
1.0047168
1.004375
1.005397095
1.006618394
1.007532269
1.006204366
1.00360521
1.003794237
1.001722491
1.001731612
1.002656941
1.00508703
1.007195479
1.007382761
1.004887347
1.003204336
1.003816645
1.004748965
1.006675068
1.007522531
1.00791855
1.006764598
1.004483484
1.004332821
1.005008558
1.007049475
1.007618022
1.004258113
1.00363556
1.006115341
1.00732382
1.005635861
1.003428214
1.003488708
1.00475002
1.006701477
1.007926156
1.008395079
1.006530158
1.004100324
1.003745749
1.004884116
1.006500286
1.007450339
1.006237334
1.003863241
1.006605987
1.005395324
1.002998393
1.00108415
1.002401153
1.004884651
1.007006509
1.007535295
1.0060145
1.002905041
1.002659209
1.003484574
1.005609856
1.007339778
1.008422513
1.008286417
1.005490575
1.003418113
1.004214454
1.006511768
1.006463316
1.00315051
)
;

boundaryField
{
    inlet
    {
        type            fixedValue;
        value           nonuniform 0();
    }
    outlet
    {
        type            zeroGradient;
    }
    bottom
    {
        type            slip;
    }
    top
    {
        type            slip;
    }
    obstacle
    {
        type            zeroGradient;
    }
    defaultFaces
    {
        type            empty;
    }
    procBoundary17to11
    {
        type            processor;
        value           nonuniform List<scalar> 
36
(
1.00652723
1.006680132
1.006618228
1.006461399
1.006608061
1.006974837
1.006347251
1.005398075
1.004974023
1.005170052
1.00578433
1.006108239
1.006125775
1.005983494
1.005828675
1.005799955
1.005779392
1.00546735
1.004987426
1.00485019
1.005305706
1.005758793
1.005829166
1.005836225
1.005973425
1.005868079
1.005341704
1.004684733
1.00463154
1.005527391
1.005527391
1.00605034
1.005334853
1.004765743
1.004775778
1.004775778
)
;
    }
    procBoundary17to16
    {
        type            processor;
        value           nonuniform List<scalar> 
65
(
1.006027791
1.005099257
1.004635657
1.005609054
1.00672396
1.006163948
1.004892062
1.004833518
1.004833518
1.006494034
1.006627343
1.005946935
1.005271655
1.005195864
1.005782226
1.0063128
1.005886242
1.005181737
1.0048246
1.005306688
1.006011917
1.006221648
1.005543388
1.005543388
1.005219461
1.005641256
1.006335305
1.00652157
1.006316096
1.005345006
1.004883584
1.005123901
1.006020976
1.006248717
1.006188683
1.004591113
1.003742653
1.004062352
1.004062352
1.006903713
1.007030656
1.005594147
1.003609946
1.003524271
1.005650957
1.006805539
1.00686253
1.004835484
1.003398136
1.002995273
1.004323517
1.004323517
1.007504029
1.006744589
1.004674859
1.003574195
1.002804894
1.004842849
1.006781677
1.006636171
1.005142179
1.003223226
1.002520545
1.004417067
1.004417067
)
;
    }
    procBoundary17to22
    {
        type            processor;
        value           uniform 1.006902855;
    }
    procBoundary17to23
    {
        type            processor;
        value           nonuniform List<scalar> 
40
(
1.004038084
1.006757522
1.007888798
1.006681593
1.004070881
1.003746751
1.004418815
1.005755664
1.007165963
1.007390905
1.006166701
1.003664639
1.00331074
1.004110756
1.006178828
1.007363883
1.00699816
1.005017712
1.005513794
1.005706601
1.004682645
1.002637705
1.00251451
1.004417614
1.006399833
1.007087502
1.00621176
1.003731729
1.002520735
1.003022878
1.00458858
1.006692651
1.008264517
1.008423451
1.006352271
1.003535961
1.004091748
1.006249562
1.004038084
1.006309434
)
;
    }
}


// ************************************************************************* //
