/*--------------------------------*- C++ -*----------------------------------*\
  =========                 |
  \\      /  F ield         | OpenFOAM: The Open Source CFD Toolbox
   \\    /   O peration     | Website:  https://openfoam.org
    \\  /    A nd           | Version:  7
     \\/     M anipulation  |
\*---------------------------------------------------------------------------*/
FoamFile
{
    version     2.0;
    format      ascii;
    class       volVectorField;
    location    "2.3";
    object      U;
}
// * * * * * * * * * * * * * * * * * * * * * * * * * * * * * * * * * * * * * //

dimensions      [0 1 -1 0 0 0 0];

internalField   nonuniform List<vector> 
139
(
(2.969455479 -0.005172562837 0)
(2.968634714 -0.005682223313 0)
(2.967983339 -0.003993900802 0)
(2.966910417 -0.001734445607 0)
(2.965330536 -0.0005884546182 0)
(2.96454405 0.0002381863632 0)
(2.965369304 0.001726745442 0)
(2.928008557 -0.003683149977 0)
(2.928805127 -0.00498048712 0)
(2.930160497 -0.003763852514 0)
(2.93116402 -0.0003905596126 0)
(2.931817715 0.002047959544 0)
(2.931666616 0.002749854329 0)
(2.930599339 0.001431760065 0)
(2.931726902 -0.0008430095381 0)
(2.893667826 0.001030870049 0)
(2.895027546 -0.0002391451637 0)
(2.897627381 0.001344522887 0)
(2.900209765 0.004070661642 0)
(2.902243202 0.004428422774 0)
(2.903600426 0.003027599587 0)
(2.903686443 0.0008518653126 0)
(2.904614097 -0.003143740892 0)
(2.86355149 0.001094350294 0)
(2.865859622 0.0009503198498 0)
(2.869349123 0.003320125068 0)
(2.872813053 0.004992966312 0)
(2.876812328 0.005389225911 0)
(2.880334354 0.003236207348 0)
(2.882507119 -0.0005763170775 0)
(2.883792259 -0.002169604569 0)
(2.838707036 -0.002071795199 0)
(2.842414874 -0.0002947627041 0)
(2.84738868 0.001021053947 0)
(2.852018087 0.0006347406251 0)
(2.858198376 -0.001414381151 0)
(2.864823196 -0.002598867541 0)
(2.867820249 -0.002691818254 0)
(2.868526815 0.0003617990419 0)
(2.826145447 -0.004402721041 0)
(2.829704246 -0.004428470934 0)
(2.834998891 -0.004889903936 0)
(2.841560505 -0.005387957877 0)
(2.848146283 -0.00509872223 0)
(2.854506212 -0.003607923962 0)
(2.85742197 -0.001439258622 0)
(2.857612657 0.001960845677 0)
(2.819239492 -0.004354228892 0)
(2.823485593 -0.005059890352 0)
(2.828536031 -0.006202073243 0)
(2.834473351 -0.006115141996 0)
(2.839949568 -0.004844902995 0)
(2.844961928 -0.00170428599 0)
(2.849165928 0.0009095125889 0)
(2.849939641 0.003064674211 0)
(2.814520759 -0.002269608408 0)
(2.819497445 -0.003320234305 0)
(2.824149568 -0.004231696683 0)
(2.82928512 -0.003463267616 0)
(2.834066457 -0.00180100826 0)
(2.839407668 0.001216907974 0)
(2.843774123 0.002930998025 0)
(2.846427631 0.001365586278 0)
(2.814402009 -0.0008963294459 0)
(2.819092507 -0.001636921974 0)
(2.823337099 -0.001459159487 0)
(2.829041777 5.07854545e-05 0)
(2.833947321 0.00190486281 0)
(2.838608745 0.002709670424 0)
(2.842886802 0.00235559675 0)
(2.846298866 -0.001166453748 0)
(2.816977555 -0.001697511833 0)
(2.821435505 -0.001607046856 0)
(2.825606719 0.000137651354 0)
(2.831765943 0.002033312583 0)
(2.836617513 0.002630176639 0)
(2.840099811 0.001352271982 0)
(2.844594063 -0.001287837533 0)
(2.847643408 -0.002000451677 0)
(2.853277873 -0.006427165864 0)
(2.856526584 -0.005426056648 0)
(2.859195743 -0.002927644045 0)
(2.86180442 -0.003249391041 0)
(2.864040673 -0.003889423437 0)
(2.866011566 -0.004332244373 0)
(2.868589613 -0.004441603047 0)
(2.872282521 -0.002614385514 0)
(2.922285305 -0.00560521997 0)
(2.923225897 -0.007439767162 0)
(2.923826603 -0.006185669082 0)
(2.923429088 -0.004474908353 0)
(2.922156969 -0.00236992486 0)
(2.920928328 -0.00118296505 0)
(2.920305055 -0.001619413987 0)
(2.92185705 -0.002588897435 0)
(2.975308551 -0.004467070233 0)
(2.974049038 -0.006558341344 0)
(2.973749448 -0.006268402562 0)
(2.972711162 -0.00419044192 0)
(2.970934955 -0.002871487473 0)
(2.968550503 -0.001451778919 0)
(2.966913793 -0.0001219405134 0)
(2.964747842 -0.000828406678 0)
(2.999029895 -0.00340093397 0)
(2.999510603 -0.004629531111 0)
(3.000586314 -0.003268728809 0)
(2.999290931 -0.003459220752 0)
(2.998134106 -0.003682984814 0)
(2.99637082 -0.003761255685 0)
(2.995629319 -0.004660294219 0)
(2.992788025 -0.002247805671 0)
(3.014738044 -0.00754661093 0)
(3.010622509 -0.001812270798 0)
(3.007739485 -0.0006644371333 0)
(3.00664298 -0.001661130978 0)
(3.006400996 -0.002947018435 0)
(3.006846986 -0.005413226353 0)
(3.007370928 -0.004832806544 0)
(3.004145422 -0.002868084778 0)
(3.022401948 -0.00650698963 0)
(3.010455055 -0.001669484551 0)
(3.005666972 -0.003622362645 0)
(3.004973732 -0.001664890762 0)
(3.005161316 -0.003011034757 0)
(3.007341627 -0.005172765577 0)
(3.008137085 -0.004638109232 0)
(3.006112976 -0.00255286441 0)
(3.028424058 -0.06876808909 0)
(3.032885553 -0.06946336522 0)
(3.01616462 -0.03047754161 0)
(3.007423134 -0.008622633689 0)
(3.001898954 -0.007356316199 0)
(3.00378888 -0.004345833043 0)
(3.004962151 -0.002383474165 0)
(3.002893524 -0.001205744348 0)
(3.053269553 -0.19412819 0)
(3.04383647 -0.1330351328 0)
(3.024763708 -0.05029822455 0)
(3.009257437 0.01185996881 0)
)
;

boundaryField
{
    inlet
    {
        type            fixedValue;
        value           nonuniform 0();
    }
    outlet
    {
        type            inletOutlet;
        inletValue      uniform (3 0 0);
        value           nonuniform List<vector> 
17
(
(2.872282521 -0.002614385514 0)
(2.92185705 -0.002588897435 0)
(2.964747842 -0.000828406678 0)
(2.992788025 -0.002247805671 0)
(3.004145422 -0.002868084778 0)
(3.006112976 -0.00255286441 0)
(3.002893524 -0.001205744348 0)
(2.965369304 0.001726745442 0)
(2.931726902 -0.0008430095381 0)
(2.904614097 -0.003143740892 0)
(2.883792259 -0.002169604569 0)
(2.868526815 0.0003617990419 0)
(2.857612657 0.001960845677 0)
(2.849939641 0.003064674211 0)
(2.846427631 0.001365586278 0)
(2.846298866 -0.001166453748 0)
(2.847643408 -0.002000451677 0)
)
;
    }
    bottom
    {
        type            slip;
    }
    top
    {
        type            slip;
    }
    obstacle
    {
        type            slip;
    }
    defaultFaces
    {
        type            empty;
    }
    procBoundary29to23
    {
        type            processor;
        value           nonuniform List<vector> 9((3.014440884 -0.001999372766 0) (3.011460211 -0.003112866679 0) (3.00896015 -0.003183572318 0) (3.006838185 -0.001741890829 0) (3.004861956 0.0001203593088 0) (3.004122636 0.001729904885 0) (3.002765155 0.002916585662 0) (2.970864366 -0.004057436461 0) (2.970864366 -0.004057436461 0));
    }
    procBoundary29to28
    {
        type            processor;
        value           nonuniform List<vector> 
16
(
(2.928053562 -0.003933400397 0)
(2.89228197 0.0002957959217 0)
(2.860914061 -4.496514907e-05 0)
(2.835376572 -0.004136773199 0)
(2.822649666 -0.006732609571 0)
(2.815481322 -0.006322959718 0)
(2.810976513 -0.004006671895 0)
(2.811192073 -0.002651896489 0)
(2.813833886 -0.003548965649 0)
(2.85172095 -0.007693214091 0)
(2.923687261 -0.002383768684 0)
(2.977530658 -0.001497553504 0)
(3.008682689 0.001383044468 0)
(3.022505606 -0.01380084198 0)
(3.039808159 -0.08539348715 0)
(3.051533762 -0.163563385 0)
)
;
    }
    procBoundary29to34
    {
        type            processor;
        value           uniform (3.06991128 -0.2374552749 0);
    }
    procBoundary29to35
    {
        type            processor;
        value           nonuniform List<vector> 9((2.996675721 -0.004097255836 0) (3.001760616 -0.000124530895 0) (3.00221414 0.0002050690537 0) (2.998222319 -0.001878517277 0) (3.068180461 -0.2369937352 0) (3.062383631 -0.2112009061 0) (3.049571692 -0.158135237 0) (2.996675721 -0.004097255836 0) (3.034227033 -0.09544037269 0));
    }
}


// ************************************************************************* //
