/*--------------------------------*- C++ -*----------------------------------*\
  =========                 |
  \\      /  F ield         | OpenFOAM: The Open Source CFD Toolbox
   \\    /   O peration     | Website:  https://openfoam.org
    \\  /    A nd           | Version:  7
     \\/     M anipulation  |
\*---------------------------------------------------------------------------*/
FoamFile
{
    version     2.0;
    format      ascii;
    class       volScalarField;
    location    "4.5";
    object      rho;
}
// * * * * * * * * * * * * * * * * * * * * * * * * * * * * * * * * * * * * * //

dimensions      [1 -3 0 0 0 0 0];

internalField   nonuniform List<scalar> 
2222
(
1.379618478
1.379288248
1.37942786
1.380128489
1.380062423
1.379840823
1.38034542
1.380828091
1.381566713
1.381777528
1.381781346
1.38095271
1.380161109
1.379879071
1.379071887
1.378610071
1.378726653
1.379007035
1.379389752
1.38003945
1.380598604
1.380563827
1.380353192
1.380278769
1.38049342
1.380891036
1.381090834
1.38090362
1.380671869
1.380435503
1.380286385
1.379983182
1.379895652
1.379912729
1.377461499
1.378923774
1.380367316
1.380830457
1.380340196
1.379755657
1.379451207
1.379610154
1.38037902
1.381376563
1.381688831
1.381830339
1.381241751
1.379815533
1.379064126
1.37935052
1.379835386
1.380236038
1.380462879
1.38097097
1.381230445
1.38135916
1.381319766
1.38108731
1.380853747
1.380808341
1.38103818
1.381032034
1.38111204
1.381230333
1.381240664
1.381060663
1.380656126
1.379980761
1.376559532
1.377242532
1.378796271
1.380351435
1.380397527
1.379757237
1.378911778
1.378665644
1.379194694
1.380123325
1.381359285
1.382295337
1.381603757
1.380829814
1.380377851
1.380522921
1.380911326
1.381277524
1.381402406
1.38162669
1.381799588
1.382103844
1.381962397
1.381625154
1.381086369
1.380621962
1.380488458
1.380656605
1.381091029
1.381512415
1.38163263
1.381526594
1.381093938
1.380543603
1.376930737
1.376985247
1.377790958
1.379636634
1.380519386
1.380221156
1.379879328
1.379373253
1.378897256
1.379375836
1.380345712
1.381820049
1.38236267
1.382237561
1.381622138
1.381418444
1.381385845
1.381485719
1.381778405
1.381586927
1.381563906
1.381841843
1.381949445
1.381627233
1.381188186
1.380666597
1.380295526
1.380231451
1.380187524
1.380426659
1.381060846
1.381633595
1.382003814
1.38217307
1.377836641
1.377781596
1.378107404
1.379188823
1.380817228
1.381156451
1.381004316
1.380319544
1.37962455
1.379294405
1.379306011
1.38034094
1.382483794
1.383180219
1.382585022
1.381450835
1.381248446
1.381527028
1.381696237
1.381427286
1.381069678
1.381076186
1.381274695
1.381341187
1.381407504
1.381123439
1.380777461
1.380342217
1.379779601
1.379530685
1.379813033
1.38092243
1.382601385
1.383264583
1.379342786
1.379061812
1.378776708
1.379292705
1.380488635
1.381534712
1.381384819
1.380538117
1.380456903
1.379757629
1.379499394
1.379708466
1.380928255
1.382435667
1.382456705
1.382078126
1.381702901
1.381744742
1.381735794
1.381597031
1.38112676
1.380745414
1.380814795
1.381207841
1.3815795
1.381735507
1.381518201
1.380904612
1.380308007
1.379900068
1.379617333
1.379772342
1.380802996
1.382710544
1.380763732
1.379904326
1.379581019
1.379793231
1.380169177
1.381231638
1.381254257
1.381083929
1.380703984
1.380166976
1.379652575
1.379433151
1.37977765
1.381216847
1.382466392
1.382732108
1.382178679
1.381751077
1.381683203
1.381802767
1.381445658
1.380857906
1.380770748
1.381030209
1.381490144
1.381948025
1.381968084
1.38170185
1.381245113
1.3806326
1.379932512
1.379265265
1.379168904
1.380231919
1.38202893
1.381683935
1.381403291
1.380690885
1.380607462
1.381002845
1.381275939
1.381438892
1.380787562
1.380120173
1.379667664
1.379471659
1.379951079
1.380790573
1.382235031
1.382692576
1.382341079
1.381729918
1.381713625
1.381943284
1.381782459
1.381185468
1.380912744
1.380934535
1.381188338
1.3815813
1.38185208
1.38196728
1.381844218
1.381349019
1.380551545
1.37985537
1.379024803
1.378789397
1.383101593
1.383247514
1.382993747
1.382108741
1.381575771
1.38133707
1.381478421
1.38156738
1.381080861
1.380415864
1.380021632
1.379882375
1.380175194
1.380540923
1.381622734
1.382493488
1.382655071
1.382336533
1.382139964
1.382188575
1.382184584
1.381728244
1.381200775
1.3809221
1.380985978
1.381192903
1.381372721
1.381523688
1.381744816
1.381853331
1.381570702
1.380983497
1.38019862
1.379522985
1.382755342
1.383141118
1.383637972
1.383739881
1.383456045
1.382738993
1.381975412
1.381781853
1.381757163
1.381727653
1.381362658
1.380837998
1.380563726
1.380438054
1.380501047
1.381080507
1.382479952
1.383224931
1.383319411
1.382926041
1.382713021
1.382664823
1.382350075
1.381711892
1.381308458
1.38127684
1.381261633
1.381268716
1.381315332
1.38147659
1.381842904
1.382189646
1.382076957
1.381784442
1.38085658
1.380800093
1.381438738
1.382377485
1.383330115
1.384057577
1.383732111
1.382840374
1.382259598
1.382219072
1.382459473
1.382510056
1.381959633
1.381514925
1.38115479
1.380924643
1.381121583
1.38207815
1.383311654
1.38375922
1.383566093
1.383253137
1.383059464
1.38283843
1.382351597
1.381964409
1.381790054
1.381664568
1.381604547
1.381554539
1.381581569
1.381761601
1.382251337
1.382766417
1.382694942
1.3818024
1.380089924
1.380535827
1.381179195
1.38224692
1.383562703
1.384216245
1.383885956
1.383159966
1.383002766
1.383188869
1.383449599
1.383161411
1.382644305
1.382282812
1.381717343
1.38143961
1.381672368
1.38276474
1.383551312
1.383730479
1.383541335
1.383263141
1.383107467
1.382883744
1.382550424
1.382323588
1.382228076
1.382211155
1.382178596
1.382131998
1.382016639
1.382191108
1.382907749
1.383532506
1.383708555
1.380178349
1.380478711
1.3811845
1.381710339
1.382817503
1.384232547
1.38471635
1.384287775
1.383834816
1.3838145
1.384044758
1.384325484
1.383995215
1.383701746
1.382903681
1.382321764
1.382292427
1.382760612
1.383466422
1.383659853
1.383452748
1.383149811
1.382937028
1.383033372
1.382895302
1.382768836
1.382747572
1.38288293
1.382958719
1.382907108
1.382730055
1.382644113
1.383088449
1.384193612
1.385068252
1.380703778
1.380962772
1.381328533
1.381688947
1.38246532
1.383640801
1.38469048
1.384794529
1.384229522
1.384185872
1.384384259
1.384993443
1.385302581
1.384881885
1.384315295
1.383894027
1.383483884
1.383393865
1.383777854
1.383923936
1.383683826
1.383286432
1.382990643
1.383050652
1.383082204
1.383065612
1.3830722
1.383376037
1.383750662
1.383843732
1.383620364
1.383550082
1.3836207
1.384131219
1.385594299
1.381758805
1.381921511
1.381980754
1.382330237
1.38270609
1.383198583
1.384150014
1.384753094
1.384539994
1.384407813
1.384565094
1.385133646
1.386016744
1.386129811
1.385918182
1.38532854
1.38486108
1.384358102
1.384366458
1.384495826
1.384339271
1.383934411
1.383653534
1.383531083
1.383502896
1.383437867
1.383381095
1.383628255
1.384304145
1.384863718
1.384898788
1.384727272
1.384398775
1.384165932
1.385176036
1.383796374
1.383317719
1.383273531
1.383498641
1.383375569
1.383598059
1.384059906
1.384742114
1.385006211
1.384846065
1.384721294
1.385000006
1.385824644
1.386894234
1.387188286
1.386541085
1.385893436
1.385375576
1.385105623
1.385202275
1.385107211
1.38477782
1.384689609
1.384561441
1.38445756
1.38430444
1.384179292
1.38416745
1.384492929
1.385466342
1.386048375
1.385795492
1.385178323
1.384763263
1.384910458
1.386219971
1.385868714
1.385572007
1.38490712
1.384497889
1.384559924
1.384675624
1.385194641
1.385769134
1.385632081
1.385310974
1.385392371
1.385699445
1.386401273
1.387268384
1.387709275
1.387065114
1.386594438
1.386140278
1.385943189
1.385883954
1.385957739
1.386206591
1.386197108
1.386054292
1.385847722
1.38549919
1.385114952
1.385135685
1.385591129
1.386514088
1.386721722
1.386333525
1.385891516
1.38539789
1.387624155
1.38745559
1.387653349
1.387678327
1.387023669
1.385924772
1.38575759
1.386102307
1.386615319
1.386743839
1.386518205
1.386303193
1.386135881
1.386069144
1.386790863
1.38796381
1.388328648
1.387962868
1.387399809
1.386955579
1.387070402
1.387348893
1.387569554
1.387734441
1.387825005
1.387800377
1.387594542
1.386969362
1.386344684
1.38631292
1.386660436
1.387427738
1.387739255
1.387348961
1.386447681
1.388892846
1.388967315
1.389162973
1.389265217
1.389439064
1.389043441
1.387763246
1.387345518
1.387544727
1.387955439
1.387862428
1.387515338
1.387032663
1.386699142
1.386958772
1.387753947
1.388855055
1.389157332
1.388704825
1.388300118
1.388368489
1.388685029
1.389130183
1.389320658
1.389417534
1.38943277
1.389370697
1.389121529
1.388275086
1.387634006
1.387571868
1.387987496
1.388758478
1.388810616
1.387855232
1.389616185
1.390099016
1.390409238
1.390968074
1.39124822
1.391167007
1.390721976
1.389036463
1.388808064
1.389175894
1.38919097
1.388892324
1.388244677
1.387902073
1.38790463
1.38823684
1.389136845
1.389993766
1.390101698
1.389892264
1.389754803
1.389936107
1.390385878
1.390713277
1.391005024
1.391156263
1.39115754
1.390939075
1.390622419
1.38948744
1.389088727
1.389158072
1.389603073
1.390095987
1.389742335
1.389783597
1.390624617
1.391244346
1.392198706
1.393007152
1.393072307
1.392787226
1.3917962
1.390475271
1.390550896
1.390571226
1.390242997
1.38969951
1.389354973
1.389189158
1.38945108
1.390073645
1.390842205
1.391461735
1.391560606
1.391368844
1.391416241
1.391688307
1.391781154
1.392013852
1.392285509
1.392540777
1.392711115
1.392462543
1.392076654
1.3910555
1.390711324
1.390920444
1.391336309
1.391625715
1.390271265
1.39115833
1.391900539
1.392796418
1.393818586
1.394725454
1.394639747
1.394143464
1.392880171
1.392128537
1.392015253
1.392017815
1.392015449
1.391736556
1.391119297
1.391153007
1.391655076
1.392182734
1.392759836
1.39320373
1.393186515
1.393263555
1.393236273
1.393165014
1.393200959
1.393302782
1.393451395
1.393872321
1.39430606
1.394236697
1.393816577
1.393037433
1.392642987
1.392888938
1.393491603
1.3914126
1.392045693
1.392894299
1.393521821
1.394234081
1.395527636
1.396203584
1.396041198
1.395583198
1.394394663
1.3935888
1.393743597
1.394049076
1.394351379
1.3942724
1.393704856
1.39340599
1.39373045
1.3941436
1.394674086
1.395079595
1.395107764
1.394743349
1.394593232
1.394636171
1.394692536
1.394724137
1.394966636
1.395597669
1.396111407
1.396043024
1.395784797
1.395106011
1.394647159
1.39518158
1.392580251
1.392948796
1.393508292
1.394115858
1.394442119
1.395010402
1.396144433
1.397168502
1.397727514
1.397614704
1.397032012
1.396075179
1.395708301
1.395872818
1.396408745
1.396987141
1.396810446
1.396058798
1.395436768
1.395711407
1.396173586
1.396646356
1.396646732
1.396291028
1.396245999
1.396312588
1.396365269
1.396360477
1.396457343
1.39674084
1.397290631
1.397772892
1.39776152
1.397524922
1.396971269
1.396838255
1.394876673
1.394435629
1.39494463
1.395453552
1.395790187
1.396212148
1.396834781
1.397776734
1.398790947
1.39920774
1.398789306
1.398417111
1.397963094
1.397701671
1.397932909
1.398497919
1.398783721
1.398776909
1.398130636
1.397485983
1.397591466
1.397909452
1.398088842
1.398136207
1.398219462
1.398237458
1.398079478
1.397913284
1.397913601
1.397942516
1.398089518
1.398515546
1.399041138
1.399148964
1.399036264
1.398561556
1.399009449
1.397099388
1.396711396
1.396924462
1.39699015
1.397280968
1.397576793
1.398306093
1.399199736
1.400013448
1.400080787
1.400027983
1.399771749
1.399440047
1.399134207
1.39938741
1.39992751
1.400347769
1.400465638
1.400168721
1.399644372
1.39916908
1.399239646
1.399549175
1.39989939
1.400156779
1.400124028
1.399737629
1.39916801
1.398962391
1.398914958
1.398979488
1.399248896
1.399867365
1.40030339
1.400116427
1.402016286
1.400312363
1.399265471
1.399215636
1.398811221
1.398218393
1.398293745
1.398819287
1.399339639
1.400064945
1.400506671
1.400935392
1.400712386
1.400530351
1.400100053
1.399981193
1.400346844
1.401007217
1.401464582
1.401897544
1.401810349
1.4011729
1.40050308
1.400645809
1.401007975
1.401281063
1.401415251
1.401273477
1.400770898
1.399890771
1.399522015
1.399465085
1.399477991
1.399793231
1.400778477
1.401083992
1.403183133
1.402098109
1.400957639
1.400698108
1.400595351
1.400181078
1.399294064
1.399206177
1.399555027
1.400010706
1.400653028
1.400801126
1.401020404
1.400901184
1.40070213
1.400322332
1.400446877
1.40074013
1.401658379
1.402377334
1.402751934
1.402784037
1.402362569
1.401791538
1.401665505
1.401808353
1.401864457
1.401874608
1.40176235
1.401297998
1.400380307
1.399784506
1.399720773
1.399871934
1.400397343
1.401462929
1.403506361
1.402575003
1.4016975
1.401287813
1.401481059
1.401833933
1.401358675
1.400022258
1.399786893
1.400053139
1.400138446
1.400089509
1.400323411
1.400694836
1.400810628
1.400688777
1.400449202
1.400626586
1.401204625
1.402166126
1.402945125
1.403441007
1.403512829
1.402874307
1.402202553
1.401948689
1.401852559
1.401974579
1.402075128
1.402047837
1.401699197
1.400794395
1.399961016
1.399855306
1.400212656
1.401160122
1.403251186
1.402741425
1.402116846
1.401621549
1.401896491
1.402717883
1.402873506
1.402159773
1.400926417
1.400010956
1.399665578
1.399467692
1.399636375
1.400004538
1.400489212
1.400826538
1.400806006
1.400615055
1.400957816
1.401672343
1.402700181
1.403409342
1.403696565
1.403381395
1.40275837
1.40203137
1.401702798
1.40176071
1.401932708
1.402156212
1.402293972
1.402081541
1.401255628
1.400202088
1.399970954
1.400732736
1.402609426
1.402692758
1.402323755
1.402057633
1.402271256
1.402895427
1.403449919
1.40359932
1.403007297
1.40153995
1.399927902
1.399111989
1.399117654
1.399416128
1.399994524
1.400791161
1.401391686
1.4014324
1.401257426
1.401335846
1.401963299
1.402745392
1.403302635
1.403350063
1.402938328
1.402218398
1.401629763
1.401403038
1.401520604
1.401821256
1.402140147
1.402407566
1.402341192
1.401644402
1.400395952
1.400340431
1.401855279
1.402253858
1.402301436
1.402429032
1.402613829
1.403008838
1.403611877
1.403942852
1.403916778
1.40344797
1.401957746
1.400436581
1.39968927
1.399481519
1.399876451
1.400811502
1.401765958
1.402300958
1.402186972
1.401615245
1.401605437
1.401992962
1.402389821
1.402784362
1.402708875
1.402288373
1.401676505
1.401287777
1.401146209
1.401294347
1.401674142
1.402076677
1.402289004
1.40232589
1.401676048
1.40045347
1.401420063
1.401689159
1.402033387
1.402392689
1.40262769
1.402963664
1.403445914
1.403707834
1.403809691
1.40384461
1.403466576
1.402766896
1.40179441
1.401132708
1.400886147
1.401127661
1.401913738
1.402586315
1.402788251
1.402603417
1.40211207
1.401645305
1.401615608
1.401948702
1.402297099
1.402333217
1.401911044
1.401384433
1.401067136
1.401034269
1.401203519
1.401505467
1.401897449
1.402342331
1.40230784
1.40115317
1.402024637
1.401660097
1.40183163
1.402200744
1.402386142
1.402597555
1.40290442
1.403103375
1.403194112
1.40331992
1.403481716
1.403484281
1.403139707
1.402718041
1.402287871
1.40198635
1.402123801
1.402610332
1.402880335
1.403120948
1.402819022
1.402008038
1.401485577
1.401610338
1.402077874
1.402541647
1.402436311
1.401905223
1.401366472
1.401118694
1.401036024
1.400982359
1.401347126
1.401854233
1.402080332
1.401752034
1.402906622
1.402466558
1.402535102
1.402337066
1.402225106
1.402202139
1.402204305
1.402203492
1.402278997
1.40254697
1.403004307
1.403296177
1.403228958
1.403082377
1.402757194
1.402473781
1.402279414
1.402485385
1.402795725
1.4030788
1.402967604
1.402364497
1.401858699
1.401865626
1.402257984
1.402801766
1.402856493
1.402512484
1.401949555
1.401520725
1.401257506
1.400880918
1.400759196
1.400982669
1.401550766
1.401820654
1.403066973
1.402900175
1.403147752
1.402692858
1.402321552
1.401988925
1.401635655
1.401370631
1.401364239
1.40159017
1.402165872
1.402593684
1.402594342
1.402513343
1.402390954
1.402291546
1.402073165
1.402086341
1.402390514
1.402630927
1.402524245
1.402351554
1.402244168
1.402252218
1.402416977
1.402680407
1.40278773
1.402635248
1.402277815
1.40176776
1.401442179
1.401126691
1.400646041
1.40039784
1.400823689
1.40158111
1.402212739
1.402415132
1.402980069
1.402733611
1.402393508
1.401865021
1.401206068
1.400775609
1.400642729
1.400602254
1.400917677
1.401276186
1.401372829
1.401362653
1.401394542
1.401393755
1.401294329
1.401303418
1.401555734
1.401713876
1.401705819
1.401717018
1.401744147
1.401704494
1.401667169
1.401699412
1.401883625
1.40197875
1.401857416
1.401508249
1.401200309
1.401020454
1.400666711
1.400182282
1.400160428
1.400875769
1.400624743
1.400478812
1.400859567
1.401582827
1.401729205
1.401730335
1.401227114
1.400403075
1.399955238
1.39981755
1.399705616
1.399593291
1.39958912
1.399675605
1.399758871
1.399828112
1.399894777
1.399934918
1.399935302
1.400093403
1.400302993
1.40054214
1.400789072
1.400874397
1.400626293
1.400275843
1.400010952
1.400166767
1.400508279
1.400674271
1.400650371
1.400432835
1.400294663
1.400161446
1.399955325
1.399661087
1.399753219
1.398213321
1.398026962
1.398363668
1.399054315
1.399784075
1.400006163
1.399852006
1.399111538
1.398545951
1.398184354
1.398118063
1.397940872
1.397679403
1.397721167
1.397868192
1.398064897
1.398247484
1.398299271
1.398154588
1.397997322
1.398251683
1.398806897
1.399342066
1.399480089
1.399148906
1.398678154
1.398234265
1.398176101
1.398481758
1.398817578
1.398930543
1.398846442
1.398777715
1.398881784
1.399017145
1.398840092
1.398500313
1.395043933
1.395055924
1.395395887
1.395792392
1.396955899
1.397410052
1.397539832
1.397182939
1.396655162
1.395988236
1.395628101
1.395243449
1.395129174
1.395262478
1.395389331
1.395750169
1.39616804
1.396387464
1.396363858
1.395962704
1.395936708
1.396324092
1.396760911
1.396931719
1.396766895
1.396482368
1.396179294
1.396038221
1.396095616
1.39629288
1.396297049
1.396234206
1.396257202
1.396578558
1.396970539
1.397077016
1.396815905
1.391539983
1.39144334
1.391690921
1.391900632
1.39323639
1.394035864
1.394306779
1.394252729
1.393979545
1.393385634
1.392752177
1.391921004
1.391639779
1.39175898
1.391934632
1.392387051
1.393006791
1.393411231
1.393724134
1.393848396
1.393729354
1.393558015
1.393521327
1.393576491
1.393550329
1.3934383
1.393306956
1.393166929
1.393063018
1.393087723
1.392991578
1.392844872
1.392825472
1.393141219
1.393617857
1.39395513
1.394051201
1.388308174
1.387833555
1.387617407
1.387622079
1.388612553
1.3897258
1.390127566
1.390212281
1.390033738
1.389679548
1.389216935
1.388440504
1.387802949
1.387720276
1.387939677
1.388407658
1.388972976
1.389370811
1.389841739
1.390345481
1.390463539
1.390226526
1.389927249
1.38967922
1.389593688
1.38962862
1.389622398
1.389489985
1.38916942
1.388984872
1.388909524
1.388782999
1.388691886
1.388764711
1.389024468
1.38947297
1.389950867
1.384296816
1.38379348
1.383344876
1.383211698
1.383482202
1.38454922
1.385077365
1.385159193
1.384960893
1.384766153
1.384489807
1.384050568
1.38350256
1.383227168
1.383449109
1.383829408
1.384190224
1.384502766
1.384984081
1.385544001
1.385673661
1.385501219
1.385250155
1.384890209
1.384713265
1.384810198
1.384888459
1.384786251
1.38436118
1.383959754
1.383845767
1.383792745
1.383730007
1.383574605
1.383583114
1.384036577
1.384719755
1.378789715
1.37851878
1.378302112
1.378212229
1.378009087
1.37865708
1.379080407
1.379037912
1.378835704
1.378727785
1.378570067
1.378467755
1.378203595
1.377871833
1.378048065
1.378236399
1.378361137
1.37860043
1.379021133
1.379458087
1.379539766
1.379458368
1.379334265
1.379014222
1.378835314
1.378839571
1.378894749
1.378827244
1.378517889
1.378070903
1.377816525
1.377777385
1.377760203
1.377598338
1.377537105
1.377891971
1.378513521
1.371983565
1.371868002
1.371982538
1.371899458
1.371630271
1.371988816
1.372138701
1.371972588
1.371778248
1.371708402
1.37167481
1.371834115
1.371860709
1.371701429
1.371754703
1.371683997
1.371626769
1.371752799
1.372038017
1.372307268
1.372363978
1.372368269
1.372292581
1.372117621
1.372021043
1.371888861
1.371834187
1.371770991
1.371581935
1.371165779
1.37086589
1.370866872
1.370915981
1.37090509
1.370932749
1.371058081
1.37136628
1.363961152
1.364015947
1.364245963
1.36416027
1.364145768
1.364425079
1.364338627
1.36410145
1.363923252
1.363926122
1.364038615
1.364266084
1.364362312
1.364533765
1.364496922
1.36432714
1.364230574
1.364263312
1.36439071
1.364418277
1.364389587
1.364346123
1.364307567
1.364305939
1.36422482
1.36399518
1.363811748
1.363714021
1.363624122
1.363379904
1.363179441
1.36317272
1.363239272
1.363416593
1.363750264
1.363743032
1.363612647
1.354925801
1.355233867
1.355501755
1.355565671
1.355819504
1.356069217
1.355910932
1.35564551
1.355516068
1.355539882
1.355970425
1.3558987
1.356099811
1.356397473
1.35632003
1.356314817
1.356362733
1.356319643
1.356151569
1.355918812
1.355819834
1.355820797
1.355643453
1.355600002
1.355549362
1.355424186
1.355246084
1.35511929
1.355040512
1.355002247
1.354891701
1.354801882
1.354874121
1.35523236
1.355766472
1.355949542
1.355809926
1.345299283
1.345581513
1.345855939
1.34642804
1.346947138
1.347213724
1.347188078
1.346950507
1.346978736
1.347090708
1.346762972
1.347092085
1.347317782
1.347323127
1.347434121
1.347807653
1.347999157
1.34781371
1.34739114
1.34707124
1.346973925
1.346934677
1.346701538
1.346566838
1.34655585
1.346542801
1.346367654
1.346224274
1.346195585
1.346271782
1.346195326
1.346087103
1.346209383
1.346801531
1.34722385
1.347495037
1.347697894
1.336347405
1.336716901
1.336734774
1.337342738
1.337973439
1.338346839
1.338556945
1.338350415
1.338396781
1.338105411
1.337773736
1.33768016
1.337723409
1.337702195
1.338218908
1.338901678
1.339050266
1.338936643
1.338589228
1.338251002
1.338153449
1.337932712
1.337645507
1.337494008
1.337480401
1.337590513
1.337580452
1.337384878
1.337395891
1.337454427
1.337413636
1.337376165
1.337572037
1.337841322
1.338092645
1.338522609
1.33890364
1.327729301
1.328022529
1.328118592
1.328744822
1.329436495
1.329718768
1.32999125
1.329943434
1.329728346
1.32930539
1.328875058
1.328642054
1.328557658
1.328488203
1.328829165
1.329586906
1.330032135
1.330271215
1.330167029
1.329766416
1.329560782
1.329230779
1.328905909
1.328766833
1.328822628
1.329013189
1.329050679
1.329001183
1.328930271
1.328847773
1.328867186
1.328946084
1.329023954
1.328934811
1.328907694
1.329203324
1.330010919
1.320425198
1.320136011
1.320278066
1.320669187
1.321197533
1.321637276
1.32156063
1.32164495
1.321711154
1.321345019
1.320634201
1.320226456
1.31997783
1.319843582
1.31986808
1.320050841
1.32045015
1.321395016
1.322134934
1.322090582
1.321776349
1.32151983
1.321198942
1.320825451
1.320679486
1.320679079
1.320802472
1.320906498
1.320946593
1.320835971
1.320706953
1.320735465
1.320736832
1.320578734
1.320367882
1.32014626
1.32036982
1.321111237
1.313553966
1.3135304
1.313455068
1.314112331
1.314396645
1.314447366
1.314224048
1.31383321
1.31389938
1.313443889
1.313104178
1.312695125
1.312256962
1.311930051
1.311985279
1.312115189
1.31247514
1.313486838
1.314305966
1.314394398
1.314193605
1.313993779
1.313655063
1.31335169
1.313218149
1.31319696
1.313323101
1.313426155
1.313358727
1.313213499
1.313106496
1.313018013
1.312951489
1.312767137
1.312392373
1.312309871
1.312509128
1.313164836
1.307053522
1.307101181
1.307101184
1.307510645
1.307548897
1.307491641
1.307274795
1.306972641
1.306772779
1.306577238
1.30630836
1.306017082
1.305587375
1.30521971
1.30525388
1.305201053
1.305494663
1.306136984
1.307072499
1.307240868
1.307161382
1.307089956
1.306812171
1.306584192
1.306525581
1.306596174
1.306592182
1.306532588
1.306373891
1.306241448
1.306127025
1.30600669
1.305939173
1.305754058
1.305673887
1.305710472
1.305717256
1.30620268
1.301230782
1.301110825
1.30112203
1.301408147
1.301386172
1.301321434
1.301136308
1.300838207
1.300593226
1.300491861
1.300419347
1.300308734
1.299900502
1.299671437
1.299758505
1.299736653
1.299780234
1.299898204
1.300348011
1.301007702
1.301138608
1.301185521
1.301002186
1.300797107
1.300709984
1.300610967
1.300501658
1.300389409
1.300255812
1.300151018
1.300036722
1.29989248
1.299669787
1.299615984
1.299895097
1.300242349
1.300303311
1.300264651
1.296120833
1.295901121
1.295852266
1.295897726
1.295788228
1.295791108
1.2958437
1.295740895
1.29546142
1.295437647
1.295392561
1.295366023
1.295053961
1.295109518
1.295197083
1.295208743
1.294930505
1.294635634
1.294742628
1.295758417
1.296266777
1.296217494
1.296063678
1.295902042
1.295689666
1.295505342
1.29530273
1.295133793
1.29504404
1.294962465
1.294831627
1.294579685
1.294434125
1.294641516
1.295200137
1.295628567
1.295773063
1.295759453
1.29075191
1.29059078
1.290485286
1.290617819
1.290687751
1.290913579
1.291238606
1.291310935
1.291109181
1.291226324
1.291308812
1.291372506
1.291221674
1.291343692
1.291399754
1.291499002
1.291128404
1.290567858
1.290702551
1.291218728
1.291660313
1.291563457
1.29148047
1.291514714
1.29144572
1.291256197
1.291099418
1.290975127
1.290939523
1.290841829
1.290645971
1.29044573
1.290512372
1.29096813
1.291465693
1.291802345
1.291979367
1.291983608
1.286127186
1.286118708
1.286231597
1.286494778
1.286905182
1.287343477
1.287759773
1.287781044
1.287588723
1.287737944
1.28792978
1.288166783
1.288256964
1.288363947
1.288439264
1.288581297
1.288305858
1.287811169
1.287838475
1.288167675
1.288301656
1.288109622
1.28800283
1.28808937
1.288115844
1.288013538
1.287892011
1.287917475
1.287906629
1.287838722
1.287701409
1.287611666
1.287672184
1.28803094
1.288282463
1.288615601
1.289082668
1.289079655
1.283180476
1.283214504
1.283703804
1.283903331
1.284575379
1.28517303
1.285475817
1.285398784
1.285194322
1.285274865
1.285448794
1.285575976
1.285829034
1.285942455
1.286021744
1.286387996
1.286326373
1.286103228
1.285986973
1.285934399
1.285918542
1.285832439
1.285761178
1.28575187
1.285821029
1.28584456
1.285835587
1.285893705
1.285915981
1.285893642
1.285811199
1.285800518
1.286109299
1.286195931
1.286092194
1.286161884
1.286581897
1.287008922
1.281471697
1.281826992
1.28255061
1.282586858
1.28323383
1.283781648
1.284185515
1.28400381
1.28378821
1.283737832
1.283858659
1.283802259
1.284007129
1.284091241
1.284098334
1.284532181
1.285066639
1.285103783
1.28481028
1.28457133
1.284587355
1.284604154
1.284557623
1.284558581
1.284571963
1.284575816
1.284608356
1.284682848
1.284744481
1.284771942
1.284843764
1.285056499
1.28518622
1.284992174
1.284668799
1.284722474
1.284963081
1.285520531
1.280880532
1.281257799
1.281920827
1.282014567
1.282702741
1.282906308
1.283368292
1.283085437
1.283106874
1.283140299
1.283021839
1.282733106
1.282806687
1.282654334
1.282689134
1.283115
1.284127731
1.28451942
1.284293431
1.284098995
1.284154993
1.284237913
1.284158245
1.284061802
1.283987326
1.283924501
1.283954292
1.284060263
1.284164245
1.284282635
1.284522184
1.284668612
1.284588279
1.284152167
1.284025093
1.284076839
1.284285
1.284746127
1.281191228
1.281288607
1.281484412
1.282029236
1.282753109
1.282762038
1.282712687
1.282636449
1.28279739
1.282816574
1.282453955
1.282058079
1.281932397
1.281702774
1.281862133
1.282340774
1.283268434
1.284054855
1.284021823
1.284032738
1.284276157
1.284488672
1.284244472
1.28377238
1.2835788
1.283642153
1.283794591
1.283861304
1.283939643
1.28415101
1.28434292
1.28440861
1.28415781
1.284012239
1.28393632
1.283922845
1.284065636
1.284466611
1.28236717
1.282048769
1.282099847
1.282841061
1.28317454
1.283158001
1.282616185
1.282670911
1.282615621
1.28239337
1.281844274
1.281654329
1.281683247
1.281575175
1.281734706
1.282032548
1.282585757
1.283545823
1.283940105
1.284096335
1.284278597
1.284486001
1.28442601
)
;

boundaryField
{
    inlet
    {
        type            calculated;
        value           nonuniform 0();
    }
    outlet
    {
        type            calculated;
        value           nonuniform List<scalar> 
62
(
1.380025898
1.379891032
1.380079266
1.380625206
1.382230759
1.383316012
1.3825702
1.380002751
1.378691425
1.379559829
1.381006565
1.381932241
1.383775367
1.38512196
1.38557611
1.385047347
1.384810118
1.385373857
1.386459009
1.387878616
1.38980126
1.39162832
1.393490906
1.395166184
1.396840462
1.398604656
1.400134796
1.401071359
1.401446136
1.40108116
1.400669562
1.40030031
1.400488954
1.401218525
1.401806828
1.401847455
1.401568532
1.400836658
1.399733134
1.398534453
1.396873597
1.39407371
1.389927617
1.384673049
1.378472715
1.371346247
1.363627433
1.355875965
1.347750354
1.338921454
1.33000436
1.321033168
1.313116623
1.306185922
1.300287057
1.295827947
1.292020283
1.289116687
1.286997968
1.285449179
1.28472297
1.284444875
)
;
    }
    bottom
    {
        type            calculated;
        value           nonuniform 0();
    }
    top
    {
        type            calculated;
        value           nonuniform 0();
    }
    obstacle
    {
        type            calculated;
        value           nonuniform 0();
    }
    defaultFaces
    {
        type            empty;
    }
    procBoundary17to11
    {
        type            processor;
        value           nonuniform List<scalar> 
36
(
1.380315612
1.380467988
1.380497456
1.380571788
1.380508627
1.380755622
1.381517568
1.381945015
1.381576935
1.381332734
1.380752532
1.379839245
1.378953981
1.37863415
1.378796377
1.378613564
1.378552217
1.378690845
1.378968573
1.379723526
1.380378707
1.380265066
1.379857002
1.3798622
1.380102646
1.380357949
1.380488874
1.380694487
1.380547357
1.380106731
1.380106731
1.380305113
1.381253951
1.381128637
1.380765003
1.380765003
)
;
    }
    procBoundary17to16
    {
        type            processor;
        value           nonuniform List<scalar> 
64
(
1.376894878
1.376317299
1.377184018
1.378771147
1.379491438
1.38134235
1.382926934
1.383711434
1.383711434
1.38188217
1.380055715
1.379717146
1.380102067
1.380909239
1.382184202
1.384936993
1.386609766
1.388034477
1.388910984
1.388873701
1.38877611
1.389599148
1.390980244
1.390980244
1.393121722
1.397614231
1.401714371
1.403361938
1.403678808
1.403406154
1.403414478
1.402420208
1.401595587
1.401617107
1.40271263
1.40343015
1.403338983
1.402407606
1.402407606
1.401286672
1.398615587
1.395265176
1.39207366
1.388952204
1.384749714
1.379079148
1.371975897
1.363800824
1.354659439
1.345433008
1.336529944
1.328082221
1.328082221
1.321011589
1.314214122
1.307511219
1.301403198
1.295860591
1.290532459
1.286106268
1.283265023
1.281266564
1.280516902
1.280572197
)
;
    }
    procBoundary17to22
    {
        type            processor;
        value           uniform 1.281897994;
    }
    procBoundary17to23
    {