/*--------------------------------*- C++ -*----------------------------------*\
  =========                 |
  \\      /  F ield         | OpenFOAM: The Open Source CFD Toolbox
   \\    /   O peration     | Website:  https://openfoam.org
    \\  /    A nd           | Version:  7
     \\/     M anipulation  |
\*---------------------------------------------------------------------------*/
FoamFile
{
    version     2.0;
    format      ascii;
    class       volScalarField;
    location    "1";
    object      T;
}
// * * * * * * * * * * * * * * * * * * * * * * * * * * * * * * * * * * * * * //

dimensions      [0 0 0 1 0 0 0];

internalField   nonuniform List<scalar> 
2222
(
1.300100852
1.279091523
1.262940377
1.2460346
1.224651399
1.209451843
1.196707789
1.182804713
1.164819965
1.151189185
1.140624666
1.129696246
1.115740611
1.104860713
1.097121598
1.088753874
1.07832796
1.000000149
1.003961687
1.153455048
1.437761428
1.55843356
1.565160588
1.560954234
1.554982986
1.546761946
1.536631711
1.523728171
1.507370351
1.487450852
1.461209833
1.437602454
1.415931604
1.387414346
1.358920127
1.337609536
1.316501422
1.288959059
1.267592814
1.251604706
1.235103984
1.214047499
1.198540609
1.185970083
1.172428473
1.154927599
1.141072743
1.130724371
1.120163985
1.106905555
1.095915932
1.088273444
1.080059513
1.070054256
1.000005732
1.030657116
1.334695343
1.52417764
1.563381353
1.560110935
1.554115947
1.548430197
1.541368074
1.531807052
1.517357899
1.500069252
1.479237508
1.451659974
1.427174653
1.405090265
1.376390505
1.347378702
1.325748651
1.304704785
1.277375379
1.255716181
1.23990984
1.223790667
1.203195114
1.187402117
1.175039468
1.161822438
1.14491638
1.130864338
1.120739369
1.110505323
1.097825884
1.086818963
1.079293178
1.071257844
1.061637405
1.000188022
1.142878271
1.470519903
1.552733496
1.55362049
1.552169222
1.548156109
1.543912642
1.537796571
1.527633047
1.511696037
1.493018773
1.470704291
1.441515885
1.416084284
1.393462694
1.364484803
1.334965174
1.313170483
1.292312379
1.265516671
1.243564875
1.227954203
1.212191596
1.192172702
1.176052154
1.163864099
1.150994855
1.134650615
1.120418086
1.110544928
1.10065888
1.088696808
1.077691924
1.070309806
1.062462925
1.053272946
1.005361354
1.343301981
1.534337406
1.553869144
1.549875353
1.54764452
1.544868431
1.541449664
1.535346042
1.523594251
1.505767337
1.485221557
1.461328382
1.430641585
1.4042617
1.381131648
1.352010715
1.321944025
1.300096013
1.27958522
1.253405316
1.231253677
1.215901542
1.200534943
1.181136962
1.164709655
1.152691436
1.14014718
1.124482256
1.11015078
1.100477911
1.090878908
1.079468079
1.068485747
1.061134063
1.053414247
1.044538373
1.071590735
1.484189146
1.546751632
1.54464545
1.54246053
1.542193084
1.540873523
1.53805306
1.531408386
1.5188674
1.498914091
1.476630309
1.451349979
1.419283732
1.392040754
1.36841069
1.33917435
1.308609992
1.286797036
1.266666574
1.241334377
1.219020938
1.203874239
1.188797758
1.170055878
1.153345827
1.14146737
1.129258559
1.114203889
1.099763539
1.090341934
1.081062061
1.070309607
1.059426019
1.052205984
1.044689829
1.036169775
1.295675088
1.533797577
1.538053965
1.537773542
1.539027543
1.540215754
1.539373384
1.535984433
1.527780947
1.513340677
1.491168847
1.467182972
1.440570537
1.407336609
1.379282566
1.355156042
1.325937095
1.294950201
1.273216272
1.253464322
1.228933619
1.206567564
1.191723136
1.176975438
1.158818617
1.141873374
1.130124428
1.118202446
1.103822436
1.089430835
1.080235846
1.071256448
1.060946464
1.050086681
1.042791348
1.035342779
1.027118118
1.500447068
1.513745188
1.521327368
1.530390464
1.537642109
1.539368597
1.538453324
1.533933704
1.524047776
1.507350529
1.482518394
1.456730482
1.42890179
1.394605323
1.365822468
1.341282847
1.312127841
1.280715449
1.259110587
1.239810728
1.216287956
1.193896704
1.179284441
1.164840862
1.147389062
1.130309635
1.118682288
1.10708029
1.093332834
1.078948803
1.070036949
1.061385042
1.051643796
1.041078511
1.033843986
1.026495066
1.018495363
1.535437209
1.534209386
1.53286801
1.536024075
1.539833547
1.539632191
1.537412988
1.531165975
1.518763471
1.499280043
1.471892009
1.444755313
1.416202197
1.381129283
1.351684328
1.326929345
1.29808537
1.266397293
1.244926839
1.226066948
1.203496032
1.181195343
1.166862067
1.152787121
1.135940344
1.118697389
1.107120223
1.095778899
1.082656508
1.068463113
1.059689554
1.051264726
1.041890907
1.031368873
1.024063884
1.016893308
1.009254466
1.536973816
1.53769242
1.541342502
1.543146943
1.543217158
1.541298971
1.536619892
1.52695848
1.511667975
1.489664132
1.460083352
1.431888557
1.402817967
1.367136645
1.337263235
1.312342407
1.283826339
1.251921959
1.230645725
1.212254065
1.190715558
1.168502075
1.154353287
1.140614019
1.124447112
1.107188417
1.095682792
1.084643719
1.072175036
1.058160576
1.049616833
1.041532133
1.03257258
1.022327474
1.014977285
1.007827723
1.000346747
1.534135769
1.537777393
1.540932304
1.543286829
1.543405291
1.541492942
1.535301962
1.523038513
1.505187973
1.480658639
1.44879135
1.419171371
1.389141862
1.352600322
1.322138039
1.297221596
1.269278655
1.237471365
1.216454953
1.198488876
1.177784992
1.155757087
1.141844777
1.128486453
1.112934723
1.095655213
1.084186178
1.073442665
1.061488514
1.047639933
1.03908009
1.031193789
1.022634493
1.012616051
1.005315994
0.9984228668
0.9912870276
1.537758353
1.538257364
1.538792672
1.540672838
1.541398436
1.53958786
1.533101492
1.519168961
1.499064151
1.472141072
1.437938377
1.406515534
1.375123382
1.337338812
1.306213267
1.281264116
1.253987651
1.222539966
1.202034936
1.18462325
1.16481551
1.142959757
1.129152787
1.116111863
1.10117262
1.084014694
1.072761857
1.062426464
1.051122099
1.037741218
1.029315575
1.02160385
1.013276564
1.003493818
0.996158684
0.9893291666
0.9823651983
1.539596523
1.537869866
1.537917478
1.538428441
1.538412218
1.536445633
1.529510186
1.514182224
1.492270548
1.463015538
1.426561943
1.393478746
1.360732053
1.321681783
1.28965499
1.264666989
1.238115803
1.207249778
1.187283068
1.170548227
1.151573233
1.130028132
1.11636067
1.103673916
1.089320856
1.07237291
1.061103426
1.050929636
1.040039659
1.026897792
1.018512582
1.011185058
1.003353839
0.9939408486
0.9867794215
0.9802644829
0.9736174747
1.538111719
1.537827044
1.538004047
1.537764401
1.536864895
1.533717365
1.524927518
1.507121669
1.482876862
1.451593317
1.413297664
1.378954387
1.345597443
1.305839183
1.273115764
1.248147156
1.222299523
1.1920001
1.172475415
1.156445356
1.138486169
1.117393235
1.103737955
1.091277632
1.077455654
1.060847177
1.049792248
1.040061967
1.029685615
1.016956634
1.008608538
1.001408487
0.9937634425
0.9846371697
0.977521638
0.9711453783
0.9647010397
1.53723356
1.53813864
1.538054899
1.537477511
1.535990988
1.531271172
1.519728479
1.498254321
1.470981079
1.437272607
1.397352062
1.362649431
1.329489213
1.289941608
1.257164254
1.232359021
1.207119045
1.177426163
1.158039302
1.142501905
1.12538745
1.104807199
1.091214325
1.079080455
1.06568173
1.049131055
1.037803695
1.02826142
1.018413661
1.006155389
0.9980166895
0.991287165
0.9841089754
0.975375432
0.9684114925
0.9623153768
0.9561453575
1.537934307
1.53823175
1.537743028
1.537052161
1.534893759
1.528364608
1.513670236
1.488134425
1.457585751
1.421491207
1.379903258
1.344922583
1.312511887
1.273928107
1.241648183
1.217407226
1.192899771
1.163730923
1.144228132
1.128852319
1.112409655
1.09227985
1.078877545
1.067182434
1.054307468
1.038184783
1.026912252
1.017549298
1.008006748
0.9961528161
0.9880746381
0.9815210833
0.9745546613
0.9661513995
0.9592638791
0.9533102437
0.9473338561
1.538542376
1.537824223
1.537287677
1.53655588
1.533370177
1.524625476
1.506443763
1.476890069
1.443376588
1.40497572
1.361786348
1.326739081
1.29509075
1.257560507
1.226111473
1.202620699
1.178952265
1.150621821
1.131037189
1.115498767
1.099211361
1.079384507
1.065985022
1.054454429
1.041908329
1.025981173
1.014705155
1.005900076
0.9970330831
0.9857748222
0.9780131866
0.9719174756
0.9653113531
0.957249937
0.9504543958
0.9447325179
0.939001987
1.537959786
1.537226328
1.53687936
1.535742812
1.53124316
1.519903586
1.497998878
1.464494099
1.428349403
1.388256448
1.343804495
1.30844487
1.277200918
1.240668975
1.210006056
1.187514384
1.164833976
1.137366311
1.117753044
1.102072849
1.085819343
1.066382502
1.053178726
1.042177441
1.030155881
1.014530626
1.003389511
0.9948952407
0.9863662312
0.975606768
0.9679562146
0.9621203708
0.9558283584
0.9481476202
0.9414419678
0.935870956
0.9303629494
1.536995928
1.536772605
1.536427142
1.534740382
1.528532471
1.514125316
1.48819625
1.450945372
1.412618533
1.371037221
1.325563784
1.290216604
1.259255305
1.223218086
1.193038355
1.171413845
1.149845543
1.123541422
1.10410358
1.088468436
1.072025233
1.052255593
1.03846415
1.027804288
1.01656927
1.001640316
0.9911260011
0.9835455498
0.9757170009
0.9655599683
0.9581963354
0.9527386819
0.9467337674
0.9393377975
0.9327317421
0.9274769196
0.9222830229
1.53653781
1.536416275
1.535890924
1.533505475
1.525137755
1.507201687
1.477124078
1.43622066
1.395863187
1.353208343
1.307086262
1.271631202
1.240785335
1.205318457
1.17534049
1.154513354
1.133950675
1.108569338
1.089550884
1.074620327
1.05868053
1.03930257
1.025331081
1.014663205
1.003725719
0.9893317813
0.9792739438
0.9722475803
0.9648713779
0.9552993131
0.9480246329
0.9428012054
0.9371342791
0.9301550583
0.9237269252
0.9186539841
0.9137140168
1.536284775
1.536014832
1.535355575
1.532048314
1.520962308
1.499110488
1.464708539
1.420327171
1.378189109
1.334463477
1.287674741
1.252450862
1.221995784
1.186920933
1.157076025
1.136772301
1.117039737
1.092660033
1.074016397
1.059333795
1.043692939
1.02465837
1.010510488
1.000365561
0.990269024
0.9768012455
0.9675663488
0.9614204
0.9546170301
0.9455650622
0.9384759101
0.9334906304
0.9280687417
0.9213712612
0.9150504321
0.9103881044
0.9058222507
1.535823618
1.535785855
1.53498308
1.530328361
1.515936381
1.489763372
1.45090668
1.403082983
1.35920065
1.314601296
1.267397444
1.232364206
1.20218819
1.167899516
1.138306044
1.118580308
1.099478546
1.076347516
1.058507323
1.044771098
1.029996677
1.011612301
0.9975368955
0.9873586662
0.9774698372
0.9647063137
0.9558559616
0.9503075227
0.9440659259
0.935632468
0.9286170414
0.9237509076
0.9185699347
0.9122659113
0.9062603599
0.9017825792
0.8974391891
1.535409149
1.535757356
1.53473435
1.528320632
1.50998723
1.478967723
1.435357012
1.384184043
1.338733473
1.293274384
1.245666757
1.211043589
1.181652613
1.148262426
1.119064753
1.099787708
1.081038889
1.058271882
1.040235295
1.027520746
1.014273012
0.9972754164
0.9839617347
0.9745244794
0.9652566213
0.9532156155
0.9449366461
0.9400038921
0.9342075605
0.9262100816
0.9193867436
0.9147803743
0.9099198901
0.9040131251
0.8980414882
0.8938478164
0.8897698102
1.5352878
1.536430613
1.534751827
1.525965055
1.502802693
1.466267387
1.417589972
1.363097348
1.31626129
1.270275216
1.222601706
1.188557425
1.159866182
1.127484679
1.09889235
1.08098761
1.063405173
1.041504234
1.023796574
1.011613511
0.9992052411
0.9832634314
0.970688387
0.9617987155
0.9529324446
0.9416758379
0.9336465106
0.9291634474
0.9238547921
0.9164693461
0.9097886937
0.9052015759
0.9004801262
0.8948061109
0.8892129112
0.8854405785
0.8817643919
1.5360069
1.537613589
1.535085379
1.522993052
1.493713559
1.450855285
1.396926291
1.339462943
1.291573636
1.245290658
1.197788064
1.164652877
1.137238567
1.105838641
1.077882417
1.059918779
1.042645469
1.021723405
1.004732812
0.9940903963
0.9833382058
0.9689075293
0.9576109315
0.9497455633
0.9414506835
0.9307607333
0.9230807666
0.9190075874
0.9140996263
0.9070729327
0.9004802675
0.896363114
0.8921444121
0.8870983205
0.8818065902
0.8781136253
0.8743943583
1.537799771
1.53943505
1.535386208
1.518517238
1.481644542
1.431925899
1.372815606
1.312732288
1.264230016
1.218382427
1.171519041
1.139589612
1.113092693
1.083858292
1.05779584
1.040684267
1.023836125
1.003551686
0.9870923663
0.9770666343
0.9670867408
0.9537752602
0.943477533
0.9365849129
0.9290634634
0.9192702921
0.9119976707
0.908162891
0.9034751135
0.8968133242
0.8903825864
0.8863448686
0.8824701451
0.8776791937
0.8724338906
0.8694088761
0.8663839205
1.540831518
1.541723778
1.535323035
1.511422522
1.46542453
1.408535205
1.344795657
1.282920684
1.234518746
1.18943905
1.14370868
1.113118515
1.087427307
1.059049122
1.032985888
1.017122102
1.002173902
0.9837131456
0.9685790373
0.9602552193
0.9516125176
0.9394344406
0.930107287
0.9241970849
0.9174598908
0.9083768236
0.9015061277
0.8979778656
0.8935516597
0.8871877386
0.8808192299
0.8770344723
0.8734539422
0.8689820248
0.8642034955
0.8618855637
0.8592352248
1.544784617
1.543997198
1.532847801
1.499758175
1.443827147
1.380387355
1.312792622
1.249554013
1.202199142
1.158462075
1.113996534
1.086156194
1.063059459
1.036373736
1.011036534
0.9958444851
0.9817683527
0.9642758248
0.9499937901
0.9427132431
0.9350929849
0.9240753712
0.9154585192
0.9104139714
0.9045658492
0.8964276514
0.8902867862
0.8869944051
0.8826285698
0.876490509
0.8702574291
0.8667404487
0.8638329747
0.8595609474
0.8552129218
0.8537551116
0.8516334292
1.548582934
1.545438174
1.527162514
1.482803153
1.416509039
1.34710476
1.276570928
1.21313252
1.167980657
1.125709401
1.082400114
1.055098939
1.033463112
1.009044334
0.9855567105
0.972908996
0.9610904237
0.945249164
0.9325030412
0.9267465022
0.9200403679
0.9099073112
0.9019234615
0.8976188988
0.8924970798
0.8850902905
0.8793416892
0.8765429952
0.8726527061
0.8670165183
0.8606497442
0.856987729
0.8541941271
0.8496459416
0.8453961846
0.844662252
0.8431628856
1.55159328
1.54549165
1.516817789
1.459061324
1.382426311
1.30858935
1.236507172
1.173783392
1.130651479
1.092336851
1.053128907
1.02775828
1.006774829
0.9833503795
0.961370436
0.9503241258
0.9399139967
0.9251965739
0.9137000119
0.9094640025
0.9041060569
0.8951832875
0.8875354721
0.8838664208
0.8795556364
0.8722404253
0.8672965616
0.8652895358
0.8619535502
0.8565911263
0.850881272
0.8473371975
0.8441683533
0.8398406522
0.8362799099
0.8360883507
0.8353460765
1.553191014
1.541040115
1.49923648
1.427227651
1.341701156
1.264657953
1.192355783
1.132637428
1.090348051
1.052828475
1.015694172
0.9940686689
0.9771131344
0.9569878872
0.937620629
0.9295253723
0.9210316291
0.9070038647
0.8965692869
0.8937900882
0.8894524395
0.8814379448
0.8743929702
0.8713887408
0.8675981222
0.8599143383
0.8556191453
0.8545153458
0.8517345116
0.8467726142
0.8408996102
0.8382175624
0.8358376046
0.8316100552
0.8278549425
0.8273420939
0.8266637271
1.553597207
1.531936549
1.47389596
1.386550071
1.294156646
1.215701758
1.144801358
1.090191639
1.053612449
1.018974726
0.9829145014
0.9632837067
0.9487873602
0.9307786241
0.9132912578
0.9071295153
0.9003833387
0.8872015506
0.8782093749
0.8768690654
0.8736733001
0.8668699876
0.8605971562
0.8580437368
0.8543874946
0.8473403269
0.8432092055
0.8424637103
0.840659605
0.836620559
0.8316667538
0.8290149208
0.8261036749
0.8213241683
0.8182968997
0.8183356685
0.8179912955
1.551590909
1.515584602
1.438428482
1.336430339
1.239418037
1.163471577
1.09322801
1.038596257
1.006922097
0.9785406333
0.9465027801
0.9331391995
0.9233346583
0.9081636034
0.8930362379
0.8889049392
0.8831307849
0.870517983
0.8617536362
0.8612697395
0.8590509926
0.853186888
0.847465262
0.8456116808
0.8424948977
0.8362439275
0.831301633
0.8305061963
0.8291168501
0.8257519566
0.8219224642
0.8198573714
0.8172736595
0.8134965212
0.8096045493
0.809297788
0.8090528531
1.546063098
1.489280202
1.391576705
1.276630776
1.176350739
1.10970773
1.047828365
0.9970419244
0.968154298
0.9412412977
0.9105559434
0.903313335
0.8966715188
0.8832319484
0.8702371482
0.8681274059
0.8635244857
0.8528356564
0.844706853
0.8441026779
0.8425895387
0.8371318369
0.8330304141
0.8319789876
0.829251839
0.8236620494
0.8194011633
0.8184409256
0.8173910404
0.8145111036
0.8113785684
0.8106760661
0.8092779053
0.8052193187
0.8014072388
0.8009876982
0.8010033067
1.534467999
1.450448719
1.331070067
1.209054022
1.107501025
1.040938068
0.9878249876
0.9474974923
0.9301469767
0.9075411388
0.8808949315
0.8793640556
0.8749939181
0.861665867
0.8508214666
0.8505760106
0.8471526816
0.8377543465
0.8296159256
0.8283962814
0.8269081398
0.8212853695
0.8187388483
0.8189340981
0.8172950196
0.8130093512
0.8090513274
0.807558834
0.8063593864
0.8029404037
0.8007798218
0.800944239
0.7999227146
0.7974914203
0.7946807495
0.7940162282
0.7939046025
1.51392801
1.397162082
1.251959641
1.137116064
1.047652257
0.9884327193
0.9340566992
0.9072218361
0.8947662605
0.8746294532
0.8539770451
0.8518960383
0.8486560108
0.8360837493
0.8285206918
0.8296308017
0.8276173758
0.8199657606
0.8126848568
0.8116365484
0.8102998662
0.8051523643
0.803296506
0.8039398551
0.8032345108
0.8003424131
0.7969169302
0.7954627394
0.7944107958
0.7921026591
0.7915979713
0.7917202096
0.7910945293
0.7886886667
0.7847659861
0.7824724012
0.7820132991
1.482578392
1.323724413
1.148437152
1.017876591
0.9630907685
0.9368703096
0.8945276537
0.8810475999
0.8716421902
0.8527730502
0.8339882436
0.8308686017
0.8269197217
0.8148648642
0.8087817878
0.8102814205
0.8094150856
0.8039519435
0.7984601942
0.7976825878
0.7959100217
0.7911290507
0.7899567388
0.7907003613
0.790415881
0.7889446788
0.786654666
0.786288003
0.7855922605
0.7832127786
0.7821393456
0.781967635
0.7812232325
0.7797246242
0.7787181526
0.7783332873
0.7782262717
1.43505851
1.200440154
1.038119985
0.9094825858
0.8835505064
0.8756306035
0.8521007152
0.8419281864
0.8357197089
0.8203261963
0.8076752655
0.8065828046
0.8031826951
0.7921248485
0.7880173352
0.789436223
0.7891222293
0.7840448523
0.781386584
0.7822381061
0.7811644959
0.7771674178
0.776687217
0.7780565587
0.7785457382
0.7766623859
0.7761389004
0.7765228654
0.7751583221
0.7727608157
0.7727486464
0.7739950497
0.7743021012
0.7733543089
0.7728855708
0.773054618
0.772556066
1.381118554
0.8762357574
0.7805870677
0.7829102986
0.807266897
0.8151210471
0.8088754344
0.8054034379
0.8028439437
0.7959465561
0.7915897569
0.7905530526
0.7881148366
0.7802599978
0.7760743389
0.776684211
0.7767573717
0.7735719356
0.7716362561
0.7719720012
0.7713681985
0.7693843864
0.7686561685
0.7690941659
0.7696740479
0.7691792521
0.7682416124
0.7681889401
0.768580825
0.7696417367
0.7700942584
0.7700957471
0.7697077626
0.7696718403
0.7686634044
0.7679417532
0.7675922881
1.014653723
0.9647714963
0.8109630353
0.7479881888
0.7780665172
0.7923131939
0.7893265798
0.7891734103
0.789735467
0.7872159913
0.7858864353
0.7864624883
0.7836183514
0.7758429337
0.7722047599
0.7726781678
0.7728488256
0.7697349463
0.7683734202
0.7685907575
0.7680598296
0.7657497179
0.7666081924
0.7663590327
0.7665352345
0.766614208
0.765658162
0.7662344409
0.7681783869
0.7680854092
0.7675587429
0.7680765508
0.7687502826
0.7676678752
0.7669327811
0.7658908006
0.9927676617
0.98641633
0.8322291276
0.7493400655
0.7702603217
0.7838668949
0.7816420384
0.7843221348
0.7864660338
0.7855445434
0.7848491774
0.7854472403
0.782142385
0.7743450034
0.7713070145
0.7717893153
0.7718958422
0.7688509348
0.767687352
0.7678306079
0.7672434278
0.7653300019
0.7660209377
0.7658246608
0.7661242221
0.7662048061
0.7653742248
0.7663155766
0.7677505279
0.7679507648
0.7674155976
0.7681870968
0.7686342744
0.7675972788
0.7669272232
0.765938999
0.9947125156
0.9769812473
0.84980133
0.7548272784
0.766657686
0.7772490832
0.7774238948
0.7808660125
0.7834862505
0.7839445798
0.784119762
0.7845777342
0.7808985249
0.7733974584
0.77074302
0.7711914421
0.7709337102
0.7679511651
0.7670092402
0.7670561073
0.7663234192
0.7647778784
0.7657305145
0.7655104221
0.765481115
0.7658426915
0.7654579106
0.7665816717
0.7674488323
0.7674564801
0.767304675
0.7683449044
0.7685080034
0.7674221974
0.766948384
0.7662804547
1.013515323
0.977760467
0.856122076
0.7574878816
0.7630061391
0.770912817
0.7735911695
0.7786519385
0.7818594363
0.78349979
0.7839245799
0.7837119494
0.7793799996
0.7718878179
0.7696449685
0.7704074716
0.7699935174
0.7670709174
0.7665690846
0.766654115
0.7656369579
0.7641028718
0.7653399871
0.7651302405
0.7653592888
0.7659435797
0.7657739092
0.7670565774
0.7675523541
0.7674257719
0.76732381
0.7686854071
0.7684635524
0.7674028592
0.7671459466
0.7678434959
1.045306894
0.9751188858
0.863148371
0.7619254618
0.7573048862
0.763441779
0.7686508608
0.775752756
0.780316913
0.7826784096
0.7828408602
0.7825355955
0.7772653617
0.7708037368
0.7690939592
0.7698156285
0.7692163505
0.7669471548
0.766553278
0.7662707022
0.7650764466
0.7637436149
0.7651143434
0.7652940259
0.7654405512
0.7657887687
0.7662006228
0.7676142024
0.7677016698
0.7674573238
0.7674528185
0.7689848119
0.7689104924
0.767728197
0.7675690057
0.774401407
1.049264185
0.9662265461
0.8696035525
0.7658542284
0.7528873007
0.7571973155
0.764807374
0.7726374322
0.7782247838
0.7812976234
0.782369772
0.7818849229
0.7764581775
0.7707016694
0.7690423864
0.7691475705
0.7686856591
0.7668371403
0.7665813419
0.7661015956
0.7646003638
0.7636824124
0.7651881726
0.7655660766
0.7654702891
0.7658072723
0.7667064823
0.7678219216
0.7680210445
0.7678345526
0.7680708576
0.7696226037
0.7690610743
0.7683034638
0.7685504024
0.8070294127
1.047347595
0.9621435386
0.8779111123
0.7711961917
0.7512687736
0.7541654711
0.7626485284
0.7717297296
0.7775526651
0.7811691995
0.7825529663
0.7816915559
0.776077338
0.7708656118
0.7693455358
0.7682406294
0.7681799168
0.7670162432
0.766527066
0.7659006895
0.7642867448
0.7637548714
0.7653758966
0.765928607
0.7654896909
0.7660470811
0.7672877682
0.7681028749
0.7682118186
0.7681996736
0.7690666855
0.7702357353
0.7696432516
0.7686748456
0.7699241646
0.880292916
1.031194168
0.9633042927
0.8853886718
0.7743348997
0.749430845
0.7515825838
0.7613148694
0.771602778
0.7778182857
0.7815820591
0.782691972
0.7813698681
0.7756422213
0.770714373
0.7692272185
0.7682872246
0.7678615269
0.7669718042
0.7664772208
0.7658949698
0.764363041
0.7640505019
0.7657568533
0.7665002063
0.765927998
0.7665783521
0.7679552612
0.7684872758
0.7683756866
0.7682348896
0.7697247558
0.7710856846
0.7704408798
0.7695403189
0.775876085
0.9484176508
0.998809482
0.9693684674
0.8852812884
0.7763409652
0.74639445
0.7488596495
0.7603307395
0.7716547254
0.7780823712
0.7815677002
0.7823950387
0.780453918
0.7750094103
0.7707574168
0.7689881767
0.7682613558
0.7673769432
0.767002365
0.7664946846
0.7658738444
0.7645859781
0.7645777219
0.766453455
0.7674787464
0.7666108671
0.7673987137
0.7689252016
0.7692558752
0.7688942491
0.7684471703
0.770324262
0.7715317926
0.7706130102
0.7703214806
0.8115911015
1.023877126
0.9963067602
0.9772421388
0.8829331093
0.7770860349
0.7428102776
0.7459873247
0.7585378471
0.7713287799
0.778194358
0.7815286806
0.7818671207
0.7795625865
0.7744778865
0.7708971897
0.7690280631
0.7681001876
0.7674649962
0.7672282919
0.7667281719
0.766133164
0.7649624313
0.7652126333
0.7671568029
0.7682326415
0.7675540283
0.7685006588
0.7699132261
0.7700802443
0.769731139
0.7691818592
0.7714200899
0.7720429373
0.7712988098
0.7719739741
0.8681129564
0.996877377
0.9825414319
0.8814177296
0.7777577653
0.7418568773
0.7440501404
0.7564526904
0.7705441832
0.7779976752
0.781711101
0.7819192862
0.7794876507
0.7745885614
0.7712583026
0.7692307719
0.7683920538
0.7680818231
0.7677778468
0.7672932734
0.7666934976
0.7655819348
0.765779793
0.7675308747
0.7685261206
0.7681414435
0.7691515986
0.7704257041
0.7702045083
0.7699622025
0.7702238472
0.7720980029
0.7729225273
0.7720780811
0.7799833187
0.9565725767
0.9967784556
0.9822821928
0.8816308864
0.7797577024
0.7430701886
0.7435997881
0.7556501238
0.7703230934
0.7781453517
0.7821010005
0.7822756014
0.7797446044
0.7749317085
0.7718079049
0.7696831775
0.7688090904
0.7685017557
0.7683046119
0.7676586312
0.7670184194
0.7662461781
0.7664821925
0.7682244988
0.7691241918
0.7688503606
0.7699441043
0.771175887
0.7702309613
0.7699662311
0.7707519016
0.772785511
0.7734533297
0.7729882537
0.8087080992
1.035214937
0.994184209
0.9756155584
0.8825572589
0.7822220166
0.7441223902
0.7436232118
0.7556789795
0.7707841459
0.7790048997
0.7829187631
0.7831020643
0.7800951159
0.7753252509
0.77248669
0.7704537766
0.7695094358
0.7689133783
0.7687573531
0.7681149839
0.7673125341
0.7666823831
0.7673579095
0.768968481
0.7700306445
0.770280821
0.7713601487
0.7725105043
0.7707585633
0.7700448119
0.771324481
0.7732812245
0.7738451357
0.7748960016
0.8768973333
1.061962891
0.993230051
0.97053424
0.8828188747
0.7832504257
0.7444090781
0.7441240227
0.7562008038
0.7719457
0.780183799
0.7839315489
0.7836803465
0.7803626185
0.7758892772
0.7732325598
0.771376537
0.7704072009
0.7696536899
0.7696022967
0.7691212387
0.7680364728
0.7673368742
0.7679006189
0.7692317436
0.7703398916
0.7712967402
0.7720339293
0.7730723679
0.7718367143
0.7706696725
0.7723815133
0.7737484083
0.774115326
0.7806249238
0.9512659748
1.08330325
0.9977653155
0.9676757566
0.8813469633
0.7832709861
0.7444663164
0.7443290535
0.7570942563
0.7732250088
0.7812557665
0.784331647
0.7839322324
0.7803957987
0.7763839353
0.7737974427
0.7718133362
0.7708403798
0.770243999
0.7702587155
0.7699137907
0.7692939311
0.7686320845
0.7687638853
0.7697208997
0.7705123258
0.7714070166
0.7720956727
0.7731559391
0.7723139381
0.7717395532
0.7734941336
0.7742231751
0.7747201993
0.8121377363
1.009466204
1.110598489
1.019312416
0.9663077176
0.8789896221
0.7829679594
0.7441277741
0.744499753
0.7575035575
0.7739923373
0.7819380408
0.7846393101
0.7838531488
0.7805864232
0.7767989228
0.7741496837
0.7720522267
0.7710788245
0.7705430225
0.770517977
0.7702153166
0.7697847191
0.7696537908
0.7703912849
0.7712561628
0.7714085373
0.7716565868
0.7722183438
0.7728561861
0.7724833551
0.7723860056
0.7741974359
0.774602481
0.7754641403
0.8667804563
1.069530331
1.118775729
1.029677768
0.9665911887
0.8783700999
0.7833275074
0.7443049899
0.7446509214
0.757686502
0.7746335247
0.7825554025
0.7849808528
0.7839445917
0.7806002117
0.7772954856
0.7746271441
0.7725421982
0.7713629802
0.7708659482
0.7709334679
0.7706508286
0.7700296445
0.7699588722
0.7710860661
0.7724805768
0.7731594125
0.7726145963
0.7729017218
0.772939111
0.7723582607
0.7729828075
0.7745328138
0.7751587856
0.7827158216
0.941865976
1.100948563
1.119109832
1.029271947
0.9679781441
0.8788731951
0.7853142815
0.7456007101
0.745038406
0.7581303918
0.7751488625
0.7832104209
0.7853608798
0.7843488895
0.7812306506
0.7780345964
0.7755631956
0.7737324661
0.7721785115
0.7716216134
0.7718857851
0.7716762527
0.7706287534
0.7703156332
0.7713629193
0.772645607
0.7736424883
0.7739335591
0.7737639738
0.7734928484
0.7727322434
0.7738671494
0.7749323324
0.7754188688
0.8087889823
1.02683133
1.107946283
1.026661175
0.9676568441
0.8808361555
0.7880445036
0.7471224951
0.7461141855
0.7591790424
0.7760052227
0.7837783576
0.7857986268
0.7850868746
0.7821368236
0.778914699
0.7767721993
0.7750325948
0.773459021
0.7728233818
0.7730735727
0.7728322058
0.7718605711
0.7712229208
0.7719232758
0.772945933
0.7737806927
0.7742310206
0.7740840173
0.7740494117
0.7735630826
0.7748494033
0.7751972141
0.7766589713
0.8739450556
1.066357731
1.104127682
1.017536688
0.9677850743
0.8836955738
0.7903400411
0.7489230711
0.7480588232
0.7608294884
0.7769744961
0.7845239579
0.7865110431
0.7855537765
0.7828239488
0.7795861156
0.7772132035
0.7754634777
0.7740145368
0.773253512
0.7734635272
0.7732846981
0.772732089
0.772648974
0.773009524
0.7734091302
0.7737583286
0.7742823836
0.774185869
0.7743357012
0.7741464141
0.7752882916
0.7756359651
0.782996659
0.9523930833
1.081258268
1.10706319
0.9946036652
0.9719475904
0.8844650984
0.7911737436
0.7505308615
0.7498379383
0.7618695623
0.7775667707
0.7852375011
0.7867559893
0.7855991771
0.78312938
0.7800730072
0.7774167164
0.7754357604
0.7741659776
0.7733154299
0.773470571
0.7734110884
0.7730677501
0.7733549646
0.7740446502
0.7739195538
0.7739514407
0.774099167
0.7740147756
0.7743595646
0.7743671016
0.7754359798
0.776020448
0.8159511101
1.009582676
1.102585564
1.114163562
0.9877235287
0.9752865538
0.8854292561
0.7909556267
0.7520076964
0.7509149668
0.7625622122
0.777996671
0.7854752682
0.7867776517
0.7854539247
0.7832064551
0.7806295424
0.7778192375
0.7756461122
0.7740530095
0.7734903891
0.7737069939
0.7737459374
0.7733333446
0.7735845684
0.7744564446
0.7744003768
0.7743741572
0.774293853
0.7740467453
0.7744208802
0.7746354682
0.7753636884
0.7768823563
0.871550273
1.065170293
1.117148952
1.118164584
0.9860127871
0.9747610218
0.883509623
0.7894619064
0.7534087779
0.7519666298
0.7631584538
0.7783057426
0.7856918761
0.7869248498
0.785588802
0.7835245233
0.7814298924
0.7787623046
0.776558301
0.7744644211
0.7740652934
0.774469418
0.774649404
0.7739402192
0.7738426888
0.7745546501
0.7745802581
0.7747354843
0.7749225697
)
;

boundaryField
{
    inlet
    {
        type            fixedValue;
        value           nonuniform 0();
    }
    outlet
    {
        type            inletOutlet;
        inletValue      nonuniform 0();
        value           nonuniform 0();
    }
    bottom
    {
        type            slip;
    }
    top
    {
        type            slip;
    }
    obstacle
    {
        type            zeroGradient;
    }
    defaultFaces
    {
        type            empty;
    }
    procBoundary9to3
    {
        type            processor;
        value           nonuniform List<scalar> 
38
(
1.310957625
1.290247862
1.274032312
1.25671758
1.235059469
1.220135169
1.207215964
1.192944611
1.174502719
1.161156039
1.150396127
1.139098542
1.124543858
1.113719798
1.105880679
1.097348881
1.086480759
1.000000003
1.000376593
1.037557542
1.296471447
1.528653082
1.5584693
1.558764497
1.556284042
1.550995811
1.542276231
1.530674221
1.514910725
1.495627689
1.470617554
1.447836562
1.42651439
1.398191373
1.370099306
1.349106429
1.327894325
1.327894325
)
;
    }
    procBoundary9to4
    {
        type            processor;
        value           nonuniform List<scalar> 9(1.068555555 1.06031509 1.051937136 1.04373871 1.035040495 1.026840527 1.017920183 1.009452638 1.000452298);
    }
    procBoundary9to8
    {
        type            processor;
        value           nonuniform List<scalar> 10(1 1 0.9999999982 0.9999984633 0.9998300032 0.9978314565 1.035281609 1.34893971 1.525648997 1.53441317);
    }
    procBoundary9to10
    {
        type            processor;