/*--------------------------------*- C++ -*----------------------------------*\
  =========                 |
  \\      /  F ield         | OpenFOAM: The Open Source CFD Toolbox
   \\    /   O peration     | Website:  https://openfoam.org
    \\  /    A nd           | Version:  7
     \\/     M anipulation  |
\*---------------------------------------------------------------------------*/
FoamFile
{
    version     2.0;
    format      ascii;
    class       volScalarField;
    location    "1.7";
    object      rho;
}
// * * * * * * * * * * * * * * * * * * * * * * * * * * * * * * * * * * * * * //

dimensions      [1 -3 0 0 0 0 0];

internalField   nonuniform List<scalar> 
22
(
1.04506268
1.212002937
1.02564693
1.027887841
1.153331042
1.55979874
1.206405577
1.142769932
1.187718485
1.664551296
1.520187996
1.294616869
1.196691141
1.629063699
1.618553116
1.517998113
1.360754289
1.490222723
1.577076059
1.572386779
1.522645707
1.413867513
)
;

boundaryField
{
    inlet
    {
        type            calculated;
        value           nonuniform 0();
    }
    outlet
    {
        type            calculated;
        value           nonuniform 0();
    }
    bottom
    {
        type            calculated;
        value           nonuniform 0();
    }
    top
    {
        type            calculated;
        value           nonuniform 0();
    }
    obstacle
    {
        type            calculated;
        value           uniform 1.02564693;
    }
    defaultFaces
    {
        type            empty;
    }
    procBoundary27to20
    {
        type            processor;
        value           nonuniform List<scalar> 2(1.930205964 1.665293492);
    }
    procBoundary27to21
    {
        type            processor;
        value           nonuniform List<scalar> 4(1.07063493 1.24784065 0.9962800059 0.9962800059);
    }
    procBoundary27to26
    {
        type            processor;
        value           nonuniform List<scalar> 3(1.479852394 1.406520073 1.400090645);
    }
    procBoundary27to28
    {
        type            processor;
        value           nonuniform List<scalar> 6(1.342134189 1.307927835 1.307927835 1.273904085 1.212739147 1.283642933);
    }
    procBoundary27to33
    {
        type            processor;
        value           nonuniform List<scalar> 5(1.493562793 1.567004421 1.562012031 1.493562793 1.40088213);
    }
    procBoundary27to34
    {
        type            processor;
        value           uniform 1.402210346;
    }
}


// ************************************************************************* //
