/*--------------------------------*- C++ -*----------------------------------*\
  =========                 |
  \\      /  F ield         | OpenFOAM: The Open Source CFD Toolbox
   \\    /   O peration     | Website:  https://openfoam.org
    \\  /    A nd           | Version:  7
     \\/     M anipulation  |
\*---------------------------------------------------------------------------*/
FoamFile
{
    version     2.0;
    format      ascii;
    class       volVectorField;
    location    "4.8";
    object      U;
}
// * * * * * * * * * * * * * * * * * * * * * * * * * * * * * * * * * * * * * //

dimensions      [0 1 -1 0 0 0 0];

internalField   nonuniform List<vector> 
2222
(
(3 1.416753684e-15 0)
(3 8.264521016e-16 0)
(3 5.159480266e-16 0)
(3 3.961922768e-16 0)
(3 1.007605633e-15 0)
(3 1.707290549e-15 0)
(3 2.451294578e-15 0)
(3 1.994014398e-15 0)
(3 3.471409115e-15 0)
(3 4.833054103e-15 0)
(3 3.544153052e-15 0)
(3 2.720109056e-15 0)
(3 1.760441135e-15 0)
(3 4.41580285e-16 0)
(3 1.554768435e-15 0)
(3 1.016497842e-15 0)
(3 6.413115208e-16 0)
(3 1.416594157e-15 0)
(3 1.879537456e-15 0)
(3 2.757709467e-15 0)
(3 3.89314974e-15 0)
(3 3.619205674e-15 0)
(3 3.635635097e-15 0)
(3 3.38760497e-15 0)
(3 2.787300728e-15 0)
(3 3.631431714e-15 0)
(3 3.928435872e-15 0)
(3 1.962738386e-15 0)
(3 1.13565116e-15 0)
(3 6.992716283e-16 0)
(3 7.829302631e-16 0)
(3 8.78634668e-16 0)
(3 1.936104512e-15 0)
(3 2.541039675e-15 0)
(3 3.676882032e-15 0)
(3 2.372076253e-15 0)
(3 1.113448144e-15 0)
(3 1.094766245e-15 0)
(3 1.909369053e-15 0)
(3 1.40083421e-15 0)
(3 1.225586919e-15 0)
(3 7.867311944e-16 0)
(3 6.844544345e-16 0)
(3 1.242762565e-15 0)
(3 8.20074292e-16 0)
(3 -3.156021964e-17 0)
(3 2.995543606e-16 0)
(3 2.314602433e-17 0)
(3 -1.247141302e-15 0)
(3 -2.627134164e-15 0)
(3 -2.970970764e-15 0)
(3 -2.602996129e-15 0)
(3 -1.093895946e-15 0)
(3 6.943304558e-16 0)
(3 1.991495373e-15 0)
(3 -2.096510663e-16 0)
(3 4.765892971e-16 0)
(3 2.248035339e-15 0)
(3 3.223057194e-15 0)
(3 3.298310665e-15 0)
(3 4.011337204e-15 0)
(3 5.785785041e-15 0)
(3 6.127327959e-15 0)
(3 5.501900966e-15 0)
(3 5.473722275e-15 0)
(3 4.870707095e-15 0)
(3 4.105743236e-15 0)
(3 3.18572535e-15 0)
(3 2.750529275e-15 0)
(3 2.955102352e-15 0)
(3 2.019748943e-15 0)
(3 1.083949659e-15 0)
(3 1.104582621e-15 0)
(3 1.18316342e-15 0)
(3 2.425782112e-15 0)
(3 2.857816114e-15 0)
(3 2.758107746e-15 0)
(3 1.675630119e-15 0)
(3 7.62763105e-16 0)
(3 4.191977808e-16 0)
(3 1.540427704e-15 0)
(3 1.360267856e-15 0)
(3 2.036671002e-15 0)
(3 2.594989695e-15 0)
(3 1.689434699e-15 0)
(3 1.345185286e-15 0)
(3 6.92297385e-16 0)
(3 1.291017873e-16 0)
(3 -4.430727713e-16 0)
(3 -5.816297176e-16 0)
(3 -1.37396449e-15 0)
(3 -3.442685668e-15 0)
(3 -4.051766187e-15 0)
(3 -1.969396843e-15 0)
(3 -1.12785941e-15 0)
(3 1.072969538e-15 0)
(3 1.643799102e-15 0)
(3 3.952375775e-16 0)
(3 1.272217096e-16 0)
(3 -9.027025204e-16 0)
(3 -1.09184796e-15 0)
(3 -1.082781802e-15 0)
(3 -1.10795832e-15 0)
(3 -1.222179513e-15 0)
(3 -1.187074301e-15 0)
(3 -1.097721823e-15 0)
(3 -7.958171007e-16 0)
(3 -1.943566396e-15 0)
(3 -1.852022652e-15 0)
(3 -2.428719209e-15 0)
(3 -3.293212766e-15 0)
(3 -3.615886781e-15 0)
(3 -3.97199573e-15 0)
(3 -4.366723734e-15 0)
(3 -4.100704501e-15 0)
(3 -3.852378437e-15 0)
(3 -3.792202184e-15 0)
(3 -4.197896786e-15 0)
(3 -3.200919827e-15 0)
(3 -2.08136974e-15 0)
(3 -1.819124011e-15 0)
(3 -3.548849115e-15 0)
(3 2.29754622e-16 0)
(3 1.523312607e-15 0)
(3 2.666959866e-15 0)
(3 2.563189775e-15 0)
(3 3.000613855e-15 0)
(3 4.112884036e-15 0)
(3 5.655080155e-15 0)
(3 6.579431278e-15 0)
(3 6.317745688e-15 0)
(3 5.872263877e-15 0)
(3 5.217255856e-15 0)
(3 4.041664003e-15 0)
(3 4.028615663e-15 0)
(3 4.973538983e-15 0)
(3 4.818558718e-15 0)
(3 4.208565459e-15 0)
(3 2.391804639e-15 0)
(3 8.016574463e-16 0)
(3 1.744012974e-16 0)
(3 5.888160797e-17 0)
(3 -1.018949735e-15 0)
(3 -1.907779662e-15 0)
(3 -1.944302294e-15 0)
(3 -1.561814742e-15 0)
(3 -1.392207042e-15 0)
(3 -1.01178851e-16 0)
(3 1.444693682e-15 0)
(3 1.943532141e-15 0)
(3 1.342177748e-15 0)
(3 -4.190797207e-16 0)
(3 -7.379776128e-16 0)
(3 -9.200024429e-16 0)
(3 -1.293247454e-15 0)
(3 -1.372499831e-15 0)
(3 -1.917285546e-15 0)
(3 -1.849501541e-15 0)
(3 -2.001717414e-15 0)
(3 -2.177359429e-15 0)
(3 -2.170383894e-15 0)
(3 -1.49413743e-15 0)
(3 -1.543260366e-15 0)
(3 -1.843590205e-15 0)
(3 -2.215286446e-15 0)
(3 -3.193359381e-15 0)
(3 -4.125371352e-15 0)
(3 -4.053969731e-15 0)
(3 -3.57355575e-15 0)
(3 -2.631781942e-15 0)
(3 -2.442905254e-15 0)
(3 -3.231015089e-15 0)
(3 -3.131213844e-15 0)
(3 -1.844527866e-15 0)
(3 -1.676832672e-15 0)
(3 -2.884538803e-15 0)
(3 -3.287563424e-15 0)
(3 -4.147787988e-15 0)
(3 -4.500083597e-15 0)
(3 -4.966037102e-15 0)
(3 -5.57823386e-15 0)
(3 -5.159781378e-15 0)
(3 -4.797154814e-15 0)
(3 -5.997460645e-15 0)
(3 -6.645344265e-15 0)
(3 -6.706885279e-15 0)
(3 -6.333508134e-15 0)
(3 -6.151606493e-15 0)
(3 -5.600146601e-15 0)
(3 3.903234073e-15 0)
(3 3.817870713e-15 0)
(3 2.866818251e-15 0)
(3 2.524010177e-15 0)
(3 2.975158781e-15 0)
(3 3.131030766e-15 0)
(3 3.460205789e-15 0)
(3 3.529463414e-15 0)
(3 3.843605827e-15 0)
(3 4.191595808e-15 0)
(3 3.782519295e-15 0)
(3 3.751076652e-15 0)
(3 4.136525496e-15 0)
(3 4.199978591e-15 0)
(3 3.793812774e-15 0)
(3 3.551117382e-15 0)
(3 2.524046876e-15 0)
(3 2.332647132e-15 0)
(3 9.437689124e-16 0)
(3 -2.746570772e-16 0)
(3 -1.278918799e-15 0)
(3 -2.577856937e-15 0)
(3 -1.726097328e-15 0)
(3 -4.500601121e-16 0)
(3 -4.500846592e-16 0)
(3 8.693559352e-16 0)
(3 1.516800028e-15 0)
(3 1.228314392e-15 0)
(3 6.820652114e-16 0)
(3 -6.834891971e-17 0)
(3 -1.138638113e-15 0)
(3 -1.873313552e-15 0)
(3 -1.823817574e-15 0)
(3 -1.111080358e-15 0)
(3 -9.684367782e-16 0)
(3 -7.192631378e-16 0)
(3 -1.841514006e-16 0)
(3 -4.529492333e-16 0)
(3 -6.480880381e-16 0)
(3 -1.601008286e-15 0)
(3 -3.346748776e-15 0)
(3 -4.430466209e-15 0)
(3 -5.039338588e-15 0)
(3 -5.200161757e-15 0)
(3 -4.877586097e-15 0)
(3 -4.815652429e-15 0)
(3 -5.023883223e-15 0)
(3 -4.832857723e-15 0)
(3 -4.798292054e-15 0)
(3 -4.222800744e-15 0)
(3 -4.783642501e-15 0)
(3 -5.118982142e-15 0)
(3 -5.096705796e-15 0)
(3 -5.154891389e-15 0)
(3 -5.646532324e-15 0)
(3 -7.063893805e-15 0)
(3 -7.527846796e-15 0)
(3 -6.597688895e-15 0)
(3 -5.479487981e-15 0)
(3 -4.915382312e-15 0)
(3 -5.341764658e-15 0)
(3 -5.872771246e-15 0)
(3 -6.994255987e-15 0)
(3 -8.312884565e-15 0)
(3 -8.598741539e-15 0)
(3 -8.223851166e-15 0)
(3 -6.746753972e-15 0)
(3 3.120870431e-15 0)
(3 2.733058769e-15 0)
(3 1.409503416e-15 0)
(3 5.767307283e-16 0)
(3 2.431630193e-16 0)
(3 2.781366194e-15 0)
(3 4.074341951e-15 0)
(3 5.89509667e-15 0)
(3 7.339600881e-15 0)
(3 6.939317195e-15 0)
(3 6.568582717e-15 0)
(3 5.942968799e-15 0)
(3 4.406021731e-15 0)
(3 3.774571582e-15 0)
(3 3.989329837e-15 0)
(3 3.182269166e-15 0)
(3 3.687233166e-15 0)
(3 3.178518537e-15 0)
(3 2.352236377e-15 0)
(3 1.02442436e-15 0)
(3 -1.083809488e-16 0)
(3 -2.894456459e-16 0)
(3 -5.131372186e-18 0)
(3 -3.797775836e-16 0)
(3 -1.281398764e-16 0)
(3 -5.906130676e-17 0)
(3 -4.588312406e-16 0)
(3 -2.910630565e-16 0)
(3 1.03007362e-16 0)
(3 -2.918363473e-16 0)
(3 -1.384105351e-15 0)
(3 -1.062894419e-15 0)
(3 -1.465236991e-16 0)
(3 4.204818528e-16 0)
(3 9.130223547e-16 0)
(3 5.980383226e-16 0)
(3 -3.32368983e-16 0)
(3 -2.098094832e-15 0)
(3 -2.614969101e-15 0)
(3 -3.236376044e-15 0)
(3 -2.49097926e-15 0)
(3 -3.185143182e-15 0)
(3 -4.591579257e-15 0)
(3 -4.860845504e-15 0)
(3 -4.983268969e-15 0)
(3 -5.388320052e-15 0)
(3 -6.091149258e-15 0)
(3 -6.922670121e-15 0)
(3 -6.927852517e-15 0)
(3 -6.480656306e-15 0)
(3 -5.98202793e-15 0)
(3 -5.482285996e-15 0)
(3 -5.58393859e-15 0)
(3 -5.333642456e-15 0)
(3 -5.377691595e-15 0)
(3 -5.410329904e-15 0)
(3 -5.910031907e-15 0)
(3 -5.383269404e-15 0)
(3 -4.55573203e-15 0)
(3 -4.400805827e-15 0)
(3 -5.003431397e-15 0)
(3 -5.959634242e-15 0)
(3 -6.27692931e-15 0)
(3 -6.92196684e-15 0)
(3 -8.537627176e-15 0)
(3 -8.969207468e-15 0)
(3 -8.73767277e-15 0)
(3 -3.226531146e-15 0)
(3 1.444292188e-17 0)
(3 9.757864204e-16 0)
(3 1.452683708e-15 0)
(3 4.700143376e-15 0)
(3 6.181640288e-15 0)
(3 6.14264526e-15 0)
(3 5.759984827e-15 0)
(3 5.321054617e-15 0)
(3 4.927700455e-15 0)
(3 5.607621444e-15 0)
(3 5.273643253e-15 0)
(3 4.99529928e-15 0)
(3 4.68593033e-15 0)
(3 4.27613782e-15 0)
(3 3.2910924e-15 0)
(3 2.811786599e-15 0)
(3 2.530437667e-15 0)
(3 1.455204189e-15 0)
(3 3.913932368e-16 0)
(3 7.082742235e-16 0)
(3 1.346483185e-15 0)
(3 1.092433541e-15 0)
(3 2.639606835e-16 0)
(3 2.21162098e-16 0)
(3 -5.326491848e-17 0)
(3 -4.87137117e-16 0)
(3 -6.650803982e-16 0)
(3 -2.674947702e-17 0)
(3 3.664477044e-16 0)
(3 7.265227516e-16 0)
(3 9.935798659e-16 0)
(3 1.374650672e-15 0)
(3 5.761965921e-16 0)
(3 4.628678013e-16 0)
(3 1.163960124e-15 0)
(3 1.080784048e-15 0)
(3 1.049155928e-15 0)
(3 -4.661996671e-16 0)
(3 -9.838864872e-16 0)
(3 -1.577891839e-15 0)
(3 -2.211106781e-15 0)
(3 -2.544767803e-15 0)
(3 -3.271189662e-15 0)
(3 -4.656057014e-15 0)
(3 -5.148634898e-15 0)
(3 -5.362231444e-15 0)
(3 -5.856526905e-15 0)
(3 -6.439672647e-15 0)
(3 -7.669063548e-15 0)
(3 -7.758461564e-15 0)
(3 -7.48367339e-15 0)
(3 -6.390097779e-15 0)
(3 -5.129593936e-15 0)
(3 -4.772768409e-15 0)
(3 -4.653549147e-15 0)
(3 -3.876611128e-15 0)
(3 -4.324017937e-15 0)
(3 -4.859585729e-15 0)
(3 -4.213706932e-15 0)
(3 -4.017775378e-15 0)
(3 -4.616104219e-15 0)
(3 -6.848472034e-15 0)
(3 -8.725932514e-15 0)
(3 -8.157142037e-15 0)
(3 -7.82262866e-15 0)
(3 -7.497301169e-15 0)
(3 -4.36544856e-15 0)
(3 -3.012961205e-15 0)
(3 1.32108501e-16 0)
(3 1.3813353e-15 0)
(3 2.618810093e-15 0)
(3 2.314181763e-15 0)
(3 1.814424928e-15 0)
(3 2.741303579e-16 0)
(3 3.255005638e-17 0)
(3 5.555657971e-16 0)
(3 7.504823899e-16 0)
(3 2.400489149e-15 0)
(3 2.854945113e-15 0)
(3 2.880635702e-15 0)
(3 2.615320042e-15 0)
(3 2.136052957e-15 0)
(3 1.120788789e-15 0)
(3 1.324122369e-15 0)
(3 1.920240464e-15 0)
(3 2.036167772e-15 0)
(3 2.651451826e-15 0)
(3 3.45307458e-15 0)
(3 2.607276336e-15 0)
(3 1.835432368e-15 0)
(3 4.813616149e-16 0)
(3 -7.760396015e-16 0)
(3 -1.093622121e-15 0)
(3 -8.841709254e-16 0)
(3 -9.65758356e-16 0)
(3 -2.734061155e-16 0)
(3 8.169648131e-16 0)
(3 8.765868401e-16 0)
(3 6.664726189e-16 0)
(3 -7.348268522e-17 0)
(3 -8.750628117e-16 0)
(3 -7.219607631e-16 0)
(3 -5.87191249e-16 0)
(3 -2.367840938e-16 0)
(3 1.181066513e-16 0)
(3 -2.511160772e-16 0)
(3 -1.655535793e-15 0)
(3 -3.63027738e-15 0)
(3 -4.027461942e-15 0)
(3 -3.948099065e-15 0)
(3 -3.995716083e-15 0)
(3 -4.87741065e-15 0)
(3 -5.134971747e-15 0)
(3 -6.066138548e-15 0)
(3 -6.643616029e-15 0)
(3 -6.778959633e-15 0)
(3 -6.941609011e-15 0)
(3 -7.038817094e-15 0)
(3 -6.396243107e-15 0)
(3 -5.065146629e-15 0)
(3 -4.307652202e-15 0)
(3 -3.858299752e-15 0)
(3 -4.001105341e-15 0)
(3 -4.342262423e-15 0)
(3 -4.607329616e-15 0)
(3 -6.368897185e-15 0)
(3 -6.722940293e-15 0)
(3 -7.344845084e-15 0)
(3 -7.517361675e-15 0)
(3 -8.057997507e-15 0)
(3 -8.527890635e-15 0)
(3 -8.158242638e-15 0)
(3 -8.068223038e-15 0)
(3 -1.808421984e-15 0)
(3 -1.048600529e-15 0)
(3 -5.220564615e-16 0)
(3 -1.180958179e-16 0)
(3 -1.013162076e-15 0)
(3 -8.382799996e-16 0)
(3 -1.310161453e-15 0)
(3 -1.013575924e-15 0)
(3 -5.293425833e-16 0)
(3 -1.962094685e-16 0)
(3 -5.005788811e-17 0)
(3 -1.720736914e-16 0)
(3 7.488860333e-16 0)
(3 8.266256781e-16 0)
(3 3.03545358e-16 0)
(3 4.207560406e-16 0)
(3 3.083439544e-16 0)
(3 2.910553799e-16 0)
(3 7.390687916e-16 0)
(3 1.415670848e-15 0)
(3 1.568827716e-15 0)
(3 1.462233381e-15 0)
(3 1.105763309e-15 0)
(3 6.035825559e-16 0)
(3 5.255817562e-16 0)
(3 3.941230442e-16 0)
(3 4.372171941e-16 0)
(3 1.050690839e-15 0)
(3 1.04416171e-15 0)
(3 1.246958552e-15 0)
(3 8.0558733e-16 0)
(3 6.741306022e-16 0)
(3 -3.883861873e-17 0)
(3 -6.726474457e-16 0)
(3 -1.335750072e-15 0)
(3 -2.354240794e-15 0)
(3 -2.178254866e-15 0)
(3 -2.355363994e-15 0)
(3 -3.236290776e-15 0)
(3 -3.973780759e-15 0)
(3 -4.764939604e-15 0)
(3 -5.268915217e-15 0)
(3 -5.959958457e-15 0)
(3 -5.949241371e-15 0)
(3 -5.696340973e-15 0)
(3 -5.835455064e-15 0)
(3 -6.673876322e-15 0)
(3 -6.933222774e-15 0)
(3 -6.185326728e-15 0)
(3 -5.724147693e-15 0)
(3 -4.82371358e-15 0)
(3 -5.003030153e-15 0)
(3 -5.140320014e-15 0)
(3 -5.655323077e-15 0)
(3 -4.985629431e-15 0)
(3 -4.038051463e-15 0)
(3 -3.509981811e-15 0)
(3 -3.239225661e-15 0)
(3 -3.597320714e-15 0)
(3 -4.716272226e-15 0)
(3 -5.557447429e-15 0)
(3 -5.383091484e-15 0)
(3 -4.721193325e-15 0)
(3 -4.679065289e-15 0)
(3 -5.989915181e-15 0)
(3 -6.265212368e-15 0)
(3 -6.529249727e-15 0)
(3 -5.549672852e-16 0)
(3 -4.484541881e-16 0)
(3 -4.713259254e-16 0)
(3 -4.837276904e-16 0)
(3 -1.61515127e-15 0)
(3 -1.235614699e-15 0)
(3 1.742353265e-17 0)
(3 5.952133665e-16 0)
(3 4.450303938e-16 0)
(3 3.901996555e-16 0)
(3 3.948401975e-16 0)
(3 -1.336636904e-15 0)
(3 -1.730167959e-15 0)
(3 -1.745596648e-15 0)
(3 -1.843975641e-15 0)
(3 -2.160940907e-15 0)
(3 -1.138097367e-15 0)
(3 -8.269091861e-16 0)
(3 -8.295655751e-16 0)
(3 -6.023242298e-16 0)
(3 1.440779178e-16 0)
(3 7.708899309e-16 0)
(3 1.431743798e-15 0)
(3 1.24274717e-15 0)
(3 1.079291912e-15 0)
(3 1.730261817e-15 0)
(3 1.857282636e-15 0)
(3 9.587557129e-16 0)
(3 1.056044426e-15 0)
(3 8.419412036e-16 0)
(3 8.07596889e-16 0)
(3 -1.420115487e-16 0)
(3 -8.848533155e-16 0)
(3 -5.746479233e-16 0)
(3 -1.34661121e-16 0)
(3 -3.529812852e-16 0)
(3 -9.324513938e-16 0)
(3 -1.9219246e-15 0)
(3 -4.2792573e-15 0)
(3 -6.517639971e-15 0)
(3 -5.880444323e-15 0)
(3 -5.69667195e-15 0)
(3 -6.431940227e-15 0)
(3 -7.116088245e-15 0)
(3 -7.190874614e-15 0)
(3 -6.093886694e-15 0)
(3 -5.338396185e-15 0)
(3 -6.022497591e-15 0)
(3 -6.181568017e-15 0)
(3 -4.604829553e-15 0)
(3 -3.949084288e-15 0)
(3 -4.003692692e-15 0)
(3 -4.861736732e-15 0)
(3 -5.345743442e-15 0)
(3 -5.232446609e-15 0)
(3 -5.428563167e-15 0)
(3 -5.438089196e-15 0)
(3 -4.751119313e-15 0)
(3 -4.3666539e-15 0)
(3 -4.425471996e-15 0)
(3 -3.775145569e-15 0)
(3 -2.792429897e-15 0)
(3 -2.335652338e-15 0)
(3 -2.625987455e-15 0)
(3 -2.033924797e-15 0)
(3 -2.418711888e-15 0)
(3 -2.923844598e-15 0)
(3 -1.11348837e-16 0)
(3 5.45598172e-16 0)
(3 1.067197657e-15 0)
(3 1.791169548e-15 0)
(3 2.463902811e-15 0)
(3 1.646795735e-15 0)
(3 1.562324362e-15 0)
(3 1.801488168e-15 0)
(3 1.592749516e-15 0)
(3 1.104638575e-15 0)
(3 -2.477569471e-16 0)
(3 -9.257074668e-16 0)
(3 -1.347974872e-15 0)
(3 -1.3557039e-15 0)
(3 -1.466223869e-15 0)
(3 -1.673980843e-15 0)
(3 -1.427211978e-15 0)
(3 -3.397656476e-16 0)
(3 2.378030822e-16 0)
(3 1.288317607e-15 0)
(3 1.564949022e-15 0)
(3 1.634646391e-15 0)
(3 2.087457511e-15 0)
(3 2.288682415e-15 0)
(3 1.642374259e-15 0)
(3 1.621409727e-15 0)
(3 2.003867948e-15 0)
(3 2.327895982e-15 0)
(3 -3.415484968e-16 0)
(3 -1.44239453e-15 0)
(3 -1.525888891e-15 0)
(3 -8.438640307e-16 0)
(3 -3.526575557e-16 0)
(3 -4.846448125e-16 0)
(3 -3.250018793e-16 0)
(3 -1.022721579e-15 0)
(3 -6.931659478e-16 0)
(3 -1.462504182e-15 0)
(3 -2.780826471e-15 0)
(3 -4.429977067e-15 0)
(3 -5.057894421e-15 0)
(3 -6.905382217e-15 0)
(3 -8.038109298e-15 0)
(3 -8.396606223e-15 0)
(3 -8.369470821e-15 0)
(3 -7.247736084e-15 0)
(3 -4.973615674e-15 0)
(3 -3.640454345e-15 0)
(3 -2.923354871e-15 0)
(3 -2.868390099e-15 0)
(3 -2.716906605e-15 0)
(3 -2.54411297e-15 0)
(3 -2.582804321e-15 0)
(3 -2.533810716e-15 0)
(3 -3.376194193e-15 0)
(3 -4.285491828e-15 0)
(3 -5.32507525e-15 0)
(3 -5.354614597e-15 0)
(3 -3.387525499e-15 0)
(3 -2.601914553e-15 0)
(3 -2.708205498e-15 0)
(3 -3.153332246e-15 0)
(3 -3.293958135e-15 0)
(3 -3.260097248e-15 0)
(3 -3.76561425e-15 0)
(3 -3.957460293e-15 0)
(3 -4.268515653e-15 0)
(3 -2.135309498e-15 0)
(3 -1.77082949e-15 0)
(3 -1.21409715e-15 0)
(3 -8.693414704e-16 0)
(3 2.536661442e-16 0)
(3 1.013998671e-15 0)
(3 9.890833728e-16 0)
(3 5.589674161e-16 0)
(3 2.319256867e-16 0)
(3 -1.209657865e-16 0)
(3 -2.009069919e-16 0)
(3 6.315192612e-17 0)
(3 3.12664761e-16 0)
(3 4.142460809e-16 0)
(3 3.839394888e-16 0)
(3 3.054095297e-16 0)
(3 8.886457707e-16 0)
(3 1.467770078e-15 0)
(3 1.464651242e-15 0)
(3 1.285886156e-15 0)
(3 3.21864879e-16 0)
(3 2.206714319e-16 0)
(3 7.527486637e-16 0)
(3 8.794285559e-16 0)
(3 1.621802379e-15 0)
(3 1.799958965e-15 0)
(3 2.100911267e-15 0)
(3 3.003826335e-15 0)
(3 2.002912852e-15 0)
(3 6.3744655e-16 0)
(3 -1.613991651e-16 0)
(3 -1.134147589e-16 0)
(3 2.076105594e-16 0)
(3 -2.098541757e-16 0)
(3 -9.162476976e-16 0)
(3 -1.673261542e-15 0)
(3 -1.555380378e-15 0)
(3 -1.740442516e-15 0)
(3 -1.521014712e-15 0)
(3 -2.196473126e-15 0)
(3 -3.453876106e-15 0)
(3 -4.428021193e-15 0)
(3 -5.107757181e-15 0)
(3 -6.345823219e-15 0)
(3 -6.809023153e-15 0)
(3 -6.316251997e-15 0)
(3 -5.405755124e-15 0)
(3 -3.983010219e-15 0)
(3 -3.135794662e-15 0)
(3 -3.566886464e-15 0)
(3 -3.487996789e-15 0)
(3 -3.063140471e-15 0)
(3 -3.269769302e-15 0)
(3 -3.234939395e-15 0)
(3 -3.191231899e-15 0)
(3 -3.852772249e-15 0)
(3 -3.865288078e-15 0)
(3 -4.113214735e-15 0)
(3 -4.29063242e-15 0)
(3 -3.475390002e-15 0)
(3 -3.654560205e-15 0)
(3 -3.712608986e-15 0)
(3 -3.523404383e-15 0)
(3 -3.752016742e-15 0)
(3 -3.759939404e-15 0)
(3 -4.038385765e-15 0)
(3 -3.616800804e-15 0)
(3 -4.046570057e-15 0)
(3 -4.023713026e-15 0)
(3 -3.70372037e-15 0)
(3 -2.795730903e-15 0)
(3 -1.912716731e-15 0)
(3 -8.301224271e-16 0)
(3 -1.059620289e-15 0)
(3 -1.025540458e-15 0)
(3 -1.382219659e-15 0)
(3 -1.50131198e-15 0)
(3 2.334027049e-16 0)
(3 9.524304274e-16 0)
(3 8.935987426e-16 0)
(3 4.823996337e-16 0)
(3 1.350612473e-15 0)
(3 1.338624574e-15 0)
(3 6.064825686e-16 0)
(3 4.544367475e-16 0)
(3 1.017451239e-15 0)
(3 6.219832039e-16 0)
(3 1.126749876e-15 0)
(3 2.199578727e-15 0)
(3 3.11923686e-15 0)
(3 2.616526554e-15 0)
(3 1.692651842e-15 0)
(3 5.559382821e-16 0)
(3 5.668063189e-16 0)
(3 1.46568005e-15 0)
(3 1.273166569e-15 0)
(3 9.344230843e-16 0)
(3 7.711167117e-16 0)
(3 7.027021005e-16 0)
(3 4.68755649e-16 0)
(3 4.166516124e-16 0)
(3 -8.6071008e-17 0)
(3 -5.409841914e-16 0)
(3 -1.309560276e-15 0)
(3 -1.665085613e-15 0)
(3 -2.438204271e-15 0)
(3 -2.143913892e-15 0)
(3 -3.517497015e-15 0)
(3 -3.615330411e-15 0)
(3 -2.370519628e-15 0)
(3 -2.442142781e-15 0)
(3 -2.256893702e-15 0)
(3 -4.493194758e-15 0)
(3 -5.025571911e-15 0)
(3 -5.204038465e-15 0)
(3 -5.488779798e-15 0)
(3 -6.283591927e-15 0)
(3 -6.911900427e-15 0)
(3 -6.918164902e-15 0)
(3 -5.956207836e-15 0)
(3 -5.411523546e-15 0)
(3 -4.933947813e-15 0)
(3 -4.081138055e-15 0)
(3 -2.275361615e-15 0)
(3 -2.058107605e-15 0)
(3 -3.049916631e-15 0)
(3 -3.331352672e-15 0)
(3 -3.091043946e-15 0)
(3 -3.157148053e-15 0)
(3 -3.204928829e-15 0)
(3 -3.125418118e-15 0)
(3 -3.075686152e-15 0)
(3 -2.597304798e-15 0)
(3 -2.813438574e-15 0)
(3 -4.364774035e-15 0)
(3 -4.824371192e-15 0)
(3 -4.075202858e-15 0)
(3 -3.641076513e-15 0)
(3 -3.216680865e-15 0)
(3 -3.157776956e-15 0)
(3 -3.418473312e-15 0)
(3 -2.374302929e-15 0)
(3 -1.535188747e-15 0)
(3 -9.171476515e-16 0)
(3 -7.468280642e-16 0)
(3 -2.090567285e-16 0)
(3 -1.778920387e-15 0)
(3 -2.170674438e-15 0)
(3 -1.318879637e-15 0)
(3 -5.543863088e-17 0)
(3 6.430900958e-16 0)
(3 4.215494014e-18 0)
(3 3.041799106e-16 0)
(3 9.449067389e-16 0)
(3 2.432004671e-15 0)
(3 3.813698567e-15 0)
(3 3.55939073e-15 0)
(3 3.627696825e-15 0)
(3 3.361051646e-15 0)
(3 1.82559534e-15 0)
(3 1.479902229e-15 0)
(3 1.487958481e-15 0)
(3 1.987422364e-15 0)
(3 1.527018645e-15 0)
(3 -2.754678203e-16 0)
(3 -5.341211708e-16 0)
(3 -8.681957067e-16 0)
(3 -6.068361959e-16 0)
(3 -4.554722662e-16 0)
(3 5.680199465e-17 0)
(3 -2.307678883e-16 0)
(3 -1.139649719e-15 0)
(3 -1.900328057e-15 0)
(3 -2.465234727e-15 0)
(3 -2.914861237e-15 0)
(3 -3.321826202e-15 0)
(3 -2.6529941e-15 0)
(3 -2.22805842e-15 0)
(3 -2.238229102e-15 0)
(3 -2.849370711e-15 0)
(3 -3.780716963e-15 0)
(3 -4.166351346e-15 0)
(3 -4.163223797e-15 0)
(3 -3.428012331e-15 0)
(3 -3.976816786e-15 0)
(3 -3.905568037e-15 0)
(3 -3.301650267e-15 0)
(3 -2.866713009e-15 0)
(3 -3.312392221e-15 0)
(3 -1.815264776e-15 0)
(3 -1.626594118e-15 0)
(3 -1.567838384e-15 0)
(3 -8.255218115e-16 0)
(3 -9.39586695e-16 0)
(3 -8.857960465e-16 0)
(3 -4.042058952e-16 0)
(3 -8.907755072e-16 0)
(3 -2.044550445e-15 0)
(3 -2.876535119e-15 0)
(3 -3.384695098e-15 0)
(3 -3.09567829e-15 0)
(3 -4.204772189e-15 0)
(3 -4.563759018e-15 0)
(3 -4.258755919e-15 0)
(3 -2.772564923e-15 0)
(3 -2.658722528e-15 0)
(3 -3.171336905e-15 0)
(3 -3.464380876e-15 0)
(3 -3.388281806e-15 0)
(3 -2.826325091e-15 0)
(3 -2.209014368e-15 0)
(3 -2.142599406e-15 0)
(3 -2.696202895e-15 0)
(3 -2.805713193e-15 0)
(3 -2.627270784e-15 0)
(3 -1.833015484e-15 0)
(3 -9.859926115e-16 0)
(3 4.029497743e-16 0)
(3 6.468019733e-16 0)
(3 -4.228311097e-16 0)
(3 -8.645884331e-17 0)
(3 7.758579957e-16 0)
(3 1.153966642e-15 0)
(3 1.604923727e-15 0)
(3 1.258356082e-15 0)
(3 1.356958288e-15 0)
(3 1.881560086e-15 0)
(3 1.861361419e-15 0)
(3 1.283344633e-15 0)
(3 1.066927838e-15 0)
(3 7.080645208e-16 0)
(3 1.775498213e-16 0)
(3 -9.84538514e-17 0)
(3 -1.109176393e-15 0)
(3 -2.296188047e-15 0)
(3 -1.73846329e-15 0)
(3 -6.472402327e-16 0)
(3 -2.295821543e-16 0)
(3 -1.269283754e-15 0)
(3 -1.609269676e-15 0)
(3 -1.428233593e-15 0)
(3 -1.332725689e-15 0)
(3 -2.064599062e-15 0)
(3 -3.195940016e-15 0)
(3 -3.051894948e-15 0)
(3 -3.162724823e-15 0)
(3 -2.837396612e-15 0)
(3 -2.996943831e-15 0)
(3 -1.914881242e-15 0)
(3 -1.455890251e-15 0)
(3 -9.492585582e-16 0)
(3 -9.382414816e-16 0)
(3 -2.96993795e-16 0)
(3 -4.655757613e-16 0)
(3 -5.619943501e-16 0)
(3 -4.066401931e-16 0)
(3 -7.499648761e-16 0)
(3 -7.288230243e-16 0)
(3 -3.130004038e-19 0)
(3 2.727565172e-16 0)
(3 6.237928864e-16 0)
(3 9.207557061e-16 0)
(3 7.105998009e-16 0)
(3 1.216922755e-17 0)
(3 -7.054870856e-16 0)
(3 -1.038184789e-15 0)
(3 -1.978304412e-15 0)
(3 -2.018483566e-15 0)
(3 -4.788639662e-15 0)
(3 -4.650707039e-15 0)
(3 -4.345741809e-15 0)
(3 -3.52447758e-15 0)
(3 -2.759086195e-15 0)
(3 -4.192262647e-15 0)
(3 -4.469000503e-15 0)
(3 -4.860232524e-15 0)
(3 -4.131428997e-15 0)
(3 -3.118560594e-15 0)
(3 -3.047711498e-15 0)
(3 -1.824030359e-15 0)
(3 -9.390352251e-16 0)
(3 -1.221456537e-15 0)
(3 -1.124858993e-15 0)
(3 -9.002124941e-17 0)
(3 1.244186071e-16 0)
(3 1.662655573e-16 0)
(3 9.382436336e-17 0)
(3 1.055659024e-15 0)
(3 1.350602455e-15 0)
(3 -2.12909683e-16 0)
(3 -5.277970816e-16 0)
(3 -1.106046244e-16 0)
(3 5.02320925e-16 0)
(3 2.30981511e-15 0)
(3 2.603401582e-15 0)
(3 2.025815916e-15 0)
(3 2.915945048e-16 0)
(3 -1.264599331e-15 0)
(3 -1.03279727e-15 0)
(3 -1.375834534e-16 0)
(3 -3.941240223e-16 0)
(3 -1.578736596e-15 0)
(3 -2.311913756e-15 0)
(3 -2.237093148e-15 0)
(3 -2.552686803e-15 0)
(3 -2.149791257e-15 0)
(3 -2.00885204e-15 0)
(3 -2.028556931e-15 0)
(3 -1.991005562e-15 0)
(3 -1.938217935e-15 0)
(3 -1.529591327e-15 0)
(3 -2.53774577e-15 0)
(3 -3.242885849e-15 0)
(3 -3.836977685e-15 0)
(3 -2.683229362e-15 0)
(3 -9.175706518e-16 0)
(3 -7.180067691e-16 0)
(3 -4.830732685e-16 0)
(3 1.374275487e-16 0)
(3 1.19864398e-17 0)
(3 3.108101875e-16 0)
(3 2.643034061e-16 0)
(3 5.81839852e-16 0)
(3 7.811070811e-16 0)
(3 8.883407866e-16 0)
(3 6.08212826e-16 0)
(3 -3.451942296e-16 0)
(3 -7.589943444e-16 0)
(3 -5.692333249e-16 0)
(3 -3.192228545e-16 0)
(3 -3.542257384e-16 0)
(3 -7.920229548e-16 0)
(3 -1.12404554e-15 0)
(3 -2.910559026e-16 0)
(3 4.398802043e-17 0)
(3 -2.200145932e-15 0)
(3 -2.053980184e-15 0)
(3 -1.896541145e-15 0)
(3 -2.242148402e-15 0)
(3 -2.848592675e-15 0)
(3 -4.889768074e-15 0)
(3 -5.685544345e-15 0)
(3 -5.021001568e-15 0)
(3 -2.705622746e-15 0)
(3 -2.219555053e-15 0)
(3 -2.077975079e-15 0)
(3 -1.773468231e-15 0)
(3 -1.108860484e-15 0)
(3 -6.212106901e-16 0)
(3 -7.900021418e-16 0)
(3 -6.976755293e-16 0)
(3 -4.138374584e-16 0)
(3 1.142250902e-15 0)
(3 2.529079535e-15 0)
(3 3.082523718e-15 0)
(3 3.32937908e-15 0)
(3 1.616667002e-15 0)
(3 -3.321263681e-16 0)
(3 1.758749388e-16 0)
(3 5.797381413e-16 0)
(3 1.197710377e-15 0)
(3 1.346507028e-15 0)
(3 1.951178739e-16 0)
(3 -5.216997696e-16 0)
(3 -9.506464085e-16 0)
(3 -1.143594689e-15 0)
(3 -1.298336585e-15 0)
(3 -8.450211044e-16 0)
(3 -4.824592281e-16 0)
(3 -1.787611547e-15 0)
(3 -3.158333749e-15 0)
(3 -4.456121693e-15 0)
(3 -3.241721713e-15 0)
(3 -2.714302594e-15 0)
(3 -3.025506979e-15 0)
(3 -2.638000301e-15 0)
(3 -1.19604869e-15 0)
(3 -8.414376155e-16 0)
(3 -1.202056806e-15 0)
(3 -1.921258867e-15 0)
(3 -2.504986863e-15 0)
(3 -2.685655558e-15 0)
(3 -3.450661719e-15 0)
(3 -3.374890754e-15 0)
(3 -1.23649509e-15 0)
(3 3.555148971e-16 0)
(3 3.545452403e-16 0)
(3 2.824053738e-16 0)
(3 6.541966075e-16 0)
(3 1.226301908e-15 0)
(3 1.481073749e-15 0)
(3 1.130495065e-15 0)
(3 2.361019913e-16 0)
(3 -2.187573938e-16 0)
(3 -1.090498105e-16 0)
(3 -3.148179619e-16 0)
(3 2.671526481e-16 0)
(3 9.568473368e-16 0)
(3 1.433559403e-15 0)
(3 5.764421336e-16 0)
(3 8.169183193e-16 0)
(3 1.04174062e-15 0)
(3 -9.777315699e-17 0)
(3 -2.238248346e-16 0)
(3 -7.093856039e-16 0)
(3 -1.561049917e-15 0)
(3 -2.246751298e-15 0)
(3 -2.151114636e-15 0)
(3 -2.396645491e-15 0)
(3 -2.728032376e-16 0)
(3 6.525869582e-16 0)
(3 7.153314285e-16 0)
(3 8.368222663e-16 0)
(3 1.675324052e-15 0)
(3 2.689132684e-15 0)
(3 3.151523698e-15 0)
(3 3.265335821e-15 0)
(3 2.5917449e-15 0)
(3 2.273341453e-15 0)
(3 2.619364856e-15 0)
(3 2.344661447e-15 0)
(3 1.343667278e-15 0)
(3 -1.122314127e-16 0)
(3 -2.436005136e-16 0)
(3 3.563855661e-16 0)
(3 -3.246162072e-18 0)
(3 -9.799842722e-16 0)
(3 -1.9451713e-15 0)
(3 -2.329581272e-15 0)
(3 -1.561799159e-15 0)
(3 -9.20574841e-16 0)
(3 4.061352349e-16 0)
(3 9.410934484e-16 0)
(3 -4.873506846e-17 0)
(3 -1.311046729e-15 0)
(3 -1.022526287e-15 0)
(3 -3.782342071e-16 0)
(3 -7.588221898e-16 0)
(3 -8.710614472e-16 0)
(3 -1.204679896e-15 0)
(3 -1.594733009e-15 0)
(3 -1.449573952e-15 0)
(3 -3.378786573e-16 0)
(3 1.854301715e-16 0)
(3 3.382080076e-16 0)
(3 -8.61003756e-16 0)
(3 -1.10534476e-15 0)
(3 -8.020644821e-16 0)
(3 -1.122978582e-15 0)
(3 -2.014316028e-15 0)
(3 -1.454827305e-15 0)
(3 -6.807865078e-17 0)
(3 1.671303814e-15 0)
(3 2.498139928e-15 0)
(3 2.072334693e-15 0)
(3 1.75526903e-15 0)
(3 6.42372975e-16 0)
(3 1.065967714e-15 0)
(3 1.359882094e-15 0)
(3 1.809782586e-15 0)
(3 1.244599656e-15 0)
(3 -1.097126823e-16 0)
(3 -6.320371119e-16 0)
(3 -3.374573352e-16 0)
(3 4.907922169e-16 0)
(3 1.063073404e-15 0)
(3 1.030571134e-15 0)
(3 9.718866321e-16 0)
(3 2.438202209e-16 0)
(3 -8.191506372e-16 0)
(3 -1.031521254e-15 0)
(3 -1.164387644e-15 0)
(3 -1.365657554e-15 0)
(3 -5.22080292e-16 0)
(3 3.902201978e-16 0)
(3 1.376668266e-15 0)
(3 8.120539438e-16 0)
(3 1.442296685e-16 0)
(3 -2.36478503e-17 0)
(3 7.827895496e-16 0)
(3 2.267325217e-15 0)
(3 2.14927373e-15 0)
(3 2.165649983e-15 0)
(3 2.798445894e-15 0)
(3 3.04129702e-15 0)
(3 2.138034394e-15 0)
(3 2.663812721e-16 0)
(3 -1.639174903e-15 0)
(3 -3.493822699e-15 0)
(3 -3.844110133e-15 0)
(3 -2.334842052e-15 0)
(3 -5.475422581e-16 0)
(3 -1.321670265e-16 0)
(3 -2.062353654e-15 0)
(3 -2.941513093e-15 0)
(3 -3.351229337e-15 0)
(3 -2.297651538e-15 0)
(3 -1.595204929e-15 0)
(3 -1.697995351e-15 0)
(3 -2.914697549e-15 0)
(3 -4.239495472e-15 0)
(3 -4.154775252e-15 0)
(3 -3.847503273e-15 0)
(3 -3.120638516e-15 0)
(3 -2.394675655e-15 0)
(3 -3.578813872e-16 0)
(3 -1.18022206e-16 0)
(3 -4.780332634e-17 0)
(3 -1.271674203e-16 0)
(3 -4.115372382e-16 0)
(3 -1.633885891e-15 0)
(3 -1.87545112e-15 0)
(3 -1.267812064e-15 0)
(3 -7.528913231e-16 0)
(3 2.032115658e-18 0)
(3 -4.037026083e-16 0)
(3 -8.739710712e-16 0)
(3 -8.226352011e-16 0)
(3 3.431906671e-17 0)
(3 5.973386272e-16 0)
(3 1.163498414e-15 0)
(3 2.267368044e-15 0)
(3 2.211164932e-15 0)
(3 2.024970118e-15 0)
(3 2.277450692e-15 0)
(3 2.268604351e-15 0)
(3 1.492458538e-15 0)
(3 1.925497595e-16 0)
(3 -6.909891701e-16 0)
(3 -1.117083425e-15 0)
(3 -4.796032774e-16 0)
(3 -2.347789614e-16 0)
(3 5.135100872e-16 0)
(3 1.227773757e-15 0)
(3 1.09901302e-15 0)
(3 8.382504191e-16 0)
(3 8.926263951e-17 0)
(3 5.288242006e-16 0)
(3 7.301833778e-16 0)
(3 7.006167399e-16 0)
(3 3.05029482e-16 0)
(3 7.111421132e-17 0)
(3 -2.968273131e-16 0)
(3 -1.773719482e-16 0)
(3 -1.544830101e-15 0)
(3 -2.159577763e-15 0)
(3 -6.684340642e-16 0)
(3 -9.504347936e-17 0)
(3 6.3946365e-16 0)
(3 8.769682406e-16 0)
(3 1.164893563e-15 0)
(3 1.464272871e-15 0)
(3 2.725965606e-16 0)
(3 -6.117615148e-16 0)
(3 -1.517640126e-15 0)
(3 -2.319764649e-15 0)
(3 -2.486711673e-15 0)
(3 -2.418319957e-15 0)
(3 -2.351467278e-15 0)
(3 -2.552149034e-15 0)
(3 -1.090070741e-15 0)
(3 -5.282444977e-16 0)
(3 -7.272157079e-16 0)
(3 -1.354421548e-15 0)
(3 -2.615790645e-15 0)
(3 -4.434624549e-15 0)
(3 -5.524624884e-15 0)
(3 -5.782760044e-15 0)
(3 -5.142535994e-15 0)
(3 -3.934734783e-15 0)
(3 -3.932480913e-15 0)
(3 -3.528705228e-15 0)
(3 -3.042628507e-15 0)
(3 -2.413971325e-15 0)
(3 -2.219804452e-15 0)
(3 -2.556148173e-15 0)
(3 -3.325398394e-15 0)
(3 -3.715157907e-15 0)
(3 -3.621862843e-15 0)
(3 -2.584118326e-15 0)
(3 -1.293017802e-15 0)
(3 -8.326831881e-16 0)
(3 -8.572546247e-16 0)
(3 -7.007272507e-16 0)
(3 2.616214133e-16 0)
(3 -4.134353349e-17 0)
(3 -5.247483297e-16 0)
(3 -7.192352059e-16 0)
(3 -5.055836693e-16 0)
(3 1.257274363e-15 0)
(3 3.860399609e-15 0)
(3 3.898488691e-15 0)
(3 3.141850139e-15 0)
(3 1.865746737e-15 0)
(3 6.487478322e-16 0)
(3 4.535144882e-16 0)
(3 1.31699745e-15 0)
(3 7.687646809e-16 0)
(3 6.926505053e-16 0)
(3 8.945509743e-16 0)
(3 1.266687773e-15 0)
(3 2.147604441e-15 0)
(3 2.247723387e-15 0)
(3 1.425135596e-15 0)
(3 1.021122696e-15 0)
(3 1.006776994e-15 0)
(3 -5.62263725e-16 0)
(3 -5.460669987e-16 0)
(3 5.867288482e-17 0)
(3 2.398456725e-17 0)
(3 1.732164468e-16 0)
(3 -4.580495709e-16 0)
(3 -6.684626785e-16 0)
(3 -4.798775819e-16 0)
(3 -7.878244584e-16 0)
(3 -6.767000051e-16 0)
(3 -2.804504308e-17 0)
(3 -2.599626601e-16 0)
(3 -1.777612968e-15 0)
(3 -2.93739035e-15 0)
(3 -3.095695249e-15 0)
(3 -2.269344644e-15 0)
(3 -1.78547916e-15 0)
(3 -1.617320177e-15 0)
(3 -2.432857419e-15 0)
(3 -2.855786372e-15 0)
(3 -2.197779161e-15 0)
(3 -1.374784428e-15 0)
(3 -2.743230077e-15 0)
(3 -2.789338895e-15 0)
(3 -2.816603723e-15 0)
(3 -3.502004388e-15 0)
(3 -5.286579704e-15 0)
(3 -5.14993203e-15 0)
(3 -4.691056333e-15 0)
(3 -4.333953076e-15 0)
(3 -3.908732262e-15 0)
(3 -3.436121369e-15 0)
(3 -3.697434498e-15 0)
(3 -4.580411281e-15 0)
(3 -5.032486187e-15 0)
(3 -4.892037157e-15 0)
(3 -4.611108645e-15 0)