/*--------------------------------*- C++ -*----------------------------------*\
  =========                 |
  \\      /  F ield         | OpenFOAM: The Open Source CFD Toolbox
   \\    /   O peration     | Website:  https://openfoam.org
    \\  /    A nd           | Version:  7
     \\/     M anipulation  |
\*---------------------------------------------------------------------------*/
FoamFile
{
    version     2.0;
    format      ascii;
    class       volVectorField;
    location    "0.6";
    object      U;
}
// * * * * * * * * * * * * * * * * * * * * * * * * * * * * * * * * * * * * * //

dimensions      [0 1 -1 0 0 0 0];

internalField   nonuniform List<vector> 
555
(
(2.850444324 -0.002626003914 0)
(2.850447305 -0.001238752561 0)
(2.850417938 0.0001705021557 0)
(2.850563524 0.0009564517297 0)
(2.850758342 0.001064646564 0)
(2.851144641 0.0008948088859 0)
(2.851092504 0.0006507138974 0)
(2.850936533 0.0003288482 0)
(2.850777019 5.868394886e-05 0)
(2.850200449 0.0002966609362 0)
(2.849302486 0.0006731306061 0)
(2.856843554 0.002401446304 0)
(2.855294091 -0.00459279964 0)
(2.855318139 -0.003508489374 0)
(2.854796338 -0.002962448655 0)
(2.854155855 -0.004282582998 0)
(2.85417726 -0.004430214483 0)
(2.854759821 -0.00345532875 0)
(2.855012904 -0.002288488897 0)
(2.855082151 -0.0009161935918 0)
(2.85516594 -1.742696798e-05 0)
(2.854991653 0.0004027401105 0)
(2.854865923 0.0008889334681 0)
(2.854313987 0.001091743734 0)
(2.853865924 0.0007230075584 0)
(2.853395148 0.0002349170013 0)
(2.852740008 0.0005939318509 0)
(2.851920402 0.001430038957 0)
(2.862977073 0.003100527624 0)
(2.860926982 -0.004103933936 0)
(2.860846172 -0.002765449458 0)
(2.860198769 -0.001916681398 0)
(2.859626067 -0.003242715735 0)
(2.859567344 -0.003650109185 0)
(2.860229273 -0.003246704154 0)
(2.860699384 -0.002431828093 0)
(2.860822193 -0.001408715729 0)
(2.860880249 -0.0006130435314 0)
(2.860620342 3.743142919e-05 0)
(2.860101784 0.001019270754 0)
(2.859652415 0.001497296539 0)
(2.858878977 0.001233854789 0)
(2.857950266 0.0007130815147 0)
(2.857308044 0.001023676267 0)
(2.856720251 0.001740763203 0)
(2.869522351 0.00384173332 0)
(2.867893628 -0.003434857386 0)
(2.867825254 -0.00221455361 0)
(2.867194466 -0.001123625609 0)
(2.866693603 -0.00204623143 0)
(2.866500194 -0.002747409466 0)
(2.866770195 -0.002685535695 0)
(2.86709641 -0.002062696318 0)
(2.867132792 -0.001220245112 0)
(2.867092992 -0.0004776245232 0)
(2.866825983 0.0001288956379 0)
(2.866680432 0.001084615482 0)
(2.86639048 0.001642186911 0)
(2.865743886 0.001132038676 0)
(2.864711586 0.0005725953843 0)
(2.863855474 0.0007688037121 0)
(2.863085975 0.00131326793 0)
(2.874709162 -0.002277873055 0)
(2.874852046 -0.0009021724169 0)
(2.874291876 0.0004093055754 0)
(2.873582338 -0.000317744017 0)
(2.873341662 -0.001601312768 0)
(2.873657056 -0.001768554205 0)
(2.873944291 -0.001426353882 0)
(2.873819906 -0.0007097580223 0)
(2.873638523 -0.0002399826533 0)
(2.873548841 0.0002429498595 0)
(2.873478559 0.0008571565635 0)
(2.873144008 0.0009717449259 0)
(2.87251428 0.0005953841415 0)
(2.87141392 0.0002292628101 0)
(2.870485174 0.0001014586586 0)
(2.869575387 0.0003066594488 0)
(2.880917424 -0.001265432194 0)
(2.881104921 -7.734349577e-05 0)
(2.880926701 0.001368974827 0)
(2.880194232 0.001123638515 0)
(2.87978094 -0.0007379949448 0)
(2.87998879 -0.0008292389079 0)
(2.8802589 -0.000745540261 0)
(2.880168868 -0.0002450896313 0)
(2.879948467 -0.0001903483068 0)
(2.879726461 1.498185934e-05 0)
(2.879416449 -0.0002026042908 0)
(2.879123796 -0.0004790008524 0)
(2.878162547 -0.0005109397406 0)
(2.87705043 -0.0005082303573 0)
(2.87618517 -0.0006406527385 0)
(2.875357198 -0.0005225609987 0)
(2.886412775 -0.001136947317 0)
(2.88674222 -0.0002524433906 0)
(2.886735654 0.001174568474 0)
(2.886066219 0.001102377437 0)
(2.885246416 -0.0008595721036 0)
(2.885354055 -0.001013726981 0)
(2.88555023 -0.0007813289473 0)
(2.885541356 -0.0003644635715 0)
(2.885118679 -0.0005574211509 0)
(2.884573146 -0.0009499029128 0)
(2.884414838 -0.001241684682 0)
(2.884145107 -0.0009606607494 0)
(2.883214083 -0.0004059412591 0)
(2.882375612 -0.000130026343 0)
(2.881529093 -0.0001049068662 0)
(2.880699399 -4.349753267e-06 0)
(2.890229505 -0.002448763967 0)
(2.890587842 -0.001527691543 0)
(2.890500962 -0.0004996002588 0)
(2.889779436 -0.0009740211685 0)
(2.888799172 -0.002804057141 0)
(2.888733235 -0.002517371981 0)
(2.889014235 -0.002127007393 0)
(2.889121029 -0.001701765078 0)
(2.888723991 -0.001756162947 0)
(2.888415554 -0.001648238001 0)
(2.888384569 -0.001155525733 0)
(2.887755287 -0.0005995302811 0)
(2.887098459 0.0002740904974 0)
(2.886519664 0.0004886415842 0)
(2.88597664 0.0006207805209 0)
(2.885386317 0.0008868677733 0)
(2.884991058 0.0009335255192 0)
(2.893032588 -0.004507466264 0)
(2.89318187 -0.00393962557 0)
(2.893206304 -0.002947827293 0)
(2.892752715 -0.003220604117 0)
(2.891448604 -0.004974764285 0)
(2.891151701 -0.004448419175 0)
(2.891323496 -0.003960433015 0)
(2.891541494 -0.003321401391 0)
(2.891624287 -0.002362158191 0)
(2.891369117 -0.001484790602 0)
(2.890922818 -0.0007972605574 0)
(2.890664738 5.808913226e-05 0)
(2.890571489 0.0007841007876 0)
(2.8904374 0.0007584277731 0)
(2.890010658 0.0009848450793 0)
(2.889503438 0.001592155443 0)
(2.889183462 0.001692524746 0)
(2.89549335 -0.00520530558 0)
(2.895382982 -0.005098186649 0)
(2.895366628 -0.003806449744 0)
(2.894812273 -0.003817807265 0)
(2.893489291 -0.005473818085 0)
(2.893183765 -0.004738184812 0)
(2.89316962 -0.004223097953 0)
(2.893407885 -0.003480291992 0)
(2.893680677 -0.002227477744 0)
(2.893606188 -0.001135829154 0)
(2.893235005 -0.0001046867926 0)
(2.893455576 0.0007856104427 0)
(2.893826457 0.00111827345 0)
(2.893880093 0.0006829388692 0)
(2.893552216 0.001010771524 0)
(2.893168945 0.001678140103 0)
(2.892767147 0.001777976307 0)
(2.897486646 -0.004997980235 0)
(2.897254615 -0.004935865655 0)
(2.897086448 -0.003652002258 0)
(2.896416454 -0.003743102387 0)
(2.89502196 -0.005267376277 0)
(2.894651098 -0.004427355501 0)
(2.894453726 -0.0037866944 0)
(2.894697488 -0.003122104585 0)
(2.895354711 -0.001998989855 0)
(2.895658467 -0.0007401458755 0)
(2.895745244 0.000536279139 0)
(2.896002543 0.001011758728 0)
(2.896302416 0.0005350136145 0)
(2.896391825 3.995155741e-05 0)
(2.896360918 0.00045919597 0)
(2.896110396 0.001071034262 0)
(2.89587407 0.001249193997 0)
(2.899364816 -0.00433194858 0)
(2.899225793 -0.004571569589 0)
(2.898955466 -0.00287024929 0)
(2.898327491 -0.002851130416 0)
(2.896729032 -0.004730271828 0)
(2.896130517 -0.003681287407 0)
(2.895886047 -0.00298532353 0)
(2.896321384 -0.00250876546 0)
(2.897140106 -0.001452683709 0)
(2.897817557 -0.0003539373348 0)
(2.898336087 0.0004863758346 0)
(2.89876553 0.0004458640127 0)
(2.898863609 -0.000367700011 0)
(2.899015159 -0.0005357293675 0)
(2.899107453 -0.000168013179 0)
(2.898913244 0.0003831590679 0)
(2.898733698 0.0004913172697 0)
(2.900295049 -0.003689097061 0)
(2.8999363 -0.001529905528 0)
(2.899310104 -0.001567176084 0)
(2.897920932 -0.003197990311 0)
(2.897491654 -0.002220498875 0)
(2.897350976 -0.001743579766 0)
(2.898074752 -0.001504686983 0)
(2.899145196 -0.0008774304504 0)
(2.900452317 -0.0004951836891 0)
(2.901153391 -0.0001233475114 0)
(2.90144475 -0.0004940664981 0)
(2.901630875 -0.000922835861 0)
(2.901741686 -0.0007933638181 0)
(2.902071237 -0.0004573617394 0)
(2.901871386 0.0001651746996 0)
(2.901840121 0.0002001824725 0)
(2.900780174 -0.002989775255 0)
(2.900567843 -0.0005085884352 0)
(2.899899557 -5.526979391e-05 0)
(2.898635753 -0.001572795288 0)
(2.898576105 -0.0007625725057 0)
(2.898950283 -0.0004998843043 0)
(2.900086414 -0.000649140624 0)
(2.901773945 -0.0007290609556 0)
(2.903325937 -0.001025925492 0)
(2.904145528 -0.001255747984 0)
(2.90453464 -0.001306663535 0)
(2.90469286 -0.0008388370725 0)
(2.904677401 -0.0004180624932 0)
(2.905109339 -0.0004118993381 0)
(2.905347465 0.0003597907624 0)
(2.905658154 0.0007474135791 0)
(2.901058753 -0.002769820549 0)
(2.901222405 -0.0001448585259 0)
(2.900751734 0.0009881906148 0)
(2.899991041 -0.0006893687351 0)
(2.90051741 -0.0005641750508 0)
(2.901602235 -0.0004117816149 0)
(2.902951663 -0.0007794460048 0)
(2.904653907 -0.0008909836755 0)
(2.906441196 -0.00153955755 0)
(2.907278417 -0.001593126462 0)
(2.907671848 -0.001127937871 0)
(2.907893343 -9.226475166e-05 0)
(2.908147659 0.0002196414503 0)
(2.908492946 4.011761967e-05 0)
(2.908894425 0.000761111709 0)
(2.9093574 0.001340326125 0)
(2.901233883 -0.003013420181 0)
(2.902192484 -0.0003758494683 0)
(2.901962351 0.001043871545 0)
(2.901791599 -0.001185773783 0)
(2.902829686 -0.001586587425 0)
(2.904431443 -0.001472914833 0)
(2.905812463 -0.001708483653 0)
(2.907944032 -0.001684633953 0)
(2.909734692 -0.001927674237 0)
(2.910675486 -0.001425757196 0)
(2.911300079 -0.0005871844522 0)
(2.912025571 0.0006063525229 0)
(2.912697493 0.0007311130928 0)
(2.91317033 0.000555416536 0)
(2.913703875 0.001033286794 0)
(2.914009467 0.001914883524 0)
(2.902866045 -0.003947998627 0)
(2.904247682 -0.00137050706 0)
(2.904671634 -0.0002768481919 0)
(2.904712104 -0.002634695305 0)
(2.905907941 -0.003164714701 0)
(2.907405385 -0.002898895933 0)
(2.908937767 -0.003036573363 0)
(2.911125083 -0.002679247843 0)
(2.913097879 -0.002066986676 0)
(2.91465153 -0.001230405347 0)
(2.916026279 -0.0002097355673 0)
(2.917183041 0.0006188009943 0)
(2.918022631 0.0007208528778 0)
(2.918966836 0.0006284795882 0)
(2.920162451 0.001248082494 0)
(2.920751575 0.001835101198 0)
(2.905870501 -0.005019904746 0)
(2.906904857 -0.0027153324 0)
(2.908027124 -0.0005729355956 0)
(2.907827393 -0.002976567115 0)
(2.909422754 -0.003413236533 0)
(2.910961673 -0.003186403394 0)
(2.912455229 -0.003331406132 0)
(2.914265159 -0.003134384855 0)
(2.916413807 -0.002520306295 0)
(2.918633492 -0.001493133094 0)
(2.920569485 -0.0003696268811 0)
(2.92204565 5.760809129e-05 0)
(2.923298846 9.729165023e-05 0)
(2.925141314 0.0003921437669 0)
(2.926666635 0.001495292033 0)
(2.927554155 0.002133597695 0)
(2.911712814 -0.005381840326 0)
(2.910733962 -0.003042566985 0)
(2.910953173 -0.0006018064136 0)
(2.910949971 -0.003205175723 0)
(2.913823443 -0.003126578122 0)
(2.915857005 -0.002965461272 0)
(2.91694777 -0.003233185851 0)
(2.918190636 -0.003288518509 0)
(2.920033676 -0.002652534315 0)
(2.922418875 -0.002048235475 0)
(2.92406262 -0.001740150077 0)
(2.925389789 -0.001742271508 0)
(2.92721028 -0.001672448252 0)
(2.930089631 -0.001083603229 0)
(2.932125266 0.0003002091187 0)
(2.933186306 0.0009798697016 0)
(2.919522886 -0.005282763101 0)
(2.916243269 -0.002094420934 0)
(2.91459281 -0.0003389249889 0)
(2.91478502 -0.003169594661 0)
(2.918616473 -0.002365283499 0)
(2.920883624 -0.001890727894 0)
(2.921151527 -0.002208014515 0)
(2.922120908 -0.002440702374 0)
(2.923875999 -0.002341238349 0)
(2.925970068 -0.002248134565 0)
(2.92742598 -0.002591785222 0)
(2.928648234 -0.002663038891 0)
(2.930462634 -0.002268650455 0)
(2.933659606 -0.001310239244 0)
(2.936174086 -0.0002577880516 0)
(2.937077414 -0.0002273927081 0)
(2.936416865 -0.002693561576 0)
(2.94182414 0.0007014917951 0)
(2.942121954 -0.0006526270152 0)
(2.942492179 -0.002800174726 0)
(2.944036586 -0.002067957864 0)
(2.9440419 -0.001092002865 0)
(2.94324798 -0.001115491621 0)
(2.94358701 -0.001780883795 0)
(2.945063715 -0.00238231082 0)
(2.946270204 -0.002640320555 0)
(2.947189201 -0.002971671745 0)
(2.947848381 -0.002781789275 0)
(2.948956403 -0.002497621811 0)
(2.95079926 -0.001793791517 0)
(2.952193006 -0.000412263445 0)
(2.953107168 0.0005468773462 0)
(3.000986435 -0.01440971595 0)
(2.995653889 0.0024600699 0)
(2.988747012 -0.001862742745 0)
(2.988605435 -0.003891920738 0)
(2.98837318 -0.002914707271 0)
(2.984204971 -0.001746164088 0)
(2.982190254 -0.002003606306 0)
(2.980271974 -0.003534220713 0)
(2.980527559 -0.004424114155 0)
(2.980411443 -0.004091594064 0)
(2.979930926 -0.003717880461 0)
(2.979217161 -0.003809658924 0)
(2.979072372 -0.003624568457 0)
(2.978991487 -0.002952370488 0)
(2.978837516 -0.001133903418 0)
(2.979192736 0.0001502537097 0)
(3.052334018 -0.03657783356 0)
(3.03617447 -0.01016426702 0)
(3.022446205 -0.01641647387 0)
(3.015545063 -0.0058995406 0)
(3.01069637 -0.0001759330833 0)
(3.008219832 -0.0004152971976 0)
(3.00453989 -0.002094417374 0)
(3.002566174 -0.003397232478 0)
(3.001471352 -0.003722967124 0)
(3.001293615 -0.002660939483 0)
(2.999564189 -0.00279367988 0)
(2.998538802 -0.003244640138 0)
(2.997009195 -0.003955523629 0)
(2.996233395 -0.003463448437 0)
(2.995506979 -0.001776871349 0)
(2.995449477 -0.0008583287656 0)
(3.079578218 -0.2360994533 0)
(3.048090253 -0.09438455561 0)
(3.052352527 -0.0734549218 0)
(3.027007525 -0.01844093169 0)
(3.023047605 -0.005143389405 0)
(3.014209416 -0.004004637964 0)
(3.01032403 -0.002846544257 0)
(3.008264609 -0.002217941345 0)
(3.00731702 -0.001383127453 0)
(3.006449489 0.0006742102405 0)
(3.004736731 0.001264066955 0)
(3.003787411 -6.225913403e-05 0)
(3.001300468 -0.002718262864 0)
(3.000308631 -0.003172272955 0)
(2.999480249 -0.002479148714 0)
(2.99897199 -0.00131068444 0)
(3.094367624 -0.3625543928 0)
(3.075361809 -0.2842134743 0)
(3.06129303 -0.174052364 0)
(3.026525144 -0.02848022105 0)
(3.030413121 -0.05308105634 0)
(3.014394391 -0.01739440791 0)
(3.006042864 -0.002733207607 0)
(3.00032714 -0.003200126243 0)
(3.000576918 -0.001526242645 0)
(3.001294019 0.0006542894919 0)
(3.001974989 0.001454580613 0)
(3.000604496 -0.0001503721069 0)
(2.997459488 -0.003397035467 0)
(2.997191132 -0.003608558866 0)
(2.997034138 -0.002547260038 0)
(2.99671471 -0.0007972659274 0)
(3.10349979 -0.3906759871 0)
(3.097335854 -0.3810413718 0)
(3.08663549 -0.3414111056 0)
(3.055218548 -0.2288494217 0)
(3.052602023 -0.1593688332 0)
(3.015914642 -0.03042266542 0)
(3.004170774 0.02743114461 0)
(2.981525049 -0.003797584922 0)
(2.988550171 -0.004799914981 0)
(2.995603156 -0.005733862938 0)
(2.997975085 -0.004827866755 0)
(2.995665046 -0.00414484817 0)
(2.9948315 -0.004119839325 0)
(2.994413631 -0.003388566097 0)
(2.994536479 -0.002090509247 0)
(2.994518618 -0.0002553395642 0)
(3.091065003 -0.3749810663 0)
(3.094471248 -0.3818834699 0)
(3.096309086 -0.3782590408 0)
(3.091587446 -0.3566722881 0)
(3.07717513 -0.2907258313 0)
(3.043738645 -0.1723144742 0)
(3.035694799 -0.1102968598 0)
(3.035355646 -0.06323557126 0)
(3.011662047 -0.02718253975 0)
(3.004964152 -0.02061272732 0)
(2.996329206 -0.009848518036 0)
(2.995034799 -0.006231564021 0)
(2.993409763 -0.002970106635 0)
(2.992676125 -0.00187057736 0)
(2.992578986 -0.001346583456 0)
(2.992409002 -0.001151690567 0)
(3.091143222 -0.3651277622 0)
(3.094402485 -0.3845599364 0)
(3.102145104 -0.3826057381 0)
(3.101344393 -0.3742109091 0)
(3.097854948 -0.368624909 0)
(3.083848904 -0.3339833163 0)
(3.061040899 -0.2362896207 0)
(3.05783899 -0.1355890551 0)
(3.025943808 0.001138598644 0)
(3.009312393 -0.02624904569 0)
(3.002920684 -0.009024559277 0)
(2.998267884 0.0006660627535 0)
(2.993296901 -0.001302121128 0)
(2.990912191 -0.004376538031 0)
(2.991250954 -0.004148070073 0)
(2.992105692 -0.004311817271 0)
(3.085152354 -0.2998038737 0)
(3.085122821 -0.3268317956 0)
(3.086481533 -0.3413041285 0)
(3.090119303 -0.3530797828 0)
(3.092324742 -0.3616604048 0)
(3.093584285 -0.3660394199 0)
(3.089854452 -0.3464500115 0)
(3.082196138 -0.301162288 0)
(3.057042586 -0.1988202191 0)
(3.050365889 -0.136938337 0)
(3.0149018 -0.02421844019 0)
(3.005086787 0.01953779719 0)
(2.991165856 -0.002796759283 0)
(2.991352908 -0.008190052402 0)
(2.992397822 -0.006960035207 0)
(2.993793836 -0.007314211898 0)
(3.06239553 -0.2412118917 0)
(3.075488646 -0.2856902356 0)
(3.07970498 -0.3289377571 0)
(3.085901421 -0.3390187116 0)
(3.09377738 -0.3534905917 0)
(3.09240634 -0.3711580676 0)
(3.09708894 -0.3642277017 0)
(3.095821245 -0.3543728497 0)
(3.084617906 -0.3249612011 0)
(3.068051132 -0.254079819 0)
(3.039755717 -0.1452296753 0)
(3.033843345 -0.1006642735 0)
(3.029299661 -0.04958002636 0)
(3.01143777 -0.02466419668 0)
(3.000221577 -0.01341986955 0)
(2.996407008 -0.008454560388 0)
(3.058125957 -0.2273041041 0)
(3.068560476 -0.2487517738 0)
(3.073928358 -0.2838713554 0)
(3.07694061 -0.290793567 0)
(3.074415005 -0.2866990667 0)
(3.081570858 -0.3227215692 0)
(3.085218239 -0.3396870552 0)
(3.089491934 -0.3444102805 0)
(3.090474149 -0.3485546201 0)
(3.08811917 -0.3423559607 0)
(3.07744436 -0.3022278413 0)
(3.052412863 -0.1914793651 0)
(3.056381001 -0.1258638542 0)
(3.024620424 0.008951250524 0)
(2.996938829 -0.000835419824 0)
(2.997537014 0.001563395647 0)
(3.046413765 -0.1665431365 0)
(3.051672097 -0.1801652546 0)
(3.054388574 -0.2111204103 0)
(3.063243953 -0.2546488894 0)
(3.068136912 -0.2704425626 0)
(3.079268582 -0.3020535586 0)
(3.082372492 -0.3339996743 0)
(3.087052776 -0.3342865155 0)
(3.090561481 -0.3512549978 0)
(3.092370837 -0.3513795056 0)
(3.091106063 -0.3459646515 0)
(3.083895052 -0.3214337524 0)
(3.070612429 -0.266284443 0)
(3.046490561 -0.1658038125 0)
(3.058104135 -0.1363319584 0)
(3.017933199 -0.05390207402 0)
(3.030628814 -0.1145188297 0)
(3.038605632 -0.1431776026 0)
(3.04736619 -0.1791138985 0)
(3.055440951 -0.2191991142 0)
(3.062591355 -0.2398300838 0)
(3.07073643 -0.2487652492 0)
(3.073065375 -0.2750733091 0)
(3.074888856 -0.2885340591 0)
(3.071897209 -0.2904456649 0)
(3.084534443 -0.3244537018 0)
(3.086304681 -0.3337797047 0)
(3.086397298 -0.3340322477 0)
(3.084740637 -0.3306675021 0)
(3.072797677 -0.2959856915 0)
(3.061821769 -0.2066885693 0)
(3.027780677 -0.0904366376 0)
(3.018966044 -0.07448091714 0)
(3.028093521 -0.1065226988 0)
(3.037721457 -0.1341890959 0)
(3.042106993 -0.1590296943 0)
(3.04750988 -0.1857593025 0)
(3.05299645 -0.1999725906 0)
(3.063580135 -0.2352113433 0)
(3.068882897 -0.2704231752 0)
(3.073153269 -0.2813803838 0)
(3.083240922 -0.3107585941 0)
(3.083902502 -0.3291323925 0)
(3.086787415 -0.3355041321 0)
(3.087798049 -0.334253058 0)
(3.086194072 -0.333392792 0)
(3.079755322 -0.3139306147 0)
(3.067389492 -0.2692997622 0)
(3.00164114 -0.01524001261 0)
(3.012493548 -0.05351440211 0)
(3.022182236 -0.08416830991 0)
(3.030445993 -0.1154227145 0)
(3.038130952 -0.1513557843 0)
(3.046140204 -0.1803116873 0)
(3.05592745 -0.2012338085 0)
(3.062347173 -0.2283492155 0)
)
;

boundaryField
{
    inlet
    {
        type            fixedValue;
        value           nonuniform 0();
    }
    outlet
    {
        type            inletOutlet;
        inletValue      nonuniform 0();
        value           nonuniform 0();
    }
    bottom
    {
        type            slip;
    }
    top
    {
        type            slip;
    }
    obstacle
    {
        type            slip;
    }
    defaultFaces
    {
        type            empty;
    }
    procBoundary28to21
    {
        type            processor;
        value           nonuniform List<vector> 8((2.859544301 0.00133075226 0) (2.865912477 -0.0002695949421 0) (2.872018579 -0.001131903811 0) (2.876345094 0.005711578663 0) (2.876345094 0.005711578663 0) (2.883045463 0.00746924537 0) (2.888168167 0.008167049181 0) (2.891694701 0.007684032398 0));
    }
    procBoundary28to22
    {
        type            processor;
        value           nonuniform List<vector> 
18
(
(2.848239291 -0.001630073148 0)
(2.848343121 -0.0005012349589 0)
(2.848383663 0.0006777221027 0)
(2.848757975 0.001184076185 0)
(2.849212138 0.001263567325 0)
(2.849463508 0.001089442603 0)
(2.84992783 0.0003057178846 0)
(2.850067573 -0.0001421108271 0)
(2.849899421 -0.0004836985534 0)
(2.849516195 -0.0005949879716 0)
(2.848877241 -0.0005757662284 0)
(2.851626973 0.002417084282 0)
(2.850789946 -0.0044039242 0)
(2.851164453 -0.003619943133 0)
(2.850971408 -0.003478063253 0)
(2.850454685 -0.004969204815 0)
(2.850459083 -0.004701152194 0)
(2.850459083 -0.004701152194 0)
)
;
    }
    procBoundary28to23
    {
        type            processor;
        value           uniform (2.848905111 0.00090701398 0);
    }
    procBoundary28to27
    {
        type            processor;
        value           nonuniform List<vector> 
28
(
(2.894502975 0.006428195006 0)
(2.897106121 0.006560932885 0)
(2.900154046 0.008093779832 0)
(2.902591346 0.009543426058 0)
(2.900725832 -0.003593959773 0)
(2.900725832 -0.003593959773 0)
(2.901728909 -0.003319053839 0)
(2.900725144 -0.003044070863 0)
(2.896482294 -0.003000277578 0)
(2.892073013 -0.00244883769 0)
(2.890861825 -0.002355516481 0)
(2.893557944 -0.003370803114 0)
(2.899275085 -0.004560737583 0)
(2.924153402 -0.0004074513235 0)
(3.033922381 -0.05107758522 0)
(3.094110295 -0.1679835878 0)
(3.096123129 -0.3251102533 0)
(3.10115414 -0.393780747 0)
(3.104607041 -0.3898173726 0)
(3.093890653 -0.3564842566 0)
(3.083115272 -0.3300866703 0)
(3.080648676 -0.2980962371 0)
(3.062115183 -0.2295589222 0)
(3.051099163 -0.1926249335 0)
(3.038193988 -0.1361436089 0)
(3.019888404 -0.07335001463 0)
(3.006011613 -0.02776169711 0)
(2.988711438 0.02427327827 0)
)
;
    }
    procBoundary28to29
    {
        type            processor;
        value           nonuniform List<vector> 
34
(
(2.851877152 0.00164442295 0)
(2.856697248 0.001806063323 0)
(2.862718831 0.001329675301 0)
(2.868937372 0.00035026498 0)
(2.874873356 -0.0002515718639 0)
(2.880205712 0.0001320142361 0)
(2.880205712 0.0001320142361 0)
(2.885038913 0.000856342228 0)
(2.889238519 0.001378581123 0)
(2.892844414 0.001279911861 0)
(2.895800789 0.0005967525824 0)
(2.898663513 -0.0002621479754 0)
(2.901946644 -6.820410078e-05 0)
(2.905808008 0.0008071540831 0)
(2.909682629 0.001861282575 0)
(2.914703827 0.002502561957 0)
(2.921596832 0.002266152918 0)
(2.928104698 0.002175644545 0)
(2.933518966 0.0008244916105 0)
(2.937453209 -0.0006455734501 0)
(2.95345264 0.0005781740008 0)
(2.979385106 0.0007178511966 0)
(2.995021663 -0.0001393751592 0)
(2.998749781 -0.00066387715 0)
(2.996839654 -0.0001765415045 0)
(2.994471655 5.550478355e-05 0)
(2.992087719 -0.001540094233 0)
(2.991327683 -0.005298752188 0)
(2.992836007 -0.006873550732 0)
(2.996459022 -0.004181971202 0)
(2.999610267 0.008665184678 0)
(3.003307318 0.001467427035 0)
(3.019098415 -0.06883066308 0)
(3.037021977 -0.1489074556 0)
)
;
    }
    procBoundary28to34
    {
        type            processor;
        value           nonuniform List<vector> 
17
(
(3.067690793 -0.239503914 0)
(3.068812477 -0.2448274269 0)
(3.073558519 -0.2815583366 0)
(3.073938041 -0.2867915692 0)
(3.076526069 -0.2979631421 0)
(3.083110254 -0.3203701283 0)
(3.08259485 -0.3237633545 0)
(3.080929293 -0.3170442112 0)
(2.987816515 0.02794796515 0)
(2.999999328 -0.01019577917 0)
(3.011012409 -0.04866377662 0)
(3.019549862 -0.07553409124 0)
(3.028973592 -0.1115030044 0)
(3.036275492 -0.1377054086 0)
(3.043632911 -0.1533753835 0)
(3.067690793 -0.239503914 0)
(3.051724036 -0.1831121419 0)
)
;
    }
}


// ************************************************************************* //
