/*--------------------------------*- C++ -*----------------------------------*\
  =========                 |
  \\      /  F ield         | OpenFOAM: The Open Source CFD Toolbox
   \\    /   O peration     | Website:  https://openfoam.org
    \\  /    A nd           | Version:  7
     \\/     M anipulation  |
\*---------------------------------------------------------------------------*/
FoamFile
{
    version     2.0;
    format      ascii;
    class       volScalarField;
    location    "0.9";
    object      p;
}
// * * * * * * * * * * * * * * * * * * * * * * * * * * * * * * * * * * * * * //

dimensions      [1 -1 -2 0 0 0 0];

internalField   nonuniform List<scalar> 
555
(
0.6718829521
0.6574915964
0.6348267483
0.6222219279
0.6211331307
0.9687967099
0.9201465533
0.8795726025
0.8379335655
0.799668048
0.778976352
0.7482593776
0.7176277794
0.6948215817
0.676227981
0.6510623581
0.6347759293
0.6221452194
0.6094818788
0.6110199848
0.6188843903
0.9057052972
0.8624708633
0.8235804369
0.7805187439
0.7497163276
0.7269415155
0.7037925417
0.6810969744
0.6658066931
0.6440124979
0.6198856467
0.6137030278
0.6071849281
0.6074371753
0.6203412239
0.6807048987
0.841261839
0.8046616295
0.7711705925
0.7362405437
0.7115920691
0.684176757
0.6585688975
0.6367235841
0.6239290192
0.6036048685
0.5975045417
0.6010149027
0.6117707674
0.6455353513
0.7184279027
0.8364904281
0.7812605035
0.7435299895
0.7083845178
0.6893099261
0.6678043876
0.6496349609
0.6241318618
0.6103725585
0.6022387828
0.5937150492
0.5959000607
0.6156408939
0.6883280781
0.7795354937
0.8879347195
0.926913652
0.7341382187
0.697421071
0.6670048456
0.6413361202
0.6176204024
0.602548002
0.5893997785
0.5904640443
0.5928236193
0.6000761921
0.6446632512
0.7340671203
0.8419072223
0.9278495123
0.989609679
0.9870568604
0.6691191119
0.6433183192
0.6320048975
0.6096410544
0.5968347081
0.5868056705
0.5822475632
0.5864398063
0.6121157207
0.6779202526
0.7982600398
0.9207588184
0.9603723459
0.9792263113
1.000186833
1.000220708
0.615614359
0.5995539167
0.5891653484
0.5757366739
0.576614619
0.5793907227
0.5921078783
0.6467286126
0.7399045187
0.8586715537
0.9093772139
0.9620508503
0.974234601
0.9798213778
0.9915443139
0.9970227244
0.5889775304
0.581717354
0.5711685298
0.5681817444
0.5736245551
0.6126088847
0.6925602772
0.8122372787
0.9149944944
0.9816728558
0.9838562367
0.9867088748
0.9874661563
0.9859139743
0.9908273018
0.9961155141
0.559443396
0.5630460955
0.5657015927
0.583109244
0.6448436473
0.7684135797
0.8900566866
0.9320820169
0.9575901218
0.9927067362
0.9975823622
0.9956525215
0.9955184401
0.9953556294
0.9965026993
0.9975196962
0.55520105
0.5639410232
0.6127738642
0.7032554443
0.8296066296
0.8993944506
0.973336621
0.989343342
0.983955818
0.9903037584
0.9945040822
0.9954158984
0.9959356683
0.9968493847
0.9981722676
0.9993217831
0.5830072179
0.6582799446
0.7819091496
0.8921899799
0.9787146856
0.9816725473
0.9886161988
0.9981397958
0.9982382051
0.9967689014
0.995050293
0.9935474972
0.9942071414
0.9960375266
0.9978827276
0.999015487
0.7282494926
0.8746571174
0.9238311693
0.9620253453
0.9932934592
0.9935468351
0.9925935129
0.9955101884
0.9972390154
0.9959977385
0.996063782
0.9949076827
0.9942115316
0.9946597202
0.9956932239
0.9967146396
0.8945093723
0.9706357998
0.9833667594
0.9864121047
0.9930726591
0.9943242553
0.9922270436
0.9916772726
0.9936686049
0.9951845033
0.9967556133
0.9966012632
0.9955517982
0.9952846194
0.9954714587
0.9960807921
0.9652046172
0.9891256821
1.000940539
0.995471638
0.9934338768
0.9935735434
0.993391162
0.9930041033
0.9932913544
0.9943985
0.9955520322
0.9967175644
0.9969819536
0.9973200646
0.9976813243
0.9980192465
0.9874315037
0.9864551791
0.9922839524
0.9947558614
0.9945117636
0.9946859619
0.9948995326
0.9949119368
0.9946972756
0.9946633695
0.9948894182
0.9953309639
0.9962574054
0.9978105343
0.9990849466
0.9998033648
0.9901830518
0.985313651
0.9908795959
0.9948955015
0.9952333383
0.9954601175
0.9954839405
0.9949246816
0.9942999175
0.9938145477
0.994105742
0.9954015237
0.9974217103
0.9990327013
0.9995234173
0.9983625953
0.9903344612
0.9855354851
0.9916304516
0.9951585794
0.995489397
0.9959444014
0.996054064
0.995262559
0.9938862451
0.9926677647
0.9923737618
0.9937731874
0.9970378641
0.9987833671
0.9988938067
0.9972573588
0.9910822773
0.9865694769
0.992996937
0.9952720022
0.9952388782
0.9954461523
0.995693176
0.9951837979
0.9938134689
0.9926694023
0.9921075001
0.9930506517
0.9961200237
0.9988397456
0.9995911399
0.9982915964
0.9905581469
0.9865266863
0.9934002295
0.9951042868
0.9949660835
0.9950923047
0.9952512943
0.9947417415
0.9938238682
0.993111526
0.9928189278
0.9935537673
0.9959610191
0.9990617998
1.000957827
0.9997572423
0.9901515009
0.9861642968
0.9929177036
0.9947036922
0.9949266381
0.9952239632
0.9953126093
0.9949137356
0.9944659313
0.9941627271
0.9941825164
0.9947584037
0.9966750723
0.9993210813
1.001262044
1.002985125
0.9904474967
0.9867432558
0.9927962843
0.9943788977
0.9949336662
0.9958616898
0.9961444692
0.9956800789
0.9957176393
0.9961237108
0.9961774242
0.9967113089
0.9980470086
1.000036384
1.001907379
1.00390436
0.9909935773
0.9879196738
0.9936616561
0.995555927
0.9963013068
0.9974163395
0.9978260418
0.9977003292
0.9980609712
0.9987465164
0.9989890818
0.9996893857
1.00042744
1.000677264
1.002229001
1.003899376
0.99086784
0.9890419069
0.9951056617
0.9967156442
0.9970795043
0.997885894
0.9982565266
0.99847437
0.9989323163
0.9995207932
0.9996887601
1.000330853
1.000761564
1.001016426
1.001583143
1.002027153
0.99475249
0.9904926085
0.9895701554
0.996153964
0.9972403504
0.9971557331
0.9974470534
0.9978094314
0.9981204964
0.9985270948
0.9990735274
0.9992093181
0.9996628511
0.99975833
1.000108863
0.9991005035
0.9991779678
0.9946321785
0.9898884532
0.9896966754
0.9963070551
0.997083253
0.9966896534
0.9963351711
0.99598828
0.9959433143
0.9962522541
0.9965359953
0.9964984294
0.9964479661
0.9965517217
0.9968285191
0.995986251
0.9967356253
0.9943167776
0.9900416891
0.9895827221
0.9953350291
0.9961097908
0.9955450227
0.9949477082
0.9942553019
0.9936032235
0.9934919037
0.9934880158
0.9933783601
0.993301418
0.9937579365
0.9940725974
0.9948026045
0.9954468799
0.9945566373
0.9907861872
0.9901713752
0.9953725727
0.9957824858
0.99514859
0.9944289044
0.9936643591
0.9927191779
0.9917836941
0.9913855465
0.9913307334
0.9918823333
0.9927892802
0.9934666764
0.9942235847
0.9949652233
0.9964604417
0.9935340746
0.9912196701
0.9960878175
0.9960149195
0.9954224747
0.9947909088
0.993829052
0.99235335
0.9911868789
0.9907092134
0.990700656
0.9915690968
0.9928441138
0.9941990133
0.9949629721
0.9948602709
0.9968782542
0.9951431409
0.9939132913
0.9985870332
0.9983094346
0.9975382479
0.9971176825
0.9961665264
0.994388889
0.9929536573
0.9921076833
0.9923238496
0.994332644
0.9966882846
0.9986749008
0.9991039564
0.9967675629
0.995302711
0.995285544
1.000160119
0.9997539102
0.9986741363
0.9983527534
0.9978293786
0.9971606767
0.9966439851
0.9962114683
0.996588002
0.998519859
1.000492806
1.001998899
1.00289239
0.9956136773
0.9945123969
0.9953686521
1.000135855
0.9997362719
0.9986749128
0.9984609445
0.9980097574
0.9980973082
0.9987803209
0.999100801
0.9996458358
1.001064107
1.002338415
1.003014845
1.003984595
0.9868898102
0.9946635655
0.9934232027
0.9940949222
0.9990609749
0.9990036568
0.9979809761
0.9977092072
0.9974686344
0.9979857052
0.9989659079
0.9995831776
1.000441627
1.001388493
1.002153281
1.002543804
1.003742293
0.9871399817
0.9942786348
0.9926852628
0.9928549808
0.9971427109
0.9972055217
0.996376215
0.9962922059
0.9962377498
0.9967316622
0.9978257267
0.9988048936
0.9993007534
0.9998928635
1.000382727
1.000785518
1.002073955
0.9893306238
0.9950752423
0.9925274068
0.9922081699
0.9957712304
0.9957599102
0.9949821566
0.9951105489
0.9952601733
0.9957829992
0.9965924745
0.9975012651
0.9982472273
0.9987826962
0.9992220064
)
;

boundaryField
{
    inlet
    {
        type            fixedValue;
        value           nonuniform 0();
    }
    outlet
    {
        type            zeroGradient;
    }
    bottom
    {
        type            slip;
    }
    top
    {
        type            slip;
    }
    obstacle
    {
        type            zeroGradient;
    }
    defaultFaces
    {
        type            empty;
    }
    procBoundary10to4
    {
        type            processor;
        value           nonuniform List<scalar> 
17
(
0.7045127307
0.6846514459
0.6653783044
0.6418675313
0.6324049736
1.03535924
0.9820141578
0.9405379631
0.8958583312
0.8491464801
0.8197488551
0.7911971031
0.7569873505
0.735884658
0.7180598784
0.694377259
0.694377259
)
;
    }
    procBoundary10to5
    {
        type            processor;
        value           uniform 0.6203535413;
    }
    procBoundary10to9
    {
        type            processor;
        value           nonuniform List<scalar> 
27
(
1.027726527
0.9561505571
0.8853130696
0.8232934547
0.7645288838
0.7009577171
0.6564980037
0.6106552479
0.5644726424
0.5543811742
0.5525153275
0.6102106738
0.7955760648
0.954997781
0.9967339342
0.9950331727
0.9958284797
0.9955556766
0.9955125026
0.995047309
0.9952981896
0.9949543332
0.9946757643
0.9946757643
0.9803743819
0.9815953898
0.9831128634
)
;
    }
    procBoundary10to11
    {
        type            processor;
        value           nonuniform List<scalar> 
34
(
0.647451046
0.7738499529
0.9412377867
0.9722280661
0.9892846475
0.9983267538
0.9984323774
0.9969307677
0.9973523898
0.9990862607
0.9991242764
0.9980601378
0.9969868685
0.9983202337
1.000202074
0.9978574147
0.996192787
0.9965588598
0.9980326467
1.003106186
1.00477273
1.005411725
1.004201863
1.000814941
0.9976499495
0.9959364826
0.9949734373
0.9941193665
0.9982445491
0.9982445491
1.00297768
1.00451051
1.004668799
1.004009329
)
;
    }
    procBoundary10to15
    {
        type            processor;
        value           nonuniform List<scalar> 9(0.9843572052 0.9861114121 0.9870328494 0.9870121553 0.9867667203 0.9867667203 0.9875999007 0.9887007947 0.990254951);
    }
    procBoundary10to16
    {
        type            processor;
        value           nonuniform List<scalar> 
18
(
0.9997137242
1.000766944
0.9914450388
0.9973408554
0.9947332094
0.992209807
0.9950197938
0.9948603684
0.9940440039
0.9941806848
0.9943788608
0.9948681151
0.9955681806
0.9964431125
0.9972016
0.9977344287
0.9997137242
0.9982145692
)
;
    }
}


// ************************************************************************* //
