/*--------------------------------*- C++ -*----------------------------------*\
  =========                 |
  \\      /  F ield         | OpenFOAM: The Open Source CFD Toolbox
   \\    /   O peration     | Website:  https://openfoam.org
    \\  /    A nd           | Version:  7
     \\/     M anipulation  |
\*---------------------------------------------------------------------------*/
FoamFile
{
    version     2.0;
    format      ascii;
    class       volVectorField;
    location    "3.5";
    object      U;
}
// * * * * * * * * * * * * * * * * * * * * * * * * * * * * * * * * * * * * * //

dimensions      [0 1 -1 0 0 0 0];

internalField   nonuniform List<vector> 
2222
(
(3.13663513 -0.8285441374 0)
(3.136580328 -0.8293859432 0)
(3.130049791 -0.7628671825 0)
(3.010509877 -0.1725509972 0)
(2.960054782 -0.002052597009 0)
(3.097784444 -0.819012471 0)
(3.153425532 -0.8315549071 0)
(3.264975435 -0.8658362359 0)
(3.400309236 -0.8613394705 0)
(3.373146741 -0.8805859084 0)
(3.21840006 -0.8612537571 0)
(3.115004327 -0.8443086161 0)
(3.056378256 -0.8031035998 0)
(3.038370663 -0.8027624929 0)
(3.049571329 -0.8113860283 0)
(3.068332546 -0.815544737 0)
(3.089863347 -0.8176469395 0)
(3.10405823 -0.820896894 0)
(3.113722388 -0.8250410486 0)
(3.1232038 -0.8262730702 0)
(3.126823686 -0.8257420353 0)
(3.128653709 -0.828328563 0)
(3.131984484 -0.8299089984 0)
(3.134755167 -0.828532015 0)
(3.134328905 -0.8287228809 0)
(3.133893352 -0.8294571198 0)
(3.134909294 -0.8290185103 0)
(3.134744727 -0.8281898367 0)
(3.133988102 -0.8284825188 0)
(3.134654931 -0.829030197 0)
(3.135335869 -0.8289648444 0)
(3.135180051 -0.8289307083 0)
(3.135099498 -0.8298218458 0)
(3.1363753 -0.82959699 0)
(3.136681676 -0.8292226459 0)
(3.136378818 -0.8294893448 0)
(3.136416852 -0.8221589349 0)
(3.1424286 -0.4524911432 0)
(2.960684826 -0.0006716773071 0)
(3.095724575 -0.8071860456 0)
(3.15110848 -0.8317409523 0)
(3.265346098 -0.8733024746 0)
(3.405742003 -0.8588591272 0)
(3.380378184 -0.8782354317 0)
(3.220199322 -0.8610377135 0)
(3.112903689 -0.8450841616 0)
(3.056643324 -0.8053074391 0)
(3.039841954 -0.8029009517 0)
(3.049258247 -0.8122459937 0)
(3.066524848 -0.8163362727 0)
(3.08935045 -0.8179026209 0)
(3.10411574 -0.8197807173 0)
(3.113666485 -0.8244091464 0)
(3.123958038 -0.8268086728 0)
(3.127379605 -0.8269857499 0)
(3.129150304 -0.8289188517 0)
(3.131750287 -0.8308152308 0)
(3.134322096 -0.8294333216 0)
(3.134023699 -0.8294153884 0)
(3.133670516 -0.8300402532 0)
(3.134771042 -0.8296247564 0)
(3.134788424 -0.8290027642 0)
(3.133927421 -0.8293563376 0)
(3.13433786 -0.8299998144 0)
(3.135470101 -0.8298856055 0)
(3.135312583 -0.8296930149 0)
(3.135006131 -0.8306624341 0)
(3.136296339 -0.8304153807 0)
(3.136684253 -0.8299602066 0)
(3.136464179 -0.8300677474 0)
(3.136890723 -0.8306754258 0)
(3.132176796 -0.5921124539 0)
(2.970750102 -0.1234226079 0)
(3.091255002 -0.80501079 0)
(3.149341834 -0.8366799117 0)
(3.26826793 -0.8776758343 0)
(3.40641048 -0.8566404915 0)
(3.383750984 -0.8760673378 0)
(3.220572608 -0.8610191701 0)
(3.110007097 -0.8448759868 0)
(3.056776987 -0.8071738187 0)
(3.040886178 -0.8020694435 0)
(3.048716526 -0.8110326069 0)
(3.064983293 -0.8156070047 0)
(3.088597501 -0.8176395002 0)
(3.103552126 -0.820103365 0)
(3.113212585 -0.8248133846 0)
(3.124034488 -0.8277804744 0)
(3.128689735 -0.828524122 0)
(3.130111711 -0.8296433693 0)
(3.13144798 -0.832021176 0)
(3.134055537 -0.8305500863 0)
(3.133862636 -0.8302707764 0)
(3.133395045 -0.8309548418 0)
(3.134550783 -0.8306146615 0)
(3.134949348 -0.8297717292 0)
(3.133968348 -0.830149021 0)
(3.134241883 -0.8309374705 0)
(3.135534899 -0.8306851859 0)
(3.135408196 -0.8304056886 0)
(3.135005995 -0.8313840528 0)
(3.136166364 -0.8311621473 0)
(3.136723218 -0.8306307683 0)
(3.136466064 -0.830641395 0)
(3.136569055 -0.8309658707 0)
(3.132627353 -0.7796336371 0)
(3.082145041 -0.3090042719 0)
(3.088774324 -0.8067601772 0)
(3.148509859 -0.8465805644 0)
(3.271533404 -0.8803578937 0)
(3.406942876 -0.856894819 0)
(3.384551754 -0.8744312709 0)
(3.219498905 -0.8614470902 0)
(3.106094484 -0.8444148042 0)
(3.056247435 -0.8089944282 0)
(3.042126264 -0.8004891028 0)
(3.049030711 -0.8102994908 0)
(3.064957131 -0.8161064419 0)
(3.087582512 -0.8185017816 0)
(3.102963078 -0.8212320666 0)
(3.112782934 -0.8256814288 0)
(3.123896122 -0.8291475126 0)
(3.129701938 -0.8292505143 0)
(3.130839635 -0.8301145975 0)
(3.131477669 -0.8328397721 0)
(3.133870456 -0.8314635115 0)
(3.133888279 -0.8309871243 0)
(3.133385509 -0.8316835746 0)
(3.134391513 -0.8314350576 0)
(3.135015656 -0.8304777036 0)
(3.134048222 -0.8307792353 0)
(3.134135945 -0.8316919459 0)
(3.135648743 -0.8313689648 0)
(3.135638203 -0.8308734059 0)
(3.135001835 -0.8312251901 0)
(3.136035549 -0.8314902484 0)
(3.136750535 -0.8307193724 0)
(3.136428702 -0.830462147 0)
(3.136486783 -0.8314471339 0)
(3.137209419 -0.8256740707 0)
(3.133107969 -0.4156579161 0)
(3.085146304 -0.8151032387 0)
(3.147251824 -0.8512939192 0)
(3.274328747 -0.8815085529 0)
(3.4093495 -0.8589500428 0)
(3.385269211 -0.8730683204 0)
(3.217258427 -0.8618656207 0)
(3.102820905 -0.8436810588 0)
(3.054883444 -0.810727664 0)
(3.042946167 -0.80004475 0)
(3.050737491 -0.8106214857 0)
(3.065632874 -0.8173055716 0)
(3.086511703 -0.8203953459 0)
(3.1026233 -0.8226078878 0)
(3.112714217 -0.8265985726 0)
(3.123566117 -0.8303674599 0)
(3.130394378 -0.8298892488 0)
(3.131579501 -0.8305546966 0)
(3.131602286 -0.8329967511 0)
(3.133775475 -0.8319627652 0)
(3.133996225 -0.8307877611 0)
(3.133325223 -0.8310607189 0)
(3.134188624 -0.8319172162 0)
(3.135136971 -0.8309662792 0)
(3.134000779 -0.8304873772 0)
(3.133839566 -0.8316069127 0)
(3.135661028 -0.8314520879 0)
(3.135807326 -0.830468373 0)
(3.135256622 -0.8305498277 0)
(3.136000474 -0.8311236153 0)
(3.136972449 -0.8305709991 0)
(3.13676193 -0.830186861 0)
(3.136546688 -0.8309686298 0)
(3.137093866 -0.8305112293 0)
(3.126917938 -0.6049666347 0)
(3.010545282 -0.1568055421 0)
(3.081813842 -0.8242665414 0)
(3.146486087 -0.8521922374 0)
(3.276038722 -0.882029275 0)
(3.411285104 -0.861604503 0)
(3.386570011 -0.8721057755 0)
(3.215294651 -0.8613984581 0)
(3.099312286 -0.841385506 0)
(3.05260221 -0.8119816377 0)
(3.043202333 -0.800736872 0)
(3.052466771 -0.8111112614 0)
(3.066522904 -0.8186770337 0)
(3.086108978 -0.8225365905 0)
(3.102328337 -0.8236445392 0)
(3.113009599 -0.8272682992 0)
(3.123580838 -0.83137583 0)
(3.130963211 -0.8305090941 0)
(3.132317638 -0.8306070312 0)
(3.131805511 -0.8318653804 0)
(3.133623953 -0.8317412766 0)
(3.134370772 -0.8307059997 0)
(3.133575306 -0.8307463954 0)
(3.13396734 -0.831591045 0)
(3.135204569 -0.8309954993 0)
(3.134494563 -0.83024698 0)
(3.133906393 -0.8314180545 0)
(3.135647475 -0.8313609424 0)
(3.136188083 -0.8306033313 0)
(3.135721573 -0.8308873507 0)
(3.136024805 -0.831546427 0)
(3.137047498 -0.8312147972 0)
(3.137123386 -0.8308201774 0)
(3.136611165 -0.8314811252 0)
(3.137343538 -0.8322994499 0)
(3.134187903 -0.7978249157 0)
(3.063643792 -0.1885823263 0)
(3.07989713 -0.8268216014 0)
(3.145670472 -0.8517622733 0)
(3.2767198 -0.8826988638 0)
(3.412747804 -0.8701315648 0)
(3.387978008 -0.8718920578 0)
(3.214253329 -0.8612987303 0)
(3.095366158 -0.8397030617 0)
(3.048444506 -0.8126707925 0)
(3.043201 -0.8027370583 0)
(3.054257938 -0.8119305281 0)
(3.067619196 -0.8194414696 0)
(3.085866662 -0.8241281225 0)
(3.102180616 -0.8244700587 0)
(3.113302297 -0.8266587046 0)
(3.123211449 -0.83114164 0)
(3.131588544 -0.8309752753 0)
(3.133109211 -0.8302442811 0)
(3.132680967 -0.8318579083 0)
(3.133695751 -0.8320565847 0)
(3.134613328 -0.8312452164 0)
(3.133755753 -0.8312013486 0)
(3.133698871 -0.8320190462 0)
(3.135264838 -0.8314804641 0)
(3.134888749 -0.8308544701 0)
(3.134021565 -0.8320648658 0)
(3.135432721 -0.8320642935 0)
(3.136245352 -0.8313787169 0)
(3.135613862 -0.8316903864 0)
(3.135643479 -0.8325186709 0)
(3.136840951 -0.8324125545 0)
(3.137025781 -0.8317911995 0)
(3.136404778 -0.8324198132 0)
(3.137149453 -0.8328688365 0)
(3.136780478 -0.8259995304 0)
(3.107691251 -0.4138585974 0)
(3.079300721 -0.8267070369 0)
(3.144807502 -0.8428610382 0)
(3.27714014 -0.8836080133 0)
(3.416963459 -0.8764464851 0)
(3.390166157 -0.8714072044 0)
(3.214006637 -0.8611187465 0)
(3.090632733 -0.8394952038 0)
(3.043042886 -0.814295003 0)
(3.043364444 -0.8043703421 0)
(3.057598105 -0.8129860617 0)
(3.069832915 -0.8197283828 0)
(3.085650998 -0.825093714 0)
(3.102484414 -0.8249370836 0)
(3.113627487 -0.8256696738 0)
(3.122342626 -0.8306620841 0)
(3.131752885 -0.8311782713 0)
(3.134136259 -0.8305257283 0)
(3.133109285 -0.832506435 0)
(3.133531938 -0.8330334788 0)
(3.134663533 -0.8324008276 0)
(3.133610405 -0.8319700096 0)
(3.133252845 -0.8329808438 0)
(3.135013428 -0.8325534244 0)
(3.134910012 -0.8320022876 0)
(3.133855636 -0.8330939088 0)
(3.134985185 -0.833369498 0)
(3.136123829 -0.832649093 0)
(3.135464871 -0.8327657379 0)
(3.135392125 -0.8337060337 0)
(3.136896546 -0.8334408528 0)
(3.137105145 -0.8327984765 0)
(3.136385637 -0.8333855292 0)
(3.137099551 -0.8337526978 0)
(3.138279282 -0.8334353381 0)
(3.131310596 -0.6687077953 0)
(3.079017586 -0.824694105 0)
(3.143245851 -0.8285702169 0)
(3.277207659 -0.8847160442 0)
(3.420618199 -0.8787639225 0)
(3.394284099 -0.8691187507 0)
(3.21484279 -0.8604072678 0)
(3.086972423 -0.8399645583 0)
(3.039256778 -0.8169294618 0)
(3.043280301 -0.8058849134 0)
(3.059434911 -0.8127070255 0)
(3.072485415 -0.8185327187 0)
(3.085131918 -0.8246641535 0)
(3.102789893 -0.8250392942 0)
(3.114299788 -0.8257956144 0)
(3.121892887 -0.8313669572 0)
(3.131473933 -0.8322370498 0)
(3.134422675 -0.8319608933 0)
(3.133294132 -0.833633344 0)
(3.13327797 -0.8345915036 0)
(3.134924889 -0.8332979245 0)
(3.133604033 -0.8327461866 0)
(3.132971663 -0.8341496184 0)
(3.135012019 -0.8337974307 0)
(3.135076619 -0.8330425014 0)
(3.13401147 -0.8340827698 0)
(3.134825469 -0.8345487771 0)
(3.136132166 -0.8337362858 0)
(3.135613536 -0.8336656166 0)
(3.135376376 -0.8346546517 0)
(3.136851821 -0.8344023231 0)
(3.137220151 -0.8336977731 0)
(3.136672935 -0.8341872828 0)
(3.137145947 -0.8345571744 0)
(3.138216509 -0.8339536146 0)
(3.133532396 -0.7947191602 0)
(3.079834684 -0.8179505286 0)
(3.140047217 -0.824986222 0)
(3.271328537 -0.885272809 0)
(3.426524978 -0.8805628053 0)
(3.401347478 -0.8657225015 0)
(3.217341715 -0.8599236584 0)
(3.084737752 -0.8400633663 0)
(3.036659131 -0.8190979299 0)
(3.042512273 -0.807557069 0)
(3.062127293 -0.8115976965 0)
(3.07457161 -0.8178836873 0)
(3.084578817 -0.8249846974 0)
(3.102706366 -0.825939149 0)
(3.115020284 -0.8263498979 0)
(3.12164171 -0.832489645 0)
(3.13102872 -0.8341877723 0)
(3.13486524 -0.8340432955 0)
(3.133713566 -0.834623552 0)
(3.133181513 -0.8359507015 0)
(3.134911829 -0.8343435436 0)
(3.133712568 -0.8336211208 0)
(3.13291149 -0.8351919098 0)
(3.135011943 -0.834907456 0)
(3.135491501 -0.8339782423 0)
(3.13452439 -0.8345218823 0)
(3.134849662 -0.8354301382 0)
(3.136353368 -0.8346710572 0)
(3.136004109 -0.8340082777 0)
(3.13540217 -0.8347640622 0)
(3.136707206 -0.8347970476 0)
(3.137490503 -0.8341977006 0)
(3.137036005 -0.8340497446 0)
(3.137011117 -0.8346955833 0)
(3.137987172 -0.8343083669 0)
(3.138889072 -0.8305271716 0)
(3.078956389 -0.8083965634 0)
(3.137637316 -0.8244920371 0)
(3.269389267 -0.8878099863 0)
(3.434036492 -0.8829201855 0)
(3.408495313 -0.8627692178 0)
(3.220404997 -0.8593043774 0)
(3.082795117 -0.8398737172 0)
(3.034569333 -0.8184483835 0)
(3.039501491 -0.8084009878 0)
(3.063526969 -0.8112779189 0)
(3.076605917 -0.8183971069 0)
(3.084455583 -0.8261812036 0)
(3.102509404 -0.8282842265 0)
(3.115272767 -0.8276110772 0)
(3.121749222 -0.8334775132 0)
(3.130684155 -0.835782598 0)
(3.135320372 -0.8352882529 0)
(3.134439283 -0.8354513539 0)
(3.133239297 -0.8365334002 0)
(3.134773811 -0.8348524599 0)
(3.133970963 -0.8335420348 0)
(3.132966848 -0.8352792866 0)
(3.134764218 -0.835515001 0)
(3.135945909 -0.8341052897 0)
(3.134671334 -0.8340000835 0)
(3.13444169 -0.8351724293 0)
(3.136018447 -0.83475638 0)
(3.136133317 -0.833841338 0)
(3.135312444 -0.8347546559 0)
(3.136390722 -0.8349168489 0)
(3.137445238 -0.8342188448 0)
(3.137026243 -0.8340719194 0)
(3.136696078 -0.83488263 0)
(3.137779965 -0.834807539 0)
(3.138157407 -0.8339171978 0)
(3.078268539 -0.8035994358 0)
(3.134074037 -0.8255239673 0)
(3.266031799 -0.8990077886 0)
(3.439111651 -0.8858744412 0)
(3.411285585 -0.861121774 0)
(3.221361627 -0.8586103881 0)
(3.079965458 -0.8394370259 0)
(3.032184957 -0.8174251102 0)
(3.035312267 -0.8090101738 0)
(3.06366039 -0.811794833 0)
(3.077746061 -0.8191412184 0)
(3.084839516 -0.8275301137 0)
(3.102987975 -0.831393767 0)
(3.115244676 -0.8292414611 0)
(3.121193339 -0.8331087868 0)
(3.129187869 -0.8367146908 0)
(3.13595799 -0.8359880955 0)
(3.134830139 -0.8352358559 0)
(3.133006599 -0.8362555487 0)
(3.134337755 -0.8348637545 0)
(3.134299938 -0.833533391 0)
(3.132925367 -0.8350189902 0)
(3.134089723 -0.8354247093 0)
(3.135890778 -0.8341203423 0)
(3.134779098 -0.8341381029 0)
(3.134117151 -0.835407612 0)
(3.135772362 -0.8351698127 0)
(3.136298076 -0.8342897098 0)
(3.135365016 -0.8353392433 0)
(3.136262152 -0.8356174006 0)
(3.137494581 -0.8348230295 0)
(3.137064055 -0.8346201006 0)
(3.136628756 -0.8354435283 0)
(3.137605903 -0.8351775329 0)
(3.138147794 -0.8348027812 0)
(3.078864366 -0.8034668791 0)
(3.133310591 -0.8317743718 0)
(3.266048233 -0.908118031 0)
(3.442932842 -0.8890567987 0)
(3.40979008 -0.8605633547 0)
(3.220265929 -0.8577210911 0)
(3.077135005 -0.8390466136 0)
(3.030662737 -0.8169528578 0)
(3.032337738 -0.8108883894 0)
(3.064837916 -0.814660501 0)
(3.079479861 -0.8205475585 0)
(3.086330371 -0.8293709956 0)
(3.102453193 -0.8324702674 0)
(3.115044468 -0.8301052816 0)
(3.12104777 -0.8322086608 0)
(3.128069698 -0.8364903652 0)
(3.135672533 -0.8357084202 0)
(3.135098595 -0.8347486726 0)
(3.132927869 -0.8363358407 0)
(3.134191998 -0.8352912889 0)
(3.134528495 -0.833827882 0)
(3.132990991 -0.8350870606 0)
(3.133889858 -0.8356610327 0)
(3.135842405 -0.8344016362 0)
(3.134871392 -0.8342550682 0)
(3.134085984 -0.8356185424 0)
(3.135742828 -0.8354409614 0)
(3.136410801 -0.834487403 0)
(3.135494507 -0.8355412262 0)
(3.136268233 -0.8359613657 0)
(3.137601569 -0.8351255369 0)
(3.13716535 -0.8347277384 0)
(3.136672039 -0.8355725641 0)
(3.137573933 -0.8356337514 0)
(3.138414727 -0.8350930211 0)
(3.137598771 -0.8320448423 0)
(3.0785734 -0.8050386906 0)
(3.134908072 -0.8421212694 0)
(3.265510969 -0.9116484564 0)
(3.442838538 -0.892240532 0)
(3.407676328 -0.8610072058 0)
(3.218854202 -0.8564600497 0)
(3.073589259 -0.8377730871 0)
(3.029098563 -0.8150063073 0)
(3.030702611 -0.8118779782 0)
(3.065588833 -0.8177792958 0)
(3.084921556 -0.8221945579 0)
(3.089069151 -0.8279399817 0)
(3.101862256 -0.8308247756 0)
(3.115049976 -0.8292962763 0)
(3.121480026 -0.8307839711 0)
(3.127864723 -0.8358702161 0)
(3.135484257 -0.8344853607 0)
(3.135520855 -0.8331493573 0)
(3.133366051 -0.8350275397 0)
(3.134243781 -0.8349990214 0)
(3.135412439 -0.8330701136 0)
(3.13327974 -0.8340251226 0)
(3.133475229 -0.8349978397 0)
(3.136077376 -0.8343576928 0)
(3.135471293 -0.833356585 0)
(3.1343461 -0.8350603763 0)
(3.135866439 -0.8356253758 0)
(3.137286682 -0.8343684932 0)
(3.13606968 -0.8352379448 0)
(3.135858738 -0.8362748552 0)
(3.137825435 -0.8355559475 0)
(3.137583916 -0.8345515302 0)
(3.136609296 -0.835492246 0)
(3.13723467 -0.8360398819 0)
(3.138552059 -0.8351464766 0)
(3.137469451 -0.8348938933 0)
(3.076357635 -0.8095987505 0)
(3.128180478 -0.8468892798 0)
(3.263225008 -0.913441981 0)
(3.458523035 -0.9031208594 0)
(3.407381033 -0.8608608104 0)
(3.216300106 -0.852217966 0)
(3.072802819 -0.8343136147 0)
(3.027539378 -0.8116688434 0)
(3.026661754 -0.8106704118 0)
(3.062365885 -0.8177627677 0)
(3.086960559 -0.8204200968 0)
(3.091567393 -0.8240438829 0)
(3.10155831 -0.828060749 0)
(3.115655812 -0.8269394197 0)
(3.123415475 -0.8282754763 0)
(3.127478034 -0.8341555348 0)
(3.134327787 -0.8333073954 0)
(3.136398154 -0.8314762694 0)
(3.133931302 -0.8345523516 0)
(3.133995976 -0.8357629915 0)
(3.136167655 -0.8336256683 0)
(3.13322244 -0.8330295696 0)
(3.132353176 -0.8350704764 0)
(3.135463793 -0.8348870006 0)
(3.135383635 -0.8332893688 0)
(3.133860866 -0.8346948789 0)
(3.135246235 -0.8352732032 0)
(3.13691892 -0.8341310202 0)
(3.135685278 -0.8341072296 0)
(3.135110745 -0.835024612 0)
(3.136937714 -0.8348624955 0)
(3.137263778 -0.8338927373 0)
(3.13617567 -0.8344159231 0)
(3.136730051 -0.8347396163 0)
(3.138028228 -0.833851868 0)
(3.137553699 -0.8337513927 0)
(3.073223077 -0.8151976977 0)
(3.122819517 -0.8450232402 0)
(3.252643361 -0.9117612773 0)
(3.480450753 -0.911435384 0)
(3.407521202 -0.8587420322 0)
(3.217173532 -0.8480668667 0)
(3.071807383 -0.8322263588 0)
(3.026534546 -0.809642409 0)
(3.026598406 -0.8079889347 0)
(3.059994961 -0.8146803312 0)
(3.087450349 -0.8171758592 0)
(3.093207932 -0.8206396925 0)
(3.100698816 -0.8261912697 0)
(3.115489483 -0.8254904066 0)
(3.124399929 -0.8267095277 0)
(3.12677022 -0.8334667749 0)
(3.133861497 -0.8345993784 0)
(3.137372374 -0.831747298 0)
(3.133678719 -0.8332250095 0)
(3.132959044 -0.834621158 0)
(3.135339182 -0.8331291372 0)
(3.132718411 -0.8327973107 0)
(3.131650612 -0.8345167923 0)
(3.134653208 -0.833886523 0)
(3.135590524 -0.8320488949 0)
(3.133993643 -0.8330375249 0)
(3.134845492 -0.8335170004 0)
(3.136914849 -0.832267818 0)
(3.136224323 -0.8317032802 0)
(3.135648411 -0.8328769456 0)
(3.136931823 -0.8330778096 0)
(3.137853925 -0.8320681599 0)
(3.136831488 -0.8325167923 0)
(3.136966206 -0.8329820795 0)
(3.138397583 -0.8320769 0)
(3.138177589 -0.8317581668 0)
(3.073751012 -0.8203073409 0)
(3.122508001 -0.8313225138 0)
(3.237662227 -0.9070757425 0)
(3.486728041 -0.902264148 0)
(3.412988412 -0.8509704965 0)
(3.216899889 -0.8455196854 0)
(3.069792179 -0.832845058 0)
(3.024178057 -0.8102074755 0)
(3.022806901 -0.8073421988 0)
(3.05677264 -0.8142132706 0)
(3.087161466 -0.8154668893 0)
(3.094792836 -0.8184384488 0)
(3.099628896 -0.8256082445 0)
(3.116457353 -0.8271937236 0)
(3.128006943 -0.826332783 0)
(3.127165272 -0.8328663547 0)
(3.132168792 -0.834794819 0)
(3.137060252 -0.831660164 0)
(3.134254606 -0.8313324253 0)
(3.132898021 -0.8325896521 0)
(3.135335762 -0.8312878087 0)
(3.13398593 -0.830390194 0)
(3.132550126 -0.8319108164 0)
(3.134759766 -0.8316784001 0)
(3.136765831 -0.8296114367 0)
(3.134889085 -0.8304687664 0)
(3.135007738 -0.8315794374 0)
(3.137258796 -0.8303333969 0)
(3.136549901 -0.8294395381 0)
(3.135839516 -0.8307782683 0)
(3.136999473 -0.8312822033 0)
(3.138305984 -0.8300561973 0)
(3.137224537 -0.8304505414 0)
(3.13701984 -0.8312351798 0)
(3.13846178 -0.8305019829 0)
(3.138229936 -0.8299793537 0)
(3.076105474 -0.8240841655 0)
(3.123031558 -0.8147478472 0)
(3.231975178 -0.9036925246 0)
(3.500025181 -0.9109837352 0)
(3.411567727 -0.8479830303 0)
(3.207262898 -0.832305381 0)
(3.064267931 -0.8295108496 0)
(3.022355912 -0.8062534037 0)
(3.018116229 -0.8016460634 0)
(3.052453203 -0.8109137677 0)
(3.087564748 -0.8139492 0)
(3.099310809 -0.8163764905 0)
(3.099219869 -0.8251721485 0)
(3.115285645 -0.8275619169 0)
(3.127564686 -0.8258001408 0)
(3.127201601 -0.8302508566 0)
(3.131252378 -0.8325232991 0)
(3.136836684 -0.8293273675 0)
(3.134929003 -0.8270893027 0)
(3.132658786 -0.8288287379 0)
(3.135282224 -0.8276193446 0)
(3.135169497 -0.8262047618 0)
(3.132853256 -0.8283079341 0)
(3.134276714 -0.8288768072 0)
(3.13745705 -0.826826259 0)
(3.135189292 -0.8275701025 0)
(3.134527024 -0.8291278977 0)
(3.13720744 -0.8282341134 0)
(3.136922565 -0.8273122005 0)
(3.135567475 -0.828837693 0)
(3.136596476 -0.8294828855 0)
(3.138514154 -0.8282434439 0)
(3.137313403 -0.828411504 0)
(3.136587551 -0.8295748174 0)
(3.13825512 -0.8293438632 0)
(3.13840872 -0.8289407169 0)
(3.077486512 -0.8194984428 0)
(3.117249106 -0.8094308723 0)
(3.223199503 -0.899259675 0)
(3.532971882 -0.8999254566 0)
(3.412014381 -0.8287141179 0)
(3.208919021 -0.8229875955 0)
(3.063246121 -0.8193760263 0)
(3.022292513 -0.7955962959 0)
(3.025913059 -0.7886798796 0)
(3.051028247 -0.8045961451 0)
(3.083799727 -0.8132956942 0)
(3.098691491 -0.8141164613 0)
(3.098826612 -0.8202216981 0)
(3.113836807 -0.8220099886 0)
(3.12933753 -0.8195705242 0)
(3.128190858 -0.8218784989 0)
(3.130858916 -0.8263708317 0)
(3.137372962 -0.824145915 0)
(3.13523788 -0.8230129978 0)
(3.132116873 -0.8263788424 0)
(3.134842564 -0.8259423945 0)
(3.135866172 -0.8232972492 0)
(3.13245947 -0.8255664234 0)
(3.133570881 -0.82757138 0)
(3.137321993 -0.8256117745 0)
(3.134848719 -0.8255923012 0)
(3.133892552 -0.8275860577 0)
(3.136307305 -0.8274457507 0)
(3.136642039 -0.8263130583 0)
(3.134953933 -0.8276447403 0)
(3.135742756 -0.8286860475 0)
(3.137768813 -0.8275848033 0)
(3.136735594 -0.8274470143 0)
(3.135854489 -0.8285749989 0)
(3.137245207 -0.8284391323 0)
(3.137978686 -0.8273466669 0)
(3.08357934 -0.7863446257 0)
(3.122950372 -0.7739739824 0)
(3.169710542 -0.8681745065 0)
(3.547244679 -0.8741957594 0)
(3.400065348 -0.7950148946 0)
(3.197374761 -0.7917016082 0)
(3.055821985 -0.7983005161 0)
(3.015721021 -0.7814771116 0)
(3.020864537 -0.7779951442 0)
(3.043875023 -0.7942904572 0)
(3.077164867 -0.8017373329 0)
(3.099245213 -0.8029520615 0)
(3.099221508 -0.8092256695 0)
(3.112194354 -0.8142818047 0)
(3.130191541 -0.8129482524 0)
(3.127513025 -0.8156742725 0)
(3.128386993 -0.8222373449 0)
(3.134062638 -0.8212437936 0)
(3.133243443 -0.8198100667 0)
(3.129337353 -0.8222790594 0)
(3.131617629 -0.8223639042 0)
(3.134010399 -0.8203667663 0)
(3.130457827 -0.8218385472 0)
(3.131286518 -0.8239587811 0)
(3.134919626 -0.8224193435 0)
(3.133601095 -0.8222382954 0)
(3.132404953 -0.8241843483 0)
(3.134359127 -0.8242326242 0)
(3.136076691 -0.8227776727 0)
(3.134318992 -0.8237226756 0)
(3.134595098 -0.8251795718 0)
(3.136643804 -0.8243775759 0)
(3.136151546 -0.824023827 0)
(3.13517933 -0.825168272 0)
(3.136381816 -0.8252557762 0)
(3.137692501 -0.8243141218 0)
(3.07487258 -0.6310697691 0)
(3.119032637 -0.699885958 0)
(3.162055191 -0.812277071 0)
(3.522027326 -0.8245081924 0)
(3.34562189 -0.7636115708 0)
(3.158009241 -0.7654284657 0)
(3.036494073 -0.7851093092 0)
(2.999611673 -0.770086056 0)
(3.010093559 -0.7626996208 0)
(3.034746598 -0.7805168261 0)
(3.064522033 -0.7925537464 0)
(3.090667056 -0.7955088802 0)
(3.090804627 -0.8016622136 0)
(3.101641096 -0.8088973511 0)
(3.121126634 -0.8076690885 0)
(3.119695488 -0.8102096105 0)
(3.121182986 -0.8166533759 0)
(3.126462632 -0.8169715437 0)
(3.129044059 -0.8142164824 0)
(3.125185456 -0.8173942248 0)
(3.126777739 -0.8183660488 0)
(3.130769711 -0.8158133775 0)
(3.127540867 -0.8172708119 0)
(3.127678188 -0.8204008346 0)
(3.131286083 -0.8195243917 0)
(3.131552036 -0.8183989819 0)
(3.129895861 -0.8210700195 0)
(3.131178825 -0.8216892548 0)
(3.134009068 -0.8199412602 0)
(3.132225826 -0.821103727 0)
(3.131998008 -0.8229513701 0)
(3.134035035 -0.822004656 0)
(3.134429854 -0.8218044635 0)
(3.133071589 -0.8230157454 0)
(3.133842922 -0.8231470153 0)
(3.135898534 -0.8222060004 0)
(3.038199226 -0.134926224 0)
(3.079942474 -0.3298282763 0)
(3.105658303 -0.5749538712 0)
(3.055618775 -0.4671513142 0)
(2.875777732 -0.5188389953 0)
(2.844681624 -0.6224732159 0)
(2.821520715 -0.6662413973 0)
(2.838188811 -0.666733061 0)
(2.859373624 -0.670296668 0)
(2.898519834 -0.6931708645 0)
(2.917129356 -0.718660844 0)
(2.948689989 -0.7300829696 0)
(2.974566163 -0.7370265436 0)
(2.986848723 -0.749281401 0)
(3.006552457 -0.755833538 0)
(3.023702351 -0.758615861 0)
(3.032209327 -0.7686679704 0)
(3.035413447 -0.7736344905 0)
(3.047274941 -0.7753417774 0)
(3.051557951 -0.778294732 0)
(3.052498165 -0.7819069475 0)
(3.059510464 -0.7833825627 0)
(3.064972663 -0.7846219797 0)
(3.066211087 -0.7889698645 0)
(3.068225005 -0.7906567102 0)
(3.0753027 -0.7910891048 0)
(3.076793692 -0.793348108 0)
(3.077069989 -0.7954984108 0)
(3.081835897 -0.7961937441 0)
(3.084861995 -0.7968554403 0)
(3.085273727 -0.7992098352 0)
(3.086259765 -0.8003068851 0)
(3.090529769 -0.8009076496 0)
(3.091489105 -0.801689187 0)
(3.091741119 -0.8027032815 0)
(3.094688774 -0.803202953 0)
(3.096465448 -0.8036595299 0)
(3.002699426 -0.006261682396 0)
(3.023851659 -0.06990302494 0)
(3.050618188 -0.1510209861 0)
(3.04772872 -0.3023458105 0)
(3.03157045 -0.4610205128 0)
(3.035321512 -0.5392134837 0)
(3.055128673 -0.5892012321 0)
(3.082722937 -0.6083785188 0)
(3.101545575 -0.6234797983 0)
(3.116714546 -0.6690537899 0)
(3.123943946 -0.6927818291 0)
(3.142357266 -0.6975356935 0)
(3.15741429 -0.7125354158 0)
(3.153122374 -0.7303109792 0)
(3.154897559 -0.7297839833 0)
(3.159256097 -0.733031536 0)
(3.153831758 -0.7479100321 0)
(3.151023212 -0.7503505964 0)
(3.154115705 -0.7482255048 0)
(3.152178315 -0.758180584 0)
(3.147933202 -0.763280711 0)
(3.149999338 -0.7610010446 0)
(3.152390805 -0.7646817218 0)
(3.148409899 -0.7718762599 0)
(3.147823316 -0.7719862315 0)
(3.150812961 -0.7714990984 0)
(3.149224908 -0.7775900686 0)
(3.147205553 -0.779688304 0)
(3.14861354 -0.7783865109 0)
(3.149568754 -0.7811518347 0)
(3.147378054 -0.784863338 0)
(3.147129161 -0.7847748864 0)
(3.148281404 -0.7845865948 0)
(3.147270859 -0.7882049665 0)
(3.146460472 -0.7896730784 0)
(3.147546839 -0.7889141351 0)
(3.147863562 -0.7906438067 0)
(3.000091124 -0.0002029096377 0)
(3.002878684 -0.006994914156 0)
(3.015399869 -0.04023690858 0)
(3.03420391 -0.1079163773 0)
(3.050901706 -0.1805856837 0)
(3.064192255 -0.2347653298 0)
(3.07680182 -0.292246164 0)
(3.098461526 -0.3791428952 0)
(3.111597067 -0.4178001438 0)
(3.121579167 -0.4559090267 0)
(3.131148283 -0.5259223832 0)
(3.135501002 -0.5440439434 0)
(3.142677724 -0.5445245378 0)
(3.142133173 -0.585106822 0)
(3.134813975 -0.6055741568 0)
(3.133554538 -0.601399644 0)
(3.133922871 -0.6220158187 0)
(3.130593004 -0.643763948 0)
(3.132531462 -0.6431381503 0)
(3.134342725 -0.649776236 0)
(3.132258118 -0.6720540194 0)
(3.132009795 -0.6757659413 0)
(3.134599661 -0.674000649 0)
(3.135061879 -0.6892829476 0)
(3.132649669 -0.6980170227 0)
(3.134668617 -0.6963277276 0)
(3.136571396 -0.7029261557 0)
(3.134401943 -0.7132287049 0)
(3.134578741 -0.7146658245 0)
(3.136442678 -0.7155024853 0)
(3.136498606 -0.7236405279 0)
(3.135048262 -0.7282325122 0)
(3.136252397 -0.7283164777 0)
(3.136685897 -0.7323254744 0)
(3.135653772 -0.736313877 0)
(3.135848408 -0.7379459934 0)
(3.137206959 -0.7384922272 0)
(3.000000866 -1.866650359e-06 0)
(3.000219767 -0.0005272559964 0)
(3.002333857 -0.005801483597 0)
(3.009977902 -0.02552182258 0)
(3.026329274 -0.07071493419 0)
(3.047745575 -0.142242746 0)
(3.066054373 -0.2152782758 0)
(3.084425485 -0.2991216887 0)
(3.095841857 -0.3766649747 0)
(3.10734987 -0.4112717642 0)
(3.116859286 -0.4474629668 0)
(3.116359582 -0.4956802555 0)
(3.11801015 -0.5064019705 0)
(3.122434349 -0.526852022 0)
(3.119684124 -0.5692426007 0)
(3.119939275 -0.5765460864 0)
(3.125629865 -0.5787209576 0)
(3.12649112 -0.6096836615 0)
(3.124491937 -0.6210561572 0)
(3.129237945 -0.6198200304 0)
(3.131410834 -0.6382462701 0)
(3.127865407 -0.652238797 0)
(3.130604911 -0.6507746542 0)
(3.134139297 -0.6575998299 0)
(3.131301723 -0.6742552044 0)
(3.13155575 -0.6763088566 0)
(3.135465048 -0.6755241123 0)
(3.135229026 -0.6889035444 0)
(3.132721938 -0.6951832187 0)
(3.134958359 -0.6935980998 0)
(3.137159112 -0.6995897605 0)
(3.134537176 -0.7088612173 0)
(3.134819554 -0.7093776351 0)
(3.137472078 -0.7095695445 0)
(3.13683287 -0.718110704 0)
(3.134928846 -0.7218317576 0)
(3.136412914 -0.7209101509 0)
(3.000000004 -9.864002821e-09 0)
(3.000008695 -2.106529677e-05 0)
(3.000206375 -0.0005076368665 0)
(3.001787534 -0.004452211421 0)
(3.007262588 -0.01855203521 0)
(3.018345245 -0.0498873565 0)
(3.033810606 -0.09899219353 0)
(3.046058948 -0.1421884771 0)
(3.056984866 -0.1963910788 0)
(3.070325915 -0.2545077355 0)
(3.076374347 -0.2796287866 0)
(3.081763257 -0.330836102 0)
(3.091170625 -0.3839661824 0)
(3.099356432 -0.4002027236 0)
(3.105594872 -0.4365200648 0)
(3.109239337 -0.471533001 0)
(3.114791934 -0.4770654052 0)
(3.117894766 -0.4992735249 0)
(3.117425859 -0.5299154644 0)
(3.120453334 -0.533158211 0)
(3.123529898 -0.5420733474 0)
(3.124068505 -0.5709337294 0)
(3.124416562 -0.577678784 0)
(3.127813255 -0.5783737594 0)
(3.129241172 -0.5997315806 0)
(3.127317858 -0.6112297535 0)
(3.130040678 -0.610037716 0)
(3.132239708 -0.6196376688 0)
(3.130056319 -0.6356176028 0)
(3.130721578 -0.6371890731 0)
(3.133183783 -0.6378008633 0)
(3.133311806 -0.6521561868 0)
(3.131644549 -0.6586772794 0)
(3.133736461 -0.6573436293 0)
(3.135269704 -0.6636446969 0)
(3.133204252 -0.6737785445 0)
(3.133381507 -0.6749774745 0)
(3 -1.987685756e-11 0)
(3.000000215 -5.313270869e-07 0)
(3.000011296 -2.801642116e-05 0)
(3.000180326 -0.0004476409012 0)
(3.001303418 -0.003320942897 0)
(3.005060814 -0.01331362047 0)
(3.013398155 -0.03699429842 0)
(3.025953845 -0.07678721672 0)
(3.03925908 -0.1228624548 0)
(3.05461415 -0.1835529864 0)
(3.065910687 -0.2411390983 0)
(3.076685476 -0.2877582015 0)
(3.087011701 -0.3394361359 0)
(3.094154181 -0.3725175604 0)
(3.101902084 -0.3960446764 0)
(3.105670126 -0.4338711846 0)
(3.107377936 -0.4531106206 0)
(3.112481224 -0.4651849082 0)
(3.114804328 -0.4977838995 0)
(3.114470031 -0.5131459752 0)
(3.119703003 -0.5160432846 0)
(3.123200709 -0.5390676098 0)
(3.120475711 -0.5574210401 0)
(3.12357218 -0.5580538805 0)
(3.127524602 -0.5679319057 0)
(3.125220345 -0.5887335008 0)
(3.12542991 -0.5921772419 0)
(3.129551887 -0.5933925817 0)
(3.129850591 -0.6111418233 0)
(3.127428757 -0.6194251381 0)
(3.130183303 -0.6183590691 0)
(3.132803806 -0.6264576038 0)
(3.130147466 -0.6395565824 0)
(3.130337753 -0.6412548392 0)
(3.133531939 -0.6420517752 0)
(3.133330814 -0.6540244857 0)
(3.131247648 -0.6595483001 0)
(3 -1.859976368e-14 0)
(3.000000003 -8.180801203e-09 0)
(3.000000376 -9.347761336e-07 0)
(3.000011453 -2.857973296e-05 0)
(3.000144956 -0.0003666320088 0)
(3.000960372 -0.0024926512 0)
(3.003673834 -0.009758665439 0)
(3.009945875 -0.02746829131 0)
(3.019918521 -0.05735527303 0)
(3.030731568 -0.09258321027 0)
(3.042722557 -0.1362162843 0)
(3.053580784 -0.1754800073 0)
(3.060800528 -0.2112080016 0)
(3.068556749 -0.251177148 0)
(3.075391194 -0.2786682657 0)
(3.08213277 -0.3162365012 0)