/*--------------------------------*- C++ -*----------------------------------*\
  =========                 |
  \\      /  F ield         | OpenFOAM: The Open Source CFD Toolbox
   \\    /   O peration     | Website:  https://openfoam.org
    \\  /    A nd           | Version:  7
     \\/     M anipulation  |
\*---------------------------------------------------------------------------*/
FoamFile
{
    version     2.0;
    format      ascii;
    class       volVectorField;
    location    "0.6";
    object      U;
}
// * * * * * * * * * * * * * * * * * * * * * * * * * * * * * * * * * * * * * //

dimensions      [0 1 -1 0 0 0 0];

internalField   nonuniform List<vector> 
138
(
(3 -9.690758402e-15 0)
(3 -1.036212854e-14 0)
(3 -9.596152678e-15 0)
(3 -8.768917083e-15 0)
(3 -6.498571233e-15 0)
(3 -5.37146712e-15 0)
(3 -4.291851757e-15 0)
(3 -3.147148292e-15 0)
(3 -2.144686229e-15 0)
(3 -1.77603873e-15 0)
(3 -1.598828519e-15 0)
(3 -1.795128999e-15 0)
(3 -1.91307554e-15 0)
(3 -1.683385363e-15 0)
(3 -1.77260866e-15 0)
(3 -2.13783351e-15 0)
(3 -1.592208733e-14 0)
(3 -1.663118088e-14 0)
(3 -1.51001252e-14 0)
(3 -1.382775463e-14 0)
(3 -1.009532768e-14 0)
(3 -5.564666152e-15 0)
(3 -4.820089814e-15 0)
(3 -5.539784985e-15 0)
(3 -5.68932341e-15 0)
(3 -5.11559307e-15 0)
(3 -3.553809893e-15 0)
(3 -3.150785186e-15 0)
(3 -3.183065576e-15 0)
(3 -3.025847022e-15 0)
(3 -3.98600256e-15 0)
(3 -5.868747643e-15 0)
(3 -8.263615481e-15 0)
(3 -1.44895019e-14 0)
(3 -1.455879074e-14 0)
(3 -1.493452199e-14 0)
(3 -1.536432888e-14 0)
(3 -1.538215173e-14 0)
(3 -1.378272536e-14 0)
(3 -1.41769887e-14 0)
(3 -1.338095471e-14 0)
(3 -1.310298156e-14 0)
(3 -1.210602277e-14 0)
(3 -1.041193408e-14 0)
(3 -8.310948868e-15 0)
(3 -7.284774749e-15 0)
(3 -7.221931766e-15 0)
(3 -8.396325317e-15 0)
(3 -9.433708117e-15 0)
(3 -9.299943713e-15 0)
(3 -8.397107643e-15 0)
(3 -1.033942274e-14 0)
(3 -1.258628297e-14 0)
(3 -1.29684105e-14 0)
(3 -1.179220209e-14 0)
(3 -1.14363733e-14 0)
(3 -1.14494655e-14 0)
(3 -1.303446258e-14 0)
(3 -1.444783359e-14 0)
(3 -1.497845781e-14 0)
(3 -1.487000159e-14 0)
(3 -1.211962974e-14 0)
(3 -9.593101192e-15 0)
(3 -8.925918417e-15 0)
(3 -8.45198778e-15 0)
(3 -7.646362159e-15 0)
(3 -6.894665106e-15 0)
(3 1.957732454e-15 0)
(3 6.175312174e-16 0)
(3 -1.298164308e-15 0)
(3 -1.494407242e-15 0)
(3 -2.458937912e-15 0)
(3 -4.21836153e-15 0)
(3 -4.742405263e-15 0)
(3 -5.877241675e-15 0)
(3 -7.931625118e-15 0)
(3 -9.078681492e-15 0)
(3 -9.122742715e-15 0)
(3 -9.251694572e-15 0)
(3 -1.016084877e-14 0)
(3 -7.661345253e-15 0)
(3 -6.536475534e-15 0)
(3 -7.667792617e-15 0)
(3 -8.265852149e-15 0)
(3 1.038919489e-14 0)
(3 1.145292452e-14 0)
(3 1.133157418e-14 0)
(3 1.159264268e-14 0)
(3 9.963360342e-15 0)
(3 7.324863964e-15 0)
(3 5.770534385e-15 0)
(3 4.34010509e-15 0)
(3 3.313615088e-15 0)
(3 2.079370745e-15 0)
(3 4.343017453e-16 0)
(3 -1.633241305e-15 0)
(3 -5.072324469e-15 0)
(3 -6.953461125e-15 0)
(3 -8.495388773e-15 0)
(3 -9.223284499e-15 0)
(3 -7.599718719e-15 0)
(3 1.537601686e-14 0)
(3 1.579564059e-14 0)
(3 1.650585456e-14 0)
(3 1.653348787e-14 0)
(3 1.35363987e-14 0)
(3 9.90253445e-15 0)
(3 7.567942596e-15 0)
(3 7.568186766e-15 0)
(3 8.343453372e-15 0)
(3 8.498360775e-15 0)
(3 7.305372916e-15 0)
(3 3.878858493e-15 0)
(3 -8.647996889e-16 0)
(3 -4.334860858e-15 0)
(3 -6.281913581e-15 0)
(3 -5.777301288e-15 0)
(3 -5.423340968e-15 0)
(3 1.076098485e-14 0)
(3 1.070468944e-14 0)
(3 1.217407879e-14 0)
(3 1.086318525e-14 0)
(3 1.001571629e-14 0)
(3 9.069397486e-15 0)
(3 9.947558592e-15 0)
(3 9.082129443e-15 0)
(3 8.260063396e-15 0)
(3 7.124795572e-15 0)
(3 5.077092745e-15 0)
(3 2.231977814e-15 0)
(3 -6.838816846e-16 0)
(3 -3.45678052e-15 0)
(3 -5.186099901e-15 0)
(3 -6.185692349e-15 0)
(3 -6.877205361e-15 0)
(3 -3.904715385e-15 0)
(3 -4.350760848e-15 0)
(3 -5.371601932e-15 0)
)
;

boundaryField
{
    inlet
    {
        type            fixedValue;
        value           nonuniform 0();
    }
    outlet
    {
        type            inletOutlet;
        inletValue      nonuniform 0();
        value           nonuniform 0();
    }
    bottom
    {
        type            slip;
    }
    top
    {
        type            slip;
    }
    obstacle
    {
        type            slip;
    }
    defaultFaces
    {
        type            empty;
    }
    procBoundary2to1
    {
        type            processor;
        value           nonuniform List<vector> 8((3 -7.106849589e-15 0) (3 -1.217369249e-14 0) (3 -1.386477959e-14 0) (3 -7.65740233e-15 0) (3 2.090465456e-15 0) (3 9.826643649e-15 0) (3 1.368280578e-14 0) (3 1.176057866e-14 0));
    }
    procBoundary2to3
    {
        type            processor;
        value           nonuniform List<vector> 10((3 -2.334931738e-15 0) (3 -2.334931738e-15 0) (3 -7.565470942e-15 0) (3 -6.058463903e-15 0) (3 -3.467716779e-15 0) (3 -4.172440427e-15 0) (3 -7.902165406e-15 0) (3 -6.356147601e-15 0) (3 -4.372280543e-15 0) (3 2.603908822e-14 0));
    }
    procBoundary2to8
    {
        type            processor;
        value           nonuniform List<vector> 
18
(
(3 1.387260325e-15 0)
(3 2.109756528e-15 0)
(3 2.782601832e-15 0)
(3 3.338294487e-15 0)
(3 4.840700891e-15 0)
(3 6.647106096e-15 0)
(3 8.724584327e-15 0)
(3 7.771269663e-15 0)
(3 5.538080239e-15 0)
(3 3.038397235e-15 0)
(3 1.489795769e-15 0)
(3 1.493413183e-15 0)
(3 -7.404157374e-16 0)
(3 -2.098324705e-15 0)
(3 -2.098324705e-15 0)
(3 5.270994478e-15 0)
(3 4.320443207e-15 0)
(3 2.950917719e-15 0)
)
;
    }
}


// ************************************************************************* //
