/*--------------------------------*- C++ -*----------------------------------*\
  =========                 |
  \\      /  F ield         | OpenFOAM: The Open Source CFD Toolbox
   \\    /   O peration     | Website:  https://openfoam.org
    \\  /    A nd           | Version:  7
     \\/     M anipulation  |
\*---------------------------------------------------------------------------*/
FoamFile
{
    version     2.0;
    format      ascii;
    class       volScalarField;
    location    "1.8";
    object      rho;
}
// * * * * * * * * * * * * * * * * * * * * * * * * * * * * * * * * * * * * * //

dimensions      [1 -3 0 0 0 0 0];

internalField   nonuniform List<scalar> 
23
(
1.493562822
1.567004393
1.562012022
1.400882132
1.426212855
1.499018466
1.539664136
1.400029013
1.404033927
1.430808928
1.488167238
1.400005342
1.400363849
1.405326976
1.433969583
1.400005042
1.400024673
1.400561773
1.407551826
1.40000504
1.400005675
1.40004135
1.400959355
)
;

boundaryField
{
    inlet
    {
        type            calculated;
        value           nonuniform 0();
    }
    outlet
    {
        type            calculated;
        value           nonuniform 0();
    }
    bottom
    {
        type            calculated;
        value           nonuniform 0();
    }
    top
    {
        type            calculated;
        value           nonuniform List<scalar> 4(1.40000504 1.400005675 1.40004135 1.400959355);
    }
    obstacle
    {
        type            calculated;
        value           nonuniform 0();
    }
    defaultFaces
    {
        type            empty;
    }
    procBoundary33to26
    {
        type            processor;
        value           uniform 1.4000052;
    }
    procBoundary33to27
    {
        type            processor;
        value           nonuniform List<scalar> 5(1.577076167 1.572386773 1.522644891 1.413867519 1.413867519);
    }
    procBoundary33to32
    {
        type            processor;
        value           nonuniform List<scalar> 4(1.400005039 1.400005039 1.40000504 1.40000504);
    }
    procBoundary33to34
    {
        type            processor;
        value           nonuniform List<scalar> 6(1.514530787 1.539306134 1.537161825 1.490976507 1.434460953 1.40857162);
    }
}


// ************************************************************************* //
