/*--------------------------------*- C++ -*----------------------------------*\
  =========                 |
  \\      /  F ield         | OpenFOAM: The Open Source CFD Toolbox
   \\    /   O peration     | Website:  https://openfoam.org
    \\  /    A nd           | Version:  7
     \\/     M anipulation  |
\*---------------------------------------------------------------------------*/
FoamFile
{
    version     2.0;
    format      ascii;
    class       volScalarField;
    location    "2.5";
    object      rho;
}
// * * * * * * * * * * * * * * * * * * * * * * * * * * * * * * * * * * * * * //

dimensions      [1 -3 0 0 0 0 0];

internalField   nonuniform List<scalar> 
25
(
1.372579229
1.314238286
1.35254451
1.375328722
1.286419229
1.317138498
1.363401856
1.316268388
1.305387055
1.327190621
1.371572444
1.311386115
1.326828371
1.458971178
1.384214956
1.379289566
1.51300454
1.492786714
1.452126308
1.554129461
1.571037343
1.535857711
1.57309803
1.621303218
1.604920355
)
;

boundaryField
{
    inlet
    {
        type            calculated;
        value           nonuniform 0();
    }
    outlet
    {
        type            calculated;
        value           nonuniform List<scalar> 9(1.372576445 1.375328082 1.363402339 1.327190668 1.326828422 1.379289572 1.452126302 1.535857712 1.604920358);
    }
    bottom
    {
        type            calculated;
        value           nonuniform 0();
    }
    top
    {
        type            calculated;
        value           nonuniform List<scalar> 3(1.57309803 1.621303218 1.604920355);
    }
    obstacle
    {
        type            calculated;
        value           nonuniform 0();
    }
    defaultFaces
    {
        type            empty;
    }
    procBoundary35to29
    {
        type            processor;
        value           nonuniform List<scalar> 4(1.361693637 1.36285003 1.36644101 1.36644101);
    }
    procBoundary35to34
    {
        type            processor;
        value           nonuniform List<scalar> 8(1.277652556 1.275908976 1.342455405 1.446705705 1.512488753 1.523700578 1.520340853 1.504634144);
    }
}


// ************************************************************************* //
