/*--------------------------------*- C++ -*----------------------------------*\
  =========                 |
  \\      /  F ield         | OpenFOAM: The Open Source CFD Toolbox
   \\    /   O peration     | Website:  https://openfoam.org
    \\  /    A nd           | Version:  7
     \\/     M anipulation  |
\*---------------------------------------------------------------------------*/
FoamFile
{
    version     2.0;
    format      ascii;
    class       volScalarField;
    location    "1.2";
    object      rho;
}
// * * * * * * * * * * * * * * * * * * * * * * * * * * * * * * * * * * * * * //

dimensions      [1 -3 0 0 0 0 0];

internalField   nonuniform List<scalar> 
2225
(
0.8591607902
0.8539006551
0.850995142
0.8475019926
0.8416805913
0.8380149662
0.8357612745
0.8318837271
0.8274388413
0.8252681683
0.8225600353
0.8189330718
0.8156644021
0.8126450771
0.8076737642
0.8077499813
0.9587094034
0.9517760797
0.9439071902
0.9375764734
0.9329313155
0.9255885703
0.9170898141
0.9137085143
0.9106418781
0.9024250342
0.8960200981
0.8941463039
0.8906768452
0.8830278873
0.8791744153
0.8766915372
0.8717951613
0.8659357379
0.8626948054
0.8594675407
0.8534879189
0.8492209465
0.8467045249
0.8429805424
0.838023588
0.8352973762
0.8330367846
0.82875667
0.8258328977
0.8233910953
0.8196384425
0.8135963673
0.9756234147
0.9678626157
0.9589082412
0.9519577994
0.9475510227
0.9407973793
0.9306978561
0.9266496318
0.9239556344
0.9165334044
0.9083100172
0.9060681961
0.9031258056
0.8953958119
0.8904050114
0.8879256206
0.883399123
0.8771833678
0.873958755
0.8709570086
0.8652575146
0.8602838124
0.8576431834
0.8538162417
0.8485796783
0.8455332195
0.8431817109
0.8388985515
0.8356363782
0.8335122961
0.8310884911
0.8247768521
0.9917309485
0.9847451607
0.9748869812
0.9658814811
0.961783179
0.9564560666
0.945738133
0.9397880201
0.9371546321
0.9309431578
0.9213672064
0.9185079328
0.916152798
0.9090834349
0.903249287
0.9005624248
0.8962654812
0.889254499
0.8854719335
0.8827404944
0.8773155666
0.8717874588
0.8687300535
0.8651247746
0.8595733617
0.8563270277
0.8538094007
0.8491444951
0.8451442809
0.8428961042
0.8408353135
0.835422525
1.005989177
1.000740527
0.9920277518
0.9803386231
0.9754492392
0.9713211402
0.9615450539
0.9534733539
0.9506897421
0.9456665169
0.9353419469
0.9310901155
0.9286936662
0.9222252876
0.9151468669
0.9121484957
0.9081547347
0.9004547039
0.8962056902
0.8936351622
0.8886107968
0.8826211607
0.8795745809
0.8763316197
0.8705812557
0.8669566906
0.8646196207
0.8602170496
0.8556271603
0.8530417844
0.8507882487
0.8453270858
1.019013707
1.015221329
1.009474918
0.9969975669
0.9888559478
0.9853235473
0.9776829905
0.9678183054
0.9641404512
0.960003318
0.9499667833
0.9440140586
0.9415138957
0.9358519114
0.9279119377
0.924743253
0.9213034809
0.9135560195
0.9080583502
0.9053578749
0.9006614509
0.8938481659
0.8904589885
0.8873675121
0.8814974403
0.8774539057
0.875204419
0.8711960993
0.8660058876
0.8632155323
0.8611365974
0.8555943648
1.033698713
1.028664452
1.025339385
1.015546877
1.003489675
0.9991360813
0.9931570248
0.982613844
0.9775744767
0.9739180156
0.9647433942
0.9570069468
0.9542279317
0.949315893
0.9406024619
0.9366809037
0.9335410506
0.9259457959
0.9191322027
0.9163430542
0.9122190279
0.9048110572
0.9008193665
0.8980681666
0.8924114347
0.8878910764
0.8857408085
0.8821731242
0.8766087582
0.8735404124
0.8713834156
0.8659029763
1.052319369
1.041193153
1.03900129
1.033558575
1.020649437
1.013196816
1.007921083
0.9979809978
0.9911616912
0.9875897718
0.9797463239
0.9701882603
0.9668232554
0.9626614616
0.9535548874
0.9489111572
0.9463154048
0.9398372276
0.931584891
0.9283000894
0.9247737606
0.9171805823
0.912175323
0.9093117224
0.9037683455
0.8982906485
0.8959815231
0.8928245349
0.8868472817
0.8832843805
0.8811003261
0.87549721
1.073311199
1.056525618
1.051548609
1.048717098
1.038644102
1.028207979
1.022584967
1.013598798
1.004895963
1.000987755
0.9944901423
0.983659765
0.9793930439
0.9758937433
0.9671081286
0.9608867396
0.9584202326
0.952977508
0.9435148578
0.9395367626
0.9364616034
0.9292317389
0.9228317912
0.9200663629
0.9152432827
0.9088891682
0.9063650283
0.9037635363
0.8978701508
0.8937626889
0.8915703463
0.8859995791
1.092592429
1.077029346
1.064054685
1.061782151
1.055817459
1.044637579
1.037494377
1.029198455
1.018832061
1.014236194
1.009150812
0.9980243361
0.9916581162
0.988650322
0.9811166421
0.973163468
0.9706253129
0.9665301264
0.9567708153
0.9513002366
0.9485533688
0.9423555927
0.9346810698
0.9315723825
0.9273880187
0.920175554
0.916848084
0.9144481711
0.9088558068
0.903806151
0.9014340658
0.8959156936
1.108087573
1.097830671
1.08025253
1.074408609
1.070856224
1.061443211
1.05284174
1.044927552
1.033445565
1.027242432
1.02313593
1.013439717
1.004195171
1.001156141
0.9952288343
0.9858110667
0.9824824931
0.9793147926
0.9703493685
0.9629220747
0.9601336411
0.9549664003
0.9459651976
0.9419572717
0.9384875304
0.9309910869
0.9265755722
0.9246142
0.9200360387
0.914394628
0.9118538469
0.9064072027
1.12105186
1.115521901
1.101102994
1.087439747
1.083771526
1.077119233
1.068383578
1.060884246
1.049364906
1.039964976
1.036451251
1.02962599
1.017976617
1.013230763
1.008765184
0.9993470217
0.9943472243
0.9916616276
0.9843444508
0.9747357887
0.9715664347
0.9678047293
0.9588358146
0.9533798541
0.9505852519
0.9438922325
0.9375147437
0.935204036
0.931370511
0.9250889721
0.9218897455
0.9165466677
1.133785149
1.130084187
1.121621113
1.105175976
1.096637708
1.091014139
1.083101138
1.076055883
1.06613427
1.053437316
1.048902502
1.044537075
1.033896377
1.025852232
1.021693485
1.013401159
1.006272899
1.003572082
0.9980800296
0.9872497309
0.9826528276
0.9796922385
0.9718666136
0.9640132496
0.9613304872
0.9562254985
0.9478188037
0.9445826735
0.9418807053
0.9360432877
0.9319081858
0.9263259418
1.149006174
1.14256545
1.138164616
1.126631296
1.112182233
1.103974085
1.096605888
1.09036404
1.082930326
1.069285462
1.060290645
1.057405857
1.050407792
1.039851569
1.034305344
1.027553433
1.018725844
1.015218256
1.011390918
1.001356637
0.9935535272
0.9909078307
0.9852402106
0.9757260943
0.9724412896
0.9691809813
0.9608164371
0.9550491406
0.952970821
0.9483181181
0.9432305226
0.9367926222
1.170589905
1.155720922
1.151499231
1.145133562
1.131634267
1.118798835
1.109691308
1.103681416
1.098251199
1.087697855
1.073464462
1.06889749
1.064614406
1.054968363
1.047113291
1.041207974
1.032170069
1.026665906
1.023711995
1.016269738
1.005709469
1.001972022
0.9979132897
0.9884044159
0.9827303889
0.9802681887
0.9737994668
0.9646571758
0.9617369143
0.9586510386
0.9538008207
0.9465991936
1.193440399
1.174244162
1.163346292
1.159381017
1.151063767
1.137572096
1.124111013
1.115653128
1.111413151
1.105071622
1.091133789
1.07999431
1.076640938
1.070238791
1.061038927
1.054603151
1.046433772
1.037939146
1.034927693
1.030492852
1.020059075
1.012852197
1.009524384
1.002290629
0.9938230586
0.991195692
0.9872118871
0.9775662155
0.9713173934
0.9693732936
0.9657937104
0.9578142318
1.212605971
1.197562018
1.178513871
1.171723051
1.16687776
1.156960453
1.142483375
1.12905151
1.123341072
1.11934752
1.110110906
1.094666263
1.087951542
1.083721036
1.075583965
1.068104365
1.061173072
1.051065099
1.045344919
1.042418665
1.035023399
1.024976528
1.020642051
1.015422339
1.005996898
1.001565845
0.9988088058
0.9916551685
0.980997006
0.978061922
0.9758343754
0.9683691852
1.227342477
1.218294251
1.200392845
1.184432709
1.179480116
1.1734638
1.162610529
1.147015293
1.134981917
1.130995825
1.126115304
1.113982635
1.100254673
1.095429522
1.089481257
1.081722271
1.075561023
1.066584917
1.055915463
1.052620106
1.048766111
1.039416758
1.03176021
1.027235062
1.019123794
1.011979541
1.0095755
1.00533128
0.9942581251
0.9876648053
0.9864151056
0.9802785065
1.241087053
1.235352068
1.223439375
1.203487011
1.191980427
1.187212775
1.180009775
1.167490327
1.150994742
1.142048439
1.138773591
1.131873359
1.117244266
1.107521274
1.102166525
1.094815392
1.08872501
1.082097414
1.070086867
1.062328615
1.060048625
1.054068293
1.044430175
1.038787961
1.032350561
1.023159138
1.01938111
1.016577079
1.008597146
0.9979639143
0.9958777723
0.9907440542
1.254748822
1.24852974
1.241444399
1.22667247
1.207908409
1.199106953
1.19374977
1.185678292
1.171971629
1.155538158
1.149230509
1.145586143
1.136215568
1.122441361
1.114383388
1.107043271
1.100681932
1.096040317
1.08730062
1.073593772
1.069519877
1.0666817
1.058825096
1.050867238
1.045138526
1.036054758
1.028971393
1.026746481
1.022237898
1.011177592
1.006005477
1.001054122
1.275706089
1.262027627
1.256495404
1.247573681
1.230410375
1.213584655
1.206016421
1.200343879
1.191221933
1.175306505
1.160873605
1.156862924
1.151834679
1.140257783
1.128763083
1.119752509
1.111928599
1.10782908
1.102522883
1.089974102
1.079407164
1.077353897
1.072487521
1.063606591
1.057457901
1.050185714
1.040132305
1.036207251
1.033522313
1.025569714
1.017388676
1.010776922
1.300269725
1.278698336
1.268365434
1.262436996
1.251647176
1.233862943
1.218665807
1.211890944
1.206069077
1.195917279
1.178482215
1.167209292
1.16359377
1.156697429
1.145829552
1.134789523
1.123556016
1.117878269
1.114835322
1.107508884
1.092847459
1.087012504
1.084130549
1.076850666
1.069622997
1.063949941
1.054158806
1.045319584
1.043121899
1.038785256
1.030757432
1.02145617
1.321638491
1.303085067
1.283049701
1.275107911
1.268798868
1.256468429
1.23762821
1.224102428
1.218555027
1.212485596
1.199971051
1.182123545
1.17435308
1.169870368
1.16199127
1.151709695
1.138743944
1.12824343
1.125263626
1.121485545
1.110371895
1.098266014
1.094825065
1.089449583
1.081368225
1.076154217
1.069243857
1.057463302
1.052067486
1.049434103
1.043633481
1.03300813
1.33636441
1.325338237
1.304921263
1.287169222
1.280784266
1.27361768
1.259754892
1.24068901
1.229367194
1.224599934
1.217658781
1.20323634
1.187157652
1.18062077
1.175145311
1.167668876
1.156974595
1.141831816
1.134270824
1.132125052
1.126460911
1.113569805
1.105854873
1.101015673
1.092957205
1.087087519
1.0827003
1.073337429
1.061670628
1.058541692
1.055238311
1.045299846
1.347888143
1.341750741
1.329035203
1.307030229
1.292593917
1.287273931
1.279350761
1.263589901
1.244547587
1.235802832
1.23141563
1.222899289
1.206567775
1.192674099
1.18651077
1.181066944
1.17350723
1.1605124
1.145728138
1.141486324
1.138710686
1.129940164
1.11894659
1.112816519
1.105074982
1.097449973
1.093828129
1.088237781
1.075809232
1.067561143
1.06528521
1.05707081
1.360754848
1.353610014
1.346546576
1.33125412
1.30926465
1.298103982
1.292749706
1.283325136
1.266050716
1.248364804
1.241721725
1.236827737
1.22660892
1.210075533
1.197871706
1.191882462
1.186577078
1.178516279
1.163712801
1.151088824
1.148233933
1.14358478
1.133831123
1.125618883
1.117721398
1.107823016
1.103261785
1.100329942
1.092425163
1.07905167
1.074707947
1.067908475
1.382880025
1.365359929
1.359159765
1.350787738
1.333385376
1.312594506
1.303841234
1.298370349
1.28786378
1.269055338
1.253426411
1.248306054
1.242618067
1.230547695
1.214259391
1.203254386
1.197641137
1.192433373
1.182928945
1.166755706
1.15768098
1.15445493
1.147771482
1.139316748
1.131499247
1.120544319
1.112283539
1.109928309
1.105842742
1.094464047
1.085621504
1.078137943
1.408783153
1.384483153
1.37009853
1.36409834
1.354233899
1.335138594
1.316021445
1.308916735
1.302914668
1.290844339
1.271455572
1.258620688
1.253783885
1.246713372
1.234030934
1.218832444
1.207917966
1.202655243
1.19742551
1.186722147
1.170928269
1.163831547
1.159036315
1.152232648
1.145414267
1.136063788
1.123185495
1.117878467
1.115887895
1.109602944
1.099193488
1.088631936
1.428204627
1.410442817
1.386457177
1.374593774
1.368622541
1.3574965
1.336957983
1.319973422
1.314174186
1.307775631
1.294445684
1.275251794
1.264620446
1.259431842
1.251558421
1.238803178
1.223091105
1.212523689
1.208390777
1.20280471
1.190177415
1.175995456
1.169213168
1.163534876
1.157747344
1.150869144
1.138996008
1.127261017
1.124525251
1.121455351
1.113576079
1.100553019
1.441275838
1.431493192
1.411880454
1.388647358
1.379275484
1.372994422
1.360108081
1.338642922
1.324373039
1.319081935
1.311731857
1.297294266
1.279225188
1.269355912
1.263575104
1.255564415
1.242852609
1.226129215
1.216973223
1.21350628
1.207022747
1.193887941
1.18129652
1.173628071
1.16794508
1.163096093
1.155635054
1.141842325
1.132512258
1.130393813
1.126144106
1.113635394
1.452526612
1.445375555
1.434460588
1.41273091
1.391792019
1.384204739
1.37699638
1.362232819
1.340959341
1.328877673
1.323754443
1.315997477
1.30114151
1.283210652
1.273811721
1.268554215
1.260832546
1.246537213
1.22924
1.22273982
1.219367062
1.211457276
1.19830065
1.186316741
1.177920429
1.173174956
1.168641152
1.159481189
1.144878885
1.138708021
1.136290677
1.12603537
1.471147987
1.456454441
1.449430314
1.436620835
1.4137657
1.395782643
1.388680314
1.380322284
1.364226671
1.343443675
1.33282706
1.327960453
1.319777227
1.304127589
1.286217646
1.278111026
1.273139044
1.264639175
1.248853044
1.233306351
1.228262283
1.223738953
1.215043345
1.203208734
1.190662052
1.181787944
1.177919302
1.173407742
1.162764571
1.149018444
1.145100844
1.136958172
1.498063719
1.472491931
1.460594994
1.452783093
1.438303392
1.415611726
1.399360925
1.392353578
1.383381493
1.366417319
1.345775779
1.336838597
1.332399175
1.32373012
1.306798608
1.290064861
1.283322068
1.278240249
1.26879491
1.25224451
1.238656391
1.233497199
1.228191101
1.219772981
1.208053274
1.194024367
1.186176418
1.183408561
1.178135001
1.165073461
1.155621997
1.147032013
1.520119045
1.498106404
1.474632384
1.463875912
1.455468581
1.440233594
1.417461941
1.402309449
1.395815156
1.386456032
1.368172029
1.348551567
1.341530759
1.33668617
1.326626949
1.309402744
1.294373025
1.287680297
1.28190567
1.271862207
1.256124248
1.243233152
1.23711268
1.231627184
1.224097787
1.212092681
1.197002681
1.190768568
1.1882598
1.181299578
1.169888792
1.157616563
1.534611161
1.521427563
1.498886908
1.476347244
1.466559906
1.45816804
1.442120678
1.418778643
1.405674136
1.399578352
1.38920367
1.369814994
1.352620223
1.346145499
1.34035133
1.329623036
1.313020664
1.298114806
1.291232845
1.285780319
1.276141018
1.260602519
1.247254185
1.241185913
1.236574474
1.229235517
1.215355039
1.200462005
1.196514943
1.193462518
1.185478059
1.170489734
1.546963443
1.536596142
1.523024622
1.499382227
1.477855426
1.469625171
1.460930623
1.443218129
1.420537007
1.409630071
1.403094561
1.391543824
1.372657788
1.356694614
1.349520432
1.343249671
1.332820971
1.316229258
1.300659035
1.29437592
1.28929571
1.279819716
1.264285989
1.250884276
1.24527543
1.240897181
1.233069499
1.217882148
1.204952498
1.201949169
1.197843248
1.184322581
1.566523626
1.548539546
1.538955137
1.524388595
1.499259353
1.480342793
1.472986236
1.463091376
1.44412946
1.423233989
1.412997567
1.405884454
1.394247052
1.376147835
1.359544611
1.352054069
1.346411233
1.336330947
1.318599692
1.303388427
1.29825503
1.293583892
1.283956282
1.268149816
1.255175766
1.250038307
1.245847328
1.237033235
1.22072283
1.210517511
1.207806486
1.197272779
1.591749115
1.566259165
1.550911322
1.541273494
1.524893901
1.499880124
1.483408188
1.47565503
1.464716314
1.445867708
1.425732167
1.415375315
1.408463209
1.397434891
1.378922756
1.361724103
1.355237535
1.349940102
1.339124129
1.320623834
1.306883144
1.302303105
1.297127184
1.287176447
1.271868207
1.258982631
1.253917308
1.249430295
1.239696053
1.223667844
1.21692609
1.207947409
1.61115941
1.59096958
1.566942034
1.55328474
1.542738615
1.525360849
1.501597974
1.485730035
1.47758192
1.466671018
1.447985089
1.427452214
1.417741245
1.411497797
1.40034226
1.380788882
1.364820249
1.359038334
1.353245724
1.341533136
1.323461259
1.310670407
1.305662809
1.300479918
1.29086055
1.275552327
1.262500685
1.258065515
1.253761015
1.242451164
1.229705576
1.218347458
1.62475412
1.611329672
1.590624126
1.568104246
1.554647935
1.543618749
1.526519502
1.503155342
1.487417633
1.479760753
1.469059962
1.449538002
1.429321809
1.420861354
1.414508249
1.40245686
1.383227272
1.368398381
1.36221211
1.355801923
1.344248794
1.326910228
1.31363593
1.308486274
1.303327943
1.294058711
1.278338869
1.265826589
1.262299888
1.256920879
1.245955075
1.230328435
1.625284904
1.611372892
1.590839495
1.568572585
1.55532646
1.544771475
1.527800443
1.504146992
1.489681519
1.482489357
1.47113013
1.450958801
1.432137145
1.4237789
1.416759099
1.404583245
1.386405558
1.371253403
1.364380561
1.358385101
1.347470272
1.330072626
1.31654424
1.311362425
1.306810398
1.297169788
1.280701063
1.270193248
1.266827149
1.260843398
1.244983742
1.639345171
1.625578946
1.611737789
1.59076466
1.568427366
1.556384288
1.546137079
1.528524072
1.505615936
1.492510623
1.484847546
1.472777063
1.453264501
1.434906436
1.425700895
1.418576997
1.407259258
1.389412927
1.373248454
1.366744726
1.361292746
1.350750864
1.332895379
1.319516768
1.315158861
1.309838337
1.299678023
1.283408599
1.274764667
1.271073685
1.258303784
1.660199634
1.639171969
1.626087484
1.611996346
1.590082364
1.568836383
1.557708613
1.547020573
1.529312838
1.507900976
1.494674532
1.486431896
1.47469523
1.45604301
1.43688336
1.4272476
1.420808056
1.410100824
1.391766615
1.375558378
1.369597671
1.364554661
1.353356394
1.335528843
1.323609235
1.318288346
1.313178463
1.301878324
1.287137058
1.280302049
1.269364737
1.681714851
1.659191939
1.639215079
1.62658701
1.611734672
1.589855023
1.569838289
1.558460898
1.547565528
1.530794744
1.509867381
1.495837844
1.487884785
1.477013799
1.458408296
1.438644588
1.429482179
1.423426776
1.412635734
1.394033073
1.378194647
1.372743243
1.367186757
1.356063533
1.338606836
1.32675753
1.322002069
1.315319027
1.304791284
1.293037864
1.279176274
1.697609197
1.680604145
1.658302679
1.639462079
1.626518857
1.611460178
1.590474164
1.570468494
1.558697206
1.548463741
1.532430054
1.510892873
1.496881616
1.489703271
1.47911979
1.460369789
1.441007264
1.432114823
1.425928341
1.414922364
1.396505474
1.38094071
1.375360358
1.370100716
1.357872476
1.341939932
1.330872597
1.32458984
1.318607434
1.308217115
1.291506959
1.71161304
1.696517723
1.679274199
1.65784613
1.639165914
1.626153401
1.61177516
1.591211222
1.570555946
1.559323874
1.549710885
1.533456374
1.511625848
1.49838515
1.491385674
1.480712702
1.462473636
1.443669806
1.434436593
1.428138364
1.417377632
1.398830293
1.383654482
1.378440932
1.372239674
1.361170027
1.344494443
1.334870671
1.328790182
1.319973502
1.305254776
1.729180485
1.710572711
1.695253925
1.678420761
1.657262725
1.638457015
1.626071648
1.612329077
1.591417755
1.571064029
1.560382985
1.550600657
1.534055516
1.51292601
1.499723919
1.492478435
1.482138519
1.464789392
1.445878516
1.43653237
1.430401304
1.419638385
1.401341798
1.386776026
1.381618117
1.375119178
1.361811915
1.350007131
1.338158565
1.329810991
1.320491405
1.747944672
1.728101102
1.709339628
1.694298186
1.677732813
1.656398557
1.637906521
1.626198036
1.612414483
1.591745539
1.572099057
1.561078909
1.550986931
1.535060087
1.514432586
1.500480197
1.493343387
1.483696874
1.466699542
1.447913891
1.4386683
1.432692929
1.421770852
1.403719575
1.391196608
1.384275186
1.376545519
1.365809378
1.349637438
1.340201853
1.341045665
1.763703775
1.746750194
1.726939613
1.70847075
1.693722777
1.677076863
1.655719235
1.637762537
1.62588211
1.612241696
1.592471689
1.572800869
1.561128825
1.551520602
1.536475327
1.51558981
1.501228285
1.494481813
1.485162478
1.468272827
1.449818008
1.441018716
1.434596905
1.423649336
1.407572728
1.394252074
1.387085162
1.376231527
1.363528511
1.357294825
1.374340583
1.777899795
1.762330336
1.74557927
1.726003275
1.707867216
1.693121468
1.676451591
1.655617769
1.637307235
1.625266626
1.612305418
1.593168964
1.572723793
1.561327182
1.552461804
1.53774095
1.516582548
1.502474941
1.495823628
1.486321044
1.469633849
1.451962611
1.442944249
1.436157537
1.424959938
1.411180892
1.396891014
1.38534147
1.380107061
1.381323179
1.43304148
1.792244415
1.776121656
1.760776457
1.744272635
1.725138177
1.707214468
1.692496198
1.676327347
1.655534406
1.636731382
1.624936464
1.612605303
1.593228277
1.572804069
1.561989047
1.553373857
1.538532721
1.517842588
1.5040733
1.497033944
1.487245868
1.470982554
1.45457867
1.444290949
1.436910334
1.425236142
1.410359932
1.401972052
1.404582317
1.420048442
1.526744752
1.805761871
1.790552511
1.774419501
1.759167909
1.743009563
1.724182595
1.706294343
1.691975747
1.676172225
1.655359959
1.636558857
1.62511262
1.612658618
1.593316525
1.57350616
1.562793537
1.55377952
1.539147208
1.519466507
1.505753945
1.497964249
1.48809132
1.472418853
1.457285159
1.445195256
1.434651393
1.427485052
1.429687556
1.448833569
1.504086759
1.649585038
1.817445507
1.804424533
1.78899738
1.772611732
1.757497581
1.741600204
1.722894793
1.705308032
1.691316361
1.675780376
1.655308952
1.637119502
1.625292821
1.612658691
1.593887299
1.574729047
1.563062973
1.553945578
1.53985721
1.521142619
1.507802531
1.49842237
1.488361466
1.47324473
1.456949955
1.448884791
1.452163423
1.469991171
1.536139525
1.642754172
1.755230745
1.826734745
1.816176658
1.802940241
1.787330338
1.771055893
1.756013659
1.740130801
1.721561424
1.704174831
1.69027173
1.675048989
1.655645365
1.637586473
1.625381362
1.612938936
1.59505959
1.575611424
1.563617862
1.553931201
1.540732345
1.523040913
1.509419057
1.498232154
1.48572724
1.476214498
1.477026078
1.497676001
1.557782703
1.663306691
1.787539398
1.820546788
1.832659605
1.825421686
1.814606746
1.801346164
1.785890611
1.769557535
1.754403366
1.738545349
1.720246542
1.702805314
1.689004643
1.674461825
1.655771525
1.637903987
1.62554802
1.613387189
1.596031591
1.576868243
1.564615412
1.553955553
1.540626654
1.524179486
1.508688862
1.500688046
1.503448781
1.522789439
1.590065866
1.703484038
1.793777941
1.852624915
1.84783497
1.832447139
1.83027188
1.823800736
1.812864661
1.799504035
1.784102272
1.767945404
1.75287482
1.737206954
1.71891977
1.701622859
1.687923909
1.673747947
1.655641204
1.637978513
1.62587157
1.613228264
1.596840523
1.578876814
1.565403867
1.552876687
1.53861661
1.526896533
1.52863441
1.550768749
1.61442054
1.730388545
1.838976558
1.879521202
1.875940396
1.858274259
1.832050158
1.832830869
1.829895629
1.822401482
1.81113355
1.7976255
1.782329242
1.766250373
1.751284897
1.735820605
1.717931096
1.70079169
1.687133717
1.672676543
1.65540657
1.63837437
1.625663886
1.612606699
1.596805935
1.579594133
1.564464583
1.555016115
1.558161285
1.578111808
1.651985992
1.772807465
1.855283542
1.916873884
1.916554885
1.902897283
1.868973272
1.834451623
1.833967836
1.832315009
1.828213043
1.820538568
1.809077573
1.795566757
1.78017314
1.764428187
1.749767803
1.734533601
1.717392292
1.700409165
1.686342311
1.671678286
1.655180854
1.638703416
1.624666664
1.610143034
1.59501022
1.583085753
1.585771732
1.611834735
1.682138722
1.793173698
1.918244216
1.93188717
1.935504174
1.928270502
1.913591393
1.88070162
1.83289974
1.831196503
1.83200073
1.831500476
1.827888618
1.819501237
1.807598294
1.793772667
1.778683944
1.762705404
1.748299008
1.733269269
1.716870375
1.700205525
1.685625709
1.670611741
1.654608333
1.637156856
1.622068193
1.612424421
1.617100888
1.641704659
1.721176114
1.846479697
1.929185642
1.985587421
1.983140324
1.96206079
1.935618517
1.91806007
1.883781237
1.816353767
1.823978864
1.833746528
1.833680844
1.83180203
1.827305791
1.818769436
1.806746369
1.792432351
1.776915504
1.761321466
1.746866877
1.732020645
1.716265283
1.699740044
1.68460588
1.668174046
1.651776482
1.640865804
1.64502465
1.676423974
1.758624338
1.868705822
1.985247858
1.9981721
1.997087672
1.992547681
1.978976203
1.9543962
1.92977053
1.888360267
1.786945079
1.824678405
1.83347226
1.832261688
1.831525292
1.831142013
1.827116277
1.818036649
1.805392045
1.790946164
1.776029303
1.760361375
1.745902177
1.730492515
1.714896621
1.697692432
1.68135863
1.672206778
1.678250079
1.710410026
1.798588679
1.924612583
2.011732581
2.057045159
2.048147969
2.019736438
1.995680331
1.979253504
1.957591396
1.933531324
1.893216004
1.75244847
1.818016494
1.818509405
1.822079123
1.83015551
1.832853561
1.831228762
1.825988866
1.816739368
1.804515647
1.790041489
1.775123175
1.759557587
1.744277567
1.727839595
1.711371288
1.703304874
1.709717942
1.749900462
1.847063169
1.957184449
2.050502073
2.06945806
2.068328536
2.061044056
2.0454734
2.015085064
1.984819023
1.959547998
1.937185481
1.900346157
1.639939768
1.752558054
1.784226345
1.810981896
1.831161154
1.831989736
1.830901263
1.829808232
1.825141553
1.815851464
1.802949214
1.788749424
1.773792498
1.757297308
1.740945356
1.73467718
1.743802163
1.790707712
1.887799085
2.01451431
2.105108843
2.126292152
2.111411564
2.083251766
2.063192293
2.044195779
2.019489726
1.990232027
1.963130282
1.940576563
1.901203494
1.514569264
1.635046785
1.747833874
1.815030917
1.823408951
1.824040784
1.827805365
1.829758428
1.828692082
1.823505491
1.814068233
1.801739124
1.786690627
1.770286923
1.766486857
1.778575878
1.829409513
1.940032216
2.066143542
2.114863698
2.14320401
2.141096549
2.130098174
2.104363176
2.073754212
2.045291164
2.021486233
1.996291174
1.968404261
1.944173082
1.90271693
1.436605348
1.516632312
1.636857883
1.762039084
1.790748455
1.812555836
1.830025674
1.829277809
1.828104237
1.827012506
1.822394264
1.813568596
1.798508174
1.798077504
1.813453339
1.877062662
1.990967203
2.106394266
2.196609129
2.19525616
2.177360962
2.151606728
2.133760847
2.112169206
2.082644728
2.051491731
2.025710833
2.000627091
1.972779877
1.947892025
1.905407519
1.407652779
1.436447489
1.518159172
1.642475312
1.741371041
1.811123988
1.823405103
1.826093492
1.826829498
1.827794117
1.826882317
1.8217565
1.824841402
1.850552294
1.921125257
2.035757933
2.165860991
2.193721986
2.216944233
2.215015976
2.200579121
2.172107814
2.142335136
2.117066067
2.090924855
2.061014191
2.031535173
2.004334749
1.976998397
1.952790688
1.910056715
1.401047532
1.407382494
1.438123186
1.516939567
1.634173401
1.759734479
1.789037436
1.814691365
1.827145617
1.827373159
1.828697228
1.841145835
1.880487826
1.973939413
2.099363483
2.199447983
2.273630263
2.266170996
2.245821032
2.223830202
2.204796175
2.180149538
2.14928615
2.121088833
2.095323304
2.067307152
2.037661665
2.00937644
1.981531027
1.957111333
1.914267224
1.40009784
1.400987879
1.408189305
1.434829896
1.519587251
1.643580341
1.741922328
1.807470377
1.820654707
1.82527154
1.847601756
1.9101972
2.010741177
2.128609849
2.238050465
2.277059174
2.292600451
2.290903992
2.276592588
2.249652659
2.221710078
2.196251524
2.168453711
2.138784709
2.110427773
2.082779779
2.053999077
2.024443606
1.994550591
1.969018035
1.925703637
1.400010814
1.400092406
1.401127858
1.407149427
1.439280715
1.51477166
1.639316593
1.75513625
1.78928031
1.842660852
1.925449139
2.038351516
2.180797545
2.274357443
2.324544974
2.324256389
2.315397795
2.296040677
2.273170772
2.245254942
2.215424811
2.18805221
2.16024752
2.13061739
2.101317349
2.072794682
2.043932827
2.014564012
1.984574791
1.958661921
1.914873024
1.400005293
1.400010521
1.400105634
1.401014264
1.408290565
1.436399047
1.522197662
1.650990095
1.780033493
1.924025743
2.072320736
2.16843598
2.268300559
2.31982737
2.350592505
2.343505876
2.322772138
2.29843009
2.273210512
2.246656269
2.218254839
2.189887973
2.161544906
2.132176786
2.102386223
2.072720451
2.043439188
2.014234347
1.984360739
1.958220097
1.914206062
1.400005048
1.400005259
1.400011054
1.400096407
1.401136085
1.408075854
1.443201816
1.547232033
1.765285515
1.989210084
2.172408679
2.329160382
2.381569187
2.377070353
2.368378287
2.351230004
2.328140948
2.300476523
2.272620041
2.246468979
2.219943044
2.191837162
2.163156093
2.134025706
2.104127774
2.073567828
2.043731487
2.014564206
1.984885317
1.958643753
1.914380896
)
;

boundaryField
{
    inlet
    {
        type            calculated;
        value           nonuniform 0();
    }
    outlet
    {
        type            calculated;
        value           nonuniform List<scalar> 
71
(
0.8077618869
0.8136008068
0.8247822481
0.8354248179
0.845333367
0.8556038281
0.8659053379
0.875500128
0.8860029422
0.8959169736
0.9064079045
0.9165390979
0.9263168892
0.9367844061
0.9465964397
0.9578221778
0.9683794224
0.9802811543
0.9907288543
1.001025697
1.010755173
1.021458876
1.03302617
1.045315879
1.057069415
1.067881833
1.078106345
1.088623934
1.100575409
1.113661501
1.126039117
1.136931998
1.146996315
1.157612684
1.170523309
1.184349905
1.1972678
1.207911217
1.218322316
1.230350579
1.245020405
1.258306861
1.269331902
1.279160978
1.291528512
1.305268127
1.320479222
1.341038065
1.374357517
1.433043786
1.526738186
1.649595659
1.7552311
1.820547892
1.847832177
1.85826981
1.868973638
1.880700262
1.883785163
1.888364458
1.893217418
1.900331588
1.901207102
1.902723502
1.905412222
1.910061768
1.914270977
1.925704385
1.914874222
1.914206033
1.914379712
)
;
    }
    bottom
    {
        type            calculated;
        value           nonuniform 0();
    }
    top
    {
        type            calculated;
        value           nonuniform List<scalar> 
31
(
1.400005048
1.400005259
1.400011054
1.400096407
1.401136085
1.408075854
1.443201816
1.547232033
1.765285515
1.989210084
2.172408679
2.329160382
2.381569187
2.377070353
2.368378287
2.351230004
2.328140948
2.300476523
2.272620041
2.246468979
2.219943044
2.191837162
2.163156093
2.134025706
2.104127774
2.073567828
2.043731487
2.014564206
1.984885317
1.958643753
1.914380896
)
;
    }
    obstacle
    {
        type            calculated;
        value           nonuniform 0();
    }
    defaultFaces
    {
        type            empty;
    }
    procBoundary35to29
    {
        type            processor;
        value           nonuniform List<scalar> 
33
(
0.8472868545
0.8424739026
0.8398286893
0.8362383288
0.8309547245
0.8276146397
0.8255473591
0.8212183842
0.8173059636
0.814872647
0.8121657122
0.8074037706
0.8044778251
0.8020410563
0.8004948795
0.8414635582
0.9422011316
0.9365068106
0.928831368
0.9228227062
0.9184505423
0.9112441963
0.9039730799
0.9006744261
0.8969880723
0.8886456113
0.8835723673
0.8814847572
0.877008892
0.8695922093
0.8665010183
0.8641481378
0.8641481378
)
;
    }
    procBoundary35to34
    {
        type            processor;