/*--------------------------------*- C++ -*----------------------------------*\
  =========                 |
  \\      /  F ield         | OpenFOAM: The Open Source CFD Toolbox
   \\    /   O peration     | Website:  https://openfoam.org
    \\  /    A nd           | Version:  7
     \\/     M anipulation  |
\*---------------------------------------------------------------------------*/
FoamFile
{
    version     2.0;
    format      ascii;
    class       volScalarField;
    location    "0.1";
    object      T;
}
// * * * * * * * * * * * * * * * * * * * * * * * * * * * * * * * * * * * * * //

dimensions      [0 0 0 1 0 0 0];

internalField   nonuniform List<scalar> 
22
(
1
1
1
1
1
1
1
1
1.000000005
1.000000003
1.000000001
1.000000563
1.000000119
1.000000005
1.000006028
1.000000445
1.000000007
1.000009416
0.999998838
0.9999997056
0.9996196433
0.9997735841
)
;

boundaryField
{
    inlet
    {
        type            fixedValue;
        value           nonuniform 0();
    }
    outlet
    {
        type            inletOutlet;
        inletValue      nonuniform 0();
        value           nonuniform 0();
    }
    bottom
    {
        type            slip;
    }
    top
    {
        type            slip;
    }
    obstacle
    {
        type            zeroGradient;
    }
    defaultFaces
    {
        type            empty;
    }
    procBoundary4to3
    {
        type            processor;
        value           nonuniform List<scalar> 6(1 1 1.000000002 1.000000002 1.00000068 1.000021028);
    }
    procBoundary4to5
    {
        type            processor;
        value           nonuniform List<scalar> 6(1 1 1 1 1 0.999999987);
    }
    procBoundary4to9
    {
        type            processor;
        value           nonuniform List<scalar> 2(1.00009928 0.9998814547);
    }
    procBoundary4to10
    {
        type            processor;
        value           nonuniform List<scalar> 4(0.9999594402 0.9931984465 0.9999594402 0.9968591281);
    }
}


// ************************************************************************* //
