/*--------------------------------*- C++ -*----------------------------------*\
  =========                 |
  \\      /  F ield         | OpenFOAM: The Open Source CFD Toolbox
   \\    /   O peration     | Website:  https://openfoam.org
    \\  /    A nd           | Version:  7
     \\/     M anipulation  |
\*---------------------------------------------------------------------------*/
FoamFile
{
    version     2.0;
    format      ascii;
    class       volScalarField;
    location    "2.7";
    object      T;
}
// * * * * * * * * * * * * * * * * * * * * * * * * * * * * * * * * * * * * * //

dimensions      [0 0 0 1 0 0 0];

internalField   nonuniform List<scalar> 
2222
(
1.420025493
1.416024864
1.412564779
1.405997284
1.612162036
1.577154533
1.558772015
1.544274017
1.53105989
1.532309972
1.535077303
1.532269636
1.528943659
1.524333517
1.514636647
1.507319603
1.50246818
1.497721788
1.490602079
1.482625767
1.475617394
1.469179603
1.461388423
1.454060516
1.448767147
1.444376933
1.439843987
1.434748906
1.429679202
1.424561877
1.420088389
1.41614672
1.412695667
1.405917833
1.403610874
1.614809675
1.663957992
1.64756717
1.620731571
1.583007291
1.559190113
1.542918885
1.530905844
1.532493882
1.535392101
1.533371102
1.530401235
1.524442512
1.514544731
1.507824918
1.504242083
1.498433698
1.490802966
1.482982675
1.476099794
1.469738738
1.461917107
1.454432161
1.449056691
1.44478327
1.440401837
1.435028913
1.429803171
1.424635865
1.420202209
1.416380943
1.412723435
1.405831496
1.370162951
1.586925426
1.652669442
1.647564797
1.628187738
1.587031339
1.558738013
1.54268302
1.53127922
1.532843041
1.536735093
1.535715766
1.5304976
1.524190133
1.514589942
1.509006424
1.505332203
1.49879352
1.49093568
1.483348695
1.476663733
1.470503206
1.462567342
1.454861807
1.449425552
1.445475888
1.440851358
1.435237093
1.429938491
1.424755848
1.420489733
1.416588323
1.412699607
1.405755305
1.348495569
1.559666027
1.64776126
1.649196889
1.631782449
1.588405783
1.560055295
1.544009795
1.531987175
1.534190573
1.538968921
1.536526125
1.530269815
1.523864011
1.515020705
1.510335731
1.505813266
1.498982783
1.491191387
1.483832758
1.477564492
1.471215133
1.463172551
1.455336927
1.449981864
1.446092683
1.4410163
1.435433737
1.43013352
1.425049659
1.420865051
1.416634847
1.412654466
1.40569847
1.330643703
1.536930164
1.643967737
1.65175489
1.633005417
1.591528309
1.563801313
1.546304459
1.533691106
1.537196885
1.539546784
1.536702093
1.529885939
1.523920759
1.51567826
1.510999624
1.506187497
1.499012021
1.49153547
1.48481883
1.478466177
1.471535991
1.46358682
1.455838056
1.450647879
1.446391501
1.441171255
1.435704441
1.430582768
1.425651387
1.420956066
1.416637372
1.412626385
1.405700073
1.30693707
1.519292277
1.644384662
1.654521436
1.636808291
1.599037368
1.568671275
1.549603198
1.536473832
1.538286025
1.539699079
1.536676024
1.529774831
1.524157564
1.516998862
1.511501314
1.506323499
1.499202359
1.492172549
1.486183188
1.478798613
1.47177105
1.463947194
1.456378235
1.451134389
1.44662371
1.441351696
1.436141283
1.431229017
1.425863005
1.42095624
1.416640759
1.412632792
1.405881559
1.28208358
1.49721998
1.641509605
1.654633111
1.641618163
1.608030464
1.574270155
1.552332944
1.537356259
1.538618585
1.539518467
1.536187781
1.529870454
1.524545135
1.518793975
1.511907977
1.506266983
1.499623037
1.493623501
1.486813104
1.479016972
1.472087905
1.464367576
1.457050141
1.451476631
1.446843938
1.441538747
1.436482046
1.431474501
1.425926531
1.420955277
1.41662917
1.412688537
1.40628334
1.465685668
1.626615622
1.653973066
1.645758897
1.617564607
1.58011025
1.554647493
1.537770645
1.538368447
1.538610492
1.535830455
1.530173061
1.525768076
1.519813094
1.51202642
1.506660425
1.500543971
1.494795526
1.48702187
1.479285998
1.472477064
1.464987617
1.457623423
1.45173266
1.447041424
1.441733964
1.436589852
1.431583082
1.42602147
1.420956501
1.416594956
1.412832627
1.406523219
1.430311324
1.604966965
1.651508611
1.647773439
1.624707534
1.585505752
1.556900804
1.538149224
1.538054663
1.538387907
1.535998956
1.530802278
1.527618929
1.520106315
1.511996504
1.507367863
1.50217883
1.495139563
1.487122788
1.479610738
1.472993524
1.465883548
1.457937615
1.451968949
1.447225232
1.441925532
1.436677508
1.43171105
1.426145254
1.420954819
1.416608868
1.413124359
1.406490428
1.398739796
1.580823414
1.646347744
1.64831229
1.627989873
1.589110525
1.558944999
1.538710618
1.538475196
1.538665036
1.53634964
1.532785278
1.528209797
1.519824715
1.512246295
1.508680057
1.503028499
1.495291103
1.487259971
1.479979978
1.47385513
1.466525106
1.458241284
1.452221762
1.44744904
1.442129017
1.436815218
1.431871928
1.426296587
1.420947485
1.416833879
1.413380978
1.40635816
1.378109446
1.560262514
1.642540843
1.647029607
1.626379536
1.589685662
1.560622382
1.539214951
1.539368015
1.53906557
1.537843632
1.534872909
1.528163541
1.518785686
1.512711467
1.509737269
1.503315354
1.495299529
1.487495396
1.480516539
1.474850408
1.466975994
1.458599649
1.45251062
1.44774592
1.442398343
1.437019034
1.432072971
1.426487274
1.420993692
1.417386984
1.413406551
1.406180415
1.366835277
1.546755753
1.638304825
1.644833122
1.62576293
1.591139121
1.56230713
1.5401532
1.540538914
1.540119741
1.540459392
1.535182234
1.527410491
1.51847627
1.513647906
1.510195512
1.503541771
1.495295851
1.487820651
1.481504163
1.475466628
1.467432679
1.459005196
1.452838738
1.448170319
1.44292642
1.437495197
1.432476191
1.426799829
1.421355549
1.417725448
1.413362074
1.4059873
1.3514183
1.536003387
1.633794033
1.644637848
1.629522326
1.597150153
1.565788841
1.542105138
1.541996709
1.542509007
1.541294134
1.535061952
1.526679583
1.518648798
1.51467522
1.510481753
1.503606113
1.495475824
1.488367704
1.482637829
1.475917249
1.467946811
1.459438344
1.453238912
1.448739691
1.443517959
1.438128941
1.433224879
1.427436575
1.422053504
1.417738405
1.413281151
1.405942903
1.329230479
1.514059965
1.628181184
1.644762827
1.63373176
1.604735442
1.571042212
1.544845707
1.544342908
1.543977541
1.541366028
1.534402441
1.526488982
1.519008864
1.515522532
1.510717725
1.503478825
1.495825032
1.489578515
1.483303816
1.476340682
1.468464255
1.459925178
1.453792336
1.448978622
1.443643066
1.438269024
1.43356021
1.428110802
1.422211635
1.417683788
1.413252698
1.40590659
1.307364073
1.484591415
1.619605422
1.646385361
1.638922366
1.612979293
1.577474517
1.548499003
1.546960451
1.544458007
1.541241442
1.533619302
1.526467432
1.520209114
1.516353542
1.510923393
1.503665202
1.496523932
1.490942452
1.483692689
1.476723729
1.469009506
1.460595787
1.454378067
1.449131643
1.443746719
1.438373915
1.433663795
1.428335292
1.422243569
1.417617171
1.413262843
1.405955867
1.282858242
1.456080324
1.60584269
1.648245764
1.644078852
1.619761417
1.583667324
1.552766408
1.548400043
1.544821953
1.540231822
1.533135468
1.526524193
1.52254607
1.516701245
1.511041634
1.504115551
1.498164771
1.491562661
1.483963588
1.477132234
1.469686856
1.46147577
1.454770488
1.449300091
1.443803164
1.438453253
1.433777148
1.428460948
1.422293007
1.417586126
1.413387432
1.406253318
1.271578399
1.430570128
1.587997249
1.646838491
1.644972559
1.623219454
1.588043409
1.555977201
1.549496919
1.544530497
1.539046824
1.532980822
1.527124684
1.523560106
1.51671702
1.511364691
1.505408233
1.499361228
1.491854784
1.484231505
1.477558792
1.470606892
1.462050103
1.455051291
1.449517974
1.443854802
1.438508031
1.433900783
1.428589738
1.422363039
1.417597064
1.413463916
1.406580602
1.263240253
1.408886169
1.569010638
1.642573188
1.64342762
1.622831341
1.589050524
1.558063567
1.549558325
1.543819369
1.538973294
1.532866869
1.528918312
1.523718088
1.516411575
1.51213576
1.506967924
1.499666137
1.492036679
1.484554645
1.478213681
1.471454541
1.462333883
1.455337715
1.449821744
1.443946973
1.438515661
1.434058503
1.428750555
1.422471955
1.417558404
1.413420646
1.406674071
1.252193485
1.390478898
1.549937555
1.634508973
1.636654965
1.61981693
1.588685465
1.558596721
1.549271569
1.543985215
1.539101003
1.533533543
1.530037969
1.523130046
1.516401187
1.513202292
1.507433957
1.499795846
1.492167276
1.48491221
1.479208335
1.471837049
1.462586704
1.455660603
1.450152434
1.444155758
1.438637728
1.434248323
1.429101031
1.422706309
1.417477531
1.413370265
1.406690829
1.237591316
1.378552812
1.531838084
1.624228459
1.633753978
1.621136029
1.59235115
1.561294454
1.550678358
1.544916745
1.539490691
1.535884658
1.52999799
1.521779058
1.516684475
1.513629824
1.507668966
1.499817638
1.492371959
1.485471544
1.480045191
1.472045722
1.462848175
1.456022753
1.450483493
1.444490211
1.438891695
1.434646184
1.429552781
1.422892937
1.417478426
1.413359471
1.406743809
1.220682349
1.370658862
1.515872337
1.613947285
1.632834857
1.624135242
1.598660451
1.567019154
1.553472351
1.546040569
1.541361584
1.536881191
1.529393036
1.521485719
1.517287586
1.513859766
1.507829875
1.499787314
1.492698199
1.486550304
1.480449213
1.472254088
1.463124691
1.456448331
1.450863733
1.444964224
1.439532494
1.435088388
1.429628455
1.422984877
1.417516376
1.4135002
1.406746134
1.200674577
1.356459639
1.502939591
1.604491986
1.631645677
1.626954358
1.605423674
1.573983119
1.556987685
1.548035647
1.543442774
1.536659863
1.528589965
1.521448841
1.517771986
1.514041861
1.507829493
1.499975718
1.493290432
1.487434548
1.480710875
1.472500638
1.463467021
1.45703455
1.45140628
1.445581076
1.440028087
1.435250154
1.429649013
1.423075465
1.417696476
1.413984184
1.406677265
1.178039736
1.339501694
1.489871003
1.599078576
1.632203422
1.632618585
1.613919879
1.580370067
1.561302563
1.550673912
1.543632034
1.5358978
1.528106242
1.521544542
1.518107249
1.514237887
1.508041801
1.500421622
1.494475015
1.487796067
1.48095965
1.472772968
1.464068409
1.457680824
1.451886749
1.44607512
1.440279944
1.435301125
1.429683016
1.423196699
1.418268185
1.414167195
1.406565241
1.322371051
1.471758165
1.597621052
1.637418151
1.637820309
1.617975979
1.584858342
1.564766414
1.551648153
1.5433776
1.534928136
1.527709491
1.522538057
1.518661074
1.514498041
1.508443062
1.501420425
1.495347543
1.48805148
1.481222521
1.473187272
1.464928259
1.458057606
1.45221501
1.446471049
1.44057374
1.43541698
1.429800839
1.423434111
1.41882923
1.414140097
1.406518578
1.301237027
1.451139132
1.59017441
1.638110182
1.637915037
1.618697028
1.586122305
1.566618015
1.5518478
1.542461103
1.534379269
1.527400222
1.52442489
1.519661178
1.51499517
1.509180857
1.502617157
1.49571965
1.488295199
1.48150118
1.474007567
1.465474342
1.458326998
1.452603169
1.446888588
1.440975526
1.435664769
1.429972558
1.423968231
1.418978222
1.414091732
1.406523807
1.289522099
1.431139197
1.57041821
1.631330745
1.634550035
1.614078623
1.587550775
1.568392814
1.551910045
1.542041626
1.533981031
1.52772559
1.525113054
1.520093524
1.515815375
1.510007617
1.503064573
1.496015319
1.488522512
1.482032929
1.474866084
1.465817372
1.458564962
1.453042872
1.447295872
1.441402427
1.435972165
1.430207292
1.424497739
1.419044958
1.414078671
1.40658762
1.282148897
1.408130323
1.547031005
1.620158902
1.625403789
1.612876067
1.593408993
1.572803278
1.553124746
1.542236669
1.533837355
1.528808562
1.525115593
1.520259079
1.516358881
1.510246696
1.503330234
1.496317538
1.488780619
1.483046583
1.47531917
1.466175552
1.458845693
1.453532515
1.447714193
1.44178542
1.436293255
1.430676558
1.424651941
1.419043142
1.414131752
1.406965142
1.272762468
1.390577863
1.52294003
1.60258763
1.621500291
1.615000906
1.60002055
1.578754924
1.555137997
1.542772666
1.534243424
1.528978121
1.524951582
1.520482462
1.516790544
1.510404488
1.503488934
1.496664531
1.489534509
1.483603436
1.475644001
1.466586684
1.459183028
1.454146766
1.448239547
1.442222718
1.436747509
1.43135818
1.424734851
1.419087686
1.41427522
1.408092775
1.25973858
1.378436698
1.503294839
1.588005244
1.619442709
1.617476144
1.607336104
1.584399864
1.557125193
1.54351708
1.534559475
1.528684802
1.524800844
1.520713385
1.517109703
1.510576173
1.503469799
1.49703426
1.489866247
1.483760168
1.475962792
1.46707172
1.459654395
1.455022893
1.449031152
1.442926036
1.437472492
1.431623383
1.424766966
1.419233562
1.414716644
1.40882531
1.243443014
1.373834132
1.491000731
1.576733254
1.61725237
1.622179362
1.613140728
1.588721316
1.558951682
1.544363609
1.534546108
1.528511826
1.52464672
1.520791376
1.51732787
1.510735087
1.503318594
1.497162591
1.490067121
1.483963378
1.476319434
1.467730679
1.460489096
1.455703263
1.449612379
1.443238914
1.437886356
1.43172322
1.42481701
1.419386216
1.415420627
1.408855477
1.225306532
1.369163131
1.487326041
1.572030404
1.619156353
1.626972769
1.615566122
1.590763843
1.561130248
1.54541553
1.534655621
1.528562232
1.524350751
1.520780297
1.517556505
1.510952003
1.502962008
1.497264354
1.490350933
1.484215575
1.476775793
1.46877928
1.461066835
1.456058
1.449837571
1.443361942
1.438078596
1.431772834
1.424916103
1.419714142
1.41566519
1.40879277
1.207532448
1.357128748
1.484671687
1.576566066
1.625569794
1.627246016
1.61431355
1.592981054
1.564577928
1.546879489
1.535234323
1.528358168
1.523905422
1.520816488
1.518000352
1.511303819
1.502574887
1.497378727
1.490753109
1.484500538
1.477510776
1.46980549
1.461409288
1.456270427
1.450009994
1.443439059
1.438163241
1.431833119
1.425071561
1.420243411
1.415684949
1.40843918
1.192475805
1.343336553
1.468982904
1.573700459
1.623228091
1.624057894
1.613154022
1.598116265
1.568833748
1.548878653
1.53568932
1.52788942
1.523338289
1.52121009
1.518844653
1.511027094
1.50236354
1.497884828
1.491357787
1.484844198
1.478570922
1.470389234
1.461721682
1.456437677
1.450161367
1.443572476
1.438240002
1.431955758
1.425281124
1.420453784
1.415655154
1.407766044
1.180531056
1.327556256
1.449164755
1.554854709
1.613221861
1.618085816
1.61538718
1.603300893
1.573837092
1.550834824
1.535957054
1.527379967
1.522961059
1.52264328
1.519488334
1.510436286
1.502576663
1.498393089
1.491808814
1.485386935
1.479412124
1.470847028
1.462100526
1.456621316
1.450383264
1.443814853
1.438385285
1.432194013
1.425595236
1.420556533
1.415400448
1.40738423
1.168885423
1.314282027
1.429635963
1.532851332
1.598336168
1.615608609
1.6180764
1.608306424
1.579110446
1.552901206
1.536313445
1.526286165
1.522984512
1.524391711
1.519129476
1.509959484
1.503217191
1.498341543
1.492057633
1.486244905
1.47996751
1.471241269
1.462514867
1.456889988
1.45068498
1.444122737
1.438611382
1.432511858
1.425994377
1.420629905
1.415029583
1.407273554
1.154770552
1.305376959
1.407427447
1.507283929
1.581009967
1.613438402
1.621341226
1.615069373
1.582992618
1.554573652
1.53619953
1.52540567
1.524386349
1.525182358
1.518381194
1.509758051
1.503558352
1.498449479
1.49237828
1.486856089
1.480457198
1.471605724
1.462962062
1.457238273
1.45103643
1.444472934
1.438932127
1.432925964
1.426311961
1.420692904
1.414916202
1.407211655
1.136847751
1.296142661
1.394751626
1.488477192
1.570169939
1.612081999
1.627136078
1.618815906
1.584942392
1.555225151
1.535646651
1.525363763
1.526247561
1.525193205
1.517342218
1.509782518
1.503740481
1.498698728
1.493085331
1.487264719
1.480932023
1.472004539
1.463408841
1.457717126
1.45158558
1.445139056
1.439348974
1.433453044
1.426651843
1.420750425
1.414845105
1.407176043
1.122040557
1.285064657
1.387749629
1.47751115
1.563733512
1.614662495
1.630567256
1.621081195
1.584751826
1.557076702
1.536990471
1.526597558
1.527156561
1.524489013
1.516044797
1.50969987
1.503823064
1.499257232
1.494129552
1.487761111
1.48137815
1.472541648
1.464071387
1.458345542
1.452434332
1.445800234
1.43982854
1.434106535
1.427024106
1.420702967
1.41473106
1.407095306
1.107142735
1.269611813
1.381782093
1.473709894
1.563880295
1.614205726
1.630781738
1.620389066
1.588868629
1.565778408
1.543230254
1.531794635
1.526908781
1.521889188
1.51443916
1.50913702
1.503354857
1.499242929
1.494712906
1.48839276
1.48225122
1.473619947
1.465073409
1.458829918
1.453226795
1.446179873
1.440386836
1.434758317
1.427133975
1.420530319
1.414534031
1.406897417
1.066148061
1.195198881
1.325526945
1.409162861
1.489386477
1.549228175
1.596992253
1.605153795
1.598367593
1.583096579
1.562367196
1.54352372
1.531467971
1.525289248
1.517481144
1.510995963
1.506715455
1.503155173
1.497500377
1.492147994
1.486325319
1.477780752
1.46868916
1.462112704
1.457083356
1.451110453
1.445333309
1.438783782
1.430368049
1.423381089
1.41751427
1.409544164
1.037330538
1.081102718
1.224677593
1.344899265
1.402494387
1.458051804
1.501306837
1.539723593
1.568864184
1.577978274
1.573191498
1.562631971
1.551402297
1.539577068
1.527369178
1.517241855
1.511598959
1.507564745
1.501923147
1.496618677
1.490171026
1.481880152
1.473514541
1.467138811
1.461730138
1.455677835
1.450360062
1.444222701
1.436252734
1.429404429
1.423616633
1.414773736
1.031560924
1.038728624
1.106117512
1.254774683
1.357934766
1.403482563
1.437186632
1.463074335
1.49927773
1.534019798
1.553280596
1.554650675
1.553516351
1.550487767
1.542600985
1.531764936
1.52188837
1.513829451
1.506594412
1.500582226
1.494067104
1.486090291
1.478944836
1.472635361
1.46704263
1.460902584
1.455520919
1.449810456
1.442360881
1.435867068
1.430477564
1.421597249
1.030954079
1.031924722
1.044058288
1.13717546
1.280130784
1.374424765
1.401290604
1.419559867
1.441362519
1.46750862
1.497028815
1.521755916
1.538952006
1.544393098
1.542605729
1.537247142
1.528818011
1.519775419
1.512171038
1.506474388
1.499669856
1.491811777
1.484442991
1.477932431
1.471929861
1.465814841
1.46040447
1.45485897
1.4482522
1.442424734
1.437595927
1.428952496
1.033019549
1.033376235
1.035013388
1.05681399
1.161063352
1.319261093
1.37931735
1.393329768
1.407785383
1.422641672
1.440208854
1.464413446
1.489640366
1.509033487
1.526240466
1.527705778
1.524503873
1.518914915
1.515640353
1.511866872
1.505930374
1.499344067
1.492524199
1.485536381
1.478203108
1.471480045
1.466117501
1.460210162
1.454102028
1.449894895
1.445932544
1.437465682
1.038820596
1.038818718
1.038889761
1.041753347
1.07165878
1.194579361
1.353786002
1.379069209
1.390656269
1.401382195
1.403597539
1.410511195
1.42844536
1.455138463
1.479185239
1.493149634
1.502449003
1.508211263
1.511457298
1.510651333
1.508511203
1.505391494
1.499955921
1.492929663
1.48475679
1.477840657
1.472408553
1.466256099
1.460539999
1.455930811
1.451715162
1.44323118
1.046539904
1.046828142
1.047022454
1.047528399
1.05259707
1.091456687
1.258571819
1.360581255
1.38942316
1.400114095
1.399647782
1.395025223
1.393517488
1.403062786
1.42261944
1.443973915
1.46216772
1.475804183
1.486393815
1.494448425
1.500882987
1.501452104
1.499385952
1.495474505
1.489623726
1.484018892
1.478099225
1.472308346
1.466989144
1.462423956
1.458435128
1.4499318
1.060197626
1.060166884
1.059986403
1.059498158
1.059803967
1.066464081
1.132886546
1.300139454
1.376241456
1.406711814
1.404364132
1.399678189
1.394815268
1.387279616
1.389524271
1.399224576
1.414005525
1.431605524
1.450702337
1.468637459
1.480030976
1.486095504
1.489808686
1.489446082
1.486538773
1.482741794
1.477984544
1.474474671
1.470694579
1.467341283
1.464766474
1.457077985
1.074047241
1.07396008
1.07388183
1.07359413
1.072661243
1.073103346
1.084384978
1.183456388
1.322738449
1.416249065
1.414962019
1.408308476
1.399393615
1.392319437
1.386441014
1.380973343
1.383822062
1.393562494
1.408611355
1.425688832
1.442422892
1.457885976
1.470098451
1.474902308
1.475246901
1.47575209
1.47490674
1.473580322
1.471196629
1.469453159
1.468688301
1.463043328
1.082917679
1.082321681
1.082325299
1.08235179
1.08224829
1.081728958
1.083288887
1.105337463
1.20765974
1.365046011
1.445328971
1.433347565
1.41718816
1.40259565
1.391839279
1.384562292
1.378462071
1.37583175
1.379102608
1.388723389
1.402500588
1.416744219
1.430116309
1.441518711
1.452004081
1.461595599
1.466971239
1.469630916
1.469311117
1.468580894
1.46785812
1.463908059
1.087495841
1.08675652
1.086175869
1.085511458
1.085365326
1.085320596
1.085198857
1.087556119
1.116857897
1.240483542
1.421952277
1.442008346
1.434061916
1.421649279
1.411564506
1.397650785
1.386785587
1.380443224
1.373942885
1.371744867
1.374469926
1.38088164
1.390949864
1.403304894
1.415934702
1.428718506
1.440805445
1.450125741
1.456129173
1.460107303
1.460817808
1.459820236
1.088030406
1.087313319
1.086653006
1.085996597
1.085491063
1.085421185
1.085390686
1.085470919
1.088917446
1.130667899
1.317906657
1.443867882
1.443148509
1.435075505
1.429721193
1.418255458
1.404028331
1.391438307
1.381702263
1.375298994
1.372441542
1.367203034
1.368154752
1.373120525
1.382007149
1.393785097
1.407051765
1.419144866
1.429825666
1.438633247
1.445306033
1.450306788
1.086372888
1.08577178
1.085173005
1.084611811
1.084229789
1.084339494
1.084479033
1.084461493
1.084581797
1.09148224
1.170797177
1.374661436
1.442450053
1.459979102
1.456497157
1.444294684
1.427344078
1.410052775
1.394961768
1.385546561
1.379084353
1.370286631
1.365447557
1.361765187
1.362387665
1.366628621
1.375192853
1.38479249
1.394983758
1.405351875
1.41560352
1.42831173
1.084511005
1.084342501
1.084027118
1.083759186
1.083535957
1.083615097
1.083618834
1.083542729
1.083554756
1.083594687
1.098935784
1.228190615
1.376549361
1.453858485
1.471656987
1.465470113
1.449086499
1.430719486
1.414823292
1.40416854
1.394492567
1.381406686
1.372268865
1.366396554
1.361531292
1.356542321
1.356875679
1.359427981
1.365537931
1.37427612
1.382575251
1.397169959
1.08052884
1.080726613
1.080300992
1.079791699
1.079584726
1.079379621
1.079049489
1.078616214
1.078381558
1.078368406
1.079287274
1.109484496
1.245175411
1.399561247
1.471296958
1.466709783
1.455915402
1.445853065
1.43509824
1.427824883
1.416012966
1.400109179
1.388021866
1.377953632
1.369441756
1.361699026
1.356997621
1.352420123
1.351815266
1.353721496
1.357777044
1.367994083
1.074529475
1.07408852
1.073099448
1.072836491
1.072913877
1.072741395
1.072283865
1.071727011
1.071147242
1.070954744
1.071109449
1.073354374
1.115780581
1.251978543
1.425643938
1.465937866
1.462037826
1.456620299
1.450163473
1.445417415
1.433530904
1.420473625
1.40766572
1.395328836
1.383111134
1.372166968
1.364022163
1.357146278
1.353679273
1.350788449
1.347112448
1.349198839
1.067300818
1.067241237
1.066701654
1.066775688
1.066509184
1.06606749
1.065944324
1.066056207
1.065912881
1.065605041
1.065634546
1.06637487
1.069997107
1.118546554
1.290722127
1.433584966
1.453106528
1.459739062
1.462182319
1.457363931
1.447443215
1.437406986
1.425855003
1.41283872
1.399792286
1.388852211
1.37666049
1.367556064
1.36117292
1.356724568
1.351502736
1.343839194
1.058914911
1.058847735
1.061614315
1.063696367
1.063089112
1.062782529
1.063331804
1.063855187
1.06376718
1.063660942
1.063543088
1.06357385
1.064583361
1.071185838
1.144644301
1.352203019
1.427866921
1.451612427
1.459593656
1.457173348
1.452173293
1.447048343
1.43922349
1.428672956
1.418369692
1.406799964
1.395356804
1.385705637
1.377240404
1.368772208
1.360800731
1.348820235
1.048164521
1.0523826
1.064443417
1.065083454
1.063228483
1.063237213
1.063732513
1.063231921
1.062161481
1.062124332
1.061965317
1.061078616
1.060870531
1.061173584
1.075848842
1.204352144
1.366385524
1.425243504
1.454874397
1.454849849
1.452671608
1.450746045
1.445873271
1.439323593
1.433247856
1.424323107
1.414295939
1.404948243
1.395944324
1.385769234
1.376186337
1.359166187
0.9702924804
1.028693065
1.05785683
1.057260961
1.057119755
1.061153181
1.06318724
1.062248316
1.060373228
1.060173056
1.059567656
1.05796869
1.057244023
1.057048846
1.05850726
1.092862065
1.245073894
1.359706499
1.426447917
1.451148887
1.453370317
1.450642901
1.445120112
1.44232505
1.440020985
1.434057258
1.426575336
1.420170994
1.4117434
1.401964567
1.392299848
1.373984379
0.8005385157
0.8820652117
0.961574622
1.002083696
1.031320291
1.055793794
1.056532814
1.052144714
1.053878787
1.054735052
1.05431786
1.055088564
1.054994548
1.054183251
1.053947305
1.058044209
1.113618989
1.24785709
1.376154218
1.433772844
1.444350085
1.444341585
1.441579906
1.441487733
1.439590333
1.433965872
1.429646601
1.426761968
1.421977599
1.414992273
1.406726373
1.389162966
0.7295787113
0.7392310494
0.7825613424
0.8766734701
0.9482121673
1.010928313
1.024233408
1.035841581
1.051559307
1.050087802
1.049799503
1.05320878
1.053908476
1.053035699
1.053030139
1.053203163
1.0606197
1.123862758
1.270193342
1.400914142
1.427469648
1.433489953
1.438529509
1.439724933
1.43630169
1.431005942
1.428922155
1.428223802
1.425822289
1.421456603
1.415896714
1.402839868
0.7325685332
0.7322651556
0.732750041
0.7417085587
0.7780301085
0.8471740656
0.937311149
1.006903774
1.039931977
1.042350342
1.04821301
1.057336789
1.055647107
1.054134018
1.05448255
1.054815465
1.054398971
1.064133313
1.13793197
1.322352808
1.399786617
1.417315827
1.431722287
1.43281579
1.429622584
1.427207368
1.428082119
1.428285383
1.427133388
1.424010252
1.419596188
1.41009793
0.7376990963
0.73731113
0.7360432776
0.7359543059
0.7365240551
0.740602395
0.7734398642
0.8416550824
0.9222996252
0.9820662891
1.034188262
1.05119791
1.048862789
1.049399128
1.05304406
1.05444945
1.05298164
1.052940205
1.06727523
1.181240858
1.340938101
1.390393944
1.414343482
1.423620876
1.421682812
1.422037521
1.425446266
1.425892911
1.424848286
1.422664534
1.418686612
1.413045369
0.7424205065
0.7423712175
0.7417837955
0.7404721402
0.7398431857
0.7400114826
0.740315501
0.7436378226
0.7658943776
0.8316148929
0.9079072534
0.9736884253
1.004244136
1.03107709
1.048603296
1.047156059
1.043535389
1.045478476
1.048012089
1.076885974
1.226651048
1.33869914
1.388111126
1.412510075
1.417701109
1.418016508
1.419246414
1.417660849
1.41717803
1.416592204
1.413425316
1.410590289
0.7471056625
0.746929934
0.746761236
0.7458834097
0.7447275266
0.7443415708
0.7439880087
0.743158006
0.7431709926
0.745970693
0.7615522786
0.815375777
0.9042526996
0.9674506346
1.015908976
1.022584679
1.033897912
1.045797669
1.044031946
1.04672225
1.102795406
1.240170852
1.339371882
1.395624176
1.417106833
1.417474926
1.415303456
1.410093216
1.410159175
1.408363004
1.404542338
1.404824407
0.7520160845
0.7513022413
0.7512580067
0.7508797581
0.7496313086
0.7488750355
0.7487968558
0.7482200779
0.7467702781
0.7462350742
0.7466037995
0.7484172195
0.7645515594
0.8085680656
0.8814970639
0.9611711886
1.017299999
1.037232621
1.038570663
1.044446579
1.058657171
1.12575617
1.243907763
1.367981303
1.410272
1.411907417
1.411065585
1.409330141
1.408058842
1.402741315
1.399398856
1.400808928
0.7576156844
0.7561945756
0.7558708704
0.7557133869
0.7549810163
0.7536158121
0.7531998567
0.7530927148
0.7523732917
0.7508738204
0.7502244608
0.7499416941
0.7498814997
0.7509015152
0.7597826591
0.8054946121
0.8776146347
0.9465818586
0.9974151397
1.035051906
1.039483526
1.056006904
1.123137208
1.28737699
1.390181928
1.402838694
1.407746124
1.407326896
1.402785511
1.396479634
1.3962325
1.398294018
0.7626671858
0.761296419
0.760194834
0.760068736
0.7597418653
0.7586090466
0.7574882137
0.7573721822
0.7571790401
0.756243237
0.7550581972
0.7546952677
0.754284768
0.7531071367
0.7527230576
0.7538295217
0.7621947854
0.7988721615
0.8704224114
0.9373645
0.9752641725
1.006066314
1.041334858
1.148516493
1.31885063
1.374136674
1.390341461
1.397684438
1.395644125
1.393180911
1.395136907
1.396319145
0.7674693093
0.7667079323
0.7650676848
0.7644238749
0.7643002408
0.7636736727
0.7621799109
0.7614068592
0.7612892293
0.7608540697
0.7595933267
0.7586471916
0.7585892981
0.758149679
0.7567919854
0.7557494896
)
;

boundaryField
{
    inlet
    {
        type            fixedValue;
        value           nonuniform 0();
    }
    outlet
    {
        type            inletOutlet;
        inletValue      uniform 1;
        value           nonuniform List<scalar> 
69
(
1.409559896
1.414773365
1.421603964
1.42895745
1.437462561
1.443227483
1.449928846
1.457073575
1.463039945
1.463909481
1.459818763
1.450299785
1.42831087
1.397170748
1.367995138
1.349197725
1.343822926
1.348794485
1.359136547
1.373960291
1.389146375
1.402825118
1.410079258
1.413038306
1.410601136
1.40483933
1.400823583
1.39834606
1.396371642
1.40596055
1.405870348
1.405786882
1.405715158
1.405671954
1.405708689
1.405966959
1.406359716
1.406505617
1.406428441
1.406281223
1.406077143
1.405925661
1.405892052
1.405873493
1.405992655
1.406355583
1.406610255
1.406663154
1.406681072
1.406737523
1.406716291
1.40662806
1.406528381
1.406497968
1.406509782
1.406618967
1.407214429
1.408420337
1.408833228
1.408830888
1.408708224
1.40823484
1.407588647
1.407329713
1.407242724
1.407183467
1.407149153
1.407073022
1.40691778
)
;
    }
    bottom
    {
        type            slip;
    }
    top
    {
        type            slip;
    }
    obstacle
    {
        type            zeroGradient;
    }
    defaultFaces
    {
        type            empty;
    }
    procBoundary29to23
    {
        type            processor;
        value           nonuniform List<scalar> 
36
(
1.42000048
1.415976083
1.412412139
1.405995706
1.605658141
1.571248932
1.557186075
1.544487634
1.532448662
1.532504701
1.534917199
1.531983388
1.527555866
1.523338024
1.51439413
1.506948338
1.501445997
1.495991183
1.490195315
1.482289481
1.475136407
1.468701134
1.46095212
1.453738506
1.448513271
1.444103488
1.439372224
1.434461882
1.42956469
1.424522072
1.424522072
1.444140303
1.637387233
1.669075835
1.650898343
1.650898343
)
;
    }
    procBoundary29to28
    {
        type            processor;
        value           nonuniform List<scalar> 
69
(
1.206209421
1.18666292
1.163320681
1.139199461
1.119572438
1.107318431
1.262287328
1.262287328
1.247615825
1.232790964
1.215206605
1.196173569
1.177599103
1.160204323
1.145770905
1.134031463
1.121599065
1.107037329
1.092186251
1.079432061
1.070819767
1.06624228
1.063006156
1.160462117
1.160462117
1.150427792
1.142143509
1.131048809
1.114893685
1.096718748
1.084006557
1.077579085
1.073061939
1.06756262
1.060468709
1.054224619
1.050794624
1.048615541
1.046818784
1.043157539
1.036280823
1.032255904
1.030770863
1.030533602
1.032725972
1.03847372
1.046356737
1.06029937
1.074207412
1.083622182
1.088224332
1.088665518
1.086733863
1.084660512
1.080429398
1.074929383
1.064285223
1.054063838
1.039712607
0.9029286675
0.7410398808
0.7284380506
0.7328369317
0.7378060358
0.742886094
0.7482298575