/*--------------------------------*- C++ -*----------------------------------*\
  =========                 |
  \\      /  F ield         | OpenFOAM: The Open Source CFD Toolbox
   \\    /   O peration     | Website:  https://openfoam.org
    \\  /    A nd           | Version:  7
     \\/     M anipulation  |
\*---------------------------------------------------------------------------*/
FoamFile
{
    version     2.0;
    format      ascii;
    class       volScalarField;
    location    "3";
    object      rho;
}
// * * * * * * * * * * * * * * * * * * * * * * * * * * * * * * * * * * * * * //

dimensions      [1 -3 0 0 0 0 0];

internalField   nonuniform List<scalar> 
2222
(
5.287393183
5.305142628
5.293016107
5.281025811
5.269374196
5.258221726
5.31957387
5.308450252
5.297428677
5.286708104
5.276469991
5.266844526
5.257969719
5.249919841
5.242777049
5.331130734
5.320882055
5.310721336
5.300836946
5.291390438
5.282506087
5.274288201
5.266789657
5.260079249
5.254162571
5.249007576
5.244460262
5.240361538
5.340995102
5.331435516
5.321867156
5.312503179
5.303516105
5.295037676
5.287156452
5.279930494
5.273426357
5.267665495
5.262659566
5.258303732
5.254442804
5.250677595
5.246637865
5.241683561
5.349830666
5.340783998
5.331564181
5.322419419
5.313552772
5.305120451
5.297234646
5.289994349
5.283491448
5.277757146
5.272833281
5.268622147
5.264958297
5.261453087
5.257754271
5.253254681
5.247627817
5.240300754
5.231190582
5.21997874
5.358142519
5.349329784
5.340122681
5.330832381
5.321730027
5.313023894
5.304878921
5.29745538
5.290893105
5.2852123
5.280358838
5.276207273
5.27263831
5.269328595
5.265942854
5.261896168
5.256888676
5.250309518
5.242131466
5.231912027
5.219940678
5.206435275
5.191950906
5.366463714
5.357663899
5.348198913
5.338471215
5.328850767
5.319624778
5.311027181
5.303321056
5.296535228
5.29063278
5.285600869
5.281359563
5.277808082
5.274653419
5.271574705
5.268002801
5.263643473
5.257860028
5.250629479
5.241469149
5.230620359
5.218099997
5.204474898
5.190363855
5.176117847
5.162144289
5.148544775
5.375209356
5.366273712
5.356366059
5.345992727
5.335650452
5.325718785
5.316513838
5.308238437
5.300936835
5.294634998
5.2893558
5.285022788
5.281507835
5.278489526
5.275646969
5.272433205
5.268605306
5.263594481
5.257323919
5.249222972
5.239511292
5.228063775
5.215405505
5.202084353
5.188510337
5.175082048
5.161929881
5.149014392
5.136356976
5.123603492
5.384308985
5.3752729
5.364927787
5.35385514
5.342690043
5.33190437
5.321875648
5.312790163
5.304815504
5.298057943
5.292484306
5.287988343
5.284429649
5.281475454
5.278800504
5.275882382
5.272513892
5.268165837
5.262776973
5.255713916
5.247113689
5.2367365
5.225036955
5.212491969
5.199556455
5.186632641
5.17389569
5.161318076
5.148957554
5.136462424
5.123834668
5.110535883
5.096587331
5.393419619
5.384407915
5.373753298
5.36204668
5.35006579
5.338383238
5.327424431
5.317518965
5.30885146
5.301551627
5.295599778
5.290870202
5.287198598
5.284235188
5.281652907
5.278952917
5.275944943
5.272157132
5.267522477
5.261417433
5.253873217
5.24453516
5.233753859
5.221934931
5.209564194
5.197051726
5.18462984
5.172287006
5.160126247
5.147810902
5.135385138
5.122300912
5.108620807
5.093688739
5.077727011
5.060113885
5.40160408
5.392787537
5.382091119
5.369993713
5.357377333
5.344927381
5.33314699
5.322437868
5.313068069
5.305201523
5.298846503
5.293874507
5.290085587
5.287092864
5.284562497
5.282020756
5.279299971
5.275984746
5.271995363
5.266720348
5.260107271
5.251713047
5.241757541
5.230567656
5.218650449
5.206429756
5.194208122
5.18199587
5.169940831
5.157729286
5.145440772
5.132529895
5.119099863
5.104488361
5.088912362
5.071743189
5.053191389
5.032919744
5.011440974
5.408667398
5.400142168
5.389558924
5.37722205
5.36408293
5.350968635
5.338513662
5.327145444
5.317182009
5.308818408
5.302102162
5.296912886
5.293020156
5.290000651
5.287511377
5.285104341
5.282634239
5.279751499
5.276321904
5.271735961
5.265896522
5.258324636
5.249106599
5.238475445
5.226939343
5.214930271
5.202822057
5.190653523
5.178613583
5.166421525
5.154184503
5.141374137
5.128127363
5.113799484
5.098583948
5.081873773
5.063846128
5.044110533
5.023179607
5.000704389
4.977452069
4.953126874
5.413940986
5.405785478
5.395501204
5.383152229
5.369686439
5.356081868
5.343119063
5.331281716
5.320908781
5.312194387
5.305199887
5.299821678
5.295827193
5.292787248
5.290350227
5.288080139
5.285832626
5.28331012
5.280326136
5.276296167
5.27109311
5.264232282
5.25568105
5.2455758
5.23440143
5.222583572
5.210552736
5.198383693
5.186306402
5.174080604
5.161834004
5.149064957
5.135930512
5.121826465
5.10691423
5.090631371
5.073122539
5.053974271
5.033670587
5.011775482
4.989049086
4.965118159
4.940424516
4.915147636
5.417298288
5.409536819
5.399706532
5.387577549
5.374004776
5.360099652
5.346787674
5.334630405
5.323981975
5.315020977
5.307811063
5.302266646
5.298165788
5.295093466
5.292699308
5.290558768
5.288507681
5.286257346
5.283599305
5.28000758
5.275348289
5.269135264
5.261224598
5.251663837
5.240894825
5.229323761
5.217412284
5.205264773
5.193131941
5.180834712
5.168542111
5.155783678
5.142714662
5.128786625
5.114125344
5.098228106
5.081206614
5.062649835
5.042993248
5.021761457
4.999658857
4.976274801
4.952126903
4.927288213
4.901258506
4.874358302
4.845485433
5.419560962
5.41197787
5.402528275
5.390724586
5.377222493
5.363174525
5.349634185
5.337249195
5.326401755
5.317264327
5.309888155
5.304184411
5.299937959
5.296760167
5.294316479
5.292198542
5.290242595
5.288182628
5.28578456
5.28257354
5.278392414
5.272761503
5.265453358
5.256445245
5.246121068
5.234863613
5.223140743
5.211089509
5.198978973
5.18667135
5.174337286
5.161579061
5.148567698
5.134810175
5.120387829
5.104865396
5.088316201
5.070348506
5.051334124
5.030795661
5.009347878
4.986580603
4.963051734
4.938744631
4.913327215
4.886875693
4.858540498
4.828287982
4.796236427
4.762246322
5.421912288
5.414216184
5.404894696
5.393289218
5.379855435
5.365724647
5.352037137
5.339499177
5.328478197
5.319142248
5.311559101
5.305661417
5.301241863
5.297906951
5.29532479
5.293112027
5.291129304
5.289141173
5.286900666
5.283978424
5.280186717
5.275050015
5.268280229
5.259802454
5.249929377
5.239020814
5.227533706
5.215646748
5.203647016
5.191417108
5.17913384
5.166449584
5.15351916
5.139947574
5.125789059
5.110668759
5.094613522
5.077259579
5.058902508
5.039087661
5.018317023
4.99621424
4.973337913
4.949602314
4.924830651
4.898867026
4.871124847
4.841297142
4.809695404
4.775913921
4.741129014
4.704929567
5.425501986
5.41740897
5.407953501
5.396370504
5.382929026
5.368673017
5.354765501
5.341976084
5.330717625
5.321157574
5.313344064
5.307195163
5.302506346
5.298908852
5.296078992
5.293665886
5.29154832
5.289500046
5.287265311
5.284479236
5.280938225
5.276182989
5.269868365
5.261869119
5.252413238
5.241840202
5.230589197
5.218873444
5.206991181
5.194877722
5.182735183
5.170235762
5.157497829
5.14420398
5.130357493
5.115670421
5.100136247
5.083422867
5.065740132
5.046672012
5.026593435
5.005185218
4.982974204
4.959826437
4.935708886
4.910254986
4.883144443
4.853808905
4.822730221
4.789242647
4.75457104
4.71819684
4.681267412
4.643269054
5.43214461
5.423200893
5.41321728
5.401361303
5.387714001
5.373174051
5.358893893
5.345713768
5.33406408
5.324092901
5.315847922
5.309259328
5.304155246
5.300183214
5.297025837
5.294334819
5.291959145
5.289691692
5.287305156
5.284498327
5.281040199
5.276503046
5.270499604
5.26286223
5.253727878
5.243417212
5.232347778
5.220770214
5.209007636
5.197037635
5.185052076
5.172791598
5.160350792
5.147447878
5.134029919
5.119886049
5.104948501
5.08891785
5.071937993
5.053644806
5.034285271
5.013599801
4.992057997
4.969490752
4.946005693
4.921054701
4.894575303
4.86576965
4.835241867
4.802114233
4.767622021
4.731169118
4.694034962
4.655529361
4.616841647
4.57729511
4.537124475
5.444632009
5.434566349
5.42363451
5.41100738
5.396645545
5.381346365
5.366276528
5.352325254
5.339922716
5.32920503
5.320222578
5.312896615
5.307057758
5.302401003
5.298634112
5.295481072
5.292785889
5.290247634
5.287589766
5.284584377
5.281023673
5.276527345
5.270663381
5.263218959
5.254248316
5.244064696
5.233072792
5.221563322
5.209871592
5.198022424
5.18621079
5.174223552
5.162104298
5.149649879
5.136755829
5.123241146
5.108986846
5.093728961
5.077523682
5.060034892
5.04139729
5.021436459
5.000562065
4.978563669
4.955678305
4.931222536
4.905353691
4.877102379
4.847114715
4.814388333
4.780125594
4.743690768
4.706460722
4.667563225
4.628402574
4.588113659
4.54698468
4.505277575
4.462153301
5.461858907
5.451482572
5.440195753
5.427165647
5.412253199
5.396141584
5.379966523
5.364669539
5.350797661
5.338633324
5.328314107
5.319737696
5.312682703
5.30688199
5.302129279
5.298181344
5.29481063
5.291701507
5.288647592
5.285377442
5.281577655
5.27690356
5.270924199
5.263420636
5.254401766
5.244189327
5.233169765
5.221642927
5.209949052
5.19816392
5.186481777
5.174746982
5.16296385
5.150979054
5.138621147
5.125750252
5.112227083
5.097799639
5.082409846
5.065757986
5.047874368
5.02863469
5.008397909
4.986948936
4.964625985
4.940660518
4.915363985
4.887682075
4.858200011
4.825901857
4.791909211
4.755587792
4.718364194
4.67919181
4.639618001
4.598640576
4.556543942
4.51365253
4.468994266
4.423767862
4.376394694
5.478452262
5.468472397
5.457696375
5.445230354
5.430744355
5.414762474
5.398426711
5.382725559
5.368127495
5.354804431
5.342850167
5.332327809
5.323306284
5.315711474
5.309424101
5.304134881
5.29953656
5.295388976
5.2915224
5.287639846
5.283405771
5.278408317
5.272141081
5.264378473
5.255092091
5.244606149
5.233313101
5.221584826
5.209789794
5.198000129
5.186377248
5.174826394
5.163318215
5.151745387
5.139902403
5.127666379
5.114856894
5.101223138
5.086619431
5.070792762
5.053659338
5.035119158
5.015487637
4.994552044
4.972735902
4.949246657
4.924461198
4.897341981
4.86831297
4.836446683
4.802736335
4.766584854
4.729420811
4.690057392
4.650127715
4.60853547
4.565545581
4.521545856
4.475420579
4.428583738
4.379223728
4.330082339
4.278080446
4.2266407
5.492945661
5.483340623
5.473152966
5.461492687
5.447879245
5.432649158
5.416866052
5.401511191
5.386993988
5.373468
5.3610841
5.349916171
5.339940091
5.330996462
5.32294092
5.315671908
5.309181264
5.303368933
5.29801767
5.292904051
5.287706606
5.281928467
5.275004449
5.26668219
5.256872976
5.245895571
5.234167438
5.2220865
5.210029812
5.19810749
5.186455466
5.175011961
5.163691952
5.15242711
5.141005242
5.129306545
5.117119223
5.104200699
5.090305273
5.075194635
5.058700871
5.040776869
5.021696134
5.001227696
4.979858287
4.956826291
4.932481913
4.905895024
4.877255528
4.845794655
4.812344082
4.776374748
4.739281925
4.699799982
4.659600974
4.617513885
4.57380863
4.528850132
4.481449787
4.433046604
4.381802025
4.330272512
4.27589035
4.221650341
4.165047506
4.109455551
5.506371553
5.496791748
5.486781088
5.47548959
5.462392006
5.447742555
5.432542759
5.417739957
5.403699118
5.390502395
5.378246677
5.367015666
5.356856531
5.347680297
5.33934517
5.331672298
5.324458275
5.317441109
5.310463346
5.303488014
5.296413196
5.289034937
5.280860457
5.271516055
5.260775231
5.248916377
5.236363455
5.223617469
5.211096327
5.198940043
5.187231125
5.175868153
5.164670055
5.153601771
5.142468699
5.131157916
5.119434234
5.10705902
5.093692949
5.079121356
5.06311763
5.045647103
5.02697383
5.006888484
4.985879925
4.963260982
4.939280161
4.913177926
4.884874578
4.85378399
4.820560262
4.78476374
4.747730275
4.708190947
4.66781171
4.625351534
4.581144564
4.535405099
4.486987149
4.437179282
4.384213151
4.330393958
4.273634864
4.216385519
4.156859422
4.097767113
4.039735704
5.519817059
5.510100775
5.500029548
5.488753114
5.475693158
5.461093527
5.445958253
5.43121769
5.417260473
5.404195801
5.392135907
5.381164765
5.371315282
5.362483502
5.354492051
5.347128207
5.340178507
5.333400468
5.326525368
5.319202441
5.311067351
5.301970497
5.291831087
5.280686302
5.268387771
5.255150016
5.241360753
5.227583264
5.214250437
5.201534546
5.189456235
5.177910578
5.166731268
5.155800443
5.144820962
5.133716572
5.12224179
5.11016432
5.097072336
5.082778383
5.067029927
5.049804241
5.031362196
5.011531871
4.990772392
4.968497465
4.944803507
4.919127465
4.891119629
4.860364279
4.827337751
4.791708146
4.754727606
4.71520242
4.67473667
4.632016917
4.587514509
4.541138796
4.491984798
4.44090398
4.386631889
4.330513653
4.271399972
4.21100042
4.148300812
4.085253744
4.023153066
5.533686296
5.523874882
5.513698148
5.502287689
5.489051788
5.47424633
5.458853697
5.443766313
5.429413077
5.415984256
5.403669371
5.392597851
5.382822424
5.374265931
5.366776447
5.360146169
5.354111305
5.348307986
5.342287085
5.33560292
5.327875308
5.318816375
5.308038998
5.295469449
5.281275713
5.266142107
5.250694581
5.235498546
5.220910348
5.207117902
5.194153477
5.182005932
5.17047438
5.159386141
5.148425512
5.137364568
5.125888028
5.113816296
5.100704021
5.08638382
5.070602354
5.053379445
5.034988152
5.015259512
4.99459743
4.972560474
4.949068627
4.923743308
4.895993955
4.86554516
4.832705285
4.79726488
4.760360456
4.720944394
4.680489993
4.63761399
4.59299875
4.546076049
4.496478517
4.444210691
4.388964161
4.33066501
4.269223688
4.205565431
4.139368681
4.071975367
4.005211254
5.547575413
5.537872136
5.527758793
5.516298659
5.50286713
5.487746989
5.471926181
5.456292381
5.441334026
5.427322955
5.414509881
5.403062279
5.393066208
5.384496598
5.377247593
5.371124108
5.365839454
5.360990311
5.356061659
5.350504744
5.343763576
5.335440613
5.32517081
5.312880461
5.298558411
5.282636421
5.265649367
5.248426985
5.23177018
5.216251379
5.202021027
5.188967048
5.176685342
5.165008491
5.153611785
5.142247644
5.130512708
5.118158339
5.104722296
5.090101107
5.074081978
5.056666493
5.038099532
5.018271478
4.997551054
4.975637338
4.952267353
4.927210362
4.899681914
4.869512997
4.836860593
4.801648441
4.764860339
4.725654604
4.685296177
4.64237222
4.597764746
4.550387978
4.500513632
4.447187981
4.391034825
4.330811532
4.267039326
4.200073613
4.130049368
4.057940374
3.985874238
5.560884143
5.551446987
5.541532562
5.530129638
5.516602117
5.501258596
5.485067331
5.46890371
5.453310793
5.438649855
5.425250326
5.413341521
5.403049663
5.394379863
5.387241833
5.381431631
5.376626611
5.372377948
5.368138843
5.363376646
5.357540735
5.350193024
5.34085114
5.329314094
5.315488979
5.299770213
5.282679105
5.264956998
5.247276298
5.230237641
5.21423511
5.19951586
5.185948052
5.17330595
5.161073684
5.149003816
5.136624165
5.123642676
5.109598419
5.094410852
5.077870703
5.059968858
5.040965806
5.020873476
4.999981315
4.978091906
4.954781433
4.929919907
4.902582473
4.872675734
4.840227856
4.805298238
4.768684426
4.729789167
4.689589707
4.646736922
4.602184129
4.554463674
4.504363661
4.450061177
4.393049054
4.331017319
4.265021238
4.194666089
4.12038724
4.043098049
3.965066992
5.572691711
5.563658759
5.554048244
5.542781849
5.529255542
5.513838816
5.497496009
5.481098862
5.465220124
5.450252634
5.43653717
5.424327178
5.413788535
5.404970745
5.39781162
5.392102792
5.387488311
5.383488247
5.37953571
5.375106116
5.369674287
5.362857393
5.354230983
5.343607002
5.330832581
5.316150896
5.299902319
5.282630157
5.264864588
5.247198927
5.23009305
5.213932497
5.198796688
5.184671737
5.171190202
5.157999912
5.144557505
5.130588794
5.115599671
5.099478117
5.082053048
5.063408907
5.043837134
5.02339172
5.002251784
4.980314632
4.957024504
4.932300132
4.905124688
4.875456398
4.84322601
4.808624236
4.772239136
4.733733568
4.693739214
4.651075391
4.606598179
4.558658732
4.508331022
4.453143805
4.395233702
4.331388044
4.263360912
4.189396692
4.110506228
4.027426537
3.94263869
5.583288841
5.57457178
5.565105881
5.553809677
5.54018808
5.524705986
5.508333285
5.491946902
5.476145939
5.461337441
5.447837706
5.435861104
5.425532809
5.416869718
5.409792409
5.404092536
5.399423025
5.395329071
5.391270419
5.38675661
5.381308172
5.374596839
5.366261439
5.356158837
5.344164726
5.330487909
5.31541177
5.29937147
5.282705947
5.265755342
5.248709259
5.231808467
5.215227024
5.19927526
5.183954323
5.169093219
5.1541358
5.138782069
5.122513663
5.105224453
5.086787295
5.067319328
5.047088015
5.026207553
5.004775633
4.982753052
4.959474605
4.934858872
4.907829514
4.878375059
4.846370326
4.812125633
4.776015008
4.737952537
4.698204135
4.655836066
4.611451517
4.56343146
4.512864225
4.456891474
4.398049154
4.332347733
4.262224341
4.184383465
4.10054745
4.010904303
3.918503444
5.592465271
5.583805512
5.574184268
5.562628352
5.548820235
5.533328056
5.517122656
5.501079252
5.485802458
5.471674483
5.458942906
5.447736299
5.438096949
5.429970035
5.42321976
5.417609242
5.412789704
5.408348328
5.403823883
5.398824112
5.392972624
5.386027988
5.377700737
5.367877501
5.35644827
5.343589864
5.329540886
5.314677355
5.299243722
5.283453834
5.267331035
5.250890331
5.234036866
5.216894409
5.199657386
5.182642188
5.165634583
5.1484646
5.130625141
5.112000135
5.09244408
5.072064592
5.051100324
5.029728397
5.007983227
4.985859149
4.962598587
4.938076687
4.91117831
4.881906236
4.850127456
4.816250844
4.780449257
4.742854849
4.703386474
4.661395073
4.617120628
4.569181956
4.51833675
4.461825734
4.401903451
4.334423909
4.261900921
4.180440241
4.091202658
3.99401902
3.892877685
5.601100774
5.592126021
5.581949921
5.56981681
5.555654523
5.540140579
5.52423639
5.508787362
5.494362165
5.481277549
5.46968649
5.45961529
5.451012412
5.443742616
5.437597787
5.432292331
5.427453022
5.422679762
5.417571358
5.41183587
5.405231672
5.397653747
5.388934691
5.379030013
5.367867442
5.35560346
5.342422798
5.328623875
5.314354469
5.299720623
5.284624889
5.268963063
5.252535459
5.235252088
5.217079316
5.198348051
5.179248312
5.160021089
5.140382048
5.120241031
5.099434685
5.078074642
5.056356308
5.034469731
5.012385135
4.99011502
4.966837784
4.942362842
4.915562757
4.886433525
4.854858821
4.821319107
4.785829595
4.748694639
4.70953924
4.66798428
4.623877594
4.576183835
4.525111332
4.468339117
4.407322713
4.338202942
4.263068556
4.17797697
4.083035874
3.977183206
3.866002155
5.609513313
5.599897234
5.588817058
5.57581103
5.561113705
5.545531934
5.530005063
5.515304352
5.501920154
5.490075044
5.479812823
5.471058111
5.463661987
5.457410739
5.4520288
5.447188998
5.442507409
5.43760594
5.432135425
5.425864754
5.418622901
5.410377206
5.401055746
5.390708829
5.379362926
5.36721987
5.354457953
5.34131239
5.327846496
5.314077415
5.299823544
5.284909867
5.269082947
5.252194168
5.234098405
5.214907887
5.194682942
5.173742082
5.152192371
5.130298281
5.108077056
5.085664953
5.063174793
5.040766295
5.018334697
4.995864995
4.972476518
4.947899864
4.92105939
4.89197019
4.860558898
4.82733877
4.792184604
4.755504214
4.716718765
4.675661516
4.631847791
4.584561396
4.533442139
4.476698844
4.414748457
4.344246022
4.266452335
4.177214214
4.076948323
3.961413353
3.838508206
5.617744883
5.607399893
5.59538453
5.581526828
5.566345964
5.550770677
5.535709344
5.521832398
5.509516614
5.498872554
5.489833299
5.482239027
5.475873683
5.470477775
5.465739871
5.461317643
5.456838404
5.451953575
5.446353075
5.439839245
5.432266114
5.423612978
5.413843231
5.403054982
5.391354173
5.379002368
5.366222669
5.35324936
5.340123625
5.326813415
5.31307817
5.29867926
5.283313327
5.266818483
5.249017283
5.229929414
5.209540225
5.188059947
5.165590053
5.142456615
5.118889549
5.095260889
5.071807874
5.04873752
5.025867604
5.003096995
4.979496617
4.954725612
4.927792113
4.898691175
4.86734268
4.834317714
4.79944842
4.763173041
4.724807269
4.684294834
4.64091674
4.594217555
4.543302203
4.486914028
4.424356454
4.352869815
4.272645633
4.17916151
4.073542605
3.947512866
3.810842043
5.625677505
5.614757985
5.602040996
5.58763152
5.572219265
5.556786197
5.542187771
5.528995267
5.517485317
5.507706509
5.499544764
5.492788414
5.487175282
5.482415112
5.478174153
5.474102137
5.469841194
5.465074536
5.459527379
5.453033936
5.445454938
5.436741716
5.426831579
5.415798166
5.403773472
5.39105665
5.377927748
5.364655491
5.351310592
5.337874471
5.324131657
5.309862266
5.294758841
5.278640916
5.261306027
5.242716469
5.222787935
5.201578713
5.179074379
5.155512396
5.131170613
5.106581776
5.082184318
5.058353426
5.034934424
5.011728811
4.987757615
4.962583313
4.935326974
4.906027719
4.874684704
4.841850144
4.80725327
4.771331413
4.73344518
4.693545612
4.650789178
4.604868773
4.55447138
4.498766672
4.436057443
4.364133365
4.282019611
4.184428607
4.072570372
3.935845311
3.783414277
5.631894987
5.620842244
5.607991627
5.593694065
5.578685583
5.563857109
5.549962295
5.537452418
5.5265394
5.517252532
5.50949761
5.50308573
5.497752877
5.493206097
5.489120723
5.4851629
5.480993335
5.476318098
5.470881658
5.464536545
5.457140412
5.448603301
5.438812074
5.427780274
5.415621167
5.402635646
5.389132832
5.37541026
5.361580212
5.347663654
5.333505156
5.318947873
5.303743936
5.287746128
5.27075453
5.252679423
5.233378117
5.212822555
5.190936334
5.167843797
5.143704157
5.118944221
5.093996998
5.069372909
5.045143427
5.02123285
4.996736064
4.971116309
4.943512522
4.913945919
4.882463832
4.849649627
4.815261723
4.779718542
4.742407928
4.703207427
4.661254068
4.616291707
4.56675468
4.512043181
4.449732809
4.378046318
4.294695978
4.193752432
4.075207084
3.927139483
3.756679284
5.635158308
5.62423494
5.611800257
5.598333173
5.584585937
5.571124932
5.55852497
5.547049916
5.536817065
5.527859773
5.520110237
5.513480638
5.507825675
5.502933523
5.498540673
5.494350039
5.490036826
5.485310219
5.479915642
5.473694759
5.466485895
5.458147574
5.448509528
5.437566263
5.425410576
5.412311316
5.398545002
5.384392428
5.369993218
5.355432041
5.34064748
5.325567052
5.310021264
5.293912726
5.277093723
5.259489271
5.240945694
5.221352412
5.200511065
5.178386236
5.155003267
5.130683642
5.105818464
5.080915233
5.056117566
5.031411907
5.006079178
4.979674826
4.951487431
4.921530966
4.889903336
4.8570803
4.822852849
4.787671063
4.750974798
4.712582773
4.671627277
4.627829795
4.579515349
4.526132945
4.464852408
4.394175971
4.310392041
4.207483802
4.082407774
3.922523506
3.73147124
5.63454952
5.624120226
5.612513514
5.600233022
5.587926238
5.576262802
5.565433727
5.555525419
5.546434641
5.538176583
5.530631262
5.52370508
5.51742754
5.511763005
5.506578081
5.501670435
5.49677242
5.491655239
5.486083103
5.4798289
5.472656013
5.464379574
5.454768957
5.443831828
5.431670764
5.418542904
5.404690018
5.390348649
5.375643323
5.360664224
5.345410183
5.329875039
5.313979263
5.297698804
5.280955807
5.263697297
5.245765605
5.227010417
5.207185385
5.186180309
5.163921935
5.140578813
5.116381444
5.091683512
5.066636916
5.041320193
5.01523469
4.988022225
4.959139166
4.928670396
4.896757032
4.863830823
4.829778163
4.795025931
4.759017269
4.721554205
4.681755793
4.639292396
4.592516283
4.540760358
4.481115807
4.412235705
4.329044732
4.225698524
4.094994287
3.922578268
3.709078165
5.628727565
5.619003152
5.608563425
5.597886717
5.587385104
5.577550793
5.56844947
5.560093766
5.552490731
5.545400783
5.538684988
5.532170251
5.525787465
5.519635656
5.513693851
5.507901832
5.502134299
5.496228921
5.490017414
5.483298579
5.475747275
5.467131444
5.457312824
5.4461699
5.43383561
5.42061016
5.406749566
5.392451266
5.3778024
5.362846816
5.347533867
5.331871086
5.315852555
5.299508167
5.28283432
5.265819368
5.24832774
5.230208416
5.211208878
5.191188654
5.170024619
5.147775745
5.124549076
5.100541126
5.07581703
5.050358841
5.02372004
4.995670564
4.965998854
4.934998278
4.902894856
4.870024799
4.836269808
4.80192657
4.766518816
4.72993457
4.691338659
4.650323187
4.605342498
4.555502173
4.498145439
4.431918093
4.350552882
4.248572364
4.113846492
3.930070789
3.689871031
5.599515515
5.590252129
5.581614227
5.573600369
5.566265626
5.559556438
5.553472188
5.547760757
5.542264223
5.536879696
5.531388179
5.525625837
5.519577317
5.513247906
5.506648388
5.499774956
5.492574399
5.484936188
5.476550794
5.467182012
5.456818051
5.445398679
5.432949459
5.419738629
5.406033026
5.391975949
5.377627428
5.363007349
5.348012853
5.332606862
5.316784438
5.3005723
5.283993072
5.267073703
5.249736679
5.231889685
5.213343194
5.19399131
5.173729336
5.152558378
5.130488094
5.10752808
5.083571091
5.058470511
5.03179776
5.003318579
4.972953887
4.941195128
4.908597702
4.875673764
4.842286783
4.808489883
4.773823029
4.738189208
4.700877981
4.661422
4.618405457
4.570710757
4.516207895
4.453102244
4.374707419
4.275548591
4.139498293
3.947841954
3.677583443
5.57017568
5.563530658
5.557848958
5.553042585
5.548784471
5.544872499
5.541043095
5.537171149
5.53314658
5.528673623
5.523496556
5.517511871
5.510686482
5.503086391
5.494812595
5.485893095
5.476266129
5.465860609
5.454646167
5.442777114
5.430271905
5.417241904
5.403891324
5.39029853
5.376475663
5.362386774
5.347881928
5.332822484
5.317133766
5.300882044
5.284176303
5.267131074
5.249744365
5.231970292
5.213657907
5.194713582
5.17505184
5.1546425
5.133435844
5.111319351
5.088042127
5.063329558
5.036787943
5.008359585
4.978185404
4.946718552
4.914381699
4.881644507
4.848453954
4.814933513
4.780773068
4.74583046
4.709511449
4.671317509
4.629960186
4.584429006
4.533182005
4.473522735
4.399670626
4.304886942
4.171733503
3.977430546
3.675044905
5.544986957
5.542300857
5.540093558
5.538179043
5.536088585
5.53359365
5.530528541
5.526586841
5.521606133
5.515547979
5.508283024
5.499702606
5.489796498
5.478803764
5.467038764
5.454716261
5.442022006
5.429141726
5.416022208
5.40278366
5.38950403
5.376140427
5.362588904
5.348718155
5.334374062
5.319406875
5.30376979
5.287465216
5.270539977
5.253004661
5.234890001
5.216200473
5.196994312
5.17735028
5.157357825
5.137040333
5.116261019
5.094639397
5.07165745
5.046642546
5.019184572
4.989243631
4.957282366
4.924042355
4.890429728
4.856809539
4.823312857
4.789506345
4.755043104
4.719382697
4.682061821
4.642164872
4.598861212
4.550555418
4.493848465
4.42452361
4.334565758
4.208296651
4.016530618
3.691466419
5.53214122
5.530511238
5.529022012
5.527339276
5.524998512
5.521665894
5.517137762
5.511350603
5.504244921
5.495776406
5.48600917
5.475024402
5.462890115
5.449839178
5.436196787
5.422418005
5.40906274
5.395823192
5.382691842
5.369543622
5.356217629
5.342593152
5.328523363
5.313839163
5.29841423
5.282184723
5.265153107
5.247323307
5.228743974
5.209510544
5.189804639
5.169852694
5.149865857
5.129931114
5.109884004
5.089222774
5.067226324
5.043073903
5.016169021
4.986437178
4.954507391
4.921309254
4.887734786
4.854231069
4.820952076
4.78757729
4.753672139
4.718671918
4.682024271
4.643282112
4.601687566
4.555284678
4.500578714
4.434374218
4.349330762
4.230187879
4.048019128
3.703390243
5.533297488
5.533529825
5.533111807
5.531626053
5.528797492
5.524510088
5.518632875
5.510943076
5.501447543
5.49035441
5.477916099
5.464445273
5.450447843
5.436381989
5.422456357
5.409045057
5.396103773
5.383492057
5.370991107
5.358344151
5.345307967
5.33168493
5.317317731
5.302051689
5.285782349
5.26845778
5.250135977
5.230974034
5.211262163
5.191410458
5.171856189
5.152912975
5.13458403
5.116331024
5.097063745
5.075334127
5.049998166
5.020814577
4.988631467
4.954696679
4.920206218
4.885792956
4.85173442
4.817864799
4.78380194
4.749089127
4.713266218
4.676101597
4.636901901
4.593475751
4.543177636
4.483910896
4.409235715
4.307558963
4.150170678
3.868466868
)
;

boundaryField
{
    inlet
    {
        type            calculated;
        value           nonuniform 0();
    }
    outlet
    {
        type            calculated;
        value           nonuniform 0();
    }
    bottom
    {
        type            calculated;
        value           nonuniform 0();
    }
    top
    {
        type            calculated;
        value           nonuniform 0();
    }
    obstacle
    {
        type            calculated;
        value           nonuniform List<scalar> 
56
(
5.533297488
5.533529825
5.533111807
5.531626053
5.528797492
5.524510088
5.518632875
5.510943076
5.501447543
5.49035441
5.477916099
5.464445273
5.450447843
5.436381989
5.422456357
5.409045057
5.396103773
5.383492057
5.370991107
5.358344151
5.345307967
5.33168493
5.317317731
5.302051689
5.285782349
5.26845778
5.250135977
5.230974034
5.211262163
5.191410458
5.171856189
5.152912975
5.13458403
5.116331024
5.097063745
5.075334127
5.049998166
5.020814577
4.988631467
4.954696679
4.920206218
4.885792956
4.85173442
4.817864799
4.78380194
4.749089127
4.713266218
4.676101597
4.636901901
4.593475751
4.543177636
4.483910896
4.409235715
4.307558963
4.150170678
3.868466868
)
;
    }
    defaultFaces
    {
        type            empty;
    }
    procBoundary14to7
    {
        type            processor;
        value           nonuniform List<scalar> 
17
(
5.30026541
5.317199338
5.330636393
5.341301779
5.350358636
5.358499363
5.366334145
5.374363322
5.382978173
5.391977638
5.400942948
5.408942272
5.415786322
5.420851998
5.424050309
5.426392387
5.429091497
)
;
    }
    procBoundary14to8
    {
        type            processor;
        value           nonuniform List<scalar> 
90
(
5.269850025
5.274580834
5.274580834
5.261983672
5.249698989
5.237811257
5.247678258
5.247678258
5.237925429
5.229125421
5.221439471
5.236540461
5.236540461
5.231133649
5.226319057
5.221921186
5.236292498
5.236292498
5.231837065
5.226325441
5.235438651
5.235438651
5.227305491
5.217232414
5.205128459
5.207029313
5.207029313
5.192737012
5.177584232
5.177162323
5.177162323
5.162344977
5.147914235
5.133936599
5.135271844
5.135271844
5.122313371
5.109308621
5.110720613
5.110720613
5.097193124
5.083005568
5.081354128
5.081354128
5.065035474
5.047044664
5.041086496
5.041086496
5.02039045
4.99850105
4.988537885
4.988537885
4.964923723
4.940410634
4.928053531
4.928053531
4.902522322
4.888606872
4.888606872
4.861362571
4.832063415
4.814878563
4.814878563
4.782466229
4.748356821
4.727412318
4.727412318
4.691446664
4.668315604
4.668315604
4.630939547
4.605107481
4.605107481
4.566342494
4.527088321
4.496599568
4.496599568
4.454952234
4.418572644
4.418572644
4.373201188
4.329503938
4.329503938
4.279897722
4.231130463
4.172660449
4.172660449
4.120166592
4.05484035
4.05484035
)
;
    }
    procBoundary14to9
    {
        type            processor;