/*--------------------------------*- C++ -*----------------------------------*\
  =========                 |
  \\      /  F ield         | OpenFOAM: The Open Source CFD Toolbox
   \\    /   O peration     | Website:  https://openfoam.org
    \\  /    A nd           | Version:  7
     \\/     M anipulation  |
\*---------------------------------------------------------------------------*/
FoamFile
{
    version     2.0;
    format      ascii;
    class       volVectorField;
    location    "1.7";
    object      U;
}
// * * * * * * * * * * * * * * * * * * * * * * * * * * * * * * * * * * * * * //

dimensions      [0 1 -1 0 0 0 0];

internalField   nonuniform List<vector> 
558
(
(3 5.518829659e-15 0)
(3 4.612649026e-15 0)
(3 4.653694272e-15 0)
(3 4.924528642e-15 0)
(3 5.980484836e-15 0)
(3 8.226329331e-15 0)
(3 8.227015733e-15 0)
(3 7.880711542e-15 0)
(3 7.424720937e-15 0)
(3 8.930020948e-15 0)
(3 5.674302333e-15 0)
(3 4.318988614e-15 0)
(3 5.050768573e-15 0)
(3 6.027635215e-15 0)
(3 1.931743997e-16 0)
(3 -1.657496511e-16 0)
(3 -2.05491598e-15 0)
(3 -3.55051568e-15 0)
(3 -6.37868731e-15 0)
(3 -8.499436808e-15 0)
(3 -1.073690064e-14 0)
(3 -1.032326978e-14 0)
(3 -7.488740618e-15 0)
(3 -3.456017392e-15 0)
(3 -2.572934408e-16 0)
(3 2.953981663e-15 0)
(3 5.126146467e-15 0)
(3 9.449379498e-15 0)
(3 1.395751326e-14 0)
(3 1.458881556e-14 0)
(3 9.041522478e-15 0)
(3 4.598674766e-15 0)
(3 2.410511938e-15 0)
(3 -4.051720402e-16 0)
(3 -3.091524972e-15 0)
(3 -3.86298031e-15 0)
(3 -2.066917076e-15 0)
(3 2.118048468e-15 0)
(3 1.021016258e-15 0)
(3 2.948033317e-15 0)
(3 6.761397336e-15 0)
(3 6.529056162e-15 0)
(3 8.725751728e-15 0)
(3 7.847091634e-15 0)
(3 8.400767986e-15 0)
(3 9.561940855e-15 0)
(3 1.090379487e-14 0)
(3 1.215173511e-14 0)
(3 -1.048347974e-15 0)
(3 -1.567414737e-15 0)
(3 -2.66935626e-15 0)
(3 -2.510907251e-15 0)
(3 -3.318722775e-15 0)
(3 -7.282139899e-15 0)
(3 -9.93125985e-15 0)
(3 -9.754066103e-15 0)
(3 -9.138796205e-15 0)
(3 -6.68467479e-15 0)
(3 -5.995398982e-15 0)
(3 -1.284779292e-15 0)
(3 1.945935534e-15 0)
(3 3.316975051e-15 0)
(3 6.357313119e-15 0)
(3 6.999351422e-15 0)
(3 6.237452776e-15 0)
(3 6.033832563e-15 0)
(3 1.846723972e-15 0)
(3 -1.478574703e-15 0)
(3 -3.894541138e-15 0)
(3 -5.972069909e-16 0)
(3 4.044984273e-16 0)
(3 4.846571969e-15 0)
(3 5.872695521e-15 0)
(3 4.957077067e-15 0)
(3 6.111215609e-15 0)
(3 8.173346352e-15 0)
(3 8.939854734e-15 0)
(3 7.437052167e-15 0)
(3 8.076212818e-15 0)
(3 1.003233488e-14 0)
(3 1.331007919e-14 0)
(3 1.388229428e-14 0)
(3 -8.328640069e-16 0)
(3 -3.372473522e-15 0)
(3 -3.072170764e-15 0)
(3 -3.249298152e-15 0)
(3 -2.300120383e-15 0)
(3 -1.570463821e-15 0)
(3 -3.018888838e-16 0)
(3 -1.521560161e-15 0)
(3 -2.582923849e-15 0)
(3 -2.62511391e-15 0)
(3 -1.549812228e-15 0)
(3 -8.775895206e-16 0)
(3 -1.403812764e-15 0)
(3 -1.810852758e-15 0)
(3 1.368285204e-15 0)
(3 3.591341459e-15 0)
(3 6.272623094e-15 0)
(3 9.583550265e-15 0)
(3 7.087039471e-15 0)
(3 7.658278949e-15 0)
(3 6.66040108e-15 0)
(3 1.021367618e-14 0)
(3 1.012799465e-14 0)
(3 1.231436094e-14 0)
(3 1.409324438e-14 0)
(3 1.557219902e-14 0)
(3 1.674628127e-14 0)
(3 1.771471508e-14 0)
(3 1.45089948e-14 0)
(3 1.125195668e-14 0)
(3 1.05750224e-14 0)
(3 1.114691461e-14 0)
(3 1.320356146e-14 0)
(3 1.087125738e-14 0)
(3 -2.861434742e-16 0)
(3 -3.520304441e-16 0)
(3 2.541246568e-15 0)
(3 2.973260895e-15 0)
(3 4.671690091e-15 0)
(3 6.721246226e-15 0)
(3 9.042375312e-15 0)
(3 8.72743007e-15 0)
(3 8.378850679e-15 0)
(3 7.293207613e-15 0)
(3 6.086375403e-15 0)
(3 3.615846293e-15 0)
(3 2.254367603e-15 0)
(3 1.515153431e-15 0)
(3 1.690229095e-15 0)
(3 1.347290409e-15 0)
(3 3.041274858e-15 0)
(3 5.625393316e-15 0)
(3 1.084636755e-14 0)
(3 1.430578859e-14 0)
(3 1.942594107e-14 0)
(3 2.067509936e-14 0)
(3 2.450655058e-14 0)
(3 2.564923467e-14 0)
(3 2.493579658e-14 0)
(3 2.748388528e-14 0)
(3 2.62544479e-14 0)
(3 2.396235187e-14 0)
(3 2.04598159e-14 0)
(3 1.505546223e-14 0)
(3 1.116086656e-14 0)
(3 9.730033269e-15 0)
(3 7.517489855e-15 0)
(3 6.267600341e-16 0)
(3 3.094068615e-16 0)
(3 7.763211335e-16 0)
(3 3.629533124e-15 0)
(3 3.952643297e-15 0)
(3 4.812337361e-15 0)
(3 7.797027043e-15 0)
(3 7.94473694e-15 0)
(3 5.509549672e-15 0)
(3 5.050819413e-15 0)
(3 3.66423941e-15 0)
(3 2.953274845e-15 0)
(3 2.530384121e-15 0)
(3 8.644440602e-16 0)
(3 1.393627819e-15 0)
(3 -2.221177345e-15 0)
(3 -1.747433179e-15 0)
(3 6.025641466e-16 0)
(3 3.236854192e-15 0)
(3 9.788276895e-15 0)
(3 9.680366756e-15 0)
(3 1.466640456e-14 0)
(3 2.122286389e-14 0)
(3 2.271982874e-14 0)
(3 2.239997029e-14 0)
(3 2.719578751e-14 0)
(3 3.160328263e-14 0)
(3 2.906734497e-14 0)
(3 2.624198245e-14 0)
(3 2.595277345e-14 0)
(3 2.389473059e-14 0)
(3 2.321796852e-14 0)
(3 1.932760637e-14 0)
(3 1.519879011e-14 0)
(3 1.077639187e-14 0)
(3 4.530209392e-16 0)
(3 -4.353822897e-16 0)
(3 -7.349831083e-16 0)
(3 -9.312943477e-16 0)
(3 -1.561371954e-16 0)
(3 9.720370711e-16 0)
(3 1.31700376e-15 0)
(3 4.286650682e-16 0)
(3 -1.094404964e-15 0)
(3 -2.054338768e-15 0)
(3 -2.339406692e-15 0)
(3 -9.15040166e-16 0)
(3 -1.352573439e-15 0)
(3 1.416372657e-16 0)
(3 -2.327718579e-16 0)
(3 1.370106876e-15 0)
(3 2.001876417e-15 0)
(3 2.606918077e-15 0)
(3 4.401104111e-15 0)
(3 3.571935118e-15 0)
(3 4.648713242e-15 0)
(3 4.193309875e-15 0)
(3 6.506953108e-15 0)
(3 3.965843228e-15 0)
(3 9.518098426e-15 0)
(3 9.922654912e-15 0)
(3 1.205882524e-14 0)
(3 1.662360926e-14 0)
(3 2.049376231e-14 0)
(3 2.340711293e-14 0)
(3 2.22951952e-14 0)
(3 1.950788333e-14 0)
(3 1.803488904e-14 0)
(3 1.401092598e-14 0)
(3 -6.488013472e-16 0)
(3 -7.621278295e-16 0)
(3 -2.493073783e-15 0)
(3 -1.693904218e-15 0)
(3 -2.784988133e-15 0)
(3 -3.526202944e-15 0)
(3 -3.161153937e-15 0)
(3 -3.466972082e-15 0)
(3 -3.985916146e-15 0)
(3 -3.53345124e-15 0)
(3 -3.738978614e-15 0)
(3 -2.994213665e-15 0)
(3 -1.306545206e-15 0)
(3 -1.113972545e-16 0)
(3 9.317247452e-16 0)
(3 1.908150011e-15 0)
(3 2.090176587e-15 0)
(3 8.518085318e-16 0)
(3 -6.398719836e-16 0)
(3 -1.273001264e-15 0)
(3 -4.686246628e-15 0)
(3 -6.106422224e-15 0)
(3 -5.329172752e-15 0)
(3 -9.0650422e-15 0)
(3 -8.272433144e-15 0)
(3 -1.039831379e-14 0)
(3 -9.936008555e-15 0)
(3 -2.819382781e-15 0)
(3 4.730418479e-15 0)
(3 1.017781386e-14 0)
(3 1.474268171e-14 0)
(3 1.619591539e-14 0)
(3 1.623863884e-14 0)
(3 1.417906887e-14 0)
(3 -4.840853193e-16 0)
(3 1.424886377e-15 0)
(3 -9.151170636e-16 0)
(3 -8.332042796e-16 0)
(3 -1.554057208e-15 0)
(3 -3.726846036e-15 0)
(3 -4.475671444e-15 0)
(3 -1.789746474e-15 0)
(3 -1.504162291e-15 0)
(3 -2.031976336e-15 0)
(3 -2.466948504e-15 0)
(3 -9.536723828e-16 0)
(3 -3.398911858e-16 0)
(3 -1.484058826e-15 0)
(3 -2.670838888e-15 0)
(3 -3.563998155e-15 0)
(3 -1.743362792e-15 0)
(3 -1.848267196e-15 0)
(3 -3.11684966e-15 0)
(3 -4.359604431e-15 0)
(3 -6.807457731e-15 0)
(3 -7.498797098e-15 0)
(3 -9.400700912e-15 0)
(3 -1.131634588e-14 0)
(3 -1.466931512e-14 0)
(3 -1.439969706e-14 0)
(3 -1.26945153e-14 0)
(3 -6.915468145e-15 0)
(3 5.075317852e-16 0)
(3 7.331734584e-15 0)
(3 7.601089351e-15 0)
(3 1.269708155e-14 0)
(3 1.261027665e-14 0)
(3 1.247370159e-14 0)
(3 6.484878048e-16 0)
(3 1.241159032e-15 0)
(3 1.738191046e-15 0)
(3 1.17116894e-15 0)
(3 2.45242053e-15 0)
(3 3.638072368e-15 0)
(3 4.387294751e-15 0)
(3 6.162556731e-15 0)
(3 5.618234602e-15 0)
(3 4.504123159e-15 0)
(3 2.527457605e-15 0)
(3 1.218020337e-16 0)
(3 -7.38252399e-16 0)
(3 -3.143655654e-15 0)
(3 -4.385074527e-15 0)
(3 -6.672506199e-15 0)
(3 -7.131507018e-15 0)
(3 -6.68496787e-15 0)
(3 -6.188738294e-15 0)
(3 -4.957527522e-15 0)
(3 -2.935529404e-15 0)
(3 -2.023021675e-15 0)
(3 -1.237479956e-15 0)
(3 -2.142567134e-15 0)
(3 -3.180288822e-15 0)
(3 -4.270811559e-15 0)
(3 -6.266590097e-15 0)
(3 -8.589908602e-15 0)
(3 -6.271629433e-15 0)
(3 -7.68496252e-15 0)
(3 -5.721786859e-15 0)
(3 -4.325741531e-15 0)
(3 -1.008170769e-15 0)
(3 5.535485967e-15 0)
(3 2.037531873e-15 0)
(3 3.808125895e-15 0)
(3 5.229666776e-15 0)
(3 4.979693031e-15 0)
(3 7.535224459e-15 0)
(3 9.853158358e-15 0)
(3 1.018463989e-14 0)
(3 9.364969637e-15 0)
(3 9.368849852e-15 0)
(3 9.154971314e-15 0)
(3 8.411833582e-15 0)
(3 5.993304439e-15 0)
(3 4.292630828e-15 0)
(3 2.500841378e-15 0)
(3 1.21966007e-15 0)
(3 -2.806702475e-15 0)
(3 -7.390753008e-15 0)
(3 -9.579421382e-15 0)
(3 -9.350643247e-15 0)
(3 -6.191233787e-15 0)
(3 -1.997981147e-15 0)
(3 6.461593214e-16 0)
(3 4.525991279e-15 0)
(3 6.17737586e-15 0)
(3 5.182342571e-15 0)
(3 1.945720866e-15 0)
(3 -5.915439014e-16 0)
(3 -3.985686627e-15 0)
(3 -6.147790224e-15 0)
(3 -7.996621462e-15 0)
(3 -1.08564728e-14 0)
(3 -1.604800729e-14 0)
(3 -1.492459184e-14 0)
(3 -1.103029083e-14 0)
(3 9.577542455e-17 0)
(3 1.020445429e-15 0)
(3 9.876474021e-16 0)
(3 2.127488494e-15 0)
(3 3.451001013e-15 0)
(3 2.226502662e-15 0)
(3 2.768732849e-15 0)
(3 4.161528586e-15 0)
(3 6.595690558e-15 0)
(3 8.027554445e-15 0)
(3 8.912291403e-15 0)
(3 9.164143763e-15 0)
(3 6.519952154e-15 0)
(3 4.297759443e-15 0)
(3 4.304286735e-15 0)
(3 1.52717966e-15 0)
(3 -8.636375881e-15 0)
(3 -1.297522932e-14 0)
(3 -1.302893494e-14 0)
(3 -1.142680718e-14 0)
(3 -8.922483054e-15 0)
(3 -7.573369221e-15 0)
(3 -4.024573404e-15 0)
(3 6.278049591e-16 0)
(3 2.099701429e-15 0)
(3 2.562720539e-16 0)
(3 -5.867213892e-16 0)
(3 -8.577202192e-16 0)
(3 -1.979403273e-15 0)
(3 -4.603113895e-15 0)
(3 -5.963368791e-15 0)
(3 -4.543309741e-15 0)
(3 -5.702283379e-15 0)
(3 -5.704875556e-15 0)
(3 -1.00115676e-15 0)
(3 -2.795135854e-15 0)
(3 -4.043608256e-15 0)
(3 -5.151901828e-15 0)
(3 -4.925294028e-15 0)
(3 -7.824737294e-15 0)
(3 -6.917219132e-15 0)
(3 -6.012465478e-15 0)
(3 -4.760544163e-15 0)
(3 -7.830656703e-16 0)
(3 3.665102007e-16 0)
(3 -1.02186615e-16 0)
(3 -6.287218104e-16 0)
(3 -8.84177463e-17 0)
(3 1.016502944e-15 0)
(3 3.818319504e-15 0)
(3 1.557613151e-15 0)
(3 -4.043526324e-15 0)
(3 -7.290123773e-15 0)
(3 -8.547169603e-15 0)
(3 -1.057397048e-14 0)
(3 -1.45734034e-14 0)
(3 -1.350933757e-14 0)
(3 -1.198184593e-14 0)
(3 -8.793450583e-15 0)
(3 -8.177371704e-15 0)
(3 -8.067595738e-15 0)
(3 -7.087324946e-15 0)
(3 -7.344554271e-15 0)
(3 -7.316781885e-15 0)
(3 -6.079906058e-15 0)
(3 6.635813701e-16 0)
(3 2.164017828e-15 0)
(3 2.519122055e-15 0)
(3 -4.914913615e-16 0)
(3 -3.022042278e-15 0)
(3 -3.736989534e-15 0)
(3 -5.77399676e-15 0)
(3 -7.554687768e-15 0)
(3 -9.532067069e-15 0)
(3 -1.094619975e-14 0)
(3 -1.036309927e-14 0)
(3 -1.049634504e-14 0)
(3 -7.077938005e-15 0)
(3 -3.349985676e-15 0)
(3 -1.367462707e-15 0)
(3 1.255603879e-15 0)
(3 2.93312122e-15 0)
(3 2.842829041e-15 0)
(3 6.177813855e-15 0)
(3 7.800042821e-15 0)
(3 6.281500046e-15 0)
(3 2.028766798e-15 0)
(3 -4.302627136e-15 0)
(3 -8.883335856e-15 0)
(3 -7.557125392e-15 0)
(3 -1.123861724e-14 0)
(3 -1.49156301e-14 0)
(3 -1.845717841e-14 0)
(3 -1.79574426e-14 0)
(3 -1.68691652e-14 0)
(3 -1.455398312e-14 0)
(3 -1.352993739e-14 0)
(3 -1.300576311e-14 0)
(3 -1.079669514e-14 0)
(3 -7.241192743e-15 0)
(3 -1.844834032e-15 0)
(3 2.311587303e-15 0)
(3 -8.529163093e-16 0)
(3 -1.530438307e-15 0)
(3 -9.673224114e-16 0)
(3 -7.92632292e-16 0)
(3 -2.443559392e-15 0)
(3 -3.340353793e-15 0)
(3 -3.495655571e-15 0)
(3 -2.78126978e-15 0)
(3 -4.405315798e-15 0)
(3 -6.973875247e-15 0)
(3 -6.28801129e-15 0)
(3 -3.187669774e-15 0)
(3 -1.92015228e-15 0)
(3 9.867370773e-16 0)
(3 2.433168843e-15 0)
(3 4.741373076e-15 0)
(3 5.009638288e-15 0)
(3 3.472611257e-15 0)
(3 -3.044982194e-16 0)
(3 -4.343695852e-15 0)
(3 -3.442826281e-15 0)
(3 -4.207975343e-15 0)
(3 -7.880401857e-15 0)
(3 -9.945842486e-15 0)
(3 -1.179447425e-14 0)
(3 -1.136281831e-14 0)
(3 -1.051916544e-14 0)
(3 -1.04773648e-14 0)
(3 -9.468426035e-15 0)
(3 -8.182202843e-15 0)
(3 -6.703264935e-15 0)
(3 -5.336352088e-15 0)
(3 -2.060299612e-15 0)
(3 2.315303729e-15 0)
(3 4.625506823e-16 0)
(3 2.258066285e-15 0)
(3 2.970755088e-15 0)
(3 2.691915606e-15 0)
(3 1.600629182e-15 0)
(3 8.688222915e-16 0)
(3 1.280064699e-15 0)
(3 -2.332082736e-15 0)
(3 -2.500464954e-15 0)
(3 -4.426547818e-15 0)
(3 -5.956967706e-15 0)
(3 -7.486208675e-15 0)
(3 -6.731256356e-15 0)
(3 -5.753147799e-15 0)
(3 -5.967941389e-15 0)
(3 -5.044547035e-15 0)
(3 -3.187180035e-15 0)
(3 -2.376273914e-15 0)
(3 -2.319014326e-15 0)
(3 -1.145800408e-15 0)
(3 2.400628888e-15 0)
(3 1.699014356e-15 0)
(3 4.49703783e-16 0)
(3 -9.108871321e-16 0)
(3 -9.674668458e-16 0)
(3 -1.654479838e-15 0)
(3 -2.925630638e-15 0)
(3 -3.212806206e-15 0)
(3 -1.76165925e-15 0)
(3 1.874663086e-15 0)
(3 4.402786002e-15 0)
(3 4.37346378e-15 0)
(3 3.76989758e-15 0)
(3 4.512195681e-15 0)
(3 2.673809e-16 0)
(3 2.252063071e-15 0)
(3 3.299332639e-15 0)
(3 2.653634818e-15 0)
(3 1.673808982e-15 0)
(3 9.697655335e-16 0)
(3 8.344880707e-16 0)
(3 -1.971527017e-15 0)
(3 -2.117085205e-15 0)
(3 -2.609484177e-15 0)
(3 -3.356334518e-15 0)
(3 -2.630213439e-15 0)
(3 -1.928983907e-15 0)
(3 -3.001776182e-15 0)
(3 -4.460102455e-15 0)
(3 -4.256271646e-15 0)
(3 -2.996659736e-15 0)
(3 -5.964351655e-16 0)
(3 -1.28270227e-16 0)
(3 -3.02013826e-16 0)
(3 1.602896255e-15 0)
(3 3.989711957e-15 0)
(3 4.13498786e-15 0)
(3 3.095429569e-15 0)
(3 1.792468382e-15 0)
(3 -2.662804621e-16 0)
(3 -2.144771745e-15 0)
(3 -1.979992806e-15 0)
(3 -4.959039013e-16 0)
(3 1.807126121e-15 0)
(3 5.248307504e-15 0)
(3 4.114490668e-15 0)
(3 4.666728796e-15 0)
(3 6.314198289e-15 0)
)
;

boundaryField
{
    inlet
    {
        type            fixedValue;
        value           uniform (3 0 0);
    }
    outlet
    {
        type            inletOutlet;
        inletValue      nonuniform 0();
        value           nonuniform 0();
    }
    bottom
    {
        type            slip;
    }
    top
    {
        type            slip;
    }
    obstacle
    {
        type            slip;
    }
    defaultFaces
    {
        type            empty;
    }
    procBoundary30to24
    {
        type            processor;
        value           nonuniform List<vector> 
35
(
(3 1.156664347e-14 0)
(3 1.240876022e-14 0)
(3 1.349436522e-14 0)
(3 1.212355464e-14 0)
(3 1.093199707e-14 0)
(3 6.782141639e-15 0)
(3 4.757989121e-15 0)
(3 5.227099611e-15 0)
(3 4.18731477e-15 0)
(3 2.977529537e-15 0)
(3 3.470784788e-16 0)
(3 -5.783021376e-15 0)
(3 -8.388924632e-15 0)
(3 -9.224791207e-15 0)
(3 9.215810306e-16 0)
(3 -3.056317386e-15 0)
(3 -4.822309009e-15 0)
(3 -6.557622216e-15 0)
(3 -1.076445057e-14 0)
(3 -1.140345925e-14 0)
(3 -6.903285549e-15 0)
(3 -6.214376316e-15 0)
(3 -3.914384784e-15 0)
(3 -1.02464108e-15 0)
(3 2.165424551e-15 0)
(3 3.261310271e-15 0)
(3 4.560091072e-15 0)
(3 9.958417676e-15 0)
(3 1.0412157e-14 0)
(3 9.05708741e-15 0)
(3 8.341462399e-15 0)
(3 7.038092114e-15 0)
(3 5.896366986e-15 0)
(3 5.113817227e-15 0)
(3 5.113817227e-15 0)
)
;
    }
    procBoundary30to25
    {
        type            processor;
        value           uniform (3 4.067632093e-15 0);
    }
    procBoundary30to31
    {
        type            processor;
        value           nonuniform List<vector> 
16
(
(3 8.523880059e-15 0)
(3 1.095168094e-14 0)
(3 8.000379862e-15 0)
(3 -9.769307336e-16 0)
(3 3.639772325e-15 0)
(3 9.746530008e-15 0)
(3 1.288477156e-14 0)
(3 1.345060254e-14 0)
(3 9.642982274e-15 0)
(3 -6.615814613e-15 0)
(3 -4.977714152e-15 0)
(3 1.415225983e-15 0)
(3 1.398344612e-15 0)
(3 4.942195229e-15 0)
(3 8.970842917e-15 0)
(3 6.467159593e-15 0)
)
;
    }
}


// ************************************************************************* //
