/*--------------------------------*- C++ -*----------------------------------*\
  =========                 |
  \\      /  F ield         | OpenFOAM: The Open Source CFD Toolbox
   \\    /   O peration     | Website:  https://openfoam.org
    \\  /    A nd           | Version:  7
     \\/     M anipulation  |
\*---------------------------------------------------------------------------*/
FoamFile
{
    version     2.0;
    format      ascii;
    class       volVectorField;
    location    "0.8";
    object      U;
}
// * * * * * * * * * * * * * * * * * * * * * * * * * * * * * * * * * * * * * //

dimensions      [0 1 -1 0 0 0 0];

internalField   nonuniform List<vector> 
138
(
(3.130397823 0.002894320491 0)
(3.160291828 -0.001830778778 0)
(3.170132333 -0.0008848698232 0)
(3.024339325 -0.02913669593 0)
(3.029380349 -0.05035541999 0)
(3.096895658 -0.007408724918 0)
(3.127807309 0.0105994987 0)
(3.159004337 0.009893277165 0)
(3.164462361 -0.004301968257 0)
(3.04397217 -0.08547766167 0)
(3.085200571 -0.08461785601 0)
(3.127037177 -0.01517708161 0)
(3.142864204 -0.00882280745 0)
(3.167844652 -0.002480311673 0)
(3.180420225 -0.00193473637 0)
(3.146406518 -0.1285515017 0)
(3.197522952 -0.1227745835 0)
(3.182101132 -0.02223434409 0)
(3.186758539 -0.000349652856 0)
(3.196192765 0.01334305821 0)
(3.208224488 0.00241510852 0)
(3.246304478 -0.1819655814 0)
(3.286001126 -0.1688338574 0)
(3.236285266 -0.04974582491 0)
(3.229654721 -0.01608306369 0)
(3.234166838 0.01731008664 0)
(3.235871536 0.005827106375 0)
(3.286558839 -0.2377113949 0)
(3.326026571 -0.1876284721 0)
(3.290403227 -0.08824272033 0)
(3.258938928 -0.01138184275 0)
(3.266015221 0.02078937715 0)
(3.266999129 0.01067347637 0)
(3.261331541 -0.0003846208481 0)
(3.303138935 -0.2789074659 0)
(3.337761551 -0.2345050207 0)
(3.313231804 -0.1334034131 0)
(3.27592552 -0.02113124204 0)
(3.28315672 0.02027572508 0)
(3.290993794 0.006479078432 0)
(3.28494272 -0.007393113124 0)
(3.311525069 -0.3069055396 0)
(3.34925752 -0.2578488839 0)
(3.318867775 -0.2019952672 0)
(3.279376709 -0.04162544577 0)
(3.282050439 0.02120200116 0)
(3.289391065 0.0202830316 0)
(3.291438236 -0.006663740691 0)
(3.336856046 -0.3406011374 0)
(3.363228568 -0.2788132727 0)
(3.320919069 -0.2452838005 0)
(3.277172883 -0.07089711645 0)
(3.274908379 0.01533388602 0)
(3.275395167 0.02397164054 0)
(3.277582037 0.002847511013 0)
(3.343866063 -0.3632621497 0)
(3.371131031 -0.2922191522 0)
(3.331744854 -0.2816092101 0)
(3.288999419 -0.1059531015 0)
(3.264793064 0.000143830428 0)
(3.257736618 0.01885709798 0)
(3.260580225 0.008521505931 0)
(3.349592588 -0.3824742222 0)
(3.376518528 -0.3163041307 0)
(3.342931313 -0.3013248665 0)
(3.290023944 -0.1287726709 0)
(3.252220833 -0.01245709888 0)
(3.239726608 0.01452380668 0)
(3.241056207 0.008193043715 0)
(3.363848137 -0.4028214174 0)
(3.380572315 -0.3297688971 0)
(3.354232951 -0.3345998771 0)
(3.283108356 -0.1938398572 0)
(3.232639701 -0.02290509984 0)
(3.215950653 0.01347894293 0)
(3.216363537 0.008830598374 0)
(3.361742924 -0.4130449106 0)
(3.382922544 -0.3408323028 0)
(3.367074751 -0.3551093035 0)
(3.281243253 -0.2685138046 0)
(3.204775233 -0.03033520437 0)
(3.188259418 0.01881141717 0)
(3.186362057 0.009815366361 0)
(3.177333628 -0.007310783705 0)
(3.358457863 -0.4231292834 0)
(3.383575125 -0.3512005308 0)
(3.38038075 -0.3681520717 0)
(3.275246875 -0.3167299832 0)
(3.163390054 -0.07136316088 0)
(3.150247292 0.01877438071 0)
(3.142353814 0.009454730291 0)
(3.130702846 -0.006886023843 0)
(3.358405004 -0.4329547388 0)
(3.387076663 -0.366931613 0)
(3.393308179 -0.3734163573 0)
(3.27383458 -0.3640208796 0)
(3.132358449 -0.1405922685 0)
(3.096892997 0.008348918608 0)
(3.089700845 0.01080659174 0)
(3.0835611 0.0006238850546 0)
(3.356326029 -0.4359875006 0)
(3.392434587 -0.3773532297 0)
(3.405277393 -0.3800238663 0)
(3.273783557 -0.3909488152 0)
(3.088262967 -0.1670735558 0)
(3.039883423 -0.01253956241 0)
(3.039145844 0.01369261882 0)
(3.033701994 0.007628321957 0)
(3.355148864 -0.4391553427 0)
(3.398093073 -0.3842928436 0)
(3.415801099 -0.3823524614 0)
(3.274523711 -0.4129270039 0)
(3.058984802 -0.2025021142 0)
(2.969397433 -0.02264197589 0)
(2.975394929 0.01147447568 0)
(2.965350193 0.008218393281 0)
(3.347018787 -0.4431389319 0)
(3.405715978 -0.3933422851 0)
(3.428419432 -0.3866542227 0)
(3.275078548 -0.4345740369 0)
(3.046480115 -0.2611565714 0)
(2.901259899 -0.04267666468 0)
(2.897272276 0.01089359474 0)
(2.895569282 0.00415336544 0)
(3.332743101 -0.4464871831 0)
(3.411688674 -0.3981136519 0)
(3.443129683 -0.3879431289 0)
(3.272559181 -0.441465489 0)
(3.033343839 -0.2983924453 0)
(2.860893523 -0.07986550738 0)
(2.830096548 0.002683473763 0)
(2.843001587 -0.002789318084 0)
(3.311437378 -0.4493932422 0)
(3.415709797 -0.4020692081 0)
(3.458383035 -0.3868349268 0)
(3.267208438 -0.4491430586 0)
(3.027385646 -0.3392285148 0)
(2.845631873 -0.1267421445 0)
)
;

boundaryField
{
    inlet
    {
        type            fixedValue;
        value           nonuniform 0();
    }
    outlet
    {
        type            inletOutlet;
        inletValue      nonuniform 0();
        value           nonuniform 0();
    }
    bottom
    {
        type            slip;
    }
    top
    {
        type            slip;
    }
    obstacle
    {
        type            slip;
    }
    defaultFaces
    {
        type            empty;
    }
    procBoundary21to15
    {
        type            processor;
        value           nonuniform List<vector> 7((3.142379514 0.008633091177 0) (3.168003132 -0.005091569628 0) (3.18055759 -0.001587516741 0) (3.021965572 0.02864729511 0) (3.021725848 0.05790388501 0) (3.106871309 0.00422277387 0) (3.106871309 0.00422277387 0));
    }
    procBoundary21to16
    {
        type            processor;
        value           uniform (3.177436037 -0.008594915465 0);
    }
    procBoundary21to22
    {
        type            processor;
        value           nonuniform List<vector> 
18
(
(3.177319445 -0.01232792434 0)
(3.188989612 -0.005405573224 0)
(3.207603561 0.004325963787 0)
(3.233841267 0.004897041588 0)
(3.233841267 0.004897041588 0)
(3.260622581 -0.005228930479 0)
(3.28202559 -0.01270026382 0)
(3.288117637 -0.009323475438 0)
(3.274667427 -0.003039650094 0)
(3.256957814 0.002806210491 0)
(3.239710924 0.001495935106 0)
(3.21328422 -0.003556560574 0)
(3.21328422 -0.003556560574 0)
(3.167844789 -0.008787145616 0)
(3.12292968 -0.008606861668 0)
(3.077356303 -0.002736092181 0)
(3.02270926 0.003197416295 0)
(2.957420183 0.003173753869 0)
)
;
    }
    procBoundary21to27
    {
        type            processor;
        value           nonuniform List<vector> 9((2.78434275 -0.00602386051 0) (2.803819935 -0.001638080718 0) (3.290828524 -0.4503942115 0) (3.426977834 -0.4050044193 0) (3.474160791 -0.3841400603 0) (3.261389393 -0.4498752782 0) (3.02639872 -0.3733304268 0) (2.78434275 -0.00602386051 0) (2.841865448 -0.1594995515 0));
    }
    procBoundary21to28
    {
        type            processor;
        value           nonuniform List<vector> 2((2.902929355 -0.002669174946 0) (2.863523298 -0.01001432763 0));
    }
}


// ************************************************************************* //
