/*--------------------------------*- C++ -*----------------------------------*\
  =========                 |
  \\      /  F ield         | OpenFOAM: The Open Source CFD Toolbox
   \\    /   O peration     | Website:  https://openfoam.org
    \\  /    A nd           | Version:  7
     \\/     M anipulation  |
\*---------------------------------------------------------------------------*/
FoamFile
{
    version     2.0;
    format      ascii;
    class       volScalarField;
    location    "3";
    object      rho;
}
// * * * * * * * * * * * * * * * * * * * * * * * * * * * * * * * * * * * * * //

dimensions      [1 -3 0 0 0 0 0];

internalField   nonuniform List<scalar> 
555
(
1.40000504
1.40000504
1.40000504
1.40000504
1.40000504
1.40000504
1.40000504
1.40000504
1.40000504
1.40000504
1.40000504
1.40000504
1.40000504
1.40000504
1.40000504
1.40000504
1.40000504
1.40000504
1.40000504
1.40000504
1.40000504
1.40000504
1.40000504
1.40000504
1.40000504
1.40000504
1.40000504
1.40000504
1.40000504
1.40000504
1.40000504
1.40000504
1.40000504
1.40000504
1.40000504
1.40000504
1.40000504
1.40000504
1.40000504
1.40000504
1.40000504
1.40000504
1.40000504
1.40000504
1.40000504
1.40000504
1.40000504
1.40000504
1.40000504
1.40000504
1.40000504
1.40000504
1.40000504
1.40000504
1.40000504
1.40000504
1.40000504
1.40000504
1.40000504
1.40000504
1.40000504
1.40000504
1.40000504
1.40000504
1.40000504
1.40000504
1.40000504
1.40000504
1.40000504
1.40000504
1.40000504
1.40000504
1.40000504
1.40000504
1.40000504
1.40000504
1.400005041
1.40000503
1.40000504
1.40000504
1.40000504
1.40000504
1.40000504
1.40000504
1.40000504
1.40000504
1.40000504
1.40000504
1.40000504
1.40000504
1.40000504
1.40000504
1.40000504
1.40000504
1.40000504
1.40000504
1.40000504
1.40000504
1.40000504
1.40000504
1.40000504
1.40000504
1.40000504
1.40000504
1.40000504
1.40000504
1.40000504
1.400005041
1.400005046
1.400005392
1.400004985
1.40000504
1.40000504
1.40000504
1.40000504
1.40000504
1.40000504
1.40000504
1.40000504
1.40000504
1.40000504
1.40000504
1.40000504
1.40000504
1.40000504
1.40000504
1.40000504
1.40000504
1.40000504
1.40000504
1.40000504
1.40000504
1.40000504
1.40000504
1.40000504
1.40000504
1.400005042
1.400005052
1.400005122
1.400005459
1.400007283
1.400012862
1.400074423
1.400034307
1.40000504
1.40000504
1.40000504
1.40000504
1.40000504
1.40000504
1.40000504
1.40000504
1.40000504
1.40000504
1.40000504
1.40000504
1.40000504
1.40000504
1.40000504
1.40000504
1.40000504
1.40000504
1.40000504
1.40000504
1.400005041
1.400005043
1.40000506
1.400005167
1.40000569
1.400008118
1.400017007
1.400051208
1.400146055
1.400454374
1.401085361
1.403277867
1.404659677
1.40000504
1.40000504
1.40000504
1.40000504
1.40000504
1.40000504
1.40000504
1.40000504
1.40000504
1.40000504
1.40000504
1.40000504
1.40000504
1.40000504
1.40000504
1.40000504
1.400005041
1.400005045
1.400005076
1.400005246
1.400006075
1.400009666
1.400022773
1.40006847
1.400199837
1.400577846
1.401426804
1.403509204
1.40718602
1.414762255
1.425988521
1.446275768
1.465326233
1.40000504
1.40000504
1.40000504
1.40000504
1.40000504
1.40000504
1.40000504
1.40000504
1.40000504
1.40000504
1.40000504
1.40000504
1.400005042
1.40000505
1.400005104
1.400005387
1.40000668
1.400012127
1.400031507
1.400096211
1.400277604
1.400777303
1.401876303
1.404378553
1.408941205
1.417772247
1.430603992
1.451462649
1.477185852
1.512965587
1.552950083
1.595571098
1.637863384
1.40000504
1.40000504
1.40000504
1.40000504
1.40000504
1.40000504
1.40000504
1.400005041
1.400005043
1.400005061
1.400005162
1.400005671
1.400007843
1.40001642
1.400045624
1.400137803
1.400387932
1.401049392
1.402477292
1.405627934
1.411233739
1.421346191
1.436541787
1.459196046
1.4874605
1.525308148
1.568470725
1.609822907
1.64876105
1.688374037
1.728607418
1.754368953
1.780813597
1.40000504
1.40000504
1.40000504
1.400005041
1.400005048
1.400005089
1.400005296
1.400006242
1.400010071
1.400023947
1.400068708
1.400206481
1.400560562
1.401440401
1.403389869
1.407237581
1.414198444
1.426262061
1.443031571
1.468912506
1.501916066
1.538276194
1.58055773
1.625580982
1.670833352
1.709401769
1.742063589
1.765344868
1.792238369
1.8137027
1.825640056
1.830216099
1.837111394
1.400005065
1.400005166
1.400005623
1.400007504
1.400014588
1.400038867
1.400111829
1.400319113
1.400843876
1.402025995
1.40457673
1.409523148
1.417801569
1.432165358
1.452402805
1.479301572
1.517434829
1.557010401
1.595322856
1.641974567
1.684976224
1.720044624
1.755398002
1.773318243
1.787894423
1.804800213
1.814556959
1.819080618
1.823876739
1.826590003
1.829588835
1.833210887
1.83715661
1.400024882
1.400068095
1.400191842
1.400506447
1.401287879
1.402993493
1.406269181
1.412777391
1.423172486
1.439011082
1.464096432
1.493547757
1.529652602
1.575218039
1.618428595
1.663946291
1.705507392
1.735424243
1.768610333
1.799767422
1.815239555
1.827572194
1.839227204
1.840800093
1.842659463
1.846302836
1.84746644
1.847054645
1.845920709
1.842234423
1.836896295
1.831876715
1.832157071
1.402011545
1.404458424
1.408936765
1.416814442
1.430265997
1.44844621
1.475028043
1.512001383
1.547794134
1.591810741
1.641213498
1.680577672
1.723142459
1.750891715
1.770634371
1.795994373
1.811049899
1.816401366
1.824987179
1.828403033
1.828816678
1.832845054
1.840672333
1.842210819
1.843165697
1.845653057
1.848028839
1.847801536
1.846193004
1.843598624
1.840484351
1.836950324
1.834445822
1.438377821
1.462277393
1.49014631
1.527889204
1.571336832
1.61320366
1.661691479
1.70350726
1.738477498
1.778767005
1.801699864
1.819090886
1.837507601
1.84470089
1.847290001
1.8526649
1.855375634
1.854978394
1.853675584
1.850760498
1.846125524
1.841195033
1.837730507
1.835995574
1.835035107
1.834149378
1.833271375
1.832181521
1.830815623
1.829069936
1.826777623
1.824746236
1.823687629
1.589487045
1.633715262
1.674760617
1.717655996
1.746666893
1.774677907
1.805633111
1.813893752
1.82226737
1.830306895
1.832242007
1.835794512
1.8432071
1.849210011
1.851114861
1.853076301
1.855567665
1.855434791
1.853842838
1.850699539
1.847357916
1.844307058
1.841208568
1.837770074
1.833070674
1.827494109
1.82337276
1.821427261
1.820173119
1.818749071
1.818564801
1.819310564
1.820263607
1.784585103
1.803820226
1.822376345
1.843233573
1.849862604
1.855999798
1.859029406
1.858199227
1.857464216
1.856485825
1.854111166
1.851374866
1.849519256
1.846760922
1.843132381
1.837823189
1.833733891
1.831992074
1.831333716
1.83000958
1.827878066
1.825931131
1.825023499
1.82357849
1.820844962
1.817404607
1.815248763
1.814796241
1.814142113
1.814165932
1.814823167
1.81663825
1.819342239
1.825040677
1.83506913
1.850127388
1.861798598
1.862002701
1.858963397
1.855909221
1.854726895
1.852695415
1.848311269
1.842645116
1.839449297
1.836996116
1.833979868
1.829063895
1.823743118
1.822666753
1.822035315
1.820666027
1.819558107
1.819403033
1.819951595
1.821022658
1.821125918
1.820588405
1.819875832
1.819800922
1.819941568
1.819822186
1.81967906
1.819936541
1.82088116
1.821101575
1.807966008
1.807896939
1.80857047
1.810531138
1.812929608
1.814774592
1.816338464
1.818064637
1.820784722
1.823428433
1.825109482
1.825774074
1.826659598
1.826955755
1.826553012
)
;

boundaryField
{
    inlet
    {
        type            calculated;
        value           nonuniform 0();
    }
    outlet
    {
        type            calculated;
        value           nonuniform 0();
    }
    bottom
    {
        type            calculated;
        value           nonuniform 0();
    }
    top
    {
        type            calculated;
        value           nonuniform 0();
    }
    obstacle
    {
        type            calculated;
        value           nonuniform List<scalar> 
15
(
1.807966008
1.807896939
1.80857047
1.810531138
1.812929608
1.814774592
1.816338464
1.818064637
1.820784722
1.823428433
1.825109482
1.825774074
1.826659598
1.826955755
1.826553012
)
;
    }
    defaultFaces
    {
        type            empty;
    }
    procBoundary14to7
    {
        type            processor;
        value           nonuniform List<scalar> 2(1.40000504 1.40000504);
    }
    procBoundary14to8
    {
        type            processor;
        value           nonuniform List<scalar> 
35
(
1.40000504
1.40000504
1.40000504
1.40000504
1.40000504
1.40000504
1.40000504
1.40000504
1.40000504
1.40000504
1.40000504
1.40000504
1.40000504
1.40000504
1.40000504
1.40000504
1.40000504
1.40000504
1.40000504
1.40000504
1.40000504
1.40000504
1.40000504
1.40000504
1.40000504
1.40000504
1.40000504
1.40000504
1.40000504
1.40000504
1.40000504
1.40000504
1.40000504
1.40000504
1.40000504
)
;
    }
    procBoundary14to9
    {
        type            processor;
        value           nonuniform List<scalar> 
17
(
1.400005155
1.400015652
1.400419132
1.407076555
1.45267597
1.576813001
1.72304686
1.795738134
1.837087367
1.839730745
1.83162456
1.826447889
1.820418149
1.818440894
1.814321663
1.757763796
1.455077454
)
;
    }
    procBoundary14to13
    {
        type            processor;
        value           nonuniform List<scalar> 
16
(
1.40000504
1.40000504
1.40000504
1.40000504
1.40000504
1.40000504
1.40000504
1.40000504
1.40000504
1.400005044
1.40001091
1.400881743
1.422707065
1.544252444
1.748634504
1.812188986
)
;
    }
    procBoundary14to20
    {
        type            processor;
        value           nonuniform List<scalar> 
19
(
1.915359255
1.894638371
1.875352915
1.864267287
1.855814941
1.846961794
1.839698251
1.835744711
1.831615254
1.824564814
1.819540459
1.818566602
1.817319932
1.814946288
1.811283894
1.810025341
1.810333262
1.8093445
1.8093445
)
;
    }
}


// ************************************************************************* //
