/*--------------------------------*- C++ -*----------------------------------*\
  =========                 |
  \\      /  F ield         | OpenFOAM: The Open Source CFD Toolbox
   \\    /   O peration     | Website:  https://openfoam.org
    \\  /    A nd           | Version:  7
     \\/     M anipulation  |
\*---------------------------------------------------------------------------*/
FoamFile
{
    version     2.0;
    format      ascii;
    class       volScalarField;
    location    "4";
    object      T;
}
// * * * * * * * * * * * * * * * * * * * * * * * * * * * * * * * * * * * * * //

dimensions      [0 0 0 1 0 0 0];

internalField   nonuniform List<scalar> 
2225
(
1.00680788
1.006715795
1.006692812
1.006747127
1.006772482
1.00679991
1.006877311
1.006863234
1.006869203
1.00688042
1.006866123
1.006807287
0.8616694263
0.8611385993
0.8609088047
0.8603905
0.8633758014
0.8789409699
0.9144430349
0.9556464184
0.975939469
0.9910342127
1.001760897
1.000819758
1.002123185
1.004446786
1.006322447
1.006359803
1.006386651
1.00632008
1.006186383
1.006152971
1.006251475
1.006353765
1.00650528
1.006583313
1.006550588
1.006525064
1.006545078
1.006543837
1.00658887
1.006668755
1.006720229
1.006692881
0.865988624
0.8640363603
0.8632749932
0.8612074953
0.8607597616
0.8619264871
0.8709278748
0.8926140415
0.9342917958
0.9713969775
0.9961137755
0.9991150449
1.004656989
1.006525591
1.005950496
1.005789935
1.005567511
1.005008691
1.004943383
1.00524208
1.005693409
1.006083139
1.006293049
1.006288272
1.006093967
1.005910716
1.005920031
1.006028367
1.006241909
1.006451781
1.00654333
1.006519802
0.8744959762
0.8703840162
0.8681275216
0.8646806485
0.8613910853
0.8620759375
0.86273462
0.8650973922
0.8801639794
0.9080490826
0.9475276603
0.9783216091
1.000906353
1.0035622
1.001934719
1.003720979
1.004187611
1.004054372
1.004294796
1.005170842
1.005855087
1.006019757
1.006044204
1.005847863
1.00558144
1.005474204
1.005531146
1.005735656
1.006041125
1.006303572
1.006328361
1.006290776
0.8802097356
0.8766497452
0.8746354624
0.8723836353
0.8669744658
0.8643789056
0.8631347664
0.8630911483
0.863983953
0.8703403113
0.8918753025
0.9292425986
0.9658951059
0.9823481386
0.9931614539
1.004661623
1.004495954
1.004815168
1.005508584
1.006331277
1.006219975
1.005960309
1.005635524
1.005441161
1.005454773
1.005512745
1.005603487
1.005816462
1.006048531
1.006065164
1.00602645
1.005942477
0.8849173747
0.8804676316
0.8792618488
0.8777098716
0.8743431378
0.870577397
0.8687847941
0.8659167782
0.8639286376
0.8643409951
0.8667855084
0.8799808036
0.9062281352
0.9462359244
0.9807893195
0.999393093
1.000780838
1.003454721
1.00578261
1.005966381
1.005638682
1.005474802
1.005274772
1.005403282
1.005560106
1.005624654
1.005719398
1.005893655
1.005955834
1.005911936
1.005827974
1.005757877
0.8918310835
0.8870591198
0.8845930886
0.8827876748
0.8791914333
0.8753264147
0.8736801389
0.8714101977
0.8670431584
0.8658448656
0.866297822
0.8668721745
0.8713635249
0.8913823857
0.9234481308
0.9586026273
0.9778771557
0.9977255133
1.001932454
1.001868275
1.00353053
1.004741351
1.005348972
1.005397766
1.005235139
1.005211844
1.005278753
1.005547049
1.00578717
1.005866624
1.005870193
1.005829989
0.8973358862
0.8930184038
0.8900280079
0.8887182414
0.8859640771
0.8820065107
0.8794374909
0.877145381
0.8730052493
0.8692512902
0.8688554385
0.8678513899
0.8667550923
0.8681358185
0.8781892045
0.9036293861
0.9444338149
0.9799944948
0.9888465367
0.9955527745
1.00402746
1.004989859
1.005083387
1.004972597
1.004005336
1.003806103
1.004238099
1.005152661
1.005765502
1.005917309
1.005863806
1.005732662
0.9020651798
0.8974275023
0.8941691588
0.8930898854
0.891133453
0.8871460625
0.8850665372
0.883588736
0.8805622841
0.8754118214
0.8726704211
0.8708585867
0.8673870214
0.8673067469
0.8683019445
0.8730839907
0.8921363407
0.9231288635
0.9600808851
0.9861135342
1.001699142
1.001594733
1.003000641
1.002886993
1.002300841
1.002633761
1.004066599
1.005488865
1.005912339
1.005856763
1.005645378
1.005219283
0.9082455768
0.9041383133
0.899798516
0.8978380414
0.8955359434
0.8907678258
0.8886027994
0.8879697056
0.8860389796
0.8820390513
0.8787374576
0.8771944909
0.8739110238
0.8696279425
0.8692739114
0.8695999115
0.8710807253
0.8793388207
0.9059512533
0.937863062
0.9722914817
0.9843173309
0.9979734426
1.000756245
1.002638618
1.00428528
1.0056219
1.006007878
1.0058773
1.005554922
1.004934545
1.004611
0.9133119101
0.9101669946
0.9056163868
0.9034567111
0.9016072191
0.8974202058
0.8934065269
0.8919806637
0.890091722
0.8859092478
0.882990703
0.8819209279
0.88031493
0.8759748293
0.8722162309
0.8706144069
0.870945282
0.8712569223
0.8750680296
0.8900870122
0.9186776071
0.9582681878
0.9898626803
0.9961472449
1.000746715
1.004376491
1.005501049
1.005405864
1.005068912
1.004900301
1.004464573
1.004646221
0.9183618591
0.9152229607
0.9100957136
0.9079927231
0.9068039221
0.9035320063
0.8988769139
0.8969971824
0.8956259131
0.8925262011
0.8883145779
0.8861590038
0.8847002697
0.8822440541
0.878022126
0.8752594073
0.8741079691
0.8726295821
0.8715494266
0.8724589015
0.8800139749
0.9051281103
0.9383507503
0.9656961112
0.9866355033
1.001414005
1.000504883
1.002273793
1.003635434
1.004101382
1.004888133
1.005488218
0.9239390051
0.9212381055
0.9158763743
0.9123431861
0.9109675533
0.908181033
0.9029636397
0.9009575717
0.900087071
0.8980621664
0.8947046882
0.8917689136
0.8897574255
0.8877654988
0.8843999345
0.8799156996
0.8774884342
0.8752788251
0.8723990884
0.8725470434
0.8732531764
0.8773607072
0.890165686
0.923673624
0.9557778384
0.9829656754
0.9905754484
1.000440276
1.003070239
1.003958304
1.004808636
1.005456007
0.9289464427
0.92725621
0.9229980486
0.91799919
0.9160684321
0.9139411237
0.9092460688
0.9055246985
0.9037411131
0.9016249717
0.8989836927
0.8963616325
0.8940144881
0.8921492434
0.8903209822
0.8872343231
0.8833966708
0.881277737
0.8782529473
0.8755127666
0.874261674
0.873774727
0.8745658865
0.882800901
0.9030882093
0.9355016598
0.9711747832
0.9952826476
0.9983057399
1.000745347
1.003073983
1.003566472
0.9333711558
0.9319989428
0.928600863
0.9227952682
0.9204054727
0.9189854772
0.9158711272
0.9117831985
0.9090732859
0.9064281769
0.9036679819
0.9012016958
0.8979529108
0.894679841
0.8932953159
0.8919579989
0.8892359538
0.8862200779
0.8841049143
0.8810597104
0.8772472687
0.8747579008
0.8748620789
0.8753140668
0.8783524908
0.8911855685
0.9210306915
0.9549038873
0.9750199588
0.9898261353
0.9966435866
1.000072988
0.9380936234
0.9365334602
0.9342155361
0.9289006038
0.9248184276
0.9231438511
0.9207267557
0.9173159727
0.9146072447
0.91170753
0.9084384449
0.906291745
0.9041116547
0.8999830967
0.8963720001
0.8954110997
0.893749501
0.8902549508
0.8881969209
0.886566483
0.8836503835
0.8801393917
0.8783330921
0.8769550213
0.8759977114
0.8768301334
0.8842674786
0.9031647829
0.9391983144
0.9717175947
0.9893629267
0.9985990907
0.9437518982
0.941242945
0.9395195045
0.9357663337
0.9308479968
0.9277851611
0.9250813518
0.9219990603
0.9193418334
0.9163286199
0.912005654
0.9097650094
0.9087633499
0.9063932672
0.9019166054
0.8995933751
0.8985361129
0.8959021598
0.8916401181
0.8900354745
0.8883043681
0.8847631312
0.8821383581
0.8801369087
0.8774486683
0.876990401
0.8775160698
0.8804979658
0.8936036241
0.9179477942
0.9512311279
0.9879342413
0.9499174162
0.9456236151
0.9435916521
0.9409590907
0.9369991392
0.9333532173
0.9300823208
0.9269241709
0.9245493013
0.9219520828
0.9173758402
0.9132020774
0.9121763192
0.9108323262
0.9071689812
0.9031914116
0.9023797253
0.9011890794
0.8976746442
0.8944767154
0.8932470791
0.8910086281
0.88707793
0.8852675458
0.8829574893
0.8799194701
0.8783485421
0.8779724839
0.8788746004
0.8854530435
0.9031001583
0.9502448827
0.9567134518
0.9515730383
0.9479908908
0.9452455469
0.9422551497
0.9389762642
0.9351107569
0.9310498137
0.9287540774
0.9269897247
0.9237656845
0.9186371906
0.9160688546
0.9149899952
0.9126327761
0.9076993708
0.9050345279
0.9044082993
0.9023660455
0.8986208204
0.8972132925
0.8960789006
0.8931393525
0.8898958285
0.8879248667
0.8850849413
0.8807308635
0.8786597327
0.8790323007
0.8796360211
0.881894835
0.907481398
0.9622704263
0.9581909586
0.9537347128
0.9494430548
0.9464692827
0.9439977886
0.9406405254
0.9356042683
0.9323463999
0.9310952684
0.929123986
0.9250439523
0.9207489966
0.9191330126
0.9176731292
0.914237817
0.9095559554
0.9077977789
0.9064879259
0.9031861505
0.9002495709
0.8993889432
0.8975828564
0.8941357236
0.8924202324
0.8908549293
0.8877616404
0.8837561739
0.8820822994
0.8810580199
0.8800918588
0.8847349771
0.9663418382
0.9633597648
0.9599185313
0.9549621414
0.9506348926
0.9486415278
0.9463301824
0.9418585325
0.9369383361
0.9349085345
0.9333876032
0.9305392316
0.9260069227
0.922532606
0.9210998223
0.9192459386
0.9154327352
0.9118921343
0.9106551442
0.9086562061
0.9049985457
0.9027893754
0.9011687235
0.8979210985
0.8950154615
0.8943136309
0.8927606319
0.8892159343
0.8860835484
0.88410324
0.8813715999
0.8817510707
0.9708136679
0.9675214551
0.9651582309
0.9611620742
0.9552158378
0.9524289196
0.950862885
0.9478477721
0.942829486
0.9390689991
0.9372465439
0.9353580296
0.9321865612
0.9275759377
0.924406374
0.9230427655
0.920809269
0.9166715315
0.9140236041
0.9127988605
0.9101109807
0.9069511161
0.9055213679
0.9033308961
0.8994820624
0.8975606013
0.8966146827
0.8943969498
0.8906291799
0.8886735669
0.8864850555
0.8838332474
0.9768270024
0.9718160822
0.9697788616
0.9671312209
0.9616292392
0.9564985231
0.9546647347
0.9527418124
0.949075445
0.9444512271
0.9411080564
0.9391784635
0.9371065369
0.9336727005
0.9289407302
0.9264170515
0.9250745149
0.9222404724
0.9178761218
0.9159010227
0.9141899782
0.9110174912
0.9088290989
0.9075344733
0.9047745024
0.9014197538
0.9004402195
0.8991948631
0.8959074411
0.8926671537
0.8906631098
0.8869136592
0.9833731803
0.976748058
0.973746367
0.9719213526
0.9683387864
0.9627795468
0.9587434533
0.9565488465
0.9540163984
0.9502294307
0.9456787423
0.9423107064
0.9406572481
0.9387471761
0.9350070701
0.9303802322
0.9287653026
0.9273370087
0.9237174784
0.9197270167
0.9180950347
0.9157395538
0.9124817447
0.9108712321
0.9090738234
0.9055709949
0.903288328
0.9026857796
0.9009037646
0.8976937238
0.8956609804
0.8921942993
0.9894316488
0.9834622005
0.9781090973
0.9757378653
0.9732809364
0.9692579356
0.9643704311
0.9604914764
0.9581014623
0.9555945006
0.9516986835
0.9465465181
0.9438431249
0.9426725879
0.9404791114
0.9357784078
0.9320107016
0.9309042943
0.9288617192
0.9246435855
0.9219034259
0.9201913034
0.9172087929
0.9145674356
0.9132238353
0.9106698245
0.9063908623
0.904996818
0.9041477932
0.9017697606
0.89962805
0.8965314524
0.9942219643
0.990162259
0.9843099779
0.9799056605
0.9771318556
0.974251516
0.9703994305
0.9654030128
0.9616168197
0.9597162781
0.957303482
0.9527232459
0.9475275983
0.9457641539
0.9445689355
0.9416952983
0.9365765236
0.9341179432
0.9329243958
0.9299823427
0.9262324919
0.9243739052
0.9220591998
0.9185867957
0.9167778004
0.9152813001
0.9118438259
0.9083283567
0.9073187297
0.9057639951
0.9033634938
0.9000008157
0.9981756975
0.995164054
0.9907946132
0.9855085123
0.9810585678
0.9783673458
0.9757783505
0.9716714869
0.9659978785
0.9629978468
0.9614675648
0.9587256667
0.9534897442
0.9492838616
0.948036464
0.9464922191
0.9426493591
0.9379875853
0.9363559122
0.9345690616
0.9309333211
0.9281593966
0.9262308464
0.9229729023
0.9199657896
0.9186938152
0.9166055873
0.9125959673
0.9104772731
0.9095125116
0.9078038287
0.9039866773
1.00291359
0.9991476538
0.9959964029
0.9918639467
0.9861436098
0.9818459514
0.9798761847
0.9773555801
0.9725238673
0.9672227656
0.9648749343
0.9630571368
0.9596224375
0.9543309285
0.9510272603
0.9498295197
0.9478218175
0.943447487
0.9397478431
0.93826291
0.9358091905
0.9325232542
0.9303947805
0.9278004215
0.9238718845
0.921964044
0.9207509183
0.9177469131
0.913937925
0.9123535536
0.9112598466
0.9080648756
1.009307333
1.00362707
1.000137622
0.9973661094
0.9928231414
0.986455811
0.9831804178
0.9814792096
0.9784654692
0.97333475
0.9688661852
0.9666825717
0.9645326937
0.9607262793
0.9554201239
0.952643297
0.9515255589
0.9490796132
0.9444418078
0.9416061291
0.9397973324
0.9368526076
0.9342773121
0.9322237745
0.9287209979
0.9251742122
0.9240976401
0.9224726345
0.9188401026
0.9156383263
0.9142633422
0.9113973671
1.015378024
1.009673648
1.004153674
1.001528999
0.9987322076
0.9933433435
0.9874414634
0.9848605064
0.98280938
0.9792409625
0.9741619605
0.9701111521
0.9681091546
0.9659131202
0.9618928531
0.9565206459
0.9542500484
0.9530155892
0.9499406356
0.9454818164
0.9431869417
0.9409455876
0.9381387793
0.9361995442
0.9338635985
0.9297840153
0.92729394
0.926260084
0.9238704347
0.9199930415
0.9178644363
0.9149716525
1.020216596
1.016125816
1.009801337
1.00515699
1.002899263
0.9995821222
0.9938430257
0.9887273571
0.9863391655
0.9840122902
0.9802672134
0.9750039514
0.9711004316
0.9694176985
0.9672751185
0.9628436368
0.9577556837
0.9562077146
0.9546857609
0.9508526831
0.9469605003
0.9447118581
0.9420867089
0.9397651052
0.9379588295
0.9348803729
0.9308586732
0.929263997
0.9279068246
0.9247122226
0.9216007789
0.9184432109
1.023996272
1.021167309
1.016566015
1.010320478
1.006444756
1.004014885
1.000226578
0.9944887883
0.9898252111
0.9875575994
0.9852241741
0.9812980897
0.9757493045
0.9723681512
0.9708557971
0.9684078852
0.9633576788
0.9592304955
0.9580265174
0.9559070226
0.9518601738
0.9485794538
0.9459127519
0.9431410406
0.9414539403
0.9395575589
0.9357720201
0.9322951396
0.9311333291
0.9293214731
0.9262740913
0.9221689
1.028082961
1.024806159
1.02178823
1.016832813
1.011028629
1.007645924
1.005023418
1.000996894
0.9952092759
0.9908455394
0.988749246
0.98636625
0.9820496771
0.9766113741
0.9739008101
0.9724051215
0.9694192427
0.964046768
0.9609216796
0.9595757786
0.9568843755
0.9532178339
0.950226994
0.9469775741
0.9445539223
0.9432039746
0.9408094932
0.9365636635
0.9340207433
0.9326402653
0.9305081952
0.9262577576
1.034180451
1.028726136
1.025707387
1.02229892
1.017054603
1.011701642
1.008619669
1.005958044
1.001805753
0.996059575
0.9920275557
0.9899756773
0.9873399706
0.9826365353
0.9774709045
0.9753480221
0.9737391877
0.9702803578
0.9651257752
0.9625377481
0.9607133003
0.9577323424
0.9545838801
0.9513860554
0.9478290331
0.9460470261
0.9447124794
0.9417904884
0.9378147347
0.9358616638
0.9343335208
0.93044472
1.040388412
1.034163032
1.029561442
1.026554138
1.022843384
1.017503792
1.01237661
1.009382498
1.006729843
1.002524887
0.9969500251
0.9932271372
0.9912103971
0.9883333711
0.9833073443
0.9783858991
0.9765827303
0.9749025231
0.9710934309
0.9663842474
0.9640372248
0.961877799
0.9590783531
0.9561411851
0.9523065854
0.9489396731
0.9477385225
0.9461636464
0.94257177
0.9391420759
0.937688464
0.9343022511
1.045454249
1.040416654
1.034561935
1.030214625
1.027102019
1.023372862
1.018091359
1.013015911
1.010152394
1.007482933
1.003177878
0.9976324859
0.9943233179
0.9923909721
0.989370448
0.9840357496
0.9794310555
0.9778950887
0.9759173219
0.9717762449
0.9675302781
0.9652240286
0.9629520017
0.9605510951
0.9575280863
0.9530987802
0.9502886911
0.949256584
0.9472560936
0.9433008806
0.9408513721
0.937752549
1.049565061
1.045669894
1.040787955
1.035168729
1.030620684
1.027552249
1.023871359
1.018438047
1.013580405
1.01106267
1.008359191
1.003772028
0.9982863759
0.9953988549
0.9935318758
0.9902440739
0.9846157185
0.9807003695
0.9792673968
0.9769989459
0.9725560873
0.9687739583
0.9662248002
0.9641063146
0.9620434131
0.9586891466
0.9540468589
0.9519715499
0.9508301084
0.9481308429
0.9447505582
0.9409912381
1.053944064
1.049612354
1.045841259
1.041252226
1.035468181
1.031161522
1.028280076
1.024311639
1.018508061
1.0142375
1.012027096
1.009187497
1.00433595
0.9991287995
0.9965757152
0.99458019
0.9909264723
0.9852341907
0.9819363447
0.9805689938
0.9778256917
0.9736597788
0.9699678
0.9671691571
0.9652683491
0.963201501
0.9594020008
0.9550650087
0.9535479145
0.9519966844
0.9491937553
0.9447151885
1.059392544
1.053974858
1.049755845
1.046253099
1.041368905
1.035546445
1.03195368
1.029075964
1.024641442
1.018857778
1.015049001
1.012815981
1.009781266
1.004880132
1.000075316
0.997680661
0.9955779747
0.9915786749
0.9859853673
0.9832108991
0.9815609274
0.9787180929
0.97472926
0.9709918812
0.9682473939
0.9666011856
0.9644065763
0.9600926118
0.9563915114
0.9550565484
0.953288169
0.9488646719
1.064497587
1.059314694
1.053900718
1.050277208
1.046646617
1.041259588
1.035925117
1.032651496
1.029570289
1.024987945
1.019527302
1.015841337
1.013466512
1.010302638
1.005416832
1.000815562
0.9986690694
0.996462028
0.9923140206
0.9869408493
0.9843598571
0.9825633333
0.9795317094
0.9757455588
0.9717924516
0.9693416949
0.967871817
0.9653897816
0.9609095405
0.957832051
0.9564283695
0.9527299224
1.068965586
1.064611909
1.05901535
1.054101174
1.050692726
1.046749997
1.041465458
1.036499629
1.033111727
1.029897226
1.025400136
1.020074004
1.016522284
1.014185559
1.010942492
1.005886136
1.001503135
0.9995340805
0.9973682888
0.9929320643
0.9879461257
0.9855417063
0.9834648496
0.9806191718
0.9766319087
0.9727114132
0.9704691557
0.9690231597
0.9662947059
0.9620121542
0.9596168249
0.9562107771
1.073297839
1.069187922
1.064530832
1.059036046
1.054378303
1.050764169
1.046800508
1.041788322
1.03688845
1.033591615
1.030418076
1.025774403
1.020420447
1.017190316
1.014944541
1.01159738
1.006361142
1.002198938
1.000489701
0.9981203569
0.9936785107
0.9889109101
0.9865599468
0.9845327479
0.9814499467
0.9776717216
0.9736479916
0.9716162529
0.9700024911
0.9668840873
0.9635444864
0.9595486613
1.078139804
1.073388464
1.06916658
1.064473535
1.059192004
1.054489964
1.050876339
1.0470144
1.041841397
1.037143818
1.034221078
1.031014378
1.026127507
1.020875098
1.017840518
1.015620894
1.012124151
1.006812651
1.003024418
1.001356848
0.9989565791
0.9941998778
0.9899601431
0.987626817
0.9853204789
0.9824693229
0.9784096917
0.9748197927
0.9728485492
0.9708346402
0.9679942009
0.963351282
1.083064054
1.078060295
1.073354713
1.069095233
1.064476834
1.05914028
1.05460763
1.051283617
1.047231206
1.04181899
1.037516479
1.034747857
1.03145501
1.026552796
1.021466024
1.01848687
1.016200963
1.012585813
1.007240612
1.003800836
1.002252473
0.9995789318
0.9951157543
0.9907914182
0.9885655816
0.986328813
0.9831244391
0.9794784531
0.9759162613
0.9738903443
0.9718848811
0.967377251
1.082792724
1.077861192
1.073283405
1.069168613
1.064460318
1.059044882
1.054899265
1.051621108
1.047333415
1.042060132
1.037930124
1.035082973
1.031773555
1.02697287
1.021981374
1.019154841
1.016851766
1.013042746
1.00771761
1.004570786
1.003047281
1.000413987
0.9955198565
0.9919112941
0.9895192857
0.9871115358
0.9842068308
0.9801931964
0.9772024115
0.9751287617
0.9710446828
1.086997847
1.082467181
1.077602662
1.073223357
1.069232256
1.064437344
1.05920496
1.05517102
1.05172739
1.047437109
1.042358972
1.038241878
1.03543677
1.032161998
1.027276174
1.02244358
1.019807488
1.017502995
1.013591839
1.008253629
1.005444627
1.003825633
1.000848974
0.9965218519
0.9925504434
0.990519503
0.9880671908
0.9847486235
0.9815250405
0.9784984124
0.9742780626
1.090785953
1.086646709
1.082180513
1.077366924
1.073163233
1.069223492
1.064519859
1.059431959
1.055347235
1.051839527
1.047606415
1.042449246
1.038512447
1.035903344
1.032599681
1.027655543
1.022926349
1.020394519
1.018081424
1.014094528
1.009066755
1.006186552
1.004485359
1.001483139
0.9967729865
0.9938137024
0.9912207878
0.9887809077
0.9858590171
0.9822403623
0.9778556336
1.09461711
1.090382961
1.086360746
1.081916028
1.077195347
1.073109431
1.06923016
1.064551087
1.059505248
1.055519786
1.052132623
1.047759403
1.042539718
1.038849178
1.036321125
1.032983184
1.028124494
1.023494149
1.020915263
1.018609871
1.014668498
1.009648994
1.007021841
1.004965439
1.001869106
0.9979790594
0.9942045201
0.9922626852
0.9892587577
0.9860434464
0.9824158303
1.098481661
1.094207708
1.090071082
1.08610713
1.081632811
1.077017729
1.07311189
1.06923534
1.064521596
1.059514195
1.055747995
1.052373052
1.047923913
1.042876855
1.039222737
1.036558125
1.033292265
1.02856371
1.024001939
1.021523572
1.01911016
1.015135181
1.010391403
1.007448467
1.005560167
1.002460997
0.9984540228
0.9956648838
0.9918393181
0.9893163895
0.9886980273
1.101974617
1.098101542
1.093861409
1.08986907
1.085862964
1.081339811
1.076870049
1.07302587
1.069200604
1.064500698
1.059644046
1.055895316
1.052481426
1.048163099
1.043304896
1.039522856
1.036822756
1.03354547
1.028889147
1.02452449
1.02202424
1.01959874
1.015581135
1.011034854
1.008229381
1.005737947
1.003070798
0.9991255999
0.9949648227
0.9936275634
0.9979133142
1.105064753
1.101657
1.097736282
1.093597369
1.089632494
1.085577254
1.081131635
1.076673483
1.072878303
1.069117507
1.064550471
1.059790222
1.056052771
1.052597088
1.048402347
1.043564415
1.039817842
1.037131062
1.033834236
1.029218374
1.02505405
1.022439465
1.019894447
1.01620121
1.011840456
1.008922727
1.005937382
1.002424226
1.000194762
1.000346555
1.013732008
1.107716369
1.104746255
1.101296379
1.097427724
1.093333639
1.089332493
1.085345029
1.080943352
1.076502611
1.072746743
1.069015718
1.064505946
1.05994332
1.056201913
1.052788121
1.048583748
1.043789374
1.040131816
1.037371551
1.034069981
1.029724392
1.025570979
1.022906579
1.020080609
1.016682663
1.012602386
1.008740358
1.006720355
1.007336174
1.010972227
1.039689531
1.109739735
1.10739459
1.104377096
1.100960488
1.097140194
1.093023297
1.089049363
1.085120448
1.080711765
1.076352503
1.072670399
1.068887789
1.064492475
1.06001492
1.056326022
1.052921197
1.048820103
1.044147284
1.040447156
1.037523803
1.034219253
1.030283192
1.026234471
1.023300707
1.020156354
1.016270628
1.013526753
1.013878872
1.018599839
1.032055843
1.071561117
1.110884431
1.10941421
1.107033578
1.104012703
1.100616666
1.09679666
1.09270535
1.088847894
1.084887284
1.080474524
1.076251349
1.072531648
1.068799769
1.064509398
1.060071667
1.056395831
1.053020502
1.049005809
1.044673123
1.040752323
1.03777883
1.034396498
1.030645569
1.026710212
1.022934041
1.020729119
1.021223656
1.025227356
1.041515182
1.067497284
1.098048189
1.111512289
1.110850163
1.109236022
1.106749312
1.103678531
1.100252028
1.096424394
1.092468204
1.088616281
1.084652924
1.080328625
1.076090579
1.07238862
1.068695108
1.064534547
1.060226813
1.056497385
1.053103945
1.049164731
1.045090368
1.04123677
1.037973041
1.03444565
1.030260963
1.02746551
1.027857562
1.03294535
1.048218649
1.074332758
1.104116543
1.115114234
1.111719738
1.111479679
1.110608777
1.108911278
1.106376518
1.103271947
1.099857956
1.09613249
1.092193547
1.088376682
1.08445013
1.080249706
1.07601972
1.072261755
1.068622888
1.064446989
1.060430204
1.056624752
1.053207366
1.049363444
1.045298183
1.041432934
1.037665438
1.034900421
1.035314126
1.040277841
1.055720177
1.084945501
1.10851535
1.12194137
1.12092393
1.111442705
1.111464571
1.111342237
1.110526671
1.108714359
1.106076529
1.102930422
1.09954594
1.09583763
1.091919097
1.088146252
1.084325199
1.080111691
1.076033947
1.07216805
1.06845728
1.064392326
1.060484269
1.05681363
1.053169111
1.04926985
1.045059668
1.042138664
1.042758228
1.047763197
1.065442457
1.092707041
1.116152074
1.131042915
1.130960409
1.126058271
1.11023926
1.11167179
1.111630268
1.111330679
1.110387341
1.108531545
1.105781905
1.102603654
1.099164355
1.09549424
1.091742376
1.087946181
1.084146367
1.079956759
1.075943165
1.072061951
1.068262341
1.064393578
1.060454721
1.056475405
1.052820022
1.04983247
1.050475279
1.056510335
1.073071917
1.101052087
1.127925751
1.134617266
1.135619548
1.134224992
1.129033336
1.10984093
1.111696284
1.111494823
1.111414609
1.111209971
1.110255458
1.108280376
1.10550377
1.102250839
1.098915152
1.09523017
1.091518616
1.087654223
1.083799513
1.07976369
1.07576893
1.071883995
1.068131785
1.063993813
1.060004708
1.05725544
1.05831367
1.064200309
1.083368275
1.112365684
1.132865607
1.146756174
1.146323477
1.141769871
1.136442885
1.129235988
1.107508182
1.1086441
1.110362741
1.111552883
1.111603082
1.111245019
1.110051497
1.107974907
1.105257151
1.102044963
1.098597545
1.094907523
1.091063462
1.087243233
1.083509929
1.079560107
1.07565796
1.071444469
1.067593588
1.064943595
1.065979467
1.073400101
1.092406947
1.118633792
1.145998928
1.149181192
1.149639062
1.148827115
1.145567927
1.140827229
1.131662857
1.090588663
1.100039987
1.109027179
1.111474093
1.111612309
1.111351241
1.110860878
1.109721417
1.107793771
1.10509078
1.101785068
1.098253735
1.094448742
1.090748183
1.086965665
1.083308445
1.079185689
1.075066781
1.072756399
1.074258277
1.081982403
1.102794202
1.131657577
1.151773447
1.162866873
1.16129968
1.155501536
1.150031037
1.146002813
1.141661281
1.132667034
1.065506309
1.095210401
1.106256583
1.10849827
1.110882551
1.111087927
1.110903712
1.110541077
1.109584069
1.107696456
1.104886887
1.101433138
1.097873265
1.094191775
1.09055503
1.086627362
1.082710154
1.080760339
1.082374699
1.091952225
1.11444322
1.139457517
1.161225549
1.165528194
1.165334815
1.164240921
1.160399013
1.153845373
1.147387185
1.142295506
1.133445981
1.03635129
1.070484459
1.089501303
1.100796106
1.109726483
1.110980791
1.110497519
1.110576052
1.11049025
1.109604238
1.107531841
1.104531945
1.101162217
1.097632612
1.09383438
1.090006601
1.088538499
1.090805629
1.101987819
1.124512217
1.152830597
1.172934825
1.178662828
1.175747377
1.169572413
1.16501179
1.161048918
1.155603179
1.149065427
1.143538304
1.134367779
1.013315782
1.035148221
1.06587548
1.094052148
1.107096199
1.10763853
1.109070975
1.110389372
1.110772412
1.110495044
1.109373907
1.107188258
1.104302841
1.100811413
1.096974906
1.0962971
1.099284727
1.11140492
1.136952757
1.164415775
1.175889291
1.182026581
1.181590513
1.179567552
1.174514216
1.167610695
1.161704086
1.156531515
1.150959841
1.145363923
1.135586486
1.003002328
1.011875171
1.036575908
1.066926336
1.091818772
1.100223655
1.108539149
1.11061884
1.110475736
1.110554326
1.110298138
1.10910491
1.107062722
1.103621582
1.103733896
1.107638394
1.122779379
1.148466499
1.17399403
1.193795002
1.193700772
1.189994995
1.184207244
1.180353743
1.17604583
1.169724163
1.163084452
1.157496745
1.151806207
1.14619466
1.136394675
1.000433173
1.002680694
1.012636794
1.034359809
1.066361919
1.093463838
1.107136725
1.108086841
1.10931449
1.110441302
1.110532138
1.110198944
1.108913988
1.109802497
1.116340606
1.132997702
1.158752685
1.186792697
1.192751228
1.197919352
1.197534887
1.194628503
1.188733972
1.182227425
1.176848323
1.171299206
1.16495017
1.158635064
1.15242909
1.146971381
1.137408055
1.000040637
1.00040485
1.00266919
1.012245295
1.034776537
1.065666888
1.09302027
1.100206318
1.107282386
1.110140587
1.110157323
1.1104491
1.113485638
1.123128022
1.144970626
1.172584347
1.193673933
1.20944247
1.207984489
1.203946036
1.199366132
1.19528731
1.190087936
1.183404791
1.177278735
1.171785092
1.165855228
1.159543225
1.153133709
1.147606972
1.13783708
1.000002637
1.000040243
1.000381182
1.002789727
1.011536915
1.034660687
1.066436636
1.091387323
1.106571977
1.108417691
1.109448202
1.115267479
1.130441985
1.153058891
1.178508886
1.201178582
1.209799764
1.212957842
1.212689133
1.209971531
1.204609504
1.198813624
1.193457772
1.187574187
1.181207768
1.175077788
1.169145442
1.162994983
1.156333219
1.150405628
1.140258324
1.00000012
1.000002782
1.000037028
1.000411645
1.002482932
1.01247896
1.032648792
1.064917548
1.092735608
1.10218937
1.115488818
1.134777068
1.159262238
1.189456798
1.208595775
1.218892851
1.219131214
1.217502489
1.213760879
1.209262555
1.203677243
1.197546722
1.19181025
1.185911015
1.179578323
1.173197922
1.166984616
1.160663881
1.153967673
1.147954615
1.137696051
1.000000004
1.000000136
1.000002541
1.000040255
1.000374457
1.002749814
1.011352827
1.035238793
1.067918307
1.099915659
1.133345081
1.166280517
1.186087776
1.206791063
1.217345327
1.224073218
1.222950779
1.219213263
1.214482578
1.20935972
1.203949161
1.198113992
1.192212589
1.186201095
1.179945149
1.173460719
1.166957138
1.160463401
1.153770511
1.147738002
1.137439421
1
1.000000004
1.000000113
1.00000267
1.000036146
1.00040627
1.002740853
1.013402146
1.04218619
1.096033575
1.147103731
1.186374274
1.218663768
1.230261313
1.229456292
1.22791057
1.224663991
1.220398221
1.215034782
1.20931291
1.203920151
1.198440608
1.192606781
1.186532349
1.18034556
1.173855919
1.167162924
1.16051965
1.153820088
1.147813019
1.137488763
)
;

boundaryField
{
    inlet
    {
        type            fixedValue;
        value           nonuniform 0();
    }
    outlet
    {
        type            inletOutlet;
        inletValue      uniform 1;
        value           nonuniform List<scalar> 
71
(
1.00680515
1.006691984
1.006520422
1.006292917
1.005941864
1.005754943
1.005826516
1.005732309
1.005222837
1.004607465
1.004630515
1.0054813
1.005465081
1.003606611
1.000080634
0.9985430151
0.9879474435
0.9502364735
0.9074746407
0.884730245
0.8817462571
0.8838338468
0.8869193255
0.8921958503
0.8965386741
0.9000007605
0.9039716173
0.9080612305
0.9114041704
0.9149807032
0.9184525869
0.9221641824
0.9262461204
0.9304369652
0.9343038915
0.9377649672
0.9409986027
0.9447088495
0.9488550464
0.9527303394
0.9562204734
0.9595529698
0.9633439996
0.9673704948
0.971048295
0.9742841378
0.9778548573
0.9824104772
0.9886980211
0.9979171642
1.013729373
1.039688791
1.071562736
1.098048213
1.115114809
1.120924864
1.126057383
1.129033705
1.12923632
1.131674412
1.132666155
1.133438423
1.134363526
1.135585787
1.136395143
1.137410252
1.137836497
1.140255461
1.137693932
1.137437994
1.137487536
)
;
    }
    bottom
    {
        type            slip;
    }
    top
    {
        type            slip;
    }
    obstacle
    {
        type            zeroGradient;
    }
    defaultFaces
    {
        type            empty;
    }
    procBoundary35to29
    {
        type            processor;
        value           nonuniform List<scalar> 
33
(
1.006951075
1.006950172
1.006924454
1.006921523
1.006929329
1.006954613
1.007029421
1.007069777
1.007062609
1.007059409
1.007042045
1.006973876
0.8578783289
0.8584168268
0.8599139216
0.8701937767
0.8948889373
0.9340861467
0.9727974399
0.9992485662
1.002051734
1.002959547
1.004367684
1.00407392
1.004081003
1.005156218
1.00608137
1.00644552