/*--------------------------------*- C++ -*----------------------------------*\
  =========                 |
  \\      /  F ield         | OpenFOAM: The Open Source CFD Toolbox
   \\    /   O peration     | Website:  https://openfoam.org
    \\  /    A nd           | Version:  7
     \\/     M anipulation  |
\*---------------------------------------------------------------------------*/
FoamFile
{
    version     2.0;
    format      ascii;
    class       volScalarField;
    location    "3.3";
    object      rho;
}
// * * * * * * * * * * * * * * * * * * * * * * * * * * * * * * * * * * * * * //

dimensions      [1 -3 0 0 0 0 0];

internalField   nonuniform List<scalar> 
5000
(
1.40000504
1.40000504
1.40000504
1.40000504
1.40000504
1.40000504
1.40000504
1.40000504
1.40000504
1.40000504
1.40000504
1.40000504
1.40000504
1.40000504
1.40000504
1.40000504
1.40000504
1.40000504
1.40000504
1.40000504
1.40000504
1.40000504
1.40000504
1.40000504
1.40000504
1.40000504
1.40000504
1.40000504
1.40000504
1.40000504
1.40000504
1.40000504
1.40000504
1.40000504
1.40000504
1.40000504
1.40000504
1.40000504
1.40000504
1.40000504
1.40000504
1.40000504
1.40000504
1.40000504
1.40000504
1.40000504
1.40000504
1.40000504
1.40000504
1.40000504
1.40000504
1.40000504
1.40000504
1.40000504
1.40000504
1.40000504
1.40000504
1.40000504
1.40000504
1.40000504
1.40000504
1.40000504
1.40000504
1.40000504
1.40000504
1.40000504
1.40000504
1.40000504
1.40000504
1.40000504
1.40000504
1.40000504
1.40000504
1.40000504
1.40000504
1.40000504
1.40000504
1.40000504
1.40000504
1.40000504
1.40000504
1.40000504
1.40000504
1.40000504
1.40000504
1.40000504
1.40000504
1.40000504
1.40000504
1.40000504
1.40000504
1.40000504
1.40000504
1.40000504
1.40000504
1.40000504
1.40000504
1.40000504
1.40000504
1.40000504
1.40000504
1.40000504
1.40000504
1.40000504
1.40000504
1.40000504
1.40000504
1.40000504
1.40000504
1.40000504
1.40000504
1.40000504
1.40000504
1.40000504
1.40000504
1.40000504
1.40000504
1.40000504
1.40000504
1.40000504
1.40000504
1.40000504
1.40000504
1.40000504
1.40000504
1.40000504
1.40000504
1.40000504
1.40000504
1.40000504
1.40000504
1.40000504
1.40000504
1.40000504
1.40000504
1.40000504
1.40000504
1.40000504
1.40000504
1.40000504
1.40000504
1.40000504
1.40000504
1.40000504
1.40000504
1.40000504
1.40000504
1.40000504
1.40000504
1.40000504
1.40000504
1.40000504
1.40000504
1.40000504
1.40000504
1.40000504
1.40000504
1.40000504
1.40000504
1.40000504
1.40000504
1.40000504
1.40000504
1.40000504
1.40000504
1.40000504
1.40000504
1.40000504
1.40000504
1.40000504
1.40000504
1.40000504
1.40000504
1.40000504
1.40000504
1.40000504
1.40000504
1.40000504
1.40000504
1.40000504
1.40000504
1.40000504
1.40000504
1.40000504
1.40000504
1.40000504
1.40000504
1.40000504
1.40000504
1.40000504
1.40000504
1.40000504
1.40000504
1.40000504
1.40000504
1.40000504
1.40000504
1.40000504
1.40000504
1.40000504
1.40000504
1.40000504
1.40000504
1.40000504
1.40000504
1.40000504
1.40000504
1.40000504
1.40000504
1.40000504
1.40000504
1.40000504
1.40000504
1.40000504
1.40000504
1.40000504
1.40000504
1.40000504
1.40000504
1.40000504
1.40000504
1.40000504
1.40000504
1.40000504
1.40000504
1.40000504
1.40000504
1.40000504
1.40000504
1.40000504
1.40000504
1.40000504
1.40000504
1.40000504
1.40000504
1.40000504
1.40000504
1.40000504
1.40000504
1.40000504
1.40000504
1.40000504
1.40000504
1.40000504
1.40000504
1.40000504
1.40000504
1.40000504
1.40000504
1.40000504
1.40000504
1.40000504
1.40000504
1.40000504
1.40000504
1.40000504
1.40000504
1.40000504
1.40000504
1.40000504
1.40000504
1.40000504
1.40000504
1.40000504
1.40000504
1.40000504
1.40000504
1.40000504
1.40000504
1.40000504
1.40000504
1.40000504
1.40000504
1.40000504
1.40000504
1.40000504
1.40000504
1.40000504
1.40000504
1.40000504
1.40000504
1.40000504
1.40000504
1.40000504
1.40000504
1.40000504
1.40000504
1.40000504
1.40000504
1.40000504
1.40000504
1.40000504
1.40000504
1.40000504
1.40000504
1.40000504
1.40000504
1.40000504
1.40000504
1.40000504
1.40000504
1.40000504
1.40000504
1.40000504
1.40000504
1.40000504
1.40000504
1.40000504
1.40000504
1.40000504
1.40000504
1.40000504
1.40000504
1.40000504
1.40000504
1.40000504
1.40000504
1.40000504
1.40000504
1.40000504
1.40000504
1.40000504
1.40000504
1.40000504
1.40000504
1.40000504
1.40000504
1.40000504
1.40000504
1.40000504
1.40000504
1.40000504
1.40000504
1.40000504
1.40000504
1.40000504
1.40000504
1.40000504
1.40000504
1.40000504
1.40000504
1.40000504
1.40000504
1.40000504
1.40000504
1.40000504
1.40000504
1.40000504
1.40000504
1.40000504
1.40000504
1.40000504
1.40000504
1.40000504
1.40000504
1.40000504
1.40000504
1.40000504
1.40000504
1.40000504
1.40000504
1.40000504
1.40000504
1.40000504
1.40000504
1.40000504
1.40000504
1.40000504
1.40000504
1.40000504
1.40000504
1.40000504
1.40000504
1.40000504
1.40000504
1.40000504
1.40000504
1.40000504
1.40000504
1.40000504
1.40000504
1.40000504
1.40000504
1.40000504
1.40000504
1.40000504
1.40000504
1.40000504
1.40000504
1.40000504
1.40000504
1.40000504
1.40000504
1.40000504
1.40000504
1.40000504
1.40000504
1.40000504
1.40000504
1.40000504
1.40000504
1.40000504
1.40000504
1.40000504
1.40000504
1.40000504
1.40000504
1.40000504
1.40000504
1.40000504
1.40000504
1.40000504
1.40000504
1.40000504
1.40000504
1.40000504
1.40000504
1.40000504
1.40000504
1.40000504
1.40000504
1.40000504
1.40000504
1.40000504
1.40000504
1.40000504
1.40000504
1.40000504
1.40000504
1.40000504
1.40000504
1.40000504
1.40000504
1.40000504
1.40000504
1.40000504
1.40000504
1.40000504
1.40000504
1.40000504
1.40000504
1.40000504
1.40000504
1.40000504
1.40000504
1.40000504
1.40000504
1.40000504
1.40000504
1.40000504
1.40000504
1.40000504
1.40000504
1.40000504
1.40000504
1.40000504
1.40000504
1.40000504
1.40000504
1.40000504
1.40000504
1.40000504
1.40000504
1.40000504
1.40000504
1.40000504
1.40000504
1.40000504
1.40000504
1.40000504
1.40000504
1.40000504
1.40000504
1.40000504
1.40000504
1.40000504
1.40000504
1.40000504
1.40000504
1.40000504
1.40000504
1.40000504
1.40000504
1.40000504
1.40000504
1.40000504
1.40000504
1.40000504
1.40000504
1.40000504
1.40000504
1.40000504
1.40000504
1.40000504
1.40000504
1.40000504
1.40000504
1.40000504
1.40000504
1.40000504
1.40000504
1.40000504
1.40000504
1.40000504
1.40000504
1.40000504
1.40000504
1.40000504
1.40000504
1.40000504
1.40000504
1.40000504
1.40000504
1.40000504
1.40000504
1.40000504
1.40000504
1.40000504
1.40000504
1.40000504
1.40000504
1.40000504
1.40000504
1.40000504
1.40000504
1.40000504
1.40000504
1.40000504
1.40000504
1.40000504
1.40000504
1.40000504
1.40000504
1.40000504
1.40000504
1.40000504
1.40000504
1.40000504
1.40000504
1.40000504
1.40000504
1.40000504
1.40000504
1.40000504
1.40000504
1.40000504
1.40000504
1.40000504
1.40000504
1.40000504
1.40000504
1.40000504
1.40000504
1.40000504
1.40000504
1.40000504
1.40000504
1.40000504
1.40000504
1.40000504
1.40000504
1.40000504
1.40000504
1.40000504
1.40000504
1.40000504
1.40000504
1.40000504
1.40000504
1.40000504
1.40000504
1.40000504
1.40000504
1.40000504
1.40000504
1.40000504
1.40000504
1.40000504
1.40000504
1.40000504
1.40000504
1.40000504
1.40000504
1.40000504
1.40000504
1.40000504
1.40000504
1.40000504
1.40000504
1.40000504
1.40000504
1.40000504
1.40000504
1.40000504
1.40000504
1.40000504
1.40000504
1.40000504
1.40000504
1.40000504
1.40000504
1.40000504
1.40000504
1.40000504
1.40000504
1.40000504
1.40000504
1.40000504
1.40000504
1.40000504
1.40000504
1.40000504
1.40000504
1.40000504
1.40000504
1.40000504
1.40000504
1.40000504
1.40000504
1.40000504
1.40000504
1.40000504
1.40000504
1.40000504
1.40000504
1.40000504
1.40000504
1.40000504
1.40000504
1.40000504
1.40000504
1.40000504
1.40000504
1.40000504
1.40000504
1.40000504
1.40000504
1.40000504
1.40000504
1.40000504
1.40000504
1.40000504
1.40000504
1.40000504
1.40000504
1.40000504
1.40000504
1.40000504
1.40000504
1.40000504
1.40000504
1.40000504
1.40000504
1.40000504
1.40000504
1.40000504
1.40000504
1.40000504
1.40000504
1.40000504
1.40000504
1.40000504
1.40000504
1.40000504
1.40000504
1.40000504
1.40000504
1.40000504
1.40000504
1.40000504
1.40000504
1.40000504
1.40000504
1.40000504
1.40000504
1.40000504
1.40000504
1.40000504
1.40000504
1.40000504
1.40000504
1.40000504
1.40000504
1.40000504
1.40000504
1.40000504
1.40000504
1.40000504
1.40000504
1.40000504
1.40000504
1.40000504
1.40000504
1.40000504
1.40000504
1.40000504
1.40000504
1.40000504
1.40000504
1.40000504
1.40000504
1.40000504
1.40000504
1.40000504
1.40000504
1.40000504
1.40000504
1.40000504
1.40000504
1.40000504
1.40000504
1.40000504
1.40000504
1.40000504
1.40000504
1.40000504
1.40000504
1.40000504
1.40000504
1.40000504
1.40000504
1.40000504
1.40000504
1.40000504
1.40000504
1.40000504
1.40000504
1.40000504
1.40000504
1.40000504
1.40000504
1.40000504
1.40000504
1.40000504
1.40000504
1.40000504
1.40000504
1.40000504
1.40000504
1.40000504
1.40000504
1.40000504
1.40000504
1.40000504
1.40000504
1.40000504
1.40000504
1.40000504
1.40000504
1.40000504
1.40000504
1.40000504
1.40000504
1.40000504
1.40000504
1.40000504
1.40000504
1.40000504
1.40000504
1.40000504
1.40000504
1.40000504
1.40000504
1.40000504
1.40000504
1.40000504
1.40000504
1.40000504
1.40000504
1.40000504
1.40000504
1.40000504
1.40000504
1.40000504
1.40000504
1.40000504
1.40000504
1.40000504
1.40000504
1.40000504
1.40000504
1.40000504
1.40000504
1.40000504
1.40000504
1.40000504
1.40000504
1.40000504
1.40000504
1.40000504
1.40000504
1.40000504
1.40000504
1.40000504
1.40000504
1.40000504
1.40000504
1.40000504
1.40000504
1.40000504
1.40000504
1.40000504
1.40000504
1.40000504
1.40000504
1.40000504
1.40000504
1.40000504
1.40000504
1.40000504
1.40000504
1.40000504
1.40000504
1.40000504
1.40000504
1.40000504
1.40000504
1.40000504
1.40000504
1.40000504
1.40000504
1.40000504
1.40000504
1.40000504
1.40000504
1.40000504
1.40000504
1.40000504
1.40000504
1.40000504
1.40000504
1.40000504
1.40000504
1.40000504
1.40000504
1.40000504
1.40000504
1.40000504
1.40000504
1.40000504
1.40000504
1.40000504
1.40000504
1.40000504
1.40000504
1.40000504
1.40000504
1.40000504
1.40000504
1.40000504
1.40000504
1.40000504
1.40000504
1.40000504
1.40000504
1.40000504
1.40000504
1.40000504
1.40000504
1.40000504
1.40000504
1.40000504
1.40000504
1.40000504
1.40000504
1.40000504
1.40000504
1.40000504
1.40000504
1.40000504
1.40000504
1.40000504
1.40000504
1.40000504
1.40000504
1.40000504
1.40000504
1.40000504
1.40000504
1.40000504
1.40000504
1.40000504
1.40000504
1.40000504
1.40000504
1.40000504
1.40000504
1.40000504
1.40000504
1.40000504
1.40000504
1.40000504
1.40000504
1.40000504
1.40000504
1.40000504
1.40000504
1.40000504
1.40000504
1.40000504
1.40000504
1.40000504
1.40000504
1.40000504
1.40000504
1.40000504
1.40000504
1.40000504
1.40000504
1.40000504
1.40000504
1.40000504
1.40000504
1.40000504
1.40000504
1.40000504
1.40000504
1.40000504
1.40000504
1.40000504
1.40000504
1.40000504
1.40000504
1.40000504
1.40000504
1.40000504
1.40000504
1.40000504
1.40000504
1.40000504
1.40000504
1.40000504
1.40000504
1.40000504
1.40000504
1.40000504
1.40000504
1.40000504
1.40000504
1.40000504
1.40000504
1.40000504
1.40000504
1.40000504
1.40000504
1.40000504
1.40000504
1.40000504
1.40000504
1.40000504
1.40000504
1.40000504
1.40000504
1.40000504
1.40000504
1.40000504
1.40000504
1.40000504
1.40000504
1.40000504
1.40000504
1.40000504
1.40000504
1.40000504
1.40000504
1.40000504
1.40000504
1.40000504
1.40000504
1.40000504
1.40000504
1.40000504
1.40000504
1.40000504
1.40000504
1.40000504
1.40000504
1.40000504
1.40000504
1.40000504
1.40000504
1.40000504
1.40000504
1.40000504
1.40000504
1.40000504
1.40000504
1.40000504
1.40000504
1.40000504
1.40000504
1.40000504
1.40000504
1.40000504
1.40000504
1.40000504
1.40000504
1.40000504
1.40000504
1.400005038
1.40000504
1.40000504
1.40000504
1.40000504
1.40000504
1.40000504
1.40000504
1.40000504
1.40000504
1.40000504
1.40000504
1.40000504
1.40000504
1.40000504
1.40000504
1.40000504
1.40000504
1.40000504
1.40000504
1.40000504
1.40000504
1.40000504
1.40000504
1.400005049
1.400004956
1.40000504
1.40000504
1.40000504
1.40000504
1.40000504
1.40000504
1.40000504
1.40000504
1.40000504
1.40000504
1.40000504
1.40000504
1.40000504
1.40000504
1.40000504
1.40000504
1.40000504
1.40000504
1.40000504
1.400005041
1.400005042
1.400005066
1.400005154
1.400008852
1.400004254
1.40000504
1.40000504
1.40000504
1.40000504
1.40000504
1.40000504
1.40000504
1.40000504
1.40000504
1.40000504
1.40000504
1.40000504
1.40000504
1.40000504
1.40000504
1.400005041
1.400005047
1.400005089
1.400005292
1.400006334
1.400010272
1.400027146
1.400072613
1.400404204
1.400388934
1.40000504
1.40000504
1.40000504
1.40000504
1.40000504
1.40000504
1.40000504
1.40000504
1.40000504
1.40000504
1.40000504
1.400005043
1.400005058
1.400005158
1.400005618
1.400007583
1.400014603
1.400038541
1.400111418
1.400319085
1.40085648
1.402131788
1.404783196
1.41051009
1.416870645
1.40000504
1.40000504
1.40000504
1.40000504
1.40000504
1.40000504
1.40000504
1.400005044
1.400005076
1.400005276
1.400006224
1.400010126
1.400023822
1.400066775
1.400187929
1.400484826
1.401213278
1.402771603
1.406106149
1.411973928
1.423024671
1.439000964
1.463395455
1.495081806
1.530632475
1.40000504
1.40000504
1.40000504
1.400005042
1.40000508
1.400005374
1.400006989
1.40001385
1.400038884
1.400113899
1.40032208
1.400806171
1.401936994
1.40410677
1.408385071
1.415207059
1.427523377
1.445321904
1.472259816
1.50463901
1.546399143
1.59028081
1.638644235
1.685586836
1.724000202
1.40000505
1.400005202
1.400006728
1.400015546
1.400053341
1.40017584
1.400519032
1.401313469
1.403081729
1.406311214
1.412155169
1.421111596
1.435667059
1.45534804
1.482673949
1.51531748
1.557754191
1.605133822
1.646888884
1.688829089
1.727117895
1.763999128
1.787072247
1.80718901
1.819471106
1.4000317
1.400154138
1.400633945
1.40190065
1.404702879
1.409745636
1.418512893
1.431030071
1.449604492
1.473664401
1.503883695
1.537921645
1.579290805
1.623600617
1.668368226
1.716342422
1.760828955
1.791846374
1.80861813
1.830836494
1.844172827
1.851031765
1.855157599
1.859865783
1.859936406
1.403525048
1.410982169
1.425416377
1.444832583
1.470554086
1.500683976
1.533392699
1.565976948
1.605614244
1.642451796
1.671673098
1.705813685
1.738244046
1.763105433
1.78169462
1.798255647
1.813411328
1.826691008
1.842199233
1.85385731
1.862578579
1.860427996
1.857105372
1.855059687
1.85481535
1.454798833
1.518976889
1.585946884
1.650928253
1.708825811
1.762288213
1.808406376
1.853171369
1.885794335
1.909219094
1.932424508
1.957362045
1.961428376
1.956884792
1.948163698
1.939649332
1.928237074
1.913780058
1.8963353
1.879964893
1.863749623
1.850610062
1.842763874
1.837640487
1.834963616
1.40000504
1.40000504
1.40000504
1.40000504
1.40000504
1.40000504
1.40000504
1.40000504
1.40000504
1.40000504
1.400005041
1.400005058
1.400005651
1.400019714
1.400236195
1.402286782
1.414797197
1.463202626
1.576118327
1.744623862
1.883937942
2.006891325
2.058985363
2.035140121
1.949517473
1.40000504
1.40000504
1.40000504
1.40000504
1.40000504
1.40000504
1.40000504
1.40000504
1.40000504
1.400005041
1.400005055
1.400005637
1.400019365
1.400215626
1.40220695
1.413352247
1.455929922
1.536482195
1.638229984
1.724066698
1.825642483
1.889934115
1.959907813
1.954693705
1.908870889
1.40000504
1.40000504
1.40000504
1.40000504
1.40000504
1.40000504
1.40000504
1.40000504
1.40000504
1.400005054
1.400005491
1.400017684
1.400214862
1.402006666
1.413484636
1.452684747
1.537966095
1.632184115
1.677079825
1.697705208
1.731489049
1.782098126
1.840831075
1.885310429
1.853960063
1.40000504
1.40000504
1.40000504
1.40000504
1.40000504
1.40000504
1.40000504
1.40000504
1.400005049
1.400005496
1.400015309
1.400187571
1.40213452
1.412426246
1.455614551
1.538626654
1.625411032
1.690791274
1.700699062
1.698324009
1.690563802
1.690233761
1.693755438
1.734167034
1.723702248
1.40000504
1.40000504
1.40000504
1.40000504
1.40000504
1.40000504
1.40000504
1.400005048
1.400005336
1.400015332
1.400166964
1.40183744
1.413601192
1.45269346
1.540157597
1.646451973
1.676581072
1.697258417
1.70135979
1.690535806
1.658885867
1.608442888
1.572678501
1.575425702
1.595240156
1.40000504
1.40000504
1.40000504
1.40000504
1.40000504
1.40000504
1.400005045
1.400005328
1.400011988
1.400166716
1.401726491
1.412214592
1.456040358
1.541821205
1.631197057
1.706042779
1.708052723
1.704601333
1.691380746
1.654483572
1.602697368
1.542031348
1.476959154
1.451172647
1.46425666
1.40000504
1.40000504
1.40000504
1.40000504
1.40000504
1.400005044
1.400005206
1.400012418
1.400120503
1.40175021
1.411890421
1.453401651
1.541253127
1.655805368
1.688601488
1.709724624
1.710269123
1.694426173
1.654847713
1.598776656
1.530380831
1.478840978
1.411181241
1.368580837
1.345782786
1.40000504
1.40000504
1.40000504
1.40000504
1.400005042
1.400005208
1.400009526
1.400135315
1.401316387
1.412571708
1.451296988
1.54653108
1.642303763
1.715136993
1.714116788
1.711130954
1.696134294
1.654675493
1.591863128
1.529765438
1.460122953
1.407971711
1.355466567
1.305129384
1.259597665
1.40000504
1.40000504
1.40000504
1.400005041
1.400005119
1.400009806
1.400086304
1.401527008
1.40989175
1.455647703
1.544408097
1.648346522
1.699370606
1.72487445
1.722659601
1.701344674
1.652923132
1.591191991
1.516835029
1.456029016
1.392832949
1.337248453
1.293109717
1.240093154
1.185380719
1.40000504
1.40000504
1.400005041
1.400005087
1.400007249
1.400092459
1.400999548
1.411242043
1.448629163
1.546274275
1.665794793
1.7225659
1.719077156
1.722140283
1.704504159
1.65600591
1.582078158
1.512640564
1.44197747
1.381190622
1.328336525
1.270606532
1.232964211
1.186156608
1.152797725
1.40000504
1.40000504
1.400005065
1.400006833
1.400049813
1.401076731
1.408106168
1.451519659
1.549783307
1.645866068
1.726470549
1.737792974
1.73105898
1.702585659
1.648455459
1.578588908
1.500391571
1.429509286
1.365773867
1.304424889
1.255664486
1.202031112
1.161023564
1.129480637
1.131064174
1.40000504
1.400005043
1.400005925
1.400048324
1.400649228
1.408605824
1.44310052
1.542277
1.684785668
1.717903616
1.734002937
1.734313963
1.708762896
1.650032332
1.567777488
1.493270654
1.415687485
1.350602239
1.29248267
1.233543714
1.193563265
1.154319618
1.131766382
1.120882138
1.128982512
1.40000504
1.400005227
1.400026401
1.400678781
1.406076611
1.443927172
1.542648687
1.651863107
1.744557912
1.747889796
1.742175057
1.711760475
1.643616069
1.564331748
1.475713275
1.398425228
1.330730378
1.26218825
1.212695652
1.158640676
1.123361603
1.110772812
1.114754325
1.120669901
1.17881749
1.400005043
1.400012454
1.400364922
1.406321021
1.437237015
1.533382706
1.686432704
1.725564437
1.745683516
1.746487941
1.714835712
1.645849758
1.555060905
1.463308243
1.385868742
1.309875537
1.248754966
1.191322968
1.14791139
1.124307757
1.105183011
1.106177282
1.120767304
1.163636849
1.264638834
1.400005421
1.400189774
1.403988717
1.437383416
1.530898802
1.656669653
1.763231432
1.764709339
1.756068128
1.716847839
1.640528722
1.542817508
1.450494989
1.363819154
1.28499991
1.216885266
1.159562991
1.114729218
1.094666378
1.100166049
1.108287732
1.135238948
1.194894861
1.276314765
1.354358724
1.400031882
1.402766972
1.427921248
1.528515348
1.682098906
1.739934586
1.766735809
1.764333491
1.722450482
1.636625136
1.531025132
1.434579936
1.339220575
1.26833355
1.202263627
1.138746062
1.110974582
1.090594576
1.088827712
1.099847279
1.153155211
1.227818785
1.299541052
1.34129123
1.371615973
1.400928772
1.422817564
1.51853676
1.663946454
1.778235843
1.781932799
1.772410291
1.722981477
1.628741554
1.519412546
1.405477987
1.31541136
1.231152407
1.150409857
1.11122931
1.079792144
1.08279896
1.087008617
1.116331873
1.178674874
1.266468809
1.337411075
1.376624598
1.383176918
1.381944733
1.413835659
1.507889441
1.674990875
1.755393713
1.787404708
1.781587543
1.729297098
1.623507383
1.502057561
1.392848758
1.288268357
1.204273928
1.143425921
1.091466214
1.064542529
1.065834124
1.079027403
1.127296843
1.222543244
1.317303967
1.348636357
1.365621679
1.386111884
1.388874643
1.386732419
1.48837785
1.671342714
1.796530004
1.80455344
1.795458504
1.733112897
1.616874629
1.487025097
1.351698145
1.251541412
1.164786456
1.085476964
1.058026127
1.061139724
1.064737261
1.092177202
1.165866198
1.268158275
1.315090734
1.358897694
1.373961935
1.376016313
1.381339007
1.384870791
1.384680604
1.663433613
1.786203092
1.81191317
1.80292419
1.73510067
1.612598406
1.450984369
1.336614609
1.226372095
1.122383078
1.079443903
1.032836975
1.034223358
1.05196438
1.106826094
1.20675159
1.298285395
1.366925382
1.372443232
1.378324726
1.380319097
1.38144238
1.381680927
1.381379481
1.381727633
1.815672896
1.83920515
1.823494899
1.739011946
1.583500586
1.432210023
1.2791161
1.144345999
1.077762854
1.021009024
1.026579796
1.032369368
1.060481961
1.150545822
1.254917216
1.329591495
1.353966747
1.376171999
1.381519098
1.380757627
1.379742608
1.37904565
1.379216724
1.379122124
1.380185764
1.839927533
1.833782677
1.747903796
1.58340453
1.388640844
1.236886939
1.135994196
1.041957314
0.9824376403
0.9850903285
1.004071899
1.088189576
1.20460733
1.284238801
1.346727515
1.370023403
1.37224435
1.377109526
1.379291021
1.378393444
1.376870953
1.377279134
1.37877745
1.380179289
1.381832469
1.853004292
1.76169374
1.551865787
1.340860078
1.16395923
1.02698501
0.9788147356
0.97946547
0.9822335567
1.023202
1.124593895
1.245362752
1.335739506
1.355160083
1.37105953
1.382464606
1.3775736
1.374135455
1.374372221
1.374992166
1.376005865
1.378259218
1.380761321
1.382931222
1.383507168
1.777778251
1.54443445
1.308658667
1.127848157
1.030184366
0.9437383941
0.9324827782
0.9548035697
1.047060417
1.20689292
1.322243785
1.348675574
1.381392158
1.3854605
1.379321472
1.378265766
1.377473098
1.377661075
1.378674396
1.380247246
1.382423468
1.385005679
1.386687712
1.386600914
1.386377158
1.454258538
1.016458306
0.9821128775
0.9644560676
0.9645967305
0.9584771825
0.9941433731
1.139389721
1.304475642
1.354265708
1.397364122
1.39157687
1.388578128
1.386144632
1.387499301
1.388005546
1.388635307
1.390054909
1.391238471
1.39173157
1.392915298
1.394191537
1.394491542
1.393451444
1.392379234
0.8860493792
0.7886352168
0.8261153269
0.8899876285
0.9456193676
0.9971438296
1.145287581
1.342983307
1.412099732
1.401730411
1.405042652
1.398670794
1.390732397
1.385982386
1.389784865
1.391302544
1.39223436
1.393989022
1.396226056
1.396682755
1.395742383
1.396351924
1.397657361
1.396218096
1.392810278
0.8470975389
0.7838764616
0.8225110127
0.8903859048
0.9518913335
1.030817058
1.212137996
1.383769485
1.426426861
1.40827794
1.413597324
1.406803588
1.399278509
1.389928241
1.39187398
1.392505512
1.393346023
1.394634993
1.397635676
1.400825956
1.40029206
1.399258556
1.401008999
1.401499337
1.398175582
0.8379171237
0.7808103919
0.8173346803
0.8887034996
0.9574849108
1.065241348
1.256636932
1.403666828
1.433746568
1.404862333
1.414359003
1.407949415
1.401200658
1.396358616
1.398654559
1.398220784
1.399455793
1.39997269
1.402152915
1.404385876
1.405150883
1.40419823
1.403542437
1.403260602
1.402065832
0.8280849301
0.7793179972
0.8188761596
0.8871954511
0.9674680929
1.088650184
1.294265749
1.411768151
1.430879681
1.401066297
1.411004527
1.403478546
1.398710485
1.398086982
1.402066288
1.402108784
1.403695141
1.404897117
1.404756306
1.40443708
1.405110928
1.40470395
1.402816474
1.40115503
1.400967569
0.8202512952
0.777279728
0.8228712439
0.8868237737
0.980002063
1.129498536
1.326502875
1.410454691
1.422211937
1.399592027
1.407886821
1.396983535
1.393181858
1.397538754
1.402792635
1.402294573
1.403459546
1.405570697
1.403806046
1.401106139
1.401277667
1.401793267
1.399195646
1.395597226
1.395866191
0.8134126704
0.7777889614
0.825835832
0.8914233614
1.000975128
1.198409397
1.371212191
1.422072658
1.414875352
1.401070578
1.407678952
1.394993246
1.390933711
1.395600341
1.4001546
1.398288268
1.398735636
1.401256409
1.400320661
1.397305585
1.397086768
1.398516826
1.396617413
1.392288165
1.391489706
0.807054745
0.7789297104
0.8276580727
0.900384448
1.034968251
1.25301026
1.411150787
1.435650665
1.424236109
1.408484538
1.412375128
1.40019529
1.393135981
1.392970245
1.396243567
1.394327831
1.394304497
1.396458964
1.399039154
1.398913554
1.398447481
1.399800006
1.400626048
1.396863171
1.390766861
0.8018712658
0.7822652792
0.830642997
0.9151436454
1.077099554
1.291549748
1.425172762
1.437409577
1.427847754
1.407128828
1.411664166
1.401533251
1.393176391
1.392175459
1.39627763
1.396404162
1.397282239
1.398538491
1.401785007
1.402970736
1.402936497
1.402950607
1.403409222
1.401729473
1.39661041
0.7983068134
0.7852432046
0.834958923
0.9301902199
1.108619211
1.330754421
1.412252736
1.42396711
1.415938536
1.394117585
1.400662079
1.39317432
1.388354607
1.388836991
1.393721696
1.39508814
1.396856949
1.3978543
1.399442573
1.401015936
1.400811794
1.399771202
1.399384139
1.399519002
1.397327748
0.7959316663
0.7886853076
0.841008876
0.9514463907
1.155736788
1.346162061
1.390674819
1.401904973
1.39690369
1.377912076
1.386599186
1.381089097
1.380996404
1.382316125
1.386007382
1.38680084
1.388862293
1.390362138
1.391212884
1.392700726
1.392901474
1.391683941
1.390775593
1.391182732
1.390845724
0.795765828
0.7944988556
0.8501872117
0.9786028233
1.222542192
1.350151872
1.373202396
1.379311327
1.378534833
1.366536249
1.375770759
1.36934384
1.369599107
1.371309871
1.373740117
1.374014399
1.376571948
1.378739644
1.379681883
1.380584017
1.381767847
1.381644928
1.380088814
1.379055476
1.379927088
0.796001081
0.8009777633
0.8621561646
1.014551029
1.274269294
1.367033676
1.366326463
1.362957172
1.361167343
1.358982421
1.363715008
1.354735194
1.354784123
1.35739814
1.360195794
1.360210412
1.363002337
1.366382967
1.366886154
1.367619863
1.370320636
1.371088603
1.369486128
1.366693534
1.366757614
0.7980055138
0.8063630629
0.880398928
1.069448965
1.327072458
1.381387731
1.369907486
1.355760394
1.350042285
1.34932499
1.348071738
1.337848051
1.33923406
1.343902563
1.34692786
1.346911714
1.349609197
1.353212515
1.353899188
1.355495268
1.359383096
1.361012784
1.359747018
1.355398763
1.35333083
0.803888993
0.8152756758
0.9016891569
1.11395056
1.358179624
1.372735959
1.362563001
1.348113065
1.337377053
1.333134532
1.330996887
1.322418552
1.325476055
1.330658515
1.334409917
1.334260647
1.336385601
1.339036755
1.341134969
1.343729804
1.347285848
1.348352864
1.34779211
1.344845505
1.340716415
0.8068117182
0.8278956222
0.9290569231
1.161756375
1.359000435
1.356024771
1.343798992
1.337340559
1.328120071
1.317291426
1.316900389
1.311864258
1.314813145
1.317635208
1.321225817
1.321395929
1.322090774
1.324293057
1.327582159
1.330266213
1.332024511
1.332349626
1.332163496
1.331160311
1.327396765
0.8133845248
0.8401136219
0.9683235619
1.228043355
1.347016773
1.325440516
1.307074867
1.307888803
1.308577215
1.303187791
1.306405872
1.302036854
1.303574688
1.304510519
1.30815627
1.307925194
1.30845305
1.310227415
1.313339366
1.315641382
1.315900274
1.315048315
1.315770645
1.315820897
1.312183983
0.8205701413
0.855805421
1.022182943
1.270765463
1.33280506
1.298636061
1.279641516
1.287703467
1.29405896
1.291272654
1.295665779
1.291523427
1.292550911
1.291051844
1.292975131
1.293626992
1.294186411
1.294278224
1.295809733
1.297805957
1.297650276
1.296485505
1.296553346
1.298067778
1.297580142
0.8296004035
0.8752039449
1.073659055
1.299537061
1.328288211
1.289196188
1.267277567
1.275386662
1.284154109
1.28237856
1.282126563
1.276473064
1.27800177
1.275715152
1.276413818
1.277588144
1.279627113
1.280072185
1.280255327
1.281569106
1.283221053
1.282767664
1.281601793
1.280581452
1.281550481
0.8404029056
0.9004619095
1.127713069
1.335699585
1.329333207
1.286560295
1.265310329
1.269160942
1.273279554
1.269007409
1.263934059
1.259340124
1.263784736
1.263692044
1.264054146
1.265182816
1.267797234
1.268383261
1.268034776
1.269587761
1.27275975
1.272738626
1.270924832
1.268370256
1.268007529
0.8496832815
0.9414668056
1.193499303
1.351035655
1.328719408
1.285740491
1.266129863
1.26504949
1.258958209
1.252295719
1.250010922
1.247562493
1.253995055
1.254669651
1.254932469
1.255391283
1.258426894
1.259852774
1.259693642
1.261554844
1.264732366
1.264881915
1.263923897
1.26109185
1.259452579
0.8607286249
1.001293317
1.256834582
1.356277973
1.321788842
1.26898065
1.251739618
1.251506115
1.244772427
1.238948079
1.240367256
1.242139284
1.248426277
1.248512719
1.248635825
1.248554525
1.251186258
1.253141858
1.253361062
1.256770263
1.260010358
1.260484282
1.25908405
1.256540773
1.254256569
0.8696995844
1.054691482
1.288248728
1.3374103
1.289995877
1.237186835
1.236789074
1.242361187
1.237792277
1.231499795
1.233297898
1.236935345
1.243542547
1.242196523
1.242966405
1.243014223
1.243925371
1.245215358
1.247305037
1.25170481
1.254957342
1.25555133
1.253815099
1.253112951
1.252454463
0.8726054996
1.089987638
1.30202085
1.297790719
1.248481944
1.209183242
1.223464276
1.239980617
1.241953315
1.234255359
1.236186008
1.233491213
1.236412824
1.234645006
1.238998177
1.238819963
1.239840369
1.242322496
1.246280451
1.24823529
1.249314145
1.249942155
1.252087716
1.252909029
1.251429382
0.8486410782
1.113381931
1.291597135
1.287905387
1.231318992
1.199214247
1.21169035
1.235367169
1.245066325
1.236583431
1.238403812
1.234033643
1.235750444
1.23381431
1.238969734
1.239493348
1.241053732
1.242652775
1.246009347
1.247337659
1.248069082
1.248872498
1.250879459
1.252497365
1.249542444
0.8675623931
1.187944083
1.301467933
1.285757095
1.227450356
1.203484805
1.217149116
1.23621575
1.237917616
1.231667145
1.234111671
1.233525733
1.236955187
1.235047205
1.239186552
1.240735752
1.242311557
1.243958053
1.245880386
1.248324105
1.248881633
1.249870123
1.250333816
1.250129645
1.248513474
0.8717082276
1.216802072
1.32256976
1.295031013
1.237443865
1.221067692
1.230468898
1.234084106
1.225323776
1.222691002
1.227622203
1.231824214
1.23771901
1.23561773
1.238417968
1.240399281
1.241631611
1.243734619
1.244435754
1.247878902
1.251538547
1.251038714
1.249023433
1.247771011
1.248107753
0.854409059
1.151890699
1.319578825
1.321778113
1.262940985
1.234076427
1.235200345
1.230783585
1.22329025
1.220145622
1.225094542
1.232436528
1.239300406
1.236876095
1.236807827
1.239787844
1.242438899
1.242440599