/*--------------------------------*- C++ -*----------------------------------*\
  =========                 |
  \\      /  F ield         | OpenFOAM: The Open Source CFD Toolbox
   \\    /   O peration     | Website:  https://openfoam.org
    \\  /    A nd           | Version:  7
     \\/     M anipulation  |
\*---------------------------------------------------------------------------*/
FoamFile
{
    version     2.0;
    format      ascii;
    class       volScalarField;
    location    "4.2";
    object      rho;
}
// * * * * * * * * * * * * * * * * * * * * * * * * * * * * * * * * * * * * * //

dimensions      [1 -3 0 0 0 0 0];

internalField   nonuniform List<scalar> 
558
(
1.073606194
1.059595069
1.031224404
1.000062652
0.9925754594
0.9843752099
0.984370049
0.9906857167
1.433775316
1.378786865
1.333733632
1.29016972
1.24146997
1.207932312
1.18318624
1.146674336
1.111248236
1.101826569
1.085085751
1.049368376
1.027617757
1.015929755
0.9995809466
0.9909369319
1.498144254
1.440089047
1.390263324
1.348103007
1.299632088
1.255746649
1.230704861
1.203367855
1.160906536
1.134193465
1.119096281
1.091161349
1.057064207
1.045031611
1.028714775
1.004543149
1.561499616
1.502909877
1.447981301
1.403297817
1.360335305
1.309926001
1.273784282
1.249136741
1.211418427
1.170795473
1.153424723
1.137121053
1.106240515
1.081803122
1.069898172
1.047648863
1.618464053
1.564765912
1.508012108
1.456728005
1.415186101
1.36717993
1.318646636
1.289922732
1.262822649
1.221469228
1.191157181
1.176721474
1.150169672
1.11666137
1.099013209
1.083171836
1.670808156
1.61979625
1.566974893
1.511757142
1.466763693
1.425232979
1.374443009
1.3326824
1.306407784
1.272203841
1.229949858
1.206868997
1.18854029
1.158958582
1.133967697
1.122249529
1.718900438
1.670287411
1.621991644
1.568064318
1.517319069
1.474745411
1.431644686
1.381797658
1.345970932
1.318509906
1.279557524
1.244946508
1.225633762
1.201424452
1.169562498
1.150253542
1.758755124
1.716326609
1.669592541
1.622009072
1.570532394
1.522205299
1.482425394
1.436146879
1.391427149
1.35893558
1.328025312
1.289853966
1.260140084
1.239311145
1.207584208
1.179690935
1.78772597
1.755653322
1.714090376
1.669871759
1.622165025
1.572288672
1.528046458
1.48700247
1.442339491
1.400734583
1.369491276
1.334304589
1.299284462
1.274922355
1.250568434
1.217694005
1.803582604
1.784527971
1.753168912
1.712377145
1.668258092
1.621231742
1.5743312
1.531784279
1.49132095
1.448533541
1.41121501
1.378254601
1.342522476
1.311623807
1.288068567
1.257792427
1.808639762
1.802449329
1.782773483
1.750405325
1.709757985
1.667146443
1.621574129
1.57628951
1.535594154
1.494164796
1.455827544
1.419293164
1.385057825
1.350689514
1.323194763
1.299027451
1.813140208
1.810755607
1.80089583
1.779902802
1.747389731
1.70796923
1.664520538
1.621884853
1.578194263
1.537722941
1.499143386
1.461730888
1.427226914
1.389941029
1.360224441
1.335912203
1.807421019
1.806080686
1.806166231
1.798676823
1.777936881
1.744955773
1.705603065
1.664126026
1.622394234
1.580556817
1.539504995
1.504052514
1.468815829
1.431103678
1.395683418
1.368872555
1.763578435
1.791905238
1.808854544
1.806954695
1.796810267
1.775519828
1.743436198
1.703886848
1.663478727
1.622687051
1.580871269
1.541509243
1.508812066
1.474575305
1.435225171
1.401303289
1.702798573
1.78490516
1.803258955
1.800845172
1.801856744
1.794565821
1.773472441
1.741018499
1.701580907
1.663742148
1.623769294
1.581501689
1.544320692
1.513538672
1.479707007
1.437795037
1.599101594
1.72793335
1.761773813
1.785954088
1.803191388
1.802083818
1.791899072
1.770310278
1.738928962
1.701086409
1.662977692
1.623916831
1.581394147
1.547351046
1.518071037
1.482998673
1.487632876
1.600590571
1.69878993
1.781487455
1.799690172
1.796236388
1.796741378
1.789211159
1.768802477
1.736081081
1.699024756
1.662350132
1.624138399
1.583168769
1.550275163
1.522572945
1.424403665
1.481396199
1.596833123
1.729163881
1.763240555
1.781759095
1.797618859
1.796812286
1.786865764
1.765104141
1.733482168
1.697771361
1.662361714
1.623680104
1.583722045
1.552898888
1.4043626
1.42145889
1.4886238
1.602383402
1.695931011
1.777347245
1.796492579
1.793214098
1.791838274
1.7838187
1.76350898
1.731928372
1.695871471
1.661418585
1.623516094
1.584919822
1.400516736
1.403782383
1.425555617
1.482584181
1.595918089
1.726871937
1.764911781
1.778400964
1.792780258
1.792582184
1.783296011
1.761878774
1.730156117
1.694678681
1.66111837
1.623015883
1.400046802
1.400465497
1.40469025
1.421832188
1.489766933
1.602939399
1.692648602
1.770591006
1.793699907
1.79203694
1.7895295
1.781092983
1.76003142
1.728565919
1.693908271
1.659963892
1.400007347
1.400044609
1.400566155
1.403819483
1.426323632
1.48343545
1.595474017
1.721006295
1.768439857
1.778083911
1.787889565
1.789874632
1.780364293
1.759471602
1.728110608
1.693912063
1.400005126
1.400007404
1.400050584
1.400466583
1.404942266
1.422421685
1.491156629
1.602461461
1.69117544
1.760249244
1.791905976
1.790126795
1.786638967
1.77811714
1.757930997
1.726821491
1.400005042
1.400005139
1.400007598
1.400044567
1.40061196
1.403980696
1.427183228
1.483694058
1.594847833
1.709930867
1.775956623
1.775275953
1.781893119
1.785760613
1.777587726
1.756450486
1.40000504
1.400005043
1.400005139
1.400007425
1.400054511
1.40048014
1.405110284
1.422775222
1.491268067
1.598588307
1.694059669
1.749275334
1.784436784
1.787809195
1.784323031
1.774381328
1.40000504
1.40000504
1.400005043
1.400005139
1.400007758
1.400044123
1.400630071
1.404078354
1.427581765
1.483803226
1.591349231
1.703620104
1.77546066
1.776029192
1.776531826
1.780523927
1.40000504
1.40000504
1.400005043
1.400005142
1.400007318
1.400056036
1.40049591
1.405178387
1.423423449
1.488126585
1.592497288
1.706537132
1.742033799
1.769568069
1.783858469
1.40000504
1.40000504
1.40000504
1.400005043
1.400005134
1.40000786
1.400044792
1.400635269
1.404211459
1.426347531
1.484294414
1.589369854
1.694819082
1.768583876
1.779697833
1.40000504
1.40000504
1.40000504
1.40000504
1.400005043
1.400005146
1.400007268
1.400055625
1.40051219
1.404973959
1.424248429
1.484345248
1.589076068
1.707688346
1.74369977
1.40000504
1.40000504
1.40000504
1.40000504
1.40000504
1.400005043
1.400005129
1.400007853
1.400045955
1.400622505
1.404512825
1.424047225
1.485021962
1.590350287
1.689138108
1.40000504
1.40000504
1.40000504
1.40000504
1.40000504
1.40000504
1.400005043
1.400005148
1.400007314
1.400055375
1.400540356
1.40461992
1.424035801
1.482067332
1.591141372
1.40000504
1.40000504
1.40000504
1.40000504
1.40000504
1.40000504
1.40000504
1.400005043
1.400005127
1.400007817
1.400047168
1.400584883
1.404548754
1.423106089
1.484216294
1.40000504
1.40000504
1.40000504
1.40000504
1.40000504
1.40000504
1.40000504
1.40000504
1.400005043
1.400005147
1.400007313
1.400055302
1.400547033
1.404548855
1.422802871
1.40000504
1.40000504
1.40000504
1.40000504
1.40000504
1.40000504
1.40000504
1.40000504
1.40000504
1.400005043
1.400005129
1.400007885
1.400049904
1.400572532
1.4042321
1.40000504
1.40000504
1.40000504
1.40000504
1.40000504
1.40000504
1.40000504
1.40000504
1.40000504
1.40000504
1.400005043
1.400005151
1.400007475
1.400054409
1.400537511
1.40000504
1.40000504
1.40000504
1.40000504
1.40000504
1.40000504
1.40000504
1.40000504
1.40000504
1.40000504
1.40000504
1.400005043
1.400005126
1.400007758
1.400050539
)
;

boundaryField
{
    inlet
    {
        type            calculated;
        value           nonuniform 0();
    }
    outlet
    {
        type            calculated;
        value           nonuniform 0();
    }
    bottom
    {
        type            calculated;
        value           nonuniform 0();
    }
    top
    {
        type            calculated;
        value           nonuniform List<scalar> 
15
(
1.40000504
1.40000504
1.40000504
1.40000504
1.40000504
1.40000504
1.40000504
1.40000504
1.40000504
1.40000504
1.40000504
1.400005043
1.400005126
1.400007758
1.400050539
)
;
    }
    obstacle
    {
        type            calculated;
        value           nonuniform 0();
    }
    defaultFaces
    {
        type            empty;
    }
    procBoundary34to27
    {
        type            processor;
        value           nonuniform List<scalar> 4(1.490885528 1.555866489 1.61649677 1.672078579);
    }
    procBoundary34to28
    {
        type            processor;
        value           nonuniform List<scalar> 
17
(
1.043905189
1.022204684
0.9912420607
0.9836367788
0.979385928
0.9799621667
0.9949529164
1.061251352
1.366379924
1.313905666
1.273188827
1.228934103
1.189627856
1.169255058
1.139949629
1.097137277
1.097137277
)
;
    }
    procBoundary34to29
    {
        type            processor;
        value           uniform 1.025124269;
    }
    procBoundary34to33
    {
        type            processor;
        value           nonuniform List<scalar> 
32
(
1.720951455
1.76184356
1.790542672
1.806342302
1.812577173
1.808366532
1.795992915
1.787706958
1.725001611
1.598869323
1.481792525
1.421688686
1.40386645
1.400466672
1.400044045
1.400007306
1.400005134
1.400005043
1.40000504
1.40000504
1.40000504
1.40000504
1.40000504
1.40000504
1.40000504
1.40000504
1.40000504
1.40000504
1.40000504
1.40000504
1.40000504
1.40000504
)
;
    }
    procBoundary34to35
    {
        type            processor;
        value           nonuniform List<scalar> 
35
(
0.9923817451
0.9946695214
1.020757927
1.056565554
1.101689977
1.135177725
1.166781286
1.195727174
1.225100118
1.263967696
1.3073123
1.34621713
1.379289064
1.408176469
1.442362813
1.485955637
1.525558812
1.555169255
1.584675666
1.622662706
1.660539119
1.693186977
1.725919628
1.755029075
1.774639099
1.781533818
1.777694559
1.767031395
1.758394972
1.695705548
1.583052676
1.480865479
1.423513428
1.404535828
1.400561743
)
;
    }
}


// ************************************************************************* //
