/*--------------------------------*- C++ -*----------------------------------*\
  =========                 |
  \\      /  F ield         | OpenFOAM: The Open Source CFD Toolbox
   \\    /   O peration     | Website:  https://openfoam.org
    \\  /    A nd           | Version:  7
     \\/     M anipulation  |
\*---------------------------------------------------------------------------*/
FoamFile
{
    version     2.0;
    format      ascii;
    class       volScalarField;
    location    "3.8";
    object      p;
}
// * * * * * * * * * * * * * * * * * * * * * * * * * * * * * * * * * * * * * //

dimensions      [1 -1 -2 0 0 0 0];

internalField   nonuniform List<scalar> 
555
(
0.9984157953
0.9997359069
1.00079989
1.000502159
0.9998525468
0.6561980023
0.7265800952
0.8277373145
0.92478662
0.9751209232
0.9796080289
0.9886307976
0.9948814551
0.9965915732
0.9968219835
0.9974228198
0.9981867473
0.9996717324
1.000894263
1.001288849
1.000691475
0.7857308785
0.8943600149
0.926475871
0.9613535275
0.991418556
0.9914152234
0.9947375257
0.9985325263
1.000412883
1.000947324
1.000638016
0.9995766224
0.9986141692
0.9986849658
0.9992395904
0.9998341823
0.9046449559
0.9788782603
0.9872828679
0.9879049928
0.9911580938
0.9913826155
0.9937462116
0.9964567107
0.9979077974
0.9996835773
1.000555334
1.000332743
0.9993296266
0.9985673
0.9986076783
0.9990171119
0.9771493302
0.9922664553
0.9993668803
0.9990578846
0.9971477202
0.9945668713
0.9938671454
0.9940496041
0.9949347172
0.9972037353
0.9998462772
1.000189681
1.000050914
0.9996838819
0.9994168494
0.999340681
0.9867666142
0.9892097157
0.9946292253
0.9984954814
0.9981318595
0.9973821305
0.9957875696
0.9952630566
0.9957940491
0.9974112701
0.9991861926
0.99982885
0.9999565428
0.9999226894
0.9999201873
0.9995438767
0.9868694298
0.9865445603
0.9896448166
0.994382923
0.9966664365
0.997651253
0.997839798
0.9978878531
0.9980774266
0.9987154396
0.9992684885
0.9993432491
0.9991758071
0.9992825958
0.9994547638
0.9991891268
0.9931237159
0.9917003832
0.9928961174
0.9949615205
0.9960534768
0.9971909265
0.9982482034
0.9989025988
0.9991479827
0.9991790285
0.9994100564
0.9991033381
0.9982890608
0.9981731283
0.9982938699
0.998295595
0.9972861393
0.9978789892
0.9982663111
0.9980983987
0.9975750833
0.99723765
0.9975559582
0.9981321625
0.9988148543
0.9990356323
0.9989734004
0.9987495683
0.9982101944
0.9979653263
0.9979180475
0.9979093026
0.9976199544
0.9989524346
0.999466666
0.999190023
0.9987276506
0.9978954011
0.997700074
0.9979011639
0.9980032191
0.998310663
0.9988636379
0.9989684162
0.9987843035
0.9984656737
0.9981738361
0.9980218611
0.9962139084
0.9978995571
0.9986923447
0.9989565247
0.9987809266
0.9983715096
0.9982013083
0.9984080368
0.9986941993
0.9988920489
0.9991710381
0.9991927171
0.9992097414
0.999083382
0.9988425233
0.9984062525
0.9955992219
0.9961080233
0.9969672846
0.9977455223
0.9982973723
0.9986326277
0.9987767942
0.9991784815
0.9996512902
0.999794102
0.9997219426
0.9993912781
0.9991436409
0.9990436744
0.9991545811
0.9989177384
0.9965116005
0.9966370712
0.9972505238
0.9979092701
0.9984982048
0.9989898261
0.9993441684
0.9997026514
0.9999717799
0.9999033645
0.9995394706
0.9989711532
0.9985617884
0.9983927794
0.9985133553
0.9985947992
0.9978272928
0.9974780652
0.9977489496
0.9982978956
0.9986459276
0.9988621723
0.9990772411
0.9995062741
0.9998568922
0.9998865239
0.9995195646
0.9990282572
0.9985978048
0.9984207076
0.9982942188
0.9981992747
0.9987639455
0.9978859377
0.9977672596
0.9979871399
0.9981953927
0.9984274253
0.9988943411
0.9994963219
0.9999538292
1.000136122
1.000000159
0.9995211132
0.9990508811
0.9987856244
0.9986427391
0.9984796566
0.9986461632
0.9976704292
0.9974417159
0.9974085362
0.9972980517
0.9973689058
0.9977500624
0.9983805074
0.9990401936
0.9995529294
0.999678695
0.9995449356
0.9993556275
0.9993460417
0.9994625927
0.9996390213
0.9989242578
0.9980996533
0.9979649455
0.9981370772
0.9981952067
0.9982610174
0.998519946
0.9985186946
0.9986734768
0.9989976965
0.9990496349
0.9987553823
0.9982721935
0.9980249647
0.9979855827
0.9980934581
0.9975716342
0.9971515128
0.9971260529
0.9975045626
0.9980275393
0.9983812482
0.9989386281
0.9995026582
1.000277314
1.000581789
1.000151468
0.9995983961
0.9985732782
0.9975472881
0.9970144536
0.995884251
0.9966911003
0.9966282213
0.996585649
0.996578489
0.9968642551
0.997096649
0.9975854535
0.9991812114
1.001165429
1.002068408
1.002244504
1.001193706
0.9997255215
0.9984428888
0.9969590882
0.9950524839
0.9971649012
0.9970653714
0.9970781165
0.9968798373
0.9967637341
0.9967315356
0.9969119832
0.9980296647
1.000506863
1.002800482
1.003505992
1.003331655
1.002557716
1.000692913
0.9976125449
0.995840642
0.9978609975
0.9976278449
0.9977970259
0.9976740503
0.9971724494
0.9965361917
0.9963013229
0.9966870624
0.9987664789
1.00143803
1.003736137
1.004574493
1.004021929
1.002072766
1.000398847
0.9979711373
0.9985659841
0.9980926546
0.9982725349
0.9981278658
0.9974130845
0.9963169265
0.9954292163
0.9958481706
0.997542701
0.9991401683
1.001042521
1.002820748
1.003138486
1.002483471
1.001641339
1.001525188
0.9991065206
0.998268357
0.9982190727
0.9977964892
0.9968230044
0.9955324377
0.9953221376
0.9963619146
0.9971931664
0.9976985073
0.9982049433
0.9989558313
1.000798064
1.002090396
1.002728035
1.003221509
0.9983340078
0.9973331514
0.9968591129
0.9964092063
0.9962119333
0.9963347737
0.9964135788
0.9971769695
0.9971463623
0.9965151145
0.9957594404
0.9958743303
0.9976074027
1.000535401
1.00281791
1.004168726
0.9967012773
0.9959453343
0.9955988411
0.9955364643
0.9959986034
0.9970154267
0.9985224442
0.9993519365
0.9979380931
0.9961313546
0.9953610741
0.9954300482
0.9961636434
0.9985536378
1.00198492
1.004038906
0.9952821483
0.9952311059
0.9954540161
0.9956437601
0.9962392392
0.9977580378
1.000204419
1.001380272
1.000936178
0.9988312236
0.9965275623
0.9955811104
0.9963813628
0.9978037335
0.9998551762
1.00165511
0.9951276665
0.9948421603
0.9952031664
0.9957937904
0.9969632255
0.9990439175
1.000604581
1.001634763
1.002472346
1.002091677
1.000777925
0.9986382658
0.9974202085
0.998157921
0.9990803624
0.9992581032
0.9955273959
0.9950807048
0.9954942021
0.9968043413
0.9981159311
0.9989034526
0.9998835434
1.000958606
1.002563483
1.003307823
1.003224004
1.002592372
1.000705128
0.9989874515
0.9986741953
0.9973395693
0.9972468723
0.9961751447
0.99603201
0.9969559337
0.9979308527
0.9982943275
0.9983325109
0.9986630803
1.0002605
1.003024448
1.004213006
1.004080612
1.00359408
1.001672161
0.9980716631
0.9952632279
1.000602667
1.0002198
0.9994711776
0.9972290303
0.9965191052
0.9969734562
0.9967871609
0.9965762151
0.9969059308
0.9980558772
1.000127601
1.00265508
1.003884372
1.003485608
1.002480109
1.000490652
0.9969477801
1.000849172
1.000930314
1.001021347
1.000140971
0.9965189682
0.9952103707
0.9949690524
0.9952133681
0.9957417268
0.9966406369
0.9976969625
0.9995028903
1.001422757
1.002359288
1.001803412
1.000623366
0.9995687754
1.000420553
1.00067719
1.000881863
1.00065549
0.9993692927
0.9955259682
0.9942064272
0.994403385
0.9949344805
0.9955434739
0.9960263332
0.9968727025
0.9979986194
0.9991546779
0.9995485014
0.9997505478
1.000414173
0.9983258798
0.9986122982
0.9995149272
1.000168176
1.000310682
0.9990081573
0.9969354002
0.9962926196
0.9953485665
0.9946125325
0.9947928121
0.9946549342
0.9948163317
0.9958028362
0.9973419409
0.9985504259
1.000600428
0.996676455
0.9965387386
0.9969806303
0.9993444184
1.000645127
1.001474382
1.001803714
1.002114263
1.000704806
0.9976858798
0.9948078244
0.9933900046
0.9933873613
0.9942288678
0.9957822722
0.9983737011
1.002162007
0.9954960911
0.9952361425
0.9956523763
0.9978262071
1.00025819
1.002204132
1.004218301
1.005249921
1.005305609
1.003876545
1.000217566
0.9957710111
0.9932477852
0.9935488716
0.9953743954
0.9976822273
0.9995908371
)
;

boundaryField
{
    inlet
    {
        type            fixedValue;
        value           nonuniform 0();
    }
    outlet
    {
        type            zeroGradient;
    }
    bottom
    {
        type            slip;
    }
    top
    {
        type            slip;
    }
    obstacle
    {
        type            zeroGradient;
    }
    defaultFaces
    {
        type            empty;
    }
    procBoundary11to5
    {
        type            processor;
        value           nonuniform List<scalar> 
17
(
0.9969288428
0.997625098
0.9958888889
0.994715298
0.9971475739
0.6189000573
0.6326052322
0.6853111857
0.7647378577
0.8628493862
0.9178759085
0.9672186137
0.9762130496
0.9859618631
0.9925458869
0.9954973222
0.9954973222
)
;
    }
    procBoundary11to10
    {
        type            processor;
        value           nonuniform List<scalar> 
34
(
0.6186176182
0.6783315856
0.825912716
0.9667631789
0.9902372581
0.9886503873
0.9947923812
0.9964705217
0.9960504155
0.9951116154
0.9958433444
0.9972372636
0.998458464
0.9996752523
0.99974183
0.9995395706
0.9974877236
0.9967641676
0.9976910256
0.9988584122
0.9998501867
1.0002927
0.9995483564
0.9973643929
0.9962078562
0.9959055058
0.9963883986
0.9983271983
0.9983271983
1.000751706
1.000940212
1.000478862
0.9986738385
0.9973627018
)
;
    }
    procBoundary11to16
    {
        type            processor;
        value           uniform 0.996210419;
    }
    procBoundary11to17
    {
        type            processor;
        value           nonuniform List<scalar> 
17
(
0.9945238555
0.9942499422
0.9947477152
0.9968835502
1.000412863
1.003073701
1.004177444
1.005076202
1.005804691
1.006132909
1.005172804
1.002644213
0.998354426
0.9954023216
0.9956821468
0.9972267143
0.9981762916
)
;
    }
}


// ************************************************************************* //
