/*--------------------------------*- C++ -*----------------------------------*\
  =========                 |
  \\      /  F ield         | OpenFOAM: The Open Source CFD Toolbox
   \\    /   O peration     | Website:  https://openfoam.org
    \\  /    A nd           | Version:  7
     \\/     M anipulation  |
\*---------------------------------------------------------------------------*/
FoamFile
{
    version     2.0;
    format      ascii;
    class       volScalarField;
    location    "0.1";
    object      T;
}
// * * * * * * * * * * * * * * * * * * * * * * * * * * * * * * * * * * * * * //

dimensions      [0 0 0 1 0 0 0];

internalField   nonuniform List<scalar> 
22
(
0.9392646517
1.016852519
0.9404659533
1.001099126
0.9348293166
0.9856728533
0.931825349
0.9706454048
0.998255588
0.9318245356
0.9588302957
0.9942433603
0.9316208086
0.9489878772
0.9895107974
0.9306805121
0.9443989237
0.9836777432
0.9295972481
0.9415650366
0.9785768043
0.923303031
)
;

boundaryField
{
    inlet
    {
        type            fixedValue;
        value           nonuniform 0();
    }
    outlet
    {
        type            inletOutlet;
        inletValue      nonuniform 0();
        value           nonuniform 0();
    }
    bottom
    {
        type            slip;
    }
    top
    {
        type            slip;
    }
    obstacle
    {
        type            zeroGradient;
    }
    defaultFaces
    {
        type            empty;
    }
    procBoundary21to15
    {
        type            processor;
        value           nonuniform List<scalar> 2(0.9401026636 1.01197951);
    }
    procBoundary21to22
    {
        type            processor;
        value           nonuniform List<scalar> 7(1.014634451 1.01078026 1.004047505 1.004047505 1.006330274 1.004799356 1.005644163);
    }
    procBoundary21to27
    {
        type            processor;
        value           nonuniform List<scalar> 4(0.9333139102 0.970994408 0.9333139102 0.9357632002);
    }
    procBoundary21to28
    {
        type            processor;
        value           nonuniform List<scalar> 2(1.006925331 1.005795351);
    }
}


// ************************************************************************* //
