/*--------------------------------*- C++ -*----------------------------------*\
  =========                 |
  \\      /  F ield         | OpenFOAM: The Open Source CFD Toolbox
   \\    /   O peration     | Website:  https://openfoam.org
    \\  /    A nd           | Version:  7
     \\/     M anipulation  |
\*---------------------------------------------------------------------------*/
FoamFile
{
    version     2.0;
    format      ascii;
    class       volScalarField;
    location    "4.8";
    object      rho;
}
// * * * * * * * * * * * * * * * * * * * * * * * * * * * * * * * * * * * * * //

dimensions      [1 -3 0 0 0 0 0];

internalField   nonuniform List<scalar> 
22
(
1.573098701
1.621304498
1.604921006
1.554130276
1.571037552
1.535855855
1.513006083
1.492783537
1.452122182
1.458971807
1.384205635
1.379288075
1.371569818
1.311367412
1.326824418
1.316257381
1.305362855
1.32718681
1.286394831
1.317133629
1.363421617
1.314224468
)
;

boundaryField
{
    inlet
    {
        type            calculated;
        value           nonuniform 0();
    }
    outlet
    {
        type            calculated;
        value           nonuniform List<scalar> 7(1.604921004 1.535855851 1.452122179 1.379288078 1.326824408 1.327186816 1.363421532);
    }
    bottom
    {
        type            calculated;
        value           nonuniform List<scalar> 3(1.573098701 1.621304498 1.604921006);
    }
    top
    {
        type            calculated;
        value           nonuniform 0();
    }
    obstacle
    {
        type            calculated;
        value           nonuniform 0();
    }
    defaultFaces
    {
        type            empty;
    }
    procBoundary5to4
    {
        type            processor;
        value           nonuniform List<scalar> 6(1.504634428 1.520341298 1.523701078 1.512489338 1.446705832 1.342451225);
    }
    procBoundary5to10
    {
        type            processor;
        value           nonuniform List<scalar> 2(1.275880291 1.277609464);
    }
    procBoundary5to11
    {
        type            processor;
        value           nonuniform List<scalar> 4(1.352571953 1.375324329 1.352571953 1.362987847);
    }
}


// ************************************************************************* //
