/*--------------------------------*- C++ -*----------------------------------*\
  =========                 |
  \\      /  F ield         | OpenFOAM: The Open Source CFD Toolbox
   \\    /   O peration     | Website:  https://openfoam.org
    \\  /    A nd           | Version:  7
     \\/     M anipulation  |
\*---------------------------------------------------------------------------*/
FoamFile
{
    version     2.0;
    format      ascii;
    class       volScalarField;
    location    "0.4";
    object      T;
}
// * * * * * * * * * * * * * * * * * * * * * * * * * * * * * * * * * * * * * //

dimensions      [0 0 0 1 0 0 0];

internalField   nonuniform List<scalar> 
560
(
0.8588422688
0.8575202746
0.861272284
0.8742785937
0.9072218842
0.9526740718
0.9941933384
1.009426411
1.020054724
1.026012833
1.025842275
1.025024168
1.023428555
1.021320328
1.019783011
1.015934168
0.8648381869
0.8594103633
0.8601947466
0.8607072355
0.8687218441
0.8934952481
0.934757968
0.9787595042
1.016586839
1.025540531
1.02544857
1.024980651
1.024033422
1.021964363
1.019983479
1.016046754
0.8779633587
0.8708365608
0.8661321864
0.8616162038
0.8615963492
0.8646135574
0.8841843245
0.9368852427
0.9990238184
1.016018232
1.022296729
1.024486616
1.024008008
1.022511053
1.020560293
1.016621084
0.8893962215
0.8829922815
0.8748648952
0.8674821723
0.863774309
0.8646095331
0.8684956671
0.8888369921
0.9358224975
0.9832570132
1.017685458
1.02370902
1.023079282
1.021782483
1.020710687
1.017351932
0.9016741022
0.8956960815
0.8883442119
0.8817925792
0.875171076
0.8693980138
0.8696067144
0.8723279567
0.8895999999
0.93986144
1.001512288
1.0158496
1.019360616
1.02013288
1.019962207
1.017714302
0.9116780769
0.9060254094
0.9002332155
0.8935678951
0.8863553544
0.8793440998
0.8730191598
0.8734017033
0.877665864
0.8978161591
0.9436127527
0.9858183648
1.013317281
1.020445478
1.019373887
1.016753717
0.9226887471
0.9164402779
0.9114791726
0.9049286504
0.898620062
0.8930289401
0.8860413067
0.8804416989
0.8807481798
0.8847149501
0.9016296081
0.9480476444
0.9982726983
1.016428957
1.015931583
1.015182743
0.9345688769
0.9265160372
0.921025077
0.914785177
0.90813484
0.9031914007
0.8974333498
0.8911565422
0.8859587213
0.8865380233
0.8908746268
0.9108711907
0.9498233654
0.9873848627
1.008058647
1.015173037
0.9455353255
0.93733944
0.9310128439
0.9257171526
0.9186596113
0.9134960472
0.9087948555
0.9029659975
0.8967492888
0.893040591
0.8940643607
0.8988672008
0.9148771566
0.9535383208
0.994430236
1.012535589
0.9565176778
0.9478211674
0.9410198508
0.9350213115
0.9284828265
0.9222368353
0.9186703238
0.9139367085
0.9077041442
0.9018689761
0.8983848445
0.8996311414
0.9047845697
0.9221189962
0.9543218503
0.9944512969
0.9672036738
0.9591307242
0.9512989438
0.9455468557
0.938689381
0.9315508167
0.9271995827
0.923332495
0.9181188359
0.9130582928
0.9081655942
0.9051775453
0.9066978815
0.9124146006
0.9267794924
0.970245124
0.9775201919
0.9696602705
0.9611057822
0.9546469699
0.9489933215
0.9418892013
0.936503714
0.9320014101
0.9273436838
0.9220156954
0.9186469253
0.9145211396
0.912663147
0.914593589
0.9191300072
0.9447272993
0.9885533847
0.9804774164
0.9726033649
0.9642895477
0.9581524263
0.9513704709
0.9451120577
0.9413534235
0.9367152896
0.9320192396
0.9281657431
0.9240173104
0.9203575124
0.9191905866
0.9206014966
0.9322954299
0.9981698029
0.9901629853
0.9826105263
0.9752821412
0.9682161068
0.961402108
0.9537665431
0.9491413422
0.9453075887
0.9408425224
0.9374386971
0.9337767824
0.9301979416
0.9262429485
0.9262424173
0.9313640937
1.009364446
1.000522163
0.9924821588
0.9841749813
0.9770224135
0.9709076687
0.9646312301
0.9585448681
0.954318007
0.9492784664
0.9453116422
0.942961792
0.9398000464
0.9358304991
0.9316952723
0.932552423
1.019139337
1.010305687
1.002504854
0.9949355076
0.9870262786
0.9798218213
0.9728891331
0.9666481826
0.9622275725
0.9582477161
0.9538939338
0.9509198566
0.9478337973
0.9445297669
0.940903864
0.9390377105
1.028947639
1.020112509
1.011480989
1.003968839
0.9963112234
0.988994668
0.982577755
0.9762948226
0.9711286848
0.9664732881
0.9618287032
0.958171496
0.9555180902
0.95199778
0.9487099324
0.9462376509
1.03838547
1.029660169
1.021291407
1.013248446
1.005416295
0.9976897628
0.9909278859
0.9848564069
0.9791561916
0.9745855822
0.9701115321
0.9663269469
0.9637519839
0.9604975943
0.9574620703
0.9535884055
1.047499582
1.038512637
1.030130416
1.022203205
1.014562312
1.00713798
0.9998664451
0.9935668177
0.9875923651
0.9825585876
0.9779862145
0.9734660816
0.9702860077
0.9672745987
0.9653699206
0.962579017
1.056486533
1.047781103
1.039150191
1.030968658
1.022984462
1.015525225
1.008577063
1.002063932
0.9964096492
0.9907840554
0.985963281
0.9812744216
0.9776216288
0.9749187295
0.9725392543
0.9695807664
1.064795058
1.056192333
1.047688144
1.039880722
1.03221985
1.024503806
1.017166079
1.010145851
1.004143119
0.9988961347
0.9939342887
0.9894883383
0.9855891132
0.9825695668
0.9805269853
0.9776957571
1.07320825
1.065173624
1.056578471
1.048146739
1.040334263
1.032921538
1.025800915
1.019089574
1.012734306
1.006987665
1.001522419
0.9965137863
0.9928215899
0.989942584
0.9881036608
0.985769083
1.079955093
1.073392869
1.065418673
1.057140081
1.049310739
1.041676466
1.034054361
1.026964423
1.020747512
1.015305038
1.010146277
1.005439127
1.001307925
0.9980793115
0.9958658929
0.9932938418
1.082072268
1.078913939
1.073126155
1.065854201
1.058338109
1.050765109
1.043223348
1.036096483
1.02957314
1.02369503
1.018119123
1.013403062
1.009587616
1.006587136
1.004718227
1.002483029
1.081523331
1.07926468
1.076678775
1.072349424
1.066607402
1.059912212
1.052572215
1.045353037
1.038806443
1.032918608
1.027533206
1.022724715
1.018678774
1.015508539
1.013422513
1.011374426
1.081435211
1.079532655
1.077710322
1.075264641
1.071789585
1.067406064
1.061707121
1.055351702
1.049183071
1.043411064
1.037985992
1.033233155
1.029184699
1.026110699
1.024181556
1.021838938
1.076678316
1.078705134
1.077598668
1.075443764
1.072863262
1.070445327
1.067352051
1.06313033
1.058490624
1.053729944
1.048903375
1.044315961
1.040246927
1.036917194
1.034707837
1.031481463
1.063299152
1.070781447
1.073193261
1.073042176
1.072568337
1.070753764
1.067806895
1.064468069
1.061374607
1.05842756
1.055189573
1.051602101
1.04786291
1.044184312
1.040969939
1.035515036
1.038114567
1.052964761
1.064401006
1.06914309
1.069440643
1.068444155
1.066075028
1.063485648
1.061323727
1.059201196
1.056804113
1.053887028
1.050424779
1.046525103
1.042746587
1.035790455
1.012666578
1.026137686
1.04058411
1.052858434
1.059402478
1.062908052
1.064195763
1.063136917
1.061430975
1.059498834
1.05716762
1.054290332
1.050829076
1.046874486
1.043095054
1.036284962
1.001857425
1.006241081
1.014902549
1.026428847
1.038217133
1.046661429
1.052629843
1.05452172
1.054965989
1.054238047
1.052719014
1.050332368
1.047079619
1.043046295
1.038943065
1.031311831
1.00009212
1.000559689
1.002264007
1.006416225
1.013462893
1.022248317
1.030661418
1.037228499
1.041182579
1.042915623
1.042671496
1.041534648
1.039091396
1.035295998
1.030877019
1.022393346
1.000001207
1.000014332
1.000107997
1.000539469
1.001867227
1.004710962
1.009130218
1.014350839
1.019092097
1.022163188
1.023120495
1.022880943
1.021701559
1.019197344
1.015867898
1.009794623
1.000000003
1.00000008
1.000001216
1.000011623
1.000072383
1.000306837
1.000930227
1.002115628
1.003729565
1.005233661
1.005984149
1.006029833
1.00578301
1.005010013
1.003823509
1.001886354
1
1
1.000000002
1.000000048
1.000000574
1.000004367
1.000022298
1.000079009
1.000198356
1.000357693
1.000466072
1.000483892
1.000467798
1.000396654
1.00027375
1.000102901
)
;

boundaryField
{
    inlet
    {
        type            fixedValue;
        value           nonuniform 0();
    }
    outlet
    {
        type            inletOutlet;
        inletValue      uniform 1;
        value           nonuniform List<scalar> 
35
(
1.015899579
1.016013925
1.016591434
1.017327535
1.017692606
1.016733911
1.015168894
1.015165368
1.012539483
0.9945183182
0.9703651148
0.9448438211
0.9323967737
0.9314335865
0.9326194603
0.9390901705
0.9463115829
0.9536409728
0.9626428548
0.9696503195
0.9777619407
0.9858522873
0.9933811201
1.002586387
1.011500181
1.021966203
1.031570609
1.035480185
1.035690554
1.036187132
1.031134028
1.022107144
1.00955219
1.001803702
1.000095712
)
;
    }
    bottom
    {
        type            slip;
    }
    top
    {
        type            slip;
    }
    obstacle
    {
        type            zeroGradient;
    }
    defaultFaces
    {
        type            empty;
    }
    procBoundary35to29
    {
        type            processor;
        value           nonuniform List<scalar> 
16
(
0.8610576497
0.8696519207
0.897119237
0.9300707463
0.9585233989
0.9815807609
1.006483134
1.016901083
1.021919875
1.024699336
1.024951898
1.024653277
1.023167162
1.021468116
1.020138493
1.015989825
)
;
    }
    procBoundary35to34
    {
        type            processor;
        value           nonuniform List<scalar> 
35
(
0.8631742634
0.8714541804
0.8843234611
0.8965388747
0.9090181581
0.9199043111
0.9312850881
0.9425870328
0.9534041964
0.9643692981
0.9750702678
0.9864562031
0.9971964836
1.007850533
1.018378513
1.027909509
1.037941824
1.047116678
1.056272714
1.064845948
1.073165419
1.080381346
1.08462542
1.084263205
1.083087719
1.082184126
1.070961492
1.050624639
1.021127893
1.004462844
1.000365488
1.000009451
1.00000006
1
1
)
;
    }
}


// ************************************************************************* //
