/*--------------------------------*- C++ -*----------------------------------*\
  =========                 |
  \\      /  F ield         | OpenFOAM: The Open Source CFD Toolbox
   \\    /   O peration     | Website:  https://openfoam.org
    \\  /    A nd           | Version:  7
     \\/     M anipulation  |
\*---------------------------------------------------------------------------*/
FoamFile
{
    version     2.0;
    format      ascii;
    class       volScalarField;
    location    "1.9";
    object      T;
}
// * * * * * * * * * * * * * * * * * * * * * * * * * * * * * * * * * * * * * //

dimensions      [0 0 0 1 0 0 0];

internalField   nonuniform List<scalar> 
2222
(
1.48934822
1.480304364
1.471850332
1.463950522
1.667791862
1.672917268
1.676987056
1.679971906
1.681212362
1.680573258
1.678230547
1.673951974
1.667796217
1.659971371
1.650682935
1.640253263
1.629247175
1.618250587
1.607617631
1.597575616
1.58828784
1.579542842
1.570920196
1.562200117
1.553429216
1.544553891
1.535404942
1.525656142
1.515637478
1.505686154
1.496093267
1.487061367
1.478531112
1.470435497
1.462963476
1.644525763
1.650413773
1.656101272
1.660874069
1.664454977
1.666253656
1.66578441
1.663534539
1.659119432
1.652674402
1.644539005
1.635087324
1.624812661
1.61447245
1.604576536
1.595163018
1.586037731
1.576981566
1.568025051
1.559248946
1.550560084
1.541726173
1.532663916
1.523586405
1.514230244
1.504524668
1.494875897
1.485510035
1.476610505
1.468310452
1.460604642
1.628223537
1.633850191
1.638823758
1.644163266
1.648977801
1.651970787
1.652031341
1.651073352
1.648473238
1.643842204
1.637211885
1.629054957
1.620007207
1.610708121
1.60148524
1.592324328
1.583166808
1.574177955
1.565574978
1.557122467
1.548559327
1.539715424
1.530758882
1.52148451
1.511615657
1.501566411
1.491739166
1.482455796
1.473993712
1.466357813
1.459212667
1.604930491
1.611640751
1.617903646
1.623552989
1.628730085
1.632957128
1.635679949
1.636854287
1.63609337
1.633484743
1.628652001
1.621982382
1.614293566
1.60631185
1.598132668
1.589614036
1.580889012
1.572274231
1.563718944
1.555136929
1.546481931
1.537579808
1.528106346
1.518280893
1.50869779
1.499366059
1.490172635
1.481380561
1.47310941
1.465161137
1.45755369
1.582615179
1.590328689
1.59792419
1.604472302
1.60998982
1.614956562
1.6190727
1.621549945
1.621986468
1.621063153
1.618315322
1.61367782
1.607678017
1.600916232
1.593689057
1.586017344
1.577860466
1.569350864
1.560761474
1.55227172
1.543704013
1.53494489
1.526079104
1.516865338
1.507274006
1.497483675
1.487917503
1.4788963
1.470458732
1.462529287
1.455114812
1.561605746
1.569438196
1.577541965
1.584943402
1.590940653
1.596474066
1.601112448
1.604574735
1.606665485
1.607473391
1.606638539
1.604125645
1.59998126
1.59464299
1.588455339
1.581618972
1.574249455
1.566524502
1.558638145
1.550568836
1.542157031
1.533286033
1.523837685
1.513897426
1.503782273
1.494004875
1.485005128
1.476660913
1.468828383
1.461469582
1.454405308
1.541387119
1.551026313
1.560641052
1.566631386
1.571815715
1.576604647
1.582002444
1.587269626
1.591312321
1.593677847
1.59410737
1.59318161
1.590839947
1.587182095
1.582463117
1.576963598
1.570732892
1.563618659
1.55576292
1.547525919
1.538990079
1.530073251
1.520894686
1.511537401
1.502079962
1.492807187
1.48383743
1.475201735
1.467127081
1.459556909
1.452247336
1.523286195
1.530837018
1.538650305
1.54658325
1.555265906
1.562233543
1.566464651
1.570365506
1.574651743
1.578166926
1.580099869
1.580837248
1.580217599
1.578529557
1.575620156
1.571536451
1.566326038
1.560042961
1.552804365
1.544858676
1.536475556
1.527843145
1.51884963
1.509317341
1.499530143
1.489915114
1.480729822
1.472136494
1.464216417
1.456871331
1.450070405
1.505720803
1.511422637
1.519334101
1.528049701
1.53501969
1.541230196
1.546795441
1.551810145
1.556554881
1.561288555
1.565104034
1.567827207
1.569074949
1.568892572
1.567779661
1.565220012
1.56112386
1.555608831
1.548907548
1.541325045
1.533180201
1.524551639
1.515356049
1.505865627
1.496666063
1.48777381
1.479034721
1.470751713
1.463147819
1.456024673
1.449102768
1.49161254
1.495584651
1.500821841
1.508445957
1.515334812
1.521689944
1.527995899
1.533991206
1.540390782
1.545774785
1.550204512
1.553959271
1.55666892
1.558177567
1.558427975
1.557371971
1.554703205
1.550439091
1.544689494
1.537689184
1.529796774
1.521357913
1.512697391
1.503912137
1.494860873
1.485708949
1.477059026
1.468993569
1.461300497
1.453771356
1.446437337
1.477890277
1.479068781
1.483366161
1.491241268
1.499303544
1.505577386
1.510856556
1.516528402
1.52203353
1.527641483
1.533424395
1.538633415
1.542856227
1.546036118
1.547822882
1.547677271
1.546625605
1.544030419
1.53962374
1.533547862
1.526209108
1.518096441
1.509529294
1.500524576
1.491431828
1.482704926
1.474287388
1.466186726
1.458572325
1.451576333
1.445003138
1.466381001
1.467174908
1.470341793
1.474663456
1.479955902
1.485983426
1.492107681
1.498812887
1.504404847
1.510331835
1.51693342
1.523173658
1.528746179
1.533211463
1.536065071
1.537513496
1.537504668
1.536453206
1.533550196
1.528609431
1.521958808
1.514134998
1.505683247
1.497268105
1.489039067
1.480519903
1.472270489
1.464751191
1.457705665
1.450786928
1.443640922
1.455469385
1.454877856
1.455919733
1.458651179
1.463259116
1.469096418
1.476455959
1.483233473
1.48862874
1.49430815
1.500462896
1.506777011
1.513204747
1.51888016
1.523255685
1.526230341
1.527535377
1.5273572
1.525992462
1.522592355
1.517082015
1.510033715
1.502268822
1.49415889
1.485784447
1.477733254
1.470133915
1.462525708
1.455143633
1.44798121
1.441100361
1.447324687
1.445054877
1.445112893
1.446437385
1.449191497
1.452897094
1.458593681
1.464692693
1.471234882
1.477432939
1.483718764
1.490843418
1.49794851
1.504371002
1.510040955
1.514040156
1.51667389
1.517678093
1.51725079
1.515286029
1.511141253
1.505071721
1.497823278
1.490090437
1.482502233
1.474833923
1.466996013
1.459649759
1.453140506
1.446800112
1.440449773
1.43863293
1.435367356
1.434227466
1.434707325
1.436222706
1.439292974
1.4434738
1.448567625
1.455541874
1.462774591
1.469494185
1.476492841
1.482980245
1.489607015
1.495832521
1.501063875
1.504785117
1.507177434
1.507449772
1.506608378
1.503895716
1.499094775
1.492865652
1.486038133
1.478834502
1.47152437
1.464733839
1.458142117
1.451305215
1.444449661
1.437703292
1.432750636
1.428543808
1.425857237
1.424194847
1.424286557
1.425625199
1.428287784
1.432648911
1.438752979
1.445940355
1.453505122
1.460248263
1.467148688
1.474314169
1.48149968
1.487860825
1.4928172
1.496078451
1.497421204
1.497202989
1.495700295
1.492275006
1.487156271
1.480955729
1.474387134
1.468038435
1.46158114
1.45485499
1.448222093
1.441996415
1.436011646
1.425090245
1.420551334
1.417217232
1.415001396
1.41459712
1.415154449
1.416664203
1.419664077
1.424204739
1.430387298
1.438070616
1.446101565
1.453182882
1.459446492
1.466346681
1.473431294
1.479543098
1.483951501
1.486692049
1.487074977
1.486430164
1.484321352
1.480530036
1.475487868
1.469856535
1.463953103
1.458005666
1.452190691
1.446441816
1.440453927
1.434117953
1.420134507
1.415212278
1.410920431
1.407402969
1.405029535
1.40394635
1.404461875
1.406128651
1.409725779
1.415917087
1.422753689
1.429957461
1.436882683
1.444132734
1.451482105
1.458895094
1.465571612
1.470971448
1.474627869
1.47616756
1.476072932
1.475094416
1.472737193
1.469016289
1.464424666
1.459430843
1.45432113
1.449006767
1.443357334
1.437273347
1.431050142
1.412374694
1.407833424
1.403684647
1.400047179
1.397360107
1.395630193
1.394938072
1.396085206
1.398519777
1.401782527
1.407924744
1.415303433
1.422465272
1.430086295
1.436874901
1.443966111
1.45116884
1.457261472
1.461954024
1.464779123
1.465448073
1.465086933
1.463932105
1.461637985
1.458327025
1.454367789
1.449964879
1.445113123
1.43988988
1.43455527
1.4289681
1.408215186
1.403499638
1.398824553
1.39444892
1.390643166
1.38725953
1.385035517
1.384326563
1.385162537
1.388741661
1.394099444
1.399946311
1.407145902
1.414556041
1.421899275
1.429387601
1.436819265
1.443481995
1.448656068
1.45196738
1.453758602
1.45469049
1.454463403
1.453430645
1.451323121
1.448283835
1.444685654
1.440852924
1.436780371
1.432102012
1.426755817
1.399889803
1.395893195
1.391798098
1.387712592
1.383866083
1.379962601
1.376837022
1.375334836
1.376073818
1.377469704
1.380430476
1.385646016
1.392690725
1.400982175
1.409310309
1.415400451
1.42206293
1.429020152
1.435135849
1.439596395
1.442374936
1.443795806
1.444410415
1.444289627
1.443438941
1.441520982
1.438901472
1.435744918
1.432069155
1.427823533
1.422917511
1.396450079
1.392425804
1.388053471
1.383483724
1.378787742
1.373935235
1.369560493
1.366523953
1.36549658
1.366238794
1.368390045
1.37278435
1.379145006
1.386855161
1.39367217
1.401541156
1.4084075
1.414687422
1.420833497
1.426321566
1.430384949
1.432608247
1.433894464
1.434418774
1.43428303
1.433549228
1.432121266
1.42995517
1.427131713
1.423647711
1.41963961
1.386733952
1.383416083
1.379585069
1.375459471
1.370995236
1.366312088
1.361760424
1.358144737
1.356615294
1.357066636
1.358621489
1.36163667
1.366880376
1.373887927
1.380075468
1.387180565
1.394093418
1.401834615
1.408421889
1.413235941
1.417389049
1.420658042
1.423047193
1.424356033
1.424943062
1.424934177
1.424458885
1.423348151
1.421544302
1.4189242
1.41538817
1.384402297
1.381186751
1.377358824
1.373080594
1.368337628
1.363288747
1.358255781
1.353737922
1.350973787
1.3501547
1.350616674
1.352384651
1.355634327
1.359280335
1.366219465
1.373581152
1.380521941
1.387688866
1.393689809
1.399266077
1.404299897
1.408338324
1.41109401
1.413166798
1.414867799
1.41602287
1.416462983
1.416181311
1.415435355
1.413929886
1.411333583
1.374955863
1.372247363
1.368781651
1.364735727
1.360062162
1.354995411
1.349917726
1.344995151
1.34147643
1.33965108
1.339844505
1.340861491
1.343491793
1.347752012
1.353391588
1.359362728
1.367393547
1.374584735
1.380897095
1.38659724
1.391397978
1.39562409
1.399153189
1.401744558
1.404066904
1.406122421
1.407531726
1.408266753
1.408706604
1.408294146
1.406883676
1.370301451
1.367729212
1.364386863
1.36037003
1.355852661
1.350918722
1.345764759
1.340737966
1.336419246
1.333615591
1.33246819
1.33277462
1.333608382
1.336010106
1.3405508
1.346385322
1.353798
1.36056064
1.36711112
1.373492415
1.378940259
1.383975571
1.387660627
1.390799026
1.393760959
1.396253769
1.398164514
1.399587745
1.400736783
1.400814869
1.400204147
1.362365419
1.360173875
1.357182411
1.353485785
1.349392381
1.34491688
1.340146716
1.335363032
1.330789237
1.327304025
1.325198401
1.324596993
1.325476776
1.327809434
1.331556135
1.337075204
1.343296911
1.34931678
1.355920625
1.361958713
1.367013369
1.371326945
1.375245865
1.378955283
1.382438973
1.385638996
1.388340225
1.390480574
1.392385274
1.393813111
1.393616938
1.355852839
1.353973729
1.351267161
1.347715823
1.343830989
1.339639067
1.335056316
1.330346163
1.325709435
1.321643108
1.318608908
1.316962779
1.316954208
1.31750859
1.319415531
1.323842509
1.329536561
1.335999181
1.342585108
1.348626744
1.354769226
1.360214264
1.364465716
1.367525454
1.370936033
1.374548576
1.378006284
1.380777706
1.383104427
1.384434825
1.384805932
1.347987626
1.3465194
1.344329764
1.341020955
1.337336133
1.333471942
1.329259214
1.324916495
1.320481867
1.316161681
1.312556491
1.310451774
1.309055051
1.309291607
1.311096545
1.314332583
1.318922032
1.325678505
1.331716805
1.337198185
1.342404318
1.347140973
1.351100376
1.355002507
1.35891089
1.362965095
1.367192999
1.371174489
1.374169044
1.375521966
1.376215717
1.340606155
1.339474112
1.337763959
1.334919106
1.331443012
1.327972609
1.324151026
1.320100061
1.315923465
1.311634418
1.307548018
1.304660773
1.302589042
1.301958687
1.302464491
1.30438049
1.30799051
1.311782942
1.317317415
1.325044355
1.331139946
1.335737379
1.340158747
1.344696727
1.348648083
1.351388232
1.35548054
1.359685557
1.364751096
1.368365668
1.370848377
1.335940906
1.335765664
1.33485321
1.333221188
1.33039863
1.326962997
1.323621531
1.320017962
1.316153213
1.312142213
1.307955818
1.3038661
1.300717254
1.298302298
1.297089888
1.297432766
1.299096092
1.301927477
1.306120188
1.3118614
1.317630539
1.322942779
1.327263126
1.33152796
1.336230351
1.339712674
1.345418172
1.350042555
1.354268126
1.35790529
1.360961931
1.363450484
1.333837049
1.333547408
1.332766092
1.331233756
1.328473222
1.325046931
1.321661863
1.318169744
1.31449448
1.310582147
1.306495362
1.302470741
1.299142997
1.296319964
1.295220292
1.295753775
1.297169165
1.299435303
1.303666774
1.309427634
1.314962855
1.319775102
1.324004947
1.328877444
1.333143079
1.336690585
1.342460236
1.347050494
1.351279567
1.355056293
1.358217349
1.36083511
1.332107765
1.331546272
1.3305321
1.328955119
1.326372262
1.323229847
1.319980166
1.316495139
1.31291905
1.309058734
1.304985638
1.300863762
1.297229421
1.294535396
1.293784186
1.293975082
1.294838324
1.297025113
1.301250645
1.306839109
1.311967887
1.316736532
1.321396659
1.325953706
1.330519291
1.334185541
1.339613537
1.344344867
1.348741358
1.352604141
1.355984538
1.358801359
1.330384682
1.329948751
1.328692573
1.326770933
1.323979511
1.32108819
1.318190134
1.314666093
1.310885721
1.307040479
1.302904267
1.298716136
1.295354645
1.293298053
1.292152102
1.29165167
1.292472202
1.295273968
1.299386501
1.303839316
1.309002561
1.314211553
1.318880186
1.323500887
1.327571933
1.331569519
1.336959053
1.341869228
1.346280898
1.350239481
1.354204829
1.357241965
1.328042229
1.327993396
1.326969478
1.325055942
1.32197893
1.318663572
1.315778693
1.312407004
1.308585612
1.304889123
1.300935598
1.297128872
1.294173057
1.291904639
1.289909705
1.289476423
1.290872388
1.293723199
1.29735855
1.301196265
1.306638734
1.311820501
1.316099001
1.320536772
1.324940342
1.329396659
1.334333201
1.339187113
1.343823737
1.347937186
1.351479613
1.354702141
1.325458151
1.325156672
1.324612535
1.323175337
1.320423827
1.317002376
1.313656534
1.310527394
1.307222378
1.30366213
1.299880748
1.296173808
1.292982551
1.289878187
1.287726139
1.288081786
1.289594912
1.291685299
1.29475574
1.299151279
1.304413652
1.309016803
1.312970642
1.318060401
1.3220616
1.326768215
1.331749873
1.336706123
1.341562504
1.345544377
1.34906819
1.352552757
1.323857002
1.322772031
1.321660386
1.320506926
1.31853421
1.315722967
1.312504552
1.309297296
1.306131465
1.302610565
1.298865107
1.295027203
1.291214291
1.287664838
1.286436901
1.286926022
1.287930527
1.28897779
1.292034933
1.297193897
1.301800529
1.305739936
1.310278715
1.315075266
1.319495296
1.324590192
1.329165142
1.334030587
1.339402252
1.343088029
1.346782945
1.350481345
1.322488941
1.321409303
1.319804388
1.317854378
1.315820933
1.313961621
1.311289733
1.307890554
1.304535865
1.30103311
1.297232192
1.293123824
1.288972327
1.286429643
1.285337827
1.285303875
1.28551573
1.286699013
1.290056656
1.294799431
1.298668395
1.302864699
1.30784134
1.312740673
1.317003127
1.321944983
1.326696063
1.331589914
1.337111689
1.340682073
1.344568999
1.348383536
1.320473916
1.31985292
1.318536652
1.316459404
1.313519361
1.311231869
1.309276144
1.305701562
1.301905737
1.298462738
1.294645999
1.29075355
1.287689584
1.285429655
1.283757925
1.282898273
1.283208748
1.285297721
1.288468717
1.291928699
1.29582851
1.300579972
1.305437373
1.309980885
1.314428203
1.319590187
1.324133406
1.328816648
1.334332281
1.338434223
1.342493336
1.346034945
1.316208548
1.317442902
1.317314594
1.316843664
1.315202777
1.312318373
1.309041576
1.306293909
1.303064389
1.299728376
1.296444615
1.292902818
1.289552673
1.286744423
1.283972527
1.281384295
1.280737293
1.281815202
1.284112494
1.286736676
1.289403672
1.29367522
1.298392661
1.302481064
1.307618961
1.31235537
1.316882681
1.321580319
1.326361305
1.331727359
1.335792643
1.34020327
1.343612239
1.313643757
1.315278836
1.314092738
1.313988006
1.313249125
1.311033043
1.307950065
1.304572355
1.301685626
1.29877962
1.295556246
1.292101072
1.288719369
1.285385691
1.281705433
1.279370697
1.279486947
1.28075139
1.2823543
1.284458328
1.287476455
1.291619672
1.295681329
1.299639583
1.304967918
1.309691157
1.314507269
1.319098502
1.323609098
1.328893179
1.333327289
1.338068986
1.341285259
1.312395985
1.314148545
1.312344268
1.310844764
1.309909855
1.308853934
1.306770075
1.303657426
1.300714934
1.297917981
1.294728693
1.291228101
1.287486542
1.283222732
1.279818526
1.27831683
1.278534832
1.279239384
1.279833731
1.28178107
1.285571907
1.289118029
1.292448537
1.297302358
1.302554675
1.307527612
1.311758899
1.316611752
1.321125163
1.326416647
1.330991064
1.33558805
1.339002282
1.311155511
1.312940916
1.311184058
1.309333367
1.307153555
1.305374927
1.30463123
1.302483773
1.299358125
1.296413756
1.293253843
1.289575282
1.285374559
1.281469337
1.278925521
1.277446577
1.277045066
1.276959784
1.277533075
1.279768006
1.283235612
1.286012933
1.289622046
1.295371719
1.300391677
1.304689242
1.309425204
1.314029839
1.318746977
1.323827496
1.328731058
1.333132893
1.336875713
1.309189032
1.310928214
1.30960927
1.308142304
1.305972104
1.303218396
1.301301231
1.300225435
1.297006801
1.293700386
1.290609477
1.286946873
1.283471813
1.28063598
1.27810768
1.27600676
1.274777249
1.274706031
1.276116883
1.278212812
1.280321517
1.283148007
1.287556348
1.293101112
1.297651849
1.302433523
1.306792473
1.311595371
1.316624753
1.321493028
1.326407918
1.330641092
1.335209324
1.305811313
1.307356178
1.306716854
1.306306331
1.304766033
1.302304423
1.299576611
1.29721595
1.294312192
1.291436602
1.288468053
1.285413459
1.282599428
1.279780439
1.276716532
1.273792608
1.272663407
1.273293756
1.2749048
1.276545872
1.277872851
1.281110237
1.285787014
1.290254292
1.294861026
1.299633483
1.304241339
1.309100426
1.314421152
1.319062692
1.323942726
1.328355395
1.332357527
1.303016568
1.304361986
1.302738118
1.302908381
1.302682038
1.301171193
1.298907844
1.295952767
1.293140076
1.290564407
1.287635351
1.284692026
1.281726091
1.278342693
1.274524807
1.271940638
1.271408475
1.27219816
1.273266067
1.274349723
1.276124171
1.279384926
1.283390573
1.287203213
1.292242197
1.297409843
1.302099244
1.306855797
1.312360608
1.316945747
1.321474059
1.326103105
1.329773655
1.301951229
1.303157685
1.30097556
1.299540765
1.299156907
1.298996268
1.297860462
1.295072075
1.29234492
1.289841761
1.286905756
1.283761538
1.280266333
1.276120291
1.272845312
1.270954685
1.270418833
1.270744868
1.270920654
1.271696405
1.274413343
1.277238186
1.280347352
1.284741239
1.290093813
1.294857778
1.299511069
1.304362312
1.309795538
1.314313776
1.31887296
1.324266682
1.299629788
1.30094793
1.302083682
1.300134748
1.298412529
1.296776444
1.295716058
1.295433007
1.293703099
1.291102604
1.288416423
1.285480111
1.28196383
1.278011507
1.274561805
1.272008049
1.270103967
1.268958643
1.268584482
1.268517508
1.269759468
1.272212401
1.274339328
1.277448806
1.282779154
1.287730043
1.292290107
1.297371744
1.302157714
1.307526217
1.311951481
1.316569286
1.321410699
1.298177931
1.299227023
1.300307669
1.298994124
1.297648761
1.295888945
1.29405165
1.292967314
1.291612863
1.288739077
1.285743178
1.28287447
1.279487435
1.276502175
1.273771718
1.271193713
1.268687922
1.266748208
1.266284174
1.267002228
1.268330409
1.269271225
1.271071535
1.275342114
1.280652546
1.285010401
1.290242927
1.294910889
1.299653037
1.305035795
1.309314247
1.314645053
1.318671447
1.29532058
1.296272511
1.296957982
1.296835905
1.296363064
1.295033363
1.293242333
1.291813909
1.289439683
1.285930638
1.283527035
1.280873232
1.278285124
1.275718394
1.272923506
1.269762656
1.266436612
1.264606865
1.264813806
1.265734306
1.266762766
1.266663401
1.26883001
1.273496849
1.27799547
1.282139238
1.28769685
1.292733052
1.297435168
1.302632076
1.307050025
1.312105646
1.316276182
1.291899976
1.293925017
1.293122255
1.293059073
1.293792457
1.293457585
1.292159984
1.290250907
1.287642641
1.284774451
1.282722511
1.280115243
1.277574613
1.274796747
1.271416619
1.267471982
1.264522861
1.263444883
1.263605215
1.264130432
1.264577452
1.264995154
1.267288775
1.27125998
1.274910071
1.279747022
1.285451503
1.290405526
1.295046355
1.300171373
1.304633022
1.30954941
1.314194812
1.290480432
1.292929364
1.291753322
1.290532429
1.290075187
1.290410366
1.29013943
1.288422852
1.286121963
1.284023923
1.28195973
1.279332586
1.276487478
1.273156705
1.269077408
1.265765097
1.263615275
1.262560782
1.262137088
1.261818468
1.261778342
1.263537738
1.265626009
1.268418993
1.272384022
1.277832252
1.28335503
1.288286061
1.292772209
1.297474814
1.30229031
1.306986001
1.311992829
1.289527632
1.292181933
1.290983948
1.289652122
1.288433032
1.287512849
1.28715373
1.287319519
1.284719802
1.282761131
1.280444644
1.277806474
1.274469686
1.270798097
1.267561856
1.264988927
1.262912597
1.261331235
1.260067939
1.259194033
1.259748581
1.261597329
1.263230741
1.2654774
1.270476937
1.275911749
1.280893048
1.285768366
1.290540846
1.295040455
1.300165292
1.304548091
1.310195258
1.288269955
1.290912467
1.289905137
1.288945695
1.287802751
1.286612132
1.285690264
1.286182788
1.283092547
1.280430255
1.277989846
1.275363077
1.272295119
1.26950544
1.26686334
1.264307619
1.261738038
1.259420376
1.257620855
1.257567386
1.25836864
1.258861746
1.260210476
1.263359341
1.26867614
1.273581528
1.278733942
1.283587104
1.288477762
1.292708358
1.297382053
1.302322901
1.307124701
1.286115209
1.288512445
1.287854246
1.287595137
1.287019155
1.286035299
1.285064748
1.284333771
1.281187482
1.278451885
1.276557087
1.273964354
1.271398204
1.26885865
1.266152693
1.263070776
1.259747574
1.257111243
1.256070712
1.256327649
1.256819654
1.256142664
1.257920371
1.261766664
1.266416919
1.270928971
1.276141583
1.281285074
1.285922049
1.29099833
1.294814438
1.300643589
1.304542626
1.280124274
1.282478062
1.28483528
1.28413509
1.284900662
1.285363853
1.284808814
1.284183045
1.28189853
1.279823943
1.277772186
1.275986787
1.273354446
1.270814334
1.268075812
1.264819511
1.260947669
1.257595627
1.255737773
1.25493761
1.254874864
1.254542874
1.254462677
1.256385364
1.260068993
1.263652212
1.268325988
1.273874958
1.279135389
1.283735022
1.28815642
1.292543789
1.298057202
1.301617844
1.278186587
1.280040162
1.282958826
1.281533853
1.281451473
1.282214432
1.282449352
1.282385539
1.280509118
1.278866913
1.277331929
1.275318099
1.272611097
1.269821386
1.266580274
1.262587841
1.259001367
1.256520792
1.254765172
1.253640638
1.252784531
1.251791497
1.253075811
1.254885699
1.257844991
1.260939302
1.266073078
1.271824584
1.276329775
1.282286064
1.28522316
1.291842197
1.291889168
1.306316777
1.277535755
1.279203152
1.282246763
1.280716595
1.280088147
1.279671404
1.279893507
1.280445607
1.279549957
1.27771463
1.276289049
1.27395791
1.271113039
1.267897215
1.264233005
1.26086389
1.258142376
1.25575104
1.253623549
1.251752584
1.250023062
1.250027915
1.251389773
1.252905719
1.255017405
1.25889446
1.264245339
1.269531082
1.274065652
1.279713849
1.283105876
1.288904503
1.292555474
1.373574325
1.277146375
1.278503981
1.281593696
1.280182131
1.279489937
1.27879103
1.278809182
1.279712906
1.278399438
1.276022419
1.274204872
1.271469552
1.268607951
1.265568597
1.262788918
1.260135622
1.257521348
1.254723502
1.251906035
1.24913426
1.248162869
1.248689287
1.249122423
1.250273826
1.25250028
1.257219178
1.26237607
1.266943798
1.272299244
1.276498854
1.282414753
1.283081231
1.294350653
1.480981488
1.275952116
1.277306222
1.280281793
1.279042246
1.278640011
1.278121478
1.277968901
1.278945965
1.276750595
1.273777255
1.272326651
1.269524561
1.267041715
1.264588626
1.262176175
1.259563202
1.256529686
1.253047682
1.24944036
1.247296561
1.246966837
1.247082094
1.24650617
1.247671653
1.250772027
1.25539374
1.260238955
1.264603543
1.270000005
1.27399202
1.279531866
1.283063793
1.353903176
1.544253169
1.273518488
1.275075125
1.277662065
1.276628961
1.276778271
1.27687672
1.27677043
1.277457227
1.274636799
1.272260352
1.271651868
1.268834326
1.266441337
1.264106844
1.261584905
1.258521472
1.254773768
1.250688293
1.247698292
1.246230783
1.245707571
1.244913552
1.244670026
1.24592812
1.249257506
1.253104942
1.257447442
1.262734305
1.266847009
1.272827512
1.275737038
1.283481823
1.473148179
1.593685786
1.269885566
1.271779961
1.273976072
1.272957606
1.273460158
1.27442004
1.274709053
1.27528798
1.273013556
1.271409959
1.271077959
1.268291692
1.265861479
1.263363851
1.260403121
1.256625639
1.252514722
1.249204347
1.246751891
1.245146147
1.243922931
1.242696562
1.243360734
1.244623814
1.247392242
1.250409197
1.254930861
1.260851467
1.264230365
1.270216708
1.273544823
1.337931491
1.535075284
1.606912018
1.268281498
1.270269097
1.272445738
1.2714161
1.27143918
1.271883236
1.272392461
1.274035452
1.271879947
1.27047048
1.269755408
1.267131598
1.264649806
1.261841969
1.25830918
1.254529946
1.251321968
1.248364852
1.245826207
1.243590566
1.241369554
1.241146838
1.242149142
1.243255841
1.245049144
1.248337239
1.253126109
1.257752153
1.263369978
1.265787896
1.274220221
1.466629178
1.580304165
1.267096552
1.267734911
1.269675205
1.271841428
1.270870773
1.270790206
1.271003187
1.271408454
1.273248656
1.270475503
1.268859049
1.267438081
1.264960147
1.262489038
1.259587811
1.256537673
1.253583552
1.25058373
1.247488193
1.244461417
1.241226959
1.239153649
1.239740209
1.240632779
1.241399011
1.242507751
1.24636837
1.2515766
1.255240129
1.261204885
1.264384616
1.339792969
1.556043319
1.599985768
1.266593698
1.267453151
1.269056062
1.271106837
1.270065515
1.270082008
1.270205215
1.270620556
1.272094111
1.268417366
1.266358195
1.265847974
1.263019873
1.260821868
1.258424395
1.255811466
1.252953488
1.249714908
1.246142085
1.242275466
1.238866877
1.237889237
1.23812526
1.238628683
1.238910536
1.240476592
1.244304414
1.249393087
1.254052485
1.257051434
1.268487814
1.477133278
1.567004231
1.600036837
1.265209857
1.266545979
1.267846519
1.269656025
1.268430767
1.268662908
1.268791321
1.269399686
1.269995695
1.266349408
1.264797729
1.265276924
1.262338651
1.260220715
1.25791228
1.255265286
1.252097806
1.248301204
1.24391823
1.239878094
1.237664328
1.236739753
1.236045395
1.235848256
1.236347457
1.238956709
1.242640686
1.246991194
1.252037711
1.256102856
1.348947218
1.538882417
1.569533972
1.595954246
1.262343503
1.264670341
1.265700403
1.267161278
1.265933189
1.266154808
1.266457988
1.267266798
1.267612565
1.265289738
1.264127033
1.264832096
1.26195392
1.259824082
1.257350293
1.254339854
1.250600341
1.245995147
1.241643353
1.238687109
1.23672964
1.235262771
1.233473964
1.233335618
1.234740202
1.237661397
1.240891403
1.244880317
1.249615585
1.265000807
1.479379556
1.555844747
1.577198974
1.585873827
1.259726483
1.261704741
1.263558482
1.264808979
1.264550658
1.264352491
1.264899577
1.265236467
1.266507929
1.264431415
1.263412288
1.263738977
1.261123959
1.258964436
1.256167515
1.252611102
1.248243906
1.2440097
1.240613876
1.237844419
1.235543963
1.233187957
1.23152078
1.231843905
1.233475965
1.235886203
1.238599198
1.24251931
1.247045666
1.374479728
1.56053783
1.570562463
1.58658288
1.579913728
1.259045285
1.260368633
1.262865391
1.263672563
1.263733247
1.263547638
1.264140768
1.264368398
1.26568497
1.263229684
1.262122078
1.261731254
1.25944131
1.257242771
1.253977903
1.25018433
1.246550492
1.243124153
1.239894237
1.236824293
1.233717861
1.230880143
1.230307342
1.23069618
1.232127487
1.233484742
1.23658706
1.240671701
1.271566989
1.483812689
1.567133591
1.580404298
)
;

boundaryField
{
    inlet
    {
        type            fixedValue;
        value           nonuniform 0();
    }
    outlet
    {
        type            inletOutlet;
        inletValue      nonuniform 0();
        value           nonuniform 0();
    }
    bottom
    {
        type            slip;
    }
    top
    {
        type            slip;
    }
    obstacle
    {
        type            zeroGradient;
    }
    defaultFaces
    {
        type            empty;
    }
    procBoundary10to4
    {
        type            processor;
        value           nonuniform List<scalar> 
32
(
1.49177213
1.482802144
1.474537414
1.466615217
1.688510687
1.692391472
1.695051176
1.696493298
1.695955854
1.693607363
1.689090901
1.682797404
1.67504336
1.665949747
1.65569493
1.644628336
1.633093791
1.621498206
1.610382031
1.600042995
1.590375155
1.581142954
1.572234211
1.56348015
1.554696306
1.545895413
1.537150246
1.528169461
1.518732164
1.508917618
1.498995233
1.498995233
)
;
    }
    procBoundary10to5
    {
        type            processor;
        value           uniform 1.456927085;
    }
    procBoundary10to9
    {
        type            processor;
        value           nonuniform List<scalar> 
55
(
1.662147084
1.638979632
1.621618873
1.597614881
1.575216405
1.554320486
1.535088865
1.518050245
1.5031988
1.489731943
1.477743987
1.467912426
1.458765499
1.451645982
1.443841582
1.437999908
1.430453193
1.425318294
1.41724959
1.41279956
1.403803771
1.400116279
1.389604532
1.387080476
1.377023023
1.372272563
1.363814556
1.35703631
1.348975059
1.340998991
1.340998991
1.335281072
1.333054444
1.331168696
1.329587182
1.32742121
1.324463471
1.322413881
1.321028021
1.319158784
1.319158784
1.314609707
1.312164103
1.311167744
1.310212734
1.308263541
1.304625715
1.301549214
1.300432545
1.300432545
1.298792039
1.296420705
1.292535063
1.290211837
1.289353639
)
;
    }
    procBoundary10to11
    {
        type            processor;
        value           nonuniform List<scalar> 
70
(
1.455796401
1.453235252
1.452262167
1.450247366
1.448120885
1.447294459
1.444963601
1.443484043
1.442092677
1.439258675
1.438361635
1.436417201
1.434688745
1.433609366
1.43080307
1.429900191
1.427396924
1.425016838
1.422866268
1.420772297
1.417450205
1.414770105
1.41103009
1.407609809
1.404036044
1.398130585
1.392211971
1.38462449
1.376904631
1.37220709
1.365199393
1.362883065
1.360974227
1.359286609
1.356850959
1.354440057
1.352191423
1.349997648
1.348042506
1.346098565
1.34404242
1.341496243
1.338862382
1.336499001
1.334455828
1.332642218
1.327422004
1.327422004
1.325250154
1.323404564
1.322015323
1.318392925
1.315298311
1.313194228
1.310374205
1.321974202
1.399375036
1.493971391
1.561123875
1.607452664
1.613464893
1.611185662
1.602589799
1.606273313
1.606273313
1.600339952
1.590714064
1.587177387
1.585762767
1.588029178
)
;
    }
    procBoundary10to15
    {