/*--------------------------------*- C++ -*----------------------------------*\
  =========                 |
  \\      /  F ield         | OpenFOAM: The Open Source CFD Toolbox
   \\    /   O peration     | Website:  https://openfoam.org
    \\  /    A nd           | Version:  7
     \\/     M anipulation  |
\*---------------------------------------------------------------------------*/
FoamFile
{
    version     2.0;
    format      ascii;
    class       volScalarField;
    location    "3.7";
    object      T;
}
// * * * * * * * * * * * * * * * * * * * * * * * * * * * * * * * * * * * * * //

dimensions      [0 0 0 1 0 0 0];

internalField   nonuniform List<scalar> 
555
(
1
1
1
1
1
1
1
1
1
1
1
1
1
1
1
1
1
1
1
1
1
1
1
1
1
1
1
1
1
1
1
1
1
1
1
1
1
1
1
1
1
1
1
1
1
1
1
1
1
1
1
1
1
1
1
1
1
1
1
1
1
1
1
1
1
1
1
1
1
1
1
1
1
1
1
1
1
1
1
1
1
1
1
1
1
1
1
1
1
1
1
1
1
1
1
1
1
1
1
1
1
1
1
1
1
1
1
1
1
1
1
1
1
1
1
1
1
1
1
1
1
1
1
1
1
1
1
1
1
1
1
1
1
1
1
1
1
1
1
1
1
1
1
1
1
1
1
1
1
1
1
1
1
1
1
1
1
1
1
1
1
1
1
1
1
1
1
1
1
1
1
1
1
1
1
1
1
1
1
1
1
1
1
1
1
1
1
1
1
1
1
1
1
1
1
1
1
1
1
1
1
1
1
1
1
1
1
1
1
1
1
1
1
1
1
1
1
1
1
1
1
1
1
1
1
1
1
1
1
1
1
1
1
1
1
1
1
1
1
1
1
1
1
1
1
1
1
1
1
1
1
1
1.000000001
1
1
1
1
1
1
1
1
1
1
1
1
1
1
1
1
1.000000001
1.000000022
1
1
1
1
1
1
1
1
1
1
1
1
1
1
1
1.000000001
1.000000022
1.000000538
1
1
1
1
1
1
1
1
1
1
1
1
1
1
1
1.000000022
1.000000605
1.000009481
1
1
1
1
1
1
1
1
1
1
1
1
1
1.000000001
1.00000002
1.000000539
1.000011655
1.000120062
1
1
1
1
1
1
1
1
1
1
1
1
1
1.000000022
1.000000559
1.000009362
1.000152513
1.001047721
1
1
1
1
1
1
1
1
1
1
1
1.000000001
1.000000018
1.000000525
1.000010753
1.000116779
1.001315059
1.006124931
1
1
1
1
1
1
1
1
1
1
1
1.000000019
1.000000496
1.000009043
1.000141996
1.001013516
1.007326546
1.023159834
1
1
1
1
1
1
1
1
1
1
1.000000015
1.000000469
1.000009503
1.000111493
1.001246198
1.005963114
1.025448542
1.056476651
1
1
1
1
1
1
1
1
1
1.000000015
1.00000041
1.000008313
1.000128066
1.000973012
1.007093801
1.022825133
1.055228275
1.090632839
1
1
1
1
1
1
1
1
1.000000011
1.000000401
1.000008304
1.000106095
1.001172605
1.005835166
1.02518877
1.056295045
1.082357741
1.104534498
1
1
1
1
1
1
1
1.000000012
1.000000338
1.000007594
1.00011673
1.000953558
1.006918973
1.022727881
1.055603569
1.09139296
1.102237621
1.106551713
1
1
1
1
1
1
1.000000008
1.000000334
1.000007173
1.000099519
1.001102627
1.005773085
1.025125079
1.056504812
1.083269394
1.105785665
1.111146498
1.11049062
1
1
1
1
1
1.000000008
1.000000247
1.000006504
1.000101911
1.000905683
1.006617461
1.022489412
1.056036016
1.092193739
1.102708779
1.107709737
1.111890862
1.111709732
1
1
1
1
1.000000004
1.000000221
1.000005466
1.000086363
1.000988018
1.005508146
1.024521284
1.056008966
1.083923913
1.106760554
1.112169451
1.111662597
1.111836999
1.110253852
1
1
1
1.000000003
1.000000128
1.00000458
1.000080948
1.000808912
1.006123748
1.021830382
1.055710994
1.091909795
1.10283284
1.108599222
1.113140785
1.113084913
1.111141746
1.106244645
1
1
1.000000001
1.000000108
1.000003313
1.000066538
1.000831809
1.005070321
1.023593467
1.055299261
1.084336855
1.107433469
1.112989276
1.112511426
1.113000718
1.111750133
1.107263564
1.099287379
1
1.000000001
1.00000004
1.000002585
1.000056911
1.000686392
1.005462218
1.020750098
1.055409155
1.092148949
1.103189766
1.109385394
1.113956618
1.113939285
)
;

boundaryField
{
    inlet
    {
        type            fixedValue;
        value           nonuniform 0();
    }
    outlet
    {
        type            inletOutlet;
        inletValue      nonuniform 0();
        value           nonuniform 0();
    }
    bottom
    {
        type            slip;
    }
    top
    {
        type            slip;
    }
    obstacle
    {
        type            zeroGradient;
    }
    defaultFaces
    {
        type            empty;
    }
    procBoundary3to2
    {
        type            processor;
        value           nonuniform List<scalar> 
18
(
1
1
1
1
1
1
1
1
1
1
1
1
1
1
1
1
1
1
)
;
    }
    procBoundary3to4
    {
        type            processor;
        value           nonuniform List<scalar> 
30
(
1
1
1
1
1
1
1
1
1
1
1
1
1.000000001
1.000000023
1.00000065
1.000012393
1.00015922
1.001355106
1.007499488
1.02577333
1.055312831
1.08192979
1.102359166
1.110280632
1.110535225
1.110525086
1.109579431
1.105435117
1.098271455
1.088695267
)
;
    }
    procBoundary3to8
    {
        type            processor;
        value           nonuniform List<scalar> 
14
(
1
1
1
1
1
1
1
1
1
1
1
1
1
1
)
;
    }
    procBoundary3to9
    {
        type            processor;
        value           nonuniform List<scalar> 
19
(
1.112284349
1.107748901
1.099970711
1.089417649
1
1.000000021
1.000001283
1.000041982
1.000656941
1.004597568
1.022251092
1.054069483
1.084854873
1.108689902
1.114138122
1.113609784
1.113920556
1.112284349
1.112593559
)
;
    }
}


// ************************************************************************* //
