/*--------------------------------*- C++ -*----------------------------------*\
  =========                 |
  \\      /  F ield         | OpenFOAM: The Open Source CFD Toolbox
   \\    /   O peration     | Website:  https://openfoam.org
    \\  /    A nd           | Version:  7
     \\/     M anipulation  |
\*---------------------------------------------------------------------------*/
FoamFile
{
    version     2.0;
    format      ascii;
    class       volVectorField;
    location    "5";
    object      U;
}
// * * * * * * * * * * * * * * * * * * * * * * * * * * * * * * * * * * * * * //

dimensions      [0 1 -1 0 0 0 0];

internalField   nonuniform List<vector> 
2222
(
(2.924341482 0.01795392692 0)
(2.938655385 0.01739928368 0)
(2.949401996 -0.008437054537 0)
(2.957536879 -0.02469566436 0)
(2.966801566 -0.0283029927 0)
(2.971356259 -0.009928124726 0)
(2.972423021 0.01489965975 0)
(2.974140815 0.02127480366 0)
(2.968982201 0.01965766347 0)
(2.964595648 0.02198833773 0)
(2.953986942 0.01332708667 0)
(2.951306828 -0.006850463277 0)
(2.955501107 -0.005896836576 0)
(2.959328876 -0.005597364578 0)
(2.960356135 -0.008134304434 0)
(2.960316017 -0.007562157553 0)
(2.960519953 -0.003972812423 0)
(2.95599736 0.0008931583166 0)
(2.970857422 -0.4050828507 0)
(3.243839363 -0.3519025269 0)
(3.03334941 -0.1073562351 0)
(2.96152097 -0.01204193527 0)
(2.947633774 0.03460476891 0)
(2.95780142 0.02507325447 0)
(2.967845798 0.03415087253 0)
(2.96931539 0.01570039696 0)
(2.977554358 -0.02710334346 0)
(2.980562462 -0.04492681075 0)
(2.987190395 -0.03589982906 0)
(2.985953773 -0.003358990679 0)
(2.981219854 0.0122474183 0)
(2.9750593 0.01140044899 0)
(2.969677929 0.0144268293 0)
(2.961200463 0.01030059178 0)
(2.954675135 -0.006804677182 0)
(2.957691206 -0.004294524708 0)
(2.959473697 -0.004059248675 0)
(2.958281955 -0.01196168745 0)
(2.957123635 -0.0093406403 0)
(2.956825108 -0.007975458796 0)
(2.955087726 -0.004816484287 0)
(3.407653458 -0.94426032 0)
(3.390898647 -0.6966871456 0)
(3.234693561 -0.2439491097 0)
(3.03721355 -0.04151838427 0)
(2.995910401 0.04234057315 0)
(2.986638927 0.03248830214 0)
(2.992919694 0.03979813689 0)
(2.980052165 0.03775232436 0)
(2.982671111 -0.007802126158 0)
(2.99042907 -0.02793246841 0)
(2.995719499 -0.03634685907 0)
(2.998576693 -0.02391125816 0)
(2.990788761 -0.005968126305 0)
(2.983558278 -0.008363180276 0)
(2.97672107 -0.005050743736 0)
(2.963912691 0.002013835139 0)
(2.954794429 -0.004235427149 0)
(2.954063448 -0.002134427746 0)
(2.953659249 -0.002736160934 0)
(2.950484035 -0.008446599062 0)
(2.950803757 -0.006855437838 0)
(2.949586972 -0.007348604654 0)
(2.947785014 -0.007892088229 0)
(3.170578509 -1.266296075 0)
(3.206012715 -1.15603844 0)
(3.254550947 -0.4171071854 0)
(3.103652341 -0.1234166213 0)
(3.02693765 -0.001103505923 0)
(2.989881427 0.01878884599 0)
(2.99795686 0.03448677439 0)
(2.986676574 0.04689148559 0)
(2.975745915 0.0201052059 0)
(2.986302517 0.001205590125 0)
(2.991941719 -0.01032026971 0)
(2.990446882 -0.01878417043 0)
(2.988363037 -0.01491167086 0)
(2.980762904 -0.02178031639 0)
(2.975067864 -0.019700296 0)
(2.963463976 -0.008365310775 0)
(2.951943535 -0.007326979659 0)
(2.948111339 -0.003059406845 0)
(2.947147025 -0.0002305400478 0)
(2.940387772 -0.004287312825 0)
(2.936021143 0.0009938204346 0)
(2.9349716 0.0005035272764 0)
(2.934416137 -0.006014736825 0)
(3.171322632 -1.267920225 0)
(3.192616368 -1.289496042 0)
(3.235377261 -1.122050283 0)
(3.145379448 -0.212972423 0)
(3.040366933 -0.07803131408 0)
(2.979209825 0.003810278504 0)
(2.984503258 0.01896533044 0)
(2.983186018 0.03368637458 0)
(2.961329301 0.03578869334 0)
(2.966515098 0.0308972313 0)
(2.970332882 0.02080943235 0)
(2.969542867 -0.007516253437 0)
(2.965443508 -0.01401669971 0)
(2.958444627 -0.02456845929 0)
(2.953259768 -0.02496810474 0)
(2.953672041 -0.01982284593 0)
(2.94162648 -0.008148752161 0)
(2.938030818 -0.004418582329 0)
(2.936396019 0.0005678240064 0)
(2.928582106 0.00122248405 0)
(2.919924163 0.007655066708 0)
(2.917485904 0.00808871747 0)
(2.915018779 0.001518274441 0)
(3.172108754 -1.274386806 0)
(3.198566579 -1.278682376 0)
(3.246916389 -1.274037435 0)
(3.212478673 -0.8296164819 0)
(3.051265232 -0.1835475024 0)
(2.97447322 -0.01750889267 0)
(2.956286318 0.00134403602 0)
(2.951498642 0.007614196042 0)
(2.940710119 0.04179751218 0)
(2.937562532 0.04442853849 0)
(2.934950874 0.03846315835 0)
(2.939063081 0.009654257655 0)
(2.936369392 -0.005598555424 0)
(2.929803164 -0.01282693687 0)
(2.925879014 -0.01241562296 0)
(2.927204002 -0.020892834 0)
(2.920507339 -0.01345971907 0)
(2.91662754 -0.01078771546 0)
(2.914183874 -0.002841593573 0)
(2.907608319 0.003041658993 0)
(2.899698429 0.008101632227 0)
(2.896312193 0.01074658418 0)
(2.890971949 0.007150848154 0)
(2.884158594 -0.006369108098 0)
(3.176659996 -1.275469352 0)
(3.204306148 -1.278797217 0)
(3.259910674 -1.278489343 0)
(3.24770294 -1.283733906 0)
(3.096399948 -0.4082676439 0)
(2.960077544 -0.04123790345 0)
(2.911742386 -0.002248544155 0)
(2.889114925 -0.00383524381 0)
(2.898933377 0.0293991595 0)
(2.89905627 0.04018525345 0)
(2.899242959 0.03906069778 0)
(2.891402549 0.02586262306 0)
(2.893954006 0.008018081039 0)
(2.890047136 0.001745405281 0)
(2.89078509 0.003011332569 0)
(2.885779956 -0.01606887419 0)
(2.88694913 -0.01735570912 0)
(2.881473412 -0.01081372581 0)
(2.880039681 -0.004431258766 0)
(2.87548999 -9.445949324e-05 0)
(2.868122998 0.005230000345 0)
(2.864552442 0.009642639237 0)
(2.860593506 0.009630269178 0)
(2.851375869 0.000164997243 0)
(3.181051997 -1.275937682 0)
(3.208611973 -1.276472448 0)
(3.260827996 -1.289717965 0)
(3.255844384 -1.30024775 0)
(3.175356537 -1.15493498 0)
(2.923619208 -0.1603236384 0)
(2.870116596 -0.03563116036 0)
(2.841812914 0.005535377788 0)
(2.842344909 0.01078347159 0)
(2.847801903 0.02230151392 0)
(2.854572865 0.02453013426 0)
(2.84968256 0.02727670373 0)
(2.84531229 0.01523547775 0)
(2.847953026 0.009227276866 0)
(2.851838829 0.0131527682 0)
(2.844365885 -0.005335068987 0)
(2.83897369 -0.01763272897 0)
(2.835608612 -0.01010648564 0)
(2.834646949 -0.006615255867 0)
(2.835411165 -0.004796556943 0)
(2.831467847 9.059840384e-05 0)
(2.828955493 0.004572879292 0)
(2.824039984 0.007329944206 0)
(2.816754025 0.005090711804 0)
(3.184733189 -1.276474078 0)
(3.212466628 -1.27595958 0)
(3.259830399 -1.296499551 0)
(3.25662712 -1.29239172 0)
(3.188365513 -1.266440926 0)
(3.107402685 -0.8795250962 0)
(2.828675281 -0.07286522981 0)
(2.800766978 0.01138451912 0)
(2.787591385 0.008850932339 0)
(2.793079872 0.01375707798 0)
(2.804998117 0.009253353888 0)
(2.811656482 0.0173185551 0)
(2.80645833 0.01197766405 0)
(2.807716907 0.003402121718 0)
(2.811305847 0.01275865865 0)
(2.805848035 0.005299180852 0)
(2.796978796 -0.01496886051 0)
(2.799899624 -0.00388378472 0)
(2.797829936 -0.004235609852 0)
(2.792333885 -0.01050750933 0)
(2.78964187 -0.008583777649 0)
(2.788880873 -0.003938723498 0)
(2.78646514 0.00130869216 0)
(2.780418508 0.003863018131 0)
(3.18550611 -1.276804998 0)
(3.217009074 -1.280123609 0)
(3.259177787 -1.295348269 0)
(3.250159412 -1.297598315 0)
(3.182253059 -1.268692091 0)
(3.090158617 -1.198688452 0)
(2.892009475 -0.3666706589 0)
(2.733595127 0.03409642994 0)
(2.754982547 0.007777425973 0)
(2.752577648 0.01126684172 0)
(2.754568046 0.002124944948 0)
(2.765747089 0.003544904564 0)
(2.763482544 0.001430313764 0)
(2.759300657 -0.01063556834 0)
(2.762041096 -0.001422383379 0)
(2.762115601 0.008248641052 0)
(2.759117034 -0.00879090009 0)
(2.763296993 0.00057038679 0)
(2.760572734 0.0002459015061 0)
(2.752203462 -0.01134253277 0)
(2.749178405 -0.01203970935 0)
(2.74825561 -0.009868419163 0)
(2.747536521 -0.006438300442 0)
(2.744696923 -0.0004609803337 0)
(3.185873823 -1.278147638 0)
(3.218245457 -1.286626576 0)
(3.256984475 -1.294754707 0)
(3.245141061 -1.296338707 0)
(3.173233826 -1.26156736 0)
(3.098802133 -1.231039121 0)
(3.018699093 -0.9773361565 0)
(2.696264238 -0.06079281964 0)
(2.731864931 0.008394837676 0)
(2.72898229 0.01210764618 0)
(2.72454426 0.003215620269 0)
(2.722238569 -0.007625932277 0)
(2.71487461 -0.01246179901 0)
(2.708220391 -0.02104537453 0)
(2.712553143 -0.01221710174 0)
(2.716691779 0.005045564403 0)
(2.715461845 0.0009255963176 0)
(2.717373401 0.001684819301 0)
(2.715065059 0.001796897161 0)
(2.712984758 -0.01018133616 0)
(2.712115618 -0.009612002657 0)
(2.713184968 -0.007286743234 0)
(2.712634961 -0.009127023129 0)
(2.711772382 -0.00622247892 0)
(3.184251943 -1.280615567 0)
(3.215099217 -1.290125084 0)
(3.25456106 -1.292684682 0)
(3.239409177 -1.295616797 0)
(3.165866006 -1.261308497 0)
(3.09371866 -1.225611192 0)
(3.035367887 -1.185832958 0)
(3.020885478 -0.5448973529 0)
(2.722474493 0.0555644749 0)
(2.706897312 0.03916113025 0)
(2.704515491 0.01528749258 0)
(2.688773289 -0.008924270217 0)
(2.675989922 -0.01904667572 0)
(2.670341609 -0.02457115367 0)
(2.67863533 -0.01791520888 0)
(2.680430038 -0.002449237677 0)
(2.677842597 0.001932097312 0)
(2.680346209 -0.002919645459 0)
(2.683662454 0.0002415267495 0)
(2.680604338 -0.004712101107 0)
(2.681958089 0.002141732169 0)
(2.684806881 0.003385543317 0)
(2.686712702 -0.00422582579 0)
(2.68574533 -0.009887737935 0)
(2.688886187 -0.002845900322 0)
(3.179393467 -1.28377443 0)
(3.210896239 -1.291523315 0)
(3.252106834 -1.290959334 0)
(3.235321805 -1.295188585 0)
(3.1645024 -1.259175647 0)
(3.091553663 -1.222980536 0)
(3.031345378 -1.201575285 0)
(2.993859557 -1.018722558 0)
(2.760360341 -0.1638797745 0)
(2.690828637 0.06985253837 0)
(2.684229807 0.05223440261 0)
(2.672134536 -0.002792634828 0)
(2.658323224 -0.01272535331 0)
(2.65171255 -0.02153131046 0)
(2.657129961 -0.02043160468 0)
(2.659971484 -0.0141837178 0)
(2.653574288 -0.002153255117 0)
(2.657420006 -0.0136490216 0)
(2.664918764 -0.007228627022 0)
(2.663452738 -0.003104864227 0)
(2.664617024 0.005929891573 0)
(2.666241058 0.008492732145 0)
(2.66807138 0.002298192173 0)
(2.669629068 -0.009902264627 0)
(2.671071799 -0.009112821405 0)
(3.173751937 -1.285711082 0)
(3.206070764 -1.292184709 0)
(3.249412871 -1.289980474 0)
(3.233759394 -1.294443269 0)
(3.164959055 -1.256578313 0)
(3.088441086 -1.221704267 0)
(3.026416764 -1.19638708 0)
(2.978365666 -1.174363228 0)
(3.024272379 -0.7961478057 0)
(2.693866617 -0.05163794984 0)
(2.674506881 0.06952154801 0)
(2.661670332 0.01114208884 0)
(2.652514232 0.003663248612 0)
(2.644486447 0.0006084529879 0)
(2.641095682 -4.228640673e-05 0)
(2.646113977 -0.02320705213 0)
(2.644667699 -0.01317791088 0)
(2.645168655 -0.02390654836 0)
(2.651886563 -0.01863431204 0)
(2.654269961 -0.003454027415 0)
(2.656911334 0.007282411062 0)
(2.659992059 0.01443291924 0)
(2.659725986 0.009594070443 0)
(2.660976159 -0.007026598828 0)
(2.663458817 -0.009071953541 0)
(3.166757591 -1.285700889 0)
(3.200176853 -1.292836412 0)
(3.246463358 -1.291493989 0)
(3.233251123 -1.293962198 0)
(3.164789361 -1.255287823 0)
(3.086703624 -1.219804138 0)
(3.020547119 -1.194277342 0)
(2.970293101 -1.17581286 0)
(2.944589373 -1.135203692 0)
(2.898616338 -0.3945915763 0)
(2.680039274 0.01430559288 0)
(2.660688628 0.0377731666 0)
(2.652677641 0.02969371344 0)
(2.649916406 0.01802898611 0)
(2.641294305 0.008665803596 0)
(2.639648794 -0.026771512 0)
(2.642469959 -0.02977405762 0)
(2.642108792 -0.02774443494 0)
(2.648573093 -0.01863818423 0)
(2.651517397 -0.01237031908 0)
(2.653903391 -0.00368557405 0)
(2.656677092 0.008555996938 0)
(2.660304137 0.01188870968 0)
(2.657940906 -0.0005841944128 0)
(2.663399821 -0.008531664447 0)
(3.158354758 -1.284804011 0)
(3.194261032 -1.294515532 0)
(3.243677684 -1.293590825 0)
(3.232458398 -1.29302957 0)
(3.164640103 -1.254754584 0)
(3.084550591 -1.219658957 0)
(3.017189094 -1.195070884 0)
(2.964072936 -1.173099107 0)
(2.94673622 -1.169411321 0)
(2.956517466 -0.7949460511 0)
(2.776213421 -0.1661352485 0)
(2.691366157 0.06196606703 0)
(2.672467476 0.05032850391 0)
(2.666522318 0.02483399957 0)
(2.652959817 0.01422244632 0)
(2.642426125 -0.01458855784 0)
(2.647532153 -0.03546574169 0)
(2.646190964 -0.02155201654 0)
(2.65128692 -0.01897594807 0)
(2.658082919 -0.01766729488 0)
(2.660586382 -0.01316084849 0)
(2.663297491 -0.007194963277 0)
(2.664554615 0.002707493013 0)
(2.666127198 0.0005999079279 0)
(2.669147723 -0.001621515884 0)
(3.154474488 -1.283324968 0)
(3.188763903 -1.296950764 0)
(3.240628178 -1.295422542 0)
(3.230856512 -1.292611559 0)
(3.16463262 -1.255458141 0)
(3.082834244 -1.219857574 0)
(3.014235727 -1.194912795 0)
(2.959606159 -1.174476282 0)
(2.938877578 -1.176701211 0)
(2.950860973 -1.16303486 0)
(2.913931477 -0.3641892145 0)
(2.722079961 0.01932470733 0)
(2.7008484 0.03125755671 0)
(2.677453556 0.01190095818 0)
(2.666238314 0.009953364067 0)
(2.656246687 -0.002359277562 0)
(2.65555715 -0.02823313935 0)
(2.658109178 -0.00937659263 0)
(2.660173444 -0.01026359292 0)
(2.668610187 -0.02442884987 0)
(2.672425843 -0.02215551231 0)
(2.676314104 -0.02058493891 0)
(2.677844792 -0.01114793231 0)
(2.682162326 0.0003815916047 0)
(2.68507448 0.003032786619 0)
(3.150772392 -1.278161708 0)
(3.182486714 -1.299670255 0)
(3.23615659 -1.297347173 0)
(3.227894214 -1.293579781 0)
(3.164327136 -1.257918275 0)
(3.081680736 -1.220804052 0)
(3.011853043 -1.19558329 0)
(2.956114338 -1.177738152 0)
(2.936690155 -1.179859331 0)
(2.95245224 -1.185176235 0)
(2.971279006 -0.9086761403 0)
(2.84586291 -0.1974621337 0)
(2.744821526 7.827858765e-05 0)
(2.700813112 -0.01452035995 0)
(2.686394453 -0.02112216521 0)
(2.676266417 0.007081324974 0)
(2.672170356 -0.01364578225 0)
(2.684744442 -0.0009721701925 0)
(2.683584698 -0.0002451394368 0)
(2.686410993 -0.02268107236 0)
(2.693135299 -0.01970745479 0)
(2.697331338 -0.0200822618 0)
(2.701087532 -0.01865218936 0)
(2.698903036 -0.004508304619 0)
(2.704653801 0.006149314601 0)
(3.144328091 -1.273896275 0)
(3.176049744 -1.302285532 0)
(3.230125918 -1.298813697 0)
(3.226062708 -1.295392528 0)
(3.163475425 -1.261445193 0)
(3.081193526 -1.223361298 0)
(3.008351292 -1.198732193 0)
(2.954810088 -1.179950388 0)
(2.934784502 -1.179686446 0)
(2.949225715 -1.184439907 0)
(2.970645224 -1.183586523 0)
(2.986367553 -0.5089914856 0)
(2.819080805 -0.1045238136 0)
(2.727996312 -0.01676826356 0)
(2.722524876 -0.02837006571 0)
(2.706379874 0.005787743404 0)
(2.702209706 -0.001693792503 0)
(2.711033134 -0.003077864724 0)
(2.7157343 -0.0005375254162 0)
(2.713948571 -0.0164329517 0)
(2.721421173 -0.01096591623 0)
(2.726193078 -0.009567770343 0)
(2.729165592 -0.01590219569 0)
(2.723861963 -0.01523692094 0)
(2.725089423 0.004887159406 0)
(2.725760518 0.006524440087 0)
(3.140463812 -1.273484656 0)
(3.172350962 -1.304441489 0)
(3.225467566 -1.300619658 0)
(3.221885528 -1.299766632 0)
(3.161932679 -1.26498569 0)
(3.080718598 -1.226239285 0)
(3.008266405 -1.201299409 0)
(2.956505301 -1.180119829 0)
(2.935259198 -1.177197131 0)
(2.946680716 -1.183488434 0)
(2.969995965 -1.19414525 0)
(2.98650679 -1.075046922 0)
(2.901195622 -0.2373271157 0)
(2.775460906 -0.0319518479 0)
(2.750745179 -0.0304327517 0)
(2.742902357 -0.01624113068 0)
(2.732933898 0.002303909636 0)
(2.734931991 -0.0181437804 0)
(2.740590731 -0.008837615088 0)
(2.744493099 -0.01603241277 0)
(2.748844743 -0.008884304539 0)
(2.750412316 -0.001930606185 0)
(2.752218437 -0.008164607561 0)
(2.753122737 -0.02123400864 0)
(2.751796853 -0.009034038519 0)
(2.748445835 -0.0001603323904 0)
(3.134466205 -1.274693313 0)
(3.168790162 -1.306030024 0)
(3.223140295 -1.302846463 0)
(3.220260846 -1.302470917 0)
(3.16068959 -1.268049726 0)
(3.080336805 -1.228459375 0)
(3.009356432 -1.201970283 0)
(2.959274067 -1.179316262 0)
(2.93710722 -1.173885856 0)
(2.944655113 -1.182568682 0)
(2.969556519 -1.193134572 0)
(2.986433038 -1.19249503 0)
(2.982251383 -0.5980606109 0)
(2.850583458 -0.07421155384 0)
(2.777227331 -0.01768140821 0)
(2.775144778 -0.02691492793 0)
(2.761933166 -0.001192400376 0)
(2.761829329 -0.03876234921 0)
(2.763617052 -0.02717754805 0)
(2.765976172 -0.01542325906 0)
(2.767659796 -0.007245910208 0)
(2.770059241 0.007344755697 0)
(2.772454865 0.0007780886066 0)
(2.779548911 -0.01596008434 0)
(2.780391703 -0.01587237361 0)
(2.776113307 -0.01179230971 0)
(3.128117795 -1.275934468 0)
(3.162204 -1.303839387 0)
(3.218190403 -1.306717254 0)
(3.219844645 -1.304217838 0)
(3.160430188 -1.270529922 0)
(3.080365144 -1.230324262 0)
(3.011369526 -1.202539816 0)
(2.963964464 -1.178250178 0)
(2.939393404 -1.171357361 0)
(2.94300344 -1.181034407 0)
(2.968819596 -1.193888366 0)
(2.986274122 -1.202130503 0)
(2.988308178 -1.164599313 0)
(2.898395914 -0.1713716612 0)
(2.805914862 0.02612921513 0)
(2.792974321 -0.03406132644 0)
(2.78718064 -0.02361005032 0)
(2.784091832 -0.05064207542 0)
(2.787052732 -0.04879930295 0)
(2.787003281 -0.01763662149 0)
(2.787187108 -0.01541466786 0)
(2.792377627 0.006977213222 0)
(2.794150221 0.008848157219 0)
(2.796451861 -0.01221416916 0)
(2.802591672 -0.01600081122 0)
(2.801392736 -0.01408145533 0)
(3.123332578 -1.275844283 0)
(3.160881081 -1.298979501 0)
(3.215115133 -1.311866184 0)
(3.219026666 -1.305739838 0)
(3.160603909 -1.272576826 0)
(3.080552918 -1.231977894 0)
(3.014144246 -1.203449396 0)
(2.969431762 -1.177901439 0)
(2.943095775 -1.169789054 0)
(2.946921054 -1.181074588 0)
(2.965501242 -1.19828138 0)
(2.979947499 -1.206755235 0)
(2.993426713 -1.205747836 0)
(3.042392315 -0.8893553719 0)
(2.809476104 -0.01728163985 0)
(2.806918196 -0.04734354198 0)
(2.809749688 -0.03835293943 0)
(2.798926712 -0.04383673066 0)
(2.807897972 -0.04967934989 0)
(2.81104382 -0.03934429025 0)
(2.810657238 -0.0392676958 0)
(2.816521534 -0.01375466162 0)
(2.8153731 0.006103903371 0)
(2.811262643 -0.002448418583 0)
(2.817469496 -0.01058623078 0)
(2.817544532 -0.0135715406 0)
(3.12055479 -1.275404438 0)
(3.16113345 -1.297522918 0)
(3.214509952 -1.31564854 0)
(3.218524881 -1.307204573 0)
(3.16002776 -1.275004835 0)
(3.080355636 -1.234071823 0)
(3.017042951 -1.204809821 0)
(2.974681393 -1.17819465 0)
(2.94910675 -1.170106425 0)
(2.95120151 -1.183588746 0)
(2.964642111 -1.205323416 0)
(2.976781937 -1.212668852 0)
(2.988811919 -1.210981304 0)
(2.998235039 -1.182940084 0)
(2.946194558 -0.3966469988 0)
(2.832050986 -0.03157292726 0)
(2.825124397 -0.05275416634 0)
(2.813446878 -0.02019155758 0)
(2.820100364 -0.04253833634 0)
(2.829632557 -0.04277832459 0)
(2.829882683 -0.04212033634 0)
(2.83368129 -0.0277848967 0)
(2.831285969 -0.00393905832 0)
(2.828624025 0.002439279285 0)
(2.831571794 0.00302481145 0)
(2.830612046 -0.005914740487 0)
(3.119552274 -1.274393915 0)
(3.161466275 -1.297240515 0)
(3.214131963 -1.318671503 0)
(3.218866193 -1.307565778 0)
(3.160168736 -1.276686425 0)
(3.080268328 -1.235975588 0)
(3.018824334 -1.206286106 0)
(2.980454242 -1.179950904 0)
(2.957019956 -1.17318093 0)
(2.956667496 -1.186022855 0)
(2.967596514 -1.20747383 0)
(2.976034283 -1.213721391 0)
(2.985615653 -1.214733879 0)
(3.003296282 -1.211138769 0)
(3.027089557 -0.9541558334 0)
(2.844848843 -0.08048105074 0)
(2.839984502 -0.06416849901 0)
(2.835123774 0.009192502833 0)
(2.828896571 -0.01123989069 0)
(2.840387409 -0.04720104258 0)
(2.839983369 -0.03729847466 0)
(2.843438485 -0.02779770301 0)
(2.845192671 -0.01018922579 0)
(2.838953408 -0.0003125360558 0)
(2.841158834 0.006177500427 0)
(2.840724584 -0.004235136644 0)
(2.839041083 -0.01617870289 0)
(3.118063831 -1.268452106 0)
(3.162752037 -1.298187852 0)
(3.214950077 -1.320491157 0)
(3.220274444 -1.30527888 0)
(3.160852373 -1.274326411 0)
(3.080766616 -1.237479122 0)
(3.020909113 -1.208337654 0)
(2.984211509 -1.182099034 0)
(2.964835473 -1.1761556 0)
(2.962988438 -1.186975516 0)
(2.972238665 -1.205757185 0)
(2.976821076 -1.212159155 0)
(2.985223426 -1.215529302 0)
(2.997774613 -1.216962938 0)
(3.01730492 -1.202371364 0)
(3.001872216 -0.5273546455 0)
(2.868220652 -0.07647892652 0)
(2.841835039 -0.0080093436 0)
(2.834586229 0.005820087123 0)
(2.842582322 -0.03708968113 0)
(2.847604985 -0.01545866034 0)
(2.848608311 -0.01891023683 0)
(2.852132679 -0.01916615376 0)
(2.845282303 -0.008199085357 0)
(2.845859638 0.007876264873 0)
(2.844452937 8.081112171e-05 0)
(2.843340567 -0.01819464546 0)
(3.117248598 -1.261259892 0)
(3.162917123 -1.300885776 0)
(3.217729327 -1.320559985 0)
(3.220593211 -1.304695649 0)
(3.158962562 -1.270785356 0)
(3.081142496 -1.234470404 0)
(3.02415144 -1.209658162 0)
(2.985685813 -1.183832662 0)
(2.968010312 -1.177067893 0)
(2.967635654 -1.185690941 0)
(2.974795205 -1.202769737 0)
(2.98111283 -1.205306272 0)
(2.987470272 -1.213380952 0)
(3.000201414 -1.217770772 0)
(3.02142632 -1.219376811 0)
(3.044007443 -1.068061346 0)
(2.896100359 -0.1458094249 0)
(2.845622072 -0.03310646099 0)
(2.840219197 0.01909196789 0)
(2.843386688 -0.01263018142 0)
(2.853333372 0.00305715609 0)
(2.853266363 0.0008766097207 0)
(2.856101255 -0.02113363998 0)
(2.85154747 -0.02391264688 0)
(2.849330513 0.0004377276892 0)
(2.845895399 0.000452861578 0)
(2.843675117 -0.0140972508 0)
(3.115597952 -1.259587524 0)
(3.162453013 -1.30173897 0)
(3.221905151 -1.3207995 0)
(3.220396355 -1.305501302 0)
(3.152717347 -1.270229233 0)
(3.075851096 -1.230594031 0)
(3.024255457 -1.206068106 0)
(2.98839057 -1.185818922 0)
(2.970078359 -1.178028444 0)
(2.969065453 -1.185084198 0)
(2.979515574 -1.192234867 0)
(2.987433811 -1.199630145 0)
(2.993613142 -1.209375859 0)
(3.002914118 -1.218000187 0)
(3.023297155 -1.216787402 0)
(3.050598132 -1.208986738 0)
(3.075148969 -0.6910887654 0)
(2.866543405 -0.1406037249 0)
(2.841923436 -0.01334823277 0)
(2.842680248 0.004939709738 0)
(2.856240979 0.00881670828 0)
(2.857978964 0.01470269956 0)
(2.855668031 -0.01848937346 0)
(2.85489173 -0.03452727348 0)
(2.853232282 -0.022177679 0)
(2.847394365 -0.008171906492 0)
(2.843704312 -0.00823786777 0)
(3.114446347 -1.26005799 0)
(3.162180928 -1.302312137 0)
(3.2238357 -1.321451706 0)
(3.218948044 -1.308347355 0)
(3.146206412 -1.271129086 0)
(3.067472964 -1.231347583 0)
(3.015025117 -1.203609453 0)
(2.99239251 -1.185937869 0)
(2.973091309 -1.178925851 0)
(2.971389238 -1.182391744 0)
(2.983048042 -1.182503889 0)
(2.990923096 -1.196138472 0)
(2.998033079 -1.206405856 0)
(3.010279565 -1.214498337 0)
(3.029208086 -1.211984995 0)
(3.051545581 -1.216823906 0)
(3.060237597 -1.166210745 0)
(2.976390006 -0.3212034188 0)
(2.859113724 -0.05362095387 0)
(2.849500886 0.007740129471 0)
(2.854937594 -0.007557208245 0)
(2.859401426 0.01031904963 0)
(2.854251143 -0.01799703197 0)
(2.854914913 -0.03738020486 0)
(2.854629325 -0.02838167699 0)
(2.850083783 -0.01211208987 0)
(2.843539204 0.001056922617 0)
(3.112093113 -1.263657159 0)
(3.161776426 -1.300873287 0)
(3.227693312 -1.325200596 0)
(3.214796604 -1.31381904 0)
(3.13600702 -1.271824352 0)
(3.05870383 -1.234642866 0)
(3.0034443 -1.205321132 0)
(2.983639202 -1.18228804 0)
(2.975513419 -1.176648688 0)
(2.97530123 -1.175236401 0)
(2.983908598 -1.179078002 0)
(2.99441336 -1.192816075 0)
(3.002813967 -1.203730169 0)
(3.017830435 -1.211010114 0)
(3.034501942 -1.209998137 0)
(3.05325781 -1.213326642 0)
(3.067135401 -1.212644244 0)
(3.064648961 -0.6740164612 0)
(2.908755816 -0.1791064812 0)
(2.855568024 -0.03263241504 0)
(2.853105856 -0.04796727115 0)
(2.862239344 -0.01437099958 0)
(2.855350266 -0.01356356728 0)
(2.853495317 -0.03360143516 0)
(2.854498756 -0.02929001785 0)
(2.851395225 -0.01692331331 0)
(2.844082294 0.004553007461 0)
(3.107838908 -1.277779303 0)
(3.163870145 -1.294479235 0)
(3.231784735 -1.329059509 0)
(3.212216879 -1.316527095 0)
(3.126920016 -1.27190593 0)
(3.049671722 -1.237947777 0)
(2.992484498 -1.210350624 0)
(2.967836136 -1.181952814 0)
(2.967561125 -1.170875991 0)
(2.972359723 -1.168965557 0)
(2.984304135 -1.177325869 0)
(2.998802603 -1.190827806 0)
(3.011951439 -1.202622488 0)
(3.025523294 -1.207962275 0)
(3.039550107 -1.207277817 0)
(3.055173848 -1.212733076 0)
(3.068182091 -1.21565848 0)
(3.069291966 -1.199976816 0)
(2.977777745 -0.2890536112 0)
(2.868341388 -0.07967914264 0)
(2.861653353 -0.0577712665 0)
(2.866197154 -0.04086956723 0)
(2.856894251 -0.00442026476 0)
(2.850301922 -0.0174382267 0)
(2.852649184 -0.02230277841 0)
(2.851374306 -0.02096958047 0)
(2.844881822 -0.001369160586 0)
(3.113446722 -1.285968016 0)
(3.167768925 -1.291670459 0)
(3.232117784 -1.330885039 0)
(3.213521764 -1.316197238 0)
(3.122963754 -1.271055299 0)
(3.04329905 -1.239501512 0)
(2.98203358 -1.215419092 0)
(2.953061432 -1.186077288 0)
(2.949031022 -1.169144331 0)
(2.963433685 -1.167832268 0)
(2.982356944 -1.177001111 0)
(3.002710578 -1.192393409 0)
(3.020801452 -1.203113347 0)
(3.033347168 -1.205018505 0)
(3.04481123 -1.205419563 0)
(3.056959192 -1.212514447 0)
(3.069953447 -1.213513256 0)
(3.076616452 -1.21661938 0)
(3.065127706 -0.9009149237 0)
(2.931325224 -0.2202486541 0)
(2.8745256 -0.07008648842 0)
(2.869027964 -0.04903228398 0)
(2.858240315 -0.0009165340147 0)
(2.848246766 0.005433621949 0)
(2.849416062 0.006829509041 0)
(2.848595864 -0.01883638484 0)
(2.844648134 -0.0154051168 0)
(2.839217749 -0.01386701889 0)
(3.118539734 -1.285939403 0)
(3.171312886 -1.290911859 0)
(3.231962836 -1.332520889 0)
(3.21496969 -1.315019414 0)
(3.121581203 -1.270630898 0)
(3.038150395 -1.238751058 0)
(2.976284979 -1.217824225 0)
(2.938892896 -1.190148117 0)
(2.933325746 -1.172102477 0)
(2.953660682 -1.169645105 0)
(2.976133198 -1.179837067 0)
(3.002835961 -1.192519132 0)
(3.027241834 -1.202050648 0)
(3.039729554 -1.200711524 0)
(3.047451031 -1.203186637 0)
(3.060568842 -1.210980487 0)
(3.072514036 -1.213878611 0)
(3.077867456 -1.217700667 0)
(3.077905305 -1.20682021 0)
(3.017020491 -0.3905386645 0)
(2.900463505 -0.08491643157 0)
(2.870311148 -0.04946951424 0)
(2.862891826 -0.007504574126 0)
(2.845565849 0.001526348191 0)
(2.846850211 0.01626783745 0)
(2.844161312 -0.01470382738 0)
(2.844354887 -0.03294550677 0)
(2.839857938 -0.01928555123 0)
(3.122093142 -1.28485652 0)
(3.173210648 -1.290479607 0)
(3.231836939 -1.333801726 0)
(3.216274821 -1.313184273 0)
(3.118053347 -1.271144211 0)
(3.035344469 -1.237287384 0)
(2.967317101 -1.216283706 0)
(2.924376971 -1.191868641 0)
(2.91588698 -1.176596668 0)
(2.937153464 -1.174281154 0)
(2.966676847 -1.182032973 0)
(3.001138282 -1.191806311 0)
(3.029425213 -1.200976202 0)
(3.048538025 -1.199609502 0)
(3.05532956 -1.200795706 0)
(3.063598917 -1.209756348 0)
(3.074139181 -1.213665874 0)
(3.079232259 -1.217431291 0)
(3.081451492 -1.219126193 0)
(3.080030767 -1.06892595 0)
(2.914379145 -0.08427149601 0)
(2.873370081 -0.03755152284 0)
(2.86202806 -0.0313572412 0)
(2.848614282 -0.005019859461 0)
(2.846944524 0.01634029752 0)
(2.841932861 -0.01554083765 0)
(2.843657006 -0.03957248166 0)
(2.842214339 -0.02246528171 0)
(3.128440966 -1.271226938 0)
(3.176600313 -1.29339415 0)
(3.232463847 -1.333122702 0)
(3.216602497 -1.31255105 0)
(3.116834273 -1.271869711 0)
(3.033718442 -1.235154129 0)
(2.958711747 -1.21120287 0)
(2.910345564 -1.189347378 0)
(2.907040438 -1.181535835 0)
(2.923010567 -1.177896065 0)
(2.957518761 -1.183851822 0)
(2.998416523 -1.191247977 0)
(3.033137152 -1.199444269 0)
(3.05284631 -1.19827528 0)
(3.064691729 -1.201167534 0)
(3.070954468 -1.207861803 0)
(3.077359473 -1.215214918 0)
(3.079983053 -1.220906869 0)
(3.082536344 -1.220553646 0)
(3.084190937 -1.213409299 0)
(3.096970049 -0.7116847563 0)
(2.871412529 -0.01779096232 0)
(2.86598275 -0.04500895323 0)
(2.85345228 -0.0316454157 0)
(2.849614681 -0.005984330893 0)
(2.843266356 -0.01241893275 0)
(2.843620955 -0.03460671457 0)
(2.845989962 -0.0206917091 0)
(3.132011822 -1.24965622 0)
(3.179280386 -1.300987877 0)
(3.237719193 -1.331914758 0)
(3.217901704 -1.312564169 0)
(3.11954665 -1.270437042 0)
(3.033062181 -1.232299611 0)
(2.952133854 -1.207908681 0)
(2.902263745 -1.186129885 0)
(2.897141811 -1.184448083 0)
(2.915919136 -1.180256686 0)
(2.950607242 -1.185200954 0)
(2.994958682 -1.191244816 0)
(3.034603328 -1.196986722 0)
(3.057416166 -1.197331917 0)
(3.074704293 -1.203509742 0)
(3.083191858 -1.208469632 0)
(3.084527419 -1.218208796 0)
(3.084309139 -1.224172949 0)
(3.085189714 -1.224669909 0)
(3.084748832 -1.224102851 0)
(3.07578319 -1.190193556 0)
(2.891961861 -0.1987808651 0)
(2.879866621 -0.09058794705 0)
(2.859900196 -0.06218527204 0)
(2.857214003 -0.04018315663 0)
(2.848486631 -0.009808091151 0)
(2.844084509 -0.01775044844 0)
(2.848079128 -0.02027954495 0)
(3.136905697 -1.243647161 0)
(3.180302946 -1.303673313 0)
(3.245948663 -1.329794137 0)
(3.221219535 -1.31336339 0)
(3.121473936 -1.268462239 0)
(3.033517869 -1.22919899 0)
(2.949130182 -1.205417131 0)
(2.898037537 -1.184588546 0)
(2.891627263 -1.184142388 0)
(2.909207876 -1.18115175 0)
(2.943811969 -1.18490718 0)
(2.988611045 -1.189931958 0)
(3.033562127 -1.196789774 0)
(3.063570144 -1.203152476 0)
(3.083938902 -1.205333681 0)
(3.092899869 -1.208700604 0)
(3.091051522 -1.217683079 0)
(3.089494067 -1.224529345 0)
(3.086902012 -1.225700024 0)
(3.084897454 -1.223363067 0)
(3.085048153 -1.220273217 0)
(3.140124912 -0.8767508856 0)
(2.910614916 -0.1205062298 0)
(2.876029102 -0.06842998625 0)
(2.865819501 -0.05532837937 0)
(2.858144808 -0.01028691887 0)
(2.845616808 0.005918418825 0)
(2.846528843 -0.02083021495 0)
(3.140858281 -1.24500714 0)
(3.180959899 -1.304477239 0)
(3.254967438 -1.327649236 0)
(3.223514241 -1.314598968 0)
(3.123255917 -1.264011212 0)
(3.034801906 -1.225817819 0)
(2.948436132 -1.201976709 0)
(2.896180523 -1.18286739 0)
(2.889441088 -1.183642584 0)
(2.905210186 -1.179833733 0)
(2.939807862 -1.183612096 0)
(2.98410337 -1.18927911 0)
(3.029474763 -1.200541157 0)
(3.06419119 -1.208997514 0)
(3.088064773 -1.205673649 0)
(3.097612381 -1.20807414 0)
(3.098417379 -1.21502327 0)
(3.093217567 -1.223075116 0)
(3.087939678 -1.224680122 0)
(3.084110674 -1.222108032 0)
(3.081720996 -1.218796457 0)
(3.076775001 -1.196037932 0)
(2.966414412 -0.3018610045 0)
(2.919764597 -0.09772784343 0)
(2.873044469 -0.04562757187 0)
(2.8670723 -0.01355762319 0)
(2.846867008 0.009210430281 0)
(2.844631956 -0.02470005343 0)
(2.847446156 -0.03200892868 0)
(3.14194218 -1.248330824 0)
(3.182718985 -1.303678145 0)
(3.261330018 -1.325412288 0)
(3.227293975 -1.32003022 0)
(3.123077806 -1.261518077 0)
(3.037251474 -1.22247549 0)
(2.949609194 -1.197751878 0)
(2.895249258 -1.180434856 0)
(2.888358034 -1.182586068 0)