/*--------------------------------*- C++ -*----------------------------------*\
  =========                 |
  \\      /  F ield         | OpenFOAM: The Open Source CFD Toolbox
   \\    /   O peration     | Website:  https://openfoam.org
    \\  /    A nd           | Version:  7
     \\/     M anipulation  |
\*---------------------------------------------------------------------------*/
FoamFile
{
    version     2.0;
    format      ascii;
    class       volVectorField;
    location    "4.1";
    object      U;
}
// * * * * * * * * * * * * * * * * * * * * * * * * * * * * * * * * * * * * * //

dimensions      [0 1 -1 0 0 0 0];

internalField   nonuniform List<vector> 
22
(
(3 6.408845287e-16 0)
(3 -2.825431127e-16 0)
(3 -1.192760631e-17 0)
(3 -2.078448081e-16 0)
(3 -3.256317911e-16 0)
(3 3.768618476e-16 0)
(3 1.656429946e-15 0)
(3 3.998766099e-15 0)
(3 -1.827466104e-15 0)
(3 -1.997900051e-15 0)
(3 -9.427019465e-16 0)
(3 6.33080388e-16 0)
(3 1.25327142e-15 0)
(3 2.206197093e-15 0)
(3 -1.118689674e-16 0)
(3 3.829239901e-16 0)
(3 2.107835633e-16 0)
(3 -3.979946895e-16 0)
(3 -1.951807704e-16 0)
(3 -9.466720243e-16 0)
(3 -3.310048804e-16 0)
(3 -8.382324295e-16 0)
)
;

boundaryField
{
    inlet
    {
        type            fixedValue;
        value           uniform (3 0 0);
    }
    outlet
    {
        type            inletOutlet;
        inletValue      nonuniform 0();
        value           nonuniform 0();
    }
    bottom
    {
        type            slip;
    }
    top
    {
        type            slip;
    }
    obstacle
    {
        type            slip;
    }
    defaultFaces
    {
        type            empty;
    }
    procBoundary6to0
    {
        type            processor;
        value           nonuniform List<vector> 7((3 -3.328821772e-16 0) (3 -1.167207569e-16 0) (3 1.588016079e-15 0) (3 1.536931545e-15 0) (3 8.654439174e-16 0) (3 8.923270704e-16 0) (3 8.923270704e-16 0));
    }
    procBoundary6to7
    {
        type            processor;
        value           nonuniform List<vector> 3((3 5.550446645e-16 0) (3 4.871335805e-15 0) (3 2.75323007e-15 0));
    }
    procBoundary6to12
    {
        type            processor;
        value           nonuniform List<vector> 7((3 -5.952262693e-16 0) (3 -1.824051479e-15 0) (3 -3.512896301e-15 0) (3 -4.622198201e-15 0) (3 -1.057262554e-15 0) (3 -5.952262693e-16 0) (3 -1.045343598e-15 0));
    }
    procBoundary6to13
    {
        type            processor;
        value           uniform (3 -3.28199982e-16 0);
    }
}


// ************************************************************************* //
