/*--------------------------------*- C++ -*----------------------------------*\
  =========                 |
  \\      /  F ield         | OpenFOAM: The Open Source CFD Toolbox
   \\    /   O peration     | Website:  https://openfoam.org
    \\  /    A nd           | Version:  7
     \\/     M anipulation  |
\*---------------------------------------------------------------------------*/
FoamFile
{
    version     2.0;
    format      ascii;
    class       volScalarField;
    location    "3.9";
    object      p;
}
// * * * * * * * * * * * * * * * * * * * * * * * * * * * * * * * * * * * * * //

dimensions      [1 -1 -2 0 0 0 0];

internalField   nonuniform List<scalar> 
22
(
1.013914318
1.046186921
1.015015257
1.012202774
1.013610697
1.045848948
1.019139771
1.013761046
1.016408698
1.036980472
1.022689731
1.020058765
1.020031703
1.022449922
1.019067201
1.018387532
1.018198043
1.016113902
1.01733288
1.016571551
1.014087994
1.014563129
)
;

boundaryField
{
    inlet
    {
        type            fixedValue;
        value           nonuniform 0();
    }
    outlet
    {
        type            zeroGradient;
    }
    bottom
    {
        type            slip;
    }
    top
    {
        type            slip;
    }
    obstacle
    {
        type            zeroGradient;
    }
    defaultFaces
    {
        type            empty;
    }
    procBoundary22to16
    {
        type            processor;
        value           nonuniform List<scalar> 5(1.017768477 1.043728011 1.015690014 1.011546737 1.011546737);
    }
    procBoundary22to17
    {
        type            processor;
        value           uniform 0.97043645;
    }
    procBoundary22to21
    {
        type            processor;
        value           nonuniform List<scalar> 7(1.036265883 0.971518556 0.9246160175 1.026574628 1.026574628 1.0038141 0.9731206142);
    }
    procBoundary22to23
    {
        type            processor;
        value           nonuniform List<scalar> 5(0.9704003398 0.9757151525 0.9810629301 0.9812668444 0.9824806998);
    }
    procBoundary22to28
    {
        type            processor;
        value           nonuniform List<scalar> 3(1.009610369 1.01213131 1.011291481);
    }
    procBoundary22to29
    {
        type            processor;
        value           uniform 0.9823888401;
    }
}


// ************************************************************************* //
