/*--------------------------------*- C++ -*----------------------------------*\
  =========                 |
  \\      /  F ield         | OpenFOAM: The Open Source CFD Toolbox
   \\    /   O peration     | Website:  https://openfoam.org
    \\  /    A nd           | Version:  7
     \\/     M anipulation  |
\*---------------------------------------------------------------------------*/
FoamFile
{
    version     2.0;
    format      ascii;
    class       volScalarField;
    location    "4.2";
    object      p;
}
// * * * * * * * * * * * * * * * * * * * * * * * * * * * * * * * * * * * * * //

dimensions      [1 -1 -2 0 0 0 0];

internalField   nonuniform List<scalar> 
143
(
1.003352825
1.028677616
1.130980488
1.309745158
1.357694568
1.383646215
1.382964048
1.340940914
1.000000244
1.000246468
1.003727591
1.037706836
1.140680333
1.268669559
1.380361149
1.384571984
1.376361612
1.000000002
1.00001037
1.000299512
1.006330162
1.038127206
1.142534999
1.302944036
1.345533085
1.365987742
1
1.000000257
1.000015847
1.000669996
1.006233851
1.046875733
1.148167649
1.261913965
1.359958742
1
1.000000004
1.000000624
1.000044928
1.000655416
1.009153779
1.044201286
1.146580691
1.287891389
1
1
1.000000018
1.000002001
1.000044675
1.001102149
1.008073867
1.052105737
1.148185044
1
1
1
1.000000057
1.00000204
1.000082698
1.00096198
1.010998518
1.04909415
1
1
1
1.000000001
1.000000063
1.000004147
1.000076559
1.001438107
1.010588741
1
1
1
1
1.000000001
1.000000147
1.000004225
1.000123812
1.001453328
1
1
1
1
1
1.000000004
1.000000164
1.000007162
1.000128186
1
1
1
1
1
1
1.000000004
1.000000281
1.000007303
1
1
1
1
1
1
1
1.000000007
1.00000028
1
1
1
1
1
1
1
1
1.000000008
1
1
1
1
1
1
1
1
1
1
1
1
1
1
1
1
1
1
1
1
1
1
1
1
1
1
1
)
;

boundaryField
{
    inlet
    {
        type            fixedValue;
        value           nonuniform 0();
    }
    outlet
    {
        type            zeroGradient;
    }
    bottom
    {
        type            slip;
    }
    top
    {
        type            slip;
    }
    obstacle
    {
        type            zeroGradient;
    }
    defaultFaces
    {
        type            empty;
    }
    procBoundary33to26
    {
        type            processor;
        value           nonuniform List<scalar> 6(0.9999999911 0.9999999999 1 1 1 1);
    }
    procBoundary33to27
    {
        type            processor;
        value           nonuniform List<scalar> 10(1.026798448 1.123558091 1.273836942 1.405538708 1.406279289 1.395268456 1.343105582 1.243200142 1.000017747 1.000017747);
    }
    procBoundary33to32
    {
        type            processor;
        value           nonuniform List<scalar> 9(1 1 1 1 1 1 1 1 1);
    }
    procBoundary33to34
    {
        type            processor;
        value           nonuniform List<scalar> 
16
(
1.250962887
1.334908092
1.367477697
1.370856448
1.348335223
1.265943279
1.1511571
1.053503818
1.011584583
1.001611655
1.00014737
1.000008993
1.000000381
1.000000012
1
1
)
;
    }
}


// ************************************************************************* //
