/*--------------------------------*- C++ -*----------------------------------*\
  =========                 |
  \\      /  F ield         | OpenFOAM: The Open Source CFD Toolbox
   \\    /   O peration     | Website:  https://openfoam.org
    \\  /    A nd           | Version:  7
     \\/     M anipulation  |
\*---------------------------------------------------------------------------*/
FoamFile
{
    version     2.0;
    format      ascii;
    class       volScalarField;
    location    "4.2";
    object      T;
}
// * * * * * * * * * * * * * * * * * * * * * * * * * * * * * * * * * * * * * //

dimensions      [0 0 0 1 0 0 0];

internalField   nonuniform List<scalar> 
143
(
1.000962154
1.008220684
1.036818553
1.082991
1.094431202
1.100611427
1.100441401
1.09091
1.00000007
1.000070302
1.00106584
1.010807168
1.039259603
1.072390098
1.099019323
1.10038954
1.098630314
1.000000001
1.000002957
1.000085445
1.001813743
1.01085602
1.039767061
1.080345703
1.090755896
1.095957688
1
1.000000073
1.000004523
1.000191313
1.001780282
1.013387574
1.040934262
1.070140875
1.093937279
1
1.000000001
1.000000178
1.000012821
1.0001871
1.002623137
1.012538502
1.040675536
1.076506037
1
1
1.000000005
1.000000571
1.000012757
1.000314954
1.002306457
1.014844901
1.040921591
1
1
1
1.000000016
1.000000583
1.000023606
1.000274813
1.003151436
1.013916743
1
1
1
1
1.000000018
1.000001184
1.000021866
1.000411089
1.003024759
1
1
1
1
1
1.000000042
1.000001207
1.000035346
1.000415235
1
1
1
1
1
1.000000001
1.000000047
1.000002045
1.000036612
1
1
1
1
1
1
1.000000001
1.00000008
1.000002086
1
1
1
1
1
1
1
1.000000002
1.00000008
1
1
1
1
1
1
1
1
1.000000002
1
1
1
1
1
1
1
1
1
1
1
1
1
1
1
1
1
1
1
1
1
1
1
1
1
1
1
)
;

boundaryField
{
    inlet
    {
        type            fixedValue;
        value           nonuniform 0();
    }
    outlet
    {
        type            inletOutlet;
        inletValue      nonuniform 0();
        value           nonuniform 0();
    }
    bottom
    {
        type            slip;
    }
    top
    {
        type            slip;
    }
    obstacle
    {
        type            zeroGradient;
    }
    defaultFaces
    {
        type            empty;
    }
    procBoundary33to26
    {
        type            processor;
        value           nonuniform List<scalar> 6(0.9999999975 1 1 1 1 1);
    }
    procBoundary33to27
    {
        type            processor;
        value           nonuniform List<scalar> 10(1.007747639 1.034901751 1.074042077 1.10574737 1.1059088 1.103479222 1.09166889 1.068027606 1.000005065 1.000005065);
    }
    procBoundary33to32
    {
        type            processor;
        value           nonuniform List<scalar> 9(1 1 1 1 1 1 1 1 1);
    }
    procBoundary33to34
    {
        type            processor;
        value           nonuniform List<scalar> 
16
(
1.069704885
1.089322861
1.096405074
1.096625359
1.091096812
1.071009859
1.041728098
1.015165336
1.003312375
1.00046068
1.000042087
1.000002568
1.000000109
1.000000003
1
1
)
;
    }
}


// ************************************************************************* //
