/*--------------------------------*- C++ -*----------------------------------*\
  =========                 |
  \\      /  F ield         | OpenFOAM: The Open Source CFD Toolbox
   \\    /   O peration     | Website:  https://openfoam.org
    \\  /    A nd           | Version:  7
     \\/     M anipulation  |
\*---------------------------------------------------------------------------*/
FoamFile
{
    version     2.0;
    format      ascii;
    class       volScalarField;
    location    "1";
    object      p;
}
// * * * * * * * * * * * * * * * * * * * * * * * * * * * * * * * * * * * * * //

dimensions      [1 -1 -2 0 0 0 0];

internalField   nonuniform List<scalar> 
2222
(
1.009255148
1.029273207
1.047356791
1.058065512
1.065558897
1.074785088
1.076484355
1.071950912
1.062419543
1.05350788
1.05067815
1.048031396
1.056493232
1.059683506
1.060049731
1.064462994
1.061991654
1.059873763
0.5155031618
0.8346982504
1.016462928
1.033865516
1.005388982
1.008721987
1.030389451
1.043009421
1.052697634
1.055854805
1.060076665
1.060425539
1.058978863
1.059728652
1.063345259
1.066489857
1.069283068
1.069144259
1.064061346
1.060607132
1.05908994
1.051252157
1.050379348
0.5041770733
0.7113088101
0.9551339131
1.031769582
1.0099066
1.002746417
1.017796374
1.033021108
1.051549104
1.061521556
1.065773594
1.068242862
1.073152384
1.075705091
1.071684533
1.067893825
1.062712177
1.05625537
1.051193033
1.047614294
1.043655711
1.041086045
1.043779168
0.4730743515
0.6266706604
0.8703907505
1.020382149
1.031675307
1.033703906
1.036193879
1.040524908
1.046623128
1.0511109
1.055743975
1.061112982
1.064672963
1.063282729
1.058069302
1.052526581
1.046232206
1.045029202
1.048503063
1.04805741
1.051292068
1.055300055
1.061067874
0.4484726575
0.533960392
0.7693189701
0.9724457633
1.032498086
1.035711966
1.033917719
1.043258979
1.046580992
1.051390402
1.056246269
1.061846903
1.063123075
1.061713886
1.061341755
1.058796558
1.055628123
1.056103173
1.058882713
1.060338457
1.064036023
1.064445436
1.063845641
0.414456173
0.4673656177
0.6621126738
0.8676915686
1.00924002
1.014014025
1.009959157
1.016771647
1.031245817
1.045113514
1.060307997
1.069005837
1.072177465
1.071855653
1.071091425
1.068847488
1.065064277
1.061531686
1.059539873
1.05792031
1.058439007
1.056388716
1.0535769
1.052536681
0.3639929323
0.40324255
0.5429173761
0.7805814781
0.928948169
0.978163799
0.9888256461
1.005995586
1.027507049
1.041691442
1.053596906
1.056893947
1.058348099
1.058091115
1.056413757
1.054753161
1.052904754
1.0524742
1.0521314
1.050255381
1.050409804
1.051768229
1.054550104
1.058392045
0.3173274154
0.351214386
0.4295724671
0.7138789967
0.8829259018
0.9644893027
0.9945693149
1.016220539
1.037583739
1.048256752
1.05323806
1.052941394
1.053454145
1.052723432
1.051785516
1.052115064
1.051721909
1.051190259
1.051919726
1.053062899
1.058371546
1.061493416
1.061476914
1.062948122
0.2900886243
0.2990226566
0.3444266761
0.5534619416
0.8732231779
0.9685330536
1.016022106
1.032763309
1.044679333
1.052336553
1.05666892
1.05912631
1.059384523
1.061563263
1.063373869
1.064830478
1.066366184
1.067348827
1.06907997
1.068233377
1.066476894
1.062185836
1.056488538
1.054956956
0.2747212803
0.2751356315
0.2807083624
0.3778924604
0.7410023004
0.9659878095
1.028387092
1.044604571
1.051487481
1.053896393
1.051065386
1.055231723
1.057508858
1.061340425
1.06122168
1.06035032
1.059905506
1.059016103
1.05928499
1.056198742
1.052447266
1.050924017
1.05133025
1.054925909
0.2742820813
0.2734281804
0.2730626527
0.2902888889
0.5196719428
0.8932883196
1.012903631
1.032219809
1.034921543
1.037105049
1.040046623
1.047588979
1.052450871
1.057136554
1.056002604
1.056117292
1.055860172
1.052878707
1.049362581
1.047317818
1.048108078
1.055338103
1.066179754
1.073564984
0.2745089261
0.2734736923
0.2728985612
0.2730785981
0.3748311629
0.7098491056
0.9350619702
0.9974784661
1.021413701
1.032584212
1.041052619
1.04957225
1.054345211
1.056974395
1.05318468
1.052780673
1.051521183
1.047998779
1.048161354
1.050250045
1.058731538
1.066564358
1.067371029
1.066707935
1.063890624
0.2745144298
0.2737612227
0.2734749135
0.2729509714
0.2872143768
0.5706843789
0.8676236258
0.9845664778
1.024892426
1.039356981
1.047958742
1.05353707
1.05504441
1.054799213
1.050565255
1.049620321
1.051876642
1.050620206
1.054770318
1.06021357
1.063917619
1.064542777
1.062415053
1.058264459
1.054040669
0.274346541
0.2743770069
0.2740701099
0.273214128
0.2735964946
0.4060209356
0.8165677249
0.9918417351
1.031594649
1.042692852
1.048431522
1.048954152
1.047370757
1.045652214
1.045323622
1.048343318
1.052575959
1.057616438
1.062575556
1.062828165
1.063088934
1.062452103
1.056890805
1.054296142
1.053947598
0.2741709226
0.2746638147
0.2741723926
0.2734001508
0.2726522254
0.2930088067
0.6466132189
0.970557567
1.04603135
1.04865777
1.046173281
1.042462309
1.039519552
1.040345128
1.044404338
1.04959089
1.054778969
1.059053699
1.063227819
1.062558509
1.060723024
1.058430478
1.054804782
1.05730307
1.06045006
0.2741451808
0.274746826
0.2742010044
0.273439794
0.2727279687
0.2728504077
0.4229250978
0.8596520682
1.037708853
1.047781884
1.03998156
1.030882306
1.031620563
1.036037364
1.043709391
1.052058948
1.058830834
1.061352558
1.063689132
1.060459836
1.055676297
1.055903905
1.055918122
1.061665473
1.063370323
0.274148862
0.2747764666
0.2742153022
0.2734217725
0.2727379747
0.2722266814
0.304600791
0.6460085491
0.9568304435
1.02982273
1.019696773
1.01995202
1.028710234
1.037248993
1.046250303
1.053870982
1.059382391
1.057158329
1.057072754
1.054384026
1.053310772
1.05817161
1.05919584
1.063763226
1.064475176
0.2744618118
0.2747812012
0.2742134514
0.2733538639
0.2727016211
0.2720307685
0.2738040567
0.4809464967
0.8355013531
0.9845703545
1.007811039
1.019442679
1.029871484
1.040293113
1.048697503
1.052412954
1.053158008
1.049375555
1.052568995
1.05566578
1.056810378
1.061734282
1.061199014
1.06369854
1.063055867
0.2752632448
0.2747569764
0.2740552332
0.2731215323
0.2724477749
0.2719227941
0.2718583241
0.3269557868
0.7343469946
0.9556113168
1.015609819
1.03179808
1.036939286
1.039061399
1.041239342
1.042311817
1.043932438
1.04796723
1.053799465
1.057864064
1.060503588
1.063976318
1.06202265
1.060590711
1.056765309
1.053052433
0.2756177238
0.2745073344
0.2736609128
0.2729157604
0.2723711521
0.2719369207
0.2715139586
0.2766743715
0.5469165975
0.9542997689
1.035260913
1.044347321
1.043984863
1.042148186
1.03840488
1.037459935
1.04170508
1.048188018
1.054974024
1.061901576
1.064695623
1.064757185
1.060361001
1.054449325
1.053254751
1.051922732
0.275650103
0.2741204266
0.2735198697
0.2728935025
0.272367911
0.2719581177
0.2717773917
0.272177513
0.3467707526
0.8142874034
1.023483186
1.040972394
1.038040375
1.035166017
1.032727345
1.033871548
1.040240433
1.050933643
1.059920493
1.066482512
1.064408461
1.063961785
1.056928658
1.053700281
1.054589219
1.053515581
0.275451934
0.2739587703
0.2735066494
0.2729216177
0.272594348
0.2723424728
0.2722183171
0.2723608685
0.2795891934
0.5541893684
0.937972346
1.029065697
1.024755874
1.019600163
1.025635506
1.032978909
1.041851009
1.054367428
1.063037676
1.066388127
1.063726623
1.060730468
1.05526663
1.05431588
1.056456313
1.056027838
0.2744291896
0.2739567984
0.273539084
0.2733531511
0.2731710986
0.2726440216
0.2722600664
0.2728376247
0.2729438311
0.3828950363
0.765229231
0.9728310476
0.9999879616
1.01300991
1.023556653
1.033640044
1.043983262
1.055938073
1.062352273
1.064100699
1.058885295
1.059719181
1.056336036
1.055965548
1.05877085
1.058037549
0.2734172402
0.2740100773
0.2739223208
0.2741309744
0.2734712101
0.2727125613
0.2722316554
0.2728574518
0.2728062743
0.2888335913
0.6273342403
0.9103820986
0.9923554301
1.013297931
1.025524208
1.038838855
1.04705807
1.054721357
1.058432588
1.058997333
1.056713238
1.058384058
1.057217488
1.055269693
1.058073933
1.057747299
0.273131049
0.2743995417
0.2745921131
0.2744767552
0.2735310713
0.2727400152
0.2721514127
0.271937016
0.272871166
0.2745496602
0.4497225064
0.8689819297
1.006467264
1.030751749
1.037100051
1.042658294
1.046608355
1.04899053
1.052063592
1.056394659
1.055026217
1.057236459
1.056312072
1.052759679
1.054971074
1.053953643
1.055610966
0.2731089182
0.2748889769
0.2749561993
0.2745319035
0.2735453153
0.2727381345
0.2720741247
0.2717086268
0.2737952821
0.2735746316
0.3039762184
0.7193034191
0.9965768449
1.037171548
1.041324308
1.038602284
1.041778656
1.042702356
1.048611025
1.056338206
1.055897074
1.056897092
1.054475715
1.049226867
1.051203588
1.050669911
1.052658337
0.2736308418
0.2750076489
0.2750843358
0.2745286537
0.2735553192
0.2727130302
0.2720332159
0.2716277846
0.2731210119
0.2734915473
0.2750381007
0.4751264729
0.9146848838
1.029681789
1.042221379
1.03443423
1.033887651
1.039137993
1.047179764
1.056869113
1.056535159
1.05625094
1.053021037
1.047783547
1.050470209
1.050453549
1.052335975
0.2748295809
0.2749885156
0.2751161716
0.274521476
0.2735638357
0.2726818634
0.2720071736
0.2716203754
0.2726938446
0.2742243558
0.2734258005
0.3308387049
0.7057131615
0.9833666938
1.028814612
1.021488223
1.027859158
1.037043092
1.048240458
1.057940565
1.056010519
1.055764269
1.053053635
1.048686779
1.051917062
1.052377003
1.054432815
0.2754892061
0.2749638142
0.2751033512
0.2745131604
0.2735423968
0.2726284306
0.2719680117
0.2715910163
0.2726516294
0.2741512051
0.27353177
0.2784804553
0.5503605291
0.8812578427
0.9927261045
1.017274533
1.029054311
1.039937502
1.05044786
1.058208922
1.055480529
1.055349743
1.054676162
1.051693359
1.055246824
1.055865467
1.058194963
0.2756538384
0.274936339
0.2750790034
0.2744715322
0.2733480141
0.2725119128
0.2718889434
0.2716122606
0.2728255027
0.2732443317
0.2739259786
0.2742501291
0.3901331163
0.8006424845
0.9745697892
1.02197087
1.038768274
1.044254863
1.051002195
1.056916662
1.05395923
1.054322679
1.054434426
1.051743231
1.055042842
1.055571123
1.057906763
0.2756935545
0.2749067765
0.2750123773
0.274081007
0.2730148043
0.2724222173
0.2718117403
0.2719042588
0.2729420805
0.2731536408
0.2741363139
0.2736603642
0.2884457489
0.6668760014
0.9893696948
1.035415748
1.042918492
1.044157786
1.046548196
1.051910205
1.051455845
1.052562685
1.053726362
1.050947716
1.05265584
1.053761692
1.056335982
0.2753785543
0.2746256797
0.2744447273
0.2734853716
0.2728836244
0.2723964501
0.2718019086
0.2721435387
0.2729103971
0.2731253119
0.2738783696
0.2737807055
0.2744260095
0.4379595344
0.9131581679
1.031811744
1.043061079
1.040050827
1.037398585
1.041873637
1.046495343
1.047998014
1.050893298
1.047803823
1.049923208
1.050896293
1.053621905
1.056470353
0.2740058549
0.2740013003
0.2736991569
0.2732675788
0.2728678929
0.2724077744
0.2719599554
0.2721825828
0.2727891684
0.2732322626
0.2737517411
0.2739716457
0.273481279
0.3075212239
0.6982283171
0.9905452462
1.02832004
1.02499838
1.026827372
1.036726153
1.043261083
1.046694332
1.049921204
1.046033416
1.048978406
1.050568933
1.053190385
1.055831308
0.2730918704
0.2737037052
0.2734629835
0.2732369175
0.2728945835
0.2726349637
0.2723792133
0.2721441838
0.2724830863
0.2732086807
0.2736989179
0.2740156719
0.2735377889
0.2756220717
0.509049219
0.8714005349
0.989259218
1.018956064
1.025912381
1.03862498
1.044857977
1.047853098
1.050993173
1.04709183
1.050258516
1.052001993
1.054654446
1.057694446
0.2728626723
0.2736431767
0.2734279313
0.2732984678
0.27333327
0.2732086423
0.2725622453
0.2719023782
0.2721321413
0.2731023947
0.2736357384
0.2740300964
0.2737738973
0.2737872802
0.3545942944
0.7737193012
0.9707916977
1.022384159
1.033387818
1.045026211
1.04890734
1.049026102
1.051933583
1.048857223
1.051896668
1.0543911
1.057602223
1.061563036
0.2728332921
0.2736538927
0.2735682613
0.2739833099
0.274167749
0.273483184
0.2725785647
0.2717304498
0.2719481333
0.2730698006
0.2735079208
0.2739704621
0.2740002787
0.2736940714
0.2821992956
0.6291094731
0.9788394909
1.037746517
1.039924465
1.047353158
1.048930806
1.048136427
1.051174705
1.050263215
1.052296023
1.055615881
1.058865927
1.063390056
0.273592711
0.2740966581
0.2744278395
0.2748445214
0.2745201776
0.2735085294
0.2725740409
0.2716808015
0.2718687715
0.273018261
0.2733067221
0.2738383124
0.2739268385
0.2736325593
0.2740108789
0.4088908078
0.8792096151
1.032846252
1.041445423
1.039745863
1.038433316
1.041209367
1.0475385
1.049522781
1.050186773
1.054221337
1.057047594
1.06180617
0.2748905377
0.2746594187
0.2750729961
0.27512491
0.2745618727
0.2735191994
0.2725640572
0.2716557696
0.2718188949
0.2729291007
0.2732231112
0.2736704432
0.2737177677
0.274074506
0.2736522635
0.296316122
0.6495810056
0.9659469009
1.026225222
1.018085352
1.02592073
1.034967148
1.044956636
1.047036386
1.047551653
1.051164344
1.053615257
1.058735536
1.060765354
0.2753538214
0.2748170101
0.2751834379
0.2751649471
0.2745524907
0.2735183224
0.2725558874
0.2716281769
0.2717989703
0.2728732006
0.2731427655
0.2735975114
0.2736658231
0.2740633989
0.2732998606
0.2756827014
0.4790530662
0.8486477054
0.9806487781
1.009116941
1.022637707
1.033177363
1.044817429
1.046524579
1.046868818
1.050615395
1.053200201
1.058451005
1.060830329
0.2754369182
0.2748255094
0.2751767943
0.2751620345
0.2745332332
0.2735073942
0.2725349076
0.2715787356
0.2718107567
0.2728391996
0.2730815456
0.2735732897
0.2735873431
0.2736660391
0.273960166
0.2740821838
0.3338236637
0.7514231144
0.9527686802
1.01097223
1.031692948
1.04013459
1.046552148
1.045909975
1.048311351
1.052261956
1.054955619
1.060489081
1.062712261
0.2753644451
0.2748092929
0.2751429067
0.2750071785
0.2742287597
0.2732317545
0.2723882208
0.2715363214
0.2720226639
0.2728149122
0.2731062332
0.2736300933
0.2735497314
0.2734841692
0.2739611005
0.2736957516
0.2805047763
0.5864392124
0.9606778603
1.028733389
1.041751561
1.043898279
1.048900624
1.047822003
1.050872231
1.055183924
1.058290733
1.06367552
1.065523485
0.2743261968
0.2744744363
0.2745913455
0.2740815418
0.2734032614
0.2727852595
0.2721504218
0.271540058
0.2722190643
0.2728089243
0.2732044094
0.2736230152
0.2735799851
0.2734715937
0.2736837457
0.2733114953
0.2739121862
0.3885983549
0.8607651751
1.022755803
1.041817087
1.044442168
1.047712799
1.048457131
1.051327755
1.057047457
1.061247251
1.066093507
1.067402193
0.2730840589
0.2737906008
0.2736107723
0.273309221
0.2730211007
0.2726632257
0.2720870508
0.2717438978
0.272229589
0.2728753162
0.2732922267
0.2735945296
0.2735959125
0.2735720858
0.2735601259
0.2739194037
0.2735257183
0.2992380268
0.6535919256
0.9770652057
1.037344145
1.033328954
1.036168432
1.043168036
1.04910402
1.056164196
1.06090595
1.065289729
1.066160804
0.2726820619
0.2735090057
0.2732702586
0.2731386788
0.2729759843
0.2726693271
0.2722241395
0.2721523597
0.272203866
0.2729115518
0.2732905154
0.2735776075
0.2736076406
0.2736239332
0.2735519059
0.2738585012
0.2735263985
0.2759552092
0.4934471587
0.8523788525
0.9996623647
1.015638772
1.030969654
1.04134392
1.048465763
1.054524125
1.058127674
1.061706954
1.063164333
0.272606465
0.2734717278
0.273225839
0.2731203464
0.273047046
0.2729979347
0.2729607589
0.2722824968
0.2720031084
0.2728539102
0.2732449704
0.273480039
0.2736124789
0.273639353
0.2736043263
0.2736926816
0.273587336
0.2738192974
0.3602318096
0.7534372819
0.9645420772
1.014452517
1.033939409
1.042215213
1.048227827
1.053220014
1.056143651
1.059596564
1.061026121
1.061451601
0.2730504759
0.2735914424
0.2733746281
0.2735350237
0.2738686349
0.2739793613
0.2733875045
0.2723013554
0.2715624412
0.2725757937
0.2731173093
0.273293647
0.2736112587
0.2736629197
0.2736690781
0.27361548
0.2737369504
0.2733235022
0.286549206
0.6409424117
0.9550536238
1.029103281
1.05096803
1.052771609
1.054273076
1.056772851
1.057976902
1.061055803
1.061618408
1.062204004
0.2743737218
0.2741332355
0.2742039554
0.2746038301
0.2748467879
0.2744860773
0.2734554282
0.2723074564
0.271306439
0.2723842821
0.2730362991
0.2732234291
0.2735463587
0.2736530331
0.2737184822
0.2735943826
0.2737224221
0.273331019
0.2745805531
0.4483707531
0.8990251409
1.034388005
1.058630085
1.060587252
1.057631966
1.058773068
1.060676239
1.06303827
1.064306322
1.064424571
0.2750183666
0.2744278688
0.2747459102
0.2750529217
0.2751234943
0.2745793587
0.2734899182
0.2722993374
0.2712025842
0.2722888358
0.2729790262
0.2731987624
0.2734327868
0.2735571416
0.2737069919
0.2736038077
0.2737278584
0.2733573719
0.2732283731
0.3196855054
0.7342185312
1.01869794
1.054963486
1.058946371
1.058220419
1.061221484
1.061657464
1.064348078
1.065943075
1.065577044
0.2751442707
0.2744613636
0.2748226956
0.27511068
0.275161488
0.2745920148
0.2735027398
0.2722763937
0.2711372578
0.2722152349
0.2729507761
0.2731837167
0.2733899799
0.2734131327
0.2735874427
0.2736184191
0.2737918549
0.2733971702
0.2732298146
0.2778236835
0.5490013052
0.9144370196
1.02861141
1.043170017
1.050142026
1.056721649
1.059111191
1.06145678
1.063190933
1.063351386
0.2751373239
0.2744469429
0.2748083465
0.2750989711
0.2751496695
0.2745805169
0.2734995276
0.2722295132
0.2710805948
0.2721428926
0.2729863748
0.2731825744
0.2733835527
0.2733690103
0.2734037924
0.2736179067
0.2738377084
0.2734795509
0.2732230041
0.2737181848
0.4067697352
0.8042693182
0.9859385517
1.0320455
1.043214266
1.051143096
1.052919866
1.056184661
1.059257974
1.058992533
0.2742975532
0.2741719029
0.2746361052
0.2748176248
0.2747687356
0.2741993176
0.2733035274
0.2721053923
0.27106539
0.2721042525
0.2730396801
0.273227085
0.273454042
0.2733749965
0.2733568733
0.2736449926
0.273856022
0.2735641493
0.2732726687
0.2734023659
0.2962877901
0.713511381
0.9598227512
1.034485766
1.045764082
1.052312658
1.052797855
1.054282346
1.055786236
1.053329693
0.2728415824
0.2736044233
0.2738014345
0.2738464374
0.2737563053
0.2734333324
0.2729265158
0.2720244689
0.2713809867
0.2720765312
0.273186775
0.2733596514
0.2735245737
0.2733982105
0.2733555526
0.2735520651
0.2738469999
0.2736227571
0.2732829675
0.2733180163
0.2755174909
0.5286816602
0.953069921
1.054759207
1.058967724
1.058047083
1.05256256
1.051532675
1.052405808
1.053325712
1.053564995
0.2723021678
0.2733244617
0.2732409154
0.2732855214
0.2732902047
0.2731585305
0.272783233
0.272047907
0.2717544747
0.2719977237
0.2732477882
0.2734030302
0.2735518134
0.273463116
0.2733540081
0.2733232652
0.2737861099
0.2736488112
0.2732950475
0.2733314288
0.2733627189
0.3436083652
0.8312709413
1.049260301
1.059670211
1.060172221
1.056360578
1.055389901
1.056309446
1.056321951
1.055903063
0.2721925713
0.2732854599
0.2731669491
0.273189246
0.2732211394
0.2731382099
0.2727946555
0.2723836369
0.2718142071
0.2718478456
0.2732277402
0.2733886449
0.2735557494
0.273502808
0.2733642367
0.2731709804
0.2736253978
0.2736728364
0.2732860135
0.2733298581
0.27340128
0.2797629181
0.5931974909
0.9882090551
1.057330305
1.059236336
1.056078348
1.05458601
1.056819579
1.056599938
1.056620339
0.2725070158
0.2735867161
0.2733095729
0.2732962813
0.2733237209
0.2732875139
0.2731084973
0.2728965978
0.2717750813
0.2715109501
0.2730331146
0.273302497
0.2735471301
0.2735318492
0.2734152107
0.2731485749
0.2734842745
0.2736316292
0.2732975798
0.2733051386
0.2733876912
0.2736894546
0.4241325789
0.8325915854
1.0191777
1.041326175
1.047803123
1.049388008
1.053176604
1.054621059
1.055800553
0.2739726196
0.2741965021
0.274027658
0.2740346291
0.2741228431
0.2742031695
0.2739656188
0.2731310138
0.2716554857
0.2712608317
0.2728381769
0.2732204197
0.2734538011
0.2735518581
0.2734987566
0.2731763448
0.2734353742
0.2735900541
0.2733148957
0.2732417344
0.273401697
0.2734640758
0.3004882601
0.7161413914
0.9681884022
1.020024972
1.034424833
1.038679527
1.043323231
1.047270873
1.051813974
0.274850545
0.2743811081
0.2744246411
0.274540572
0.2747746557
0.2749052306
0.2744876414
0.2732034115
0.2714752301
0.2711368938
0.2727248882
0.2731447946
0.2733811623
0.2735030776
0.2735694092
0.2732157942
0.2734181229
0.273576846
0.2733588904
0.2732108021
0.2733866809
0.2734037049
0.2762203595
0.5611785352
0.9404706875
1.016441485
1.030414131
1.033517206
1.038554843
1.043147519
1.04781323
0.2750481969
0.2743915689
0.2744566019
0.2746169146
0.2748943958
0.2750689846
0.2746432814
0.2732642485
0.2713716437
0.2710657838
0.2726397422
0.2730905981
0.2733573191
0.2733243121
0.2736104633
0.2732578912
0.273409497
0.2735695429
0.2733993122
0.2732060646
0.2733065964
0.2733967207
0.273455026
0.3608711482
0.8572699199
1.032378812
1.042705322
1.039853228
1.039725948
1.041879977
1.04691616
0.2750837634
0.2743576405
0.2744437776
0.2746062977
0.2748879066
0.2750878121
0.2747034052
0.2733379882
0.2713237289
0.2710245398
0.2725757155
0.2730762458
0.2733423997
0.2732672615
0.2735042344
0.2732794568
0.2733818969
0.2735952887
0.2734387137
0.2732083201
0.2732559289
0.273376569
0.2733712933
0.2857538576
0.6488942509
1.004419822
1.049778958
1.049378661
1.048922964
1.048863721
1.05025338
0.2746360147
0.2738497223
0.2742178673
0.2744681108
0.2748330934
0.2750759424
0.274732377
0.2734292092
0.2713094776
0.2710126479
0.2725345674
0.2730913099
0.2733366523
0.2732771924
0.2733193945
0.273237284
0.2733129172
0.2735939541
0.2734669983
0.2732285399
0.2732358143
0.2733007607
0.2733301471
0.2739875851
0.4567927992
0.881766991
1.043473077
1.049240215
1.051371228
1.053769347
1.055441272
1.053701254
0.2729759024
0.2731178587
0.2733485221
0.2736635521
0.2742762537
0.274928441
0.2747369263
0.2735214165
0.2714895126
0.2710067998
0.2724900137
0.2730784097
0.2733719587
0.2733103113
0.273300724
0.2731331938
0.2731678897
0.2735849755
0.2734940848
0.2732592839
0.273221071
0.2732403279
0.2733454604
0.2734743824
0.3348877486
0.7273818429
1.001932931
1.045467342
1.049634225
1.053570039
1.055193122
1.056891613
0.271982052
0.2728838037
0.2728724632
0.2730260163
0.2735015211
0.2743199619
0.2746717136
0.2736041933
0.2719358803
0.2710830293
0.2724307374
0.273045009
0.2734046712
0.2733710612
0.2733341117
0.2730995189
0.2729958728
0.2735243397
0.273491091
0.2732652338
0.2732123516
0.2732315957
0.2733106037
0.2733125316
0.2797978771
0.6143456661
0.9196654774
1.016652808
1.033071701
1.041729289
1.050151962
1.057668126
0.2717658621
0.2728557749
0.2728169685
0.2729035426
0.2732491315
0.2738219082
0.2742104194
0.2736356291
0.2722341926
0.2710655931
0.2722585476
0.2730043797
0.2734247214
0.2734419109
0.2733754408
0.2731236099
0.2729067809
0.2734702674
0.2734794226
0.2732633739
0.2732127611
0.2732155384
0.2732589137
0.273274675
0.2743194525
0.4460964268
0.8587941564
0.9923581267
1.023580553
1.032029212
1.041597707
1.052219587
0.2718028061
0.273311964
0.2731054004
0.2730439215
0.2732369904
0.2736322229
0.2736495
0.2735291552
0.2723234818
0.2709809729
0.2720206603
0.2729449059
0.2734354624
0.2734942423
0.2734194629
0.2731601209
0.2728679075
0.2732371677
0.2734633488
0.2732753687
0.2732023654
0.2732282654
0.2732184759
0.2733099694
0.2733071102
0.3100144127
0.7685189661
0.9913660724
1.024771886
1.032382431
1.038665763
1.046705052
0.2729291583
0.2741654486
0.2739986354
0.2738218356
0.2736538241
0.2735855917
0.273429455
0.2730339826
0.2723256656
0.270895117
0.2718692693
0.2727537979
0.2734364606
0.2735346561
0.2734740821
0.2732021137
0.2728519467
0.2731068472
0.273390986
0.2732492346
0.2731861989
0.273215635
0.2731961423
0.2732506463
0.2732555988
0.2775551248
0.5684796766
0.9698461731
1.044586678
1.046485771
1.040223519
1.04570524
0.2741017707
0.27437452
0.2743842864
0.2742638991
0.274048451
0.2737472531
0.2733885074
0.2727842531
0.2723048291
0.2708419942
0.2717662837
0.2725013819
0.2732989556
0.2734020152
0.273489918
0.2732887574
0.2728521011
0.2730677243
0.2732522387
0.2731770415
0.2731420319
0.2731947417
0.2732069681
0.2732084293
0.2732107792
0.2733760165
0.3949476628
0.869504126
1.042536337
1.057114324
1.053426792
1.051479915
0.2744586562
0.2743628508
0.274407667
0.2743136237
0.2741112671
0.2739505921
0.2734451994
0.2727433217
0.2722286355
0.2708073029
0.2716966398
0.272361155
0.2729293751
0.2729999862
0.2734754182
0.2733611459
0.2728762837
0.2730798639
0.2731993718
0.2731438771
0.2730410638
0.2731464793
0.2731959939
0.273154161
0.273232297
0.2733008739
0.3002305553
0.6796565317
1.012451989
1.056632094
1.06263356
1.06172815
1.057138866
0.2745207552
0.2743313503
0.2743776945
0.2742980931
0.2740929327
0.2740205218
0.2737908957
0.272762853
0.2719665055
0.2707771388
0.271640337
0.2722677063
0.2727598998
0.2728557713
0.2732788949
0.2734005119
0.2728952977
0.2730444798
0.2731904451
0.2731449006
0.2729879389
0.2730479
0.2731738422
0.2731753858
0.2731852287
0.2731350408
0.2752413923
0.5435466327
0.8990975864
1.044559799
1.061119291
1.063333239
1.063845325
0.2744531278
0.2737750133
0.2739137932
0.2739335975
0.2739728275
0.2740247289
0.2741732113
0.2733654381
0.2718870048
0.2707176315
0.271612042
0.272189194
0.2727389867
0.2728781724
0.2731086585
0.2734174285
0.2728933572
0.2730374637
0.2732101542
0.2731359909
0.2729710701
0.2729786803
0.2731328761
0.2731703397
0.2731549409
0.2731091813
0.2736861631
0.3862318328
0.8029858956
0.9935413505
1.041777715
1.062106815
1.067106949
0.2734481764
0.2726443585
0.2728001277
0.272913379
0.2732408251
0.2739465725
0.2744186782
0.2742604391
0.2725427256
0.2706103477
0.2715877245
0.2721276194
0.2728098276
0.2729694251
0.2730429112
0.2733549832
0.2728380357
0.2729354347
0.2731895016
0.2731449119
0.272988318
0.2729556301
0.2730155379
0.2731672535
0.2730975195
0.2731234349
0.2731357414
0.2905923911
0.7161295793
0.9587992234
1.026492316
1.046590538
1.064234622
0.2718948038
0.2722459804
0.2723180408
0.2723974287
0.2726189922
0.2735825543
0.2745086631
0.2745750142
0.2731105292
0.2705603473
0.2714763619
0.2720764155
0.2728628978
0.2730755488
0.2730065822
0.2731584251
0.2728099045
0.2728041641
0.2731579495
0.2731212085
0.2729923387
0.2729471201
0.2729294348
0.2731460826
0.2731057063
0.273141842
0.2730920043
0.275334988
0.5341155094
0.9638958646
1.028332112
1.040014331
1.052157635
0.2712851966
0.2721905578
0.2722550976
0.2723137182
0.2724827579
0.2733926829
0.274524955
0.2746154254
0.2731456481
0.2707923407
0.2712947047
0.2720191338
0.2728920891
0.2730893309
0.2729472402
0.2730703604
0.2728073012
0.2726571837
0.2730014732
0.2731147573
0.2729937862
0.2729481254
0.2729018118
0.2730207658
0.2730976957
0.273116857
0.2731294544
0.2730863924
0.3615782482
0.8697510437
1.049708031
1.045761759
1.047480249
0.2711651189
0.2725576415
0.2726638414
0.2726048322
0.2726022172
0.2733860723
0.2744891776
0.2746033058
0.2731092891
0.27081584
0.2711225121
0.2718252717
0.2729000207
0.2731299913
0.2729284942
0.2730552465
0.2728186891
0.2726083223
0.2728302634
0.2730491837
0.2729678676
0.272922153
0.2728860277
0.2728954561
0.2730908495
0.273068789
0.2731892439
0.273177644
0.2879564335
0.6684672629
1.033644012
1.066546373
1.052817585
0.2714575238
0.2736365692
0.2737627575
0.273687331
0.2734877649
0.2736423337
0.2740604771
0.2742060431
0.2730431927
0.2707715152
0.2709686789
0.2716507953
0.2728915676
0.2730918268
0.272935584
0.2731027609
0.272866417
0.2725794023
0.2727388908
0.2729074117
0.2729340745
0.2729043699
0.2728797904
0.2728445866
0.2730420762
0.2730617404
0.2731863465
0.2731397187
0.2739828648
0.5024051308
0.9394000962
1.070464507
1.068955474
0.2726806745
0.2740112213
0.2741601202
0.2741941297
0.274045493
0.273778325
0.2735325031
0.2730505313
0.2725740936
0.2707411859
0.2708563842
0.2715581256
0.2727115886
0.2730198416
0.2729944761
0.273122585
0.2729161771
0.2725911993
0.2726856905
0.272765463
0.2727948055
0.2728513034
0.2728453863
0.2728181914
0.2729013101
0.2730450029
0.2731230106
0.2731333547
0.273336835
0.3629999708
0.7847601466
1.059936606
1.068672134
1.064348331
0.2734226184
0.2740072514
0.2741707746
0.2742318356
0.2741029325
0.2737554415
0.2733376219
0.2723926647
0.2718100131
0.2706936569
0.2707514459
0.2714806605
0.2724184731
0.2726838565
0.2729481277
0.273127227
0.2729356224
0.2726131294
0.2726642058
0.2727083577
0.2726793959
0.2727509644
0.2728203982
0.2728082989
0.2728100817
0.2729644965
0.2730251287
0.2731296837
0.2730471449
0.2838197392
0.6810574021
0.9825195318
1.066423446
1.068542769
0.2735904486
0.2739812955
0.274137294
0.274215673
0.2740914698
0.2737250184
0.2732654679
0.2722993891
0.2716446205
0.270590216
0.2706500658
0.2714001698
0.2722471831
0.2724602212
0.2726521254
0.273078492
0.2729456669
0.2726199001
0.2726500877
0.272679523
0.2726166631
0.2726066127
0.2727640324
0.2727786388
0.2727438319
0.2727969553
0.2729524797
0.2730586643
0.2729781455
0.2748308006
0.5328088399
0.9025801336
1.042340069
1.067452753
0.2735981558
0.273533314
0.2735336108
0.2737995379
0.2738554815
0.2736440386
0.2732230758
0.2724217417
0.2717323632
0.270476766
0.2705656518
0.2713067072
0.2721545956
0.2723904575
0.2724134904
0.2729196542
0.2729378697
0.2726089368
0.2726477776
0.2726831533
0.2726036038
0.272529376
0.2726313953
0.2727205639
0.2727066065
0.2726858649
0.2727795505
0.2728992732
0.2729330552
)
;

boundaryField
{
    inlet
    {
        type            fixedValue;
        value           nonuniform 0();
    }
    outlet
    {
        type            zeroGradient;
    }
    bottom
    {
        type            slip;
    }
    top
    {
        type            slip;
    }
    obstacle
    {
        type            zeroGradient;
    }
    defaultFaces
    {
        type            empty;
    }
    procBoundary21to15
    {
        type            processor;
        value           nonuniform List<scalar> 
23
(
0.9963469033
0.9987088456
1.010624979
1.032534884
1.056093479
1.073663009
1.080483547
1.082091609
1.077433474
1.064484701
1.056055909
1.047588661
1.046159816
1.048022093
1.050209596
1.058923592
1.062364712
0.5413740388
0.9040268349
1.045071498
1.01150045
1.003405554
1.003405554
)
;
    }
    procBoundary21to22
    {
        type            processor;
        value           nonuniform List<scalar> 
70
(
1.063355134
1.057728535
1.051176106
1.047588313
1.064683676
1.063785014
1.063785014
1.05007878
1.059894973
1.063343019
1.055140214
1.056988668
1.073665119
1.073665119
1.061547987
1.053321596
1.055991905
1.062552415
1.063770438
1.063598036
1.059974469
1.059974469
1.054008565
1.053690473
1.055418999
1.058442765
1.06070235
1.06018295
1.06018295
1.05572239
1.054078629
1.054325329
1.056995755
1.060561101
1.060224671
1.058826215
1.058826215
1.057303793
1.05706953
1.059680083
1.061273462
1.062477525
1.062495079
1.062495079
1.062566001
1.062898959
1.063826565