/*--------------------------------*- C++ -*----------------------------------*\
  =========                 |
  \\      /  F ield         | OpenFOAM: The Open Source CFD Toolbox
   \\    /   O peration     | Website:  https://openfoam.org
    \\  /    A nd           | Version:  7
     \\/     M anipulation  |
\*---------------------------------------------------------------------------*/
FoamFile
{
    version     2.0;
    format      ascii;
    class       volVectorField;
    location    "4.2";
    object      U;
}
// * * * * * * * * * * * * * * * * * * * * * * * * * * * * * * * * * * * * * //

dimensions      [0 1 -1 0 0 0 0];

internalField   nonuniform List<vector> 
555
(
(3.25114307 -0.001002355457 0)
(3.250503258 -0.0003872500715 0)
(3.250410086 0.001169083245 0)
(3.259315982 3.639635166e-06 0)
(3.259785113 0.0006968106032 0)
(3.259768791 0.0009063533535 0)
(3.259749191 0.0008316737648 0)
(3.259484924 0.0007360776521 0)
(3.25918938 0.000782201547 0)
(3.2589885 0.0008629896721 0)
(3.259127334 0.001500199518 0)
(3.259350644 0.002265473685 0)
(3.259429082 0.002447151753 0)
(3.259048501 0.002194186253 0)
(3.258044694 0.001572904104 0)
(3.256551702 0.001117285731 0)
(3.255113243 0.0007138173433 0)
(3.25361656 8.402343114e-05 0)
(3.252417235 2.236690827e-05 0)
(3.251457526 0.0003177388739 0)
(3.250622948 0.0008614040847 0)
(3.250179075 0.002062361094 0)
(3.258500149 -0.0003293333431 0)
(3.259038908 -0.0003317420011 0)
(3.259037635 -0.0002607459888 0)
(3.258982569 -0.0006502054308 0)
(3.258883446 -0.001041781719 0)
(3.258595938 -0.001346422351 0)
(3.258345034 -0.00125549594 0)
(3.258332377 -0.0007561312425 0)
(3.258449437 0.0002231278054 0)
(3.2585262 0.001548199669 0)
(3.258073039 0.002469442429 0)
(3.257111112 0.002552838093 0)
(3.255582415 0.002551812575 0)
(3.254050313 0.002351845388 0)
(3.25249145 0.002054319616 0)
(3.251406568 0.001851697608 0)
(3.250557454 0.001648809368 0)
(3.24965313 0.0014488869 0)
(3.248652403 0.001737453891 0)
(3.256448124 -0.0001917558512 0)
(3.256840332 -0.00102313471 0)
(3.257119935 -0.001589657545 0)
(3.256896148 -0.002138702939 0)
(3.256577935 -0.002715189373 0)
(3.256276256 -0.00281030644 0)
(3.256013458 -0.00256751294 0)
(3.25601047 -0.002293077328 0)
(3.256180287 -0.001793107615 0)
(3.256336753 -0.0007446023048 0)
(3.255843016 0.001199140666 0)
(3.254792553 0.002575361434 0)
(3.253392761 0.00308575812 0)
(3.251781541 0.003215945405 0)
(3.250325925 0.003194713192 0)
(3.248964292 0.002967572235 0)
(3.247976504 0.002374335264 0)
(3.247249523 0.001739481778 0)
(3.247031904 0.001554225595 0)
(3.25189773 -0.0001123885561 0)
(3.252369361 -0.0008302769105 0)
(3.252658101 -0.001450904681 0)
(3.252593118 -0.0020243719 0)
(3.252201467 -0.002281420521 0)
(3.251864933 -0.00232814246 0)
(3.251741084 -0.002040215826 0)
(3.251815495 -0.001831557865 0)
(3.252111102 -0.00188134579 0)
(3.252317622 -0.001552950989 0)
(3.251861925 -0.0007215360446 0)
(3.2507497 0.000666101744 0)
(3.249299306 0.001915646172 0)
(3.247851552 0.003186637977 0)
(3.246801862 0.003333606033 0)
(3.245603382 0.003253709662 0)
(3.244451268 0.002695967983 0)
(3.244120427 0.001529884531 0)
(3.244072706 0.0005679892703 0)
(3.243626921 -2.043142461e-05 0)
(3.244333549 -0.0006901656272 0)
(3.244689032 -0.001411420776 0)
(3.244773901 -0.001682348489 0)
(3.244430953 -0.001517625398 0)
(3.24407828 -0.001291028447 0)
(3.244079666 -0.001060009457 0)
(3.244181406 -0.0008911935117 0)
(3.244521812 -0.0009233537748 0)
(3.24467626 -0.0008013697447 0)
(3.244579992 -0.001115671502 0)
(3.243849119 -0.000739306368 0)
(3.242817467 -0.0001138663038 0)
(3.241613816 0.0007372431703 0)
(3.240689589 0.00125632622 0)
(3.23979409 0.001673640265 0)
(3.238962665 0.001568694988 0)
(3.238186325 0.0009056857475 0)
(3.237028533 -0.0003060669926 0)
(3.230990522 0.0008871988729 0)
(3.231716687 0.0004992549536 0)
(3.232180109 -4.754098573e-05 0)
(3.232282344 -0.0003703999272 0)
(3.232027308 -0.0003810990195 0)
(3.231804195 -0.0001892846601 0)
(3.231948334 -6.17564407e-05 0)
(3.232450711 -3.497201298e-05 0)
(3.232859371 -0.0002682138562 0)
(3.233019625 -0.0006061667945 0)
(3.232979635 -0.001214842726 0)
(3.232598329 -0.00120370246 0)
(3.232016276 -0.001213178963 0)
(3.231298329 -0.001720262046 0)
(3.230384168 -0.001811164013 0)
(3.229325748 -0.001582947366 0)
(3.228140327 -0.0008970249499 0)
(3.226835758 -0.0001202709458 0)
(3.226021586 -0.0005804161132 0)
(3.21449108 0.001634808747 0)
(3.21506085 0.001628065657 0)
(3.215380716 0.001362845979 0)
(3.215501 0.0009675639372 0)
(3.215577326 0.001040367839 0)
(3.215818902 0.001130571841 0)
(3.216531489 0.0009085903118 0)
(3.217370554 0.0006458789837 0)
(3.217964194 0.0002944184568 0)
(3.218194259 -0.0003911116589 0)
(3.217839523 -0.001445455676 0)
(3.21740983 -0.001955918103 0)
(3.216620057 -0.002444668404 0)
(3.215823703 -0.003356143768 0)
(3.214913061 -0.003570905705 0)
(3.213869523 -0.003450955805 0)
(3.212698428 -0.00275281672 0)
(3.211674 -0.001625937648 0)
(3.211407833 -0.00109938956 0)
(3.194561432 0.00256616546 0)
(3.194986991 0.002984445206 0)
(3.19556166 0.002516440511 0)
(3.195967518 0.001750692963 0)
(3.196274468 0.001670535315 0)
(3.196791074 0.001652266729 0)
(3.197486877 0.001428237041 0)
(3.198206526 0.00129572545 0)
(3.198815452 0.001148980639 0)
(3.199058076 0.0005438473573 0)
(3.198805354 -0.0007369512176 0)
(3.198502327 -0.002110949012 0)
(3.197611915 -0.003105850804 0)
(3.196406534 -0.00415344624 0)
(3.195488327 -0.004265307908 0)
(3.194504075 -0.004291376441 0)
(3.193848175 -0.003774967406 0)
(3.193364893 -0.002458675475 0)
(3.192797542 -0.0008458132963 0)
(3.173177011 0.002776841056 0)
(3.173619066 0.002510832564 0)
(3.173954478 0.001802627724 0)
(3.174008353 0.001581132408 0)
(3.174250868 0.001346134598 0)
(3.174618285 0.001047001841 0)
(3.175453233 0.0008307960026 0)
(3.176231266 0.0007511584036 0)
(3.176563481 0.0004571967882 0)
(3.176173354 7.553331198e-05 0)
(3.175740208 -0.001158847342 0)
(3.175136237 -0.002467406204 0)
(3.173659401 -0.003579590286 0)
(3.172190741 -0.003616336401 0)
(3.171199055 -0.003381530576 0)
(3.170451043 -0.002796015269 0)
(3.17001244 -0.001498121878 0)
(3.169702765 -0.0003644505238 0)
(3.149855191 0.002052182536 0)
(3.150013063 0.00171794411 0)
(3.149889556 0.001037420452 0)
(3.149806051 0.0005528506933 0)
(3.150008672 0.0002772690212 0)
(3.150573169 -2.735212359e-05 0)
(3.151371918 4.033911584e-06 0)
(3.1523104 0.0001491954604 0)
(3.152737963 0.0002148439297 0)
(3.152265525 0.0004260605427 0)
(3.151194832 -0.000338728802 0)
(3.149993853 -0.001065443687 0)
(3.14896182 -0.0002819464034 0)
(3.147687269 -0.0003821241768 0)
(3.146306137 -0.0001794933133 0)
(3.145201453 0.0001587817477 0)
(3.144631148 0.0002276561949 0)
(3.145049646 0.0002779771033 0)
(3.124985787 0.0004335304678 0)
(3.125239635 0.0003702302964 0)
(3.125110394 -0.0002434749866 0)
(3.124886043 -0.000828793561 0)
(3.124874645 -0.001274146108 0)
(3.125119128 -0.001405610982 0)
(3.125626878 -0.001078799529 0)
(3.126357174 -0.0004757472689 0)
(3.126733817 0.0001142477367 0)
(3.126943223 0.0009657093829 0)
(3.126159997 0.001213086555 0)
(3.12495113 0.001574331925 0)
(3.123603552 0.002377616458 0)
(3.122377619 0.002721845461 0)
(3.121281071 0.003380821323 0)
(3.120179258 0.003238069668 0)
(3.119355696 0.002277873933 0)
(3.119193035 0.001544171533 0)
(3.100283353 -0.0007983796166 0)
(3.100249876 -0.001170697478 0)
(3.099790953 -0.001559514152 0)
(3.099289136 -0.002003977704 0)
(3.098929611 -0.002285682838 0)
(3.098977036 -0.002275124947 0)
(3.099447073 -0.001909531404 0)
(3.100046997 -0.001244774243 0)
(3.100298483 -0.0003602972949 0)
(3.100666534 0.0008583139011 0)
(3.100273918 0.002099527088 0)
(3.099452129 0.003303400836 0)
(3.09807584 0.003864702042 0)
(3.096251222 0.004448514271 0)
(3.094485132 0.00469207429 0)
(3.093192337 0.004616484735 0)
(3.0920545 0.003829017902 0)
(3.090887828 0.002723498652 0)
(3.075593007 -0.001605125922 0)
(3.075237236 -0.002183889545 0)
(3.074516548 -0.002289431405 0)
(3.073883963 -0.002328269142 0)
(3.073459463 -0.002295954908 0)
(3.073617648 -0.002199826808 0)
(3.074217293 -0.001623352922 0)
(3.074825146 -0.001046256079 0)
(3.074863815 -0.000237436413 0)
(3.074950431 0.0004746879523 0)
(3.07434173 0.002049638048 0)
(3.073183233 0.003557797098 0)
(3.071251255 0.004372536608 0)
(3.069303411 0.004532753768 0)
(3.067486846 0.004523208781 0)
(3.065913843 0.004135576564 0)
(3.064794547 0.002941524029 0)
(3.06384911 0.00147375862 0)
(3.050879902 -0.001681950597 0)
(3.050320724 -0.001945222727 0)
(3.049776897 -0.001792882108 0)
(3.04916667 -0.001653642517 0)
(3.048648671 -0.001329664461 0)
(3.048465438 -0.001379289383 0)
(3.048902966 -0.0008747072934 0)
(3.049411492 -0.0004339765161 0)
(3.049609654 0.0002065809346 0)
(3.049570537 0.0008641104314 0)
(3.048709515 0.001924619791 0)
(3.047070267 0.002696960777 0)
(3.045505077 0.003551835268 0)
(3.044207044 0.003425873029 0)
(3.042506615 0.002709926395 0)
(3.04114913 0.001957415832 0)
(3.040043185 0.001204764175 0)
(3.038913932 0.0002613508094 0)
(3.027623188 0.0002233544235 0)
(3.026679697 -0.0003091768726 0)
(3.025898738 -0.0007076054132 0)
(3.025108983 -0.0008303148794 0)
(3.024638964 -0.0003991337 0)
(3.024175147 -0.0005174934008 0)
(3.024302092 -0.0004825800739 0)
(3.02477385 -0.0004824085682 0)
(3.025276514 -0.0001453163301 0)
(3.025315738 0.0003266436715 0)
(3.024442454 0.0009946419132 0)
(3.022853237 0.001485721242 0)
(3.021674461 0.001627999945 0)
(3.020303289 0.001206165279 0)
(3.018729598 0.0002952541891 0)
(3.017393006 -0.0004808983956 0)
(3.015590587 -0.0006476540362 0)
(3.013527078 -0.0007222531498 0)
(3.005091798 0.002063555956 0)
(3.004431837 0.001682640292 0)
(3.003292722 0.0006780134867 0)
(3.002139315 -0.0001885946632 0)
(3.001407019 -0.0001203008285 0)
(3.00109224 -0.0002017234637 0)
(3.001093625 -0.0004910314603 0)
(3.001838929 -0.0006355750907 0)
(3.002869639 -0.0005582522296 0)
(3.002956487 -0.0002934481891 0)
(3.001925365 -0.0001499752798 0)
(3.000511688 -7.792005538e-05 0)
(2.999431716 -0.001046246739 0)
(2.997883347 -0.001946826629 0)
(2.995924466 -0.00217542539 0)
(2.993408584 -0.002112924981 0)
(2.991436848 -0.001738357649 0)
(2.989114736 -0.001656490768 0)
(2.982318881 0.002880742778 0)
(2.981761473 0.002833471228 0)
(2.980957563 0.001817739486 0)
(2.979914208 0.0005746756627 0)
(2.97892968 -4.602197772e-05 0)
(2.978547725 8.130960961e-05 0)
(2.978845497 -7.90571182e-05 0)
(2.979729459 -4.769429697e-05 0)
(2.98080629 -0.0003320810575 0)
(2.980789814 -0.0005127488061 0)
(2.979877308 -0.001016454044 0)
(2.978742871 -0.001713441652 0)
(2.977037478 -0.002630656635 0)
(2.974862179 -0.003101468867 0)
(2.972941108 -0.003042438717 0)
(2.971004036 -0.00264031532 0)
(2.969127806 -0.001920723216 0)
(2.96713835 -0.001413786576 0)
(2.960063667 0.002934059528 0)
(2.959539513 0.002787465039 0)
(2.958870169 0.001922281259 0)
(2.957924287 0.0006705500378 0)
(2.957221986 -0.0001617727325 0)
(2.956867723 -0.0001736410428 0)
(2.957256459 -0.0003680217811 0)
(2.957920638 -0.001071924874 0)
(2.958723279 -0.002002503737 0)
(2.958673656 -0.00203126326 0)
(2.95828228 -0.002994196314 0)
(2.957335804 -0.003836740509 0)
(2.955766486 -0.003755832597 0)
(2.953730933 -0.003376657732 0)
(2.951631968 -0.003064133379 0)
(2.950153901 -0.002005534274 0)
(2.948825529 -0.0008134490558 0)
(2.947085134 -0.0003205742442 0)
(2.939361937 0.001805573277 0)
(2.939170026 0.001560035802 0)
(2.93861963 0.0009455776328 0)
(2.937693198 -1.185352543e-05 0)
(2.937129406 -0.0007926451934 0)
(2.93693093 -0.001296771033 0)
(2.937129753 -0.001793726252 0)
(2.937819079 -0.002203311487 0)
(2.938626008 -0.002589376628 0)
(2.938424759 -0.003375430825 0)
(2.93842037 -0.003627558361 0)
(2.937985642 -0.003984650815 0)
(2.936832883 -0.003705929048 0)
(2.935088073 -0.002740256466 0)
(2.933873849 -0.001393813442 0)
(2.932887663 -0.0003575881695 0)
(2.932143434 0.0008036373886 0)
(2.931301482 0.001291262578 0)
(2.920664776 0.0004085947175 0)
(2.921080664 6.834248026e-05 0)
(2.920919109 -0.0003393926658 0)
(2.920111231 -0.0007127132191 0)
(2.919560978 -0.001130446098 0)
(2.919422993 -0.001744027046 0)
(2.91971901 -0.003008558332 0)
(2.920948312 -0.003288257921 0)
(2.921860678 -0.002880792753 0)
(2.921674347 -0.003068641283 0)
(2.922192173 -0.002746318249 0)
(2.92216803 -0.002188393253 0)
(2.921565273 -0.001614860625 0)
(2.920981576 -0.0005611477663 0)
(2.920206801 0.0009308820922 0)
(2.919779965 0.001945107508 0)
(2.919274965 0.002423419842 0)
(2.920206735 0.00268136185 0)
(2.904443874 -0.0009259124905 0)
(2.905203429 -0.0009814525599 0)
(2.905450654 -0.001094863792 0)
(2.904924495 -0.001256826618 0)
(2.904548469 -0.001578192668 0)
(2.904607399 -0.002307312277 0)
(2.905127884 -0.003212392289 0)
(2.906715511 -0.003060713073 0)
(2.908044871 -0.002256351649 0)
(2.909074425 -0.001219630738 0)
(2.90969318 -0.0009734508512 0)
(2.909590945 -0.0003411398088 0)
(2.90948148 0.0007649268441 0)
(2.909650952 0.001895314279 0)
(2.909182831 0.003070892693 0)
(2.908430606 0.003789719267 0)
(2.90814719 0.003957068275 0)
(2.908998907 0.003045631675 0)
(2.89128806 -0.001062466648 0)
(2.892033521 -0.001264945314 0)
(2.892483729 -0.001427937127 0)
(2.892356179 -0.00129179362 0)
(2.8922548 -0.001082162653 0)
(2.892613607 -0.001546604219 0)
(2.893316668 -0.002238182219 0)
(2.89449862 -0.002200095477 0)
(2.895611194 -0.001577833712 0)
(2.897443667 -0.0007412562735 0)
(2.898126482 2.329047851e-05 0)
(2.898573344 0.0009432751991 0)
(2.898629495 0.002171193788 0)
(2.898870121 0.003090319759 0)
(2.89851933 0.003828178831 0)
(2.897560397 0.004473516781 0)
(2.896640595 0.004119857237 0)
(2.896650216 0.003041619532 0)
(2.882546704 -0.0001072076773 0)
(2.882786209 -0.0004024804228 0)
(2.882960322 -0.0004059582645 0)
(2.883076822 -5.587929552e-05 0)
(2.883610958 -0.0003441891881 0)
(2.884058224 -0.00113654882 0)
(2.884619526 -0.001166103903 0)
(2.885396964 -0.0005894801877 0)
(2.887094652 1.32484569e-05 0)
(2.887762215 0.0009152876876 0)
(2.888134202 0.001708443977 0)
(2.888266663 0.002789609087 0)
(2.888822328 0.004007782458 0)
(2.888780233 0.003493546836 0)
(2.888294242 0.002119036389 0)
(2.887700665 0.0007338304278 0)
(2.888757209 -0.0007070183171 0)
(2.876210983 0.001799020089 0)
(2.876666739 0.001296261729 0)
(2.87664056 0.0007504209722 0)
(2.876719941 0.0005666352002 0)
(2.876852004 0.0003120391989 0)
(2.877220213 1.156358531e-05 0)
(2.8776865 5.80554999e-05 0)
(2.878296273 0.0007340013311 0)
(2.879217699 0.001358350447 0)
(2.880093287 0.002295491683 0)
(2.880718571 0.00288277972 0)
(2.881058769 0.002721632259 0)
(2.881230409 0.002171846 0)
(2.881462487 0.0009083515347 0)
(2.882078391 -0.001212964244 0)
(2.883621149 -0.002041164162 0)
(2.884664277 -0.002311484224 0)
(2.869632522 0.002621399847 0)
(2.870513861 0.001884480865 0)
(2.870821515 0.0008974447744 0)
(2.87088723 0.0001198988374 0)
(2.870944025 -0.0002357624376 0)
(2.871391131 -0.0002703208229 0)
(2.872090212 7.057963597e-05 0)
(2.872958692 0.001022812959 0)
(2.873781398 0.001861022518 0)
(2.874301577 0.002681612889 0)
(2.874804207 0.002971861663 0)
(2.875326886 0.002453858306 0)
(2.875611053 0.0003059088594 0)
(2.876701204 -0.002582760776 0)
(2.878288523 -0.003629283503 0)
(2.879103878 -0.003358088291 0)
(2.879484921 -0.002789109804 0)
(2.862123593 0.003980633795 0)
(2.863102341 0.003121299991 0)
(2.86406022 0.001189735814 0)
(2.864786396 -0.0009224775477 0)
(2.865234951 -0.001354462938 0)
(2.865803054 -0.00115036744 0)
(2.866546197 -0.0006602332062 0)
(2.867666359 5.385880064e-05 0)
(2.868848421 0.0007237745498 0)
(2.869230907 0.001049205437 0)
(2.869515871 0.0007112034768 0)
(2.870278805 -0.001108589189 0)
(2.871657976 -0.003873880178 0)
(2.872805259 -0.00500075617 0)
(2.873386812 -0.004343242173 0)
(2.873297577 -0.003330635191 0)
(2.873929127 -0.002413259904 0)
(2.857149796 0.001704715422 0)
(2.858084173 0.0005422210267 0)
(2.859141666 -0.001323115422 0)
(2.86003383 -0.002955204441 0)
(2.860565902 -0.003021174236 0)
(2.861296645 -0.002825118662 0)
(2.862181836 -0.002438414251 0)
(2.863320203 -0.001431151671 0)
(2.864365346 -0.0007460611805 0)
(2.865055978 -0.001130889345 0)
(2.865641043 -0.002346938941 0)
(2.866274026 -0.003933142313 0)
(2.867068041 -0.004698698478 0)
(2.867925164 -0.004217864501 0)
(2.867858778 -0.003489582423 0)
(2.868209215 -0.002503284463 0)
(2.868874835 -0.001280107962 0)
(2.854998136 -0.0002508744863 0)
(2.855990047 -0.001116436858 0)
(2.856634599 -0.001984083778 0)
(2.856765825 -0.003021873885 0)
(2.857467481 -0.003154281732 0)
(2.858259526 -0.003294718356 0)
(2.859307428 -0.003293174854 0)
(2.860411212 -0.003072602806 0)
(2.860977393 -0.00310375513 0)
(2.861489554 -0.003374253799 0)
(2.861913817 -0.003758831955 0)
(2.862396404 -0.00370899405 0)
(2.862973701 -0.002996232284 0)
(2.863652108 -0.002264647282 0)
(2.865142484 -0.001097642639 0)
(2.865631511 -0.0008054795003 0)
(2.86564841 -0.0002827742529 0)
(2.853831481 -0.001246877364 0)
(2.854980575 -0.001378552205 0)
(2.855395937 -0.001440344164 0)
(2.855261733 -0.001904179979 0)
(2.8557716 -0.002232475048 0)
(2.856513786 -0.002483954958 0)
(2.857790166 -0.002408999072 0)
(2.858743665 -0.002567509883 0)
(2.858864681 -0.002788586328 0)
(2.859036966 -0.002700794279 0)
(2.859308925 -0.002612800748 0)
(2.8602136 -0.001539833888 0)
(2.861223679 0.0002301274742 0)
(2.862551558 0.001627101526 0)
(2.863729285 0.002032107086 0)
(2.864237013 0.001647711803 0)
(2.864219317 0.001232336578 0)
(2.853385119 -0.001349686437 0)
(2.854341018 -0.001202604878 0)
(2.854731554 -0.0006373724333 0)
(2.855133468 -0.0005091032996 0)
(2.855656323 -0.0007221831863 0)
(2.856316697 -0.001260284942 0)
(2.857145287 -0.001495945832 0)
(2.858132116 -0.0018578495 0)
(2.85816713 -0.001794310606 0)
(2.858286799 -0.001235582297 0)
(2.858515218 -0.0007320253231 0)
(2.859544953 0.0003256056984 0)
(2.860484019 0.002221386754 0)
(2.861371606 0.004186606647 0)
(2.862504468 0.005200342152 0)
(2.862807426 0.005324241505 0)
(2.863313408 0.00338839292 0)
(2.854538055 -0.0005056061493 0)
(2.855445646 -0.0003169363945 0)
(2.855690291 0.0001780888456 0)
(2.855746954 0.0008917897967 0)
(2.855844435 0.0008593058506 0)
(2.856299548 0.0002696090248 0)
(2.857283912 -0.0007321391903 0)
(2.858291835 -0.001340914779 0)
(2.858460016 -0.00139647069 0)
(2.858654093 -0.0005709216226 0)
(2.858929431 0.0002862392588 0)
(2.859526307 0.001428610135 0)
)
;

boundaryField
{
    inlet
    {
        type            fixedValue;
        value           nonuniform 0();
    }
    outlet
    {
        type            inletOutlet;
        inletValue      uniform (3 0 0);
        value           nonuniform List<vector> 
31
(
(3.250179075 0.002062361094 0)
(3.248652403 0.001737453891 0)
(3.247031904 0.001554225595 0)
(3.244072706 0.0005679892703 0)
(3.237028533 -0.0003060669926 0)
(3.226021586 -0.0005804161132 0)
(3.211407833 -0.00109938956 0)
(3.192797542 -0.0008458132963 0)
(3.169702765 -0.0003644505238 0)
(3.145049646 0.0002779771033 0)
(3.119193035 0.001544171533 0)
(3.090887828 0.002723498652 0)
(3.06384911 0.00147375862 0)
(3.038913932 0.0002613508094 0)
(3.013527078 -0.0007222531498 0)
(2.989114736 -0.001656490768 0)
(2.96713835 -0.001413786576 0)
(2.947085134 -0.0003205742442 0)
(2.931301482 0.001291262578 0)
(2.920206735 0.00268136185 0)
(2.908998907 0.003045631675 0)
(2.896650216 0.003041619532 0)
(2.888757209 -0.0007070183171 0)
(2.884664277 -0.002311484224 0)
(2.879484921 -0.002789109804 0)
(2.873929127 -0.002413259904 0)
(2.868874835 -0.001280107962 0)
(2.86564841 -0.0002827742529 0)
(2.864219317 0.001232336578 0)
(2.863313408 0.00338839292 0)
(3.250410086 0.001169083245 0)
)
;
    }
    bottom
    {
        type            slip;
    }
    top
    {
        type            slip;
    }
    obstacle
    {
        type            slip;
    }
    defaultFaces
    {
        type            empty;
    }
    procBoundary23to17
    {
        type            processor;
        value           nonuniform List<vector> 
20
(
(3.250294835 -0.001625179613 0)
(3.24952092 -0.001377518633 0)
(3.249420007 -0.0001891748248 0)
(3.259109313 0.0002971407234 0)
(3.25956046 0.001102171692 0)
(3.260114255 0.00158314066 0)
(3.259944065 0.001777212133 0)
(3.259651938 0.00198369361 0)
(3.259265698 0.001823785814 0)
(3.259033164 0.001985789168 0)
(3.259287092 0.002452198089 0)
(3.259603291 0.002602948558 0)
(3.259518658 0.002341513403 0)
(3.258909924 0.002119544335 0)
(3.257894211 0.001055405528 0)
(3.256439633 -0.0002539356858 0)
(3.254613947 -0.00142152068 0)
(3.253284185 -0.001690995106 0)
(3.251969366 -0.001428916403 0)
(3.251969366 -0.001428916403 0)
)
;
    }
    procBoundary23to22
    {
        type            processor;
        value           nonuniform List<vector> 
32
(
(3.258743164 0.0004197246636 0)
(3.258074955 0.0006800056416 0)
(3.256201694 0.0003824499184 0)
(3.251589973 0.0002738265429 0)
(3.24316271 0.0001852886071 0)
(3.230505201 0.0009149590016 0)
(3.213878935 0.001627974365 0)
(3.193934698 0.002161887461 0)
(3.172553299 0.002885001164 0)
(3.172553299 0.002885001164 0)
(3.149301207 0.002260118392 0)
(3.124761417 0.0004417789012 0)
(3.100172425 -0.000520141245 0)
(3.075484878 -0.001248135473 0)
(3.051429157 -0.001118581161 0)
(3.028114785 0.0004982699222 0)
(3.005233426 0.001910413794 0)
(2.982862242 0.002510479448 0)
(2.960712022 0.002411612974 0)
(2.939653185 0.001463552306 0)
(2.920356164 0.0005403992847 0)
(2.903876659 -0.0003749179254 0)
(2.890812737 -0.0002967531771 0)
(2.881924489 -7.765799949e-05 0)
(2.881924489 -7.765799949e-05 0)
(2.875261866 0.001881685089 0)
(2.868209096 0.002511631467 0)
(2.861041249 0.004037534975 0)
(2.856144748 0.001988574337 0)
(2.853565695 0.0002176655117 0)
(2.852274481 -0.001196895529 0)
(2.851995839 -0.001240727622 0)
)
;
    }
    procBoundary23to28
    {
        type            processor;
        value           uniform (2.853051468 -0.0003263169442 0);
    }
    procBoundary23to29
    {
        type            processor;
        value           nonuniform List<vector> 
18
(
(2.860483087 0.003040608613 0)
(2.861256407 0.0050016714 0)
(2.861764715 0.005918632748 0)
(2.861949857 0.004808875193 0)
(2.862344823 0.003051419915 0)
(2.856744933 0.001250779717 0)
(2.857955734 0.001184571719 0)
(2.858040523 0.001490746518 0)
(2.857594474 0.001835699188 0)
(2.857424114 0.001833868082 0)
(2.857675493 0.001462145796 0)
(2.858408329 8.098532858e-05 0)
(2.859485354 -0.001181140527 0)
(2.860669699 -0.00103599835 0)
(2.860661991 -0.0004187357924 0)
(2.860800191 0.0008004264122 0)
(2.860483087 0.003040608613 0)
(2.861007151 0.0022175173 0)
)
;
    }
}


// ************************************************************************* //
