/*--------------------------------*- C++ -*----------------------------------*\
  =========                 |
  \\      /  F ield         | OpenFOAM: The Open Source CFD Toolbox
   \\    /   O peration     | Website:  https://openfoam.org
    \\  /    A nd           | Version:  7
     \\/     M anipulation  |
\*---------------------------------------------------------------------------*/
FoamFile
{
    version     2.0;
    format      ascii;
    class       volVectorField;
    location    "5";
    object      U;
}
// * * * * * * * * * * * * * * * * * * * * * * * * * * * * * * * * * * * * * //

dimensions      [0 1 -1 0 0 0 0];

internalField   nonuniform List<vector> 
5000
(
(3 1.146566644e-15 0)
(3 1.997894853e-15 0)
(3 3.126897809e-15 0)
(3 3.342490356e-15 0)
(3 4.298903015e-15 0)
(3 4.282991532e-15 0)
(3 3.639680412e-15 0)
(3 2.565632537e-15 0)
(3 3.094794927e-15 0)
(3 4.248135119e-15 0)
(3 2.332020516e-15 0)
(3 1.529620452e-15 0)
(3 1.325367098e-15 0)
(3 3.321798959e-16 0)
(3 -2.655733488e-16 0)
(3 2.471883057e-15 0)
(3 4.158686616e-15 0)
(3 5.024654221e-15 0)
(3 4.051012005e-15 0)
(3 5.37564832e-15 0)
(3 6.367998631e-15 0)
(3 6.547504566e-15 0)
(3 4.9490751e-15 0)
(3 3.875910441e-15 0)
(3 3.265328634e-15 0)
(3 6.654072941e-16 0)
(3 4.668582617e-16 0)
(3 -4.216329665e-17 0)
(3 2.006349401e-15 0)
(3 2.608559417e-15 0)
(3 2.989398508e-15 0)
(3 2.578187958e-15 0)
(3 3.164991601e-15 0)
(3 4.303677143e-15 0)
(3 9.108027854e-15 0)
(3 8.180795985e-15 0)
(3 7.47083962e-15 0)
(3 7.477191805e-15 0)
(3 3.484103336e-15 0)
(3 2.385960217e-15 0)
(3 3.410666112e-15 0)
(3 6.933851982e-15 0)
(3 7.88020124e-15 0)
(3 7.843091102e-15 0)
(3 7.128097679e-15 0)
(3 6.478677669e-15 0)
(3 6.174019756e-15 0)
(3 4.451722371e-15 0)
(3 2.867690608e-15 0)
(3 -9.35039438e-17 0)
(3 -1.181196772e-15 0)
(3 -3.155984469e-16 0)
(3 -1.895086541e-15 0)
(3 -1.939626276e-15 0)
(3 -3.157663698e-15 0)
(3 -3.84274837e-15 0)
(3 -1.878836825e-15 0)
(3 -3.056371943e-16 0)
(3 1.600866328e-15 0)
(3 5.458878028e-15 0)
(3 8.125096355e-15 0)
(3 8.458473965e-15 0)
(3 9.132332042e-15 0)
(3 6.418153475e-15 0)
(3 6.921724752e-15 0)
(3 6.118865468e-15 0)
(3 6.694441437e-15 0)
(3 7.527280305e-15 0)
(3 7.324073569e-15 0)
(3 6.740056454e-15 0)
(3 6.382035501e-15 0)
(3 4.919935528e-15 0)
(3 4.7235889e-15 0)
(3 2.669539454e-15 0)
(3 -1.141957146e-15 0)
(3 -1.57556452e-15 0)
(3 5.616467993e-16 0)
(3 -1.142747439e-15 0)
(3 -3.75805115e-15 0)
(3 -4.470684681e-15 0)
(3 -5.817205005e-15 0)
(3 -4.871020431e-15 0)
(3 -2.334720814e-15 0)
(3 -7.966609981e-17 0)
(3 1.88480704e-15 0)
(3 3.453047268e-15 0)
(3 4.047313977e-15 0)
(3 4.877042716e-15 0)
(3 5.191542052e-15 0)
(3 6.666315545e-15 0)
(3 7.761010741e-15 0)
(3 8.470240574e-15 0)
(3 8.639176714e-15 0)
(3 7.773849874e-15 0)
(3 6.333669251e-15 0)
(3 8.012610485e-15 0)
(3 7.283100846e-15 0)
(3 3.879999952e-15 0)
(3 1.401808274e-15 0)
(3 2.372895738e-16 0)
(3 -1.32975024e-16 0)
(3 -2.041481748e-15 0)
(3 -1.799818735e-15 0)
(3 -1.00928491e-15 0)
(3 -2.334307747e-15 0)
(3 -3.288827529e-15 0)
(3 -3.2305432e-15 0)
(3 -1.111201716e-15 0)
(3 -1.068793923e-15 0)
(3 -2.710411269e-16 0)
(3 -1.67268341e-16 0)
(3 2.787753028e-15 0)
(3 2.657853157e-15 0)
(3 2.696133056e-15 0)
(3 8.404688487e-16 0)
(3 -1.119389637e-15 0)
(3 8.859921719e-16 0)
(3 1.091569801e-15 0)
(3 -4.450791308e-16 0)
(3 -1.305232086e-15 0)
(3 -2.359771748e-15 0)
(3 -3.903776025e-15 0)
(3 -4.281666792e-15 0)
(3 -6.06218517e-15 0)
(3 -7.897884669e-15 0)
(3 6.547096265e-16 0)
(3 8.754881125e-16 0)
(3 1.378778666e-15 0)
(3 1.499927684e-15 0)
(3 3.026839151e-15 0)
(3 2.820224244e-15 0)
(3 1.722937016e-15 0)
(3 -3.946467448e-16 0)
(3 -1.093460161e-15 0)
(3 -1.156284785e-15 0)
(3 9.000215915e-17 0)
(3 9.225491859e-16 0)
(3 3.37872113e-16 0)
(3 -1.880669576e-15 0)
(3 -6.187309624e-15 0)
(3 -1.353022124e-14 0)
(3 -1.429443129e-14 0)
(3 -1.384208053e-14 0)
(3 -1.15688178e-14 0)
(3 -1.219742943e-14 0)
(3 -1.477166739e-14 0)
(3 -1.438351056e-14 0)
(3 -1.375258276e-14 0)
(3 -1.254426659e-14 0)
(3 -1.245387154e-14 0)
(3 -1.265574949e-16 0)
(3 9.572499639e-16 0)
(3 1.376634442e-15 0)
(3 3.064883478e-15 0)
(3 6.444685456e-15 0)
(3 8.457928329e-15 0)
(3 6.371564277e-15 0)
(3 2.271097673e-15 0)
(3 -4.067151047e-17 0)
(3 -8.060150216e-16 0)
(3 -1.511996704e-15 0)
(3 -3.949687416e-15 0)
(3 -6.449217472e-15 0)
(3 -9.986076725e-15 0)
(3 -1.274752732e-14 0)
(3 -1.286636018e-14 0)
(3 -1.395443023e-14 0)
(3 -1.317995704e-14 0)
(3 -1.37414336e-14 0)
(3 -1.502530387e-14 0)
(3 -1.518585582e-14 0)
(3 -1.586065649e-14 0)
(3 -1.535069438e-14 0)
(3 -1.505386938e-14 0)
(3 -1.272334802e-14 0)
(3 -1.530641269e-16 0)
(3 -8.96621518e-16 0)
(3 2.534715153e-16 0)
(3 3.526270016e-15 0)
(3 2.085174214e-15 0)
(3 3.790137309e-15 0)
(3 2.454104308e-15 0)
(3 2.683630848e-15 0)
(3 3.368293223e-16 0)
(3 -2.478511085e-15 0)
(3 -5.69012291e-15 0)
(3 -7.113479373e-15 0)
(3 -7.17609001e-15 0)
(3 -7.502093394e-15 0)
(3 -7.287413244e-15 0)
(3 -6.541240225e-15 0)
(3 -6.238010564e-15 0)
(3 -7.195327542e-15 0)
(3 -9.864865699e-15 0)
(3 -9.253243312e-15 0)
(3 -9.098218671e-15 0)
(3 -1.240207801e-14 0)
(3 -1.289706912e-14 0)
(3 -1.993269112e-14 0)
(3 -2.138461172e-14 0)
(3 2.088764675e-16 0)
(3 3.884145834e-16 0)
(3 1.116063931e-15 0)
(3 -2.357418315e-16 0)
(3 -1.146988632e-15 0)
(3 -2.947090629e-15 0)
(3 -2.150873907e-15 0)
(3 -1.703500248e-15 0)
(3 -2.083811142e-15 0)
(3 -3.758415533e-15 0)
(3 -3.496557318e-15 0)
(3 -2.715466445e-15 0)
(3 -1.480931772e-15 0)
(3 -2.202797359e-15 0)
(3 -3.122560921e-15 0)
(3 -5.199978782e-15 0)
(3 -5.446872334e-15 0)
(3 -9.543508645e-15 0)
(3 -9.614760076e-15 0)
(3 -8.765931142e-15 0)
(3 -8.858089563e-15 0)
(3 -9.542013932e-15 0)
(3 -9.040434908e-15 0)
(3 -7.443392546e-15 0)
(3 -4.365919549e-15 0)
(3 -2.098190135e-16 0)
(3 -1.270123265e-15 0)
(3 -8.612304053e-16 0)
(3 -2.040995452e-15 0)
(3 -6.729580316e-16 0)
(3 -7.815050886e-16 0)
(3 -5.587216356e-16 0)
(3 -1.870043406e-15 0)
(3 -1.668377096e-15 0)
(3 -2.330925213e-15 0)
(3 -5.545833443e-16 0)
(3 9.147776922e-16 0)
(3 -1.546300344e-16 0)
(3 7.408644328e-16 0)
(3 1.497504308e-15 0)
(3 -1.669557986e-15 0)
(3 -5.85641664e-15 0)
(3 -8.188334696e-15 0)
(3 -1.003440568e-14 0)
(3 -1.299932454e-14 0)
(3 -1.251650752e-14 0)
(3 -1.375124971e-14 0)
(3 -1.05275235e-14 0)
(3 -3.874177797e-15 0)
(3 2.874268987e-15 0)
(3 -5.515516478e-16 0)
(3 -1.381340571e-15 0)
(3 -1.633747081e-15 0)
(3 -1.700797495e-15 0)
(3 -1.946884329e-15 0)
(3 4.314837889e-17 0)
(3 1.249241232e-15 0)
(3 1.751210281e-15 0)
(3 2.48164717e-15 0)
(3 4.135279068e-15 0)
(3 1.858337803e-15 0)
(3 6.94894949e-16 0)
(3 7.639551407e-16 0)
(3 3.260302468e-15 0)
(3 5.213440718e-15 0)
(3 5.747318779e-15 0)
(3 4.382859996e-15 0)
(3 1.67428793e-15 0)
(3 1.855933172e-15 0)
(3 -1.861581474e-15 0)
(3 2.643474924e-15 0)
(3 1.968671487e-15 0)
(3 5.7202295e-15 0)
(3 8.547432892e-15 0)
(3 9.739940954e-15 0)
(3 -4.299942897e-16 0)
(3 3.102860974e-16 0)
(3 -3.25630637e-16 0)
(3 4.938821724e-16 0)
(3 -1.850282575e-15 0)
(3 -1.520416799e-15 0)
(3 -5.404897264e-16 0)
(3 7.142102446e-16 0)
(3 6.127781194e-16 0)
(3 2.868841347e-16 0)
(3 -5.9577331e-16 0)
(3 7.639837761e-16 0)
(3 1.9921521e-15 0)
(3 1.439575098e-15 0)
(3 1.518723595e-15 0)
(3 3.933336549e-15 0)
(3 1.034872835e-14 0)
(3 1.286459637e-14 0)
(3 1.658540053e-14 0)
(3 1.771436675e-14 0)
(3 2.247870371e-14 0)
(3 2.648137633e-14 0)
(3 2.621278475e-14 0)
(3 2.482849214e-14 0)
(3 2.237091656e-14 0)
(3 -5.552757933e-17 0)
(3 1.232871574e-16 0)
(3 -5.501588904e-16 0)
(3 -8.687064343e-16 0)
(3 -2.003398361e-15 0)
(3 -3.223498906e-15 0)
(3 -3.07011153e-15 0)
(3 -1.910702659e-15 0)
(3 -2.156459813e-15 0)
(3 -2.619268604e-15 0)
(3 -2.683040176e-15 0)
(3 -2.654428892e-15 0)
(3 -1.728426513e-15 0)
(3 -6.455712644e-16 0)
(3 1.172085144e-15 0)
(3 4.685302554e-15 0)
(3 1.007388488e-14 0)
(3 1.739859269e-14 0)
(3 2.57223679e-14 0)
(3 2.698191638e-14 0)
(3 2.386930599e-14 0)
(3 2.307252352e-14 0)
(3 2.01131855e-14 0)
(3 1.960760896e-14 0)
(3 1.538307537e-14 0)
(3 -9.294760804e-17 0)
(3 -7.945128094e-16 0)
(3 -2.220603315e-15 0)
(3 -3.414446522e-15 0)
(3 -2.610544368e-15 0)
(3 -2.434512141e-15 0)
(3 -2.363937377e-15 0)
(3 3.476730857e-17 0)
(3 3.892322126e-16 0)
(3 -7.671485802e-16 0)
(3 -1.967527814e-15 0)
(3 -2.303234756e-15 0)
(3 -9.203323756e-17 0)
(3 3.421147572e-15 0)
(3 6.995107323e-15 0)
(3 6.887817971e-15 0)
(3 7.260450767e-15 0)
(3 9.209181914e-15 0)
(3 1.36757391e-14 0)
(3 1.522059582e-14 0)
(3 1.564724956e-14 0)
(3 1.383271166e-14 0)
(3 1.041020018e-14 0)
(3 6.762839959e-15 0)
(3 5.251192463e-16 0)
(3 -2.486737604e-16 0)
(3 -2.749612603e-15 0)
(3 -2.762106897e-15 0)
(3 -1.78407195e-15 0)
(3 -3.119559207e-16 0)
(3 -2.176937915e-16 0)
(3 -4.467294698e-16 0)
(3 -1.44931502e-15 0)
(3 -9.646316569e-16 0)
(3 1.671060948e-16 0)
(3 6.317163251e-17 0)
(3 2.184694623e-15 0)
(3 1.878835328e-15 0)
(3 8.619259109e-16 0)
(3 2.500377776e-15 0)
(3 1.745616906e-15 0)
(3 -6.129369671e-17 0)
(3 9.776071875e-16 0)
(3 -2.230557722e-15 0)
(3 1.087841117e-17 0)
(3 1.656252063e-15 0)
(3 -8.405396646e-17 0)
(3 -3.145353693e-15 0)
(3 -8.457629349e-15 0)
(3 -1.38154748e-14 0)
(3 -7.004397877e-16 0)
(3 -1.776844911e-15 0)
(3 -1.268397337e-16 0)
(3 7.420998099e-16 0)
(3 2.334756317e-15 0)
(3 2.625786365e-15 0)
(3 1.194694744e-15 0)
(3 2.051347876e-16 0)
(3 1.054866388e-15 0)
(3 3.898435412e-15 0)
(3 4.195236715e-15 0)
(3 2.901237847e-15 0)
(3 -3.264238522e-16 0)
(3 -3.491672416e-15 0)
(3 -3.281721595e-15 0)
(3 -3.327553054e-15 0)
(3 -3.447793912e-15 0)
(3 -1.346363454e-15 0)
(3 -1.612707278e-15 0)
(3 -1.679894223e-15 0)
(3 -4.532363905e-15 0)
(3 -1.010386769e-14 0)
(3 -1.335392553e-14 0)
(3 -1.164148511e-14 0)
(3 -9.036544475e-15 0)
(3 -1.259160186e-16 0)
(3 1.927649354e-15 0)
(3 3.353343427e-15 0)
(3 3.528412558e-15 0)
(3 2.874528045e-15 0)
(3 2.686901871e-15 0)
(3 3.33929322e-15 0)
(3 5.741490345e-15 0)
(3 4.996388684e-15 0)
(3 3.813540499e-15 0)
(3 2.503332751e-15 0)
(3 -2.201080247e-15 0)
(3 -2.680111763e-15 0)
(3 -3.937027592e-15 0)
(3 -2.733311824e-15 0)
(3 -1.386499634e-15 0)
(3 7.75300743e-16 0)
(3 2.0052297e-15 0)
(3 2.173481091e-15 0)
(3 -3.416575386e-16 0)
(3 -3.180280754e-15 0)
(3 -3.80884064e-15 0)
(3 -2.268373376e-15 0)
(3 -7.25254643e-18 0)
(3 3.264982698e-15 0)
(3 -5.230596372e-16 0)
(3 1.560726861e-15 0)
(3 6.124833313e-16 0)
(3 1.511870029e-15 0)
(3 -7.094731297e-16 0)
(3 -1.14259225e-15 0)
(3 7.967705927e-16 0)
(3 3.043018912e-15 0)
(3 2.371217539e-15 0)
(3 1.140709109e-15 0)
(3 3.59166388e-16 0)
(3 -5.038323907e-16 0)
(3 -4.513348832e-16 0)
(3 -1.608024441e-15 0)
(3 -1.182692506e-15 0)
(3 -5.536936415e-16 0)
(3 1.0862423e-15 0)
(3 1.940959693e-15 0)
(3 9.153995966e-16 0)
(3 -1.194339364e-16 0)
(3 5.606885387e-16 0)
(3 4.523711685e-15 0)
(3 1.035348438e-14 0)
(3 9.784088933e-15 0)
(3 5.529979512e-15 0)
(3 1.444175052e-16 0)
(3 6.042552903e-17 0)
(3 -1.878569791e-15 0)
(3 -3.434520485e-15 0)
(3 -4.323360367e-15 0)
(3 -2.509119822e-15 0)
(3 -2.512213016e-15 0)
(3 -3.549639472e-15 0)
(3 -4.233835681e-16 0)
(3 1.114849425e-15 0)
(3 1.450936316e-15 0)
(3 5.399539033e-15 0)
(3 6.833193502e-15 0)
(3 8.559197245e-15 0)
(3 6.430316524e-15 0)
(3 4.695027688e-15 0)
(3 5.278557988e-15 0)
(3 2.32344568e-15 0)
(3 -3.925580599e-16 0)
(3 -1.247179496e-15 0)
(3 -6.040514609e-16 0)
(3 -4.817678751e-17 0)
(3 9.802125445e-16 0)
(3 1.599395546e-15 0)
(3 2.760505851e-16 0)
(3 1.386061308e-15 0)
(3 5.958341492e-16 0)
(3 6.900765389e-16 0)
(3 -1.955745327e-16 0)
(3 -1.74124151e-15 0)
(3 -2.738301148e-15 0)
(3 -2.18032831e-15 0)
(3 -2.801495534e-15 0)
(3 -2.749449747e-15 0)
(3 1.061051696e-17 0)
(3 2.320452028e-15 0)
(3 6.226801416e-15 0)
(3 9.333666763e-15 0)
(3 9.78740405e-15 0)
(3 8.940092305e-15 0)
(3 7.730806081e-15 0)
(3 4.57168803e-15 0)
(3 3.048134118e-16 0)
(3 1.753747197e-16 0)
(3 -5.895061937e-16 0)
(3 1.384397489e-15 0)
(3 9.19167868e-16 0)
(3 1.277997819e-15 0)
(3 3.364292476e-15 0)
(3 5.479178664e-15 0)
(3 -4.103003231e-17 0)
(3 8.83843589e-16 0)
(3 2.611849814e-15 0)
(3 1.374271878e-15 0)
(3 9.014473094e-16 0)
(3 -1.199016851e-15 0)
(3 -2.669820242e-15 0)
(3 -3.747058337e-15 0)
(3 -5.085494808e-15 0)
(3 -3.99874627e-15 0)
(3 -2.454163157e-15 0)
(3 -1.479962355e-15 0)
(3 9.069314622e-16 0)
(3 -5.177505183e-16 0)
(3 -1.667391318e-15 0)
(3 -1.890233558e-15 0)
(3 -4.204712556e-15 0)
(3 -5.462163428e-15 0)
(3 -2.022813486e-15 0)
(3 2.97785865e-15 0)
(3 7.035180341e-15 0)
(3 7.355077938e-15 0)
(3 6.863674653e-15 0)
(3 8.889495582e-15 0)
(3 1.082712189e-14 0)
(3 7.107046933e-16 0)
(3 1.282972007e-15 0)
(3 1.428226777e-15 0)
(3 6.348157595e-16 0)
(3 1.139867992e-15 0)
(3 6.320036351e-16 0)
(3 -2.606740212e-15 0)
(3 -3.592187896e-15 0)
(3 -2.159663639e-15 0)
(3 -1.861191846e-15 0)
(3 -3.978486757e-15 0)
(3 -3.805516094e-15 0)
(3 -5.083990446e-15 0)
(3 -7.220673091e-15 0)
(3 -9.534560074e-15 0)
(3 -8.436148818e-15 0)
(3 -6.437758847e-15 0)
(3 -4.698461626e-15 0)
(3 -2.767628707e-15 0)
(3 4.128977917e-17 0)
(3 -2.04293751e-16 0)
(3 3.824788324e-15 0)
(3 5.640286215e-15 0)
(3 6.631348123e-15 0)
(3 7.021250693e-15 0)
(3 7.944866092e-16 0)
(3 6.355635565e-16 0)
(3 3.831195739e-16 0)
(3 1.316046647e-16 0)
(3 -1.473374408e-15 0)
(3 -9.292308358e-16 0)
(3 -1.922797513e-16 0)
(3 1.558305304e-15 0)
(3 1.082357166e-15 0)
(3 2.451987687e-16 0)
(3 -6.023071383e-16 0)
(3 -1.112225953e-15 0)
(3 -1.536898623e-15 0)
(3 -3.177230792e-15 0)
(3 -4.69723593e-15 0)
(3 -6.604155666e-15 0)
(3 -7.387685445e-15 0)
(3 -5.38455076e-15 0)
(3 -5.906366938e-15 0)
(3 -7.41880722e-15 0)
(3 -9.661678099e-15 0)
(3 -7.392794314e-15 0)
(3 -5.472874404e-15 0)
(3 -3.584293769e-16 0)
(3 4.457996819e-15 0)
(3 1.294210961e-16 0)
(3 1.160248955e-16 0)
(3 -4.693065538e-16 0)
(3 4.574560713e-16 0)
(3 9.580106802e-16 0)
(3 7.820141314e-16 0)
(3 1.004335328e-15 0)
(3 -2.179442467e-15 0)
(3 -2.90505707e-15 0)
(3 -2.437832611e-15 0)
(3 -6.107584588e-16 0)
(3 -1.346300546e-15 0)
(3 -2.402423474e-15 0)
(3 -1.895329664e-15 0)
(3 -6.934785405e-16 0)
(3 -1.970412142e-15 0)
(3 -2.646000605e-15 0)
(3 -4.237486773e-15 0)
(3 -5.447560623e-15 0)
(3 -6.604862321e-15 0)
(3 -7.618904103e-15 0)
(3 -9.48085857e-15 0)
(3 -9.138381794e-15 0)
(3 -1.073902018e-14 0)
(3 -5.046943652e-15 0)
(3 3.221159915e-16 0)
(3 -5.601226491e-16 0)
(3 -6.39077858e-16 0)
(3 -1.279615994e-16 0)
(3 3.001708533e-15 0)
(3 5.115182033e-15 0)
(3 4.158237176e-15 0)
(3 2.203621526e-15 0)
(3 2.897944781e-16 0)
(3 1.490314722e-15 0)
(3 1.046492193e-15 0)
(3 -8.685290991e-16 0)
(3 -3.336146489e-15 0)
(3 -1.586066413e-15 0)
(3 -5.870034957e-16 0)
(3 -1.39515134e-16 0)
(3 -1.396046628e-15 0)
(3 -1.253603922e-15 0)
(3 -3.12201458e-15 0)
(3 -4.849018712e-15 0)
(3 -5.352584587e-15 0)
(3 -8.20011761e-15 0)
(3 -1.254487712e-14 0)
(3 -1.802535448e-14 0)
(3 -1.784807331e-14 0)
(3 2.67648779e-15 0)
(3 2.69036383e-15 0)
(3 1.9751783e-15 0)
(3 1.08736691e-15 0)
(3 -6.487087566e-16 0)
(3 -3.943426345e-15 0)
(3 -6.739151844e-15 0)
(3 -7.580466919e-15 0)
(3 -7.016964782e-15 0)
(3 -6.591450441e-15 0)
(3 -6.741514846e-15 0)
(3 -6.752858132e-15 0)
(3 -6.225422519e-15 0)
(3 -5.870272607e-15 0)
(3 -5.631112495e-15 0)
(3 -4.85442203e-15 0)
(3 -4.304937542e-15 0)
(3 -4.32069561e-15 0)
(3 -3.718078519e-15 0)
(3 -1.961680545e-15 0)
(3 -1.503142254e-15 0)
(3 -1.482957552e-15 0)
(3 -1.585315863e-15 0)
(3 -2.931198916e-15 0)
(3 -3.869598501e-15 0)
(3 -3.219953768e-16 0)
(3 -3.958265711e-16 0)
(3 -1.829655647e-16 0)
(3 -1.452646935e-15 0)
(3 -3.846507672e-15 0)
(3 -7.895599743e-15 0)
(3 -9.397609182e-15 0)
(3 -8.92029199e-15 0)
(3 -6.929100571e-15 0)
(3 -6.869724816e-15 0)
(3 -6.16564881e-15 0)
(3 -6.009810995e-15 0)
(3 -4.903827002e-15 0)
(3 -4.18701888e-15 0)
(3 -3.48296468e-15 0)
(3 -3.207851087e-15 0)
(3 -3.328699126e-15 0)
(3 -3.180147195e-15 0)
(3 -2.408438959e-15 0)
(3 6.069496811e-16 0)
(3 3.066883257e-15 0)
(3 2.890019072e-15 0)
(3 1.387154775e-15 0)
(3 -2.088268915e-16 0)
(3 -2.071933098e-15 0)
(3 -3.335034987e-15 0)
(3 -4.722639766e-15 0)
(3 -4.506795039e-15 0)
(3 -5.371870922e-15 0)
(3 -7.191276835e-15 0)
(3 -9.369357255e-15 0)
(3 -1.133313049e-14 0)
(3 -1.327146356e-14 0)
(3 -1.363633023e-14 0)
(3 -1.199961085e-14 0)
(3 -1.160289671e-14 0)
(3 -1.13702629e-14 0)
(3 -1.210325143e-14 0)
(3 -1.125633019e-14 0)
(3 -1.058360458e-14 0)
(3 -1.074244553e-14 0)
(3 -9.442254738e-15 0)
(3 -8.818594336e-15 0)
(3 -7.180922661e-15 0)
(3 -5.049193021e-15 0)
(3 -2.904666381e-15 0)
(3 -2.410689839e-16 0)
(3 -4.912552232e-16 0)
(3 -1.313464464e-15 0)
(3 -5.261484958e-17 0)
(3 -1.956332913e-15 0)
(3 -3.034099259e-15 0)
(3 -5.51329024e-15 0)
(3 -6.079871457e-15 0)
(3 -5.702231797e-15 0)
(3 -7.395064502e-15 0)
(3 -1.281277117e-14 0)
(3 -1.460540522e-14 0)
(3 -1.504933784e-14 0)
(3 -1.321428915e-14 0)
(3 -1.174313573e-14 0)
(3 -1.160870468e-14 0)
(3 -1.228015732e-14 0)
(3 -1.310393838e-14 0)
(3 -1.430032248e-14 0)
(3 -1.488210663e-14 0)
(3 -1.484639989e-14 0)
(3 -1.450684176e-14 0)
(3 -1.327110705e-14 0)
(3 -1.148115163e-14 0)
(3 -1.095731715e-14 0)
(3 -6.478489416e-15 0)
(3 4.723304103e-16 0)
(3 3.440167604e-15 0)
(3 5.129537122e-15 0)
(3 -8.290868763e-15 0)
(3 -8.201306292e-15 0)
(3 -8.738875696e-15 0)
(3 -8.399725725e-15 0)
(3 -7.065045543e-15 0)
(3 -7.451904619e-15 0)
(3 -9.291127221e-15 0)
(3 -9.744349031e-15 0)
(3 -1.20043311e-14 0)
(3 -1.39299207e-14 0)
(3 -1.352023391e-14 0)
(3 -1.245834491e-14 0)
(3 -1.204647483e-14 0)
(3 -1.115238647e-14 0)
(3 -1.102079901e-14 0)
(3 -1.036247005e-14 0)
(3 -1.011641617e-14 0)
(3 -1.002814493e-14 0)
(3 -1.207500234e-14 0)
(3 -1.322652599e-14 0)
(3 -1.200949609e-14 0)
(3 -9.805592424e-15 0)
(3 -6.867912832e-15 0)
(3 -3.536645874e-15 0)
(3 -8.560251194e-16 0)
(3 -1.182612396e-14 0)
(3 -1.138567602e-14 0)
(3 -1.175387526e-14 0)
(3 -1.253497305e-14 0)
(3 -1.225676508e-14 0)
(3 -1.007600333e-14 0)
(3 -6.948275325e-15 0)
(3 -6.822033924e-15 0)
(3 -6.635957153e-15 0)
(3 -8.22722713e-15 0)
(3 -7.651530999e-15 0)
(3 -6.433848347e-15 0)
(3 -6.438577295e-15 0)
(3 -5.89057178e-15 0)
(3 -5.139949434e-15 0)
(3 -4.37262784e-15 0)
(3 -3.693652464e-15 0)
(3 -3.899078605e-15 0)
(3 -3.529947766e-15 0)
(3 -5.028784856e-15 0)
(3 -4.815089405e-15 0)
(3 -4.531128087e-15 0)
(3 -4.884636163e-15 0)
(3 -3.414767965e-15 0)
(3 -2.034049353e-15 0)
(3 -1.210717133e-14 0)
(3 -1.148993913e-14 0)
(3 -1.077310084e-14 0)
(3 -1.074708981e-14 0)
(3 -1.17670617e-14 0)
(3 -9.04876327e-15 0)
(3 -4.004291273e-15 0)
(3 -1.433920285e-15 0)
(3 -7.126383696e-16 0)
(3 2.075090112e-16 0)
(3 4.594294093e-16 0)
(3 9.597348296e-16 0)
(3 1.273412587e-15 0)
(3 1.883298519e-15 0)
(3 3.265391943e-15 0)
(3 4.44753775e-15 0)
(3 5.463988209e-15 0)
(3 4.834982953e-15 0)
(3 5.091173035e-15 0)
(3 4.740194579e-15 0)
(3 3.024601732e-15 0)
(3 2.109278772e-15 0)
(3 8.175956443e-16 0)
(3 1.338079635e-15 0)
(3 -9.989888826e-16 0)
(3 -1.768411587e-14 0)
(3 -1.620985728e-14 0)
(3 -1.380576573e-14 0)
(3 -1.252313842e-14 0)
(3 -1.040222035e-14 0)
(3 -7.335003926e-15 0)
(3 -5.988235571e-15 0)
(3 -4.652598254e-15 0)
(3 -3.530369211e-15 0)
(3 -4.678908057e-16 0)
(3 5.368756434e-16 0)
(3 2.487317246e-15 0)
(3 3.933132511e-15 0)
(3 5.043263711e-15 0)
(3 5.38587318e-15 0)
(3 5.399738924e-15 0)
(3 5.119731841e-15 0)
(3 4.980710156e-15 0)
(3 4.90168055e-15 0)
(3 4.590716078e-15 0)
(3 4.113063016e-15 0)
(3 3.158053827e-15 0)
(3 -4.078246446e-16 0)
(3 -1.01987416e-16 0)
(3 -3.437754928e-15 0)
(3 1.266195411e-15 0)
(3 4.040630838e-15 0)
(3 4.653391156e-15 0)
(3 5.150800472e-15 0)
(3 5.807415793e-15 0)
(3 5.42282527e-15 0)
(3 4.65921291e-15 0)
(3 4.271060817e-15 0)
(3 2.71414973e-15 0)
(3 2.628699973e-15 0)
(3 3.123325966e-15 0)
(3 4.280190834e-15 0)
(3 4.558284137e-15 0)
(3 4.392440522e-15 0)
(3 4.610554787e-15 0)
(3 4.377077304e-15 0)
(3 4.417809794e-15 0)
(3 5.006728193e-15 0)
(3 3.196126105e-15 0)
(3 2.640413592e-16 0)
(3 -1.594050107e-15 0)
(3 -5.39446734e-15 0)
(3 -8.181137877e-15 0)
(3 -7.943625217e-15 0)
(3 -9.390046348e-15 0)
(3 6.436931476e-15 0)
(3 7.569165985e-15 0)
(3 9.391265422e-15 0)
(3 1.162337773e-14 0)
(3 1.141748658e-14 0)
(3 1.003344789e-14 0)
(3 9.259074139e-15 0)
(3 1.155103732e-14 0)
(3 1.105776271e-14 0)
(3 7.478969589e-15 0)
(3 4.711065209e-15 0)
(3 3.56754362e-15 0)
(3 1.799305555e-15 0)
(3 -7.938783958e-16 0)
(3 -3.023823197e-15 0)
(3 -3.775724442e-15 0)
(3 -5.078320024e-15 0)
(3 -6.896135748e-15 0)
(3 -9.576875241e-15 0)
(3 -1.262624865e-14 0)
(3 -1.362478239e-14 0)
(3 -1.35811036e-14 0)
(3 -1.344894175e-14 0)
(3 -1.564479255e-14 0)
(3 -1.744063397e-14 0)
(3 1.062936776e-14 0)
(3 1.141455142e-14 0)
(3 1.216354896e-14 0)
(3 1.140084915e-14 0)
(3 9.513317e-15 0)
(3 9.309653961e-15 0)
(3 9.15732367e-15 0)
(3 8.871384861e-15 0)
(3 7.266002732e-15 0)
(3 3.103855669e-15 0)
(3 -7.431645377e-16 0)
(3 -1.075743809e-15 0)
(3 -6.469951043e-16 0)
(3 -1.786038459e-15 0)
(3 -3.83256859e-15 0)
(3 -7.021003287e-15 0)
(3 -8.803699395e-15 0)
(3 -1.064747008e-14 0)
(3 -1.191453287e-14 0)
(3 -1.391236925e-14 0)
(3 -1.762478769e-14 0)
(3 -1.778926983e-14 0)
(3 -1.809366659e-14 0)
(3 -1.668546894e-14 0)
(3 -1.61396144e-14 0)
(3 1.829267208e-14 0)
(3 1.530256077e-14 0)
(3 1.115625979e-14 0)
(3 8.21973625e-15 0)
(3 4.417357471e-15 0)
(3 4.336115632e-15 0)
(3 2.524577939e-15 0)
(3 4.236816562e-16 0)
(3 4.326254987e-17 0)
(3 -3.981104428e-15 0)
(3 -4.68987829e-15 0)
(3 -5.928049145e-15 0)
(3 -9.343558602e-15 0)
(3 -1.079855201e-14 0)
(3 -1.010879513e-14 0)
(3 -1.079671551e-14 0)
(3 -1.158730994e-14 0)
(3 -1.268225823e-14 0)
(3 -1.295227867e-14 0)
(3 -1.35991306e-14 0)
(3 -1.386584227e-14 0)
(3 -1.031219425e-14 0)
(3 2.822416611e-15 0)
(3 4.149495199e-14 0)
(3 1.32303013e-13 0)
(3 1.038853256e-14 0)
(3 6.496881479e-15 0)
(3 4.969854301e-15 0)
(3 2.077091717e-15 0)
(3 4.803330766e-16 0)
(3 -6.886797359e-16 0)
(3 -2.342262289e-15 0)
(3 -4.084894581e-15 0)
(3 -5.25975148e-15 0)
(3 -7.141557043e-15 0)
(3 -8.293227451e-15 0)
(3 -9.790176555e-15 0)
(3 -1.23528688e-14 0)
(3 -1.425345563e-14 0)
(3 -1.46635878e-14 0)
(3 -1.354692241e-14 0)
(3 -1.300624927e-14 0)
(3 -9.253254342e-15 0)
(3 1.837973731e-15 0)
(3 3.683882694e-14 0)
(3 1.405048361e-13 0)
(3 3.965913138e-13 0)
(3 8.290380015e-13 0)
(3 1.538253455e-12 0)
(3 2.594243219e-12 0)
(3 -4.906087036e-15 0)
(3 -7.866978896e-15 0)
(3 -1.087222491e-14 0)
(3 -1.237144651e-14 0)
(3 -1.175739988e-14 0)
(3 -1.178451308e-14 0)
(3 -1.219055298e-14 0)
(3 -1.302689663e-14 0)
(3 -1.376923654e-14 0)
(3 -1.365719994e-14 0)
(3 -1.371251523e-14 0)
(3 -1.482778285e-14 0)
(3 -1.433083964e-14 0)
(3 -1.141361285e-14 0)
(3 -4.195582821e-15 0)
(3 2.562435883e-14 0)
(3 1.083437313e-13 0)
(3 3.686087149e-13 0)
(3 7.977959764e-13 0)
(3 1.624068068e-12 0)
(3 3.068933904e-12 0)
(3 5.087538057e-12 0)
(3 7.402531573e-12 0)
(3 9.626220962e-12 0)
(3 3.648654518e-11 0)
(3 -1.419968022e-14 0)
(3 -1.364489462e-14 0)
(3 -1.303194738e-14 0)
(3 -1.227438135e-14 0)
(3 -1.42922674e-14 0)
(3 -1.648955765e-14 0)
(3 -1.780451124e-14 0)
(3 -1.695356776e-14 0)
(3 -1.517363213e-14 0)
(3 -1.240014665e-14 0)
(3 -5.536464354e-15 0)
(3 2.034693583e-14 0)
(3 1.161770574e-13 0)
(3 2.630495662e-13 0)
(3 6.9771773e-13 0)
(3 1.385412047e-12 0)
(3 2.868173375e-12 0)
(3 4.607508332e-12 0)
(3 8.018306399e-12 0)
(3 1.081557701e-11 0)
(3 1.523359324e-11 0)
(3 1.586940173e-11 0)
(3 2.290422622e-11 0)
(3 2.07136966e-11 0)
(3.000000001 2.054074153e-09 0)
(3 -8.02228352e-15 0)
(3 -6.970301135e-15 0)
(3 -5.381729892e-15 0)
(3 -5.287918716e-15 0)
(3 -5.879366878e-15 0)
(3 -6.729571832e-15 0)
(3 -6.830699566e-15 0)
(3 2.533620471e-15 0)
(3 3.457382041e-14 0)
(3 1.951775182e-13 0)
(3 5.621816826e-13 0)
(3 1.411871733e-12 0)
(3 2.38376539e-12 0)
(3 4.570217326e-12 0)
(3 7.174965947e-12 0)
(3 1.015244034e-11 0)
(3 1.332459201e-11 0)
(3 1.399727168e-11 0)
(3 2.340864209e-11 0)
(3 2.414362839e-11 0)
(3 2.489341014e-11 0)
(3 2.061850241e-11 0)
(3 4.654645883e-11 0)
(2.999999997 -5.400812633e-09 0)
(3.000000031 6.719568827e-08 0)
(3 4.089536236e-15 0)
(3 3.910387921e-15 0)
(3 4.821344737e-15 0)
(3 7.699147716e-15 0)
(3 1.829694172e-14 0)
(3 5.85193023e-14 0)
(3 3.083024362e-13 0)
(3 8.528200993e-13 0)
(3 2.215185747e-12 0)
(3 4.300623048e-12 0)
(3 7.329721929e-12 0)
(3 9.17429952e-12 0)
(3 1.090060876e-11 0)
(3 1.885671392e-11 0)
(3 1.91356287e-11 0)
(3 1.951597517e-11 0)
(3 2.143601897e-11 0)
(3 1.130614735e-11 0)
(3 1.163385058e-10 0)
(3 -4.311543966e-10 0)
(2.999999999 -9.589394202e-10 0)
(2.999999989 -1.659087715e-08 0)
(2.999999956 -6.602114229e-08 0)
(2.999998723 -2.401148223e-06 0)
(3.000000114 1.727922773e-07 0)
(3 5.514469531e-15 0)
(3 4.603092389e-15 0)
(3 2.190620409e-14 0)
(3 2.732652792e-13 0)
(3 1.043408024e-12 0)
(3 3.272417337e-12 0)
(3 6.806238808e-12 0)
(3 9.837678076e-12 0)
(3 1.619103872e-11 0)
(3 1.65286692e-11 0)
(3 1.658963244e-11 0)
(3 1.708927449e-11 0)
(3 1.483609565e-11 0)
(3 7.80501162e-11 0)
(3 -4.83212202e-10 0)
(3 2.83874325e-10 0)
(2.999999997 -6.151411336e-09 0)
(2.999999983 -2.296508967e-08 0)
(2.999999898 -1.700674206e-07 0)
(2.99999954 -7.128356718e-07 0)
(2.999998009 -3.403930807e-06 0)
(2.99999219 -1.299185775e-05 0)
(2.999975559 -4.286753691e-05 0)
(2.999869617 -0.0002506943701 0)
(2.999875281 -0.0002216136405 0)
(3 9.944464764e-15 0)
(3 6.500827641e-14 0)
(3 2.808485114e-12 0)
(3 1.128656733e-11 0)
(3 1.487630031e-11 0)
(3 2.635625877e-11 0)
(3 2.646954255e-11 0)
(3 2.606863728e-11 0)
(3 3.454519922e-11 0)
(3 -4.555765689e-11 0)
(3 2.750517594e-10 0)
(2.999999999 -2.165172628e-09 0)
(2.999999993 -8.385070852e-09 0)
(2.999999951 -7.69942045e-08 0)
(2.999999784 -3.245220835e-07 0)
(2.999998999 -1.645820616e-06 0)
(2.999996548 -5.576944983e-06 0)
(2.99998739 -2.169519782e-05 0)
(2.999963345 -6.093951193e-05 0)
(2.999883328 -0.0002097452412 0)
(2.999717705 -0.0004900551553 0)
(2.999239267 -0.001448844696 0)
(2.998514723 -0.00272668996 0)
(2.996377925 -0.007465263932 0)
(2.994850621 -0.009816682926 0)
(3 5.362116694e-13 0)
(3 5.391769678e-13 0)
(3 4.657541583e-11 0)
(3 4.869618866e-11 0)
(3 3.269113761e-11 0)
(3 1.509816314e-10 0)
(3 -3.94813778e-10 0)
(2.999999999 -1.372834956e-09 0)
(2.999999984 -2.271631691e-08 0)
(2.999999907 -1.34166514e-07 0)
(2.999999533 -7.312462452e-07 0)
(2.999998083 -3.056730024e-06 0)
(2.999992995 -1.163856585e-05 0)
(2.999977712 -3.768496526e-05 0)
(2.999934831 -0.0001134776259 0)
(2.999828319 -0.0003065244356 0)
(2.99958245 -0.0007570253423 0)
(2.999058873 -0.001777226281 0)
(2.997966614 -0.003864114842 0)
(2.99607884 -0.007684691463 0)
(2.992652827 -0.0147707966 0)
(2.988151185 -0.02509264478 0)
(2.980644508 -0.04155632051 0)
(2.973362109 -0.05973562161 0)
(2.961141345 -0.08575535641 0)
(3 3.144049421e-12 0)
(3 -2.401144934e-11 0)
(3 5.486965792e-10 0)
(2.999999999 -2.302237049e-09 0)
(2.999999985 -1.95820547e-08 0)
(2.999999864 -2.106411833e-07 0)
(2.999999276 -1.120851419e-06 0)
(2.999996658 -5.639687752e-06 0)
(2.999988231 -1.986628551e-05 0)
(2.999961337 -6.965410196e-05 0)
(2.999893227 -0.0001917994732 0)
(2.999725955 -0.0005250415998 0)
(2.999388579 -0.001181487211 0)
(2.998694989 -0.002679507824 0)
(2.997488261 -0.005161518613 0)
(2.995438925 -0.009802135935 0)
(2.991885441 -0.01794128124 0)
(2.987863949 -0.028522784 0)
(2.980891075 -0.04600639255 0)
(2.974125946 -0.06491200978 0)
(2.962587925 -0.09651571919 0)
(2.958294911 -0.1121489056 0)
(2.943852992 -0.1489980966 0)
(2.938642901 -0.1655601024 0)
(2.924894803 -0.1967381774 0)
(2.999999996 -5.665215191e-09 0)
(2.999999937 -9.572147547e-08 0)
(2.999999366 -1.046745813e-06 0)
(2.999996254 -6.373725499e-06 0)
(2.999983301 -3.00767425e-05 0)
(2.999943398 -0.0001084468133 0)
(2.999832953 -0.0003295982063 0)
(2.999589048 -0.000836143898 0)
(2.999061369 -0.002054552924 0)
(2.99819983 -0.004093915015 0)
(2.996455236 -0.008216100258 0)
(2.994282076 -0.01400914487 0)
(2.990234195 -0.02528127805 0)
(2.986957641 -0.0360612038 0)
(2.978873792 -0.0590263993 0)
(2.974993872 -0.07604969653 0)
(2.962581266 -0.1146874131 0)
(2.961796951 -0.1338291053 0)
(2.94812157 -0.1786447663 0)
(2.946718928 -0.1891264324 0)
(2.932688703 -0.2255485868 0)
(2.930165266 -0.2347395679 0)
(2.915209081 -0.2615634762 0)
(2.912240174 -0.2630254556 0)
(2.90443183 -0.2777291185 0)
(2.999989732 -1.649966705e-05 0)
(2.999947018 -9.138069892e-05 0)
(2.999786747 -0.0003826917631 0)
(2.999399658 -0.001170331758 0)
(2.998576102 -0.002946493031 0)
(2.997359297 -0.005886815694 0)
(2.995200465 -0.01128605438 0)
(2.992238439 -0.01913851094 0)
(2.988725745 -0.03003612992 0)
(2.985276087 -0.04162072242 0)
(2.978535919 -0.06186707025 0)
(2.974110901 -0.07812928559 0)
(2.968589871 -0.1019480444 0)
(2.965236025 -0.1190455869 0)
(2.957940323 -0.1461094625 0)
(2.9559991 -0.1637636844 0)
(2.945188201 -0.194990208 0)
(2.940519902 -0.208619092 0)
(2.935457933 -0.2210244123 0)
(2.922579303 -0.2394976699 0)
(2.912055862 -0.2567220137 0)
(2.907388436 -0.2580307588 0)
(2.903095205 -0.2603763556 0)
(2.900420783 -0.263308628 0)
(2.899293592 -0.2664858834 0)
(2.99854303 -0.002306965074 0)
(2.995531559 -0.007576613751 0)
(2.989821378 -0.01861125622 0)
(2.983207712 -0.03333355072 0)
(2.973951871 -0.05486187155 0)
(2.964390231 -0.08062779451 0)
(2.953645278 -0.1085781373 0)
(2.946383424 -0.1334351414 0)
(2.929524412 -0.175567261 0)
(2.924690812 -0.1975821615 0)
(2.911272734 -0.2285100819 0)
(2.903063244 -0.2529010266 0)
(2.889540125 -0.2838865482 0)
(2.884735885 -0.2939394248 0)
(2.87557389 -0.3139125999 0)
(2.869705523 -0.3125648908 0)
(2.865472006 -0.3128495808 0)
(2.860023422 -0.3045657193 0)
(2.857478256 -0.2962076943 0)
(2.858237339 -0.2913115251 0)
(2.858213069 -0.288210877 0)
(2.861483656 -0.2824603866 0)
(2.868976376 -0.277131965 0)
(2.871082357 -0.2747296635 0)
(2.873972175 -0.2727225567 0)
(2.987332782 -0.004538337466 0)
(2.974321769 -0.003358683893 0)
(2.959485362 -0.02154911951 0)
(2.948535932 -0.02538728378 0)
(2.934956048 -0.05019796563 0)
(2.927196435 -0.05448095653 0)
(2.915425538 -0.07786551649 0)
(2.907826926 -0.09517972897 0)
(2.898188279 -0.1123847242 0)
(2.898882692 -0.1203176543 0)
(2.884027829 -0.1449226091 0)
(2.880231248 -0.1625920713 0)
(2.873386364 -0.1766749603 0)
(2.870783222 -0.1927386875 0)
(2.867009823 -0.2104720853 0)
(2.859716415 -0.2228207846 0)
(2.855775621 -0.2350441158 0)