/*--------------------------------*- C++ -*----------------------------------*\
  =========                 |
  \\      /  F ield         | OpenFOAM: The Open Source CFD Toolbox
   \\    /   O peration     | Website:  https://openfoam.org
    \\  /    A nd           | Version:  7
     \\/     M anipulation  |
\*---------------------------------------------------------------------------*/
FoamFile
{
    version     2.0;
    format      ascii;
    class       volScalarField;
    location    "4.9";
    object      rho;
}
// * * * * * * * * * * * * * * * * * * * * * * * * * * * * * * * * * * * * * //

dimensions      [1 -3 0 0 0 0 0];

internalField   nonuniform List<scalar> 
2222
(
1.409497031
1.407506324
1.404291807
1.402879364
1.401785906
1.397442891
1.392101057
1.389445817
1.388744786
1.38911748
1.390500954
1.392708309
1.394287103
1.395677459
1.397836144
1.40018187
1.400593036
1.399932367
1.398170847
1.399061437
1.404445054
1.431528096
1.589914273
2.183431495
1.405412187
1.400224911
1.397487306
1.397039343
1.398752752
1.402776639
1.406789872
1.409491933
1.410891896
1.411612419
1.409866111
1.407748488
1.406403418
1.405102576
1.400659226
1.394854459
1.389380678
1.388210618
1.387376402
1.387468679
1.388398638
1.390202707
1.391876131
1.393952211
1.39702802
1.398408094
1.398586076
1.396910114
1.395233138
1.397115309
1.403015462
1.425671132
1.556010547
2.126550005
1.406937956
1.40108164
1.397763394
1.397233919
1.398915659
1.403041549
1.407163296
1.409762001
1.410965739
1.41150579
1.411182574
1.409977386
1.408606039
1.404984623
1.398311936
1.391530347
1.388219427
1.387033789
1.38609708
1.385924029
1.386370236
1.387778596
1.390032459
1.392853405
1.395328293
1.396170142
1.395769407
1.393313789
1.393773881
1.396158497
1.402536897
1.42236498
1.534782962
2.054357605
1.406495841
1.399926509
1.39660116
1.396121104
1.397849792
1.402251944
1.406377947
1.409026297
1.410250888
1.411577898
1.411547594
1.410410571
1.408276747
1.403621338
1.395827043
1.390667378
1.387649804
1.385951623
1.384583711
1.384206396
1.38466965
1.386367672
1.388937192
1.391692902
1.393130933
1.393440387
1.392104551
1.391440487
1.393235486
1.396743854
1.402964558
1.419362855
1.512030582
1.994751362
1.404431121
1.397377199
1.393813058
1.393217569
1.394887724
1.39956589
1.403798678
1.406294602
1.408186852
1.410526848
1.411076757
1.409696229
1.406516736
1.401135318
1.394994633
1.390934324
1.387535771
1.384401042
1.382905769
1.382842838
1.383784206
1.385633198
1.388217897
1.390211967
1.390652963
1.390043738
1.389726732
1.390683605
1.394026608
1.397751897
1.401811423
1.415613405
1.486227906
1.947071345
1.403418496
1.396711649
1.392405688
1.391293186
1.392771586
1.396927827
1.400679359
1.403549237
1.406350436
1.409266146
1.409676009
1.407918048
1.404113185
1.399427846
1.394828704
1.391869223
1.387086082
1.383006395
1.382015973
1.381982179
1.383005541
1.384932029
1.387396072
1.388229116
1.387748474
1.387640525
1.38846396
1.39139763
1.394838009
1.396531447
1.399793521
1.411494578
1.465913292
1.89887491
1.404775552
1.398190808
1.393719611
1.39226481
1.393282947
1.396400526
1.399740481
1.403122648
1.40637638
1.408843059
1.408679038
1.406558451
1.402628109
1.398782788
1.395442921
1.392215945
1.3862147
1.382803852
1.381762006
1.38148718
1.382091111
1.383846615
1.385616877
1.385650598
1.385797701
1.386597036
1.388612887
1.392309182
1.393559892
1.394373532
1.396942275
1.406441362
1.453734048
1.837036626
1.400104841
1.395721296
1.394062541
1.394841197
1.397069541
1.400373414
1.403840888
1.406820145
1.408955619
1.408461842
1.406167719
1.402680385
1.399567234
1.396214672
1.391945898
1.385892613
1.383193065
1.381601827
1.380818063
1.380860304
1.381838493
1.383175256
1.384336947
1.385216854
1.38644448
1.38964412
1.39134157
1.391521265
1.391279716
1.393370841
1.401475706
1.445181463
1.752796804
1.401990937
1.397221659
1.395266391
1.395822787
1.397647698
1.400998714
1.404531329
1.407096411
1.408917253
1.408604293
1.40680275
1.403828325
1.400795486
1.396820197
1.391623114
1.386434838
1.383595118
1.381139089
1.380001903
1.379759637
1.380566125
1.382217269
1.384161515
1.385299448
1.387483598
1.389261365
1.38968133
1.388603666
1.388764851
1.391193327
1.398533592
1.436942832
1.663762068
2.323928773
1.402745927
1.397766622
1.395648075
1.395723492
1.397707922
1.401268571
1.404515353
1.406300253
1.408168914
1.408885428
1.408212598
1.405739444
1.402402831
1.397523123
1.392102756
1.387486588
1.383723691
1.380618057
1.379467673
1.379315713
1.380440145
1.382336559
1.384549852
1.386035532
1.387271023
1.387840682
1.386971166
1.386426016
1.387928727
1.390170827
1.39687959
1.428200015
1.605713603
2.276833148
1.402204018
1.397094125
1.394850931
1.394756468
1.396936585
1.400489643
1.402710189
1.404204292
1.407396614
1.409354442
1.409205339
1.407061817
1.403501008
1.398258513
1.393096775
1.388148481
1.383133301
1.380149675
1.379096652
1.379536747
1.381042467
1.38282534
1.384801244
1.386290898
1.386232935
1.38507293
1.384557434
1.385914721
1.387759087
1.389825495
1.395705474
1.42046035
1.577029181
2.212928423
1.400942538
1.395756337
1.3932412
1.393118979
1.395628892
1.39859723
1.400745318
1.402861773
1.406658376
1.409353449
1.409263517
1.407146557
1.403447865
1.398621026
1.39372162
1.387690298
1.38213819
1.380201343
1.379515738
1.380156623
1.38165872
1.383229578
1.384614607
1.385179926
1.383946527
1.383208016
1.384117809
1.385906473
1.387488776
1.389339719
1.394250633
1.414319261
1.554591307
2.139267962
1.400786141
1.395562359
1.393084856
1.393438701
1.39587314
1.398477728
1.400703548
1.402940425
1.406595219
1.408911042
1.408339419
1.406117618
1.402778269
1.398525178
1.393343501
1.38656415
1.382308932
1.381303636
1.380601071
1.380535084
1.381492582
1.382828762
1.383031692
1.382568065
1.382293651
1.3830213
1.384437622
1.385888151
1.386760404
1.387815903
1.391446032
1.408578238
1.523718468
2.069632028
1.40178599
1.396444117
1.39353489
1.394088807
1.396425107
1.399375197
1.401712563
1.40379811
1.407060494
1.408535501
1.40732768
1.404829271
1.401764901
1.397890396
1.392203806
1.386340259
1.383698155
1.383031894
1.381465152
1.380544069
1.38045398
1.380529805
1.380356848
1.380922125
1.382237944
1.383605636
1.384860814
1.385452637
1.385033736
1.385417213
1.388311343
1.402988696
1.487766004
2.012877896
1.403048466
1.397628132
1.394273058
1.394036045
1.396520523
1.399609999
1.402407871
1.405135521
1.407526437
1.408764821
1.407521585
1.404913517
1.400978018
1.396887472
1.39181452
1.387656674
1.38562797
1.384164169
1.381532534
1.379356844
1.378203086
1.37798235
1.379219435
1.381257782
1.38315525
1.38456283
1.385004397
1.384631906
1.383771326
1.384375542
1.387265391
1.398879455
1.466505943
1.956424942
1.399515287
1.395063563
1.394184856
1.396124424
1.399238766
1.402628115
1.406076638
1.407814048
1.409070583
1.408169491
1.405479856
1.401322249
1.397217764
1.392906976
1.389278131
1.387436591
1.384279125
1.380258426
1.377656524
1.376817141
1.378053165
1.380336512
1.382810136
1.384470786
1.385256745
1.385048523
1.384049847
1.383690275
1.384483418
1.387141308
1.396853267
1.457448807
1.883590802
1.400365648
1.395638128
1.393990553
1.395187063
1.398201271
1.40150652
1.404804489
1.407278442
1.408875599
1.408472396
1.405986253
1.402181449
1.398454891
1.394414471
1.391882015
1.3881999
1.382911972
1.379101046
1.377497742
1.377647383
1.379429275
1.382313179
1.384559106
1.385369856
1.385480165
1.384768799
1.383972858
1.384138869
1.385111251
1.387301344
1.395753504
1.449979448
1.799163311
1.400818683
1.395414119
1.39292105
1.393692671
1.396543468
1.399217604
1.402317129
1.405371258
1.407789729
1.407877245
1.406338902
1.403048204
1.400094899
1.396672334
1.39280312
1.387423598
1.381372729
1.379139128
1.37824631
1.379015348
1.380941286
1.383505518
1.385449856
1.385394225
1.384873702
1.384115827
1.384116341
1.384788542
1.385701808
1.387421232
1.394724666
1.439829864
1.727283397
1.399940757
1.394356867
1.392421356
1.393246013
1.396312989
1.398312907
1.400431989
1.403369596
1.405990623
1.40702796
1.406795896
1.404032435
1.401610667
1.39826253
1.393327039
1.385910527
1.381483591
1.379869919
1.379263277
1.379862479
1.38140736
1.383222616
1.384563305
1.383951957
1.383203361
1.383236187
1.384174846
1.385119737
1.385944704
1.387327522
1.393414544
1.427921156
1.675169951
1.398590594
1.394063153
1.39295448
1.393720686
1.396882738
1.398751705
1.400530848
1.402630572
1.405124462
1.407134575
1.407202398
1.404880789
1.402430931
1.398949013
1.392650688
1.385777782
1.382399275
1.381017481
1.379841108
1.380013102
1.381242522
1.38157328
1.381867611
1.381605432
1.381986459
1.382942045
1.384154165
1.385185663
1.385971607
1.387271726
1.39228111
1.419194218
1.633790259
1.398437719
1.394849317
1.393844502
1.394457084
1.397712632
1.399747523
1.401187514
1.4032202
1.405660031
1.40799314
1.407532846
1.405341906
1.402522778
1.397942687
1.391610213
1.386608159
1.38413194
1.381737088
1.379610828
1.379154029
1.379560746
1.379492594
1.380133922
1.380927726
1.382052642
1.383074415
1.38422859
1.385351758
1.386240486
1.387233998
1.39144483
1.414241737
1.593491825
1.398992136
1.395517744
1.394324621
1.395285739
1.398587894
1.40084327
1.402555552
1.404416818
1.406784764
1.40882538
1.407746221
1.405046854
1.401439738
1.396285016
1.391549762
1.387833432
1.38495588
1.381943455
1.379028103
1.378116348
1.378380225
1.379341811
1.380420726
1.381553306
1.382930076
1.383911484
1.384625188
1.385892079
1.386518646
1.387173336
1.390687278
1.410399075
1.554222949
1.399981527
1.395628907
1.394315383
1.395696955
1.399323035
1.401956347
1.404012774
1.405470741
1.407603843
1.409105659
1.407527023
1.404065053
1.400172257
1.396261345
1.392230893
1.388708995
1.385254292
1.381798117
1.379229787
1.378430749
1.378915792
1.380212982
1.381414075
1.382808006
1.383635532
1.384452064
1.385445416
1.386402405
1.386525512
1.386890478
1.389383752
1.405782491
1.521177913
1.39603619
1.393949161
1.395501129
1.399350482
1.402569297
1.404761355
1.406107576
1.407387277
1.40825249
1.406804935
1.403423921
1.400290818
1.396823128
1.393326679
1.389318993
1.385101739
1.381984389
1.380303837
1.379476395
1.380105509
1.381446367
1.382809577
1.38362277
1.384077537
1.384610201
1.38596673
1.38637328
1.385999242
1.385348839
1.386591723
1.400182387
1.494069067
1.396508847
1.39384678
1.394551796
1.397804176
1.401014618
1.404327378
1.405361699
1.405579304
1.406489955
1.406424702
1.403704737
1.401090614
1.397720588
1.394574633
1.390126995
1.385547494
1.382659736
1.381295634
1.380434251
1.3808633
1.382089343
1.38355357
1.383859887
1.384351455
1.384812189
1.385287322
1.385432593
1.38436411
1.383766675
1.384737592
1.394951964
1.471508605
1.953733952
1.397271484
1.394163591
1.393283273
1.396040368
1.399049917
1.401850085
1.402651497
1.402896916
1.405557867
1.406730115
1.404391928
1.401999339
1.398646343
1.395466328
1.391186765
1.386570197
1.383236491
1.381420738
1.380608119
1.38088989
1.381806869
1.382650632
1.382819854
1.383282887
1.384147335
1.384292097
1.383872788
1.383419718
1.383666253
1.385051823
1.393649361
1.456002662
1.880022827
1.398058209
1.394292699
1.392117451
1.394609249
1.39780585
1.399945461
1.400792883
1.401753349
1.405062071
1.406919917
1.40483347
1.402484863
1.39920975
1.396107993
1.392106002
1.387494834
1.38351615
1.380853327
1.380015022
1.380474064
1.380487741
1.380536185
1.381206873
1.382609909
1.383311696
1.383263965
1.383405175
1.38397526
1.384736219
1.386032614
1.393809605
1.446847482
1.806890486
1.398317293
1.394003998
1.39173558
1.394839529
1.398462358
1.400480785
1.400761694
1.401746434
1.405584321
1.406807657
1.404667673
1.402339142
1.399383454
1.396409747
1.392541373
1.388025791
1.383764426
1.380206178
1.379006773
1.379291172
1.379058286
1.379459918
1.381159996
1.3829315
1.38313038
1.38322266
1.38399518
1.384924119
1.386105803
1.387385171
1.393907688
1.440162495
1.7346416
1.398240166
1.393602611
1.392219788
1.395825118
1.399701769
1.401540148
1.401681345
1.402727234
1.406268509
1.406713612
1.404101193
1.402130273
1.399745935
1.39648909
1.392318217
1.388091283
1.384050658
1.380121994
1.378698259
1.37896337
1.379066518
1.379944491
1.381730159
1.383387225
1.383677852
1.384110661
1.384971105
1.386307956
1.38701564
1.388001691
1.39395634
1.433464952
1.680296091
1.39766349
1.393313131
1.392847131
1.396487831
1.400707823
1.402910134
1.403060976
1.403597935
1.405807746
1.406371841
1.403867334
1.40245787
1.400271462
1.396676791
1.392232505
1.388309047
1.384725113
1.381015249
1.379464543
1.379764727
1.380030075
1.381061704
1.382689603
1.383793768
1.384571335
1.385378285
1.386445514
1.387250511
1.387488825
1.388408374
1.393440858
1.425887234
1.646275003
1.397144005
1.393486439
1.393284833
1.396544533
1.401162806
1.403508838
1.403964795
1.403782776
1.404842516
1.406428652
1.404515015
1.403087271
1.400633841
1.397075187
1.392856216
1.388710355
1.385095024
1.382053777
1.380377299
1.380719889
1.381171761
1.382448927
1.383988212
1.384717037
1.385314285
1.386069824
1.387166876
1.38779251
1.387479992
1.387557905
1.39115294
1.417743837
1.617214527
1.394037686
1.393998805
1.396817783
1.401347004
1.403690744
1.404453125
1.403581073
1.404200114
1.406878158
1.405390003
1.403560295
1.400831438
1.397464891
1.39383078
1.389479783
1.385222727
1.382944863
1.380910251
1.380804491
1.381276078
1.382755764
1.384722864
1.385464354
1.385684745
1.386294976
1.387170425
1.387207618
1.386187578
1.385421838
1.387717892
1.410459619
1.581203902
1.394695102
1.394687273
1.397443938
1.401603001
1.403384462
1.404238115
1.40336107
1.404321901
1.407349456
1.405880504
1.403632032
1.400709803
1.3976028
1.394458206
1.390463126
1.385604101
1.382720063
1.381177288
1.380928969
1.381254421
1.382495232
1.384110751
1.384560913
1.384926591
1.385763713
1.386348332
1.385908248
1.384998308
1.384689418
1.386530595
1.405102789
1.541519562
1.394990806
1.394747246
1.397493544
1.401222524
1.402725604
1.403928744
1.403350819
1.404700935
1.40735451
1.405564845
1.402718568
1.399868413
1.39734627
1.39476822
1.391147532
1.386156821
1.382371099
1.380894723
1.380850909
1.380999388
1.381772518
1.382548053
1.382878942
1.383505324
1.38429423
1.384807305
1.38509957
1.385013413
1.385283539
1.386806676
1.401294451
1.512672745
1.395092485
1.393873408
1.395986057
1.399768923
1.401550287
1.402918299
1.402979985
1.404478381
1.406653032
1.404256098
1.401181028
1.398997864
1.397044326
1.394625393
1.39127971
1.386736136
1.382517795
1.380439154
1.380377222
1.380215724
1.380292647
1.38074613
1.38185016
1.382936746
1.383639425
1.384158277
1.384942952
1.385286028
1.386164784
1.387533597
1.399216251
1.495314372
1.395114784
1.393404009
1.394599485
1.398275047
1.400439675
1.401640821
1.401794528
1.402366225
1.404343852
1.402398778
1.400110252
1.398606157
1.396915115
1.394533248
1.391155696
1.387105332
1.383014001
1.380190865
1.38009908
1.379654295
1.379462944
1.380146118
1.381760637
1.383054346
1.38391476
1.384640808
1.385419535
1.386121006
1.386337862
1.388245141
1.398296812
1.481336103
1.393975074
1.391513908
1.391776326
1.395478009
1.398518225
1.399902759
1.399956195
1.399219882
1.401445664
1.401111593
1.399936656
1.398694648
1.396871371
1.39445923
1.391154892
1.387229608
1.383309811
1.379923687
1.379804138
1.379470631
1.379368385
1.380181817
1.381979267
1.383451001
1.384563076
1.38555959
1.386472355
1.387022966
1.387299801
1.388782498
1.39753651
1.467257147
1.392194799
1.389497514
1.389232389
1.393009539
1.396397237
1.397690997
1.397547122
1.396215489
1.399312242
1.40019926
1.400055006
1.398601034
1.396443695
1.394013533
1.390938939
1.387400282
1.383618738
1.379965894
1.379834101
1.379556702
1.379666801
1.380624862
1.382527623
1.384104645
1.385228428
1.386272983
1.387454496
1.387739504
1.387934959
1.389012954
1.39667586
1.452788194
1.391758131
1.387575002
1.386526711
1.390468157
1.394283657
1.395537422
1.395702793
1.394779677
1.398728364
1.400810485
1.400389268
1.398989822
1.396814278
1.394486698
1.39165064
1.387827767
1.38360555
1.379794253
1.379625627
1.379492414
1.380067064
1.381358756
1.383177403
1.384684111
1.385858754
1.387235945
1.388661237
1.388643957
1.387998191
1.388596125
1.394556894
1.441695046
1.390513288
1.386450964
1.386034469
1.390368907
1.394528001
1.39633448
1.396630564
1.395926882
1.399547079
1.401643662
1.40019251
1.399066958
1.397069553
1.394889463
1.392184205
1.388032215
1.383519874
1.379853499
1.379423187
1.379525065
1.380335562
1.381535255
1.382963855
1.384257079
1.385590629
1.387131674
1.388056354
1.387659662
1.386348698
1.386110463
1.389934269
1.427144764
1.389400085
1.390945711
1.394874224
1.398428501
1.400934342
1.401765042
1.400746081
1.399918321
1.39982595
1.398612436
1.39794141
1.397164173
1.395985967
1.394141949
1.391488851
1.388247176
1.384872244
1.382353281
1.380736892
1.38022126
1.380605645
1.38146426
1.382519617
1.383548537
1.384509591
1.385322106
1.385784698
1.386047993
1.386576901
1.388441034
1.403780523
1.394670442
1.401813698
1.407496533
1.407853603
1.407060083
1.406828869
1.406155595
1.40485534
1.402756782
1.400130654
1.400184136
1.399958974
1.399798063
1.399459259
1.398343397
1.396268649
1.393228118
1.389206243
1.38589214
1.383991802
1.383559208
1.383921794
1.384968662
1.386274635
1.387354181
1.388120376
1.388160203
1.387990774
1.388173979
1.388922091
1.391788221
1.409700057
1.418988143
1.416072015
1.411200257
1.411911171
1.411985432
1.410345789
1.407265949
1.403644496
1.400371289
1.400294556
1.400744387
1.401393165
1.401885219
1.401548631
1.400243702
1.397741547
1.393713091
1.38966697
1.386288037
1.383911119
1.383826674
1.384280988
1.385329756
1.386655943
1.387704502
1.387808362
1.387453234
1.38699024
1.387549292
1.388209731
1.416221806
1.416648267
1.412952802
1.412973565
1.416860155
1.417051177
1.413682115
1.408362304
1.401591249
1.39523766
1.394943341
1.39608574
1.397123519
1.397878995
1.398096234
1.398166542
1.397474989
1.395709732
1.392834795
1.389420015
1.38595032
1.381940539
1.380780444
1.381224639
1.382846701
1.384424668
1.384862857
1.384786354
1.384717152
1.385231833
1.386010413
1.406323905
1.39599253
1.392719385
1.404037839
1.413871577
1.405125969
1.392663126
1.388482603
1.382720999
1.378194734
1.377656913
1.37983615
1.381681706
1.382251117
1.383046123
1.384841408
1.387434497
1.389344027
1.389290343
1.387889963
1.385166713
1.381967482
1.380295621
1.379455666
1.379403723
1.380229635
1.381548361
1.382636813
1.38354468
1.384192634
1.385115341
1.265872343
1.30541127
1.347116189
1.391630972
1.385896056
1.360242687
1.366177941
1.372921193
1.371680116
1.370886441
1.370818252
1.372875557
1.373603654
1.374006521
1.374993121
1.377313058
1.381446382
1.386953852
1.390739767
1.39039909
1.38826438
1.384773141
1.38248506
1.380529253
1.378494993
1.377789404
1.378014459
1.379129154
1.380513583
1.381321598
1.382146888
0.8313697619
1.037103034
1.186694151
1.308513261
1.313343714
1.334040774
1.367866181
1.367750809
1.36123708
1.362999678
1.369918799
1.372054405
1.372566
1.373363196
1.373586213
1.373298045
1.373682027
1.37508621
1.377100505
1.378636151
1.379763783
1.379268655
1.377500357
1.374975893
1.371350027
1.367566047
1.364822206
1.363546458
1.363299768
1.363664907
1.364253072
0.5208193146
0.5844353436
0.7146165786
0.9031190557
1.097851438
1.272959029
1.346170354
1.341432285
1.347615548
1.362120745
1.36622631
1.36150584
1.356112135
1.357411134
1.356567193
1.352786507
1.348410211
1.344872407
1.34421662
1.345132923
1.348440891
1.350129171
1.350066874
1.349733281
1.348501386
1.34763176
1.347034713
1.346302151
1.346309129
1.346914612
1.347716898
0.5076570752
0.5076213227
0.5092738994
0.5327719674
0.6370752513
0.8163935298
1.03006128
1.15944456
1.26237801
1.331732441
1.321458164
1.305103729
1.313391923
1.327838107
1.324725652
1.32562158
1.327200507
1.325330811
1.325030881
1.326936803
1.329062824
1.328857809
1.329147606
1.330659995
1.332457574
1.334001207
1.334948455
1.334884099
1.334633258
1.333782463
1.333974946
0.5083865148
0.508157625
0.5083424964
0.5086734993
0.5088688624
0.5199788728
0.5902329633
0.7763557961
0.9728829615
1.163221629
1.215955707
1.253327318
1.297949025
1.305312224
1.297987516
1.309325431
1.313851084
1.312503213
1.312575219
1.316021889
1.321147169
1.323869712
1.325667458
1.327792012
1.329613803
1.330736542
1.33054709
1.32982265
1.328383616
1.32685997
1.325734986
0.5148120511
0.5157493136
0.51658267
0.5168479333
0.5171362794
0.5174405174
0.5175982608
0.5237030458
0.5659374886
0.6896109073
0.9234039703
1.131470182
1.270206162
1.278294724
1.295698123
1.328449615
1.323048589
1.318469224
1.321979319
1.326814846
1.327881508
1.329065471
1.331098654
1.33205253
1.329987079
1.327938169
1.328019125
1.327820954
1.326916828
1.325703889
1.324635225
0.5262615661
0.5264479011
0.5265468783
0.5266647515
0.5268976632
0.5274615768
0.5280805869
0.5286378105
0.5286082879
0.5295036828
0.5629880976
0.6756092899
0.8693306312
1.066563313
1.241938965
1.311310004
1.30640863
1.311281324
1.328882164
1.333517342
1.330752255
1.329727927
1.332246401
1.331558354
1.3278743
1.326128024
1.326108254
1.325556123
1.325059698
1.324592881
1.323789952
0.5370034044
0.5371310718
0.537448071
0.5379134154
0.5382406373
0.5384032319
0.5385915141
0.5388708757
0.5389326126
0.5390707578
0.5390692283
0.5396638754
0.5551008348
0.6405248881
0.8080193261
1.023142663
1.159340893
1.25874287
1.322476397
1.320935816
1.313664735
1.322813711
1.331942263
1.326511411
1.323106854
1.323913364
1.32454051
1.32453158
1.324645238
1.325062872
1.324825628
0.5479084898
0.5481081258
0.5483852796
0.5482869183
0.5480732742
0.5478154542
0.5476800963
0.5476230084
0.5476965749
0.5480547913
0.5484259856
0.5485885562
0.548597126
0.5488118012
0.5570180177
0.6163061451
0.7953540224
0.9919311562
1.182967946
1.235430922
1.272277557
1.315525907
1.322943837
1.318552225
1.326705265
1.33158387
1.330383866
1.330123417
1.33328066
1.335508617
1.334959638
0.56503943
0.564519418
0.564198
0.5641764345
0.5639495297
0.5638979552
0.5640771015
0.5640990516
0.5638439149
0.5635461909
0.5633949282
0.5630639077
0.5627150224
0.5627493517
0.5631037396
0.563127763
0.5698656994
0.6143189873
0.7370992286
0.9594670085
1.147282649
1.287414935
1.305968108
1.31776152
1.353309442
1.351813546
1.34633837
1.350660731
1.354079779
1.352000249
1.34879094
0.5803744952
0.5796689434
0.5793276459
0.5794792579
0.5793212173
0.5786839962
0.5781216296
0.5779010489
0.5774658212
0.5768954497
0.5769252156
0.5768931321
0.5764064941
0.5759837638
0.5757804121
0.5750730517
0.5743583031
0.5745868895
0.5770425799
0.6117514384
0.722085518
0.9060652999
1.093803581
1.26025259
1.339414276
1.337885398
1.341579537
1.363114609
1.365631735
1.361212001
1.355928249
0.5954337368
0.5947999338
0.5933971956
0.5927736452
0.5925503734
0.5915398676
0.5906162551
0.5906941827
0.5905002921
0.5895482337
0.5892192643
0.5892702948
0.5889237978
0.587931332
0.5876941776
0.5875675357
0.5868841819
0.585947257
0.5857121409
0.5857681203
0.5872081213
0.6044091785
0.6925658443
0.8581733057
1.064201343
1.194465896
1.29485245
1.358500036
1.356163764
1.344464465
1.351689772
0.6097418464
0.6095608142
0.6081384273
0.607052902
0.6071505324
0.6067636821
0.605307342
0.6044409152
0.6040326773
0.6029005093
0.6014753572
0.6013463207
0.6011463795
0.6000072508
0.59908847
0.5991651363
0.5988084398
0.5975623128
0.5971808454
0.5971114298
0.5962597896
0.5957489024
0.5966271541
0.6085116172
0.6713504866
0.8444786763
1.027176271
1.212037497
1.261381172
1.301805478
1.345937575
0.6252859338
0.6249664769
0.623943984
0.6217510125
0.6209808545
0.6206869486
0.6192312834
0.6175769221
0.6175940212
0.6172692349
0.6156641011
0.6149759096
0.6148904821
0.6141724337
0.6125013298
0.6119972631
0.611820429
0.6108429558
0.6094809432
0.6092836615
0.6089680272
0.607529466
0.6060856747
0.6062659048
0.6067191805
0.6158324159
0.6619614963
0.7807005616
0.9952422992
1.183492416
1.31849959
0.6403266802
0.6395075542
0.6388798072
0.6365308986
0.6350957406
0.6350718627
0.6343649613
0.6319952037
0.6309319433
0.6305437053
0.629187239
0.6271621373
0.6267590219
0.6263599864
0.6246722319
0.6234359352
0.623413199
0.6229502259
0.6212244615
0.6202126825
0.6201707985
0.6196051141
0.6179083694
0.6170661889
0.6164376388
0.6157837023
0.615907879
0.6194091626
0.6592399157
0.7706305707
0.9543171801
0.6569747177
0.6553850778
0.654984025
0.653412578
0.6504270425
0.6493653649
0.6487046931
0.6464931744
0.6441417153
0.643895838
0.6432636196
0.6409044845
0.6397543309
0.6396243663
0.6386280462
0.6361872828
0.6352397226
0.634932466
0.6335689474
0.6314925767
0.631293127
0.6311435314
0.6297509531
0.6279629884
0.6277541683
0.6272249811
0.6254666812
0.6241573325
0.6247608515
0.6280391157
0.6512255553
0.6739333825
0.6702411515
0.6693386295
0.6684427608
0.6652906504
0.6633196994
0.6631765608
0.6620791288
0.6590153953
0.6578991999
0.6574827461
0.6557667192
0.6530787863
0.6525662343
0.6521744403
0.6502833813
0.648252136
0.6480684659
0.6475448325
0.6454517986
0.643749034
0.6434581295
0.6427622081
0.6405999262
0.6391600494
0.6389549378
0.6381239691
0.6359528245
0.6347313443
0.6345081588
0.6339583872
0.69076122
0.6867712352
0.6851131277
0.6846629239
0.6826129488
0.6789264855
0.6778766519
0.677084725
0.6743341083
0.6712676697
0.6707045667
0.6697985881
0.6667701491
0.6649474606
0.6647279385
0.6636569885
0.6607464132
0.6595371394
0.6592926812
0.6580665023
0.6554596919
0.6545603592
0.6542613237
0.6529435248
0.6505124192
0.649806778
0.6496126115
0.6483188488
0.645906637
0.6450116474
0.6444259603
0.7085442007
0.7049671491
0.7006471004
0.6993727364
0.6979447645
0.6937757849
0.6910914193
0.6908251226
0.689459365
0.6856830624
0.6843802892
0.6840356593
0.6822039819
0.6787625916
0.6775646948
0.6769236819
0.674608357
0.6714197204
0.6708585926
0.6703711599
0.6681696151
0.6655460967
0.6651359007
0.6646001166
0.6624360399
0.6601494326
0.6599803592
0.6596683467
0.6578341746
0.6557492313
0.6555902382
0.7231345624
0.7213659722
0.7163058351
0.7145509245
0.7141455408
0.7118183157
0.7074158968
0.7060322517
0.7050800786
0.7018654257
0.6979075975
0.6970446832
0.6961099481
0.6928474376
0.6900517317
0.689780539
0.6888787545
0.6857412421
0.6835601087
0.683227102
0.6821632482
0.6791108053
0.6771405936
0.6767782033
0.6756821248
0.6727845648
0.671226676
0.6710186586
0.6700878812
0.6673792779
0.6658528668
0.7413248741
0.7400751288
0.7357662942
0.7307228201
0.7292348349
0.7275626828
0.7229802128
0.7193385562
0.7187975819
0.7173095854
0.7128939665
0.710615338
0.7102536909
0.7085728769
0.7045120741
0.7025244061
0.701884266
0.6998516703
0.6959393136
0.694583437
0.6941576242
0.692290705
0.6888707271
0.6879502643
0.6875844879
0.6857578232
0.6825715288
0.6817562806
0.6814409753
0.6798229041
0.676851655
0.7557294636
0.7544428132
0.7519236566
0.7456890593
0.7433031855
0.7429156065
0.7405208849
0.7353143346
0.7335660616
0.7327591035
0.7297101575
0.7248425741
0.7231863377
0.7221820745
0.7189942511
0.7148524753
0.7141315849
0.7134419512
0.710540361
0.7070706666
0.7063515069
0.7054675616
0.7024281638
0.6991842147
0.6986724204
0.6979432158
0.6951864157
0.6923891833
0.6920039635
0.6913420878
0.6887441063
0.773539515
0.7720031964
0.7709978125
0.7666388039
0.7606970268
0.7587905743
0.7570141303
0.7522160651
0.7470722314
0.7458410901
0.7444018847
0.7399250357
0.7360323918
0.7355207106
0.7342065729
0.7299087197
0.7265971872
0.7259415423
0.7243793425
0.7201849897
0.7175775575
0.7172302642
0.7159080563
0.7120897772
0.7100609397
0.7098329324
0.7085481914
0.7049744778
0.7031517538
0.7029048276
0.7016619291
0.7934528657
0.787365717
0.7855559538
0.7827901229
0.7760242562
0.7717597171
0.7712437041
0.7692267207
0.7634780071
0.760414731
0.7597974782
0.7574419928
0.752010071
0.7491339349
0.7481942318
0.7456308671
0.7406010253
0.7385344001
0.7379035454
0.7354213809
0.7307636689
0.7294071682
0.7288448658
0.7263691421
0.722179485
0.7210238819
0.7204331952
0.7180254255
0.714230428
0.713374026
0.7128918071
0.8126453165
0.8045777626
0.8015724761
0.800688113
0.7969897998
0.790160998
0.7874520866
0.785913107
0.7815856871
)
;

boundaryField
{
    inlet
    {
        type            calculated;
        value           nonuniform 0();
    }
    outlet
    {
        type            calculated;
        value           nonuniform 0();
    }
    bottom
    {
        type            calculated;
        value           nonuniform 0();
    }
    top
    {
        type            calculated;
        value           nonuniform 0();
    }
    obstacle
    {
        type            calculated;
        value           nonuniform 0();
    }
    defaultFaces
    {
        type            empty;
    }
    procBoundary28to21
    {
        type            processor;
        value           nonuniform List<scalar> 
19
(
1.412238266
1.413545823
1.413166374
1.411220651
1.410239984
1.411304891
1.406632052
1.406632052
1.408051952
1.408585638
1.407803102
1.406474182
1.406621142
1.407833979
1.409243279
1.404849973
1.404849973
1.405729475
1.406194158
)
;
    }
    procBoundary28to22
    {
        type            processor;
        value           nonuniform List<scalar> 
35
(
1.410249049
1.408433482
1.404945961
1.401308058
1.400132894
1.398612668
1.394580571
1.391489888
1.390207058
1.390752569
1.392474935
1.39478786
1.396382018
1.397557461
1.398698716
1.400406005
1.402225724
1.402050828
1.401273595
1.40250052
1.407620381
1.439069228
1.650555306
2.22395796
1.403186864
1.398234796
1.396145891
1.395994313
1.398076817
1.402225539
1.406415595
1.409540552
1.411288606
1.410748521
1.410748521
)
;
    }
    procBoundary28to23
    {
        type            processor;
        value           nonuniform List<scalar> 2(2.357835415 2.392438462);
    }
    procBoundary28to27
    {
        type            processor;
        value           nonuniform List<scalar> 
55
(
1.405501026
1.404262155
1.403693251
1.403925916
1.404771291
1.400806212
1.400806212
1.401517752
1.402020479
1.402351906
1.402600394
1.403054441
1.403059666
1.402887736
1.396966392
1.396966392
1.397676442
1.398432032
1.398760981
1.398882958
1.397417023
1.394588187
1.394770962
1.395302447
1.391173742
1.391173742
1.393763667
1.399050963
1.397846221
1.348654498
1.121007461
0.6851255545
0.510982338
0.5076588437
0.5084454695
0.5143678438
0.5259603615
0.5369739916
0.5477729361
0.5652595047
0.580452404
0.5956660619
0.6100260948
0.6266415382
0.64335645
0.6598045393
0.6765925308
0.6919704774
0.7098118044
0.723691503