/*--------------------------------*- C++ -*----------------------------------*\
  =========                 |
  \\      /  F ield         | OpenFOAM: The Open Source CFD Toolbox
   \\    /   O peration     | Website:  https://openfoam.org
    \\  /    A nd           | Version:  7
     \\/     M anipulation  |
\*---------------------------------------------------------------------------*/
FoamFile
{
    version     2.0;
    format      ascii;
    class       volScalarField;
    location    "2.4";
    object      T;
}
// * * * * * * * * * * * * * * * * * * * * * * * * * * * * * * * * * * * * * //

dimensions      [0 0 0 1 0 0 0];

internalField   nonuniform List<scalar> 
2222
(
1.010936424
1.011063076
1.009699354
1.009327782
1.010399877
1.012232862
1.01156737
1.011027496
0.9040084757
0.8931987609
0.8651415385
0.8422065977
0.8319284472
0.8297017616
0.8308881374
0.833408773
0.8369940423
0.84044205
0.8422959881
0.8437159883
0.8444054821
0.8448066742
0.8450152475
0.8452028669
0.8455399406
0.8474260255
0.8562084621
0.8847035789
0.939299252
0.988470622
1.008146366
1.00932077
1.010489371
1.01137101
1.011068408
1.009303662
1.009250991
1.010493121
1.012329467
1.011698907
1.011273007
0.9032586531
0.9042461695
0.8940213632
0.8661833422
0.8433200544
0.8325479497
0.8300884203
0.8311410517
0.8333635387
0.8366852187
0.8401700755
0.8421356271
0.8434817549
0.8442054628
0.8446620526
0.844984431
0.8452546974
0.8457444793
0.8486313919
0.8601037672
0.8977367331
0.9568008253
0.996667474
1.009859183
1.011158926
1.011440376
1.01201205
1.011289368
1.009238065
1.009144291
1.010359966
1.012407091
1.011913762
1.011637036
0.9032175835
0.9047416381
0.8945423637
0.8675743955
0.8450584699
0.8333974381
0.8304406515
0.8311834009
0.8332689043
0.8364124397
0.8399052079
0.8419740397
0.8433046752
0.8440679648
0.8445498246
0.8449414814
0.8453051433
0.8460708629
0.8504649441
0.8684349632
0.915745465
0.9738143029
1.003638697
1.010574118
1.011860284
1.012388044
1.012739307
1.011791714
1.009618459
1.00929104
1.010522991
1.012422138
1.012052997
0.9034695279
0.9051982521
0.8947394841
0.8687498738
0.8470369235
0.8345884456
0.8308668635
0.8311560935
0.8329887845
0.8361557762
0.8396555997
0.8418689523
0.8431510114
0.8438124677
0.8443613216
0.8448651846
0.8453328396
0.846584128
0.8526947683
0.8769530628
0.9322818069
0.9859036185
1.00710675
1.011110887
1.011756567
1.012472704
1.013100857
1.012204046
1.01011607
1.009601016
1.010852049
1.012407188
1.011937791
0.9039906961
0.9057976818
0.8947646154
0.8697168426
0.8486077928
0.8360162702
0.8313837538
0.8313190527
0.8324606433
0.8358483503
0.839394999
0.8417252568
0.8429999275
0.8434612004
0.8440421833
0.8446875839
0.8453354906
0.8474451916
0.8557824106
0.8863781518
0.9469796974
0.9935593172
1.007532737
1.010101772
1.011052771
1.012093809
1.013035594
1.012379693
1.010441782
1.010037445
1.011437996
1.012447038
1.011927157
0.904651999
0.9067110183
0.8948328836
0.8703607222
0.8498778358
0.8370654534
0.8322562765
0.8316177529
0.8320140065
0.8355103449
0.8391250391
0.841616233
0.8427595378
0.8432809583
0.8439087787
0.844543423
0.8453456801
0.8482395628
0.8604696096
0.9008893697
0.9646285955
1.001590241
1.009001298
1.009716886
1.010455273
1.011565379
1.01254036
1.012121372
1.010549751
1.010351747
1.011919065
1.012679815
1.012128084
0.9063094849
0.9086759678
0.8945087819
0.8708732538
0.8507844818
0.8377225066
0.8325456928
0.8317015946
0.831905135
0.8351898346
0.8388375808
0.8413529781
0.8425735407
0.8431901997
0.8439356511
0.8445998101
0.8455990932
0.8497100402
0.867318915
0.9169512206
0.9732467426
1.004405247
1.010914126
1.010187454
1.010872584
1.011779532
1.012261214
1.011606554
1.010255082
1.010437397
1.012187902
1.013001195
1.012470701
0.908712425
0.9103327396
0.8949652669
0.8723803615
0.8518041986
0.8381954187
0.8327124012
0.831707347
0.8318671333
0.8348811182
0.8385868397
0.8409939823
0.8422639231
0.8430535363
0.8439842233
0.8447446279
0.8460755444
0.8523295356
0.8768366388
0.9254555918
0.9749572595
1.005327314
1.011581151
1.011306361
1.011472917
1.012373303
1.012475438
1.011064812
1.009960789
1.010040081
1.011871398
1.01309706
1.012681282
0.908982831
0.9108310721
0.8958731898
0.8736710317
0.8530294039
0.8382891427
0.8327027323
0.8314642014
0.8317413033
0.8346117117
0.8383641321
0.8407143278
0.8418180523
0.8427556919
0.8439970346
0.8448916493
0.8468433009
0.8553374474
0.8842691605
0.9365372741
0.9850327424
1.005790697
1.011915351
1.012394213
1.012450905
1.01298195
1.013020415
1.01105304
1.009846327
1.009877235
1.011466856
1.012868469
1.01262186
0.9087009856
0.911034763
0.8965127975
0.8746858383
0.853973863
0.8383087771
0.8325070976
0.8311424113
0.831469508
0.834321744
0.8381986004
0.8405769126
0.8416271801
0.8424713634
0.8438563037
0.8450064946
0.8479309843
0.8598951695
0.8954758347
0.9587839805
0.9978027542
1.007850574
1.010996531
1.012515491
1.012750962
1.01345167
1.013493539
1.011598607
1.010159231
1.010088997
1.011514214
1.012461856
1.012138609
0.908628284
0.911173586
0.8968753735
0.8756418873
0.8543654671
0.8384953684
0.8322387778
0.8308398011
0.8309980961
0.8339523529
0.8379638467
0.8404463184
0.8415578443
0.8424587258
0.8435872895
0.845005774
0.8491944883
0.8661502381
0.9159463754
0.9793324338
1.0062488
1.010028837
1.010126724
1.011694288
1.012594
1.013457979
1.013785791
1.012004833
1.010660384
1.010482746
1.011747792
1.012347328
0.9095197083
0.9123426981
0.8976513775
0.8764108228
0.8545944982
0.8385504275
0.8320573167
0.8304478295
0.8305597368
0.8336182175
0.8376772568
0.8401312115
0.8414196074
0.8425402361
0.843613468
0.8453319615
0.8512435435
0.8745792945
0.9339602686
0.985466431
1.007953684
1.01105524
1.010347611
1.010895907
1.011935071
1.013071025
1.01362566
1.012159992
1.011031565
1.01093269
1.012215019
1.012480525
0.9123943471
0.9137291056
0.8985890084
0.8772473466
0.8547173467
0.8383707986
0.831694702
0.829908844
0.8301921027
0.8333596759
0.837362442
0.8396308466
0.8410676656
0.8426278168
0.8437496742
0.8458944312
0.8547191347
0.8863742964
0.9403806294
0.9877976173
1.007128134
1.011331176
1.011025612
1.0110675
1.0117067
1.012730793
1.013130543
1.011895918
1.011115529
1.011276226
1.012544441
1.012717458
0.9148972372
0.9147631099
0.899887496
0.8781221373
0.8548890018
0.8382634509
0.8311955394
0.8292568354
0.829757535
0.833086812
0.8370519646
0.839386513
0.8407301078
0.8426463289
0.8440278953
0.8470037493
0.8596618114
0.896132495
0.949163047
0.9935234153
1.007606073
1.011168768
1.011710249
1.011489885
1.012004866
1.01264991
1.012624207
1.011425375
1.010869349
1.011203702
1.012635741
1.013022672
0.915646665
0.9157246702
0.9011683124
0.878899038
0.85478593
0.8379604257
0.8307246948
0.828515526
0.8293532794
0.8328023073
0.8368074697
0.8392955606
0.8407391644
0.8424616526
0.8443859212
0.8489500403
0.8659423587
0.907823346
0.9701135006
1.001786747
1.009059409
1.01056511
1.011774127
1.012043039
1.012396683
1.012875048
1.012348292
1.011175782
1.010696295
1.01097614
1.012163222
1.01319921
0.9162948674
0.9166383784
0.902577804
0.8796870264
0.8549206539
0.8374422593
0.8303086996
0.8280436742
0.829149201
0.8326587874
0.8364253722
0.8390111152
0.8408060937
0.8424761076
0.8448066426
0.8512997254
0.8731434473
0.929760133
0.9875556398
1.007255457
1.01025589
1.010387682
1.011298728
1.011988565
1.012374342
1.013095254
1.012498569
1.01101551
1.010679658
1.010969148
1.011806633
1.012790724
0.9165078969
0.9175489619
0.9038120814
0.8803264868
0.8548909927
0.837233683
0.8299197777
0.8277234551
0.8289593041
0.8325920803
0.836032776
0.8386800038
0.8409617684
0.8426512923
0.8451901665
0.8540857382
0.8846514874
0.9486305991
0.9925954112
1.00849939
1.010611735
1.010558526
1.010778488
1.011747739
1.012296054
1.013102035
1.012737003
1.011250148
1.010774319
1.011181224
1.011987852
1.012345514
0.9169302494
0.9185031874
0.904702509
0.8805848824
0.8549117134
0.8372578979
0.8296357757
0.8276704094
0.8290150013
0.8324606074
0.8357397307
0.8384270402
0.841024532
0.8431420357
0.8462019716
0.8588245168
0.8997863377
0.9553213028
0.9965150106
1.008681325
1.010620118
1.010714707
1.010840508
1.011370171
1.012135275
1.012939204
1.012819722
1.011407248
1.01096556
1.011488672
1.012322934
0.9180151996
0.9191288966
0.9050985254
0.880415258
0.8547713782
0.8371379866
0.8295282621
0.8277193801
0.8290855398
0.8322878904
0.8354883832
0.8382553189
0.8410005306
0.8436591642
0.8486138911
0.8664278765
0.9094697119
0.9646533363
1.001638428
1.009234575
1.010098651
1.010748556
1.011079042
1.011448963
1.012090897
1.0126996
1.012582488
1.011360571
1.011077111
1.011670678
1.012526013
0.9193518042
0.9193523009
0.9050296837
0.8798786818
0.8542929714
0.8367413966
0.8295179259
0.827790688
0.8290058066
0.8320993099
0.8351813592
0.8381719208
0.8409635918
0.8440813263
0.8512767166
0.8738827474
0.9208410822
0.9805467554
1.005140012
1.009792772
1.009697823
1.010381056
1.011174463
1.011692945
1.012179996
1.012559621
1.012189826
1.011096402
1.010917629
1.011587812
1.012571381
0.9197407134
0.9192717951
0.9049135725
0.8800065025
0.8542901108
0.8365338589
0.8294019569
0.8278601129
0.8289262743
0.8317669169
0.8348690256
0.8381640387
0.8410386224
0.8445383194
0.8537004669
0.8822901629
0.9436782445
0.9923894729
1.00734946
1.009888138
1.0095265
1.009743846
1.010946424
1.011863747
1.012345631
1.012512643
1.011568904
1.01059669
1.010447018
1.011151141
1.012463662
0.919681472
0.9190231616
0.9047987717
0.8801540553
0.8544921893
0.8365505005
0.8293464829
0.8279637324
0.828930051
0.831435528
0.8347016651
0.8381848937
0.841349626
0.8454944459
0.857909242
0.8997254467
0.9648607409
0.9981444855
1.008009577
1.009913907
1.009846354
1.009630758
1.010412321
1.011519167
1.012434078
1.012456305
1.011162912
1.010154161
1.010057484
1.010780278
1.011954931
0.9191971714
0.9185251194
0.9047315599
0.8802183478
0.8549847724
0.8366306135
0.8295179987
0.8281715323
0.8290231943
0.8313331961
0.8345626967
0.8381859737
0.8417922069
0.8477642658
0.8666997195
0.9202547563
0.9750132189
1.002843595
1.008520356
1.009648184
1.010087518
1.009895985
1.009997304
1.011007199
1.012004306
1.012441543
1.011003348
1.010023471
1.009986629
1.010761666
1.011641208
0.9176529793
0.9174260914
0.9041527018
0.8801354449
0.8549420012
0.8368026936
0.8297854374
0.8284769305
0.8291724607
0.8312878691
0.8344112582
0.8382262731
0.8424405738
0.8511248535
0.878590775
0.9291700908
0.9836612107
1.006689138
1.009065999
1.009476788
1.009912026
1.010184674
1.010085113
1.010587072
1.011431361
1.01223679
1.010973213
1.010067884
1.010051975
1.010898363
1.011724032
0.9163522908
0.9155975388
0.9024183755
0.8797323857
0.8550210153
0.8370125475
0.8301739021
0.8288242497
0.8292776112
0.8311408634
0.8343004788
0.8383030632
0.8432155946
0.8550687274
0.8858883045
0.9395543939
0.9894769673
1.007521962
1.00933717
1.009327238
1.009440844
1.01021297
1.01042905
1.010383744
1.011143684
1.011762445
1.010706827
1.010068968
1.010100106
1.011002923
1.011853413
0.9157478111
0.9137028158
0.9004427796
0.8791732562
0.8551787233
0.8373176504
0.8306090614
0.8291602747
0.8292838634
0.8307992991
0.8342338275
0.8384636347
0.8441669933
0.859224724
0.8947719454
0.956570869
0.9940678794
1.007508035
1.009130575
1.008999768
1.008893409
1.009950093
1.010548478
1.010786926
1.010928039
1.011425205
1.010460697
1.0098885
1.010023731
1.010949047
0.9152048269
0.9120481811
0.8987860774
0.8788134842
0.8552835517
0.8376850542
0.8310330516
0.8294342891
0.8291715547
0.8306566079
0.8342103538
0.838787057
0.8460261548
0.8652097608
0.9158792771
0.9727082257
0.9993168216
1.006757957
1.008456727
1.008505293
1.00866101
1.00938386
1.010517479
1.01099284
1.011184858
1.011142574
1.010158476
1.009539628
1.009594015
1.010567291
0.9150255685
0.910421317
0.8973524418
0.8779808912
0.8552374466
0.8379665753
0.8315583495
0.8296666875
0.8291377485
0.8305707318
0.8342187842
0.839397891
0.8492189498
0.8776923683
0.9384907998
0.9859607306
1.00307402
1.0065188
1.007701409
1.008255306
1.008562579
1.008828218
1.009981912
1.011043572
1.011191899
1.010727378
1.009643049
1.00911972
1.009094181
1.010043316
0.9149832328
0.9090089429
0.8958517176
0.8772182184
0.8554085623
0.8386942299
0.8321576951
0.8299152927
0.8292336511
0.830559633
0.8342187007
0.8403088028
0.854082076
0.8929795334
0.9512331769
0.9944736348
1.006607499
1.0069004
1.007536879
1.00814311
1.008428798
1.008558629
1.00919207
1.010461553
1.011112335
1.010512432
1.009200355
1.008852166
1.008870277
1.009791939
0.9136353221
0.9077083282
0.8944944855
0.8766171032
0.8557044777
0.8395620446
0.8327674174
0.8301548624
0.8292273785
0.8306760006
0.8343899795
0.8414583829
0.8605479927
0.9016974602
0.9615168267
1.000157882
1.007881445
1.007505318
1.007397981
1.007929454
1.008249336
1.008557602
1.008762538
1.009538454
1.010664181
1.010313371
1.008954354
1.008690705
1.00882599
1.009745858
0.9112671243
0.906390901
0.8932654381
0.8761310615
0.856231381
0.8405888892
0.8333441843
0.8302977326
0.8290768699
0.8308668614
0.8349078443
0.8433882243
0.8663980337
0.9133265286
0.9713449376
1.00155725
1.007885406
1.007566856
1.007263744
1.00750507
1.007870782
1.008383378
1.008624059
1.008906877
1.009831064
1.009930493
1.008687295
1.008573335
1.008811108
1.00983391
0.9089545178
0.9048274158
0.8920254395
0.8757818481
0.8568763411
0.8417016842
0.8338999977
0.830321896
0.8290820303
0.8311096604
0.8359687323
0.8468263461
0.8747851472
0.9334836643
0.9803079759
1.001894959
1.006448468
1.006796527
1.006681566
1.006823564
1.007337116
1.007875639
1.008315569
1.008487776
1.00911996
1.009224751
1.008280438
1.008204491
1.008498229
1.009590226
0.9079036115
0.9028831339
0.8909192629
0.8756766391
0.8576262836
0.8428138674
0.8343961171
0.8302920633
0.8291162252
0.8314405445
0.8371849226
0.8515671267
0.8914360691
0.9514607056
0.9892586082
1.001327292
1.004484136
1.005179113
1.005488191
1.005834006
1.006527396
1.00710426
1.007585811
1.007982286
1.008402726
1.008305949
1.007489202
1.007450848
1.007874075
0.9073426483
0.9014213454
0.890061435
0.8756827411
0.8583576984
0.8438804063
0.8348259482
0.8303503043
0.8293352179
0.8316534529
0.8384749391
0.8585990165
0.9077430233
0.9646925088
0.9954009997
1.002152318
1.003113692
1.00345098
1.003963418
1.004593074
1.005517692
1.006253346
1.006952642
1.007495664
1.007526911
1.007283041
1.006536915
1.006457554
1.006864732
0.9069956779
0.9006632903
0.8895431511
0.8758366906
0.8592429593
0.8448337231
0.8353817035
0.8306321681
0.8297556042
0.8322069349
0.8407887647
0.8672256577
0.9185535593
0.9753802224
1.000111533
1.002874328
1.002346756
1.002491617
1.002970006
1.003692133
1.004568097
1.005356475
1.006016597
1.006798106
1.007096023
1.00609109
1.005497696
1.005392369
1.005838444
0.9073112726
0.900136511
0.8893665803
0.8761915595
0.8600482905
0.8455937954
0.8357696469
0.8310495346
0.8304569499
0.8335977359
0.8447853905
0.8755661885
0.9339555726
0.9840650008
1.000977565
1.002975928
1.002073677
1.001727742
1.002079206
1.002760233
1.003699116
1.004490922
1.00505398
1.005772397
1.006158056
1.005356577
1.004854215
1.004515123
1.00475729
0.9075756253
0.8998275567
0.8894297964
0.8767421021
0.8607048831
0.8461108012
0.8357962967
0.8313326989
0.8312439908
0.8353533409
0.8496657478
0.8891681918
0.9507201758
0.9882585225
1.000432034
1.00183395
1.001629733
1.001353299
1.001673131
1.002186352
1.002665605
1.003380031
1.00407595
1.004558639
1.005035193
1.004222812
1.00368324
1.003513755
1.003701937
0.9072276529
0.89977616
0.8896488646
0.8773304177
0.8610881118
0.8462887539
0.8355383361
0.8316722676
0.8319055357
0.8370231342
0.8566171173
0.9087521471
0.9622531569
0.9895405014
0.9985523434
1.00018973
1.000187696
1.00020569
1.00074713
1.001501802
1.001738457
1.002088929
1.002755914
1.003351474
1.003738184
1.002901725
1.00230849
1.002195421
1.00249885
0.9065227064
0.8998872009
0.8900661368
0.8778889125
0.86157241
0.8462135221
0.8353455912
0.8318937029
0.8325707023
0.8395634727
0.867934506
0.923820729
0.9720591761
0.9913560451
0.996315793
0.9974481656
0.9981173084
0.9985372651
0.9992596848
1.000079969
1.000397412
1.000564842
1.001099859
1.001641016
1.001832784
1.00099568
1.000478432
1.000529427
1.000985745
0.9054652156
0.9000563686
0.8907307012
0.8784447111
0.8619541232
0.846087501
0.835311384
0.8322736038
0.8337648558
0.8445848695
0.8791044639
0.9361751003
0.9808699587
0.9934092081
0.995213696
0.9951775161
0.9955275226
0.9963376773
0.9973372072
0.9985213891
0.9988236697
0.9988936163
0.9993356366
0.9998605508
0.9998864888
0.9990781551
0.998667725
0.9987345105
0.905132177
0.9001420177
0.8912940279
0.87908387
0.8624123503
0.8460544757
0.835311107
0.8327280438
0.8355266649
0.8504541649
0.8898851593
0.9515087273
0.9867117349
0.9950914203
0.9947016152
0.9939465807
0.9938558616
0.9946526843
0.9958395448
0.9970303752
0.9973499308
0.9973653138
0.9977136003
0.9980926171
0.9979776286
0.9972295614
0.9969723383
0.9970938226
0.9052498188
0.89997718
0.8919228682
0.8799115472
0.8628304757
0.8461113652
0.8354687691
0.8332531431
0.8374629395
0.8566788085
0.9061048203
0.961388532
0.9872778112
0.9943687581
0.9945736013
0.9935860725
0.99313075
0.993601419
0.9946433794
0.995717929
0.9961938586
0.996247653
0.9963792212
0.9966343837
0.9968460347
0.9962105996
0.996014539
0.9959503029
0.9056148229
0.9003005629
0.8927322836
0.8807385877
0.8632377008
0.8461492196
0.8359315562
0.8343768489
0.8404198482
0.8675265208
0.9225585362
0.9662080273
0.986302533
0.9928684979
0.9932543858
0.9931845697
0.993160032
0.9934659165
0.9940328577
0.9944385838
0.9949379784
0.9952296725
0.9953977361
0.9957819765
0.9960071399
0.9955118091
0.9954210558
0.9954040147
0.906088079
0.9010405295
0.8938446683
0.8816330329
0.8636167447
0.8461391169
0.836674072
0.8361778436
0.8459450559
0.8822061078
0.9366139257
0.9734778661
0.9867928233
0.9905902152
0.9916941065
0.9919632489
0.9924074591
0.9931055199
0.9936677951
0.9936508047
0.9936830102
0.9941025696
0.9944386827
0.9949309673
0.9952183414
0.9948564778
0.9947799595
0.9948501041
0.9066493442
0.901984878
0.8951592379
0.8825809626
0.8639296663
0.8461176931
0.8374833477
0.8377073398
0.8528673804
0.8957640121
0.9524085836
0.9821856891
0.9872985437
0.98919406
0.9897232285
0.9902850728
0.9911012373
0.9922734209
0.9930935194
0.9931662445
0.9929046764
0.9930960645
0.9935213231
0.9940632779
0.994343768
0.994079684
0.9941262676
0.9943011071
0.9071324048
0.9029997097
0.8965085782
0.8834762849
0.8641854588
0.8461885158
0.8382851511
0.8406071956
0.8594246333
0.910941421
0.9688212034
0.9875411258
0.9893250824
0.9887612325
0.9887033345
0.9889880917
0.9897562914
0.9912021085
0.9924037115
0.9926494415
0.992481265
0.9924615623
0.9928372365
0.993338772
0.9933399502
0.9932344197
0.9933588017
0.9075885386
0.9038294323
0.8977523551
0.8842569205
0.8643285275
0.8465071544
0.8398113751
0.8451677742
0.8712623815
0.9273750941
0.9735104146
0.9877983048
0.9901089726
0.9895020729
0.9885730661
0.9884593094
0.989143387
0.9905380112
0.9917924432
0.9923065269
0.9923285289
0.9923474267
0.99266327
0.9931120934
0.9928210243
0.9926957907
0.9928727638
0.9079899826
0.9046468804
0.8989019653
0.8847668279
0.8642236442
0.8472783664
0.8425644764
0.851529936
0.8872410245
0.9389303526
0.972763921
0.986727455
0.9895304796
0.989740399
0.9891227603
0.9890006092
0.9894156777
0.990418511
0.9915530437
0.9922074375
0.9923593087
0.9925222404
0.9929524024
0.9932764381
0.9928752737
0.9927019062
0.9928712695
0.9079086244
0.905449918
0.8998405253
0.884978463
0.8644407387
0.8487075432
0.8456281726
0.8592932191
0.8990431712
0.9495126246
0.9770186003
0.9859994451
0.9885682294
0.9891770769
0.9893113329
0.9896976123
0.9902140911
0.9909904951
0.9917397365
0.9920951627
0.992345778
0.9927120607
0.9933236279
0.9938989374
0.9936266873
0.993429074
0.9935654388
0.9077594461
0.9062012161
0.9004651927
0.8848466656
0.8647063283
0.850429016
0.8491017925
0.8664970302
0.9145897188
0.9658858416
0.9837819768
0.9860463668
0.9878782045
0.988414503
0.9888795937
0.9898158181
0.9909205897
0.9916799263
0.9920839435
0.9920795254
0.9921972539
0.9926117071
0.993373102
0.9941623622
0.9941175045
0.9940352554
0.9941404507
0.9081411534
0.906771709
0.9007631473
0.8851439381
0.8650865224
0.8524872308
0.8542361251
0.8781383835
0.9371608751
0.9832394806
0.989195083
0.9878696894
0.9877153037
0.9881141634
0.9885319234
0.9896905943
0.9910112681
0.9920482922
0.9922212022
0.9921319336
0.9921380672
0.9925174531
0.9932422205
0.9940463201
0.9942342589
0.9943015478
0.9943399912
0.9084872329
0.9071029865
0.9008007656
0.8853871409
0.8661345175
0.8560596711
0.862097624
0.8997531321
0.9565414436
0.9882505431
0.9910149254
0.9903839003
0.9889734238
0.9883854735
0.9888564894
0.9899207335
0.9914196964
0.9925681428
0.9925841564
0.9924403714
0.9924107065
0.9927207221
0.9932889538
0.9940981757
0.994291123
0.9943978557
0.9945284078
0.9085825468
0.9073034322
0.9007283644
0.8856116973
0.8678369809
0.8611367313
0.8743576137
0.917767958
0.9658992923
0.9884144805
0.9918817542
0.9921625529
0.9914195282
0.9904181437
0.9905215923
0.9912462466
0.9927414615
0.9936437365
0.9935652887
0.9934417562
0.9934360654
0.9937025254
0.9942247551
0.9946825922
0.9946404452
0.9947060676
0.9085921618
0.9072070449
0.9008089866
0.8858337057
0.8697588571
0.8663451381
0.885452892
0.9279766669
0.9722034009
0.9904315954
0.9924778599
0.9934267391
0.9934271908
0.9933535229
0.9935803819
0.994070788
0.9949631499
0.9955227063
0.9955473142
0.9953952958
0.99546019
0.9958062963
0.9963851922
0.9963561838
0.9959106513
0.9957496237
0.908562175
0.9070821836
0.9005860938
0.88543598
0.8719152771
0.8725280539
0.8946458071
0.9446506087
0.9844808915
0.9945405235
0.9940961281
0.9948681691
0.9953353601
0.9959447773
0.9969849874
0.9977435079
0.9980520938
0.9982837515
0.9982745573
0.9980724297
0.9980319028
0.9983977154
0.9990025092
0.998825975
0.9983677177
0.9980196334
0.9079991529
0.9069574944
0.900409195
0.885864284
0.8750279415
0.8799856796
0.9130182209
0.9709942659
0.9985658992
0.9993764809
0.9970534513
0.9970014303
0.9976374125
0.9986260563
1.000192869
1.001516424
1.001697718
1.001593953
1.001345604
1.00106097
1.001023803
1.001460005
1.002081675
1.002114941
1.00165215
1.001456911
0.9074815068
0.906746915
0.9000021582
0.8873121719
0.8806418892
0.8919149956
0.9415390121
0.9891368782
1.004151156
1.003762228
1.001327482
1.000225203
1.000759905
1.001911303
1.003620419
1.005269129
1.005628212
1.005299043
1.004850097
1.004590169
1.004623093
1.005171721
1.005868498
1.006351998
1.005879153
1.005643932
0.906660339
0.9066998289
0.9001519827
0.8894498703
0.8875968838
0.9101336499
0.9596686815
0.9960514871
1.007234828
1.007576676
1.006624032
1.005278246
1.00522149
1.006195457
1.007710079
1.009355407
1.009903433
1.009471183
1.008996344
1.008856296
1.009026109
1.009660771
1.010435346
1.0109962
1.010648866
1.010347037
0.9058708136
0.9062458471
0.9002009171
0.892404074
0.8950467219
0.9250057376
0.9700862957
1.002669384
1.010846407
1.011627505
1.011208161
1.011303158
1.01121455
1.011839756
1.012751816
1.014039308
1.014695118
1.014386473
1.014034321
1.014016548
1.014328369
1.014955495
1.015642578
1.015960721
1.015665023
0.9051382627
0.9049517409
0.8998474442
0.8949423448
0.9048609158
0.9388525765
0.9876408117
1.013400784
1.015815618
1.015784274
1.015950837
1.016585429
1.017755564
1.018733157
1.019137627
1.01955387
1.020073148
1.019932528
1.019708992
1.019759785
1.020219295
1.020885386
1.02138279
1.021279563
1.020931301
0.9045027803
0.9043311432
0.9006414869
0.8985416988
0.9164577838
0.9645036302
1.012134875
1.023967332
1.022241671
1.020898506
1.020773723
1.021925844
1.023412847
1.025268129
1.026418672
1.026130822
1.026049443
1.025811317
1.025529256
1.02555491
1.025981267
1.02682843
1.027322656
1.026959664
1.026445123
0.9040092357
0.9048684727
0.903274478
0.9064440077
0.9340774691
0.9934048169
1.026325657
1.031037173
1.029847076
1.027141031
1.026398487
1.027423517
1.028878982
1.031089224
1.032812362
1.032914024
1.03223636
1.031549201
1.03112561
1.031170783
1.031624525
1.032502781
1.033039085
1.032849313
1.032247891
0.9041609308
0.9063573793
0.9062969661
0.9188008927
0.9583942434
1.009532821
1.032829133
1.036723205
1.03636662
1.034728178
1.032888441
1.03337699
1.034727345
1.036547932
1.038615824
1.038770129
1.037964638
1.037086679
1.036647292
1.036694318
1.037139936
1.038108683
1.03878844
1.038780006
1.038340219
0.9046980808
0.9078484392
0.9097668137
0.930707295
0.9771582672
1.021151215
1.039432828
1.042303463
1.042074655
1.040895146
1.040099563
1.040054574
1.040960435
1.042359515
1.043913491
1.044358624
1.043561721
1.042750435
1.04238584
1.042434309
1.042873471
1.043683437
1.044527928
1.044731503
1.044358588
0.9054318337
0.9107099118
0.915962163
0.9413970284
0.9947895967
1.039188532
1.04713714
1.046800286
1.046888078
1.046117293
1.046025728
1.046736181
1.047741401
1.048469401
1.049413958
1.049789678
1.049289277
1.048665773
1.048451345
1.048558193
1.048999142
1.049787148
1.050458177
1.050462483
1.05016537
0.9056402529
0.9139897358
0.9271113691
0.9582659059
1.020040606
1.05490526
1.05480873
1.052121453
1.050683323
1.050359961
1.051260383
1.052253732
1.053916081
1.055013907
1.055046986
1.05520375
1.054869438
1.054473064
1.054492889
1.054899874
1.055579617
1.056206442
1.056376559
1.056193397
0.9077629533
0.9158265066
0.9383743584
0.990531677
1.044573632
1.061849252
1.061351518
1.057473564
1.05507343
1.054005853
1.055413135
1.057297036
1.059229041
1.060793541
1.060981822
1.060558786
1.060144373
1.059941893
1.060074401
1.060664426
1.061699385
1.062493639
1.062454008
1.061731937
0.9112439405
0.9197465601
0.9505796017
1.017703366
1.058143189
1.066055256
1.065154378
1.063312878
1.059381074
1.05845945
1.059220525
1.061502413
1.063971103
1.065879232
1.065908901
1.065239978
1.064935901
1.0649249
1.065263089
1.066109588
1.067384115
1.068146906
1.067858114
1.067095053
0.9161023149
0.9273924588
0.9680742869
1.031090327
1.063862783
1.067250574
1.068143797
1.066815568
1.065033318
1.063014145
1.064233425
1.06595177
1.068130415
1.070280925
1.070666583
1.069998155
1.069612836
1.069663465
1.070172251
1.071157599
1.072589221
1.073418843
1.073356478
1.072787781
0.9202342903
0.9429648313
0.9876797712
1.044198929
1.070635301
1.070147016
1.069330651
1.06965697
1.069412656
1.06940407
1.070008486
1.071718353
1.072942653
1.074324321
1.075342439
1.075180003
1.075009128
1.075094962
1.075630904
1.076524218
1.07773313
1.078619864
1.078678298
1.078307607
0.9215408205
0.9574022558
1.013274029
1.063789995
1.078389291
1.075441099
1.071624226
1.071924467
1.074217701
1.075875368
1.076812749
1.077824814
1.0784097
1.079167248
1.080222833
1.080536567
1.080657941
1.080818161
1.081303749
1.081996285
1.082814024
1.083468026
1.083513049
1.083122565
0.9243471132
0.9722110096
1.042944551
1.079237692
1.082568992
1.078916977
1.076198244
1.076302416
1.078851033
1.081359053
1.082571427
1.083452525
1.084154953
1.084635358
1.085303337
1.085701911
1.085872034
1.086086533
1.086478213
1.086960621
1.087456166
1.08780313
1.087629217
0.9334254084
0.9896379291
1.057519877
1.085889558
1.085708598
1.08433381
1.083105159
1.082863154
1.082968084
1.0848373
1.087202907
1.0886752
1.089631559
1.089769154
1.089681608
1.089960035
1.09020955
1.090416801
1.090717493
1.091120184
1.091427456
1.091414139
1.090838948
0.9466992519
1.020185422
1.070404257
1.090715117
1.092216574
1.091004738
1.09027783
1.088590855
1.087375195
1.088065286
1.089686223
1.092067904
1.093379169
1.093289989
1.093003076
1.092871274
1.093095138
1.093330315
1.093636867
1.094137287
1.094362622
1.094049858
1.093181086
0.9696894306
1.055796532
1.085367055
1.095757187
1.096537685
1.094244671
1.093819269
1.093287376
1.092477836
1.092492644
1.092770199
1.09357421
1.094739897
1.095087341
1.094902749
1.09436097
1.094315099
1.094473146
1.094998598
1.095841948
1.095940407
1.095552314
1.094724243
0.9853641932
1.095723923
1.103020772
1.103872261
1.099048347
1.093688874
1.093832719
1.096282892
1.0969522
1.096377457
1.095709485
1.094785682
1.09461296
1.095198301
1.095316744
1.095237209
1.095049956
1.095084673
1.095340363
1.096088638
1.096383663
1.09610987
1.095474584
1.010109018
1.136835057
1.11555013
1.110047957
1.100415284
1.094883007
1.093677144
1.096309043
1.099079025
1.098637676
1.097286671
1.095587627
1.095407767
1.095914233
1.09619027
1.095985982
1.095697216
1.095712983
1.095896894
1.096125188
1.096139548
1.095811527
1.095159033
1.011598005
1.134420004
1.116914985
1.110347629
1.100588177
1.095521724
1.096236536
1.097561778
1.097696485
1.097446391
1.096633782
1.096119077
1.097088831
1.096841794
1.096634818
1.0964755
1.096254755
1.096156542
1.096069109
1.096145364
1.096289561
1.095916277
1.094873683
0.9872144972
1.101497327
1.108092458
1.105922431
1.100893715
)
;

boundaryField
{
    inlet
    {
        type            fixedValue;
        value           nonuniform 0();
    }
    outlet
    {
        type            inletOutlet;
        inletValue      nonuniform 0();
        value           nonuniform 0();
    }
    bottom
    {
        type            slip;
    }
    top
    {
        type            slip;
    }
    obstacle
    {
        type            zeroGradient;
    }
    defaultFaces
    {
        type            empty;
    }
    procBoundary15to9
    {
        type            processor;
        value           nonuniform List<scalar> 
36
(
1.010996467
1.011581038
1.010074307
1.009290717
1.010090575
1.012053269
1.011389727
1.010904391
0.9040340823
0.8929506083
0.8645673751
0.8415775065
0.8312507962
0.8292341023
0.8302307446
0.83352933
0.8373485081
0.840691631
0.8424390227
0.8438300798
0.8447121845
0.845025876
0.8450410429
0.8451850584
0.8454657728
0.8467515564
0.853653088
0.878823758
0.9307906397
0.9835669347
1.00505549
1.008612353
1.009838194
1.009838194
0.9038096939
0.9038096939
)
;
    }
    procBoundary15to10
    {
        type            processor;
        value           nonuniform List<scalar> 
20
(
1.011007422
1.011226907
1.011651927
1.011934069
1.011934069
1.011962878
1.011911445
1.011982788
1.012141931
1.012379501
1.012550063
1.012299099
1.011861093
1.011861093
1.011890041
1.012159862
1.012613936
1.012874302
1.012649905
1.012210748
)
;
    }
    procBoundary15to16
    {
        type            processor;
        value           nonuniform List<scalar> 
69
(
1.012351625
1.012351625
1.012416615
1.012472229
1.012459064
1.012230543
1.01198415
1.011905632
1.011835663
1.011818988