/*--------------------------------*- C++ -*----------------------------------*\
  =========                 |
  \\      /  F ield         | OpenFOAM: The Open Source CFD Toolbox
   \\    /   O peration     | Website:  https://openfoam.org
    \\  /    A nd           | Version:  7
     \\/     M anipulation  |
\*---------------------------------------------------------------------------*/
FoamFile
{
    version     2.0;
    format      ascii;
    class       volScalarField;
    location    "2.3";
    object      p;
}
// * * * * * * * * * * * * * * * * * * * * * * * * * * * * * * * * * * * * * //

dimensions      [1 -1 -2 0 0 0 0];

internalField   nonuniform List<scalar> 
555
(
0.9963122328
0.9976363535
0.9986832313
0.9994499705
1.00050994
1.001024608
1.001316461
1.001020669
0.9999212167
0.9989940083
0.9990887927
0.9880735485
0.9945467639
0.9960109869
0.9939722132
0.9935005041
0.9944330687
0.996394509
0.9975638147
0.9984915281
0.9994468463
1.00073934
1.001337981
1.00123424
1.000618714
0.9992246137
0.9975347135
0.9974387253
0.9878668893
0.9945462902
0.995475748
0.9929840837
0.992152923
0.9931399406
0.9953388491
0.9964517074
0.9972651617
0.9983056786
0.9997892285
1.000277807
0.9994711327
0.9985271137
0.9970375715
0.9953312547
0.9951715369
0.9863019325
0.9926705421
0.9937765691
0.9914819236
0.9910305272
0.9922219416
0.9944684432
0.9958567255
0.9964053099
0.9969341562
0.9980289989
0.998001924
0.9970616984
0.9964379479
0.9955200232
0.9945447135
0.9946107992
0.9901638994
0.9935062564
0.9916964386
0.9913155614
0.9925927152
0.9947845742
0.9962448983
0.9966552934
0.9969973215
0.9977706266
0.9975204052
0.9970486922
0.9967148349
0.996416048
0.9958406334
0.995835669
0.990158337
0.9940233877
0.9921459427
0.9917160987
0.993059005
0.995477434
0.9971195793
0.9972304204
0.9973559656
0.9980543488
0.9979955397
0.9977452149
0.9975213836
0.9976116268
0.997263198
0.9974198776
0.9907063606
0.9950561145
0.9933334956
0.9930167219
0.994354836
0.996601675
0.9980758554
0.9981672117
0.9983677687
0.9989043285
0.99906692
0.9990032761
0.9989388074
0.9991296407
0.9987880196
0.9990238087
0.9919301022
0.9965304711
0.9944028507
0.9935382757
0.9943996692
0.996666424
0.998197813
0.9983955192
0.9987531445
0.9994033611
1.00059661
1.000725493
1.000381631
1.000121103
0.9996087249
0.99995095
1.000704619
0.9934042737
0.9966099647
0.9944949174
0.9929966223
0.9936210366
0.996085156
0.9976892907
0.9980294953
0.998737361
0.9995414297
1.000821188
1.001106993
1.000711362
1.000100911
0.9991250928
0.9994398048
1.000510923
0.9929170109
0.9959137194
0.9933872069
0.9913420246
0.9917273293
0.9943205111
0.9959181809
0.9966794523
0.9979918132
0.9992845063
1.000505723
1.000800496
1.000379118
0.9996299132
0.9982692684
0.9983918932
0.9997615707
0.9911056341
0.99433685
0.9919923482
0.9905834744
0.9908832621
0.993561218
0.9953482723
0.9964552637
0.9979441682
0.999274155
0.9996607231
0.9995780544
0.9990451733
0.9984291676
0.9968550792
0.9969368938
0.9982516736
0.9896884891
0.994431122
0.9920546682
0.9906201582
0.9910762813
0.9938382132
0.9957057756
0.9967813876
0.9981241598
0.9994735318
0.999678765
0.9991671192
0.9986251903
0.9982584936
0.997356142
0.9966059307
0.9968934876
0.9952845631
0.993047969
0.9911348688
0.9916276612
0.9943224413
0.9966303857
0.9980364504
0.9988380866
0.9996639587
0.9999020899
0.9993470055
0.9988765272
0.9986871604
0.9982845023
0.9975171991
0.9970935161
0.9957989342
0.9937585227
0.9923914126
0.9929260045
0.9954525125
0.9983546247
0.9995169555
0.9994381518
0.9994351918
0.9999469125
0.9995504918
0.9992436208
0.9993269612
0.999342431
0.9986315651
0.998051482
0.9966513821
0.9945288346
0.9929053369
0.9931152961
0.9960414314
0.9990186505
0.9995124582
0.9992914912
0.9991310803
0.9994267414
0.9997964481
0.9999368015
0.9999559872
0.9996741022
0.998966516
0.9986746876
0.9970608938
0.9944544383
0.9928339333
0.9924255414
0.995319452
0.9986460637
0.9990011828
0.9981830994
0.9977972365
0.9984179854
0.9996564172
0.9998889539
0.9995759834
0.9988970515
0.9985069319
0.9987288888
0.996741404
0.9935329003
0.9912099033
0.9903090165
0.9931998236
0.9965018473
0.9966845756
0.9970475016
0.9973592679
0.9978917155
0.998949454
0.9990174266
0.9986852756
0.997939801
0.9977419199
0.9985331722
0.9958768794
0.993521646
0.9894618654
0.988516178
0.9911974064
0.9940359603
0.9958573461
0.9966710303
0.9971317614
0.9977931681
0.9981295971
0.9978109037
0.9973564978
0.9968401713
0.9968889652
0.9980536111
0.9949502816
0.9937018516
0.9893790835
0.9883401728
0.9906001989
0.9933115215
0.9954487006
0.9966963775
0.9973537939
0.9976954329
0.9976944699
0.9972045343
0.9966539647
0.9962452774
0.9963637655
0.997793157
0.9938852224
0.9936949458
0.989861474
0.9889689571
0.9908304782
0.9941383974
0.9967027149
0.9978611922
0.9979850536
0.9978066524
0.9978133025
0.9976567187
0.9974616138
0.997344327
0.9976455521
0.9988191768
0.9927151052
0.994808445
0.990865175
0.989886623
0.9922105834
0.9958178067
0.9975228339
0.9974434918
0.9972330924
0.9978407874
0.9988976805
0.9993251494
0.9993348762
0.9991383349
0.9986848115
0.9987308212
0.9766930915
0.9932407956
0.9869423577
0.9884573008
0.9934001064
0.9969620548
0.9964029983
0.9951244388
0.9944306238
0.9951378306
0.9967499255
0.997790096
0.9981172851
0.9981436124
0.9977921506
0.9977596324
0.9188447286
0.9683363243
0.970857721
0.9886571623
0.9977158681
0.997999368
0.9960029386
0.9948860259
0.9941915058
0.9946615359
0.9961925785
0.9977393972
0.9979635596
0.9975426389
0.9966963631
0.9963701909
0.7268609272
0.8523685539
0.9219755145
0.9786870867
0.9870473248
0.988642824
0.9916153157
0.9929176709
0.994831124
0.9960195967
0.9977401562
0.9977538448
0.9976502096
0.9969135092
0.9961841079
0.9961986783
0.5793824774
0.6573127493
0.7838468067
0.9024763111
0.9336570082
0.9690097068
0.9956711871
0.9940620706
0.9953134071
0.9982370699
0.9994807107
0.9988261509
0.9971862862
0.9956417159
0.9955449032
0.9961493561
0.5556285536
0.5637416147
0.6125174838
0.7037049096
0.8224138367
0.9362493658
0.9846103806
0.9823989768
0.989328731
0.9954285022
0.9956565324
0.9956150303
0.9957209972
0.9958955456
0.9973115527
0.9986482427
0.5624537706
0.5627266921
0.565300737
0.5833517658
0.6512717591
0.7539470867
0.8685124945
0.9205801289
0.967664557
0.9777640059
0.9850955154
0.9931760862
0.9955570211
0.9966482782
0.9975408343
0.9984383745
0.5974122576
0.5811337046
0.5684620139
0.5682084907
0.5744382645
0.605919346
0.6934662864
0.8205997643
0.9344921502
0.9543529149
0.978486702
0.9983797426
0.9961216955
0.9952993796
0.9946586887
0.9935893616
0.6206207765
0.6049131988
0.5841858369
0.5733029073
0.5755144776
0.578974021
0.5927463393
0.6471330019
0.7442246977
0.85311723
0.9460741187
0.9872465159
0.9804530957
0.9864340832
0.9861127758
0.9867979861
0.6594438593
0.650256572
0.636662458
0.6100769823
0.5940234617
0.5866819776
0.5807683967
0.5836274228
0.6079819572
0.6887561961
0.7899631515
0.8929906587
0.933612454
0.9769707314
0.9832394121
0.9897452058
0.7282007444
0.6923333824
0.6694964583
0.643608418
0.617300005
0.6064228545
0.5934172095
0.5851985708
0.5871853175
0.6015439642
0.6437174808
0.7332348569
0.856624039
0.9503688771
0.9716183497
0.9912801872
0.7852029895
0.737137645
0.7083512346
0.6937602063
0.6660615971
0.6479279522
0.6332703951
0.6083818751
0.5945531196
0.5945921848
0.5973280262
0.6169460216
0.6832037414
0.7843155593
0.8725744843
0.9573331733
0.845610111
0.8042391147
0.7650569684
0.7413058815
0.7115541382
0.6762667874
0.6599984662
0.6446546417
0.6147986776
0.6040939376
0.600309178
0.6018032315
0.6097079104
0.6436027775
0.7346294246
0.8341664877
0.9058066933
0.8660711961
0.8167060283
0.78360227
0.7561451643
0.7196771699
0.6999320344
0.6895829802
0.6658032308
0.6366020387
0.6242777207
0.6134243113
0.6044180202
0.605849895
0.6245655806
0.676096561
0.9702994278
0.9218166744
0.8740031477
0.8359327275
0.8098573227
0.7777111404
0.7410211278
0.7213755683
)
;

boundaryField
{
    inlet
    {
        type            fixedValue;
        value           nonuniform 0();
    }
    outlet
    {
        type            zeroGradient;
    }
    bottom
    {
        type            slip;
    }
    top
    {
        type            slip;
    }
    obstacle
    {
        type            zeroGradient;
    }
    defaultFaces
    {
        type            empty;
    }
    procBoundary28to21
    {
        type            processor;
        value           nonuniform List<scalar> 8(0.9897585764 0.9910923623 0.9919299345 0.9840514407 0.9840514407 0.9836163958 0.9841085729 0.9850328156);
    }
    procBoundary28to22
    {
        type            processor;
        value           nonuniform List<scalar> 
18
(
0.9955108427
0.9969600881
0.9980385514
0.9986384305
0.9995878744
1.000236227
1.001033378
1.001435903
1.000717872
1.000578346
1.00072967
0.987082774
0.9931000647
0.9955152823
0.9936810613
0.9934854783
0.9944679038
0.9944679038
)
;
    }
    procBoundary28to23
    {
        type            processor;
        value           uniform 0.9990637204;
    }
    procBoundary28to27
    {
        type            processor;
        value           nonuniform List<scalar> 
28
(
0.9860906352
0.9854364472
0.9840127286
0.9828169535
0.989543768
0.989543768
0.9898969665
0.9896348084
0.9894907066
0.9891719443
0.9887708117
0.9879222208
0.9871917814
0.9854838438
0.9434471728
0.7964072397
0.6193309089
0.5550905673
0.5554896201
0.5672445304
0.6083574788
0.6441206532
0.6982346726
0.7706182592
0.8226948784
0.8833769725
0.9567795773
1.027253308
)
;
    }
    procBoundary28to29
    {
        type            processor;
        value           nonuniform List<scalar> 
34
(
0.9976118543
0.9955950223
0.9951798568
0.9964339333
0.9980597662
0.9996136314
0.9996136314
1.00129019
1.001965888
1.001369204
1.000267715
0.9979401701
0.9965840496
0.9971127856
0.9977823479
0.998529714
0.9995900076
1.000177678
1.000768685
1.000515222
0.9988935376
0.9977414695
0.9964193258
0.9967427511
0.9972636321
0.9993550543
0.9989673835
0.9941580739
0.9906268149
0.9954010911
0.9991554878
0.9899189216
0.9152018886
0.7739302044
)
;
    }
    procBoundary28to34
    {
        type            processor;
        value           nonuniform List<scalar> 
17
(
0.7005927651
0.6704627868
0.65152236
0.6363454751
0.6170696943
0.6077455332
0.6117300219
0.6197649143
1.0369515
0.9861959154
0.935971829
0.8873682682
0.8549638266
0.8239899256
0.7858877987
0.7005927651
0.7567085967
)
;
    }
}


// ************************************************************************* //
