/*--------------------------------*- C++ -*----------------------------------*\
  =========                 |
  \\      /  F ield         | OpenFOAM: The Open Source CFD Toolbox
   \\    /   O peration     | Website:  https://openfoam.org
    \\  /    A nd           | Version:  7
     \\/     M anipulation  |
\*---------------------------------------------------------------------------*/
FoamFile
{
    version     2.0;
    format      ascii;
    class       volScalarField;
    location    "4.5";
    object      T;
}
// * * * * * * * * * * * * * * * * * * * * * * * * * * * * * * * * * * * * * //

dimensions      [0 0 0 1 0 0 0];

internalField   nonuniform List<scalar> 
2222
(
2.084983018
2.075212059
2.065377975
2.056494503
2.047770517
2.039094221
2.030194501
2.021738928
2.014671767
2.008752606
2.003620932
1.998417133
1.992985475
1.986971579
1.980207446
1.973216968
1.966620497
1.96105683
1.955732365
1.950486921
1.944776884
1.938281629
1.930417239
1.92155901
1.91240095
1.903386694
1.894614677
1.886207561
1.87817827
1.870586281
1.863717905
1.856910236
1.850781497
1.838848299
2.085768595
2.076289436
2.066440721
2.057702131
2.048887313
2.040259731
2.031709254
2.023379998
2.016194505
2.01017002
2.005043028
2.000016429
1.994696952
1.988680124
1.981817989
1.974656685
1.967849213
1.962005896
1.956588769
1.951172354
1.94539256
1.938893835
1.931022349
1.922010886
1.912735981
1.903683631
1.894921496
1.886575114
1.878601368
1.871087032
1.864313577
1.857485158
1.851482885
1.839589846
2.086518348
2.077331822
2.067521704
2.058984706
2.050102754
2.041517291
2.033154952
2.024911889
2.017662023
2.011592899
2.006498466
2.001644024
1.996396993
1.990407142
1.983458433
1.976140795
1.969110415
1.963022111
1.957511356
1.951878619
1.946034694
1.939498532
1.931536377
1.92234158
1.912895815
1.903854328
1.895143649
1.886869791
1.879009143
1.871636754
1.864973827
1.858034958
1.851586108
1.84017143
2.08730288
2.078334052
2.068580694
2.060295382
2.05140501
2.042818577
2.034418232
2.026254425
2.019031048
2.013019637
2.008008101
2.003306069
1.998123283
1.992125095
1.985089967
1.977656447
1.970438338
1.964124738
1.95836158
1.952574363
1.946690746
1.940060482
1.931940604
1.922508191
1.91291817
1.903899687
1.895328352
1.887141815
1.879410429
1.872161183
1.865653953
1.858760623
1.852017042
1.840775201
2.088187016
2.079368028
2.069669853
2.061581127
2.052771826
2.044149121
2.035571179
2.027436013
2.020365984
2.014481826
2.009571408
2.004997615
1.999814248
1.993825148
1.986742134
1.979225805
1.971822209
1.965271168
1.959291776
1.953307954
1.947344132
1.940548788
1.932194494
1.922529941
1.912783869
1.903827466
1.895538583
1.887540405
1.879970073
1.872844574
1.86616199
1.859011991
1.852473349
1.841329875
2.089216643
2.080516212
2.07095579
2.062810174
2.054151878
2.045485585
2.036803774
2.028736
2.021762137
2.016006723
2.011172737
2.006697001
2.00154916
1.995538135
1.988425511
1.980828693
1.973240284
1.966444796
1.960198005
1.954063844
1.947972043
1.940944492
1.932300655
1.922384052
1.912523693
1.903705745
1.895700174
1.887960153
1.880716258
1.873885882
1.866956049
1.859286933
1.852824062
1.84179064
2.090411617
2.08178937
2.07250364
2.063915165
2.055498294
2.046800064
2.038134053
2.030203827
2.023257204
2.017588435
2.012789163
2.008375698
2.00327545
1.997274502
1.990120414
1.982439032
1.974650373
1.967625153
1.96116047
1.954840322
1.948544577
1.941236685
1.932300568
1.922146916
1.912248668
1.903596234
1.895707445
1.888296921
1.881363407
1.874171414
1.866759217
1.859263995
1.853030951
1.842154068
2.083162829
2.074228638
2.064891839
2.056774199
2.048108132
2.0395468
2.03178555
2.024834964
2.01918128
2.014394822
2.010004177
2.004956421
1.998978042
1.991771026
1.983973101
1.976002846
1.968795189
1.962163022
1.955625059
1.949052107
1.941419248
1.932217556
1.92188142
1.912009745
1.903478448
1.895771835
1.888556032
1.881513659
1.874203104
1.866687281
1.859231632
1.853193822
1.842434243
2.0845853
2.075991263
2.06597571
2.057983757
2.049476429
2.041049976
2.03341929
2.026450206
2.020740603
2.01595502
2.011557805
2.006571408
2.000628051
1.993316092
1.985377338
1.977278934
1.969918537
1.963138216
1.956360389
1.949466668
1.941496303
1.932063153
1.921599632
1.91179356
1.903331092
1.895647819
1.888408204
1.881265416
1.873890901
1.866398609
1.859047762
1.852996549
1.842546807
2.086031947
2.077683155
2.067293083
2.059248757
2.051020903
2.042662565
2.034983262
2.028005223
2.022265711
2.017457695
2.013011017
2.008020969
2.002033281
1.994689248
1.986637558
1.978447387
1.970985934
1.964072272
1.95697781
1.949776441
1.941501251
1.931868039
1.921338583
1.911572031
1.90304936
1.895281459
1.887976861
1.880722009
1.873354108
1.865991772
1.858732183
1.852791207
1.842604753
2.087497472
2.079284422
2.068835435
2.060746229
2.052789205
2.044396016
2.036580372
2.029780584
2.023875938
2.018938846
2.014343256
2.009247538
2.003132146
1.995754343
1.98767241
1.979434308
1.971907512
1.964830528
1.957468457
1.950025514
1.94144911
1.931665466
1.921107432
1.911280042
1.902566803
1.894644455
1.88727252
1.879991954
1.872672883
1.86549977
1.858417454
1.852601415
1.842643048
2.088978361
2.080875441
2.070633349
2.062561915
2.054708024
2.046211653
2.038248349
2.03133427
2.025557144
2.020445786
2.015561534
2.010237579
2.003921809
1.996455786
1.988404194
1.980174151
1.97259903
1.965396902
1.957825694
1.950064776
1.941364538
1.93146942
1.92088206
1.910850457
1.901880733
1.893783345
1.886358292
1.879120282
1.871870835
1.864907437
1.85809496
1.852475975
1.842524573
2.090465587
2.082454804
2.07262381
2.064606127
2.05667979
2.048064595
2.040036338
2.033129848
2.027378341
2.02198752
2.016688046
2.010991584
2.004399201
1.996850072
1.988809779
1.980632202
1.973032308
1.965720371
1.958041828
1.950141239
1.941339202
1.931243027
1.920595375
1.910248344
1.901037938
1.892772411
1.885312006
1.878156511
1.87106349
1.864358168
1.857764122
1.852207023
1.84239532
2.091945533
2.084002743
2.074680428
2.066685172
2.05856214
2.049933301
2.041958639
2.035128271
2.029180345
2.023508548
2.017729383
2.011538857
2.004636514
1.997047135
1.989027982
1.980886464
1.973239429
1.965886949
1.958146851
1.950092082
1.941152549
1.930936716
1.920159667
1.909504025
1.900106932
1.891714748
1.884262875
1.877172289
1.870355132
1.863915682
1.857525571
1.851866177
1.842241688
2.093443207
2.085510388
2.076642086
2.06858121
2.060151282
2.051782427
2.04402241
2.037215869
2.031045249
2.02493233
2.018629741
2.011918618
2.004723376
1.997115867
1.989078647
1.980938907
1.973221654
1.965839123
1.958118482
1.949943898
1.940896628
1.930557157
1.919553838
1.908685498
1.899164835
1.890713635
1.883316178
1.876274713
1.869835318
1.863642858
1.857367777
1.851646613
1.842110297
2.095010565
2.086983506
2.078398151
2.070066425
2.061582415
2.053768342
2.046202261
2.039280181
2.032735533
2.026146652
2.019289224
2.012143768
2.00472403
1.996958681
1.98888221
1.980784588
1.973060587
1.965693334
1.958006326
1.949542364
1.940305096
1.929865008
1.91878918
1.9078823
1.898357782
1.8898829
1.882572072
1.875665339
1.869531509
1.863530443
1.857301423
1.851576589
1.842049734
2.096640526
2.088524715
2.079973172
2.071388073
2.063230541
2.055876203
2.04832698
2.041204573
2.034263098
2.027123674
2.01966957
2.012194522
2.00453927
1.996488691
1.988349533
1.980338265
1.972672678
1.965321979
1.957497593
1.948909384
1.939547093
1.929032561
1.917966898
1.907174153
1.897768815
1.889322383
1.88211893
1.875427818
1.86941615
1.863525068
1.8573456
1.851613161
1.842056589
2.098256056
2.090175848
2.081602959
2.072876229
2.065038665
2.057932867
2.050275523
2.04287331
2.035535633
2.02783738
2.019825038
2.011974363
2.003998364
1.995686974
1.987487822
1.979566823
1.971993812
1.964654121
1.956763329
1.948039266
1.93858797
1.928098182
1.917170233
1.906612186
1.897406382
1.889019263
1.881924381
1.87539737
1.869461194
1.86365193
1.857498357
1.851710574
1.842128557
2.099759053
2.09189337
2.083251153
2.074518259
2.066870913
2.059717233
2.051855452
2.044218809
2.036505995
2.028279671
2.019812131
2.011416423
2.003029023
1.994533286
1.986310173
1.978484844
1.971027753
1.963699353
1.955778305
1.946959698
1.937492421
1.927149249
1.916489005
1.906227116
1.8972296
1.888897536
1.881874557
1.875546137
1.869671695
1.864033831
1.857740351
1.851885716
1.842330738
2.101082906
2.093479278
2.084952472
2.076064637
2.068531464
2.061021322
2.053016412
2.045199128
2.037116037
2.028460024
2.019618012
2.010544551
2.001651313
1.993017541
1.984818437
1.97712052
1.969782918
1.962491733
1.954565568
1.945726774
1.936331031
1.9262659
1.915961664
1.906024697
1.897181565
1.888982772
1.882085437
1.875908779
1.870093404
1.864341468
1.858006337
1.852228233
1.842736874
2.102222531
2.09467736
2.086840082
2.077468316
2.069902234
2.061810743
2.053774367
2.045742664
2.037356353
2.028451355
2.019097358
2.009374811
1.999987886
1.991222278
1.983079582
1.975546797
1.968331191
1.961109055
1.953201682
1.94441284
1.935194255
1.925504645
1.915613076
1.90597829
1.897356169
1.889410141
1.882712862
1.876758405
1.87091206
1.864856504
1.858511319
1.852947565
1.843366484
2.103179686
2.095417648
2.088179232
2.078970157
2.070658051
2.062285496
2.054212028
2.045931781
2.037280841
2.028161954
2.018199771
2.007910409
1.998188202
1.989315266
1.981257625
1.973879234
1.966774424
1.959646285
1.951802207
1.943136938
1.934169952
1.924899132
1.915457883
1.906136574
1.89786562
1.890221103
1.883870386
1.877764994
1.871669032
1.865679294
1.859343734
1.853824288
1.844142549
2.103899304
2.095877717
2.08859073
2.079716391
2.070827455
2.06257312
2.054398382
2.045919276
2.037032491
2.027744475
2.017018688
2.006267611
1.996383955
1.987466441
1.979516248
1.972238967
1.965236277
1.95821867
1.950492553
1.942009697
1.933344241
1.924492685
1.915499464
1.906969791
1.899120273
1.891740016
1.885644963
1.879461121
1.873324477
1.867256927
1.860859898
1.855256553
1.84541661
2.096148414
2.088342559
2.07974649
2.070444576
2.062655919
2.054301054
2.045570228
2.036425444
2.026508037
2.015589722
2.004613459
1.994703437
1.985820941
1.97797509
1.970760311
1.963870036
1.956962415
1.949383873
1.941121542
1.932766977
1.924345835
1.91581287
1.907738101
1.900395312
1.893422872
1.887579205
1.881864652
1.875852185
1.869744442
1.863229653
1.857468084
1.846926821
2.096255089
2.087667183
2.078592743
2.06983677
2.062218996
2.053702976
2.044822343
2.035414545
2.025098281
2.014115512
2.003098053
1.993265184
1.984487232
1.976730088
1.969601629
1.962811752
1.955977562
1.948541003
1.940483586
1.932354787
1.924460071
1.916703791
1.909221636
1.902734166
1.896433326
1.891029485
1.885499057
1.87951482
1.873334951
1.866610982
1.860572688
1.84894956
2.096199727
2.086967348
2.077310542
2.069001597
2.060915361
2.052650786
2.043742602
2.034119826
2.023631726
2.012644576
2.001875796
1.992202006
1.983552375
1.975865401
1.96884863
1.962125607
1.9553131
1.947976845
1.940006006
1.932185722
1.924788397
1.917621415
1.911361625
1.905949494
1.900482906
1.89556115
1.890300178
1.884454499
1.878204026
1.871101687
1.864142505
1.850671946
2.095825257
2.086246131
2.076095938
2.067845051
2.059277483
2.051372719
2.042460682
2.032760689
2.022273534
2.011678325
2.001096185
1.991564497
1.983022887
1.975403791
1.968488884
1.961792737
1.954953572
1.947635023
1.939756701
1.932141965
1.925526243
1.919439009
1.914517078
1.910270313
1.905692685
1.901323191
1.89632627
1.890632964
1.884194968
1.87650164
1.86850325
1.85314049
2.094956743
2.085378758
2.075003185
2.06640413
2.057690104
2.050006606
2.041188217
2.031513078
2.021180778
2.010785386
2.000623104
1.991315261
1.982845298
1.975268519
1.968391965
1.961700635
1.954832577
1.947466651
1.939651091
1.93228167
1.926466877
1.922037818
1.918643764
1.915661365
1.912022331
1.908188737
1.903538115
1.898008891
1.89121301
1.882663958
1.873340061
1.855830515
2.093607337
2.084190901
2.074126174
2.064901799
2.056247112
2.04869893
2.04006337
2.030542148
2.020496273
2.010408177
2.000462925
1.991313015
1.9829946
1.975478253
1.968590263
1.961820206
1.954856041
1.947432616
1.939648781
1.932858633
1.928260008
1.925544686
1.92378193
1.922093124
1.919399151
1.916080488
1.911802699
1.906358769
1.899052185
1.889407857
1.878523813
1.858733156
2.09188931
2.082674678
2.073144438
2.063576497
2.05502397
2.047533497
2.039265547
2.029996851
2.020188123
2.010321178
2.000650209
1.991646491
1.983556892
1.976136613
1.969185226
1.962264403
1.95511928
1.947567966
1.939881079
1.933817565
1.930907857
1.929967721
1.92989407
1.929463855
1.927668813
1.924847006
1.920946006
1.915469098
1.907498377
1.896526695
1.883892292
1.86182996
2.089921697
2.080894348
2.071939014
2.06255639
2.054260178
2.046648129
2.038873606
2.029747834
2.020239115
2.010614651
2.001421984
1.992803077
1.985077772
1.97781028
1.970738519
1.9636089
1.956247209
1.948483903
1.940742192
1.935604573
1.934465724
1.935268525
1.936891287
1.937742218
1.936683332
1.934332287
1.930761934
1.925132067
1.916314473
1.903837661
1.88929534
1.865063296
2.087991806
2.078944466
2.070623321
2.061839602
2.053882795
2.046213569
2.038716092
2.029913462
2.020813336
2.011926068
2.003198537
1.995151282
1.987475283
1.97995649
1.97255794
1.9650711
1.957426544
1.949455507
1.942089041
1.938394962
1.938864711
1.941243086
1.944625007
1.946771296
1.946231077
1.94430571
1.940981089
1.935074396
1.925246767
1.911122325
1.89460494
1.868389215
2.086332783
2.077191412
2.069280615
2.061316155
2.05369089
2.046124822
2.038923225
2.030838152
2.022506701
2.014082847
2.006079247
1.998463445
1.991150502
1.983537624
1.975738752
1.967677764
1.95947892
1.951182562
1.944322647
1.942416199
1.943982027
1.947969266
1.953028576
1.956467736
1.956299957
1.954682739
1.951441177
1.945112093
1.934109895
1.918234291
1.899773595
1.871790991
2.085117255
2.076137001
2.06817672
2.060844695
2.053603019
2.046403594
2.039898789
2.032768583
2.025228288
2.01774995
2.010605106
2.003412801
1.996142048
1.988324459
1.979996686
1.971179946
1.962243452
1.953599077
1.947559469
1.947295498
1.949811211
1.955288918
1.961876001
1.966478779
1.966646392
1.965190608
1.961913925
1.95501373
1.942660928
1.925018441
1.90477904
1.87529085
2.084504536
2.07582653
2.067737506
2.060619379
2.05379208
2.047371068
2.0418911
2.035658744
2.029434795
2.023116962
2.016760059
2.010032507
2.002772348
1.994578156
1.985470996
1.975674029
1.965882371
1.956917362
1.952199083
1.952849416
1.956394431
1.963277752
1.971204742
1.976789565
1.977244613
1.975807135
1.972307571
1.964703764
1.950884662
1.931387949
1.909662311
1.87900207
2.084320065
2.076055363
2.068036682
2.060707543
2.054532689
2.049415738
2.044755229
2.039883019
2.03519661
2.030172096
2.024669322
2.018152719
2.010690039
2.001921339
1.991845343
1.980951687
1.970216927
1.961148623
1.95777344
1.959022725
1.963542763
1.971680857
1.980732357
1.987014965
1.987716797
1.986250397
1.982383792
1.973982377
1.958642904
1.937406271
1.914419386
1.882888733
2.084717045
2.076697771
2.068802304
2.061774739
2.0565255
2.051956584
2.048937938
2.046082948
2.042905746
2.038848148
2.033909745
2.027607436
2.019782748
2.010183717
1.998984637
1.986913144
1.975287876
1.966351348
1.96420154
1.965834115
1.971194736
1.980521845
1.990509973
1.99715545
1.997992253
1.996414052
1.99219684
1.982828875
1.965970135
1.943158354
1.919061897
1.886907919
2.085646492
2.07811615
2.070618014
2.063265009
2.058941824
2.055926197
2.05494896
2.053658664
2.051587248
2.048483456
2.044016374
2.037722248
2.029375199
2.018823841
2.006509524
1.993283362
1.980864898
1.972284127
1.971062379
1.97304571
1.979095627
1.989353932
1.999995352
2.00672668
2.007642939
2.005813445
2.001277307
1.990953636
1.972704066
1.948660774
1.923652249
1.891075743
2.08815677
2.080593758
2.073418437
2.066640991
2.063558275
2.061994172
2.062423266
2.062335371
2.061278346
2.058758919
2.054464357
2.048037591
2.039031183
2.027473257
2.014101063
1.999939889
1.98703369
1.978910266
1.978274332
1.980534318
1.987134266
1.998118726
2.009124702
2.015588031
2.016388993
2.014198046
2.009316043
1.998183903
1.978806038
1.953775659
1.928055114
1.895260658
2.111458437
2.102621245
2.094442587
2.089318835
2.088485322
2.09003569
2.093323194
2.09652828
2.096671782
2.095069909
2.090760863
2.083008372
2.071635432
2.057422347
2.041649592
2.025567752
2.012077686
2.005483711
2.00560144
2.008537977
2.01593254
2.027281095
2.037550885
2.042663003
2.042263355
2.038638661
2.031945125
2.018825559
1.997445026
1.970967811
1.944422669
1.911852284
2.158252964
2.146024233
2.135661639
2.132640609
2.133996247
2.138849437
2.146886315
2.154161396
2.156690987
2.15577044
2.150483929
2.13996313
2.124688761
2.10657923
2.08742361
2.068846805
2.054980889
2.051026057
2.051868743
2.055906061
2.064265911
2.07543842
2.084183181
2.086360957
2.083850028
2.077186602
2.067127718
2.051060382
2.027243326
1.99951393
1.972226615
1.940451492
2.21310419
2.197269747
2.18460805
2.182858679
2.185317411
2.192365249
2.202515004
2.210227746
2.211074649
2.208959142
2.201220041
2.188605857
2.171886914
2.152579936
2.132416476
2.113156683
2.100054143
2.096943796
2.097733116
2.101172505
2.107853676
2.11562468
2.120428893
2.120381656
2.115557952
2.105583879
2.092556432
2.074670311
2.050665336
2.023751337
1.998163207
1.96824133
2.269660434
2.251393338
2.237239713
2.233063959
2.234510343
2.239628675
2.246663157
2.251954138
2.25192791
2.248076093
2.238157112
2.223772951
2.20595493
2.186297463
2.167008506
2.149738543
2.138403957
2.134526406
2.13443818
2.136041729
2.13937162
2.14228044
2.142112992
2.138343127
2.129591878
2.117634403
2.103717385
2.086454836
2.065318147
2.041352387
2.019512605
1.992428562
2.314296264
2.296652997
2.282434748
2.274942001
2.273177248
2.273632858
2.274653462
2.274427077
2.271771618
2.264706485
2.253326991
2.238995545
2.222801983
2.206715611
2.191373037
2.177286401
2.167615478
2.162419268
2.159500575
2.157761218
2.156329724
2.154121315
2.150268108
2.143872967
2.134316846
2.122065341
2.108294299
2.091802423
2.072581573
2.052420524
2.03512471
2.011569896
2.338586903
2.321094036
2.30649997
2.296020011
2.289884252
2.286665055
2.284169784
2.281165446
2.276603244
2.26877296
2.257811682
2.24438466
2.229858736
2.215872724
2.202076231
2.190035767
2.18122654
2.175073366
2.170223374
2.165760662
2.16151091
2.156978722
2.151404128
2.144111839
2.134125362
2.12187468
2.108561573
2.092924836
2.074956402
2.05718912
2.042867932
2.022574239
2.343939054
2.328684779
2.314606139
2.303483967
2.295383225
2.289760966
2.285014564
2.280115605
2.274121753
2.26582258
2.255364066
2.243084507
2.230175599
2.21752782
2.204800784
2.193776499
2.185412271
2.178880751
2.173027285
2.167087289
2.160959392
2.154288458
2.146431094
2.136930391
2.125903411
2.114037882
2.102254702
2.088890603
2.073606941
2.058028167
2.045370493
2.026777546
2.338079863
2.325451005
2.312363249
2.300318842
2.290206929
2.282404725
2.275530567
2.268012023
2.259407315
2.250252873
2.240781428
2.230653462
2.220653775
2.210242244
2.199511601
2.19003593
2.182312689
2.175588363
2.169032437
2.161727425
2.153521574
2.143417165
2.131367044
2.118226407
2.105690097
2.094632915
2.08566428
2.076425416
2.065944547
2.054596827
2.044259743
2.027213826
2.312431899
2.304385802
2.295504478
2.28529845
2.27408234
2.262400403
2.250935199
2.239634199
2.228481605
2.218629148
2.210367373
2.203077707
2.196758714
2.190127266
2.182815598
2.175646109
2.168785316
2.161684675
2.153952481
2.144590967
2.133162263
2.119507238
2.104119933
2.088273991
2.0744393
2.064156139
2.058178746
2.053605599
2.049031104
2.044269449
2.037697567
2.023830091
2.27033665
2.265752522
2.258915099
2.249543583
2.237756099
2.224304022
2.210396727
2.197187294
2.1854134
2.175663085
2.168010767
2.16262218
2.158853287
2.155216516
2.151087137
2.14626055
2.140368079
2.132895709
2.123489659
2.112388806
2.099650368
2.085040918
2.069330333
2.053800193
2.040664439
2.031333607
2.026783875
2.024565065
2.02391862
2.023503219
2.021442826
2.011783525
2.217516709
2.215355718
2.211053535
2.203732211
2.193667376
2.181600753
2.168556395
2.155833519
2.144597403
2.135431066
2.128468043
2.123867557
2.120517395
2.117471306
2.114214891
2.110171028
2.104738298
2.097436765
2.087890669
2.076482234
2.06404332
2.050318049
2.036272982
2.022729524
2.011292228
2.003027544
1.998469847
1.997021616
1.997809324
1.998107998
1.997565188
1.991232097
2.178754413
2.175723826
2.171501807
2.165344602
2.156926117
2.146693678
2.135559724
2.124640341
2.114887583
2.106608102
2.099932672
2.094849981
2.090529034
2.086405201
2.082133479
2.077284339
2.071167161
2.06350154
2.054380254
2.044087044
2.033528507
2.022559128
2.011700655
2.0011647
1.99189542
1.984465042
1.979148199
1.976402885
1.975994363
1.975257123
1.974008431
1.967768582
2.15715031
2.151372873
2.14559866
2.139834565
2.133496332
2.126039345
2.117579476
2.108720855
2.100047447
2.092135742
2.085408725
2.079547277
2.073815419
2.06805296
2.062175078
2.055996571
2.049028153
2.041151404
2.032713277
2.023819415
2.015032926
2.006329178
1.99803625
1.989886893
1.9822135
1.975415494
1.969555877
1.965345479
1.962424071
1.959292475
1.956388804
1.949361445
2.148470343
2.141836875
2.13583185
2.130153631
2.124295655
2.117713887
2.110210676
2.102126493
2.093932789
2.086223326
2.079367179
2.073192005
2.067115327
2.0608014
2.054040405
2.046943908
2.039279313
2.031030388
2.022790367
2.014767967
2.007195233
1.999770353
1.992706288
1.985761186
1.978907082
1.972448713
1.966262504
1.960985258
1.956490986
1.951762638
1.947228452
1.938566758
2.146626288
2.140980485
2.136123446
2.131121919
2.125138101
2.118236676
2.110154321
2.101112477
2.09235766
2.084513952
2.077577524
2.071235209
2.065600718
2.06013983
2.053988628
2.046433469
2.037868006
2.028624089
2.019926049
2.012237661
2.005203502
1.998129916
1.991364157
1.984907643
1.978245816
1.971759015
1.965564894
1.959852682
1.954529097
1.949046106
1.943910406
1.934490148
2.151477161
2.146271594
2.140779044
2.134529091
2.127237501
2.118940073
2.110076275
2.101709837
2.094275154
2.087149538
2.080298305
2.073762964
2.067179098
2.06054693
2.053177696
2.045069111
2.036717966
2.028995414
2.021604542
2.014071592
2.006945148
1.999754418
1.992719441
1.986044117
1.98042648
1.974914026
1.96879619
1.962684743
1.956641727
1.949698978
1.943979896
1.934585206
2.157428539
2.151814182
2.145706633
2.138833233
2.131109597
2.122587213
2.113941151
2.105519235
2.097279976
2.089723609
2.082900517
2.076520452
2.070268451
2.063564304
2.056185955
2.048152863
2.039692328
2.031062617
2.022645224
2.014744831
2.00779843
2.002056438
1.99656963
1.990294681
1.983519657
1.97658101
1.96983875
1.963129539
1.956582977
1.950022241
1.944339544
1.934729694
2.166382764
2.158988415
2.151365494
2.14360403
2.135679453
2.127624434
2.119528369
2.111321434
2.103247623
2.095780821
2.088875687
2.082251256
2.075576399
2.068573903
2.061061403
2.052982649
2.044445783
2.03561332
2.027103369
2.019335214
2.012719114
2.006564347
2.000511498
1.994790033
1.988496224
1.981726449
1.974627161
1.967269341
1.96006777
1.95292947
1.946744647
1.936502032
2.1729194
2.16389416
2.155077357
2.146763506
2.13889757
2.131189033
2.123369609
2.115468179
2.107793356
2.100547132
2.093611395
2.086803792
2.079914916
2.07284642
2.065370142
2.057417867
2.04909181
2.040630003
2.032583291
2.0251007
2.018240625
2.011588512
2.005337681
1.999254183
1.992769017
1.986032743
1.978964014
1.971629074
1.964226478
1.956492747
1.949684226
1.938688696
2.175619624
2.166389988
2.157533975
2.14917023
2.141206668
2.133410767
2.125613648
2.117864324
2.110345788
2.103134345
2.096139823
2.089311328
2.082478308
2.075528898
2.068275483
2.060690303
2.052801915
2.044721173
2.036769588
2.02895133
2.021481545
2.014431915
2.007777655
2.001323234
1.994761373
1.988180855
1.981356351
1.974173888
1.966696322
1.958697235
1.951582447
1.940289021
2.176218795
2.167292662
2.158574293
2.150221751
2.142169863
2.134242932
2.126395124
2.118660854
2.111142857
2.103870156
2.096812818
2.089990214
2.083223441
2.076397464
2.069336956
2.062018378
2.054401474
2.04647415
2.038426932
2.030334941
2.0225359
2.015225385
2.008266683
2.001624251
1.995051804
1.988595977
1.981940104
1.97481032
1.96729973
1.959271275
1.952145675
1.940906295
2.174719385
2.166462096
2.158128056
2.149855003
2.141706974
2.133650932
2.125728935
2.117955107
2.110397133
2.103060795
2.095946274
2.089103539
2.082381142
2.075692331
2.068836132
2.061736084
2.054311158
2.046473436
2.0383709
2.030136059
2.022119136
2.01454473
2.007317734
2.000532159
1.993966633
1.987608166
1.981101003
1.974059689
1.966614565
1.958692321
1.951700334
1.940623071
2.169821515
2.161774594
2.153650069
2.145533794
2.137476835
2.129499988
2.121651361
2.113888486
2.106253499
2.098784767
2.091569758
2.084727954
2.078138279
2.071700351
2.065174385
2.058431059
2.051345185
2.043763539
2.035785785
2.027516182
2.019269665
2.011371897
2.003858919
1.996951996
1.9904231
1.984148277
1.977797502
1.970979762
1.963826866
1.956222653
1.949500035
1.938579414
2.160411213
2.151938178
2.143672425
2.135654121
2.127844093
2.120172583
2.11259847
2.105018959
2.097460637
2.089981483
2.08273276
2.075887673
2.069394489
2.063182156
2.057017953
2.050731335
2.044107567
2.036894335
2.029136565
2.020873929
2.012408399
2.004185276
1.996399878
1.989403049
1.982987802
1.976906874
1.970835016
1.964366977
1.957618216
1.950407598
1.943914069
1.93309095
2.147448551
2.13863085
2.130097441
2.122020722
2.114399164
2.107063884
2.099834871
2.092527265
2.085179173
2.077871345
2.07077383
2.064060559
2.057689502
2.051600996
2.045623193
2.039607955
2.033336247
2.026471455
2.018908743
2.010605017
2.00185836
1.993212135
1.985006854
1.977723129
1.971247198
1.965328367
1.959664416
1.953773755
1.947629716
1.940904021
1.934615691
1.923775437
2.13284468
2.123808773
2.115173515
2.107128135
2.099667562
2.092555372
2.085525611
2.078347244
2.071086021
2.063863106
2.056849308
2.050184865
2.043818003
2.037698213
2.031721538
2.025772487
2.019663361
2.013051503
2.005755728
1.997618393
1.988867404
1.980024162
1.9714925
1.963827796
1.957051439
1.95097809
1.945406848
1.939859796
1.93420385
1.927984184
1.922027192
1.911364037
2.119055046
2.110085511
2.101497204
2.09344864
2.085941108
2.078749152
2.071656866
2.064484374
2.057314159
2.050221016
2.04331433
2.036673745
2.030235215
2.023957433
2.017805435
2.011715884
2.005526908
1.99888909
1.991605684
1.983514548
1.97481113
1.965940748
1.957281412
1.949381066
1.942343772
1.936053983
1.930367388
1.92482122
1.919269717
1.913230357
1.907480795
1.897123764
2.106279504
2.097847988
2.089615416
2.081652678
2.073988965
2.066507486
2.059155618
2.051873861
2.04475932
2.037805147
2.031040539
2.024473274
2.018011935
2.01160451
2.005232201
1.998848943
1.992346153
1.985448645
1.978012058
1.969909807
1.961311907
1.952577812
1.943983304
1.935989636
1.928720855
1.922123049
1.916134692
1.910346002
1.904641703
1.898579039
1.892921683
1.882852972
2.094430466
2.086655631
2.078870127
2.071003924
2.06310043
2.055220474
2.047556845
2.040188613
2.033180586
2.026402126
2.019801909
2.013320665
2.006851348
2.000324109
1.9937062
1.986980597
1.980100519
1.972902171
1.965336032
1.957347164
1.949060878
1.940725958
1.93245941
1.92457912
1.917156137
1.910181218
1.903692679
1.897422089
1.891359981
1.8851334
1.87952952
1.869726244
2.08257697
2.075482054
2.068188909
2.060491354
2.052456535
2.044319672
2.036467667
2.029080907
2.022195856
2.015586387
2.009142441
2.002732386
1.996236647
1.989602716
1.982780533
1.975785466
)
;

boundaryField
{
    inlet
    {
        type            fixedValue;
        value           nonuniform 0();
    }
    outlet
    {
        type            inletOutlet;
        inletValue      uniform 1;
        value           nonuniform List<scalar> 
68
(
1.911688738
1.940292303
1.968103205
1.99232527
2.011506805
2.022544095
2.026760332
2.027200416
2.023828408
2.011806128
1.991277419
1.967813934
1.949399842
1.93858761
1.934504942
1.93461234
1.93474937
1.936513849
1.938695395
1.940295688
1.940915716
1.940634567
1.938591259
1.93309931
1.923774727
1.911358716
1.897118588
1.882849425
1.869726336
1.83881261
1.839551662
1.840132555
1.840732087
1.841286581
1.841749347
1.842117534
1.842405079
1.842527972
1.842596877
1.842645838
1.842532129
1.842411629
1.842266522
1.842143021
1.842086061
1.842092745
1.842162542
1.842361877
1.842768542
1.843394974
1.844176218
1.845472869
1.846935965
1.848923127
1.850641565
1.853079404
1.855739214
1.858612941
1.861686805
1.864902229
1.868214963
1.871608109
1.875103968
1.878815334
1.882702516
1.886724032
1.890893133
1.895083054
)
;
    }
    bottom
    {
        type            slip;
    }
    top
    {
        type            slip;
    }
    obstacle
    {
        type            zeroGradient;
    }
    defaultFaces
    {
        type            empty;
    }
    procBoundary29to23
    {
        type            processor;
        value           nonuniform List<scalar> 
34
(
2.084122249
2.074140466
2.064377796
2.055417765
2.046766211
2.037946858
2.02866752
2.020135956
2.013192208
2.007373896
2.002199084
1.996817357
1.991309279
1.985305926
1.978638841
1.971818952
1.965458064
1.960093632
1.954853343
1.949782691
1.94417931
1.937689137
1.929772928
1.920998373
1.911896862
1.902934022
1.894187891
1.885791154
1.877791537
1.870166632
1.863121111
1.856187565
1.850022877
1.838150034
)
;
    }
    procBoundary29to28
    {
        type            processor;
        value           nonuniform List<scalar> 
70
(
2.093696111
2.094621183
2.095584786
2.096560477
2.097537617
2.098530524
2.099573283
2.091782957
2.091782957
2.093305897
2.094895383
2.096437448
2.097847914
2.099114496
2.100307059
2.101511975
2.102775389
2.104102077
2.105465122
2.106821
2.108129279
2.109354408
2.110427786
2.111284475
2.104325411
2.104325411
2.104493549
2.104510055
2.104385526
2.103995244
2.103083424
2.101631003
2.099690483
2.097467825
2.095355139
2.093748043
2.092923473
2.092683333
2.0927774
2.093452411
2.096063518
2.120357372
2.169223209
2.228008664
2.287085772
2.331332315
2.354181827
2.358330945
2.349711085
2.320921182
2.274058114
2.220083413
2.182031783
2.163016654
2.156203743
2.15346539
2.156610879
2.163202203
2.173757832
2.181888907
2.184894642
2.185140391
2.182944226
2.177834436
2.169097723
2.156375128
2.142065408
2.128232939
2.114895792
2.102403612
)
;
    }
    procBoundary29to34
    {
        type            processor;
        value           uniform 2.08984992;