/*--------------------------------*- C++ -*----------------------------------*\
  =========                 |
  \\      /  F ield         | OpenFOAM: The Open Source CFD Toolbox
   \\    /   O peration     | Website:  https://openfoam.org
    \\  /    A nd           | Version:  7
     \\/     M anipulation  |
\*---------------------------------------------------------------------------*/
FoamFile
{
    version     2.0;
    format      ascii;
    class       volVectorField;
    location    "1";
    object      U;
}
// * * * * * * * * * * * * * * * * * * * * * * * * * * * * * * * * * * * * * //

dimensions      [0 1 -1 0 0 0 0];

internalField   nonuniform List<vector> 
2222
(
(3 1.179406362e-14 0)
(3 1.130269939e-14 0)
(3 1.094269674e-14 0)
(3 1.251096781e-15 0)
(3 5.917888285e-15 0)
(3 7.195807026e-15 0)
(3 6.317374387e-15 0)
(3 7.495053493e-15 0)
(3 9.788476636e-15 0)
(3 1.275454127e-14 0)
(3 1.236172908e-14 0)
(3 8.788279837e-15 0)
(3 4.997749318e-15 0)
(3 2.911341847e-15 0)
(3 3.132702699e-15 0)
(3 2.573574626e-15 0)
(3 -9.95790708e-16 0)
(3 -2.437909349e-15 0)
(3 -3.042688617e-15 0)
(3 -3.553108026e-15 0)
(3 -5.616541208e-15 0)
(3 -3.417096523e-15 0)
(3 -1.623727711e-15 0)
(3 -5.44363022e-16 0)
(3 -9.041931149e-16 0)
(3 -1.357632067e-15 0)
(3 -2.718351554e-16 0)
(3 1.676517586e-15 0)
(3 1.784545269e-15 0)
(3 3.032641762e-15 0)
(3 5.247654805e-15 0)
(3 6.372669286e-15 0)
(3 8.954194709e-15 0)
(3 9.217821987e-15 0)
(3 9.75908775e-15 0)
(3 9.246602377e-15 0)
(3 8.605603838e-15 0)
(3 2.212808056e-15 0)
(3 6.7593165e-15 0)
(3 9.305977734e-15 0)
(3 1.08717513e-14 0)
(3 8.761486029e-15 0)
(3 7.052344123e-15 0)
(3 6.254141883e-15 0)
(3 6.349154221e-15 0)
(3 5.393361475e-15 0)
(3 4.602725756e-15 0)
(3 2.829444258e-15 0)
(3 1.565871802e-15 0)
(3 2.081646044e-16 0)
(3 -1.474288495e-15 0)
(3 -1.062029031e-15 0)
(3 -1.296202905e-16 0)
(3 5.10441323e-16 0)
(3 3.15487264e-18 0)
(3 -9.51859805e-16 0)
(3 -5.42880069e-17 0)
(3 -3.598807872e-16 0)
(3 -4.640401774e-16 0)
(3 -6.471301064e-16 0)
(3 -5.673054089e-18 0)
(3 5.509270217e-16 0)
(3 2.409684205e-15 0)
(3 5.03501636e-15 0)
(3 6.293998094e-15 0)
(3 5.373522293e-15 0)
(3 5.229729104e-15 0)
(3 5.288611131e-15 0)
(3 5.815960715e-15 0)
(3 7.867165099e-15 0)
(3 7.977735683e-15 0)
(3 -1.418753831e-15 0)
(3 3.413746818e-15 0)
(3 6.822093822e-15 0)
(3 8.796887241e-15 0)
(3 9.557870442e-15 0)
(3 8.762595391e-15 0)
(3 7.894037766e-15 0)
(3 7.525371473e-15 0)
(3 6.922363502e-15 0)
(3 5.697073087e-15 0)
(3 3.779160256e-15 0)
(3 1.68402769e-15 0)
(3 -1.202776278e-15 0)
(3 -1.785425777e-15 0)
(3 -8.291727369e-16 0)
(3 1.642935214e-16 0)
(3 -9.256729645e-17 0)
(3 6.567869134e-16 0)
(3 -1.247801235e-15 0)
(3 -3.228599299e-15 0)
(3 -3.471229382e-15 0)
(3 -3.250721012e-15 0)
(3 -1.013362346e-15 0)
(3 -9.037231273e-16 0)
(3 -5.813738157e-16 0)
(3 1.595557078e-15 0)
(3 3.940389528e-15 0)
(3 6.91290646e-15 0)
(3 8.361317129e-15 0)
(3 7.255743569e-15 0)
(3 6.039287119e-15 0)
(3 3.668427997e-15 0)
(3 3.167190726e-15 0)
(3 2.274920968e-15 0)
(3 -2.40857094e-15 0)
(3 2.319870584e-16 0)
(3 4.536242468e-15 0)
(3 5.899472163e-15 0)
(3 6.588519878e-15 0)
(3 7.000247401e-15 0)
(3 6.120121378e-15 0)
(3 5.053279061e-15 0)
(3 2.850978691e-15 0)
(3 1.995614731e-15 0)
(3 1.209068474e-15 0)
(3 1.119511847e-15 0)
(3 -1.185513561e-15 0)
(3 6.827221105e-16 0)
(3 2.016628166e-15 0)
(3 1.456858739e-15 0)
(3 1.981840909e-16 0)
(3 -1.144400666e-15 0)
(3 -2.817063628e-16 0)
(3 -5.970799538e-16 0)
(3 2.051294656e-16 0)
(3 -2.825300856e-16 0)
(3 1.733683756e-15 0)
(3 3.353474589e-15 0)
(3 3.687063671e-15 0)
(3 4.779489066e-15 0)
(3 4.659033846e-15 0)
(3 7.33412469e-15 0)
(3 8.570020545e-15 0)
(3 8.087752346e-15 0)
(3 4.998329484e-15 0)
(3 3.18895993e-15 0)
(3 2.358168703e-16 0)
(3 -3.454513475e-15 0)
(3 -3.518224195e-15 0)
(3 -2.176504656e-15 0)
(3 -2.797373533e-16 0)
(3 2.01744897e-15 0)
(3 1.400305833e-15 0)
(3 1.634157959e-15 0)
(3 2.319862969e-15 0)
(3 2.212494212e-15 0)
(3 4.379698966e-16 0)
(3 -8.56172457e-16 0)
(3 -3.260069814e-16 0)
(3 2.307533175e-15 0)
(3 3.168051375e-15 0)
(3 3.928004827e-15 0)
(3 3.880821747e-15 0)
(3 3.734851432e-15 0)
(3 2.947552531e-15 0)
(3 2.570115964e-16 0)
(3 -4.637758543e-16 0)
(3 2.100178459e-15 0)
(3 3.985141191e-15 0)
(3 4.735630961e-15 0)
(3 6.555810933e-15 0)
(3 7.612904725e-15 0)
(3 7.741160078e-15 0)
(3 8.027285625e-15 0)
(3 7.180479725e-15 0)
(3 6.232868191e-15 0)
(3 2.573465959e-15 0)
(3 1.799492692e-15 0)
(3 4.328607084e-16 0)
(3 -1.617975381e-15 0)
(3 -3.792769141e-15 0)
(3 -5.861791052e-15 0)
(3 -4.160909452e-15 0)
(3 -4.074031812e-15 0)
(3 -4.36624723e-15 0)
(3 -3.136646212e-15 0)
(3 -6.752466062e-16 0)
(3 1.097640996e-15 0)
(3 2.269792943e-15 0)
(3 3.147336585e-15 0)
(3 3.324744934e-15 0)
(3 1.678698137e-15 0)
(3 1.830475591e-15 0)
(3 2.233048206e-15 0)
(3 4.273352459e-15 0)
(3 5.875764202e-15 0)
(3 6.430637173e-15 0)
(3 6.074715762e-15 0)
(3 4.676927447e-15 0)
(3 2.206159691e-15 0)
(3 1.613631567e-15 0)
(3 2.813739486e-15 0)
(3 7.212968773e-15 0)
(3 1.038029293e-14 0)
(3 9.775019135e-15 0)
(3 8.830023389e-15 0)
(3 6.992792897e-15 0)
(3 4.401757025e-15 0)
(3 2.775760717e-15 0)
(3 8.070719101e-16 0)
(3 -2.304532379e-15 0)
(3 -3.626439241e-15 0)
(3 -5.589088488e-15 0)
(3 -7.478469913e-15 0)
(3 -8.719494566e-15 0)
(3 -8.932461847e-15 0)
(3 -3.062928848e-15 0)
(3 -3.452578486e-15 0)
(3 -3.912850619e-15 0)
(3 -3.569487522e-15 0)
(3 -1.811063733e-15 0)
(3 -9.381735979e-16 0)
(3 -5.835552113e-16 0)
(3 -3.817848903e-17 0)
(3 3.482215089e-15 0)
(3 5.473774075e-15 0)
(3 5.680334074e-15 0)
(3 3.796540824e-15 0)
(3 3.125821652e-15 0)
(3 3.794210665e-15 0)
(3 5.076082978e-15 0)
(3 5.430222735e-15 0)
(3 5.026113082e-15 0)
(3 4.260253081e-15 0)
(3 5.486824164e-15 0)
(3 5.384935189e-15 0)
(3 8.944704387e-15 0)
(3 1.178603218e-14 0)
(3 9.522009453e-15 0)
(3 6.933713654e-15 0)
(3 3.058460574e-15 0)
(3 2.58919912e-15 0)
(3 1.709718229e-15 0)
(3 -1.46464775e-16 0)
(3 -2.653224e-15 0)
(3 -4.36671976e-15 0)
(3 -5.477117208e-15 0)
(3 -6.955608581e-15 0)
(3 -8.521871008e-15 0)
(3 -1.017878411e-14 0)
(3 -7.307193674e-16 0)
(3 -2.548570035e-15 0)
(3 -2.360558934e-15 0)
(3 -1.125810993e-15 0)
(3 8.401325845e-16 0)
(3 2.874522379e-15 0)
(3 2.798481975e-15 0)
(3 1.913536498e-15 0)
(3 1.976541526e-15 0)
(3 3.040479183e-15 0)
(3 2.4167651e-15 0)
(3 1.95461796e-15 0)
(3 2.321356419e-15 0)
(3 2.686990182e-15 0)
(3 3.802168397e-15 0)
(3 5.784783992e-15 0)
(3 7.400888416e-15 0)
(3 8.142856103e-15 0)
(3 7.415568292e-15 0)
(3 6.01742017e-15 0)
(3 5.340314847e-15 0)
(3 5.518571106e-15 0)
(3 4.451301121e-15 0)
(3 6.759970961e-16 0)
(3 -2.275846333e-17 0)
(3 6.827237948e-16 0)
(3 1.011976198e-15 0)
(3 2.136578005e-15 0)
(3 1.418379714e-15 0)
(3 -6.28086679e-16 0)
(3 -2.611832777e-15 0)
(3 -5.911317523e-15 0)
(3 -7.129789277e-15 0)
(3 -7.69714077e-15 0)
(3 2.564562468e-15 0)
(3 -4.908253697e-17 0)
(3 -1.33943756e-16 0)
(3 2.670067861e-15 0)
(3 3.381413644e-15 0)
(3 3.832086979e-15 0)
(3 2.948793452e-15 0)
(3 2.361787568e-15 0)
(3 7.142621809e-16 0)
(3 8.413018957e-17 0)
(3 -1.218183e-15 0)
(3 -1.540578894e-15 0)
(3 -6.351025094e-17 0)
(3 2.574951505e-15 0)
(3 4.700412742e-15 0)
(3 5.355944638e-15 0)
(3 7.766258178e-15 0)
(3 1.08741703e-14 0)
(3 1.138113211e-14 0)
(3 1.124562806e-14 0)
(3 1.111712929e-14 0)
(3 8.296781611e-15 0)
(3 5.344730905e-15 0)
(3 4.030511617e-15 0)
(3 3.201126214e-15 0)
(3 1.790369579e-15 0)
(3 1.811956313e-15 0)
(3 1.259470678e-15 0)
(3 1.699741497e-15 0)
(3 -1.258575358e-15 0)
(3 -3.394333275e-15 0)
(3 -2.714562005e-15 0)
(3 -1.117109251e-15 0)
(3 -1.476617393e-15 0)
(3 5.392398033e-15 0)
(3 6.782523582e-15 0)
(3 5.520728471e-15 0)
(3 5.297680871e-15 0)
(3 3.178374015e-15 0)
(3 1.458110373e-15 0)
(3 1.469622385e-15 0)
(3 1.232197472e-15 0)
(3 -8.562763736e-16 0)
(3 -8.292293296e-16 0)
(3 -7.616114211e-16 0)
(3 -8.104757552e-17 0)
(3 1.161042315e-15 0)
(3 3.146465803e-15 0)
(3 3.756189392e-15 0)
(3 3.282289798e-15 0)
(3 3.865261747e-15 0)
(3 7.92952367e-15 0)
(3 1.121956485e-14 0)
(3 1.227332443e-14 0)
(3 9.016244759e-15 0)
(3 6.054058497e-15 0)
(3 4.512461959e-15 0)
(3 4.292775419e-15 0)
(3 5.034466436e-15 0)
(3 4.653408435e-15 0)
(3 9.156274847e-16 0)
(3 2.512190775e-16 0)
(3 -9.24724537e-16 0)
(3 -2.576656582e-15 0)
(3 -3.439675697e-15 0)
(3 -1.920524813e-15 0)
(3 9.649079635e-17 0)
(3 1.028920872e-15 0)
(3 5.456279915e-15 0)
(3 6.631601152e-15 0)
(3 6.670243146e-15 0)
(3 4.834068476e-15 0)
(3 3.78304131e-15 0)
(3 2.085708088e-15 0)
(3 1.853131796e-15 0)
(3 1.316150266e-15 0)
(3 6.397279834e-16 0)
(3 1.261887497e-15 0)
(3 1.661257857e-15 0)
(3 2.325090362e-15 0)
(3 2.834646086e-15 0)
(3 3.612851922e-15 0)
(3 2.14412266e-15 0)
(3 8.478221302e-16 0)
(3 4.584078633e-16 0)
(3 3.699130926e-15 0)
(3 6.915752305e-15 0)
(3 7.369102185e-15 0)
(3 4.215717584e-15 0)
(3 2.876559238e-15 0)
(3 6.58946545e-16 0)
(3 -5.955168595e-17 0)
(3 3.194325118e-16 0)
(3 -1.554023838e-16 0)
(3 -2.814345093e-15 0)
(3 -4.100067249e-15 0)
(3 -5.341632013e-15 0)
(3 -4.063969672e-15 0)
(3 -2.819403341e-15 0)
(3 -1.09667413e-16 0)
(3 1.872152905e-15 0)
(3 4.901863265e-15 0)
(3 5.340675909e-15 0)
(3 5.39262178e-15 0)
(3 4.178207927e-15 0)
(3 2.362860233e-15 0)
(3 1.45969387e-15 0)
(3 1.721577056e-15 0)
(3 1.092880489e-15 0)
(3 1.615498231e-15 0)
(3 2.851810926e-15 0)
(3 4.192975009e-15 0)
(3 4.606483511e-15 0)
(3 3.975198637e-15 0)
(3 3.039735134e-15 0)
(3 2.296995687e-15 0)
(3 6.980033745e-16 0)
(3 -1.880544225e-15 0)
(3 -1.888230246e-15 0)
(3 -1.397325471e-15 0)
(3 -5.300904821e-16 0)
(3 4.91363012e-16 0)
(3 1.246055662e-15 0)
(3 9.695347088e-16 0)
(3 6.411216397e-16 0)
(3 -1.462361615e-15 0)
(3 -5.81982142e-15 0)
(3 -6.985495693e-15 0)
(3 -7.341008463e-15 0)
(3 -8.155808757e-15 0)
(3 -4.98267948e-15 0)
(3 -2.666390734e-15 0)
(3 -6.153403081e-16 0)
(3 9.486201174e-16 0)
(3 2.708749509e-15 0)
(3 2.780394376e-15 0)
(3 8.258934931e-15 0)
(3 5.206366836e-15 0)
(3 2.96768971e-15 0)
(3 8.195140555e-16 0)
(3 -1.603910681e-15 0)
(3 -1.726041044e-15 0)
(3 -1.554355034e-15 0)
(3 -1.928889292e-16 0)
(3 3.771990656e-15 0)
(3 7.086207796e-15 0)
(3 6.784770042e-15 0)
(3 5.8672347e-15 0)
(3 3.785352401e-15 0)
(3 2.171780332e-15 0)
(3 1.335697403e-15 0)
(3 5.717526821e-16 0)
(3 8.344391038e-16 0)
(3 -4.510681269e-16 0)
(3 -2.435085431e-15 0)
(3 -1.227254686e-15 0)
(3 3.719619463e-16 0)
(3 3.30943176e-15 0)
(3 4.287415654e-15 0)
(3 -1.23092897e-16 0)
(3 -6.499706727e-15 0)
(3 -7.451292014e-15 0)
(3 -6.245652216e-15 0)
(3 -4.568454584e-15 0)
(3 -1.983461387e-15 0)
(3 9.056396634e-16 0)
(3 3.556567258e-15 0)
(3 3.935088808e-15 0)
(3 4.187973395e-15 0)
(3 4.11608595e-15 0)
(3 7.810449478e-15 0)
(3 4.582796544e-15 0)
(3 5.662226226e-16 0)
(3 -2.037256033e-15 0)
(3 -3.792791214e-15 0)
(3 -5.051729704e-15 0)
(3 -5.018980014e-15 0)
(3 -3.173950009e-15 0)
(3 -1.189494823e-15 0)
(3 2.02046046e-15 0)
(3 4.022408697e-15 0)
(3 4.297461973e-15 0)
(3 4.431276893e-15 0)
(3 3.770469596e-15 0)
(3 2.430718995e-15 0)
(3 2.393011972e-15 0)
(3 2.537669262e-15 0)
(3 2.575299537e-15 0)
(3 1.75210022e-15 0)
(3 8.069967045e-16 0)
(3 3.955360963e-16 0)
(3 7.807281079e-16 0)
(3 -1.580452393e-15 0)
(3 -2.760902532e-15 0)
(3 -3.084387362e-15 0)
(3 -3.910908958e-15 0)
(3 -3.906162329e-15 0)
(3 -2.889192062e-15 0)
(3 -2.567269499e-15 0)
(3 5.877420016e-16 0)
(3 4.009832508e-15 0)
(3 6.082828049e-15 0)
(3 6.006350383e-15 0)
(3 5.410668742e-15 0)
(3 2.452972041e-15 0)
(3 6.342492454e-16 0)
(3 -3.14665189e-16 0)
(3 -1.921888718e-15 0)
(3 -3.22293716e-15 0)
(3 -5.03353975e-15 0)
(3 -6.198275294e-15 0)
(3 -5.948193192e-15 0)
(3 -5.009903621e-15 0)
(3 -1.675532105e-15 0)
(3 2.671435915e-16 0)
(3 2.798161018e-15 0)
(3 4.299739504e-15 0)
(3 4.412809065e-15 0)
(3 4.566586509e-15 0)
(3 6.174227197e-15 0)
(3 6.388770264e-15 0)
(3 6.124387242e-15 0)
(3 6.631960054e-15 0)
(3 4.20559059e-15 0)
(3 1.98021095e-15 0)
(3 1.775438992e-15 0)
(3 -7.952733137e-16 0)
(3 -1.719666353e-15 0)
(3 -2.763068287e-15 0)
(3 -2.579124279e-15 0)
(3 -2.102342992e-15 0)
(3 -3.211616036e-15 0)
(3 -4.545656687e-15 0)
(3 -3.777873172e-15 0)
(3 -3.205895842e-16 0)
(3 2.341067943e-15 0)
(3 3.734400218e-15 0)
(3 3.786619996e-15 0)
(3 -8.075177497e-16 0)
(3 -5.605739165e-16 0)
(3 -1.406499619e-15 0)
(3 -2.586898836e-15 0)
(3 -3.975081179e-15 0)
(3 -3.199148434e-15 0)
(3 -2.042095632e-15 0)
(3 -2.722337934e-15 0)
(3 -1.857746021e-15 0)
(3 -3.91002715e-16 0)
(3 9.257882778e-16 0)
(3 2.261908883e-15 0)
(3 3.72826966e-15 0)
(3 5.27042246e-15 0)
(3 6.816303541e-15 0)
(3 8.370502125e-15 0)
(3 9.565430464e-15 0)
(3 9.209097423e-15 0)
(3 8.766874149e-15 0)
(3 8.067173649e-15 0)
(3 4.90561934e-15 0)
(3 2.657855295e-16 0)
(3 -1.178750504e-15 0)
(3 -1.962320977e-15 0)
(3 -3.973354612e-15 0)
(3 -4.998014021e-15 0)
(3 -5.040859608e-15 0)
(3 -4.696715103e-15 0)
(3 -5.405586576e-15 0)
(3 -8.116381691e-15 0)
(3 -7.627671122e-15 0)
(3 -5.285736253e-15 0)
(3 -1.926984263e-15 0)
(3 6.151821928e-16 0)
(3 -1.008715367e-15 0)
(3 4.461491958e-16 0)
(3 1.883600003e-16 0)
(3 4.716186193e-16 0)
(3 3.362121334e-16 0)
(3 1.614836679e-15 0)
(3 3.184765562e-15 0)
(3 2.560138436e-15 0)
(3 2.473248231e-15 0)
(3 1.273595828e-15 0)
(3 2.154968417e-15 0)
(3 3.219571739e-15 0)
(3 3.654629996e-15 0)
(3 5.169381175e-15 0)
(3 7.54566825e-15 0)
(3 9.181298033e-15 0)
(3 9.14432496e-15 0)
(3 9.053567959e-15 0)
(3 7.768785151e-15 0)
(3 6.197235192e-15 0)
(3 3.977019733e-15 0)
(3 5.265621032e-16 0)
(3 -1.125854634e-16 0)
(3 -7.502187278e-16 0)
(3 -1.811688587e-15 0)
(3 -2.268793664e-15 0)
(3 -2.408800939e-15 0)
(3 -3.265175156e-15 0)
(3 -4.751886642e-15 0)
(3 -4.468630607e-15 0)
(3 -5.349770551e-15 0)
(3 -3.413073423e-15 0)
(3 -4.192586565e-15 0)
(3 -3.400366579e-15 0)
(3 -2.254827364e-15 0)
(3 -2.25849111e-15 0)
(3 5.384829274e-16 0)
(3 2.934819761e-15 0)
(3 4.860077081e-15 0)
(3 5.855683714e-15 0)
(3 5.268741285e-15 0)
(3 5.867138974e-15 0)
(3 3.876729258e-15 0)
(3 2.964198634e-15 0)
(3 2.641688261e-15 0)
(3 3.148491891e-15 0)
(3 4.426239093e-15 0)
(3 5.40170556e-15 0)
(3 6.779663748e-15 0)
(3 6.478188934e-15 0)
(3 5.576046425e-15 0)
(3 4.121206362e-15 0)
(3 2.89432232e-15 0)
(3 1.260969925e-15 0)
(3 8.435293078e-16 0)
(3 1.175241901e-15 0)
(3 -1.093906585e-15 0)
(3 -1.470262914e-15 0)
(3 -1.193022512e-15 0)
(3 -1.259120002e-15 0)
(3 -1.736285592e-15 0)
(3 -2.823112695e-15 0)
(3 -2.32658611e-15 0)
(3 -1.103255596e-15 0)
(3 -1.414802787e-15 0)
(3 -2.78958189e-15 0)
(3 -3.457870172e-15 0)
(3 -3.443905839e-15 0)
(3 -1.039168776e-14 0)
(3 -1.041385045e-14 0)
(3 -6.836136635e-15 0)
(3 -1.860211149e-15 0)
(3 2.581851749e-15 0)
(3 4.702349339e-15 0)
(3 6.670331352e-15 0)
(3 8.788912265e-15 0)
(3 7.192047839e-15 0)
(3 4.900748181e-15 0)
(3 3.43212972e-15 0)
(3 3.495646686e-15 0)
(3 4.677147954e-15 0)
(3 5.150032201e-15 0)
(3 5.059856571e-15 0)
(3 4.533606717e-15 0)
(3 3.422915645e-15 0)
(3 8.810056003e-16 0)
(3 -9.462111801e-16 0)
(3 -2.73533316e-15 0)
(3 -2.532658651e-15 0)
(3 -2.066806526e-15 0)
(3 -3.33967347e-15 0)
(3 -4.471909273e-15 0)
(3 -3.405347303e-15 0)
(3 -2.877126571e-15 0)
(3 -1.213540039e-15 0)
(3 1.057231064e-15 0)
(3 1.433975236e-15 0)
(3 6.33343704e-16 0)
(3 1.38879232e-15 0)
(3 1.840261748e-15 0)
(3 9.040783304e-16 0)
(3 6.343180491e-16 0)
(3 -1.148860466e-14 0)
(3 -1.150663991e-14 0)
(3 -9.655122268e-15 0)
(3 -7.8592007e-15 0)
(3 -3.869380707e-15 0)
(3 1.112233559e-15 0)
(3 6.81329927e-15 0)
(3 8.951569882e-15 0)
(3 8.866055974e-15 0)
(3 7.526914492e-15 0)
(3 6.098734031e-15 0)
(3 3.848718946e-15 0)
(3 2.510385712e-15 0)
(3 2.458484332e-15 0)
(3 2.490062917e-15 0)
(3 3.319323618e-15 0)
(3 1.468504793e-15 0)
(3 -2.830997733e-15 0)
(3 -5.364261185e-15 0)
(3 -6.725885599e-15 0)
(3 -7.571603829e-15 0)
(3 -7.895491999e-15 0)
(3 -8.527927441e-15 0)
(3 -9.481082426e-15 0)
(3 -7.530489418e-15 0)
(3 -2.391009463e-15 0)
(3 2.921670479e-15 0)
(3 5.568764363e-15 0)
(3 4.808771276e-15 0)
(3 3.624088886e-15 0)
(3 3.514990917e-15 0)
(3 4.367324008e-15 0)
(3 4.111237897e-15 0)
(3 4.140269477e-15 0)
(3 -8.021556387e-15 0)
(3 -9.199798192e-15 0)
(3 -9.272800585e-15 0)
(3 -7.624780423e-15 0)
(3 -3.280431331e-15 0)
(3 1.955066743e-15 0)
(3 5.889017377e-15 0)
(3 6.848136385e-15 0)
(3 7.091789172e-15 0)
(3 7.123904036e-15 0)
(3 8.399869872e-15 0)
(3 7.497191368e-15 0)
(3 7.508938242e-15 0)
(3 5.90537712e-15 0)
(3 4.224025799e-15 0)
(3 9.944078493e-16 0)
(3 -2.321956888e-15 0)
(3 -3.501764882e-15 0)
(3 -5.192600816e-15 0)
(3 -8.340855583e-15 0)
(3 -1.022399323e-14 0)
(3 -1.131933308e-14 0)
(3 -9.985205491e-15 0)
(3 -7.711507656e-15 0)
(3 -6.455721039e-15 0)
(3 -4.212240104e-16 0)
(3 4.277986754e-15 0)
(3 5.045405295e-15 0)
(3 6.509207313e-15 0)
(3 6.321785943e-15 0)
(3 6.253386133e-15 0)
(3 5.277029425e-15 0)
(3 4.384557478e-15 0)
(3 3.65188045e-15 0)
(3 -6.297818033e-15 0)
(3 -7.083642157e-15 0)
(3 -7.334535983e-15 0)
(3 -5.408009636e-15 0)
(3 -3.956421118e-15 0)
(3 -8.342129545e-16 0)
(3 2.070696335e-16 0)
(3 2.707594946e-15 0)
(3 6.777780987e-15 0)
(3 9.08428471e-15 0)
(3 9.485561289e-15 0)
(3 9.977557489e-15 0)
(3 1.028850242e-14 0)
(3 8.291557514e-15 0)
(3 6.597025508e-15 0)
(3 2.657573177e-15 0)
(3 -9.231566014e-16 0)
(3 -1.392027503e-15 0)
(3 -3.126177465e-15 0)
(3 -4.798203948e-15 0)
(3 -6.302712338e-15 0)
(3 -7.279879044e-15 0)
(3 -8.66741727e-15 0)
(3 -3.942776199e-15 0)
(3 -1.139088426e-15 0)
(3 1.085533148e-15 0)
(3 2.374592209e-15 0)
(3 4.275222398e-15 0)
(3 6.199765357e-15 0)
(3 7.466786068e-15 0)
(3 6.838222178e-15 0)
(3 6.147793832e-15 0)
(3 4.753727005e-15 0)
(3 1.246964402e-15 0)
(3 -4.675108873e-15 0)
(3 -2.858419142e-15 0)
(3 -3.2697997e-15 0)
(3 -4.442392524e-15 0)
(3 -5.005920165e-15 0)
(3 -4.851524132e-15 0)
(3 -5.055825265e-15 0)
(3 -3.333910157e-15 0)
(3 1.549338829e-15 0)
(3 5.277956059e-15 0)
(3 5.511709329e-15 0)
(3 6.748140833e-15 0)
(3 5.996017109e-15 0)
(3 4.824806687e-15 0)
(3 2.630442567e-15 0)
(3 1.325063646e-15 0)
(3 -3.21639088e-16 0)
(3 -9.979600593e-16 0)
(3 -3.317989535e-15 0)
(3 -4.68614113e-15 0)
(3 -4.190916479e-15 0)
(3 -3.996315482e-15 0)
(3 -4.78665737e-15 0)
(3 -5.017271993e-15 0)
(3 8.186245547e-16 0)
(3 1.518459931e-15 0)
(3 2.50965044e-15 0)
(3 3.447032167e-15 0)
(3 4.092478953e-15 0)
(3 7.83628056e-15 0)
(3 7.00700398e-15 0)
(3 5.659185152e-15 0)
(3 4.743070133e-15 0)
(3 2.009338945e-15 0)
(3 -2.236678063e-15 0)
(3 -5.030133199e-16 0)
(3 -1.024018922e-15 0)
(3 -1.681042048e-15 0)
(3 -2.646756487e-15 0)
(3 -3.584244774e-15 0)
(3 -4.74872272e-15 0)
(3 -5.989868079e-15 0)
(3 -4.017296781e-15 0)
(3 -3.519021284e-15 0)
(3 -1.221043056e-15 0)
(3 2.3037138e-15 0)
(3 2.47894653e-15 0)
(3 3.592415357e-15 0)
(3 3.784338302e-15 0)
(3 3.514849718e-15 0)
(3 2.731922362e-15 0)
(3 1.350285699e-15 0)
(3 -2.510690045e-16 0)
(3 -1.359182038e-15 0)
(3 -8.75237404e-16 0)
(3 -2.540078303e-16 0)
(3 1.604841152e-15 0)
(3 3.204998887e-15 0)
(3 5.358213335e-15 0)
(3 6.119802651e-15 0)
(3 5.042045987e-15 0)
(3 3.620491024e-15 0)
(3 3.352727789e-15 0)
(3 4.282167188e-15 0)
(3 2.338952208e-15 0)
(3 1.323175139e-15 0)
(3 1.822407315e-15 0)
(3 1.9975347e-15 0)
(3 4.08290667e-15 0)
(3 2.555596675e-15 0)
(3 2.579849141e-15 0)
(3 1.864043686e-15 0)
(3 3.668178875e-16 0)
(3 -9.899644611e-16 0)
(3 -2.881745459e-15 0)
(3 -5.982214886e-15 0)
(3 -6.405380665e-15 0)
(3 -5.66947679e-15 0)
(3 -4.284376494e-15 0)
(3 8.875358928e-16 0)
(3 3.811213108e-15 0)
(3 5.568737459e-15 0)
(3 6.646478616e-15 0)
(3 6.901958522e-15 0)
(3 6.268180696e-15 0)
(3 5.929986128e-15 0)
(3 5.757803097e-15 0)
(3 4.217658027e-15 0)
(3 4.558963561e-15 0)
(3 5.53134871e-15 0)
(3 7.873794909e-15 0)
(3 8.854227866e-15 0)
(3 9.554830543e-15 0)
(3 1.029300064e-14 0)
(3 8.227302571e-15 0)
(3 4.61745047e-15 0)
(3 1.11337716e-15 0)
(3 -2.239754082e-15 0)
(3 1.184558578e-16 0)
(3 2.705583343e-15 0)
(3 6.46323725e-16 0)
(3 -7.787171275e-16 0)
(3 8.967038689e-15 0)
(3 4.956124166e-15 0)
(3 3.241860839e-15 0)
(3 1.889175831e-15 0)
(3 7.499967566e-16 0)
(3 -3.057638502e-16 0)
(3 -3.88221949e-15 0)
(3 -4.926043656e-15 0)
(3 -5.565641793e-15 0)
(3 -6.570115062e-15 0)
(3 -6.479598978e-15 0)
(3 -6.230976488e-15 0)
(3 1.49997084e-16 0)
(3 1.843862671e-15 0)
(3 4.157143382e-15 0)
(3 6.199017972e-15 0)
(3 7.909264867e-15 0)
(3 8.686267287e-15 0)
(3 8.155510823e-15 0)
(3 7.744496846e-15 0)
(3 7.890727974e-15 0)
(3 9.850265445e-15 0)
(3 1.148888598e-14 0)
(3 1.12829906e-14 0)
(3 1.015533559e-14 0)
(3 9.508533743e-15 0)
(3 9.536932249e-15 0)
(3 7.895175069e-15 0)
(3 1.744409734e-15 0)
(3 -2.964116503e-15 0)
(3 -2.727306901e-15 0)
(3 -2.651416538e-16 0)
(3 3.852808879e-16 0)
(3 -1.364765347e-16 0)
(3 5.751204252e-15 0)
(3 5.236041876e-15 0)
(3 4.18974172e-15 0)
(3 3.259242876e-15 0)
(3 2.684939059e-15 0)
(3 3.537890247e-16 0)
(3 -4.142168032e-15 0)
(3 -5.141959763e-15 0)
(3 -6.959960317e-15 0)
(3 -8.374482007e-15 0)
(3 -9.289828374e-15 0)
(3 -7.857384297e-15 0)
(3 -6.983072878e-15 0)
(3 -3.732913727e-15 0)
(3 2.197984323e-16 0)
(3 1.658997031e-15 0)
(3 3.367715555e-15 0)
(3 5.796481442e-15 0)
(3 5.570926896e-15 0)
(3 7.095340593e-15 0)
(3 9.812765185e-15 0)
(3 1.149443862e-14 0)
(3 1.230413231e-14 0)
(3 1.099021451e-14 0)
(3 9.300267757e-15 0)
(3 8.154869071e-15 0)
(3 6.099189673e-15 0)
(3 3.05449436e-15 0)
(3 -4.537165177e-16 0)
(3 -4.142975887e-15 0)
(3 -4.573060948e-15 0)
(3 -4.61714511e-15 0)
(3 -4.674020507e-15 0)
(3 -4.891145608e-15 0)
(3 4.591035885e-15 0)
(3 5.560853277e-15 0)
(3 5.4575054e-15 0)
(3 5.245996378e-15 0)
(3 4.189442474e-15 0)
(3 1.857685739e-15 0)
(3 -3.905889749e-15 0)
(3 -7.072732808e-15 0)
(3 -7.354322663e-15 0)
(3 -7.132412196e-15 0)
(3 -6.203964117e-15 0)
(3 -5.097609585e-15 0)
(3 -5.677552169e-15 0)
(3 -4.581151214e-15 0)
(3 -4.084939023e-15 0)
(3 -2.750524598e-15 0)
(3 -1.150566513e-16 0)
(3 1.998646398e-15 0)
(3 4.059508331e-15 0)
(3 6.023567075e-15 0)
(3 9.88480033e-15 0)
(3 1.045797395e-14 0)
(3 8.409559404e-15 0)
(3 7.405663846e-15 0)
(3 4.899353153e-15 0)
(3 1.951821517e-15 0)
(3 -1.251996753e-16 0)
(3 -3.254215083e-15 0)
(3 -2.368728982e-15 0)
(3 -3.330581303e-15 0)
(3 -4.640513356e-15 0)
(3 -6.374416554e-15 0)
(3 -7.947881111e-15 0)
(3 -7.524097088e-15 0)
(3 7.891303751e-15 0)
(3 7.39224085e-15 0)
(3 5.825635981e-15 0)
(3 4.0536865e-15 0)
(3 1.992352551e-15 0)
(3 1.42126184e-15 0)
(3 -1.5948376e-15 0)
(3 -3.430753574e-15 0)
(3 -4.429494196e-15 0)
(3 -4.483407315e-15 0)
(3 -5.001270692e-15 0)
(3 -5.789348652e-15 0)
(3 -6.227563159e-15 0)
(3 -5.788515626e-15 0)
(3 -5.254298764e-15 0)
(3 -5.325528596e-15 0)
(3 -2.395403402e-15 0)
(3 1.266968597e-15 0)
(3 4.646358572e-15 0)
(3 5.26362642e-15 0)
(3 5.502506677e-15 0)
(3 6.28477792e-15 0)
(3 4.822596259e-15 0)
(3 3.303990677e-15 0)
(3 5.648286824e-17 0)
(3 -4.314936718e-15 0)
(3 -5.020213232e-15 0)
(3 -4.450615862e-15 0)
(3 -2.762632894e-15 0)
(3 -2.554145536e-15 0)
(3 -4.32999419e-15 0)
(3 -5.992248617e-15 0)
(3 -6.027407654e-15 0)
(3 -3.654772252e-15 0)
(3 8.072938008e-15 0)
(3 7.870965305e-15 0)
(3 5.509710039e-15 0)
(3 2.647173953e-15 0)
(3 2.257639112e-15 0)
(3 4.219358347e-16 0)
(3 -7.852772553e-16 0)
(3 -1.258486229e-15 0)
(3 -2.633526051e-15 0)
(3 -2.703154709e-15 0)
(3 -2.435386673e-15 0)
(3 -6.241316861e-15 0)
(3 -7.942115123e-15 0)
(3 -8.979243016e-15 0)
(3 -9.345467965e-15 0)
(3 -6.813308856e-15 0)
(3 -3.456816552e-15 0)
(3 -1.369580855e-15 0)
(3 8.098153593e-16 0)
(3 3.806258258e-15 0)
(3 4.047822621e-15 0)
(3 2.230212563e-15 0)
(3 1.251726249e-15 0)
(3 2.077487262e-16 0)
(3 -3.413284621e-15 0)
(3 -6.316054926e-15 0)
(3 -7.433210166e-15 0)
(3 -6.743845307e-15 0)
(3 -8.163929609e-15 0)
(3 -7.300901577e-15 0)
(3 -7.38890856e-15 0)
(3 -6.270295843e-15 0)
(3 -4.731470889e-15 0)
(3 -2.689916265e-15 0)
(3 6.420157917e-15 0)
(3 5.156070516e-15 0)
(3 3.794874847e-15 0)
(3 2.175479673e-15 0)
(3 1.328156162e-15 0)
(3 1.395056452e-15 0)
(3 1.824056985e-15 0)
(3 2.072837009e-15 0)
(3 1.166701474e-15 0)
(3 -1.587720562e-15 0)
(3 -2.951291577e-15 0)
(3 -3.388112013e-15 0)
(3 -4.836879308e-15 0)
(3 -7.75717506e-15 0)
(3 -7.860236922e-15 0)
(3 -7.065361389e-15 0)
(3 -6.201206246e-15 0)
(3 -5.408253747e-15 0)
(3 -4.470083529e-15 0)
(3 -1.645366137e-15 0)
(3 7.538497077e-16 0)
(3 5.933889712e-16 0)
(3 -4.612157346e-16 0)
(3 -1.554051425e-15 0)
(3 -4.109349333e-15 0)
(3 -4.943403888e-15 0)
(3 -6.197010768e-15 0)
(3 -6.819548135e-15 0)
(3 -7.503958467e-15 0)
(3 -7.201115861e-15 0)
(3 -7.025657225e-15 0)
(3 -7.343767093e-15 0)
(3 -5.433634325e-15 0)
(3 -3.479013651e-15 0)
(3 4.611567752e-15 0)
(3 1.966725406e-15 0)
(3 1.5991578e-15 0)
(3 8.436304019e-16 0)
(3 -1.140417364e-15 0)
(3 -3.645419054e-16 0)
(3 1.623452054e-15 0)
(3 4.207819924e-15 0)
(3 5.511878877e-15 0)
(3 5.200969967e-15 0)
(3 2.534812962e-15 0)
(3 3.272332727e-15 0)
(3 7.505341635e-16 0)
(3 -3.085139675e-15 0)
(3 -4.540338333e-15 0)
(3 -4.83753895e-15 0)
(3 -5.04862308e-15 0)
(3 -4.935073883e-15 0)
(3 -5.233435429e-15 0)
(3 -5.127686888e-15 0)
(3 -3.920420146e-15 0)
(3 -3.775000947e-15 0)
(3 -3.92313189e-15 0)
(3 -4.888952506e-15 0)
(3 -5.249895788e-15 0)
(3 -5.621642151e-15 0)
(3 -5.734231627e-15 0)
(3 -6.500968603e-15 0)
(3 -5.580114076e-15 0)
(3 -4.452563138e-15 0)
(3 -3.077442114e-15 0)
(3 -2.850663981e-15 0)
(3 -1.085986583e-15 0)
(3 5.903336144e-16 0)
(3 6.566816714e-15 0)
(3 4.202968878e-15 0)
(3 2.539621211e-15 0)
(3 2.423443597e-15 0)
(3 -5.670995789e-16 0)
(3 -1.428410883e-15 0)
(3 -1.166701623e-15 0)
(3 1.424486637e-15 0)
(3 4.73291131e-15 0)
(3 6.981748958e-15 0)
(3 6.558049088e-15 0)
(3 3.820023206e-15 0)
(3 -5.600437195e-16 0)
(3 -2.461961113e-15 0)
(3 9.850641696e-15 0)
(3 9.949841618e-15 0)
(3 9.177300227e-15 0)
(3 9.08038966e-15 0)
(3 1.009049895e-14 0)
(3 1.030282903e-14 0)
(3 1.012515299e-14 0)
(3 9.207061449e-15 0)
(3 9.299813731e-15 0)
(3 9.047618453e-15 0)
(3 8.493296568e-15 0)
(3 8.155492691e-15 0)
(3 8.192423592e-15 0)
(3 7.045597188e-15 0)
(3 6.762633146e-15 0)
(3 6.649982722e-15 0)
(3 6.915388682e-15 0)
(3 6.661810338e-15 0)
(3 5.758141828e-15 0)
(3 1.049176634e-14 0)
(3 1.070793729e-14 0)
(3 9.38701431e-15 0)
(3 8.585013301e-15 0)
(3 7.835808941e-15 0)
(3 8.032614503e-15 0)
(3 8.713483264e-15 0)
(3 8.900584477e-15 0)
(3 9.011764976e-15 0)
(3 9.697284222e-15 0)
(3 8.173978478e-15 0)
(3 7.202525395e-15 0)
(3 5.77500057e-15 0)
(3 4.920964916e-15 0)
(3 5.496316954e-15 0)
(3 6.755829318e-15 0)
(3 6.628972261e-15 0)
(3 4.642452511e-15 0)
(3 2.335674141e-15 0)
(3 1.93633624e-15 0)
(3 1.77538219e-15 0)
(3 1.886748723e-15 0)
(3 1.820851831e-15 0)
(3 1.703748733e-15 0)
(3 2.363087639e-15 0)
(3 2.765740434e-15 0)
(3 2.841627703e-15 0)
(3 2.012235068e-15 0)
(3 1.115383921e-15 0)
(3 1.068487777e-15 0)
(3 1.20182397e-15 0)
(3 2.720446421e-15 0)
(3 3.910008574e-15 0)
(3 2.261683879e-15 0)
(3 8.885197745e-16 0)
(3 1.651790114e-15 0)
(3 1.882798255e-15 0)
(3 2.097203931e-15 0)
(3 2.094693444e-15 0)
(3 2.324041492e-15 0)
(3 3.317232277e-15 0)
(3 4.145570014e-15 0)
(3 3.671921035e-15 0)
(3 4.234863393e-15 0)
(3 4.668388209e-15 0)
(3 4.980697443e-15 0)
(3 5.089253108e-15 0)
(3 5.366798603e-15 0)
(3 6.532025638e-15 0)
(3 6.776581914e-15 0)
(3 6.221834946e-15 0)
(3 5.609130646e-15 0)
(3 4.274945703e-15 0)
(3 3.268756336e-15 0)
(3 3.355320011e-15 0)
(3 3.122720143e-15 0)
(3 3.516130437e-15 0)
(3 4.143870694e-15 0)
(3 3.931587685e-15 0)
(3 3.345677955e-15 0)
(3 2.358017572e-15 0)
(3 1.314541045e-15 0)
(3 5.101531274e-16 0)
(3 6.510466796e-17 0)
(3 4.880101724e-16 0)
(3 8.59878184e-16 0)
(3 -4.641170177e-15 0)
(3 -5.547655034e-15 0)
(3 -5.156168801e-15 0)
(3 -5.055204749e-15 0)
(3 -4.769768685e-15 0)
(3 -4.378870963e-15 0)
(3 -3.920205145e-15 0)
(3 -2.813798393e-15 0)
(3 -1.248779069e-15 0)
(3 -1.079742938e-15 0)
(3 4.47948201e-16 0)
(3 2.531000584e-15 0)
(3 4.021106199e-15 0)
(3 4.833654799e-15 0)
(3 4.65524301e-15 0)
(3 4.201845949e-15 0)
(3 3.985729489e-15 0)
(3 3.257750819e-15 0)
(3 2.910755101e-15 0)
(3 2.666474018e-15 0)
(3 2.909811214e-15 0)
(3 2.490719872e-15 0)
(3 3.068239995e-15 0)
(3 2.851274881e-15 0)
(3 2.102169331e-15 0)
(3 1.620101053e-15 0)
(3 5.748524515e-16 0)
(3 -1.928647336e-16 0)
(3 -1.641173728e-16 0)
(3 4.103322191e-16 0)
(3 -6.134863478e-17 0)
(3 -1.16412225e-15 0)
(3 -3.070644798e-15 0)
(3 -7.253749733e-15 0)
(3 -8.624839514e-15 0)
(3 -8.578092026e-15 0)
(3 -8.027407971e-15 0)
(3 -7.486209458e-15 0)
(3 -7.299784375e-15 0)
(3 -7.323944579e-15 0)
(3 -7.48261355e-15 0)
(3 -6.546734275e-15 0)
(3 -5.397297744e-15 0)
(3 -4.113363681e-15 0)
(3 -1.279395143e-15 0)
(3 1.011259168e-15 0)
(3 1.468031942e-15 0)
(3 1.347260095e-15 0)
(3 6.781328372e-16 0)
(3 -3.363991335e-16 0)
(3 -1.34506924e-16 0)
(3 3.631026444e-16 0)
(3 1.961165049e-15 0)
(3 2.60422251e-15 0)
(3 2.561004374e-15 0)
(3 2.669305643e-15 0)
(3 2.923946033e-15 0)
(3 2.241458527e-15 0)
(3 1.529920873e-15 0)
(3 1.291150967e-15 0)
(3 6.112039268e-16 0)
(3 3.099784275e-16 0)
(3 -4.035890503e-16 0)
(3 -4.502143506e-16 0)
(3 -1.073230956e-15 0)
(3 -2.266502985e-15 0)
(3 -9.295139473e-15 0)
(3 -8.749536491e-15 0)
(3 -8.463446596e-15 0)
(3 -7.588397868e-15 0)
(3 -7.72557272e-15 0)
(3 -8.389691268e-15 0)
(3 -9.552260628e-15 0)
(3 -1.109158732e-14 0)
(3 -1.186237943e-14 0)
(3 -1.087418837e-14 0)
(3 -5.812324265e-15 0)
(3 -3.46152475e-15 0)
(3 -3.174268609e-15 0)
(3 -3.244980774e-15 0)
(3 -3.129159428e-15 0)
(3 -2.826906829e-15 0)
(3 -1.803682863e-15 0)
(3 -8.503960661e-16 0)
(3 6.658024045e-16 0)
(3 2.005763574e-15 0)
(3 2.173567588e-15 0)
(3 1.317116526e-15 0)
(3 4.356107108e-16 0)
(3 2.830537483e-16 0)
(3 5.817349367e-16 0)
(3 1.246172012e-15 0)
(3 1.314979782e-15 0)
(3 9.645701414e-16 0)
(3 -3.678498008e-17 0)
(3 -4.467389515e-16 0)
(3 -4.594526094e-17 0)
(3 6.864808391e-17 0)
(3 -7.925958795e-16 0)
(3 -1.007350813e-14 0)
(3 -9.427202863e-15 0)
(3 -9.053504664e-15 0)
(3 -8.159945165e-15 0)
(3 -8.02239914e-15 0)
(3 -8.270425153e-15 0)
(3 -8.674538626e-15 0)
(3 -8.782648292e-15 0)
(3 -9.443929443e-15 0)
(3 -9.688597932e-15 0)
(3 -8.864122808e-15 0)
(3 -8.482065215e-15 0)
(3 -7.962551643e-15 0)
(3 -6.801299345e-15 0)
(3 -5.324808674e-15 0)
(3 -3.471455576e-15 0)
(3 -1.607027653e-15 0)
(3 1.789475885e-15 0)
(3 4.090125867e-15 0)
(3 4.388202272e-15 0)
(3 4.390609448e-15 0)
(3 3.500954372e-15 0)
(3 1.186660987e-15 0)
(3 1.260682443e-15 0)
(3 1.927612997e-15 0)
(3 2.46142977e-15 0)