/*--------------------------------*- C++ -*----------------------------------*\
  =========                 |
  \\      /  F ield         | OpenFOAM: The Open Source CFD Toolbox
   \\    /   O peration     | Website:  https://openfoam.org
    \\  /    A nd           | Version:  7
     \\/     M anipulation  |
\*---------------------------------------------------------------------------*/
FoamFile
{
    version     2.0;
    format      ascii;
    class       volVectorField;
    location    "0.1";
    object      U;
}
// * * * * * * * * * * * * * * * * * * * * * * * * * * * * * * * * * * * * * //

dimensions      [0 1 -1 0 0 0 0];

internalField   nonuniform List<vector> 5((2.999989912 2.555048332e-05 0) (2.998780263 0.004443030667 0) (2.999785167 0.0002915992528 0) (2.994006936 0.009979063711 0) (2.999401775 0.0004539084991 0));

boundaryField
{
    inlet
    {
        type            fixedValue;
        value           nonuniform 0();
    }
    outlet
    {
        type            inletOutlet;
        inletValue      uniform (3 0 0);
        value           nonuniform List<vector> 3((2.999989912 2.555048332e-05 0) (2.999785167 0.0002915992528 0) (2.999401775 0.0004539084991 0));
    }
    bottom
    {
        type            slip;
    }
    top
    {
        type            slip;
    }
    obstacle
    {
        type            slip;
    }
    defaultFaces
    {
        type            empty;
    }
    procBoundary11to4
    {
        type            processor;
        value           nonuniform List<vector> 2((2.999596926 0.01225254565 0) (2.994860255 0.04923468119 0));
    }
    procBoundary11to5
    {
        type            processor;
        value           nonuniform List<vector> 3((2.99999999 1.031380322e-07 0) (3.000000747 0.000212521456 0) (3.000000747 0.000212521456 0));
    }
    procBoundary11to17
    {
        type            processor;
        value           nonuniform List<vector> 2((2.995109992 0.00148813032 0) (2.999632363 -2.622305877e-06 0));
    }
}


// ************************************************************************* //
