/*--------------------------------*- C++ -*----------------------------------*\
  =========                 |
  \\      /  F ield         | OpenFOAM: The Open Source CFD Toolbox
   \\    /   O peration     | Website:  https://openfoam.org
    \\  /    A nd           | Version:  7
     \\/     M anipulation  |
\*---------------------------------------------------------------------------*/
FoamFile
{
    version     2.0;
    format      ascii;
    class       volVectorField;
    location    "1.4";
    object      U;
}
// * * * * * * * * * * * * * * * * * * * * * * * * * * * * * * * * * * * * * //

dimensions      [0 1 -1 0 0 0 0];

internalField   nonuniform List<vector> 
22
(
(3 2.054025745e-10 0)
(3 3.881876629e-10 0)
(3 7.47321359e-10 0)
(3 7.519244911e-10 0)
(3.000000001 1.434680784e-09 0)
(3.000000001 1.419081259e-09 0)
(3.000000001 1.417869925e-09 0)
(3.000000001 1.666136996e-09 0)
(3 -1.839605455e-10 0)
(3.000000002 4.603374344e-09 0)
(2.999999787 -3.910300744e-07 0)
(2.999999984 -1.302950352e-07 0)
(3.000000015 1.291242665e-08 0)
(2.999999987 -3.263097661e-08 0)
(2.999999862 -1.640981764e-07 0)
(2.999998956 -1.729761951e-06 0)
(2.999995498 -7.115812492e-06 0)
(2.999966939 -6.603657022e-05 0)
(2.999967507 -5.329282983e-05 0)
(2.999444354 -0.001204398333 0)
(2.99887453 -0.002553056607 0)
(2.997978265 -0.004628309079 0)
)
;

boundaryField
{
    inlet
    {
        type            fixedValue;
        value           nonuniform 0();
    }
    outlet
    {
        type            inletOutlet;
        inletValue      nonuniform 0();
        value           nonuniform 0();
    }
    bottom
    {
        type            slip;
    }
    top
    {
        type            slip;
    }
    obstacle
    {
        type            slip;
    }
    defaultFaces
    {
        type            empty;
    }
    procBoundary8to1
    {
        type            processor;
        value           uniform (3 6.793844781e-11 0);
    }
    procBoundary8to2
    {
        type            processor;
        value           nonuniform List<vector> 8((3 4.532720171e-12 0) (3 2.043364227e-11 0) (3 7.88352045e-11 0) (3 1.961263623e-10 0) (3 3.227238352e-10 0) (3 1.181190467e-09 0) (3 1.181190467e-09 0) (3 9.11936991e-10 0));
    }
    procBoundary8to3
    {
        type            processor;
        value           nonuniform List<vector> 2((2.99976761 -0.000532223566 0) (2.996303308 -0.008875509229 0));
    }
    procBoundary8to7
    {
        type            processor;
        value           nonuniform List<vector> 2((3 8.762024607e-10 0) (3 9.448925689e-10 0));
    }
    procBoundary8to9
    {
        type            processor;
        value           uniform (2.979020716 -0.05127854183 0);
    }
    procBoundary8to14
    {
        type            processor;
        value           nonuniform List<vector> 8((2.999995492 -8.125497003e-06 0) (2.999982349 -3.09859959e-05 0) (2.999925178 -0.0001480987952 0) (2.999809759 -0.0003775953826 0) (2.999809759 -0.0003775953826 0) (2.991598426 -0.02130937874 0) (2.987486338 -0.03335059107 0) (2.983709521 -0.04710140537 0));
    }
}


// ************************************************************************* //
