/*--------------------------------*- C++ -*----------------------------------*\
  =========                 |
  \\      /  F ield         | OpenFOAM: The Open Source CFD Toolbox
   \\    /   O peration     | Website:  https://openfoam.org
    \\  /    A nd           | Version:  7
     \\/     M anipulation  |
\*---------------------------------------------------------------------------*/
FoamFile
{
    version     2.0;
    format      ascii;
    class       volScalarField;
    location    "5";
    object      p;
}
// * * * * * * * * * * * * * * * * * * * * * * * * * * * * * * * * * * * * * //

dimensions      [1 -1 -2 0 0 0 0];

internalField   nonuniform List<scalar> 
2222
(
2.313939909
2.276766425
2.224503536
2.1662111
2.110671842
2.07066091
2.043971947
2.032478647
2.014890903
2.011917721
2.008987441
1.99560264
1.985161939
1.973819453
1.953415511
1.935564925
1.919613588
1.897385118
1.870739035
1.853576409
1.83613724
1.815037869
1.803253932
1.792731725
1.773316407
1.752668065
1.741606526
1.726821163
1.703768732
1.688404385
1.67681794
1.657707413
1.641724474
1.62039111
2.310504508
2.269877585
2.217681176
2.157002256
2.108803068
2.072051156
2.048406817
2.039054561
2.022426142
2.018335179
2.013547364
1.99752729
1.98522942
1.973216362
1.952969163
1.93556765
1.920101932
1.898727931
1.872708337
1.855756118
1.837747094
1.815294087
1.803331423
1.793234949
1.774605847
1.754487105
1.743665619
1.728962354
1.705854225
1.690056385
1.678248404
1.658698867
1.642478727
1.620976364
2.305618051
2.262273004
2.210888186
2.150954041
2.108956771
2.073015294
2.056477193
2.048378489
2.029978339
2.024135515
2.017774408
1.998876732
1.98480523
1.971956263
1.95155099
1.935074116
1.920380259
1.900223333
1.875261126
1.858420636
1.839345797
1.815605851
1.803393556
1.793470818
1.775502972
1.756052738
1.745718781
1.731232966
1.708039553
1.69180812
1.67979967
1.659832714
1.643302986
1.621635567
2.299268726
2.25473741
2.202667948
2.149000684
2.106969279
2.078781653
2.065440979
2.057239245
2.036852895
2.027744682
2.019417826
1.99984457
1.983447869
1.969144481
1.948890203
1.933989465
1.920447405
1.901688504
1.877942983
1.860886664
1.840730596
1.81598551
1.803440355
1.793587723
1.776103349
1.757531297
1.747899903
1.733661292
1.710299972
1.693691765
1.681419199
1.661178585
1.644335365
1.62238387
2.291860987
2.246492473
2.191187644
2.14645881
2.105580043
2.085276707
2.074261802
2.065542773
2.041250939
2.030685048
2.020401382
2.001172095
1.981695825
1.966176342
1.94724865
1.933189148
1.920479345
1.902303017
1.880029693
1.862902558
1.842047439
1.816488639
1.803470641
1.793729145
1.77672163
1.759180211
1.750178843
1.736068851
1.712547453
1.695640604
1.683139466
1.662663963
1.645496084
1.623730879
2.285273239
2.235246474
2.18084107
2.141707798
2.110045287
2.091026641
2.08146172
2.070703665
2.044617319
2.03428736
2.022451464
2.001890797
1.980859323
1.965328623
1.947096096
1.93311407
1.920697042
1.902721539
1.881516422
1.864884166
1.843548567
1.817211089
1.803716553
1.793920246
1.777683489
1.761123293
1.752278448
1.738187476
1.714696609
1.697606631
1.684859687
1.664313626
1.646651936
1.62433308
2.27890301
2.223628737
2.176924545
2.139166021
2.114512951
2.097655847
2.085289439
2.073691099
2.04943943
2.036620247
2.023371196
2.001804114
1.980326064
1.965210879
1.947400875
1.933408958
1.921148105
1.903170129
1.882743148
1.866871942
1.845287303
1.818257405
1.804205127
1.794467082
1.779240934
1.762999892
1.753928588
1.740005255
1.716742847
1.699589803
1.686605003
1.665929434
1.64809897
1.625226063
2.269651123
2.217466428
2.177262799
2.139450251
2.119386236
2.105081458
2.089849941
2.078005183
2.054639278
2.03760777
2.023339261
2.00128837
1.979879215
1.965241074
1.947750759
1.933736702
1.921653172
1.903815033
1.883870656
1.868017885
1.847146969
1.819788063
1.805215351
1.79565533
1.780921427
1.764182343
1.7552731
1.74175822
1.718763382
1.701599909
1.688377128
1.667544944
1.649548606
1.626331385
2.258249512
2.212923067
2.175186561
2.140358233
2.120916424
2.10792308
2.095290715
2.082992329
2.05706832
2.038471559
2.023234994
2.000421344
1.979177425
1.965053547
1.947828331
1.933864914
1.922002978
1.904701238
1.884613771
1.868628277
1.849053873
1.822250199
1.807550575
1.797882878
1.781620754
1.764926803
1.756751506
1.743797352
1.720920413
1.703650269
1.69006955
1.669158346
1.651079819
1.627534774
2.302705809
2.250427924
2.204388326
2.169562932
2.141742206
2.121373888
2.107642281
2.097397658
2.085137774
2.057748308
2.039903767
2.023497275
1.999413571
1.977552424
1.96419868
1.947277534
1.933595215
1.922315617
1.905382546
1.885155989
1.869213086
1.850505092
1.825475872
1.810945059
1.799854205
1.78203972
1.765650815
1.758639117
1.746338444
1.723251309
1.705637769
1.691844393
1.670709243
1.65257265
1.628817082
2.295582274
2.244389112
2.193060208
2.164234096
2.141875337
2.122914571
2.10823917
2.097414512
2.085315294
2.059013398
2.042152003
2.024346657
1.998720479
1.975937984
1.962596431
1.945913521
1.93283476
1.922790211
1.905917778
1.885658456
1.869832802
1.851436126
1.827386146
1.812811118
1.800799081
1.782555415
1.766575634
1.760527004
1.748624194
1.725465575
1.707544118
1.693533939
1.672278486
1.653981226
1.630134764
2.28877406
2.234337138
2.18823407
2.162685337
2.141024066
2.125415278
2.111484455
2.098341926
2.085969563
2.062042877
2.044321171
2.024685007
1.998550491
1.97592802
1.96196357
1.944334967
1.933065906
1.923502696
1.906558323
1.886224839
1.870493228
1.852194817
1.828259962
1.813668658
1.801505876
1.783105341
1.767644293
1.761343091
1.749807448
1.727148687
1.709429207
1.695356447
1.67396657
1.655487205
1.631528413
2.278438038
2.220452602
2.187898958
2.162770731
2.139262265
2.12642515
2.115982476
2.101448827
2.088166117
2.066576026
2.045133858
2.024699297
1.998843783
1.976429242
1.961854702
1.944819417
1.933750397
1.924333649
1.907351808
1.887036814
1.871230254
1.852910483
1.829086361
1.814485176
1.802235909
1.783869571
1.768494756
1.761511719
1.750305286
1.72819015
1.71112609
1.697266747
1.67586488
1.657176104
1.633013775
2.265931064
2.212568934
2.185922629
2.1624439
2.138389357
2.126866603
2.117206027
2.10562696
2.092767839
2.068111183
2.045535156
2.024227562
1.999115427
1.976825219
1.962783414
1.945716568
1.93475455
1.925334706
1.90830657
1.887970215
1.87205486
1.853590224
1.829946362
1.815333697
1.803137173
1.785143932
1.768916827
1.761552515
1.750568732
1.729094423
1.712859043
1.69928464
1.677944349
1.659072292
1.634585147
2.257991049
2.209912818
2.179539555
2.159907062
2.138451241
2.126587233
2.117333742
2.106960868
2.095359368
2.068153233
2.045667819
2.023738006
1.998951628
1.97683692
1.963515371
1.947109376
1.93598118
1.926514072
1.909444435
1.889184715
1.873015982
1.854243218
1.830667513
1.816281568
1.804389022
1.786251644
1.769120193
1.761604962
1.750769719
1.730064477
1.714482992
1.701335603
1.680205225
1.661151107
1.636307998
2.251778975
2.205332255
2.171165628
2.154458424
2.13860803
2.126828407
2.116336175
2.106963174
2.095791191
2.068054965
2.04583779
2.023617428
1.998147504
1.9759855
1.964536953
1.948645559
1.936936092
1.927600867
1.910836598
1.890739507
1.874132565
1.855160824
1.831511057
1.817440522
1.805527169
1.786738873
1.769337734
1.761763191
1.751005393
1.730867708
1.716023835
1.703310928
1.682460382
1.663270999
1.638129411
2.24172311
2.195358733
2.16848349
2.151349542
2.138173015
2.127704889
2.117376137
2.107457622
2.0955184
2.068571273
2.04636269
2.023681559
1.997628014
1.976116001
1.96559609
1.949608517
1.937463298
1.92831263
1.912042735
1.892291859
1.875325035
1.855664542
1.831913599
1.817892939
1.806068961
1.787060703
1.76962006
1.762046543
1.751321087
1.731550952
1.717311385
1.705122873
1.684599666
1.665341101
1.640042027
2.229184455
2.18454201
2.169034035
2.151349188
2.13697853
2.128898611
2.120062171
2.109403234
2.096065813
2.070190444
2.048056463
2.023919857
1.997896252
1.977082503
1.966411712
1.950139994
1.937566557
1.928553727
1.912700057
1.893404296
1.876372355
1.856298826
1.832328537
1.818227561
1.806331471
1.787395749
1.770012889
1.762386393
1.751679611
1.731953428
1.718271407
1.706609593
1.686474153
1.667275492
1.64198234
2.221269687
2.18033948
2.168362494
2.152282526
2.136119827
2.129797066
2.121933563
2.112119073
2.098173852
2.07204669
2.048833219
2.024221751
1.998388541
1.978302792
1.967124782
1.950323907
1.937357427
1.928552247
1.913148092
1.894283735
1.877284537
1.856974447
1.832777983
1.818578379
1.806634986
1.787765627
1.770456069
1.762732345
1.751996862
1.73248528
1.719159553
1.707928285
1.688171253
1.669124188
1.643929656
2.2179293
2.18037902
2.164487317
2.152631051
2.136810305
2.130371919
2.1230895
2.113414693
2.100065885
2.071673622
2.048369063
2.024550874
1.999319382
1.979352215
1.967715141
1.950238957
1.936890982
1.928627571
1.913755658
1.895310598
1.878204832
1.857714254
1.833268297
1.818997701
1.8070319
1.788200632
1.770932395
1.763078842
1.752271095
1.733053859
1.719993034
1.709192477
1.689847859
1.670965105
1.645841473
2.213102642
2.179563742
2.159192322
2.151549502
2.138341956
2.130618156
2.123458009
2.113740027
2.100045847
2.07089251
2.04791515
2.025093842
2.00084108
1.980366945
1.968147461
1.949905105
1.936707314
1.928895847
1.914945989
1.896856927
1.879378969
1.858602808
1.833935212
1.819588747
1.807519411
1.788724822
1.771474971
1.763436267
1.752545772
1.733489794
1.72089822
1.710554113
1.691596502
1.672780358
1.647670239
2.204659458
2.174581687
2.1580478
2.1490295
2.139789977
2.130823732
2.124558141
2.11400325
2.099531876
2.069703208
2.047511276
2.025830045
2.001765932
1.981326518
1.968367391
1.949987866
1.936857604
1.929760088
1.916572787
1.898989676
1.88114404
1.859890705
1.835002509
1.820449674
1.808115857
1.789208857
1.771982807
1.763765914
1.752885108
1.733847332
1.721738861
1.711888457
1.693167398
1.674386388
1.649402753
2.196932154
2.167080435
2.158409592
2.148819981
2.140762803
2.132837194
2.126372185
2.114963585
2.098878954
2.068894527
2.047311069
2.026337125
2.002488205
1.982182205
1.968662385
1.950644171
1.937543001
1.930689298
1.917191709
1.900838618
1.883709682
1.862093645
1.836826369
1.821642456
1.808814457
1.789639579
1.772387113
1.764229702
1.753276349
1.734125512
1.722172052
1.712627391
1.694183753
1.675681932
1.651094175
2.227352489
2.19196026
2.164277224
2.16016066
2.150689592
2.141814349
2.13533764
2.127953683
2.116015329
2.098721354
2.068851416
2.047889126
2.026799628
2.00307816
1.982960608
1.969446621
1.952114944
1.938609688
1.930761734
1.917277212
1.901841821
1.886491274
1.865417652
1.839535513
1.823131162
1.809579436
1.79014945
1.772943568
1.764739054
1.753671718
1.73437635
1.722325409
1.712895937
1.694775138
1.676758157
1.652787625
2.221306188
2.188739144
2.162794258
2.160670854
2.153760873
2.142645302
2.137660414
2.129096187
2.1164024
2.098196344
2.069258108
2.049184055
2.027478563
2.003840126
1.983918316
1.970576832
1.954341944
1.938881296
1.930734405
1.917381264
1.902565991
1.888317383
1.868261634
1.842050011
1.824636316
1.810371076
1.790683006
1.773519232
1.765180826
1.754038291
1.734658217
1.722433131
1.713005845
1.69524947
1.677759586
1.654431574
2.216783259
2.187192922
2.16400568
2.160198457
2.156520139
2.145613978
2.139518438
2.129872349
2.116415218
2.097158718
2.069123788
2.050111531
2.028350653
2.004779384
1.985403659
1.972027658
1.955056657
1.939047805
1.930913481
1.917657942
1.903456192
1.88934523
1.869443956
1.843536635
1.825959042
1.811187888
1.791220911
1.774014062
1.765535508
1.754368071
1.73499159
1.722670129
1.713240093
1.695783676
1.678761845
1.655966154
2.21149927
2.184850004
2.165870642
2.160024031
2.158357957
2.149454731
2.140541666
2.130461435
2.115787612
2.096217033
2.068740083
2.050465775
2.029303346
2.005850789
1.987701924
1.973417116
1.955424128
1.939441467
1.931287803
1.918309732
1.904762219
1.890154262
1.870026018
1.844598247
1.82720756
1.812095971
1.791808284
1.774509329
1.765838192
1.754640222
1.735211916
1.722879984
1.713659947
1.696524962
1.679830572
1.657443945
2.20644607
2.18181384
2.165320093
2.161781102
2.158713803
2.152120261
2.141501223
2.131277179
2.115299645
2.095886078
2.068671545
2.050714916
2.030346622
2.007531565
1.990109962
1.974392135
1.955860342
1.940030611
1.93180077
1.919537533
1.906145007
1.890971339
1.870675077
1.845798277
1.828600122
1.813169201
1.792539875
1.775123332
1.766181715
1.754893367
1.735491229
1.723247109
1.714155843
1.697321059
1.680978223
1.659078578
2.202701992
2.179460272
2.164270277
2.165610989
2.160127764
2.153809136
2.143026247
2.13211651
2.115564709
2.096213264
2.069054283
2.051375181
2.031816327
2.010217504
1.991241574
1.974968606
1.956424027
1.940771453
1.932728833
1.921042946
1.907012151
1.891856811
1.871728858
1.847474256
1.830325074
1.814521498
1.793513937
1.77594716
1.766682741
1.75548877
1.736170287
1.723859151
1.71476834
1.698220354
1.682311387
1.661157177
2.200111853
2.178181578
2.164467149
2.168832399
2.163346498
2.154377981
2.144741007
2.132662491
2.116003005
2.09627888
2.07008799
2.052980994
2.034249478
2.012216904
1.991764173
1.975447111
1.95721865
1.942178321
1.934709188
1.922268516
1.907729382
1.892865107
1.873267303
1.849630894
1.832405413
1.81622933
1.794823011
1.777027231
1.76738368
1.755768794
1.736519171
1.724255351
1.715449659
1.699296897
1.683775608
1.663472104
2.198851244
2.17976927
2.167453425
2.170911141
2.167204633
2.156221821
2.146012877
2.132646105
2.115968648
2.095869548
2.071043264
2.055327086
2.037054833
2.012763968
1.992247056
1.976106149
1.959046823
1.945563024
1.937455015
1.923168809
1.908726184
1.894120842
1.874867323
1.851648676
1.834538045
1.818222997
1.796462157
1.778375491
1.768253914
1.756266359
1.737054434
1.725142696
1.716344731
1.700449402
1.68523023
1.665402427
2.199024848
2.184047096
2.173427896
2.173312668
2.169635442
2.158981123
2.145924593
2.131995769
2.115073953
2.094996668
2.071564553
2.056628615
2.03851816
2.012955844
1.992970239
1.977593685
1.963164216
1.949868246
1.93907848
1.924093238
1.909926968
1.895554244
1.87609599
1.853074963
1.836372196
1.820241898
1.798299752
1.779896584
1.76933571
1.756995812
1.73773809
1.72564175
1.717273125
1.701545668
1.686360057
1.666365425
2.199501876
2.188799624
2.179987244
2.177091722
2.170977278
2.161145737
2.145811968
2.131856546
2.114552439
2.094966613
2.072090108
2.057208099
2.039370853
2.013398167
1.994505241
1.980877957
1.967699034
1.951606624
1.939855257
1.925069974
1.910723668
1.896475414
1.876915423
1.854152767
1.837861142
1.822030843
1.800091432
1.781521942
1.770587659
1.75795309
1.7385651
1.726259251
1.717923301
1.702357013
1.68707014
1.666833585
2.202584052
2.194294237
2.185740577
2.182941814
2.172881408
2.162476596
2.146676416
2.132084746
2.114922099
2.095492341
2.072988882
2.057877761
2.040688059
2.01467087
1.997347507
1.984981703
1.969615466
1.952164521
1.940583672
1.925908116
1.911313335
1.896894017
1.877598731
1.85516829
1.839160231
1.823558673
1.801700487
1.783288181
1.772103727
1.759131136
1.739578662
1.726967792
1.718478148
1.703005491
1.687589724
1.667235009
2.207768162
2.199480515
2.189469723
2.188454533
2.176764697
2.163220446
2.147375153
2.132147516
2.115360395
2.096366985
2.074644128
2.059253655
2.043198383
2.017008166
2.000385598
1.987462717
1.97029678
1.952755393
1.941436795
1.926766873
1.91176734
1.897251935
1.878314586
1.85623444
1.840439398
1.824963323
1.803257001
1.785222666
1.773917912
1.760549441
1.740723879
1.727738533
1.719046703
1.703651956
1.68815975
1.667688151
2.214432371
2.205119397
2.193503851
2.191025002
2.181648858
2.16303829
2.147712934
2.131614852
2.115273498
2.097109144
2.076099611
2.0613481
2.045242322
2.018888697
2.002331205
1.988723779
1.970995205
1.953828193
1.942693227
1.927264112
1.91203
1.897428072
1.878828293
1.857340048
1.841801852
1.826440025
1.804941063
1.787399166
1.776006164
1.762124241
1.741924419
1.728577078
1.719657895
1.70433865
1.68888516
1.668436475
2.222251337
2.214463118
2.201388594
2.19267139
2.183888052
2.163801354
2.147289427
2.129882393
2.114208151
2.097501397
2.077017988
2.062485685
2.045575743
2.019799938
2.003931476
1.990149422
1.972547169
1.956252509
1.944404741
1.927462779
1.912026927
1.897429698
1.879235415
1.858486989
1.843315988
1.828115997
1.806945762
1.789785351
1.778156317
1.763725628
1.743194935
1.729557873
1.720353068
1.705071388
1.68977701
1.669464529
2.236018073
2.232968879
2.223320639
2.208668435
2.195898462
2.184375895
2.164936582
2.146585774
2.127511363
2.112044748
2.097018034
2.07774738
2.063038712
2.045441046
2.020808327
2.006571907
1.993224436
1.976516943
1.96021994
1.945611285
1.927285233
1.911470452
1.897155375
1.879550036
1.859670124
1.845009678
1.830056153
1.809219121
1.792116047
1.780145433
1.765294561
1.744548116
1.730656023
1.721116749
1.705805479
1.690792332
1.670981057
2.247161642
2.241137413
2.22646976
2.209894814
2.201310333
2.185012957
2.166490953
2.146574423
2.125816939
2.110738867
2.096086397
2.078000776
2.063242108
2.045496088
2.022819919
2.0109285
1.998735545
1.982161305
1.963139118
1.946197697
1.926885571
1.9107735
1.896846019
1.879896193
1.860853563
1.846811091
1.832155027
1.811409355
1.794124612
1.781925273
1.766851513
1.746105496
1.731969795
1.722011324
1.706573115
1.691743591
1.671875913
2.25860935
2.244164286
2.225561944
2.210331454
2.204346527
2.186972534
2.167578574
2.146657706
2.125005243
2.110464239
2.096203741
2.078590236
2.063471605
2.046106384
2.025418439
2.014286153
2.002785519
1.984993636
1.964318655
1.946642655
1.926615819
1.910144929
1.896600744
1.880306975
1.862092914
1.848599764
1.834148511
1.813221868
1.795878683
1.783657518
1.768558746
1.747911349
1.733444426
1.722982922
1.707779083
1.692748591
1.672327564
2.26463168
2.246119057
2.227149773
2.212863369
2.204791632
2.190152967
2.167429384
2.14658274
2.125023957
2.110751193
2.097123061
2.079854803
2.064304115
2.047164732
2.027004081
2.01536783
2.003808123
1.985874313
1.965137761
1.947217682
1.926621082
1.909652571
1.896442166
1.880901285
1.863599342
1.850389158
1.835869917
1.814736783
1.79765022
1.785548458
1.770516663
1.749899987
1.734980085
1.724031729
1.708415614
1.693173261
1.672666261
2.266079814
2.250060121
2.232237844
2.216934308
2.205829567
2.191847632
2.166417036
2.145847757
2.125207254
2.111245244
2.09832512
2.081340694
2.065546602
2.048380204
2.027927895
2.015947478
2.004240554
1.986622849
1.966236026
1.948090543
1.926777158
1.909372972
1.89636991
1.881864465
1.865514476
1.852263292
1.837454869
1.816291272
1.799624989
1.787606833
1.772552654
1.751854436
1.736582116
1.725248861
1.709210952
1.693686737
1.673072384
2.268947021
2.253089907
2.236164884
2.219333889
2.209404038
2.19174812
2.165129598
2.144060357
2.124437849
2.111286613
2.099288074
2.082910679
2.066829953
2.049650926
2.029109276
2.016905011
2.005016787
1.987888176
1.967861338
1.948888686
1.92686763
1.909186177
1.896364891
1.882361659
1.86703517
1.854164184
1.839204826
1.8181851
1.801642929
1.789519031
1.774428705
1.753725817
1.738321097
1.726632626
1.710113513
1.694312055
1.673615172
2.273149046
2.255006164
2.23726115
2.222000263
2.212776935
2.190796273
2.16385353
2.141829016
2.122061511
2.110126253
2.099893378
2.084440256
2.067762925
2.050572541
2.030534851
2.018331301
2.006443976
1.989722274
1.96910922
1.949170087
1.926778664
1.908977476
1.896356196
1.88266261
1.867718466
1.855712019
1.841104503
1.82011843
1.803339317
1.791146846
1.77616947
1.75579464
1.740465279
1.728295649
1.711081501
1.694998942
1.674349492
2.276403074
2.255956094
2.238717759
2.2262138
2.212226919
2.189738381
2.163136131
2.139945722
2.120539157
2.108764656
2.100178286
2.085787592
2.068587071
2.051154731
2.031042596
2.019139488
2.007547186
1.990586787
1.96951449
1.949240819
1.926185614
1.908597772
1.896352762
1.882896517
1.868163386
1.856535409
1.842413608
1.82140007
1.80480477
1.79288203
1.778354567
1.758581506
1.743066938
1.730000686
1.712062892
1.695835862
1.675491306
2.278512131
2.255638089
2.240468637
2.227872364
2.210852124
2.18912684
2.163560613
2.138311656
2.120621939
2.109597778
2.100234885
2.086801894
2.069145148
2.051609953
2.031195983
2.019236404
2.007772589
1.99070189
1.969568793
1.948696634
1.925783361
1.908441876
1.896386948
1.883084977
1.868453358
1.856752738
1.842785438
1.822159283
1.806624303
1.795656989
1.782080506
1.76234598
1.745512665
1.731396735
1.713044317
1.696965231
1.677138755
2.278982249
2.25628519
2.241494559
2.227509315
2.210205945
2.189190192
2.164334789
2.136941701
2.121748843
2.111037812
2.101613495
2.087555625
2.069384304
2.051825531
2.031251267
2.019225489
2.007720734
1.990571368
1.969349002
1.948541156
1.926332696
1.90893576
1.896562538
1.883255529
1.868575682
1.856729332
1.842861654
1.823005118
1.809443347
1.799941261
1.785650843
1.764501475
1.746905899
1.732380894
1.714116649
1.698530004
1.678553339
2.277421629
2.258113259
2.242881792
2.226121255
2.211391565
2.189856876
2.163234581
2.135831408
2.124088672
2.112852316
2.103465737
2.088324385
2.069433747
2.051762078
2.031130566
2.019142248
2.007566785
1.990297617
1.96915459
1.948573197
1.92701284
1.9095882
1.896968377
1.883401255
1.868620464
1.856796305
1.843151833
1.824579744
1.812706584
1.802072862
1.78597482
1.764885408
1.747549685
1.733213455
1.715414589
1.700339473
1.679392132
2.277155671
2.25986362
2.244705207
2.226136137
2.213069892
2.188384886
2.160706837
2.135353285
2.126636054
2.113970928
2.104831903
2.089101821
2.069284557
2.051433833
2.030847365
2.018900941
2.007298133
1.989946995
1.969017383
1.948604149
1.927790489
1.910333557
1.897517367
1.883509635
1.868884687
1.857258144
1.844233218
1.827398133
1.814773843
1.802227445
1.786233246
1.765276383
1.748114913
1.734055512
1.716935369
1.701831917
1.679981391
2.293437784
2.279094433
2.261282771
2.246262718
2.227656135
2.211518984
2.185388791
2.158594458
2.135754404
2.128111984
2.114278351
2.10539801
2.089557556
2.068805329
2.050919558
2.030548332
2.01847077
2.006858123
1.989628981
1.96901337
1.948814889
1.928356818
1.911084444
1.89814339
1.883865411
1.869617283
1.858659901
1.846792433
1.830062759
1.815593329
1.802529522
1.786600043
1.765766883
1.748758421
1.735051713
1.718445585
1.702907094
1.680515788
2.296174286
2.281198814
2.261908899
2.247380374
2.229164616
2.209250563
2.182887537
2.157353712
2.136717604
2.128994118
2.113117389
2.104242626
2.089265862
2.067963501
2.050427544
2.030339699
2.01783301
2.006300212
1.989515786
1.969177075
1.949013004
1.928601878
1.911548639
1.898745225
1.884370637
1.871161358
1.861055198
1.848692685
1.830617091
1.81614824
1.802993649
1.787098047
1.7663769
1.7495737
1.73632431
1.719768195
1.703776413
1.681064826
2.299249656
2.282771771
2.261627373
2.248450694
2.229188641
2.206693712
2.181364528
2.157901203
2.138444519
2.129551886
2.113351279
2.104465033
2.088357949
2.06722226
2.04995042
2.029981883
2.016978052
2.00611308
1.989705075
1.969592782
1.94911927
1.92860818
1.911837591
1.899313183
1.885245081
1.872994664
1.862224555
1.848939218
1.830886384
1.816733311
1.803626742
1.787748627
1.767169397
1.750754459
1.737877217
1.720955598
1.704598027
1.681673086
2.301445501
2.282882643
2.261942375
2.248899553
2.228266293
2.205589128
2.18132343
2.161465335
2.140582706
2.130335745
2.114273528
2.105491122
2.088732403
2.066693377
2.049114514
2.029023638
2.016187011
2.006374689
1.990259958
1.970063307
1.949170235
1.928657643
1.912144241
1.899918549
1.886608395
1.874029502
1.86261627
1.848990531
1.831116382
1.817345141
1.804401191
1.788557882
1.768287155
1.752473956
1.739617221
1.722115559
1.705457483
1.682392286
2.301441614
2.281449837
2.263994696
2.248572989
2.225999906
2.205425025
2.183660226
2.164292985
2.14211001
2.131937301
2.11613707
2.106391375
2.089527136
2.065837946
2.047514758
2.027612165
2.015815761
2.0068639
1.991105987
1.970474602
1.949285632
1.928982008
1.9126379
1.900621148
1.887736519
1.874686914
1.862839633
1.849015316
1.831296845
1.817841727
1.805197057
1.789490632
1.769813159
1.754640619
1.741431291
1.723319068
1.706418716
1.683270882
2.298546436
2.281012742
2.266857983
2.248678868
2.225438591
2.206511738
2.184549509
2.164611314
2.143621776
2.134628865
2.118758525
2.106507991
2.090193729
2.06470923
2.045982375
2.02713696
2.015724942
2.007460281
1.991821018
1.970905203
1.949628562
1.929396888
1.913162325
1.901482073
1.888416917
1.875173309
1.863236421
1.849305554
1.831555392
1.818268502
1.805876238
1.790516655
1.77174199
1.756931286
1.74319067
1.724624282
1.707573347
1.68437766
2.297766701
2.283634772
2.269594584
2.250057819
2.226372127
2.206851284
2.184225016
2.164055754
2.145225751
2.137909439
2.120805402
2.105994379
2.090307462
2.063576457
2.045681543
2.027728921
2.015983521
2.008000575
1.992282556
1.971349578
1.950108507
1.930055936
1.913860079
1.902400242
1.888902298
1.875658954
1.863765235
1.849789633
1.831895205
1.818552553
1.806421414
1.791619899
1.773703598
1.758860443
1.744750945
1.726066355
1.709033315
1.685789009
2.300646607
2.286945886
2.271585077
2.251512062
2.227618898
2.206241783
2.183644018
2.1638306
2.148360249
2.141104268
2.120968818
2.104589491
2.08933898
2.06309623
2.046360016
2.028800454
2.016537932
2.00853339
1.992647664
1.971846086
1.950838893
1.931259962
1.915094897
1.903373763
1.88935999
1.876126509
1.864357916
1.850309268
1.832283294
1.818979112
1.80691372
1.792683161
1.775195187
1.760229782
1.746092623
1.727675768
1.71088033
1.687563872
2.304129451
2.289662458
2.271891146
2.25179984
2.22784815
2.204753736
2.183378054
2.165002721
2.153375465
2.141999555
2.119651135
2.102155358
2.087744097
2.063090651
2.047496349
2.03001626
2.017127861
2.008891106
1.992782735
1.972518188
1.952136822
1.933395739
1.917116729
1.904421599
1.889976555
1.876842584
1.86513228
1.850665812
1.832664875
1.819488548
1.807438976
1.793460461
1.77601478
1.761177128
1.747320573
1.729485737
1.713122463
1.689710034
2.306916868
2.290910598
2.270933141
2.250058326
2.225936012
2.204020495
2.184198788
2.169209127
2.157370452
2.141610082
2.118190768
2.100993395
2.087548386
2.063558103
2.048364546
2.030985204
2.017376827
2.008791636
1.993264621
1.97338277
1.954437248
1.93677811
1.919864236
1.905732203
1.891141889
1.878189782
1.865725511
1.8508662
1.833037914
1.820242443
1.808042343
1.793968361
1.776515892
1.76195224
1.748569385
1.731473696
1.715616452
1.692135118
2.308337047
2.289325908
2.270091645
2.245932073
2.22260061
2.20449121
2.18705688
2.172595119
2.157008056
2.140776885
2.117553398
2.100452431
2.08777886
2.06393498
2.048959445
2.03127896
2.016734237
2.008431572
1.994070152
1.974579028
1.957230777
1.940121649
1.92270502
1.907670365
1.893259293
1.87960972
1.866029928
1.850877945
1.833426066
1.820912219
1.808702712
1.794372696
1.776952275
1.762756146
1.749917377
1.733506127
1.718056244
1.694637401
2.307173045
2.288382939
2.270402434
2.245040255
2.222743679
2.205472054
2.189663522
2.17357608
2.156469621
2.139960885
2.117657387
2.101302341
2.088802716
2.064228147
2.049269762
2.031411131
2.016700208
2.008726251
1.994709198
1.976702165
1.960295058
1.943370064
1.926138924
1.911178849
1.896158076
1.880241653
1.865996853
1.850853552
1.833701896
1.821262929
1.809752854
1.794935072
1.777624129
1.763812655
1.751351723
1.735263055
1.720093948
1.696942015
2.320030573
2.304774934
2.288623942
2.268884647
2.244654497
2.223071958
2.206145958
2.189742031
2.172686378
2.155879577
2.139178734
2.117466125
2.101295275
2.088678817
2.063631496
2.048382398
2.03126591
2.016802218
2.00864883
1.994675925
1.977189597
1.961425324
)
;

boundaryField
{
    inlet
    {
        type            fixedValue;
        value           nonuniform 0();
    }
    outlet
    {
        type            zeroGradient;
    }
    bottom
    {
        type            slip;
    }
    top
    {
        type            slip;
    }
    obstacle
    {
        type            zeroGradient;
    }
    defaultFaces
    {
        type            empty;
    }
    procBoundary17to11
    {
        type            processor;
        value           nonuniform List<scalar> 
34
(
2.31606809
2.281902619
2.231880395
2.173457439
2.115082915
2.071416545
2.045412432
2.029005545
2.009139057
2.005828167
2.004682026
1.993424013
1.984816247
1.974192911
1.953556652
1.935306707
1.918452989
1.895983099
1.86914708
1.852099304
1.834956
1.814363759
1.803090664
1.792091748
1.771842484
1.750668047
1.739487509
1.724732285
1.701737324
1.686775453
1.675497309
1.656816852
1.641079219
1.61990506
)
;
    }
    procBoundary17to16
    {
        type            processor;
        value           nonuniform List<scalar> 
66
(
2.338419794
2.33752884
2.335061871
2.332178238
2.328972496
2.325359632
2.32150014
2.317230408
2.31090513
2.31090513
2.34828839
2.343543152
2.337862726
2.330623402
2.321582469
2.311816961
2.302556497
2.293521451
2.283396286
2.272480001
2.263084326
2.254714482
2.245636804
2.235796474
2.235796474
2.279430166
2.268329422
2.257338202
2.250540401
2.246956063
2.241880286
2.234178809
2.227908708
2.225695264
2.225604544
2.225534316
2.225563546
2.224082421
2.229251619
2.229251619
2.252553011
2.259544061
2.270589418
2.277730095
2.281586196
2.28141377
2.285103737
2.290154031
2.293774951
2.296217773
2.296365756
2.293661015
2.293661015
2.305162016
2.305043046
2.307431726
2.309999665
2.312144808
2.312352206
2.310729287
2.312753671
2.31601765
2.318997727
2.320774379
2.321622947
2.321622947
)
;
    }
    procBoundary17to22
    {
        type            processor;
        value           uniform 2.331634295;
    }
    procBoundary17to23
    {
        type            processor;
        value           nonuniform List<scalar> 
40
(
1.945642541
1.929182434
1.913668799
1.896585212
1.880201596
1.86546922
1.850436481
1.833415835
1.82140028
1.810057891
1.795438676
1.778641239
1.765222177
1.752831228
1.736736274
1.72174546
1.698909839
2.323422176
2.307918767
2.292499174
2.269592667
2.246219924
2.225275182
2.208375646
2.192936587
2.174921546
2.158346133
2.142185081
2.121761904
2.104279743
2.091254638
2.066411111
2.050198358
2.034034455
2.018213179
2.009593395
1.996219759
1.979081493
1.945642541
1.963774133
)
;
    }
}


// ************************************************************************* //
