/*--------------------------------*- C++ -*----------------------------------*\
  =========                 |
  \\      /  F ield         | OpenFOAM: The Open Source CFD Toolbox
   \\    /   O peration     | Website:  https://openfoam.org
    \\  /    A nd           | Version:  7
     \\/     M anipulation  |
\*---------------------------------------------------------------------------*/
FoamFile
{
    version     2.0;
    format      ascii;
    class       volScalarField;
    location    "1";
    object      rho;
}
// * * * * * * * * * * * * * * * * * * * * * * * * * * * * * * * * * * * * * //

dimensions      [1 -3 0 0 0 0 0];

internalField   nonuniform List<scalar> 
2222
(
1.153304769
1.159059139
1.176567798
1.171712909
1.16358282
1.169398078
1.176560473
1.173813742
1.17309216
1.177751495
1.181680457
1.183282033
1.188402264
1.193505865
1.195160411
1.194087838
1.190493838
1.187556332
1.188292416
1.190078749
1.192863712
1.194823621
1.195671174
1.196766429
1.197934695
1.198322779
1.199077128
0.4202628049
0.4233210633
0.6154572039
1.084004143
1.121618034
1.135400506
1.178678673
1.166213823
1.158414474
1.176821113
1.180216018
1.166098169
1.167197514
1.175830455
1.177124777
1.174855211
1.178544719
1.186914245
1.191401675
1.193113498
1.195572436
1.196846939
1.195355848
1.191226751
1.190337279
1.193244232
1.196774829
1.198240456
1.197839378
1.197543975
1.198430012
1.199853833
1.201107013
1.203824115
0.423803873
0.4249166479
0.4283595097
0.8654979085
1.137519329
1.111770752
1.174382448
1.181981898
1.158951342
1.170088427
1.183260867
1.1728409
1.166644796
1.173293291
1.180106081
1.178071865
1.181928404
1.191688099
1.195947699
1.195415364
1.196487135
1.197158973
1.195471778
1.191926764
1.19286238
1.198439986
1.204452852
1.204997479
1.202513949
1.200691891
1.201087191
1.202898823
1.205977748
1.210586781
0.4295931683
0.4275998511
0.4284460127
0.6255605979
1.103058632
1.093907975
1.160161516
1.189251316
1.165815974
1.16350398
1.18308936
1.182464658
1.167797413
1.172266547
1.181901994
1.183510257
1.185526895
1.191974538
1.196817525
1.196805492
1.196855171
1.196725504
1.195047317
1.192900983
1.195347079
1.202838409
1.209928508
1.209844574
1.206816784
1.204194558
1.204553459
1.207276248
1.211873885
1.215521526
0.4320804325
0.4332910151
0.432110818
0.4340795393
0.891769053
1.123514494
1.134903921
1.188051799
1.179204744
1.161921059
1.177086848
1.187823526
1.17558404
1.172380447
1.182586997
1.188258829
1.187493106
1.191422863
1.196212493
1.197209195
1.196714544
1.196208612
1.195031054
1.194929196
1.198475594
1.205949367
1.211909546
1.211740424
1.208904249
1.206692382
1.207732519
1.211472236
1.215443866
1.217448076
0.4328157394
0.4358486489
0.436309606
0.4361037943
0.6295685709
1.105077152
1.100607157
1.179360881
1.192008319
1.16406889
1.16784236
1.189723292
1.187113447
1.174933175
1.181210595
1.189654932
1.188965278
1.190380434
1.194869548
1.197034744
1.196711684
1.196707532
1.197043458
1.19907916
1.202150029
1.208395193
1.212235401
1.21171375
1.209553649
1.208696711
1.210652311
1.214282339
1.216191565
1.217752149
0.4337291335
0.4367150122
0.4394294561
0.4421502075
0.4413999756
0.9342396737
1.091562878
1.160081278
1.193939686
1.174753499
1.166149523
1.18551353
1.193947368
1.181142536
1.181046602
1.188967954
1.190584677
1.189145625
1.192581522
1.196100839
1.197809607
1.20012267
1.202661374
1.203271869
1.204626245
1.20973027
1.211834753
1.211140224
1.209591903
1.209908163
1.212394433
1.214608265
1.215986037
1.217401931
0.4376406922
0.44051385
0.4444954157
0.4457100751
0.6374866284
1.096735821
1.118475813
1.191597679
1.192007277
1.166889276
1.174649853
1.196669299
1.190597637
1.18148314
1.187592312
1.192134621
1.190739443
1.191980149
1.19567925
1.201300787
1.206275954
1.207161272
1.204310906
1.204995112
1.209508785
1.21088606
1.210474821
1.209783522
1.21118121
1.213276726
1.214499854
1.215398299
1.217038082
0.439014684
0.4413815581
0.4453038958
0.4495061234
0.4502579353
0.9617710551
1.086778766
1.183667815
1.199919556
1.176579941
1.170882337
1.192590755
1.197173863
1.183827286
1.186679967
1.193145681
1.193477194
1.193779049
1.197997053
1.206766761
1.209944325
1.208341779
1.203810011
1.204201282
1.208283012
1.210110192
1.210647464
1.211356111
1.21284191
1.213749539
1.214493205
1.215342597
1.217308055
1.220883612
0.4441922262
0.4430218184
0.446007473
0.4504417481
0.4522029594
0.6627074182
1.079636091
1.146041324
1.201796662
1.196144376
1.17106571
1.181097834
1.19920472
1.190162486
1.186392203
1.193604169
1.197923594
1.198246146
1.202163173
1.209123742
1.210161698
1.20786733
1.202182701
1.202563587
1.20672166
1.209607311
1.212041905
1.213356341
1.213929405
1.214423517
1.215005137
1.216056389
1.219078268
1.225135702
0.4492456212
0.4484063185
0.4480494292
0.4508449642
0.453999234
0.4620250169
0.9762631281
1.098198518
1.198586924
1.205222735
1.178629828
1.175983837
1.198141379
1.197274603
1.188528288
1.19462157
1.201976186
1.203277221
1.205545283
1.209100601
1.209799507
1.206564379
1.200817116
1.202027744
1.206162108
1.210245411
1.213814454
1.214057439
1.214525129
1.215586884
1.216686629
1.218363663
1.222818814
1.229008395
0.4512810158
0.453381794
0.4527401931
0.4526490017
0.4556027087
0.45730084
0.7007468347
1.061143361
1.168368184
1.207403894
1.198691092
1.175510221
1.189574114
1.201578869
1.192724152
1.195813897
1.203389768
1.206175844
1.207368699
1.208543296
1.208582558
1.205132378
1.200397656
1.20210243
1.206762268
1.212098349
1.214296221
1.214309743
1.214945756
1.216814842
1.219101629
1.222045423
1.22611512
1.229257494
0.4516431955
0.4552587332
0.457255004
0.457578663
0.4569556474
0.4583337746
0.4734415488
0.9836122502
1.111899154
1.205295919
1.208897475
1.180855667
1.18257621
1.202955242
1.198202757
1.196789942
1.202763497
1.207431876
1.207696118
1.208420187
1.209178422
1.206421633
1.205180133
1.20829195
1.213369624
1.21540605
1.21499052
1.214773355
1.215504919
1.217903098
1.221680465
1.225147605
1.227335539
1.228868461
0.4521266098
0.455658943
0.458832268
0.4612320113
0.4619650317
0.462060548
0.462948818
0.7398582265
1.05808965
1.180036745
1.211139831
1.199501828
1.18137453
1.199795252
1.20381137
1.197589027
1.201842747
1.207282917
1.207500608
1.208225067
1.210993914
1.210327085
1.213746492
1.219463986
1.222793261
1.220609174
1.217702119
1.216166866
1.216499279
1.219108072
1.223865869
1.22687461
1.227697538
1.227553207
0.4544142356
0.4563375387
0.4591779545
0.46242904
0.4649549358
0.4663023941
0.4666272486
0.4876796471
0.9869448029
1.123746942
1.208882736
1.212005587
1.18280945
1.193658465
1.206588494
1.1993479
1.20159837
1.206496169
1.207737876
1.209611021
1.213968548
1.21549149
1.219057913
1.225837912
1.227274364
1.224227185
1.220196162
1.218010124
1.218252094
1.221006119
1.225394786
1.227303451
1.22757572
1.227407758
0.4591242468
0.4599496714
0.4627371771
0.4658273604
0.4685444789
0.4708457216
0.4710233386
0.7762579186
1.066711198
1.187895892
1.215311066
1.195325786
1.188455588
1.206189972
1.202894765
1.202480792
1.205941425
1.209193097
1.213191987
1.217413609
1.21691935
1.218953073
1.226360661
1.227382573
1.225172638
1.221680964
1.219868623
1.220446256
1.223464161
1.226720134
1.227617457
1.227736614
1.227509696
0.4649572546
0.4638584419
0.4637539405
0.4661837825
0.4691648451
0.4714271077
0.4739561139
0.507339158
0.9991527944
1.134476049
1.213561926
1.211054406
1.187664762
1.203780513
1.207805584
1.205235696
1.206487935
1.212349778
1.216746721
1.21799357
1.214962668
1.217374396
1.225630022
1.226542795
1.224544891
1.222362557
1.221456081
1.222421112
1.225082299
1.227140026
1.227986352
1.228354258
1.228869339
0.4686795133
0.4700546255
0.4684251185
0.467697584
0.4698745377
0.4717851066
0.4757833823
0.4779503221
0.8079008727
1.081367517
1.197108244
1.217513256
1.189214529
1.197907905
1.211006846
1.207938823
1.208561281
1.214372035
1.218312652
1.217405371
1.210484442
1.212811053
1.222669716
1.224275052
1.223540721
1.222755283
1.222701086
1.223738802
1.225891246
1.227502872
1.228476287
1.229603959
1.231561433
0.4700351192
0.4731261955
0.4740311399
0.473249029
0.4730804287
0.4740525267
0.4762963198
0.4793092972
0.5295336873
1.016567381
1.144797945
1.216092991
1.197967079
1.193113086
1.211868394
1.209952108
1.210960077
1.214884301
1.218176216
1.216461198
1.207307283
1.209078564
1.21930892
1.223032626
1.222758214
1.223357112
1.223820603
1.224680842
1.226661718
1.228473555
1.229788483
1.231607875
1.23347133
0.4705047618
0.4740689164
0.4765786079
0.4779252906
0.4788656667
0.4798674334
0.4804013072
0.4825236376
0.4839058035
0.8407897754
1.090110585
1.210269262
1.212820349
1.190790888
1.20967026
1.212068339
1.212994848
1.214546905
1.217617188
1.215601803
1.206378451
1.208413556
1.218460762
1.222359185
1.223108873
1.224661354
1.225103754
1.225769517
1.227817302
1.229951551
1.232036474
1.233549187
1.233496703
0.4716618316
0.4743715084
0.4773750181
0.4799064053
0.4818290104
0.4832187578
0.4846446845
0.4864089493
0.4860458467
0.5589006911
1.032314675
1.167065442
1.217725939
1.190622809
1.204451347
1.214360567
1.214004281
1.213796913
1.218637755
1.218362588
1.209320189
1.20999311
1.218804824
1.22350257
1.225304979
1.226761961
1.226808651
1.227371373
1.229763749
1.232420842
1.234514089
1.2347001
1.233275749
0.4765034888
0.4755782666
0.477982301
0.4805033532
0.4828245069
0.4843893702
0.4861010283
0.48916167
0.4912582266
0.4900605434
0.8824174016
1.097488643
1.215911191
1.198760727
1.197629341
1.214169385
1.21372303
1.213162479
1.218889118
1.220128602
1.216377871
1.21946611
1.224750784
1.226668246
1.228149716
1.229015611
1.228620018
1.229145701
1.231795972
1.234859462
1.23601226
1.235517833
1.233617973
0.4822279983
0.4799679177
0.4796783553
0.4812628556
0.4830655901
0.4845330034
0.4860200421
0.4897182107
0.4931615555
0.4936299732
0.6016990246
1.034380708
1.201926394
1.211489358
1.192948181
1.213194615
1.212903499
1.213031265
1.219206179
1.220918894
1.22024755
1.229031007
1.233229204
1.230591244
1.2305559
1.230693574
1.229904288
1.230353626
1.233181644
1.236245869
1.236663745
1.235997337
1.233909104
0.48534366
0.4854493049
0.4841973384
0.4842218275
0.4855805177
0.4869774914
0.4901903996
0.4934262416
0.4961984416
0.4959163778
0.9294998655
1.129405281
1.215160475
1.190171805
1.210529705
1.2128328
1.216349528
1.220130184
1.221057618
1.221362862
1.234784036
1.238304018
1.232919504
1.23161308
1.231445482
1.230475407
1.230911383
1.2336112
1.23676667
1.237012619
1.2364547
1.234997561
0.4880049219
0.4902726636
0.4908762718
0.4887137945
0.489042596
0.4905769156
0.4927031902
0.4945089674
0.4968327559
0.4981697128
0.6617939355
1.030419997
1.211279405
1.196372268
1.205794229
1.214941882
1.221174996
1.218149443
1.215850647
1.219020933
1.235948488
1.238209822
1.23249046
1.231606549
1.231580795
1.230703594
1.231224777
1.233872697
1.236854446
1.237656853
1.237695791
1.237371466
1.23835648
0.4890425023
0.4922331738
0.4948799183
0.494645013
0.4950533912
0.4965601315
0.498641553
0.4994216716
0.4984944503
0.49909166
0.5059589186
0.9517658035
1.181594544
1.208869056
1.1981282
1.216552346
1.223175317
1.217640407
1.214018104
1.217279513
1.235768796
1.237712448
1.231625003
1.231556114
1.231681242
1.231039955
1.231821376
1.234539376
1.237167052
1.238958502
1.240153108
1.241031445
1.242580216
0.4900918139
0.4930835462
0.4964633262
0.4976951323
0.4983813012
0.4998190843
0.502231642
0.5041531265
0.5038551228
0.5028082977
0.5027712322
0.7429786328
1.06382974
1.21210801
1.190508462
1.216474275
1.222869613
1.21738291
1.213295858
1.216411483
1.235543368
1.236534837
1.230498704
1.23157747
1.232288912
1.232124302
1.233425127
1.236022661
1.238441646
1.24129853
1.243359624
1.244393896
1.245503397
0.4934379822
0.4943135836
0.4972910015
0.4990843872
0.4998093616
0.5011668321
0.5036659348
0.5059448311
0.5071400768
0.5076632808
0.5063901385
0.526269207
0.9564941435
1.205497626
1.187336695
1.215610207
1.219636133
1.221443166
1.21686466
1.217406695
1.234820393
1.233868933
1.229711073
1.232097971
1.233780602
1.234219979
1.236177978
1.238542356
1.240864843
1.243901547
1.245838506
1.246408049
1.247306417
0.5001121199
0.4980241407
0.4987977321
0.5003473576
0.5006775772
0.5018311386
0.5042226461
0.5063392122
0.5081853546
0.5094941508
0.5103806195
0.5093864129
0.8159951808
1.12643765
1.202767668
1.211126616
1.216481256
1.231800015
1.221407038
1.218107939
1.234120812
1.230955964
1.229661538
1.233769079
1.236071911
1.236901738
1.238908801
1.240884356
1.243144893
1.245346198
1.246937566
1.247502813
1.248347648
0.503995337
0.5038791557
0.5025007713
0.5026311931
0.5025827535
0.5033077099
0.5052881154
0.5071181858
0.5087048867
0.5100092627
0.5114347
0.5123301783
0.5661447946
0.9806861943
1.207476687
1.191341486
1.214443165
1.238620019
1.222150467
1.215848796
1.234107028
1.229862566
1.230568632
1.236055936
1.238472405
1.238801636
1.240228664
1.242193335
1.243685629
1.245255371
1.246765222
1.247493879
1.248593549
0.5056109637
0.5068601555
0.5074497848
0.5079185119
0.5069767429
0.5069716503
0.5086466227
0.5096752037
0.5104351848
0.5110262062
0.5117946389
0.5138225298
0.5147806826
0.8638143946
1.188592116
1.174647887
1.214693183
1.239211211
1.215430467
1.211557239
1.234861826
1.229827274
1.231176429
1.237968677
1.240398125
1.239398253
1.240567748
1.242403127
1.243527912
1.244819559
1.246057947
1.246871149
1.247717482
0.5081844199
0.5098112516
0.5115100362
0.5119070142
0.5111783043
0.5128285657
0.5148134644
0.5157684254
0.5146715253
0.5139294293
0.5146573595
0.516508355
0.6267935074
1.039432898
1.187647075
1.221650317
1.229068619
1.205996037
1.211036618
1.23943867
1.230619619
1.232240501
1.239832411
1.241444757
1.239211783
1.24037257
1.24217359
1.242916111
1.243434343
1.244368997
1.245976103
1.248714919
0.5102634248
0.511380833
0.5130739826
0.5144140697
0.5138549943
0.5152811234
0.5182621005
0.5200830456
0.5199087652
0.5194138511
0.5188762872
0.5175996719
0.5212932125
0.8862989999
1.197167977
1.219381313
1.212528168
1.203213463
1.212050631
1.247390047
1.232528312
1.233593491
1.241722535
1.241507514
1.238446483
1.239482682
1.241059732
1.24143487
1.241924788
1.243728795
1.246701706
1.250959904
0.5146113955
0.5136332965
0.5149311812
0.5164281677
0.5152862329
0.5165305221
0.5201903162
0.5223730051
0.5227627883
0.5229647173
0.5234227762
0.5221129845
0.5212325272
0.7003115178
1.135453408
1.195605577
1.206720594
1.205076683
1.221650123
1.254161687
1.233026968
1.234032731
1.242447408
1.240986641
1.236640417
1.237882306
1.239204979
1.23994676
1.241227296
1.244126405
1.248415613
1.252578331
0.5206413844
0.5180037398
0.5179504901
0.5196428614
0.5188685229
0.5177041136
0.5212659325
0.5237960693
0.5244638558
0.5248366693
0.5254464403
0.5261032246
0.5227591111
0.5349712582
0.9370580547
1.165113004
1.215754308
1.220412046
1.232307345
1.258474619
1.232458449
1.233901046
1.242634304
1.239000229
1.235110995
1.236926757
1.237975574
1.238546817
1.239928005
1.24319497
1.248702366
1.253202674
0.5234092793
0.522008496
0.5224084095
0.5231607703
0.5234194928
0.5213943274
0.5238240686
0.5255767321
0.5256681288
0.5261973861
0.5266790197
0.5279867934
0.5276084272
0.5260829514
0.7577785766
1.151508655
1.230854462
1.229200372
1.236466572
1.259366705
1.228170345
1.233270896
1.241013072
1.23552033
1.233102789
1.235427622
1.237050102
1.237489842
1.23881077
1.241903866
1.247158003
1.25217622
0.5252644915
0.5237999732
0.5246386133
0.5255172155
0.5263096869
0.5242391646
0.5264577283
0.5286643901
0.5281140889
0.5281591796
0.5280775157
0.5290463672
0.5302072872
0.5277514059
0.5647107725
1.023767587
1.225018437
1.228263171
1.235416565
1.258994614
1.220347381
1.229439858
1.238158044
1.23220538
1.230441432
1.232864015
1.235240444
1.236191837
1.238135041
1.24146067
1.246047191
1.250392851
0.5280856214
0.5267865024
0.5263262983
0.5269010681
0.5282386091
0.5270999785
0.5282460062
0.531279136
0.5307100901
0.5310737708
0.5310317845
0.5306033746
0.5318119363
0.5321948993
0.530383768
0.7958006719
1.14632262
1.220012356
1.228989364
1.251339772
1.20892421
1.225569501
1.235134393
1.228037202
1.227487897
1.229812917
1.234109579
1.235596852
1.237332635
1.240371825
1.244028498
1.247847158
0.5318408751
0.5311036394
0.5295149693
0.5296941907
0.5302896953
0.5296580029
0.5302414726
0.533853822
0.5334838348
0.5337284687
0.5340818555
0.5336138898
0.533350542
0.5347680857
0.5329570424
0.6032862241
1.017294926
1.179776439
1.2097727
1.24663927
1.198877845
1.225730154
1.235444633
1.227015835
1.226374206
1.229602791
1.233550893
1.233958082
1.235087481
1.23773011
1.241510989
1.24638762
0.5358811991
0.5350205177
0.5334214633
0.5328863616
0.5336394637
0.5333250484
0.5314957257
0.5357801744
0.53607793
0.5363393825
0.5366781047
0.5366850432
0.5364458571
0.5367989225
0.5370831097
0.5372112428
0.8459125443
1.111254215
1.202005602
1.239099378
1.189639807
1.22552942
1.235730196
1.226565936
1.225608018
1.229474194
1.233954699
1.233916559
1.235060354
1.238093088
1.241852099
1.246511661
0.5462272798
0.5450746571
0.5433694469
0.5429757448
0.5437702339
0.5435967318
0.5415406209
0.5421712786
0.5437535846
0.5448084712
0.5453267327
0.5451358074
0.5444821392
0.5447677214
0.5447730117
0.5860041778
0.808114877
1.093662049
1.154471441
1.190011873
1.237189885
1.240617456
1.226675247
1.227942088
1.233235634
1.236075696
1.237379112
1.239888774
1.24267369
1.245894157
1.24947256
0.5601746772
0.5589914449
0.5580988829
0.5564580229
0.5557373025
0.5568530621
0.558506179
0.5582150129
0.5567614114
0.556086344
0.5563270697
0.5562126497
0.5556774206
0.5557671648
0.5562875746
0.5559992956
0.5653809988
0.6702000321
0.9068313026
1.119195199
1.214434759
1.229283344
1.224025754
1.236934004
1.243922298
1.243815844
1.247644552
1.251554241
1.252347256
1.252599032
1.253709993
0.5771695962
0.5739169831
0.5729955564
0.5721993985
0.570455309
0.5692542977
0.5695964082
0.5701771824
0.5699438037
0.5692385359
0.5686925129
0.568399664
0.5675488922
0.5672321462
0.5675181039
0.5671640288
0.5656232409
0.5666669144
0.6039171719
0.758898197
0.9861105137
1.148091667
1.196009582
1.246096526
1.24881177
1.253350254
1.262957329
1.262932473
1.259259086
1.255472709
1.254808414
0.5962000634
0.5911913369
0.5895214103
0.5891367727
0.5875951715
0.587239031
0.5873477406
0.5865498446
0.5846240422
0.582687547
0.5824067614
0.582323422
0.5815926348
0.5807608596
0.5804724721
0.5795233275
0.577011576
0.575439505
0.5759201626
0.5839686686
0.6467867564
0.8378945662
1.05644378
1.222661693
1.239447329
1.253556309
1.272681949
1.271215681
1.266144494
1.262292574
1.26143325
0.6157300008
0.6100726366
0.6086686462
0.6083063505
0.6060603885
0.6045350068
0.6045211155
0.6035810468
0.6005618342
0.5976279255
0.5972404166
0.5971235926
0.5964227543
0.59528185
0.5946452228
0.5931533568
0.5899547607
0.587999231
0.5878446351
0.5884844689
0.5892920662
0.6044881488
0.7122702867
0.9125598945
1.089103089
1.209062901
1.271753963
1.259534562
1.266466688
1.267847919
1.269133168
0.6347457032
0.6278022583
0.6269449004
0.6265944361
0.6245597425
0.6218314078
0.6210420303
0.6192111397
0.6147551175
0.6113183009
0.6112299512
0.6111003314
0.6100356647
0.6080089916
0.6072394858
0.6058488336
0.603066225
0.6015515457
0.6016723107
0.6018959334
0.600884003
0.5989001228
0.600882734
0.628840973
0.7739211277
0.9725468138
1.161921452
1.213757486
1.274944551
1.275055709
1.277843178
0.6531879078
0.6458166834
0.644710823
0.644501365
0.6428570527
0.6393888611
0.637653939
0.6350627555
0.629959757
0.6271170105
0.6273804963
0.6272938236
0.6259346492
0.6229126579
0.6205965468
0.6186262541
0.6154181856
0.6135933105
0.6139288409
0.6147420503
0.6143786986
0.6117659816
0.6088950548
0.6085358655
0.6138886189
0.6661074633
0.8247294539
1.061700349
1.233985951
1.254011678
1.268607025
0.6716835914
0.6635531488
0.6633695916
0.6633102863
0.6613946494
0.6571408451
0.654678721
0.6519021599
0.6465500094
0.6439424008
0.6443646138
0.6442667795
0.6424565159
0.6386129693
0.6354374956
0.6331488083
0.629898378
0.6268760174
0.6268732665
0.6272603022
0.6266240833
0.6244270713
0.6217227632
0.6193795193
0.6166280687
0.6170421846
0.6297024557
0.7270278166
0.9196777965
1.104593361
1.202463407
0.6934503791
0.6838718628
0.6838430572
0.6832189046
0.6799380747
0.6735984108
0.67030937
0.6678478935
0.6629324058
0.6596348742
0.6600552404
0.6598605445
0.6572768889
0.6519249762
0.6482007306
0.6463701936
0.6440243231
0.6404034151
0.6401506715
0.6406204866
0.6399145508
0.6371648072
0.6345002417
0.6323189812
0.630863251
0.627144473
0.6272611534
0.6303820733
0.6600184924
0.8003275151
0.9938569118
0.7151095248
0.7045914022
0.7038371164
0.7026808417
0.6986929849
0.6909900539
0.6865534429
0.6845290072
0.6807668221
0.6764775454
0.6766276004
0.6762414749
0.6731867899
0.6672523596
0.6634152482
0.6616514747
0.6595207654
0.6550353426
0.6540999248
0.654178322
0.6532389923
0.6499874971
0.6465074106
0.644717892
0.6432449574
0.6405240028
0.6384176506
0.6373921034
0.637615643
0.6435533483
0.6965288244
0.736806977
0.7258892558
0.7227325782
0.7203733764
0.7154364854
0.7063025941
0.7023713011
0.7011328016
0.6983963504
0.6929143795
0.6923559457
0.6915112732
0.6880041736
0.6817085848
0.6780871673
0.6763393058
0.6741674277
0.6687299425
0.6670277022
0.6667607398
0.6654823404
0.6620052346
0.658652265
0.6570932603
0.6558366477
0.6536628158
0.6512517621
0.6499214942
0.6474628562
0.6438881998
0.6448745127
0.7591316338
0.7492839718
0.7439541922
0.7407461915
0.735205743
0.7248442318
0.7213449839
0.7199194629
0.7172468117
0.710910632
0.7091411951
0.7076384441
0.7038384868
0.6970696879
0.6933229178
0.6914355146
0.6891022584
0.6829423233
0.6803230636
0.6795589028
0.6779173733
0.6740813202
0.6701033589
0.6687972516
0.667748343
0.6653093992
0.6625167808
0.6615309744
0.6600765729
0.657195112
0.6541304738
0.7813963074
0.7715950707
0.7655098967
0.761490963
0.755274457
0.74354608
0.739086144
0.73714332
0.7340034993
0.7268284572
0.7240340654
0.7222695439
0.7187242754
0.7118974566
0.7081785408
0.7063125854
0.7039764578
0.6981411688
0.694129136
0.6928445205
0.691134306
0.6878390309
0.6840373316
0.6823723724
0.6807895342
0.6778501849
0.67466361
0.6728262685
0.6712230265
0.6689225936
0.666072835
0.8016660617
0.7910948701
0.7844057663
0.7803194239
0.7744060416
0.7624626087
0.7566133368
0.7541313228
0.7506008289
0.7425257774
0.7385333058
0.7364578016
0.7331334786
0.7259881702
0.7219617589
0.7201587509
0.7178698844
0.7125367193
0.7075755632
0.705827341
0.7040685401
0.7007582598
0.6971780118
0.6953475216
0.6934113206
0.6898534348
0.6859139882
0.6839439875
0.68267011
0.6800947516
0.6778231666
0.8232277337
0.811540187
0.8042586192
0.8002740374
0.7946254302
0.7826576845
0.7754578562
0.7722974554
0.7685639496
0.7605455806
0.7558168818
0.7532611415
0.7497279341
0.7425427639
0.7377133947
0.7354261194
0.7328018291
0.7274552152
0.7222913269
0.7200057967
0.7179280014
0.7143935216
0.7102705285
0.708099305
0.7058254827
0.7011279316
0.6960849019
0.6949208837
0.694004077
0.6920189842
0.6891252257
0.8475403689
0.8355441508
0.8276932038
0.822964335
0.8167625717
0.8042683454
0.7957021404
0.7915690317
0.7872265962
0.7786982372
0.7731980735
0.7700420999
0.7661296757
0.7585783525
0.7529963156
0.7500857184
0.7470740437
0.7413285863
0.7358243655
0.7335515887
0.7314144092
0.7277768521
0.7233776667
0.7210243366
0.7186543545
0.7141156868
0.7084189173
0.7065672751
0.7052577416
0.7032704405
0.6997959449
0.8692754369
0.8555085396
0.8463285402
0.8416119067
0.8357131954
0.8232073111
0.8137910418
0.8093949019
0.8050857517
0.7965697714
0.7900864063
0.7864044299
0.7822252926
0.7741571417
0.7675515565
0.7641516088
0.7609268966
0.7549557896
0.7490254671
0.7467804746
0.7446157279
0.740870618
0.7360629349
0.7334434036
0.7309820634
0.7267914886
0.7209856537
0.7187586842
0.7172431429
0.7150748208
0.7117220238
0.8936108048
0.8790372835
0.8688738253
0.8634185053
0.8566983275
0.8430305959
0.8323970384
0.8276533452
0.8231913333
0.8146665429
0.8078143408
0.8039119332
0.7995739178
0.7912759956
0.7838227038
0.779848328
0.7762932047
0.7700021117
0.7638185782
0.7614768474
0.7591828338
0.7554809663
0.7506384969
0.7475984542
0.7446946808
0.7403394405
0.7343661211
0.7309557017
0.7285504454
0.7256459337
0.7215826493
0.9201499792
0.9048066017
0.8929848132
0.8861867134
0.8787402371
0.8646950425
0.8529574167
0.8474272565
0.8426280096
0.8338625362
0.8264120222
0.8219640602
0.8172264243
0.8089113746
0.8008178262
0.7959765544
0.7917285545
0.7844970303
0.7775912167
0.7749404059
0.7723629609
0.7682698723
0.7631408601
0.7600783468
0.7572569626
0.7531600967
0.747324354
0.7434547684
0.740667932
0.737516623
0.733153241
0.9414582678
0.9255035157
0.9129126037
0.9061191256
0.898570261
0.8840274376
0.8716759115
0.8660334009
0.8611554057
0.8522477627
0.8444082941
0.8395819682
0.8346371269
0.8262875529
0.8177349528
0.8121787368
0.8073566089
0.7994140237
0.7914489855
0.7882954604
0.7854245835
0.7808973124
0.7751486018
0.7722136367
0.7696004065
0.7656628846
0.7597319622
0.7557745531
0.7528516215
0.7497093233
0.7453378369
0.9693689966
0.9531768489
0.9394932175
0.9309311413
0.9217822665
0.9056700716
0.8912687125
0.8845866916
0.8791119573
0.8692631531
0.8605221509
0.8554218454
0.8502531814
0.8417703824
0.8330122287
0.8274875853
0.8226671875
0.8147227923
0.806083958
0.8025605437
0.7995259943
0.7948356486
0.788682389
0.7855945707
0.7828710974
0.778816188
0.772706738
0.7684201404
0.7652295802
0.7618498869
0.7572208312
0.9920634506
0.9750634418
0.9606108207
0.9522774474
0.9435841763
0.928163656
0.9136548747
0.9063932934
0.9002521267
0.8897081437
0.8800694064
0.8741135338
0.8683444002
0.8595763149
0.8506962442
0.8449400286
0.8397077067
0.8314525605
0.8222714173
0.8180144437
0.8144665573
0.8093268255
0.8027036012
0.7992578403
0.7962147572
0.7918024123
0.7852845628
0.7806507166
0.7771658193
0.7735608954
0.7687410881
1.018942087
1.000805202
0.9859404685
0.9772072328
0.9676632118
0.9512308175
0.9354435911
0.926865823
0.9197700749
0.9083151752
0.8978141499
0.8913589582
0.885311989
0.8762872314
0.8672708386
0.8614131
0.8560577497
0.8477145475
0.8381695038
0.8332011435
0.8291461427
0.8236061561
0.816489448
0.8126389573
0.8093069142
0.8045494356
0.7974841763
0.7924457592
0.7887279667
0.7848807207
0.77962857
1.044950146
1.025495861
1.009058682
0.9991530785
0.9890269099
0.9728506039
0.9568730569
0.9478887131
0.9402340849
0.9277557683
0.9160840426
0.9088239285
0.9021046835
0.892136309
0.8824944712
0.8767017584
0.8713163487
0.8628446227
0.8528247868
0.8474992492
0.8432126394
0.8374739659
0.829902608
0.8259027535
0.8225351356
0.8177179058
0.8103460057
0.8051567997
0.8014084992
0.7975718572
0.792152251
1.072216071
1.050912542
1.033310102
1.023363515
1.013182485
0.9968518907
0.980949919
0.9711305859
0.9623972746
0.9490628291
0.9362246062
0.9280212874
0.92077384
0.9104304813
0.9002491797
0.8939637995
0.8881116411
0.8792618748
0.8688759213
0.8632090913
0.8586381662
0.8528364277
0.8451252157
0.8407734728
0.8370307688
0.8319002202
0.824152681
0.8184853398
0.8143408057
0.810102022
0.8043092579
1.099607308
1.076893888
1.057485297
1.045880714
1.034459297
1.016703898
0.9996700324
0.9897860175
0.9811895048
0.9679190245
0.9550339749
0.946816513
0.939408879
0.9286707655
0.9181086921
0.911377603
0.9050349863
0.895613765
0.884721203
0.8786149139
0.8737246692
0.8677433557
0.8599918771
0.8554076607
0.8513984988
0.8460891824
0.8380841567
0.83191108
0.8273673079
0.8227669957
0.8164620785
1.127338272
1.103525602
1.082960024
1.070685417
1.058622235
1.040016529
1.022591956
1.012548378
1.00339101
0.9891613187
0.9751658158
0.9659503235
0.957828427
0.9464546794
0.9349832305
0.9275276116
0.9206252946
0.9104427488
0.8987296115
0.8923138767
0.8872626726
0.8809607139
0.8727519451
0.8681849243
0.8642458479
0.8589211794
0.8507987044
0.8445835193
0.8399775814
0.8353369776
0.8288721842
1.154927454
1.130407849
1.108774673
1.095349144
1.082309733
1.062452959
1.043552361
1.032338912
1.022422389
1.007662949
0.9934225396
0.9845897501
0.976891188
0.9659563768
0.9545855331
0.9467430894
0.9392174938
0.9283216787
0.915848102
0.9089081283
0.9034532328
0.896790809
0.8881937584
0.8833001879
0.8789835048
0.8732910574
0.8647844953
0.8583106203
0.8534804067
0.8486732108
0.8419427176
1.181263149
1.156362473
1.134532796
1.12091468
1.107431206
1.086636067
1.066636357
1.054885684
1.044444328
1.028618649
1.013774288
1.004473525
0.9961390602
0.9845280228
0.9727078682
0.9643619097
0.9564214
0.9452360062
0.932484084
0.9251479218
0.919349096
0.912278683
0.9033640301
0.8981586866
0.8935230795
0.8875771598
0.8788625719
0.8720870507
0.8669690779
0.8618699992
0.8548069837
1.209922424
1.184001047
1.161657015
1.147334888
1.133083402
1.111574969
)
;

boundaryField
{
    inlet
    {
        type            calculated;
        value           nonuniform 0();
    }
    outlet
    {
        type            calculated;
        value           nonuniform 0();
    }
    bottom
    {
        type            calculated;
        value           nonuniform 0();
    }
    top
    {
        type            calculated;
        value           nonuniform 0();
    }
    obstacle
    {
        type            calculated;
        value           nonuniform 0();
    }
    defaultFaces
    {
        type            empty;
    }
    procBoundary28to21
    {
        type            processor;
        value           nonuniform List<scalar> 
19
(
0.4179666626
0.4239870457
0.4271802778
0.4283775999
0.4291109706
0.4308627635
0.4352547741
0.4352547741
0.4387023316
0.444256288
0.4466362528
0.4473190991
0.4478960423
0.4499610606
0.4553311477
0.4601315481
0.4601315481
0.4643751332
0.466115214
)
;
    }
    procBoundary28to22
    {
        type            processor;
        value           nonuniform List<scalar> 
35
(
1.149725817
1.164472458
1.173424676
1.162575389
1.16325603
1.172162256
1.17535148
1.170753304
1.172641396
1.177828566
1.177857625
1.178459294
1.18307111
1.188602844
1.191560047
1.191614314
1.189008002
1.185052119
1.184922242
1.186897924
1.190473172
1.193178952
1.194654577
1.195983845
1.196893618
1.196766626
1.196519441
0.4194852853
0.4227848529
0.8782879998
1.146775365
1.110517729
1.156854161
1.176339377
1.176339377
)
;
    }
    procBoundary28to23
    {
        type            processor;
        value           nonuniform List<scalar> 2(1.20212947 1.208996753);
    }
    procBoundary28to27
    {
        type            processor;