/*--------------------------------*- C++ -*----------------------------------*\
  =========                 |
  \\      /  F ield         | OpenFOAM: The Open Source CFD Toolbox
   \\    /   O peration     | Website:  https://openfoam.org
    \\  /    A nd           | Version:  7
     \\/     M anipulation  |
\*---------------------------------------------------------------------------*/
FoamFile
{
    version     2.0;
    format      ascii;
    class       volVectorField;
    location    "2.1";
    object      U;
}
// * * * * * * * * * * * * * * * * * * * * * * * * * * * * * * * * * * * * * //

dimensions      [0 1 -1 0 0 0 0];

internalField   nonuniform List<vector> 8((2.965752394 0.0785743214 0) (2.980043829 0.04207340918 0) (2.993943135 0.03392668548 0) (2.993031119 0.03664610662 0) (2.998267846 0.008361088208 0) (2.995991063 0.03548763103 0) (2.99949653 0.0007737191212 0) (2.99461542 0.007676679958 0));

boundaryField
{
    inlet
    {
        type            fixedValue;
        value           nonuniform 0();
    }
    outlet
    {
        type            inletOutlet;
        inletValue      nonuniform 0();
        value           nonuniform 0();
    }
    bottom
    {
        type            slip;
    }
    top
    {
        type            slip;
    }
    obstacle
    {
        type            slip;
    }
    defaultFaces
    {
        type            empty;
    }
    procBoundary33to26
    {
        type            processor;
        value           uniform (2.966723247 0.07474737751 0);
    }
    procBoundary33to27
    {
        type            processor;
        value           nonuniform List<vector> 2((2.960605606 0.01294147605 0) (3.010347026 -0.1127454106 0));
    }
    procBoundary33to32
    {
        type            processor;
        value           nonuniform List<vector> 3((2.998204387 0.003813749299 0) (2.99998852 2.854899909e-05 0) (2.999999975 6.076466776e-08 0));
    }
    procBoundary33to34
    {
        type            processor;
        value           nonuniform List<vector> 4((2.994369322 0.004097741055 0) (2.996919948 0.01691324597 0) (2.989234895 0.02773921297 0) (2.987026147 0.01662786032 0));
    }
}


// ************************************************************************* //
