/*--------------------------------*- C++ -*----------------------------------*\
  =========                 |
  \\      /  F ield         | OpenFOAM: The Open Source CFD Toolbox
   \\    /   O peration     | Website:  https://openfoam.org
    \\  /    A nd           | Version:  7
     \\/     M anipulation  |
\*---------------------------------------------------------------------------*/
FoamFile
{
    version     2.0;
    format      ascii;
    class       volScalarField;
    location    "4.1";
    object      T;
}
// * * * * * * * * * * * * * * * * * * * * * * * * * * * * * * * * * * * * * //

dimensions      [0 0 0 1 0 0 0];

internalField   nonuniform List<scalar> 
555
(
0.8977389404
0.886449081
0.8806741886
0.8778929015
0.8748176414
0.9936240869
0.978828273
0.9662591979
0.9543840572
0.9412805084
0.9310740839
0.9236841295
0.9137087075
0.9008641096
0.8945545125
0.8896811851
0.8799887759
0.8729639021
0.8721788563
0.8730490976
0.875174004
0.9742507427
0.9609392895
0.9482483262
0.9347325135
0.9214607317
0.9150758783
0.9089405866
0.8975049314
0.8903380268
0.8853520921
0.8770472962
0.8708792222
0.8695987893
0.8706922813
0.8764143391
0.8999631872
0.9529589385
0.9426076112
0.9313123277
0.9175188448
0.908410729
0.9012050679
0.8895694993
0.8799022336
0.8760912907
0.8710554414
0.8660936476
0.8668383434
0.8715825286
0.8885320465
0.9165427989
0.9543162735
0.9332740498
0.9228870814
0.9083187791
0.8988087507
0.8953992804
0.8871234475
0.8753043653
0.8706634857
0.8678583904
0.8643418942
0.8651011302
0.8735032545
0.9027290717
0.9410923448
0.9761578478
0.9855892763
0.917755428
0.9052002699
0.8896535471
0.8830409296
0.8770049331
0.8654726712
0.8615924497
0.8622725712
0.8634130625
0.8667413043
0.8858532585
0.919554558
0.9572799965
0.9824143885
1.003779846
1.004552452
0.8964115704
0.8827373424
0.8771732197
0.8732156359
0.8646576697
0.8588482618
0.8590084242
0.8611525754
0.8727137299
0.8994267894
0.9436352451
0.9827708168
0.9977847273
1.001364212
1.006430594
1.007882407
0.8757394615
0.8637417953
0.8620885427
0.8587788119
0.8552839677
0.8563481721
0.8633578758
0.8873097235
0.923946764
0.9650361329
0.9812128547
0.9955847416
1.003645203
1.003025417
1.004617031
1.006825158
0.8622310493
0.8576674226
0.8557065801
0.8534283316
0.8550203507
0.8716154938
0.9047986196
0.9486229932
0.9811711172
1.002649123
1.004474933
1.003751495
1.00453887
1.003703898
1.003998495
1.005559125
0.8487960725
0.8509511926
0.8531059173
0.8615902878
0.8860422704
0.9339424758
0.9754551211
0.9914850463
0.9963634535
1.005657355
1.008055371
1.007634431
1.007154327
1.006292832
1.006108254
1.006599883
0.8470501875
0.8513387264
0.8725999352
0.9126351658
0.9593211232
0.977925046
0.9941561993
1.003182067
1.002835084
1.004945901
1.007388989
1.008360198
1.008267482
1.008284602
1.008481795
1.008785307
0.86004251
0.8914161126
0.939071588
0.9757986706
1.003497296
1.004807837
1.006781002
1.008823876
1.009404198
1.008769511
1.009040808
1.009008848
1.009111598
1.009443823
1.00983496
1.010157032
0.9213562139
0.970083931
0.9917234605
0.9994525472
1.008505621
1.011058126
1.011017679
1.011181006
1.011397945
1.010984099
1.010522441
1.010457608
1.010478359
1.010638881
1.010948043
1.01132929
0.9804988592
1.003990669
1.010081059
1.010178386
1.011538777
1.01259495
1.012377431
1.01183541
1.011805421
1.011956234
1.012075542
1.012235452
1.012171577
1.012023252
1.012030157
1.012126287
1.00546126
1.011185664
1.015115608
1.013785202
1.012520877
1.012398014
1.012394211
1.01243537
1.012522367
1.012776512
1.013011287
1.013239387
1.013473858
1.01339479
1.013352858
1.013392179
1.01131763
1.01086339
1.01264375
1.013485717
1.013400256
1.013228214
1.013183318
1.013225764
1.013426183
1.013646858
1.013816254
1.013938534
1.013975489
1.014044023
1.014200853
1.014363885
1.011449826
1.011157086
1.012799198
1.013801769
1.013647777
1.013254685
1.013140703
1.013174446
1.013392878
1.013556177
1.013689268
1.013823656
1.014237011
1.014687247
1.015192206
1.015384576
1.011550452
1.011327182
1.012777289
1.014108426
1.013962573
1.013516516
1.013276063
1.013287889
1.01353619
1.013671959
1.013786633
1.013880434
1.014197072
1.014742866
1.015421948
1.015681805
1.011132515
1.010820434
1.01213893
1.013832251
1.013626266
1.013179123
1.013050742
1.01315059
1.013467846
1.013627016
1.013747785
1.013905221
1.014049504
1.014140772
1.014722054
1.015330075
1.010390021
1.009937191
1.011245405
1.01250016
1.012262932
1.012104469
1.0121605
1.012475725
1.012928802
1.013206095
1.013333596
1.013501937
1.013520942
1.013375631
1.013503579
1.013881967
1.009180122
1.008708174
1.010077106
1.010833166
1.01069182
1.010755031
1.010955478
1.011453406
1.012053462
1.012499147
1.012724496
1.012773934
1.012627163
1.012429916
1.012273738
1.012343609
1.007928909
1.007455335
1.008869781
1.009485302
1.009403159
1.009577163
1.009827526
1.01030923
1.010847893
1.011393295
1.011859065
1.011871492
1.011702608
1.011355454
1.01109842
1.01112533
1.006654725
1.006273233
1.007709192
1.008239295
1.008176995
1.008404165
1.008691267
1.009146506
1.009535455
1.009986924
1.010589772
1.010859391
1.010689676
1.010453956
1.010537259
1.010403168
1.005807002
1.005583055
1.006970994
1.007407975
1.007225618
1.007358308
1.00760444
1.008029014
1.008340658
1.008668241
1.009076576
1.00969517
1.01004867
1.010322531
1.010519666
1.010341581
1.006295394
1.005435079
1.005365617
1.006656865
1.006979344
1.00658439
1.006409601
1.006612112
1.00698202
1.007254759
1.007492706
1.007808757
1.008430445
1.009092181
1.009704
1.010247522
1.010393227
1.005834399
1.004944747
1.004971804
1.006104086
1.006405086
1.00604812
1.005685407
1.005752462
1.006010512
1.006185006
1.006382223
1.00673047
1.007219315
1.008080223
1.008868296
1.009608394
1.009744954
1.005185217
1.004373906
1.004386434
1.005347276
1.005533365
1.005214661
1.004990524
1.005010101
1.005250669
1.005447337
1.005514537
1.005636538
1.006101602
1.006746886
1.007695291
1.008430321
1.008722172
1.004020297
1.003289468
1.003247862
1.004091059
1.004372917
1.004190011
1.004088975
1.004331674
1.004742359
1.005180487
1.005357843
1.005102634
1.004910406
1.005423802
1.00594117
1.006612344
1.00714319
1.002624119
1.001937311
1.001880079
1.002601154
1.002749403
1.00276549
1.002910979
1.003379082
1.003829202
1.004304619
1.00474795
1.004744659
1.004050946
1.003840998
1.004082054
1.004413453
1.004866754
1.001011834
1.000297214
1.000255566
1.000922833
1.000988965
1.000996673
1.001365749
1.001845715
1.0022017
1.002641285
1.003143411
1.003316531
1.003092245
1.00229009
1.001943145
1.002068939
0.9995205554
0.9987580001
0.9984488399
0.9989976911
0.9989091984
0.9988530154
0.9991698227
0.9995921358
0.9998682973
1.000257318
1.000880129
1.001203118
1.00110626
1.000776071
0.9999362688
0.9997623586
0.9976173772
0.996938165
0.9967428625
0.9971355078
0.9967903557
0.9963682697
0.9965830886
0.9968152359
0.997009994
0.9972296417
0.9977473766
0.9983527529
0.9985631798
0.9985411787
0.9982445506
0.9976040953
0.9921469003
0.9949613083
0.9943926898
0.994377993
0.9948062428
0.9946086069
0.9938583671
0.9938475837
0.994026357
0.9941668464
0.9942981184
0.9946126686
0.9952016158
0.9957187129
0.9960591528
0.9962209747
0.9960302891
0.9892008501
0.9920093573
0.9915678122
0.9917158373
0.9921200919
0.9919653086
0.9915734926
0.9911902532
0.9912884219
0.9913956332
0.9915487267
0.9919081144
0.9924323124
0.9931228505
0.9937690812
0.9940353148
0.9942607204
0.9864438232
0.9890504096
0.9886516465
0.9888025572
0.989268445
0.9894319021
0.9893376242
0.9892385742
0.9891664457
0.9891515409
0.9892063845
0.9895124565
0.9901608964
0.9907248873
0.9913086853
)
;

boundaryField
{
    inlet
    {
        type            fixedValue;
        value           nonuniform 0();
    }
    outlet
    {
        type            inletOutlet;
        inletValue      nonuniform 0();
        value           nonuniform 0();
    }
    bottom
    {
        type            slip;
    }
    top
    {
        type            slip;
    }
    obstacle
    {
        type            zeroGradient;
    }
    defaultFaces
    {
        type            empty;
    }
    procBoundary10to4
    {
        type            processor;
        value           nonuniform List<scalar> 
17
(
0.9096557454
0.9009845303
0.8909100427
0.8849530184
0.8801770035
1.012952402
0.9971897027
0.983731834
0.9716235164
0.9589130116
0.9456746606
0.9361431084
0.9289438194
0.9180027934
0.9087275283
0.9043052361
0.9043052361
)
;
    }
    procBoundary10to5
    {
        type            processor;
        value           uniform 0.8743870648;
    }
    procBoundary10to9
    {
        type            processor;
        value           nonuniform List<scalar> 
27
(
1.010232828
0.9905194771
0.9684446767
0.9466267808
0.9258404199
0.9035557344
0.8889486116
0.8726610211
0.8510134777
0.846667256
0.8467621104
0.8737106917
0.9497333131
1.001998165
1.013122411
1.012658314
1.012760405
1.012197447
1.011303164
1.009957404
1.008629489
1.007382052
1.006616248
1.006616248
1.001344485
1.001270921
1.000827238
)
;
    }
    procBoundary10to11
    {
        type            processor;
        value           nonuniform List<scalar> 
34
(
0.885673026
0.9343086603
0.9890783165
0.9980639199
1.0049379
1.007651606
1.007574256
1.006911528
1.007327368
1.00906952
1.010458904
1.011578927
1.012316187
1.013447663
1.014388777
1.015314787
1.015690316
1.015674405
1.014318309
1.012500867
1.011189392
1.010481244
1.009861701
1.009993182
1.009692567
1.008765635
1.007343626
1.005151872
1.002224402
1.002224402
0.9998151161
0.9973842177
0.9952636026
0.9939199682
)
;
    }
    procBoundary10to15
    {
        type            processor;
        value           nonuniform List<scalar> 9(0.9998581954 0.9987951215 0.9975046962 0.9963199293 0.9946872619 0.9946872619 0.9928555295 0.9897070379 0.9868928228);
    }
    procBoundary10to16
    {
        type            processor;
        value           nonuniform List<scalar> 
18
(
0.9919656736
0.9924422183
0.984193622
0.9866465269
0.9862190932
0.9863622524
0.986870582
0.9871103589
0.9873560259
0.9877756024
0.9879866092
0.988153553
0.9881869068
0.9880437558
0.9882344639
0.9888020593
0.9919656736
0.9894242843
)
;
    }
}


// ************************************************************************* //
