/*--------------------------------*- C++ -*----------------------------------*\
  =========                 |
  \\      /  F ield         | OpenFOAM: The Open Source CFD Toolbox
   \\    /   O peration     | Website:  https://openfoam.org
    \\  /    A nd           | Version:  7
     \\/     M anipulation  |
\*---------------------------------------------------------------------------*/
FoamFile
{
    version     2.0;
    format      ascii;
    class       volVectorField;
    location    "0.9";
    object      U;
}
// * * * * * * * * * * * * * * * * * * * * * * * * * * * * * * * * * * * * * //

dimensions      [0 1 -1 0 0 0 0];

internalField   nonuniform List<vector> 
2222
(
(2.687311024 -0.5168567148 0)
(2.704236907 -0.4897061586 0)
(2.719244365 -0.4773371467 0)
(2.753464507 -0.4302600865 0)
(2.77484759 -0.3857046226 0)
(2.783426907 -0.3764757111 0)
(2.803623376 -0.349819479 0)
(2.835257932 -0.2899898974 0)
(2.848680425 -0.2586351874 0)
(2.855525034 -0.2636419484 0)
(2.871096029 -0.2404163574 0)
(2.891557387 -0.1815538477 0)
(2.896068784 -0.1581061945 0)
(2.900061069 -0.1628510821 0)
(2.917461305 -0.1374178316 0)
(2.932904034 -0.08880949078 0)
(2.937446601 -0.07583120695 0)
(3 -1.728376207e-15 0)
(3 -3.436362005e-11 0)
(2.999999988 -3.053571609e-08 0)
(2.99999724 -6.793586436e-06 0)
(2.999738365 -0.0006293285634 0)
(2.99012908 -0.02390062466 0)
(2.905618192 -0.2081050609 0)
(2.643356609 -0.5972614925 0)
(2.566887071 -0.7221481956 0)
(2.567563938 -0.6802331564 0)
(2.592037059 -0.65186098 0)
(2.59855867 -0.6503149998 0)
(2.59940398 -0.6601658525 0)
(2.584570526 -0.6739719138 0)
(2.572010252 -0.6736537884 0)
(2.57489857 -0.6588915492 0)
(2.588548203 -0.6358749798 0)
(2.612115142 -0.6057977177 0)
(2.634395245 -0.5865087977 0)
(2.665486395 -0.5551235117 0)
(2.701375476 -0.4995977293 0)
(2.719252327 -0.4724626486 0)
(2.735183143 -0.4587954288 0)
(2.77047635 -0.4093574157 0)
(2.791430688 -0.3634162056 0)
(2.799000254 -0.3550666457 0)
(2.816642795 -0.3300064774 0)
(2.847456012 -0.2704654056 0)
(2.860587559 -0.2386375688 0)
(2.866633463 -0.2438060458 0)
(2.881069391 -0.2211134931 0)
(2.901329325 -0.1626568034 0)
(2.906288807 -0.139205452 0)
(2.91050691 -0.141993268 0)
(2.928676416 -0.1132381816 0)
(2.941268113 -0.06747488507 0)
(2.945520028 -0.05875513228 0)
(3 5.330400181e-16 0)
(2.999999999 -1.471809572e-09 0)
(2.999999669 -8.598363986e-07 0)
(2.999957954 -0.000107095072 0)
(2.997379888 -0.006546491343 0)
(2.959764633 -0.09655651248 0)
(2.775488284 -0.417689571 0)
(2.592832899 -0.6879602992 0)
(2.556961693 -0.7109058316 0)
(2.543373876 -0.6819599852 0)
(2.569712864 -0.6596373908 0)
(2.578666712 -0.6535103038 0)
(2.586727451 -0.6565498419 0)
(2.584022229 -0.6644318359 0)
(2.579768435 -0.663839789 0)
(2.586061819 -0.6500583966 0)
(2.603593252 -0.6244269251 0)
(2.628600466 -0.5908419341 0)
(2.649310032 -0.5722796957 0)
(2.679436497 -0.540759407 0)
(2.716670595 -0.4822704623 0)
(2.735171094 -0.4526706624 0)
(2.751235832 -0.4372720556 0)
(2.786434611 -0.3865356592 0)
(2.807496017 -0.3393027827 0)
(2.814405085 -0.3323795743 0)
(2.829207317 -0.31025829 0)
(2.859237887 -0.2513476636 0)
(2.871936682 -0.2183963938 0)
(2.87755689 -0.2219974125 0)
(2.892425417 -0.1972421279 0)
(2.911818173 -0.1391807174 0)
(2.916810425 -0.1170871194 0)
(2.920412281 -0.121459943 0)
(2.93674797 -0.094256372 0)
(2.948718746 -0.04972589953 0)
(2.953301484 -0.04110690588 0)
(3 -1.554178477e-15 0)
(2.999999982 -4.577532363e-08 0)
(2.999992732 -1.828018375e-05 0)
(2.99943589 -0.001560014012 0)
(2.982732207 -0.04222582158 0)
(2.874860767 -0.2832048078 0)
(2.694082284 -0.5563372987 0)
(2.579687444 -0.7065363423 0)
(2.544589392 -0.7090732619 0)
(2.534145513 -0.691779259 0)
(2.550214692 -0.6724031534 0)
(2.56454133 -0.6575564433 0)
(2.574990257 -0.6582698308 0)
(2.582330069 -0.6604458204 0)
(2.590087826 -0.654576572 0)
(2.601191261 -0.6390852775 0)
(2.62169561 -0.6106993855 0)
(2.647411139 -0.574320749 0)
(2.666730586 -0.5559310484 0)
(2.696002157 -0.5234983357 0)
(2.73310394 -0.4622499471 0)
(2.750703478 -0.4314024954 0)
(2.764934406 -0.416815447 0)
(2.7992068 -0.3665282123 0)
(2.820653629 -0.318595735 0)
(2.827505612 -0.3117250285 0)
(2.841238624 -0.2899142661 0)
(2.870945317 -0.2304416229 0)
(2.883402229 -0.1954418706 0)
(2.888560948 -0.198783315 0)
(2.901695919 -0.1756641097 0)
(2.920178931 -0.1193825874 0)
(2.925530345 -0.09882292368 0)
(2.929397406 -0.1012034809 0)
(2.947203836 -0.06964860436 0)
(2.957159274 -0.02692822816 0)
(2.9612856 -0.02118476985 0)
(3 -8.610635835e-13 0)
(2.999999495 -1.300282667e-06 0)
(2.999884963 -0.0002878757619 0)
(2.994853641 -0.01552115405 0)
(2.918772403 -0.1784924113 0)
(2.778439307 -0.4524552249 0)
(2.625750169 -0.6460099896 0)
(2.578642739 -0.6998106725 0)
(2.543981639 -0.7023068139 0)
(2.533944467 -0.6918704875 0)
(2.543437314 -0.6777659973 0)
(2.559864423 -0.6627055944 0)
(2.569613131 -0.65778586 0)
(2.58220806 -0.6546916683 0)
(2.597686402 -0.6442624334 0)
(2.614337485 -0.6268206681 0)
(2.639656008 -0.5952436332 0)
(2.666611879 -0.5558342901 0)
(2.684695585 -0.537181631 0)
(2.713073704 -0.5036423117 0)
(2.749850732 -0.4399228642 0)
(2.766696479 -0.408084896 0)
(2.779034021 -0.3948277312 0)
(2.812723216 -0.3446779099 0)
(2.835263136 -0.293702484 0)
(2.842315733 -0.2858720255 0)
(2.853943262 -0.2662871088 0)
(2.881918781 -0.2085679149 0)
(2.893791951 -0.1736263508 0)
(2.898578819 -0.1765083542 0)
(2.911353046 -0.1526617428 0)
(2.929624569 -0.09638182753 0)
(2.935168915 -0.07607314447 0)
(2.938900176 -0.07926900248 0)
(2.954702473 -0.04956305271 0)
(2.963330545 -0.009565944519 0)
(2.967529544 -0.004375623109 0)
(3 -2.034243312e-10 0)
(2.999988659 -2.969367061e-05 0)
(2.99865927 -0.003754794104 0)
(2.968840636 -0.0817902631 0)
(2.781320178 -0.4266762879 0)
(2.674657589 -0.5788687939 0)
(2.608024654 -0.6599470466 0)
(2.580003919 -0.6901672837 0)
(2.550195354 -0.6943468712 0)
(2.541542968 -0.6901879785 0)
(2.544513798 -0.6804523777 0)
(2.55985242 -0.6671368501 0)
(2.570474944 -0.6578926908 0)
(2.585186948 -0.6503198085 0)
(2.604039994 -0.6359116727 0)
(2.624167638 -0.6164208726 0)
(2.654211016 -0.580510942 0)
(2.684220783 -0.5354991105 0)
(2.702310965 -0.5157167541 0)
(2.72900792 -0.4829842398 0)
(2.765313103 -0.4179340188 0)
(2.781507464 -0.3852543752 0)
(2.791992878 -0.3735047226 0)
(2.824515692 -0.3243013646 0)
(2.847087769 -0.2719489087 0)
(2.854103313 -0.2631255342 0)
(2.864961427 -0.2438034441 0)
(2.892750485 -0.1858414247 0)
(2.904799099 -0.1490802013 0)
(2.909459768 -0.1519667291 0)
(2.920546946 -0.1304246893 0)
(2.93744136 -0.07667529405 0)
(2.942782826 -0.05845892284 0)
(2.946795713 -0.05914866586 0)
(2.964149564 -0.02450678737 0)
(2.971376959 0.01443347336 0)
(2.975505257 0.01771365675 0)
(2.999999987 -3.00992376e-08 0)
(2.999795245 -0.0005403707289 0)
(2.991463504 -0.02833854573 0)
(2.859440697 -0.2869967244 0)
(2.668818876 -0.5695862629 0)
(2.610793313 -0.6263842046 0)
(2.595978228 -0.6687692326 0)
(2.579383886 -0.6850374637 0)
(2.561785073 -0.6920108374 0)
(2.554370444 -0.6888979399 0)
(2.554963083 -0.6827375905 0)
(2.563871248 -0.6695852457 0)
(2.575909271 -0.6580125637 0)
(2.593326537 -0.6450132209 0)
(2.615275766 -0.6247647619 0)
(2.637145056 -0.602683972 0)
(2.669770931 -0.5628588401 0)
(2.700426963 -0.5143757327 0)
(2.717871598 -0.4947363293 0)
(2.744383023 -0.4616404843 0)
(2.780910743 -0.3949142615 0)
(2.796293657 -0.3616495245 0)
(2.804875221 -0.3510711428 0)
(2.836837244 -0.3016886491 0)
(2.860742579 -0.2453388872 0)
(2.868428441 -0.2349678702 0)
(2.877204194 -0.2187241493 0)
(2.902942696 -0.1636526862 0)
(2.914290653 -0.1281791161 0)
(2.918359388 -0.1307028834 0)
(2.929751182 -0.1072630028 0)
(2.946698092 -0.05258983528 0)
(2.952339 -0.03398045979 0)
(2.956942629 -0.03361691878 0)
(2.97241544 7.762930242e-05 0)
(2.977379166 0.03355039687 0)
(2.981550263 0.03443076082 0)
(2.999998883 -2.706257543e-06 0)
(2.99762032 -0.006490988134 0)
(2.959071701 -0.1200409198 0)
(2.714852782 -0.5262855194 0)
(2.571782199 -0.6623045334 0)
(2.575160274 -0.6460432885 0)
(2.583410693 -0.6660823742 0)
(2.580886862 -0.6774339364 0)
(2.573511678 -0.6844622013 0)
(2.567423149 -0.6827357112 0)
(2.565675881 -0.679176576 0)
(2.570593567 -0.6700007621 0)
(2.583162918 -0.6572617073 0)
(2.602723947 -0.6384330083 0)
(2.626573715 -0.6127036276 0)
(2.649676201 -0.5886144654 0)
(2.684750008 -0.5452073961 0)
(2.717201086 -0.4917140281 0)
(2.734452496 -0.471553638 0)
(2.75889108 -0.4407991702 0)
(2.795686064 -0.3724589703 0)
(2.811146743 -0.3360415818 0)
(2.818602008 -0.3256295126 0)
(2.848845215 -0.2776250191 0)
(2.872217185 -0.2213753277 0)
(2.879833998 -0.2112502323 0)
(2.887576277 -0.1961843433 0)
(2.913567906 -0.1404620941 0)
(2.925279606 -0.1021997045 0)
(2.929619066 -0.1035022742 0)
(2.93999843 -0.08086567323 0)
(2.954459208 -0.02943397882 0)
(2.959795934 -0.01454789065 0)
(2.964375119 -0.01399111216 0)
(2.980286102 0.02303258933 0)
(2.98480077 0.05588271364 0)
(2.989107073 0.05638244111 0)
(2.999944927 -0.0001440585165 0)
(2.984809917 -0.04085075232 0)
(2.843562851 -0.335008202 0)
(2.615845716 -0.6642608424 0)
(2.549124623 -0.6582636692 0)
(2.550791973 -0.6483175029 0)
(2.571093306 -0.6606103605 0)
(2.580523992 -0.6738786255 0)
(2.579425218 -0.6798264344 0)
(2.576055804 -0.6817116918 0)
(2.573511225 -0.679766084 0)
(2.578953748 -0.6699682169 0)
(2.591884396 -0.6534080635 0)
(2.613942676 -0.627637774 0)
(2.640329931 -0.5958988154 0)
(2.664620085 -0.5699450451 0)
(2.701801136 -0.523247752 0)
(2.734440103 -0.4668003038 0)
(2.750923158 -0.4465452128 0)
(2.775469199 -0.4147568315 0)
(2.81182254 -0.3452958346 0)
(2.826012637 -0.3088235385 0)
(2.831286366 -0.3011168188 0)
(2.859821103 -0.2550061053 0)
(2.884748628 -0.1948179679 0)
(2.893467002 -0.1817207004 0)
(2.899843925 -0.1691014914 0)
(2.923709892 -0.1164850899 0)
(2.934357674 -0.0798605566 0)
(2.938225578 -0.08148479075 0)
(2.948119325 -0.05831928604 0)
(2.962189434 -0.00696633293 0)
(2.96797215 0.007321868573 0)
(2.974383656 0.0111213693 0)
(2.988936664 0.04849673371 0)
(2.991403362 0.0749335303 0)
(2.995379249 0.07273996502 0)
(2.998661165 -0.003960061891 0)
(2.927781283 -0.1705456093 0)
(2.728579535 -0.494419669 0)
(2.561851411 -0.7009274384 0)
(2.529973418 -0.6855958753 0)
(2.539436239 -0.6675977983 0)
(2.564949066 -0.6654445836 0)
(2.579168552 -0.6750427273 0)
(2.58090944 -0.6789588056 0)
(2.580521323 -0.6792151535 0)
(2.580071905 -0.6762401476 0)
(2.586081118 -0.6648931251 0)
(2.600222657 -0.6455701905 0)
(2.625363141 -0.6141387309 0)
(2.653464978 -0.5778663484 0)
(2.678048637 -0.5512920664 0)
(2.717023287 -0.5016319511 0)
(2.751007679 -0.4404099872 0)
(2.766835897 -0.4203358065 0)
(2.788622162 -0.392182989 0)
(2.825634548 -0.3212816177 0)
(2.840723074 -0.2806662608 0)
(2.84586941 -0.2728696122 0)
(2.872555073 -0.2285886436 0)
(2.8963193 -0.1693878196 0)
(2.904273493 -0.1573310799 0)
(2.90907456 -0.1472736907 0)
(2.933319577 -0.09411249088 0)
(2.944631346 -0.05388883211 0)
(2.949447298 -0.05290195168 0)
(2.959150814 -0.0287996979 0)
(2.9704458 0.01840918455 0)
(2.975957148 0.02853242865 0)
(2.983057369 0.0345111961 0)
(2.997508193 0.07484475028 0)
(2.999455908 0.09917704061 0)
(3.003639451 0.09634792681 0)
(2.985791672 -0.03510122783 0)
(2.796222384 -0.4073248904 0)
(2.609122378 -0.6359606087 0)
(2.552565391 -0.6917961226 0)
(2.54130851 -0.6851066222 0)
(2.5507312 -0.6742585358 0)
(2.570262691 -0.669797374 0)
(2.580156231 -0.6737376417 0)
(2.581407371 -0.6759356012 0)
(2.581787365 -0.6759300629 0)
(2.586054409 -0.6702389081 0)
(2.595648339 -0.6561410775 0)
(2.611310448 -0.6348476654 0)
(2.639016787 -0.5982078531 0)
(2.668427805 -0.5573196151 0)
(2.692989299 -0.5300147059 0)
(2.733251251 -0.4775969682 0)
(2.766967839 -0.413931158 0)
(2.782220382 -0.3939269194 0)
(2.804723868 -0.3638030513 0)
(2.841590322 -0.2914598227 0)
(2.855506218 -0.2514279339 0)
(2.858801802 -0.2474087671 0)
(2.883000883 -0.2068812409 0)
(2.90820924 -0.1441420711 0)
(2.916997178 -0.127507735 0)
(2.922160202 -0.1165208811 0)
(2.944279679 -0.06548438872 0)
(2.954125282 -0.02859106435 0)
(2.958472532 -0.02977512284 0)
(2.96701727 -0.006888445248 0)
(2.977229382 0.0376488061 0)
(2.983264164 0.0464140657 0)
(2.991708783 0.05525828819 0)
(3.003906347 0.096007019 0)
(3.00513085 0.1149264614 0)
(3.008706573 0.1112081506 0)
(2.878433526 -0.239602343 0)
(2.671130987 -0.5531186125 0)
(2.582985133 -0.6604059207 0)
(2.554654684 -0.6853337177 0)
(2.549607389 -0.6834678679 0)
(2.555841568 -0.6794960949 0)
(2.571265752 -0.676512153 0)
(2.580803322 -0.676194745 0)
(2.582403073 -0.6757023094 0)
(2.585589451 -0.6731001215 0)
(2.592876405 -0.6642986993 0)
(2.605583138 -0.6462364348 0)
(2.624052065 -0.6212373105 0)
(2.655003359 -0.5786687121 0)
(2.684651347 -0.5348585072 0)
(2.708449546 -0.5078745048 0)
(2.749896038 -0.4522770662 0)
(2.784596569 -0.3830744149 0)
(2.799175432 -0.3635900347 0)
(2.817626319 -0.3394168026 0)
(2.854508105 -0.2671074999 0)
(2.869325513 -0.2231984751 0)
(2.873343646 -0.2174283767 0)
(2.897439037 -0.1759636274 0)
(2.920867115 -0.1141745452 0)
(2.928276453 -0.1003115596 0)
(2.93108234 -0.09366142865 0)
(2.952711075 -0.04294652206 0)
(2.963227737 -0.004851259131 0)
(2.968396683 -0.003381400101 0)
(2.978796874 0.02478121097 0)
(2.987100971 0.06553308578 0)
(2.993056002 0.07182031115 0)
(3.003530826 0.0849334904 0)
(3.013302961 0.1263710297 0)
(3.013786046 0.1408956487 0)
(3.017217572 0.1363255872 0)
(2.724591028 -0.4619780803 0)
(2.589119796 -0.6477185023 0)
(2.57410816 -0.6807862577 0)
(2.559225171 -0.6937494158 0)
(2.556204142 -0.6929811768 0)
(2.559645057 -0.6869732148 0)
(2.571593101 -0.6805800925 0)
(2.58046741 -0.6770578386 0)
(2.582992499 -0.6757923497 0)
(2.588944916 -0.6707625875 0)
(2.600029673 -0.6567353647 0)
(2.616452846 -0.632604712 0)
(2.637456055 -0.6042926947 0)
(2.671826161 -0.5562946561 0)
(2.702828192 -0.5087045212 0)
(2.72651413 -0.4815280888 0)
(2.767920041 -0.4241176673 0)
(2.800484644 -0.3543306123 0)
(2.813988226 -0.3358886356 0)
(2.832719523 -0.3103105735 0)
(2.869942037 -0.2358864305 0)
(2.884108301 -0.1904778659 0)
(2.886952189 -0.1887629696 0)
(2.907044336 -0.1538682605 0)
(2.931223009 -0.09047837071 0)
(2.93942034 -0.0721326451 0)
(2.944167642 -0.06147957564 0)
(2.964025352 -0.01157256255 0)
(2.973187016 0.02104388743 0)
(2.97828569 0.02118977368 0)
(2.98749861 0.04983776933 0)
(2.993644314 0.084435376 0)
(2.999854084 0.08895870591 0)
(3.011409078 0.1077772127 0)
(3.018242076 0.1495602636 0)
(3.018703496 0.1594566464 0)
(3.022357456 0.1549275509 0)
(2.629491376 -0.5858355546 0)
(2.586885394 -0.6702990579 0)
(2.575880654 -0.6900702195 0)
(2.570141254 -0.6990596054 0)
(2.567497368 -0.6953515433 0)
(2.567961345 -0.6855251273 0)
(2.574608562 -0.6775799019 0)
(2.579468429 -0.6742689191 0)
(2.584245822 -0.6725013023 0)
(2.59253246 -0.6655838942 0)
(2.606148308 -0.6476073037 0)
(2.6252812 -0.6197003115 0)
(2.650217694 -0.5871533641 0)
(2.689672962 -0.5315623216 0)
(2.720904676 -0.4817137495 0)
(2.743447204 -0.4563448015 0)
(2.785403198 -0.3965717369 0)
(2.818880067 -0.3205159189 0)
(2.831904748 -0.3018533029 0)
(2.846518318 -0.2829458721 0)
(2.882497185 -0.2102902781 0)
(2.896449765 -0.1627842798 0)
(2.900069399 -0.1592666163 0)
(2.920998502 -0.1216100492 0)
(2.944303747 -0.05668568392 0)
(2.951943721 -0.03980482207 0)
(2.954630115 -0.03452995075 0)
(2.972973567 0.01327791641 0)
(2.982545028 0.0444955129 0)
(2.989171748 0.04976202693 0)
(2.999674781 0.0848401234 0)
(3.002571993 0.1112448145 0)
(3.008262174 0.1115164708 0)
(3.018874488 0.1314624216 0)
(3.022447576 0.1708132402 0)
(3.023236248 0.1776133686 0)
(3.026734518 0.1742034302 0)
(2.57680412 -0.6759310827 0)
(2.57968605 -0.6782643234 0)
(2.577488108 -0.6828981553 0)
(2.573358142 -0.6848166882 0)
(2.5714435 -0.6814363788 0)
(2.572729942 -0.6751863746 0)
(2.576553491 -0.6713027678 0)
(2.579486606 -0.6711258324 0)
(2.586538772 -0.6681108458 0)
(2.596662363 -0.6593520176 0)
(2.614537759 -0.636536074 0)
(2.637775351 -0.6038320052 0)
(2.665191028 -0.5690390692 0)
(2.707758797 -0.5072957472 0)
(2.740155301 -0.4525413318 0)
(2.762778476 -0.4263149656 0)
(2.804227382 -0.36516673 0)
(2.834710811 -0.290084044 0)
(2.846331733 -0.2728936751 0)
(2.861054668 -0.252840116 0)
(2.897932929 -0.1770875129 0)
(2.911704411 -0.1257861608 0)
(2.915160544 -0.1254113074 0)
(2.930884365 -0.09685273917 0)
(2.953896737 -0.03265292573 0)
(2.962015583 -0.01345496984 0)
(2.965588707 -0.007429309069 0)
(2.982360968 0.03940221166 0)
(2.991381178 0.06542796741 0)
(2.998499566 0.07257631985 0)
(3.006642593 0.1099042617 0)
(3.008278573 0.1294277534 0)
(3.013551708 0.1325659394 0)
(3.027654955 0.1648739889 0)
(3.028563585 0.2017042967 0)
(3.029840412 0.2048536776 0)
(3.034175377 0.2034968526 0)
(2.575758087 -0.6826320995 0)
(2.577181213 -0.6816154711 0)
(2.57535444 -0.6825897711 0)
(2.573897578 -0.6807231047 0)
(2.572514139 -0.6759264702 0)
(2.574691786 -0.6714738227 0)
(2.576620139 -0.6698902869 0)
(2.580997102 -0.6680636338 0)
(2.58883163 -0.663940108 0)
(2.602320232 -0.6520690662 0)
(2.625605792 -0.6226451227 0)
(2.652043653 -0.585897687 0)
(2.68322858 -0.5462078983 0)
(2.729620934 -0.475848771 0)
(2.759960233 -0.4206535999 0)
(2.779785316 -0.398121863 0)
(2.821320339 -0.33473236 0)
(2.853285775 -0.252568258 0)
(2.864862541 -0.234375361 0)
(2.876561824 -0.2194058066 0)
(2.910879034 -0.1467726645 0)
(2.923094717 -0.09787731235 0)
(2.926024779 -0.09861343781 0)
(2.942885488 -0.06656594938 0)
(2.967394424 0.002148509642 0)
(2.975957506 0.02183612282 0)
(2.979159312 0.02784206335 0)
(2.993385999 0.07232489044 0)
(3.00212856 0.09418308272 0)
(3.012060118 0.1097083664 0)
(3.014899392 0.1453674475 0)
(3.014845347 0.154885632 0)
(3.019049126 0.1558801656 0)
(3.031735094 0.1899882986 0)
(3.030727303 0.2205289488 0)
(3.033315134 0.2201485219 0)
(3.037771259 0.2178731584 0)
(2.57859489 -0.6776032903 0)
(2.576802528 -0.6810530722 0)
(2.575818001 -0.6819056854 0)
(2.575206621 -0.680243701 0)
(2.574793473 -0.6769361096 0)
(2.575651091 -0.6725349417 0)
(2.577362541 -0.6707251265 0)
(2.582318747 -0.6676916321 0)
(2.592753378 -0.6594332312 0)
(2.610569623 -0.6410646096 0)
(2.639957024 -0.6022048335 0)
(2.67008219 -0.5597479141 0)
(2.70214962 -0.5190303424 0)
(2.74950555 -0.4437710941 0)
(2.780322892 -0.3853714761 0)
(2.800414291 -0.3619218531 0)
(2.840940488 -0.2970592838 0)
(2.868593436 -0.2186611838 0)
(2.878174701 -0.2050044402 0)
(2.889091801 -0.1896013837 0)
(2.925613706 -0.1123127709 0)
(2.938532003 -0.05949721096 0)
(2.941209019 -0.06091099149 0)
(2.956518257 -0.03190986361 0)
(2.977272276 0.02952624844 0)
(2.986548478 0.04378732311 0)
(2.988452213 0.05338968819 0)
(2.999409938 0.09389089749 0)
(3.008570304 0.1106407068 0)
(3.018600098 0.1364033884 0)
(3.017934396 0.1692484371 0)
(3.018713147 0.1722846605 0)
(3.023982139 0.1758549774 0)
(3.037547088 0.2165291993 0)
(3.036183077 0.2433512783 0)
(3.039481978 0.2424351807 0)
(3.046143319 0.2473243048 0)
(2.57707802 -0.6770178274 0)
(2.575820569 -0.6794364218 0)
(2.575852573 -0.6795787584 0)
(2.575704088 -0.6792614315 0)
(2.575563054 -0.6780073355 0)
(2.576181285 -0.6766145718 0)
(2.578384007 -0.6744246583 0)
(2.585005619 -0.6675805559 0)
(2.598618346 -0.6522940374 0)
(2.622178304 -0.6243514808 0)
(2.656836029 -0.5757348481 0)
(2.688200639 -0.5304264576 0)
(2.72419538 -0.4844900959 0)
(2.773561958 -0.4021290136 0)
(2.800904603 -0.347256006 0)
(2.81701862 -0.3310922304 0)
(2.85634072 -0.2660705121 0)
(2.88590703 -0.1801583927 0)
(2.896169163 -0.1647765816 0)
(2.905465263 -0.1518112375 0)
(2.939636326 -0.07720067299 0)
(2.950854321 -0.03122261587 0)
(2.950988062 -0.03531299756 0)
(2.969345559 0.001613167199 0)
(2.989597078 0.06099323133 0)
(2.999402123 0.0769177949 0)
(3.003270482 0.09759517664 0)
(3.008023691 0.12333878 0)
(3.016929728 0.1342725373 0)
(3.024924307 0.1690913556 0)
(3.022645014 0.1977168849 0)
(3.024077817 0.1983031973 0)
(3.032848564 0.2104184577 0)
(3.045114458 0.2533838852 0)
(3.042825244 0.2730629196 0)
(3.046226336 0.2693563288 0)
(3.052958031 0.2768980326 0)
(2.575638144 -0.6803044674 0)
(2.575496346 -0.6796321907 0)
(2.575818122 -0.679149032 0)
(2.575486992 -0.6791245251 0)
(2.575538818 -0.6789512136 0)
(2.576387081 -0.6780375454 0)
(2.579913032 -0.6740598465 0)
(2.589813101 -0.662107805 0)
(2.607652758 -0.6399067103 0)
(2.635406575 -0.6047215706 0)
(2.676106863 -0.5448785747 0)
(2.709386301 -0.495475929 0)
(2.743901246 -0.4510646574 0)
(2.792816357 -0.3655890283 0)
(2.820883796 -0.3086954127 0)
(2.83796474 -0.2909043066 0)
(2.876463644 -0.2241197986 0)
(2.901309822 -0.1448652468 0)
(2.909885695 -0.1361240146 0)
(2.917036257 -0.1253735843 0)
(2.952640221 -0.04842313512 0)
(2.965219823 0.003336076354 0)
(2.96678304 0.003542507682 0)
(2.982421169 0.03783150746 0)
(2.99942154 0.08369084346 0)
(3.007272433 0.104739184 0)
(3.009851888 0.1319147264 0)
(3.013439231 0.1479649817 0)
(3.024474953 0.1671058742 0)
(3.030840946 0.2095109915 0)
(3.027840456 0.2249116473 0)
(3.030055164 0.2199588725 0)
(3.039730596 0.2333087018 0)
(3.047955302 0.2730483298 0)
(3.046567312 0.2863884748 0)
(3.050677236 0.2795527289 0)
(3.055975664 0.2889467504 0)
(2.575458629 -0.6815929156 0)
(2.57595282 -0.6800881667 0)
(2.575515013 -0.6796656521 0)
(2.575186577 -0.6794505857 0)
(2.575397325 -0.6790516565 0)
(2.576992474 -0.677076602 0)
(2.58265117 -0.6702768954 0)
(2.596576615 -0.6528279137 0)
(2.619339383 -0.6238102396 0)
(2.653481508 -0.5797053204 0)
(2.696691894 -0.5128949557 0)
(2.729193783 -0.4637671028 0)
(2.766937011 -0.4130936254 0)
(2.816989312 -0.320277961 0)
(2.841764301 -0.26769151 0)
(2.854359794 -0.2594917717 0)
(2.890305437 -0.1956515964 0)
(2.917486661 -0.1090848567 0)
(2.927903424 -0.0947481775 0)
(2.935958678 -0.08157406859 0)
(2.968642531 -0.006620101937 0)
(2.979017786 0.04142877849 0)
(2.981011351 0.04533602502 0)
(2.993869674 0.07579067619 0)
(3.010346954 0.1156894746 0)
(3.016535637 0.1445552895 0)
(3.015766961 0.1593180149 0)
(3.019190684 0.1614352596 0)
(3.027684086 0.1809117962 0)
(3.032457729 0.2284413073 0)
(3.031831435 0.2427394721 0)
(3.035289388 0.2397270661 0)
(3.048099765 0.2613188728 0)
(3.054801319 0.2997900086 0)
(3.054364296 0.3114961755 0)
(3.059577606 0.3072667777 0)
(3.067710398 0.3223597945 0)
(2.575328358 -0.6796235367 0)
(2.57580143 -0.6793755915 0)
(2.575292876 -0.6797038337 0)
(2.574999143 -0.6796792986 0)
(2.575409504 -0.6787907685 0)
(2.578089874 -0.6751597565 0)
(2.586692089 -0.6644371064 0)
(2.606335781 -0.6392829115 0)
(2.633775283 -0.6041818645 0)
(2.67220486 -0.5543289204 0)
(2.721463113 -0.4756980296 0)
(2.754313254 -0.4247459306 0)
(2.78834982 -0.3787299724 0)
(2.836460743 -0.2851866136 0)
(2.861276772 -0.2299616874 0)
(2.875713695 -0.2152843849 0)
(2.91217257 -0.1467371609 0)
(2.934564935 -0.06544619542 0)
(2.94314829 -0.05672431608 0)
(2.948084721 -0.05108931606 0)
(2.978042525 0.01810884216 0)
(2.987889702 0.07000264043 0)
(2.990704032 0.07616002687 0)
(3.000347478 0.09744380257 0)
(3.01844924 0.1432960474 0)
(3.024570569 0.18543322 0)
(3.025756257 0.195381835 0)
(3.030366367 0.195873868 0)
(3.043625156 0.2285709658 0)
(3.043771516 0.2713492459 0)
(3.042958751 0.2777729073 0)
(3.043655782 0.2754563149 0)
(3.058500065 0.3015451954 0)
(3.058680464 0.3307781054 0)
(3.059766981 0.3348390879 0)
(3.064710832 0.3269778594 0)
(3.069912407 0.3405614542 0)
(2.575647614 -0.6785481424 0)
(2.575406122 -0.6788724843 0)
(2.574821935 -0.6795081503 0)
(2.574693557 -0.6792812608 0)
(2.575590604 -0.6776497627 0)
(2.580084385 -0.671627136 0)
(2.593007628 -0.6556287862 0)
(2.618531308 -0.6226167526 0)
(2.651901207 -0.579654276 0)
(2.696632804 -0.5206966876 0)
(2.74537516 -0.4389061365 0)
(2.776344997 -0.3909760396 0)
(2.813209357 -0.3376895715 0)
(2.862632822 -0.235160225 0)
(2.884415272 -0.1819005638 0)
(2.893461328 -0.1770934501 0)
(2.925636447 -0.1142924303 0)
(2.948999172 -0.02945869583 0)
(2.958794096 -0.01447790536 0)
(2.966666106 -0.0007730834737 0)
(2.99640971 0.06939077176 0)
(3.005005405 0.1235392384 0)
(3.008727143 0.125794276 0)
(3.013052182 0.1323570659 0)
(3.028398678 0.1787174362 0)
(3.030496192 0.2190917179 0)
(3.032593865 0.2212701138 0)
(3.03552283 0.221329548 0)
(3.049003039 0.2594880739 0)
(3.047770714 0.2935122242 0)
(3.049590845 0.2943818731 0)
(3.050533328 0.2914817857 0)
(3.061167767 0.3127769509 0)
(3.059738718 0.3369803899 0)
(3.061874182 0.3403268604 0)
(3.067093395 0.3343249679 0)
(3.071067612 0.347476361 0)
(2.575720227 -0.6785416894 0)
(2.574567876 -0.6790820567 0)
(2.574045274 -0.6791827107 0)
(2.574037474 -0.6786290903 0)
(2.575922742 -0.6756996603 0)
(2.583268541 -0.6663834737 0)
(2.602102416 -0.6434307486 0)
(2.635819182 -0.5991238117 0)
(2.672122493 -0.5522819691 0)
(2.72020948 -0.4873146094 0)
(2.77442836 -0.3923248579 0)
(2.80501803 -0.3437604265 0)
(2.837057289 -0.2962416383 0)
(2.882463355 -0.1962665973 0)
(2.90294645 -0.1438652041 0)
(2.912869677 -0.1324904406 0)
(2.948272789 -0.06103661842 0)
(2.967871939 0.02190867739 0)
(2.975908599 0.03242001349 0)
(2.97830215 0.03258119781 0)
(3.004657445 0.09706359374 0)
(3.012930084 0.1541392166 0)
(3.016668871 0.1587996093 0)
(3.022084728 0.169750078 0)
(3.038344572 0.2190499401 0)
(3.038790561 0.2524662655 0)
(3.041381579 0.2483657629 0)
(3.039590014 0.2430847009 0)
(3.052514202 0.2818906944 0)
(3.05235282 0.314455846 0)
(3.056055617 0.3157566132 0)
(3.062217534 0.3226034192 0)
(3.067770596 0.3407133081 0)
(3.064691697 0.3593899723 0)
(3.067361598 0.361015749 0)
(3.074539943 0.3592677833 0)
(3.075883695 0.3670488975 0)
(2.57506453 -0.6792735349 0)
(2.573671366 -0.6794752032 0)
(2.573320291 -0.6791836845 0)
(2.573620282 -0.6779187451 0)
(2.577244818 -0.6727145498 0)
(2.589171783 -0.6580691733 0)
(2.615072565 -0.6267465339 0)
(2.655445654 -0.5725768948 0)
(2.698303057 -0.5156704225 0)
(2.750225569 -0.4427112055 0)
(2.800272716 -0.3485505551 0)
(2.828504612 -0.3031256207 0)
(2.861971452 -0.249955553 0)
(2.908713117 -0.14117852 0)
(2.927997392 -0.08671546422 0)
(2.934572427 -0.08231791783 0)
(2.96424379 -0.01788086286 0)
(2.983438343 0.06674758069 0)
(2.991059862 0.08079852348 0)
(2.997221702 0.08620278659 0)
(3.019373217 0.1462946939 0)
(3.023005454 0.1902151813 0)
(3.025387103 0.1836103378 0)
(3.025535055 0.1885211866 0)
(3.046145759 0.2464817749 0)
(3.046581653 0.2868253878 0)
(3.049178088 0.2857014778 0)
(3.050370944 0.2904001974 0)
(3.061689682 0.326859923 0)
(3.059037968 0.3473740038 0)
(3.063320032 0.3459514045 0)
(3.068247175 0.3505945071 0)
(3.067498909 0.3618867367 0)
(3.065145003 0.3742980683 0)
(3.068646602 0.3752935442 0)
(3.074802319 0.3749827132 0)
(3.074009163 0.3783494416 0)
(2.573656202 -0.6792926448 0)
(2.57290323 -0.6792874684 0)
(2.572640634 -0.6788041227 0)
(2.573750553 -0.6765536713 0)
(2.580477433 -0.6678742738 0)
(2.597960644 -0.6470671802 0)
(2.633429703 -0.6036566572 0)
(2.682130026 -0.5356906054 0)
(2.723489246 -0.480089482 0)
(2.778221901 -0.3991639569 0)
(2.832636706 -0.2902570355 0)
(2.858914581 -0.2471333453 0)
(2.887695661 -0.1992224884 0)
(2.929352525 -0.09398541089 0)
(2.945280432 -0.04691986412 0)
(2.94988215 -0.04341323801 0)
(2.979126921 0.02356364048 0)
(2.996472869 0.1075718118 0)
(3.003268549 0.1172258729 0)
(3.006708383 0.1245515393 0)
(3.030440583 0.1878638257 0)
(3.035330796 0.2390156661 0)
(3.041089245 0.2391398363 0)
(3.044406164 0.2417222699 0)
(3.054878958 0.2875634965 0)
(3.05306274 0.3094924193 0)
(3.054259339 0.3020915182 0)
(3.055604571 0.3103349206 0)
(3.062645598 0.3329584323 0)
(3.061399568 0.3502694671 0)
(3.067490415 0.3484693004 0)
(3.070367727 0.3545487912 0)
(3.067650282 0.3640851609 0)
(3.06676184 0.374409103 0)
(3.070692841 0.3749744364 0)
(3.075061509 0.3760036855 0)
(3.074414783 0.3781828564 0)
(2.572373159 -0.6788789868 0)
(2.572065436 -0.6788488664 0)
(2.57206141 -0.6782715348 0)
(2.574828419 -0.6745049467 0)
(2.586355248 -0.6606705937 0)
(2.612479821 -0.6296883833 0)
(2.655316576 -0.5761836042 0)
(2.709872063 -0.4968845235 0)
(2.758301632 -0.427522979 0)
(2.812168149 -0.3427078434 0)
(2.858768576 -0.2401209357 0)
(2.882661675 -0.1998730908 0)
(2.911510927 -0.1488138905 0)
(2.953727044 -0.03695433476 0)
(2.970182258 0.01855527591 0)
(2.973756852 0.02612761331 0)
(3.00072412 0.08972851628 0)
(3.013874521 0.1642727057 0)
(3.021085084 0.1678139493 0)
(3.020088379 0.1621001336 0)
(3.038681542 0.2192753779 0)
(3.041095917 0.2630915771 0)
(3.045995648 0.256672475 0)
(3.047085057 0.2612300995 0)
(3.060966015 0.3107154117 0)
(3.059899766 0.3338569914 0)
(3.063507512 0.32874516 0)
(3.067794701 0.3402333802 0)
(3.068825586 0.3541283284 0)
(3.067384815 0.3670040868 0)
(3.074265959 0.3650691743 0)
(3.076295976 0.3689915374 0)
(3.073345379 0.3747173223 0)
(3.071943886 0.3813451884 0)
(3.075451405 0.3814201697 0)
(3.077840918 0.3814453631 0)
(3.076851735 0.3823156102 0)
(2.571505208 -0.6785031611 0)
(2.571464854 -0.6782421097 0)
(2.572192878 -0.6772617983 0)
(2.578042412 -0.6705851693 0)
(2.596589806 -0.6489698964 0)
(2.630565581 -0.6084524058 0)
(2.686031561 -0.5361133033 0)
(2.745142124 -0.4440736342 0)
(2.785948286 -0.3846669647 0)
(2.841678384 -0.2911619762 0)
(2.892729447 -0.170216407 0)
(2.913998142 -0.1341656082 0)
(2.939847999 -0.08565191504 0)
(2.973384581 0.01707932385 0)
(2.984905425 0.05798509914 0)
(2.983615162 0.05017822961 0)
(3.011020716 0.1168119047 0)
(3.025239522 0.2033508614 0)
(3.032023387 0.2139836997 0)
(3.035267117 0.2155102259 0)
(3.051964464 0.2685184734 0)
(3.053719572 0.3042382725 0)
(3.059148062 0.2976005722 0)
(3.058962356 0.3020507408 0)
(3.065816497 0.3384428669 0)
(3.063904191 0.3572104413 0)
(3.069492683 0.355826745 0)
(3.071790502 0.3639823514 0)
(3.070760678 0.3715457084 0)
(3.069992206 0.3798235296 0)
(3.07614678 0.3790279742 0)
(3.076883132 0.3801570911 0)
(3.074341013 0.3846694807 0)
(3.072977845 0.388723885 0)
(3.075891655 0.3881137932 0)
(3.077578891 0.3867214132 0)
(3.076826638 0.3874220989 0)
(2.57118314 -0.6782446345 0)
(2.57128773 -0.6782056319 0)
(2.573678406 -0.675675105 0)
(2.583972905 -0.664539876 0)
(2.612191352 -0.6312639627 0)
(2.657767465 -0.5747517721 0)
(2.715655273 -0.4955988019 0)
(2.779595543 -0.389845919 0)