/*--------------------------------*- C++ -*----------------------------------*\
  =========                 |
  \\      /  F ield         | OpenFOAM: The Open Source CFD Toolbox
   \\    /   O peration     | Website:  https://openfoam.org
    \\  /    A nd           | Version:  7
     \\/     M anipulation  |
\*---------------------------------------------------------------------------*/
FoamFile
{
    version     2.0;
    format      ascii;
    class       volScalarField;
    location    "1";
    object      T;
}
// * * * * * * * * * * * * * * * * * * * * * * * * * * * * * * * * * * * * * //

dimensions      [0 0 0 1 0 0 0];

internalField   nonuniform List<scalar> 
2222
(
1.262726385
1.25905198
1.255223952
1.251187841
1.247125415
1.243245274
1.239505184
1.235712375
1.231705939
1.228389913
1.234839757
1.329571687
1.488732227
1.322959732
1.322571024
1.322127113
1.322538096
1.323868688
1.324741404
1.323276171
1.320611737
1.318080465
1.315910423
1.314309422
1.312635936
1.311076244
1.309151509
1.307120652
1.305113084
1.30321903
1.301434406
1.299504465
1.297084001
1.293897096
1.290376865
1.2867383
1.283053477
1.27921013
1.275337387
1.271535794
1.267707138
1.263782423
1.259679646
1.255550893
1.251377662
1.247344368
1.243310905
1.239158126
1.235140017
1.236733342
1.315211825
1.479650566
1.32303643
1.323053152
1.323097262
1.324009218
1.324530522
1.324272964
1.322303548
1.320376256
1.318516
1.316766527
1.315282685
1.313544071
1.31186644
1.310220007
1.308606581
1.307137638
1.305792686
1.304330095
1.302541475
1.300036563
1.297045438
1.293888478
1.290703362
1.287378976
1.284026765
1.280562866
1.276913466
1.273033099
1.268999423
1.265054747
1.260919095
1.256680676
1.252333869
1.247953164
1.243077917
1.24212527
1.300527906
1.466380204
1.541311216
1.323078861
1.323166887
1.322967355
1.323398517
1.323817163
1.323316297
1.322160253
1.320642898
1.319232562
1.317967088
1.31640112
1.314622869
1.313578767
1.312340917
1.310990257
1.309731392
1.308599723
1.30735286
1.305873868
1.303741141
1.301511876
1.299293615
1.297038935
1.294553264
1.291740983
1.288597186
1.285246202
1.281749254
1.278151443
1.274666199
1.27086544
1.266559918
1.261834163
1.25692792
1.251804682
1.249520989
1.291859581
1.452242776
1.541645131
1.320554878
1.321014733
1.321371188
1.321611774
1.322063318
1.321340144
1.320320762
1.319433116
1.318408438
1.31746317
1.316348426
1.315220208
1.314540824
1.313529377
1.312227703
1.31094667
1.309859921
1.308861277
1.307754279
1.306398331
1.304898097
1.303236776
1.301624549
1.299816422
1.297408822
1.294715561
1.29218493
1.289563928
1.286657002
1.283540077
1.280074111
1.27596793
1.271093756
1.26599962
1.260704417
1.257502132
1.288836849
1.437310055
1.541644771
1.31429755
1.315839718
1.31749937
1.318966981
1.319857014
1.319276806
1.31843135
1.317553388
1.316975288
1.316513475
1.315978187
1.315260858
1.314748312
1.31391422
1.312567142
1.311050084
1.310087754
1.309659901
1.309390536
1.308605006
1.307345414
1.305993849
1.304700214
1.303254443
1.301723978
1.300106725
1.298460209
1.296518417
1.293834256
1.290695178
1.287618274
1.284073486
1.279652144
1.274849679
1.269953057
1.266226754
1.289379898
1.422624485
1.542780912
1.306055746
1.30901633
1.311931799
1.315031428
1.317381931
1.317748098
1.31680792
1.3159958
1.315665328
1.315436736
1.31527893
1.315215604
1.315181191
1.314657986
1.31341724
1.311788782
1.310860017
1.310593081
1.310472786
1.309919721
1.308658742
1.307417739
1.306244946
1.305202269
1.304310416
1.303437421
1.3023847
1.300908288
1.298695988
1.296085003
1.2936039
1.290861393
1.287485409
1.283686202
1.279143411
1.275032127
1.291372338
1.406650361
1.543763472
1.301636741
1.305934128
1.310038099
1.313631753
1.315021639
1.314891817
1.314776791
1.31482581
1.31479081
1.314859865
1.314991097
1.314801793
1.31417524
1.312936624
1.311521548
1.310775338
1.310431026
1.310301801
1.309777246
1.308657337
1.307618716
1.306551107
1.305708076
1.305076919
1.304435917
1.303585596
1.302463153
1.301318515
1.30008604
1.298330989
1.296077189
1.293528068
1.290726664
1.28711669
1.283193966
1.295100398
1.391106966
1.543547073
1.284990918
1.291481883
1.297133479
1.302362691
1.305523599
1.307254132
1.308954966
1.31046571
1.311479011
1.312225486
1.312734339
1.312786864
1.312194406
1.311090596
1.310026717
1.309678606
1.309439939
1.309267816
1.308707795
1.307813135
1.306928312
1.305966506
1.305310321
1.304851732
1.304227344
1.30351797
1.302988334
1.302746271
1.302393771
1.301453376
1.299712549
1.297650054
1.295520736
1.292814758
1.289624894
1.299070572
1.37742656
1.539290623
1.260205093
1.269124204
1.276713168
1.283753067
1.28923758
1.293303644
1.297391286
1.301153803
1.304099697
1.306294726
1.307913111
1.309045648
1.309174178
1.308648603
1.308022401
1.307819562
1.307803437
1.307753747
1.307243265
1.306524643
1.30590228
1.305156791
1.304630804
1.304340439
1.304064041
1.303702204
1.303491667
1.303342103
1.303136373
1.302882305
1.301785559
1.300574134
1.299129098
1.297017134
1.294359178
1.301915394
1.367393822
1.530552875
1.231976496
1.243191727
1.252887323
1.261769674
1.269586841
1.275857327
1.282166115
1.288513981
1.29417132
1.298839157
1.302244622
1.304477029
1.305401237
1.305737117
1.30572131
1.30555934
1.305666219
1.305836761
1.305557373
1.305101745
1.304764775
1.304353011
1.304211262
1.304235444
1.304253059
1.304143842
1.304213975
1.303871593
1.303390335
1.302733717
1.302374251
1.301783514
1.300912616
1.299442918
1.297406675
1.303320931
1.359316758
1.52034756
1.200829282
1.213228185
1.224341279
1.234693169
1.244378733
1.253158236
1.262579177
1.272461667
1.281741005
1.2894876
1.29528979
1.299269007
1.301505337
1.302688631
1.303314737
1.303610762
1.304083762
1.304625785
1.304710393
1.304542458
1.304446994
1.304507114
1.304708818
1.304811652
1.304784878
1.304696239
1.304392712
1.303734434
1.303094794
1.302402922
1.30193398
1.301655516
1.301271378
1.300391275
1.299109883
1.303812737
1.352046346
1.51070416
1.168927274
1.181366282
1.192991902
1.203934958
1.214465069
1.224589974
1.235889063
1.248330305
1.260515888
1.271202753
1.279746619
1.286090127
1.290525429
1.293521903
1.295605245
1.297258861
1.298812104
1.300236769
1.301477988
1.302276133
1.30282544
1.303246498
1.303649397
1.303829476
1.303973711
1.303907117
1.303479282
1.302851926
1.302189215
1.301677718
1.301223414
1.301107665
1.301092851
1.300500214
1.299768182
1.303844522
1.344175919
1.498889916
1.15192811
1.162580512
1.173230416
1.183938707
1.194667446
1.206658663
1.22011624
1.233796925
1.246634647
1.257670759
1.266365389
1.272978836
1.277904828
1.28171801
1.285016237
1.288008895
1.290815137
1.293569113
1.295800561
1.29757503
1.29896797
1.300143056
1.30087052
1.301412007
1.301660635
1.301401852
1.301255018
1.301129188
1.300838955
1.300564653
1.300352091
1.300418824
1.300245969
1.299713102
1.303442762
1.336204458
1.483453721
1.128185115
1.136416798
1.145221345
1.154836624
1.165063922
1.176800293
1.190670512
1.205436611
1.219842747
1.232883244
1.243724362
1.252236264
1.258876287
1.264260396
1.268960215
1.273273869
1.2775284
1.28165006
1.285371697
1.288596229
1.291357918
1.293801301
1.295757228
1.297200766
1.298172549
1.298673903
1.299210812
1.299860245
1.300154406
1.300196816
1.300302287
1.300528794
1.300494586
1.299895123
1.302331863
1.328874475
1.46381938
1.590889985
1.107940457
1.11494141
1.12211777
1.130018058
1.138748505
1.148976773
1.161621941
1.175977859
1.190722505
1.2047376
1.217053987
1.22717495
1.235572507
1.242818571
1.249309542
1.25535581
1.261343933
1.267192201
1.272730676
1.277693393
1.282248559
1.28636959
1.289648435
1.292180452
1.294217546
1.296031233
1.29782632
1.299353219
1.300223165
1.300626492
1.30061646
1.300421846
1.300072107
1.299471669
1.300802129
1.322748846
1.442386981
1.594007641
1.090693788
1.096685599
1.103145239
1.109889441
1.116839573
1.125002208
1.13547413
1.148205974
1.161901578
1.175567904
1.18826359
1.199065053
1.208375347
1.216695948
1.224352189
1.231735133
1.239175973
1.246756856
1.254359458
1.26155059
1.268486192
1.274881347
1.28024926
1.284899148
1.288812982
1.291985016
1.294433571
1.296323521
1.297883995
1.298920587
1.299136152
1.299168636
1.298753447
1.298319692
1.299610045
1.317537641
1.420992724
1.594513955
1.079522289
1.083753968
1.088694777
1.093728578
1.098749688
1.104820675
1.113277012
1.124149665
1.136201783
1.148761806
1.160956007
1.171576642
1.180890953
1.189508343
1.197678903
1.20577035
1.213966976
1.222366151
1.231037399
1.239696553
1.248443776
1.256822007
1.264438663
1.271434099
1.277364118
1.282221399
1.286032079
1.289233864
1.292203835
1.294529737
1.295654002
1.296541264
1.296999249
1.297053908
1.298436284
1.313042751
1.401153891
1.591179505
1.074362428
1.076779955
1.079623867
1.082869221
1.08641421
1.090678634
1.096799096
1.105033158
1.114751551
1.125533507
1.136450696
1.14631629
1.15500177
1.163231619
1.171309752
1.179528984
1.187884006
1.196563574
1.205659926
1.215170126
1.225146341
1.235075469
1.244527198
1.253376472
1.261170162
1.267936568
1.273696127
1.279002445
1.283788684
1.287618893
1.290507195
1.29315735
1.295333603
1.296333818
1.297996085
1.308767058
1.382811901
1.584217719
1.071224964
1.072717665
1.074575851
1.077121785
1.079870403
1.083049622
1.086948509
1.091687843
1.098416995
1.106705759
1.115456872
1.123874918
1.131566522
1.139056535
1.146582362
1.154322626
1.162162255
1.170393199
1.179272504
1.189048392
1.19978284
1.210898039
1.221767198
1.23215454
1.241757127
1.250572597
1.25861525
1.266074933
1.27276775
1.278586382
1.283938565
1.288646923
1.292177033
1.294268682
1.295934037
1.303231148
1.365679598
1.572613894
1.067801271
1.069628587
1.07189973
1.073868324
1.075682647
1.078570947
1.082774645
1.087920663
1.093638858
1.099560382
1.105669623
1.111708607
1.118006872
1.124601
1.131474021
1.138328134
1.145583445
1.153637793
1.162914941
1.17346671
1.184720065
1.196021731
1.207123681
1.217939188
1.228327294
1.238105084
1.24718749
1.255686117
1.263738068
1.271453028
1.278243325
1.283871576
1.287890478
1.290716935
1.298413542
1.350057382
1.553906964
1.063209261
1.064987932
1.066953992
1.068497889
1.069365325
1.07118884
1.074555507
1.078619285
1.083287269
1.088098743
1.092454639
1.096632192
1.101158098
1.106252337
1.111786563
1.117472677
1.123666976
1.130692373
1.138879384
1.148328377
1.158725584
1.1695904
1.180679117
1.191952818
1.203121841
1.213895767
1.224097317
1.234038875
1.243857273
1.253777512
1.263088297
1.271288432
1.277528097
1.282560567
1.291202496
1.335807994
1.529286105
1.059669601
1.061352196
1.062864218
1.063974668
1.064241022
1.065338177
1.067723779
1.070823841
1.074180599
1.077780679
1.081482358
1.085133671
1.088625824
1.092267889
1.096185565
1.100537078
1.10557977
1.111408207
1.118160571
1.126033962
1.135110549
1.145087732
1.155584705
1.166447014
1.177415047
1.188356073
1.199251236
1.21044538
1.221979652
1.233921661
1.245535123
1.256274733
1.264912236
1.272216432
1.280841466
1.316085936
1.501370534
1.057159921
1.058528426
1.059677658
1.060716076
1.060812369
1.061432528
1.062843645
1.064706492
1.067077287
1.069911344
1.072994395
1.076020888
1.079100138
1.082239238
1.085135861
1.088285349
1.091945631
1.096335936
1.101596496
1.107987379
1.11559603
1.124070083
1.133122536
1.142693764
1.152647503
1.162958026
1.17377852
1.185522806
1.198128128
1.211291215
1.224308804
1.236726225
1.247512873
1.25690285
1.266278276
1.299547367
1.47142229
1.054730067
1.056182281
1.057396354
1.05861377
1.058635746
1.058820055
1.059219641
1.060478792
1.062483386
1.064780459
1.067348821
1.06971143
1.072046554
1.074516435
1.076780013
1.079173627
1.081685606
1.084740507
1.088693233
1.093729423
1.09968326
1.106238853
1.113441411
1.121363001
1.129931201
1.139222772
1.149484408
1.160976015
1.173546171
1.186789672
1.200286084
1.213644126
1.225888936
1.23710993
1.248597603
1.278726077
1.435183754
1.050943862
1.05287439
1.054802696
1.056294299
1.055931093
1.056199797
1.056838933
1.05783935
1.05962868
1.061786545
1.064116082
1.066041598
1.067368089
1.068516391
1.069741485
1.071362774
1.07324795
1.075428298
1.078190005
1.081782915
1.086293279
1.091489842
1.097285505
1.103695275
1.110741898
1.118689431
1.127847102
1.138293498
1.149892915
1.16239611
1.175724024
1.189417346
1.202374296
1.214603665
1.227466186
1.255725672
1.391987406
1.048390738
1.050601324
1.052209988
1.052047576
1.052512892
1.053978951
1.055884602
1.058030704
1.060338457
1.06251446
1.063977392
1.064291596
1.064070276
1.064384247
1.0653258
1.066784427
1.068460458
1.070465919
1.073051662
1.076471244
1.080562982
1.085210052
1.090352147
1.095987258
1.102447938
1.110037314
1.118785242
1.12867221
1.139752507
1.152107465
1.165303035
1.178207941
1.190431949
1.203971345
1.230048746
1.352049056
1.621232518
1.043461822
1.045590283
1.047369053
1.047492859
1.048149368
1.05005644
1.052793773
1.054973306
1.057450774
1.05967664
1.061042377
1.061081612
1.060598831
1.060546239
1.061139529
1.062318365
1.063761582
1.065544709
1.067734847
1.070101582
1.072648441
1.075870366
1.079970114
1.084714218
1.090044629
1.096070605
1.102848747
1.110627565
1.119879398
1.130666277
1.142618873
1.154677304
1.166112461
1.179686426
1.20315056
1.305768444
1.599865954
1.03865173
1.04067588
1.042508604
1.042637904
1.04328533
1.045378059
1.048206427
1.050610047
1.05301241
1.055369583
1.056927401
1.057386019
1.057386565
1.05755636
1.05821584
1.059233585
1.060314651
1.061487849
1.062924425
1.064462897
1.066200867
1.068453394
1.071447882
1.075130625
1.079330956
1.084039171
1.089327597
1.095541445
1.103248576
1.112253079
1.12253369
1.133363122
1.143620054
1.156548697
1.176842504
1.2671159
1.557565253
1.034632977
1.036153509
1.03778878
1.038258944
1.038785987
1.04061227
1.042870694
1.045627368
1.048073842
1.050504955
1.052160752
1.053367472
1.053961041
1.054523071
1.055298508
1.055946787
1.05644734
1.057172363
1.058066943
1.059315033
1.061135679
1.063124188
1.065265099
1.067824892
1.070805045
1.074293853
1.078402793
1.083430237
1.08963721
1.096784669
1.105169314
1.114551132
1.123507976
1.13506635
1.152286731
1.225058166
1.500422558
1.031442777
1.032610345
1.034155264
1.034829579
1.035055362
1.036102948
1.037963297
1.040074467
1.042421546
1.045077043
1.047696143
1.049283866
1.050306292
1.051130504
1.051715751
1.051982488
1.052318855
1.053060119
1.053927844
1.055205339
1.05727822
1.059233779
1.061039431
1.062936585
1.065038983
1.067587161
1.070648739
1.074321818
1.078887848
1.084414952
1.09128228
1.099204359
1.106646529
1.116291687
1.130591984
1.187950009
1.451212917
1.028151506
1.02969611
1.031370701
1.031884148
1.031655093
1.032079292
1.033352028
1.035405918
1.037786164
1.040384353
1.043345828
1.04536488
1.046703167
1.047511275
1.047797486
1.047886182
1.048271383
1.049353565
1.050537473
1.051993006
1.053573049
1.055091851
1.056783667
1.05860131
1.060499309
1.062499471
1.06465136
1.067079102
1.070211035
1.074529302
1.080124103
1.086628823
1.092667076
1.10039342
1.112198084
1.155866205
1.396172975
1.024863948
1.026601014
1.028226719
1.02855186
1.027979719
1.028514885
1.029793722
1.031707034
1.033919018
1.036700686
1.039833988
1.042047049
1.043427141
1.043869658
1.04381465
1.043795081
1.044423251
1.04613359
1.047680738
1.04862205
1.049471218
1.050712761
1.052355906
1.054089957
1.05580382
1.057399131
1.059061974
1.060886472
1.063144751
1.066397108
1.070620755
1.075669238
1.080401834
1.086606534
1.096079447
1.129162904
1.333841655
1.023629059
1.025038113
1.025395129
1.024630682
1.025346309
1.026839493
1.02884083
1.031173283
1.034083634
1.037166047
1.039135371
1.039948224
1.039899966
1.039641566
1.03968161
1.040705147
1.042558931
1.043782818
1.044418957
1.045272053
1.046501051
1.048088649
1.049706318
1.051256631
1.052741186
1.054310691
1.055907029
1.057741213
1.060174288
1.063354615
1.067282477
1.070865245
1.075913481
1.083528213
1.108648
1.272981294
1.021445722
1.022608567
1.023051046
1.022161427
1.022706112
1.024009762
1.025764561
1.027959088
1.030453254
1.033334517
1.035123337
1.03556032
1.035439489
1.035211959
1.03554322
1.036761462
1.038157063
1.039104744
1.039987223
1.041224137
1.042554089
1.044107599
1.045705149
1.04722902
1.048748626
1.050450717
1.052044383
1.053722779
1.055734943
1.058376114
1.06174726
1.064702315
1.068997704
1.07532653
1.094066101
1.220733034
1.020483501
1.021452979
1.021805232
1.020746101
1.020762472
1.021577304
1.022825159
1.02455288
1.026521994
1.029058415
1.030831225
1.031306964
1.031120331
1.031073602
1.031644393
1.032770489
1.033744867
1.034621651
1.035836161
1.037532862
1.039046792
1.040561144
1.042145683
1.043716499
1.04540015
1.0471706
1.048762008
1.050489342
1.052575805
1.055139765
1.058141801
1.060655098
1.063904576
1.068613851
1.083048165
1.177716251
1.020640821
1.021447619
1.021516155
1.020297278
1.019668267
1.020011496
1.020709924
1.021867194
1.023342666
1.025456042
1.027178162
1.027712896
1.027590256
1.027903888
1.028625365
1.029424366
1.030037635
1.030949283
1.032229237
1.033702932
1.035193843
1.036838063
1.038568964
1.040242057
1.041838837
1.043324096
1.044921805
1.046813991
1.048929974
1.051203437
1.053691468
1.055708825
1.058115767
1.061974792
1.074099711
1.143723301
1.02087789
1.021470362
1.021570557
1.020371697
1.019423101
1.019459328
1.019706058
1.020293207
1.021182489
1.02289067
1.024514996
1.025209191
1.025531293
1.026151732
1.02700573
1.02733638
1.027465799
1.028086072
1.028718976
1.029600811
1.030939951
1.032586055
1.034345023
1.036031057
1.037548274
1.039034923
1.040699069
1.042606552
1.04451099
1.046617814
1.04891191
1.050755005
1.052755485
1.055909347
1.066231359
1.117700065
1.02035011
1.020907213
1.021433826
1.020487043
1.019522836
1.01948346
1.019609404
1.019822838
1.020279927
1.021538338
1.023107068
1.024194482
1.025005733
1.025944891
1.026429129
1.026119903
1.025520927
1.025337592
1.025329938
1.025887599
1.027042798
1.028501539
1.030087813
1.031695206
1.03323396
1.034868267
1.036573193
1.038290608
1.039865707
1.04189022
1.043968531
1.045720364
1.04787467
1.050973127
1.058923373
1.098885916
1.020394633
1.021092818
1.020321796
1.01934532
1.019342341
1.019557062
1.019932755
1.020345739
1.02159749
1.023213866
1.024595711
1.025472044
1.025762028
1.025392564
1.024485907
1.023367726
1.022710801
1.022538107
1.02310151
1.024016029
1.025126841
1.026419596
1.027895985
1.029447418
1.031187513
1.032784623
1.034144808
1.035563768
1.037078196
1.039330217
1.041511986
1.043821721
1.046839382
1.053916823
1.085566265
1.020345025
1.02078416
1.019845757
1.018585555
1.018611289
1.019022721
1.019770277
1.020734632
1.022242528
1.023933819
1.025145166
1.025301569
1.024654433
1.023675862
1.022530076
1.021323069
1.020692738
1.020711542
1.021444465
1.022095507
1.022789916
1.023761246
1.025070737
1.026560947
1.028135182
1.029374896
1.030378612
1.031511766
1.033114929
1.035458379
1.037937859
1.040591516
1.043351369
1.049177361
1.074971247
1.237783416
1.020673155
1.020558878
1.019237234
1.017718109
1.017724051
1.018255778
1.019187616
1.020614832
1.022281144
1.023778938
1.02448089
1.024017509
1.022937935
1.021844703
1.02079927
1.019977241
1.019668742
1.019897558
1.02053107
1.02093651
1.021460293
1.022242536
1.02325404
1.024361818
1.025381484
1.026273095
1.027196204
1.028369516
1.030172172
1.032489866
1.034881388
1.037123158
1.039402944
1.044591231
1.065946464
1.199700133
1.021016429
1.02037344
1.018790049
1.017155773
1.017203098
1.0177916
1.018625643
1.019961412
1.021423148
1.022535019
1.022861473
1.022307756
1.021304876
1.020337535
1.019639174
1.019362567
1.019585991
1.019621445
1.019666535
1.019833682
1.020320991
1.020992915
1.021632257
1.022257278
1.022868565
1.023683228
1.024776684
1.026160187
1.027870477
1.029687562
1.031496628
1.033159803
1.035151015
1.039921114
1.057737703
1.166101752
1.02111482
1.020313561
1.018789538
1.017148713
1.017220644
1.017694169
1.018344004
1.01930429
1.020328299
1.021083101
1.021344514
1.020997945
1.020254795
1.019542449
1.019470626
1.019829592
1.019916372
1.019348478
1.018792488
1.018754765
1.019053083
1.019524447
1.019950399
1.020391474
1.020943869
1.021819309
1.022900295
1.024022787
1.025233539
1.026645839
1.028134227
1.0294195
1.03113284
1.034704438
1.050434771
1.136090759
1.021414752
1.021063465
1.019961202
1.018588328
1.018186301
1.018158989
1.018376358
1.018977513
1.019701578
1.020257511
1.020543758
1.020459515
1.020156011
1.020071836
1.020685117
1.020950681
1.020098577
1.018952332
1.018245617
1.018007361
1.018071411
1.018335519
1.018722623
1.019211022
1.019827432
1.020574177
1.021248112
1.021855119
1.022711259
1.024025383
1.025361021
1.026295155
1.027742714
1.030883744
1.043979989
1.110809351
1.022386389
1.022820841
1.02208295
1.020440951
1.019488068
1.019164614
1.019075669
1.019335021
1.019780753
1.020265982
1.020743691
1.021156126
1.02160282
1.022190534
1.022394721
1.021510942
1.019711954
1.018499277
1.018006479
1.017639434
1.017562282
1.017757328
1.018261699
1.018822408
1.019343038
1.019697051
1.019943833
1.020286253
1.021026314
1.022292795
1.023352492
1.024021779
1.025235725
1.027851706
1.037582979
1.091216416
1.024028992
1.023099235
1.020761921
1.019839166
1.019756715
1.019932101
1.020190338
1.02067988
1.021355593
1.022224763
1.02322549
1.023895775
1.024074038
1.023076435
1.021102445
1.018998888
1.018005519
1.017738923
1.017505
1.017528955
1.017843181
1.018398992
1.018823753
1.019054535
1.019185067
1.019289724
1.019662386
1.020351565
1.02128447
1.021944478
1.022455969
1.023459093
1.025562786
1.033914975
1.077229046
1.024560848
1.023480726
1.020915242
1.019822288
1.019625949
1.019911385
1.020612947
1.021549008
1.022603917
1.023754778
1.024677701
1.024781606
1.023805663
1.02227389
1.020037695
1.018313634
1.017539912
1.017320593
1.017365056
1.017686343
1.018100587
1.018432702
1.018615124
1.018838485
1.019066447
1.019349339
1.019783534
1.020093216
1.020397299
1.020685182
1.021057786
1.021818465
1.023530029
1.030349339
1.065977453
1.025323534
1.023984628
1.020979679
1.019971442
1.01962177
1.019761806
1.020332001
1.021296912
1.022485301
1.023458694
1.023972804
1.023832068
1.022647362
1.020726118
1.018965241
1.017744047
1.017137927
1.016975808
1.017146837
1.017611056
1.017914439
1.018027343
1.018269579
1.018796243
1.019325382
1.019763847
1.019978885
1.019650811
1.019387533
1.019444702
1.019653335
1.020304533
1.021841406
1.027537159
1.056342246
1.026123946
1.02431283
1.020999593
1.019949579
1.019460118
1.01957712
1.020162491
1.021109278
1.022212799
1.022997854
1.023138935
1.022515033
1.02137266
1.019803522
1.018437406
1.017438031
1.016912377
1.016818551
1.016985687
1.017251496
1.017438747
1.017613704
1.018164045
1.018964188
1.019655704
1.01988593
1.019668307
1.018853012
1.018340745
1.018359162
1.01859718
1.019305533
1.020851225
1.025612044
1.049523129
1.027422388
1.025680778
1.022526603
1.020916396
1.020029242
1.019813077
1.020125989
1.020881574
1.021899893
1.02256761
1.022527763
1.021973822
1.0210009
1.019783327
1.018718967
1.017938764
1.017678773
1.01752677
1.017145832
1.016999156
1.017171605
1.017632618
1.018348034
1.019132877
1.019517006
1.019354999
1.018823185
1.01799559
1.017583419
1.017657185
1.018107376
1.019046721
1.020517739
1.024305666
1.042974111
1.029237088
1.027888849
1.024906301
1.023000702
1.021831974
1.021229861
1.021247946
1.021697471
1.022470395
1.0228938
1.022755795
1.022218345
1.02150545
1.021077729
1.020626305
1.020083183
1.019630875
1.018836083
1.017700742
1.017283001
1.017507065
1.01806481
1.018592883
1.018854641
1.018747852
1.01838641
1.017979038
1.017480544
1.017304453
1.017623638
1.018303037
1.019164079
1.020235972
1.023259272
1.039900807
1.031421048
1.030688175
1.028095513
1.025891771
1.024514148
1.023638179
1.02337544
1.023497062
1.023940028
1.024117102
1.023965814
1.023887479
1.023973391
1.024259166
1.023763494
1.022297638
1.020595499
1.019106378
1.018144167
1.017847149
1.018042979
1.018271421
1.018263691
1.018053002
1.017873214
1.017687942
1.017510447
1.017378215
1.017630135
1.018279957
1.01882517
1.019090316
1.019655927
1.022169162
1.036061234
1.033518214
1.031096748
1.028978656
1.027550646
1.026559155
1.026096131
1.026013974
1.026293675
1.026422904
1.026447705
1.026650678
1.026793144
1.026537128
1.025174441
1.022890353
1.020686028
1.018975534
1.018029552
1.017724346
1.017726057
1.017668205
1.017549382
1.017445988
1.017460047
1.01755439
1.017677563
1.017964921
1.018499494
1.018984004
1.018968921
1.018683412
1.019070895
1.021208024
1.033894421
1.035368037
1.032833332
1.031088355
1.029755431
1.028771283
1.028199645
1.028214145
1.028650993
1.028871895
1.028747087
1.028519918
1.028156047
1.027419587
1.02587102
1.023409491
1.020932067
1.018828182
1.017807075
1.017430588
1.017291028
1.017175138
1.017222127
1.017515162
1.018019317
1.018433617
1.018757469
1.01901106
1.019062806
1.018986811
1.018704318
1.018355546
1.018806065
1.020685197
1.030991069
1.083275389
1.036374261
1.033898091
1.032225322
1.03104298
1.030209806
1.029749598
1.029792422
1.030326057
1.030545016
1.030219921
1.029731483
1.029209925
1.028249623
1.026534074
1.02374916
1.020762039
1.019057575
1.018161241
1.017656008
1.017465195
1.017415579
1.01769876
1.018471586
1.019238702
1.019539917
1.019495155
1.019103642
1.018534856
1.018390486
1.018371777
1.018398413
1.018918965
1.02056991
1.028808076
1.075488618
1.036894612
1.034478591
1.032900285
1.031837276
1.031131944
1.030770861
1.030946604
1.031689702
1.031937184
1.031532964
1.030866802
1.030011063
1.028585091
1.026543344
1.023637467
1.021383469
1.020262246
1.019307877
1.018774164
1.018562937
1.018584924
1.018895428
1.019357928
1.019550354
1.019451423
1.019181282
1.018419289
1.017756232
1.017919443
1.018378225
1.018734389
1.019148826
1.020450667
1.026972163
1.065397103
1.0366137
1.034301951
1.03265491
1.03177108
1.031153798
1.030949956
1.031365768
1.0324225
1.032785164
1.032293151
1.031368019
1.030179674
1.028702934
1.027001966
1.024748654
1.023128618
1.022352609
1.021396228
1.020670554
1.020251464
1.019989916
1.019700715
1.019610947
1.019608953
1.019333708
1.018642539
1.017940882
1.017605831
1.018129497
1.01876677
1.018959794
1.018939673
1.019902063
1.025279329
1.054765519
1.036237911
1.034204246
1.031974769
1.031141312
1.030601518
1.030542297
1.031156888
1.032474381
1.033122742
1.032692375
1.031962801
1.031086324
1.030022347
1.028528305
1.026815687
1.025768745
1.024976304
1.023616464
1.02235091
1.021468879
1.020898027
1.020370761
1.020045268
1.019694429
1.019192026
1.018685622
1.018223542
1.018221656
1.018712933
1.018754031
1.018476055
1.018430552
1.019321047
1.023999696
1.047921834
1.036586705
1.034846492
1.032346777
1.031528727
1.031042354
1.031146044
1.031848244
1.033193847
1.034017302
1.033799378
1.033283606
1.032597259
1.031780686
1.030795441
1.029795257
1.028606002
1.026921282
1.025052654
1.023543704
1.022569293
1.021942324
1.021251178
1.020528902
1.020180419
1.019760819
1.019381176
1.019293993
1.019079755
1.018810474
1.018388833
1.017959725
1.018184258
1.019135745
1.023094575
1.044175862
1.037313609
1.035668759
1.033138811
1.032434143
1.032004796
1.032116834
1.032881061
1.034288888
1.035141749
1.035089117
1.034819015
1.034443985
1.034104852
1.033719676
1.032603902
1.030413861
1.028140569
1.026184702
1.024584307
1.023473323
1.022747036
1.022017051
1.021556474
1.021347224
1.021035516
1.020737728
1.020312893
1.019447858
1.018841838
1.018194094
1.017970885
1.01842765
1.01936992
1.022441863
1.041150661
1.036576673
1.034000984
1.033464965
1.033174751
1.033271568
1.034053689
1.035400496
1.036523065
1.036827727
1.036839658
)
;

boundaryField
{
    inlet
    {
        type            fixedValue;
        value           nonuniform 0();
    }
    outlet
    {
        type            inletOutlet;
        inletValue      nonuniform 0();
        value           nonuniform 0();
    }
    bottom
    {
        type            slip;
    }
    top
    {
        type            slip;
    }
    obstacle
    {
        type            zeroGradient;
    }
    defaultFaces
    {
        type            empty;
    }
    procBoundary22to15
    {
        type            processor;
        value           uniform 1.322860021;
    }
    procBoundary22to16
    {
        type            processor;
        value           nonuniform List<scalar> 
40
(
1.253917845
1.250490974
1.246941638
1.243367288
1.239857091
1.236497346
1.233213752
1.229889081
1.226377664
1.223008872
1.227491078
1.311807224
1.472149663
1.323395154
1.322382485
1.321792728
1.323180354
1.324312738
1.323276769
1.320809754
1.3177465
1.315176974
1.312853762
1.310666258
1.308679068
1.306706035
1.304861578
1.302756
1.30011111
1.29756662
1.295158557
1.292684861
1.289886398
1.286399778
1.282467569
1.278386055
1.274325521
1.270277115
1.26639622
1.26639622
)
;
    }
    procBoundary22to17
    {
        type            processor;
        value           uniform 1.540019974;
    }
    procBoundary22to21
    {
        type            processor;
        value           nonuniform List<scalar> 
70
(
1.322528245
1.322528245
1.322457623
1.319626133
1.312650974
1.302570461
1.296433524
1.296433524
1.277222137
1.249841179
1.219656203
1.187836855
1.156591778
1.141171261
1.141171261
1.120067539
1.101060545
1.085616761
1.076358104
1.072626464
1.070028017
1.066734095
1.066734095
1.062202002
1.058641342
1.05599762
1.053434788
1.049446392
1.046246315
1.046246315
1.041343405
1.036690324
1.033067387
1.030073151
1.026764515
1.023589245
1.022189313
1.022189313
1.020474287
1.019875715
1.020160746
1.020375488
1.019802549
1.019694221
1.019694221
1.019528085
1.020065248
1.020871698
1.021219083
1.021335274
1.021782994
1.023683827
1.023683827
1.024515304
1.025502927
1.026557666
1.028045105
1.029855607
1.031908681
1.033801238
1.033801238
1.035653624
1.036676589
1.037126277
1.036848205
1.036536005
1.036813185
1.037408032
1.038134582
1.038134582
)
;
    }
    procBoundary22to23
    {
        type            processor;
        value           nonuniform List<scalar> 
65
(
1.540707026
1.540707026
1.539532482
1.539005719
1.540513166
1.54489097
1.551065144
1.555856043
1.558057055
1.562908637
1.570819331
1.578413377
1.583442352
1.587206553
1.587206553
1.583032451
1.589559487
1.594980853
1.601230808
1.610546523
1.62280039
1.63372218
1.639128253
1.638320095
1.63647676
1.634485284
1.63053258
1.63053258
1.662369044
1.672760966
1.672358298
1.657926725
1.653464802
1.651391247
1.642620135
1.617195981
1.57055439
1.503646637
1.450082551
1.395703776