/*--------------------------------*- C++ -*----------------------------------*\
  =========                 |
  \\      /  F ield         | OpenFOAM: The Open Source CFD Toolbox
   \\    /   O peration     | Website:  https://openfoam.org
    \\  /    A nd           | Version:  7
     \\/     M anipulation  |
\*---------------------------------------------------------------------------*/
FoamFile
{
    version     2.0;
    format      ascii;
    class       volVectorField;
    location    "0.1";
    object      U;
}
// * * * * * * * * * * * * * * * * * * * * * * * * * * * * * * * * * * * * * //

dimensions      [0 1 -1 0 0 0 0];

internalField   nonuniform List<vector> 
555
(
(3 6.517111291e-15 0)
(3 7.164657445e-15 0)
(3 7.220788022e-15 0)
(3 5.059263586e-15 0)
(3 4.168049029e-15 0)
(3 3.334160508e-15 0)
(3 3.006076669e-15 0)
(3 2.638575441e-15 0)
(3 2.5214564e-15 0)
(3 1.531982129e-15 0)
(3 1.042551108e-15 0)
(3 1.346554781e-16 0)
(3 -1.473048565e-15 0)
(3 -3.501992147e-15 0)
(3 -5.018900463e-15 0)
(3 -2.010024482e-15 0)
(3 -8.895293879e-17 0)
(3 1.215490736e-15 0)
(3 1.378843454e-15 0)
(3 2.976048592e-17 0)
(3 -7.566606125e-16 0)
(3 -5.411817193e-16 0)
(3 -2.604800336e-17 0)
(3 2.209002808e-16 0)
(3 2.092922874e-16 0)
(3 -8.788330452e-16 0)
(3 -1.539674781e-15 0)
(3 -4.281396e-15 0)
(3 -7.052552677e-15 0)
(3 -7.036856942e-15 0)
(3 -5.01911775e-15 0)
(3 -2.729943142e-15 0)
(3 -1.696781914e-15 0)
(3 8.154209807e-15 0)
(3 9.413968379e-15 0)
(3 1.036203883e-14 0)
(3 9.915728918e-15 0)
(3 8.904486144e-15 0)
(3 7.876660733e-15 0)
(3 6.947925712e-15 0)
(3 6.433564113e-15 0)
(3 6.116821457e-15 0)
(3 5.168160757e-15 0)
(3 3.800480011e-15 0)
(3 6.670822715e-16 0)
(3 -3.26001964e-15 0)
(3 -6.005084968e-15 0)
(3 -7.132404749e-15 0)
(3 -5.791364664e-15 0)
(3 -4.185348243e-15 0)
(3 -1.469830654e-15 0)
(3 -1.675793047e-16 0)
(3 3.591045924e-16 0)
(3 -1.869421661e-17 0)
(3 2.380073477e-15 0)
(3 3.596580532e-15 0)
(3 4.158517918e-15 0)
(3 3.870122094e-15 0)
(3 1.928630647e-15 0)
(3 8.386249233e-16 0)
(3 -1.729783537e-15 0)
(3 -4.472193174e-15 0)
(3 -3.96150949e-15 0)
(3 -2.523794948e-15 0)
(3 -5.169162267e-16 0)
(3 2.659686516e-15 0)
(3 4.680550227e-15 0)
(3 2.439854454e-15 0)
(3 7.888804538e-16 0)
(3 -1.699797428e-16 0)
(3 1.419640888e-15 0)
(3 2.319261413e-15 0)
(3 2.167290838e-15 0)
(3 2.159871497e-15 0)
(3 1.537655463e-15 0)
(3 4.531485354e-16 0)
(3 3.15548743e-16 0)
(3 5.853414261e-16 0)
(3 4.611635045e-16 0)
(3 -1.269121309e-15 0)
(3 -3.599148632e-15 0)
(3 -4.947492293e-15 0)
(3 -6.05853061e-15 0)
(3 -6.835925076e-15 0)
(3 -6.748458241e-15 0)
(3 -6.229681408e-15 0)
(3 -5.355840575e-15 0)
(3 -3.533005782e-15 0)
(3 -1.583602084e-15 0)
(3 1.175897964e-15 0)
(3 2.686422632e-15 0)
(3 3.18939083e-15 0)
(3 2.876982084e-15 0)
(3 1.907329362e-15 0)
(3 8.475262005e-16 0)
(3 4.671155e-16 0)
(3 3.039343559e-16 0)
(3 6.703285388e-16 0)
(3 1.797599429e-15 0)
(3 1.929759255e-15 0)
(3 5.421596713e-15 0)
(3 3.554765982e-15 0)
(3 9.417082799e-16 0)
(3 -4.992976628e-16 0)
(3 -1.728117937e-16 0)
(3 -7.190613688e-16 0)
(3 -2.006958084e-15 0)
(3 -2.815332729e-15 0)
(3 -4.506524042e-15 0)
(3 -4.294326193e-15 0)
(3 -3.807398535e-15 0)
(3 -1.929287307e-15 0)
(3 -7.156375811e-16 0)
(3 -8.750326053e-16 0)
(3 -8.824748783e-16 0)
(3 -1.317787274e-15 0)
(3 -2.074454363e-15 0)
(3 -3.554306327e-15 0)
(3 -5.824441157e-15 0)
(3 -7.340754654e-15 0)
(3 -8.86097062e-15 0)
(3 -9.905500038e-15 0)
(3 -9.074220226e-15 0)
(3 -7.022261577e-15 0)
(3 -3.493300188e-15 0)
(3 1.711545409e-16 0)
(3 1.42421642e-15 0)
(3 2.931490054e-15 0)
(3 3.490351336e-15 0)
(3 4.02262247e-15 0)
(3 4.12550277e-15 0)
(3 4.012461284e-15 0)
(3 3.488846052e-15 0)
(3 2.064844358e-15 0)
(3 1.960504875e-15 0)
(3 1.545067783e-15 0)
(3 2.141027022e-15 0)
(3 2.30267506e-15 0)
(3 1.57805543e-15 0)
(3 1.840118749e-16 0)
(3 -1.151414553e-15 0)
(3 -2.763881547e-15 0)
(3 -3.858342813e-15 0)
(3 -3.379154853e-15 0)
(3 -1.97689105e-15 0)
(3 -1.474029044e-15 0)
(3 -1.125708546e-15 0)
(3 -1.273675546e-15 0)
(3 -2.665468055e-15 0)
(3 -3.344849776e-15 0)
(3 -4.649681012e-15 0)
(3 -4.544520543e-15 0)
(3 -5.582320363e-15 0)
(3 -7.177172367e-15 0)
(3 -6.109754284e-15 0)
(3 -4.969402248e-15 0)
(3 -4.906849122e-15 0)
(3 -4.771372562e-15 0)
(3 -3.571560777e-15 0)
(3 -1.919598062e-15 0)
(3 1.951939988e-15 0)
(3 4.064038486e-15 0)
(3 5.089096646e-15 0)
(3 5.156176796e-15 0)
(3 4.654487187e-15 0)
(3 3.777116854e-15 0)
(3 2.633590205e-15 0)
(3 2.974699001e-15 0)
(3 3.094913627e-15 0)
(3 -3.682629321e-15 0)
(3 -3.248438578e-15 0)
(3 -3.407965212e-15 0)
(3 -4.936159846e-15 0)
(3 -6.36302705e-15 0)
(3 -6.015730403e-15 0)
(3 -4.849187693e-15 0)
(3 -4.673471017e-15 0)
(3 -5.074757828e-15 0)
(3 -5.383775362e-15 0)
(3 -4.913679171e-15 0)
(3 -3.766394853e-15 0)
(3 -2.327093127e-15 0)
(3 -1.704571845e-15 0)
(3 -1.850253411e-15 0)
(3 -3.92936495e-15 0)
(3 -5.887549787e-15 0)
(3 -5.942690158e-15 0)
(3 -5.538335057e-15 0)
(3 -4.008482748e-15 0)
(3 -6.424910203e-16 0)
(3 -4.2164176e-17 0)
(3 9.654087769e-16 0)
(3 2.115108654e-15 0)
(3 3.02775495e-15 0)
(3 3.470768964e-15 0)
(3 4.222642076e-15 0)
(3 3.382689828e-15 0)
(3 2.50285754e-15 0)
(3 8.048723162e-16 0)
(3 -5.141562029e-17 0)
(3 -9.171101046e-16 0)
(3 -1.196076934e-15 0)
(3 2.394103237e-16 0)
(3 -1.030822671e-14 0)
(3 -9.764799296e-15 0)
(3 -8.940722353e-15 0)
(3 -9.054955942e-15 0)
(3 -8.383349624e-15 0)
(3 -7.277639402e-15 0)
(3 -5.875333889e-15 0)
(3 -5.442706788e-15 0)
(3 -5.566574217e-15 0)
(3 -5.533035359e-15 0)
(3 -6.17864877e-15 0)
(3 -6.145503388e-15 0)
(3 -5.651097614e-15 0)
(3 -4.37224853e-15 0)
(3 -4.568675354e-15 0)
(3 -4.579907823e-15 0)
(3 -5.499140364e-15 0)
(3 -5.755694793e-15 0)
(3 -4.15216393e-15 0)
(3 -2.345483276e-15 0)
(3 -1.223336792e-15 0)
(3 -6.489302272e-16 0)
(3 1.291838685e-15 0)
(3 3.124652654e-15 0)
(3 4.97521973e-15 0)
(3 5.5114962e-15 0)
(3 5.020252605e-15 0)
(3 4.080306655e-15 0)
(3 3.112098493e-15 0)
(3 2.623532351e-15 0)
(3 2.687343209e-15 0)
(3 1.687170012e-15 0)
(3 5.691925493e-16 0)
(3 -1.985573446e-16 0)
(3 -4.51764081e-15 0)
(3 -4.969045461e-15 0)
(3 -4.651401231e-15 0)
(3 -4.373873025e-15 0)
(3 -3.391222519e-15 0)
(3 -2.466698242e-15 0)
(3 -1.305193538e-15 0)
(3 -6.959950293e-17 0)
(3 8.154952983e-16 0)
(3 5.898706519e-16 0)
(3 -1.832657871e-15 0)
(3 -3.19224628e-15 0)
(3 -4.002106421e-15 0)
(3 -4.654283675e-15 0)
(3 -4.636585224e-15 0)
(3 -3.853928562e-15 0)
(3 -2.301755194e-15 0)
(3 -6.18772911e-16 0)
(3 -1.052071313e-16 0)
(3 -2.732610218e-16 0)
(3 -6.605706267e-16 0)
(3 -1.614300739e-15 0)
(3 -2.250492909e-15 0)
(3 -2.951032198e-15 0)
(3 -2.081068933e-15 0)
(3 -8.451175148e-16 0)
(3 -3.884565916e-16 0)
(3 1.494955528e-15 0)
(3 3.527079016e-15 0)
(3 4.042372892e-15 0)
(3 3.984902226e-15 0)
(3 3.666223429e-15 0)
(3 2.467663027e-15 0)
(3 1.513240574e-15 0)
(3 2.403286243e-15 0)
(3 2.505312451e-15 0)
(3 1.41561047e-15 0)
(3 1.375534132e-15 0)
(3 9.765801396e-16 0)
(3 1.209808242e-16 0)
(3 -1.39379913e-15 0)
(3 -1.021221588e-15 0)
(3 -9.987668602e-16 0)
(3 -9.083996068e-16 0)
(3 -1.231364158e-15 0)
(3 -1.935554947e-15 0)
(3 -2.192969215e-15 0)
(3 -1.863814507e-15 0)
(3 -1.3708084e-15 0)
(3 -7.727645371e-16 0)
(3 6.724294767e-16 0)
(3 2.44385609e-15 0)
(3 2.69552961e-15 0)
(3 2.446645943e-15 0)
(3 8.639386642e-16 0)
(3 -9.583026772e-16 0)
(3 -3.388369169e-15 0)
(3 -4.975477929e-15 0)
(3 -5.871262427e-15 0)
(3 -5.014215507e-15 0)
(3 -3.766586104e-15 0)
(3 -2.763127395e-15 0)
(3 -1.151285677e-15 0)
(3 7.927003555e-16 0)
(3 2.144552619e-15 0)
(3 2.422151209e-15 0)
(3 1.67004373e-15 0)
(3 5.845558183e-16 0)
(3 6.034423743e-15 0)
(3 6.57326281e-15 0)
(3 6.879997829e-15 0)
(3 6.974065255e-15 0)
(3 6.202525993e-15 0)
(3 3.799358127e-15 0)
(3 2.146187408e-15 0)
(3 -1.458976314e-15 0)
(3 -2.467375351e-15 0)
(3 -2.126892623e-15 0)
(3 -1.194052779e-15 0)
(3 -1.193989211e-15 0)
(3 -1.455529582e-15 0)
(3 -1.737266374e-15 0)
(3 -7.280983365e-16 0)
(3 2.449331768e-15 0)
(3 4.299694302e-15 0)
(3 4.143233731e-15 0)
(3 3.375684259e-15 0)
(3 2.697192494e-15 0)
(3 1.400184425e-15 0)
(3 1.994374596e-16 0)
(3 8.594152976e-16 0)
(3 -1.013837371e-16 0)
(3 -1.148507523e-15 0)
(3 -2.635509693e-15 0)
(3 -3.51702432e-15 0)
(3 -3.29141952e-15 0)
(3 -2.557902353e-15 0)
(3 -1.979502675e-15 0)
(3 -1.034786938e-15 0)
(3 -3.438361607e-16 0)
(3 1.319443015e-15 0)
(3 4.873353892e-16 0)
(3 3.145060668e-15 0)
(3 1.616561908e-15 0)
(3 1.879512025e-15 0)
(3 2.717949967e-15 0)
(3 3.340620598e-15 0)
(3 3.628202463e-15 0)
(3 4.333740424e-15 0)
(3 3.814132146e-15 0)
(3 3.561225676e-15 0)
(3 2.397528484e-15 0)
(3 1.771897195e-15 0)
(3 9.180274256e-16 0)
(3 -3.878663659e-17 0)
(3 -4.265472087e-16 0)
(3 -2.744260319e-16 0)
(3 -3.510735536e-16 0)
(3 -2.301152915e-15 0)
(3 -3.499124908e-15 0)
(3 -4.469875927e-15 0)
(3 -4.471379464e-15 0)
(3 -4.050903027e-15 0)
(3 -2.31126406e-15 0)
(3 -5.450243287e-17 0)
(3 3.470504261e-17 0)
(3 2.44055977e-16 0)
(3 -2.998748679e-15 0)
(3 -4.48793697e-15 0)
(3 -5.88355084e-15 0)
(3 -6.500061625e-15 0)
(3 -6.066960913e-15 0)
(3 -4.578222587e-15 0)
(3 -1.769109742e-15 0)
(3 6.443135657e-16 0)
(3 2.09152648e-15 0)
(3 -2.78378114e-15 0)
(3 -4.05058621e-15 0)
(3 -4.40399195e-15 0)
(3 -4.444897107e-15 0)
(3 -3.336960295e-15 0)
(3 -1.991842323e-15 0)
(3 2.722998397e-16 0)
(3 2.309590161e-15 0)
(3 3.07738746e-15 0)
(3 3.532423172e-15 0)
(3 3.703714186e-15 0)
(3 4.691773133e-15 0)
(3 5.099513809e-15 0)
(3 3.231198761e-15 0)
(3 1.353866647e-15 0)
(3 -2.211305525e-15 0)
(3 -6.56414132e-15 0)
(3 -1.025905154e-14 0)
(3 -1.126324276e-14 0)
(3 -1.002133113e-14 0)
(3 -6.69701838e-15 0)
(3 -3.47316841e-15 0)
(3 -3.123150735e-15 0)
(3 -1.779353402e-15 0)
(3 -5.838955662e-16 0)
(3 1.428931339e-15 0)
(3 2.017405226e-15 0)
(3 1.025927559e-15 0)
(3 2.912530057e-16 0)
(3 -6.480942497e-16 0)
(3 -1.109576508e-15 0)
(3 -1.017292597e-15 0)
(3 -3.412449241e-16 0)
(3 6.348118105e-16 0)
(3 -4.75874529e-15 0)
(3 -4.852644141e-15 0)
(3 -4.992994724e-15 0)
(3 -5.580612344e-15 0)
(3 -5.021710773e-15 0)
(3 -3.821900268e-15 0)
(3 -2.582448121e-15 0)
(3 -1.907578639e-15 0)
(3 -1.993635166e-15 0)
(3 -1.4970423e-15 0)
(3 -1.984924145e-16 0)
(3 1.234065999e-15 0)
(3 2.919444894e-15 0)
(3 4.683048162e-15 0)
(3 4.284438876e-15 0)
(3 1.894246456e-15 0)
(3 -4.812080561e-16 0)
(3 -9.005875091e-16 0)
(3 -7.239946882e-16 0)
(3 -1.275005392e-16 0)
(3 1.782308265e-16 0)
(3 4.212714173e-16 0)
(3 1.988767573e-15 0)
(3 3.94767537e-15 0)
(3 3.88949493e-15 0)
(3 6.0171685e-15 0)
(3 7.467265757e-15 0)
(3 6.659463896e-15 0)
(3 5.951021493e-15 0)
(3 4.652959922e-15 0)
(3 2.546625659e-15 0)
(3 3.191370897e-16 0)
(3 2.512053729e-16 0)
(3 -2.878198603e-15 0)
(3 -3.9091976e-16 0)
(3 -2.943783948e-16 0)
(3 -1.489831582e-15 0)
(3 -3.197555163e-15 0)
(3 -5.289329364e-15 0)
(3 -4.896761574e-15 0)
(3 -2.558078922e-15 0)
(3 1.474347538e-16 0)
(3 1.040024078e-15 0)
(3 8.361452135e-16 0)
(3 4.593151557e-16 0)
(3 -2.206045284e-16 0)
(3 2.301912339e-16 0)
(3 1.137547859e-15 0)
(3 2.333958986e-15 0)
(3 3.351188208e-15 0)
(3 5.083026436e-15 0)
(3 7.061266453e-15 0)
(3 1.026862047e-14 0)
(3 1.13535565e-14 0)
(3 1.007587411e-14 0)
(3 8.963566797e-15 0)
(3 8.248388495e-15 0)
(3 7.426966861e-15 0)
(3 5.408261857e-15 0)
(3 4.660085232e-15 0)
(3 3.278215838e-15 0)
(3 3.426399079e-15 0)
(3 3.282517857e-15 0)
(3 3.114494738e-15 0)
(3 3.078864716e-15 0)
(3 1.64645797e-15 0)
(3 5.178710925e-16 0)
(3 -9.97845135e-16 0)
(3 -1.919066519e-15 0)
(3 -2.541309893e-15 0)
(3 -4.134924339e-15 0)
(3 -5.433332855e-15 0)
(3 -7.125988361e-15 0)
(3 -7.164226712e-15 0)
(3 -6.596875676e-15 0)
(3 -4.454904228e-15 0)
(3 -1.839455659e-15 0)
(3 -1.610852545e-15 0)
(3 -1.629184444e-15 0)
(3 -1.977902177e-15 0)
(3 -2.117046662e-15 0)
(3 -2.443300214e-15 0)
(3 -1.211241486e-15 0)
(3 1.435393909e-15 0)
(3 4.115102364e-15 0)
(3 6.477363573e-15 0)
(3 7.095803799e-15 0)
(3 7.178859128e-15 0)
(3 6.679248774e-15 0)
(3 6.358035759e-15 0)
(3 5.063153671e-15 0)
(3 3.36893445e-15 0)
(3 2.989929744e-15 0)
(3 2.172559549e-15 0)
(3 9.599337103e-16 0)
(3 1.205975764e-15 0)
(3 1.632979199e-15 0)
(3 3.205084918e-15 0)
(3 3.767538406e-15 0)
(3 3.879069135e-15 0)
(3 3.439190425e-15 0)
(3 3.463211094e-15 0)
(3 -2.022168498e-15 0)
(3 -3.404692488e-15 0)
(3 -4.851560145e-15 0)
(3 -6.495120037e-15 0)
(3 -6.487931146e-15 0)
(3 -5.802198504e-15 0)
(3 -5.663244581e-15 0)
(3 -6.095028225e-15 0)
(3 -5.863630118e-15 0)
(3 -5.204826441e-15 0)
(3 -5.243729324e-15 0)
(3 -4.868909715e-15 0)
(3 -4.914153547e-15 0)
(3 -4.942477775e-15 0)
(3 -3.513980038e-15 0)
(3 -2.015873681e-15 0)
(3 7.559976042e-16 0)
(3 1.354884085e-15 0)
(3 -1.779297714e-16 0)
(3 -1.174086948e-15 0)
(3 -2.649391608e-15 0)
(3 -4.192830736e-15 0)
(3 -4.283833133e-15 0)
(3 -4.328801937e-15 0)
(3 -3.852084823e-15 0)
(3 -3.754036473e-15 0)
(3 -3.502001175e-15 0)
(3 -1.344096647e-15 0)
(3 8.728059108e-16 0)
(3 2.473067972e-15 0)
(3 3.139078618e-15 0)
(3 3.372403945e-15 0)
(3 3.578546462e-15 0)
(3 3.347318637e-15 0)
(3 -6.670726749e-15 0)
(3 -6.723034811e-15 0)
(3 -6.045167328e-15 0)
(3 -5.078686311e-15 0)
(3 -3.859410032e-15 0)
(3 -2.31699465e-15 0)
(3 -1.494100861e-15 0)
(3 -1.101253613e-15 0)
(3 1.476678891e-15 0)
(3 1.862305101e-15 0)
(3 1.968309211e-15 0)
(3 2.318359828e-15 0)
)
;

boundaryField
{
    inlet
    {
        type            fixedValue;
        value           nonuniform 0();
    }
    outlet
    {
        type            inletOutlet;
        inletValue      nonuniform 0();
        value           nonuniform 0();
    }
    bottom
    {
        type            slip;
    }
    top
    {
        type            slip;
    }
    obstacle
    {
        type            slip;
    }
    defaultFaces
    {
        type            empty;
    }
    procBoundary2to1
    {
        type            processor;
        value           nonuniform List<vector> 
16
(
(3 4.531627806e-15 0)
(3 7.713640352e-15 0)
(3 3.163345485e-15 0)
(3 4.186546257e-15 0)
(3 1.71911801e-15 0)
(3 -4.987224247e-15 0)
(3 -9.133465042e-15 0)
(3 -4.000883979e-15 0)
(3 1.883368294e-15 0)
(3 5.915329916e-15 0)
(3 3.899470871e-15 0)
(3 -2.093014465e-15 0)
(3 -5.440196946e-15 0)
(3 -1.056819255e-15 0)
(3 -8.191450965e-16 0)
(3 -5.920045522e-16 0)
)
;
    }
    procBoundary2to3
    {
        type            processor;
        value           nonuniform List<vector> 
18
(
(3 2.297080616e-16 0)
(3 2.297080616e-16 0)
(3 7.219529774e-15 0)
(3 7.7788952e-15 0)
(3 1.051562005e-15 0)
(3 7.092347624e-16 0)
(3 2.265546849e-15 0)
(3 2.017124484e-15 0)
(3 1.166687495e-15 0)
(3 1.613099189e-15 0)
(3 1.716514211e-16 0)
(3 1.700601496e-16 0)
(3 3.270740689e-16 0)
(3 -3.855041356e-15 0)
(3 -4.674266893e-15 0)
(3 4.447950255e-15 0)
(3 4.484535695e-15 0)
(3 -6.837798824e-16 0)
)
;
    }
    procBoundary2to8
    {
        type            processor;
        value           nonuniform List<vector> 
35
(
(3 -2.565882809e-15 0)
(3 -1.815851406e-15 0)
(3 -1.456857768e-15 0)
(3 -4.015116175e-16 0)
(3 -1.179130159e-15 0)
(3 -1.512768747e-15 0)
(3 -1.452699932e-15 0)
(3 -1.301374266e-15 0)
(3 -1.278725282e-15 0)
(3 -9.525406252e-16 0)
(3 -1.836361388e-15 0)
(3 -2.057098556e-15 0)
(3 -2.22733824e-15 0)
(3 -2.252773853e-15 0)
(3 -1.997370261e-15 0)
(3 -1.304160834e-15 0)
(3 -1.30106322e-15 0)
(3 -2.001110386e-15 0)
(3 -2.482937104e-15 0)
(3 -2.714704817e-15 0)
(3 -3.661939318e-15 0)
(3 -5.021145452e-15 0)
(3 -5.021145452e-15 0)
(3 -3.682582063e-15 0)
(3 -4.12457648e-15 0)
(3 -3.989539393e-15 0)
(3 -3.272957799e-15 0)
(3 -3.476285864e-15 0)
(3 -3.221359595e-15 0)
(3 -2.412727057e-15 0)
(3 -5.658066095e-16 0)
(3 -2.553541495e-16 0)
(3 1.882935934e-15 0)
(3 2.660498516e-15 0)
(3 2.670640074e-15 0)
)
;
    }
}


// ************************************************************************* //
