/*--------------------------------*- C++ -*----------------------------------*\
  =========                 |
  \\      /  F ield         | OpenFOAM: The Open Source CFD Toolbox
   \\    /   O peration     | Website:  https://openfoam.org
    \\  /    A nd           | Version:  7
     \\/     M anipulation  |
\*---------------------------------------------------------------------------*/
FoamFile
{
    version     2.0;
    format      ascii;
    class       volScalarField;
    location    "4.5";
    object      T;
}
// * * * * * * * * * * * * * * * * * * * * * * * * * * * * * * * * * * * * * //

dimensions      [0 0 0 1 0 0 0];

internalField   nonuniform List<scalar> 
5000
(
1
1
1
1
1
1
1
1
1
1
1
1
1
1
1
1
1
1
1
1
1
1
1
1
1
1
1
1
1
1
1
1
1
1
1
1
1
1
1
1
1
1
1
1
1
1
1
1
1
1
1
1
1
1
1
1
1
1
1
1
1
1
1
1
1
1
1
1
1
1
1
1
1
1
1
1
1
1
1
1
1
1
1
1
1
1
1
1
1
1
1
1
1
1
1
1
1
1
1
1
1
1
1
1
1
1
1
1
1
1
1
1
1
1
1
1
1
1
1
1
1
1
1
1
1
1
1
1
1
1
1
1
1
1
1
1
1
1
1
1
1
1
1
1
1
1
1
1
1
1
1
1
1
1
1
1
1
1
1
1
1
1
1
1
1
1
1
1
1
1
1
1
1
1
1
1
1
1
1
1
1
1
1
1
1
1
1
1
1
1
1
1
1
1
1
1
1
1
1
1
1
1
1
1
1
1
1
1
1
1
1
1
1
1
1
1
1
1
1
1
1
1
1
1
1
1
1
1
1
1
1
1
1
1
1
1
1
1
1
1
1
1
1
1
1
1
1
1
1
1
1
1
1
1
1
1
1
1
1
1
1
1
1
1
1
1
1
1
1
1
1
1
1
1
1
1
1
1
1
1
1
1
1
1
1
1
1
1
1
1
1
1
1
1
1
1
1
1
1
1
1
1
1
1
1
1
1
1
1
1
1
1
1
1
1
1
1
1
1
1
1
1
1
1
1
1
1
1
1
1
1
1
1
1
1
1
1
1
1
1
1
1
1
1
1
1
1
1
1
1
1
1
1
1
1
1
1
1
1
1
1
1
1
1
1
1
1
1
1
1
1
1
1
1
1
1
1
1
1
1
1
1
1
1
1
1
1
1
1
1
1
1
1
1
1
1
1
1
1
1
1
1
1
1
1
1
1
1
1
1
1
1
1
1
1
1
1
1
1
1
1
1
1
1
1
1
1
1
1
1
1
1
1
1
1
1
1
1
1
1
1
1
1
1
1
1
1
1
1
1
1
1
1
1
1
1
1
1
1
1
1
1
1
1
1
1
1
1
1
1
1
1
1
1
1
1
1
1
1
1
1
1
1
1
1
1
1
1
1
1
1
1
1
1
1
1
1
1
1
1
1
1
1
1
1
1
1
1
1
1
1
1
1
1
1
1
1
1
1
1
1
1
1
1
1
1
1
1
1
1
1
1
1
1
1
1
1
1
1
1
1
1
1
1
1
1
1
1
1
1
1
1
1
1
1
1
1
1
1
1
1
1
1
1
1
1
1
1
1
1
1
1
1
1
1
1
1
1
1
1
1
1
1
1
1
1
1
1
1
1
1
1
1
1
1
1
1
1
1
1
1
1
1
1
1
1
1
1
1
1
1
1
1
1
1
1
1
1
1
1
1
1
1
1
1
1
1
1
1
1
1
1
1
1
1
1
1
1
1
1
1
1
1
1
1
1
1
1
1
1
1
1
1
1
1
1
1
1
1
1
1
1
1
1
1
1
1
1
1
1
1
1
1
1
1
1
1
1
1
1
1
1
1
1
1
1
1
1
1
1
1
1
1
1
1
1
1
1
1
1
1
1
1
1
1
1
1
1
1
1
1
1
1
1
1
1
1
1
1
1
1
1
1
1
1
1
1
1
1
1
1
1
1
1
1
1
1
1
1
1
1
1
1
1
1
1
1
1
1
1
1
1
1
1
1
1
1
1
1
1
1
1
1
1
1
1
1
1
1
1
1
1
1
1
1
1
1
1
1
1
1
1
1
1
1
1
1
1
1
1
1
1
1
1
1
1
1
1
1
1
1
1
1
1
1
1
1
1
1
1
1
1
1
1
1
1
1
1
1
1
1
1
1
1
1
1
1
1
1
1
1
1
1
1
1
1
1
1
1
1
1
1
1
1
1
1
1
1
1
1
1
1
1
1
1
1
1
1
1
1
1
1
1
1
1
1
1
1
1
1
1
1
1
1
1
1
1
1
1
1
1
1
1
1
1
1
1
1
1
1
1
1
1
1
1
1
1
1
1
1
1
1
1
1
1
1
1
1
1
1
1
1
1
1
1
1
1
1
1
1
1
1
1
1
1
1
1
1
1
1
1
1
1
1
1
1
1
1
1
1
1
1
1
1
1
1
1
1
1
1
1
1
1
1
1
1
1
1
1
1
1
1
1
1
1
1
1
1
1
1
1
1
1
1
1
1
1
1
1
1
1
1
1
1
1
1
1
1
1
1
1
1
1
1
1
1
1
1
1
0.9999999978
1
1
1
1
1
1
1
1
1
1
1
1
1
1
1
1
1
1
1
1
1
1
1
1.000000002
0.9999999485
1
1
1
1
1
1
1
1
1
1
1
1
1
1
1
1
1
1
1
1
1.000000001
1.000000007
1.000000032
1.00000107
0.9999997449
1
1
1
1
1
1
1
1
1
1
1
1
1
1
1
1
1.000000002
1.000000014
1.000000071
1.000000366
1.000001508
1.000006312
1.000019556
1.000113878
1.000108319
1
1
1
1
1
1
1
1
1
1
1
1.000000001
1.000000005
1.000000033
1.000000166
1.000000725
1.000002749
1.000009461
1.000030558
1.000089591
1.000248975
1.000614905
1.001414557
1.003064591
1.004989637
1
1
1
1
1
1
1
1.000000001
1.00000001
1.000000067
1.000000339
1.000001457
1.000005387
1.000017507
1.000052803
1.000139645
1.000353877
1.000800547
1.001794799
1.003504314
1.006769034
1.011470878
1.018777969
1.027798852
1.037942681
1
1
1
1.000000001
1.000000011
1.000000094
1.00000056
1.000002535
1.000009732
1.000031114
1.000091983
1.00023501
1.000564288
1.001186249
1.002450873
1.004500486
1.008180848
1.013367928
1.021328725
1.030656483
1.042469776
1.054553725
1.067339981
1.079995794
1.090104288
1.000000002
1.000000046
1.000000489
1.000003053
1.000013932
1.000049029
1.000150144
1.000386067
1.000898528
1.001824409
1.003576612
1.006291867
1.010508351
1.016024098
1.024066401
1.03391037
1.045619159
1.058528562
1.070549816
1.081298336
1.090449861
1.099800282
1.106098406
1.111420007
1.113488201
1.000007612
1.000043233
1.000188024
1.000560501
1.001393828
1.00287543
1.005413786
1.009223727
1.01459812
1.021055997
1.029885439
1.039773523
1.050597951
1.06209712
1.074529807
1.087178177
1.097879508
1.107189646
1.111395002
1.115323962
1.120495649
1.122778087
1.122955253
1.123456948
1.123532739
1.00103223
1.003227887
1.007515212
1.013449759
1.020933899
1.028787018
1.038493532
1.048632953
1.056800425
1.065700137
1.075649478
1.08321645
1.089786527
1.096977799
1.102469079
1.105971947
1.109782204
1.114381172
1.118384477
1.121217451
1.123912576
1.124634006
1.124377686
1.123079012
1.122661633
1.015680792
1.033573888
1.051829238
1.068988031
1.084475854
1.099123233
1.111062803
1.120789429
1.12986286
1.139745199
1.143178263
1.145441558
1.148737922
1.150256188
1.14942923
1.146540941
1.141896518
1.137603196
1.134176358
1.130889684
1.126858905
1.123825763
1.12164698
1.119868611
1.118860152
1
1
1
1
1
1
1
1
1
1
1
1.000000005
1.000000175
1.000004169
1.000065178
1.000652673
1.004308457
1.018034997
1.049066498
1.09247674
1.127487838
1.156329962
1.169153711
1.163956838
1.144817091
1
1
1
1
1
1
1
1
1
1
1.000000004
1.000000177
1.000003857
1.00006469
1.000620826
1.003976108
1.015588004
1.038744563
1.065289219
1.08827688
1.113973191
1.129534403
1.146032314
1.14498633
1.134793339
1
1
1
1
1
1
1
1
1
1.000000004
1.000000138
1.000003948
1.000055883
1.000622226
1.003922861
1.015272099
1.038703108
1.062417262
1.076380483
1.08342676
1.092633185
1.104888885
1.118437158
1.129585379
1.122614241
1
1
1
1
1
1
1
1
1.000000003
1.000000143
1.000003107
1.000060065
1.000546581
1.004065995
1.015460657
1.039080186
1.064076841
1.080099856
1.082111449
1.081323041
1.079831805
1.080335089
1.08187064
1.092706536
1.09083331
1
1
1
1
1
1
1
1.000000002
1.000000097
1.000003373
1.00004659
1.000615915
1.003536534
1.016674916
1.039650697
1.064772303
1.077428392
1.083948551
1.083563953
1.079713792
1.07121801
1.058491624
1.05012161
1.051090961
1.058086305
1
1
1
1
1
1
1.000000002
1.000000089
1.000002278
1.00005245
1.000472475
1.004061957
1.015146322
1.041198964
1.067486801
1.082792102
1.0829818
1.083529292
1.080753175
1.07113584
1.057502933
1.041295952
1.024056223
1.016597671
1.022015167
1
1
1
1
1
1.000000001
1.000000066
1.000002371
1.00003611
1.000540666
1.003231704
1.016598099
1.041964495
1.065164869
1.082204041
1.086942578
1.085912916
1.080829324
1.070716254
1.056501449
1.03832083
1.023971188
1.005428257
0.9921797373
0.9879088247
1
1
1
1
1.000000001
1.000000038
1.000001613
1.000039732
1.000393307
1.003632676
1.014540541
1.041081967
1.074082118
1.082252693
1.085122973
1.086411264
1.082615181
1.071720475
1.055326548
1.038869861
1.019815884
1.004568712
0.9893640113
0.9739371673
0.9613407662
1
1
1
1
1.000000032
1.000001117
1.000026892
1.000441343
1.002862094
1.01542715
1.042109277
1.066797799
1.087234871
1.088975007
1.087793282
1.0827723
1.071027917
1.055095187
1.035140434
1.018276078
1.000785364
0.9844410142
0.9712049895
0.9547423168
0.9381684275
1
1
1
1.000000011
1.000000945
1.000022332
1.000313515
1.00312763
1.013944937
1.040066206
1.076025216
1.08303642
1.087559738
1.088871807
1.083778556
1.071424827
1.052800486
1.034417004
1.014818143
0.9969890574
0.9817555646
0.9645766226
0.952931159
0.9381071656
0.927594428
1
1
1.000000008
1.000000399
1.000018501
1.000295491
1.002446945
1.014465245
1.040920646
1.068625609
1.091846827
1.092010426
1.090332618
1.084410495
1.070860485
1.052024393
1.030843623
1.011270746
0.9933444294
0.9750140683
0.9602626295
0.9438102894
0.9308896286
0.9205897441
0.9210559861
1
1.000000001
1.00000033
1.000009493
1.000248281
1.002447946
1.012581171
1.040293479
1.076903489
1.086626476
1.092684806
1.092476398
1.08572829
1.07110982
1.049917528
1.029471565
1.007804777
0.9886983094
0.9716068208
0.9535890772
0.941249934
0.9287916529
0.9215754179
0.9178730052
0.9207238043
1
1.000000062
1.000008402
1.000151086
1.002168636
1.012692861
1.03929278
1.071396006
1.096313685
1.096496602
1.094464208
1.086725906
1.069712026
1.049209313
1.025462596
1.003547689
0.9841640772
0.9633680979
0.9479462629
0.9306599623
0.9196390858
0.9154714296
0.9166385601
0.918430323
0.9382462967
1
1.000001997
1.00014075
1.001512987
1.012188555
1.038709736
1.076217668
1.091011021
1.098550999
1.097603537
1.088405622
1.070647463
1.047105588
1.022181752
1.000426765
0.9778647793
0.9596045059
0.9416965923
0.9275914574
0.9197508855
0.9138522248
0.9141713413
0.9192689266
0.9336876898
0.9675761009
1.000000097
1.000045584
1.001484101
1.009496305
1.039409352
1.075316963
1.099116517
1.098538526
1.097586174
1.089187405
1.070463318
1.044396343
1.01915673
0.9941566787
0.9707689901
0.9499508215
0.9321494234
0.9176708783
0.9109013502
0.9126112356
0.9144650326
0.9247641907
0.9443305656
0.9693584867
0.9938830112
1.000007748
1.000691591
1.0095395
1.036468729
1.072848971
1.100566696
1.104663922
1.102087494
1.089484281
1.06804272
1.041514059
1.014862572
0.987358415
0.9657997806
0.9454230918
0.9252217815
0.9163741581
0.9098742967
0.9095491575
0.9134962812
0.9290119094
0.9578099883
0.9802811364
0.9907383903
0.9988174024
1.000263034
1.006436958
1.034725541
1.081441486
1.099174753
1.106282805
1.104545847
1.092642252
1.068178634
1.038991366
1.007944373
0.9816883466
0.9554816777
0.9294195917
0.9172113883
0.9069537136
0.9077322905
0.909314035
0.919696705
0.9417269698
0.9667756489
0.9840363894
0.9986646971
1.002829416
1.002799933
1.003887937
1.032557613
1.073705301
1.10695002
1.106918254
1.105279979
1.092755477
1.066586213
1.034216783
1.002957201
0.972781964
0.9470068546
0.9279065449
0.9103312064
0.901909463
0.9022686536
0.9072851663
0.9233171713
0.9541112312
0.9834963283
0.9993815096
1.00136506
1.003932939
1.005969302
1.005936434
1.025476252
1.078107201
1.106607287
1.113030964
1.110201496
1.093219181
1.063588236
1.029555475
0.9919847804
0.9613720354
0.9341123841
0.9086706893
0.9004227242
0.9013319891
0.902731865
0.9111759971
0.9375278087
0.9684543036
0.9880260832
0.9972793878
1.00604309
1.005911333
1.006230543
1.006596951
1.00737315
1.075786247
1.106214493
1.111569424
1.110611148
1.094923505
1.063536428
1.020197314
0.9867588912
0.9540611229
0.9209142314
0.9061658172
0.8909549162
0.8917086546
0.8978326199
0.9213294704
0.9529602844
0.9778190916
1.00110356
1.007312483
1.00708657
1.008405372
1.008036235
1.007179308
1.007281739
1.008706754
1.114040694
1.119568906
1.115575041
1.095107519
1.05651707
1.015101364
0.9710831981
0.9289556731
0.9089121546
0.8895277892
0.8909673452
0.8926671594
0.9036727186
0.9357264154
0.9709252767
0.9987480669
1.004563193
1.009235705
1.011732573
1.011672994
1.01125625
1.010342005
1.009531807
1.009641474
1.010768227
1.118875533
1.117577639
1.097700899
1.056703471
1.004958492
0.9595961943
0.9282925982
0.8973553885
0.877024079
0.8780408971
0.886086144
0.9187375217
0.9592800428
0.9912835738
1.002272523
1.010814997
1.011947041
1.01195128
1.011964468
1.011838321
1.011582644
1.011084114
1.010931828
1.011293362
1.012248141
1.1221327
1.100611135
1.048531928
0.989332268
0.9370091717
0.8931907942
0.8784767406
0.8773704375
0.877973755
0.894881289
0.9359576925
0.9765711007
1.003968617
1.009794212
1.009469508
1.011840774
1.011501024
1.01069232
1.010224053
1.010467493
1.010960236
1.011435292
1.011818356
1.012363109
1.012289362
1.106585956
1.04449078
0.9717142828
0.909197175
0.8779473782
0.8497670717
0.8507470742
0.8614354362
0.900534716
0.9583418307
0.9955999015
1.000005354
1.008224486
1.009771968
1.00691526
1.006833379
1.00709882
1.007109207
1.007280925
1.007827057
1.008769828
1.00957234
1.009994315
1.009979756
1.009779067
1.050400729
0.8994058329
0.843592125
0.8292443104
0.8325357243
0.8352676157
0.8567417405
0.9189944688
0.974477098
0.9858079932
0.9988300955
0.9980763726
0.9987627901
1.000647906
1.000629581
1.000869912
1.001441353
1.002016167
1.002582911
1.003090526
1.003607315
1.004021544
1.004478072
1.004846195
1.005234004
0.9083396228
0.9161177779
0.8551591986
0.8346005887
0.834824088
0.843951893
0.8961811398
0.9721417965
0.9972387199
0.9910430521
0.9972047073
0.9960383308
0.9940144524
0.9954257709
0.9966961093
0.9972060032
0.9981777526
0.9987987359
0.9993116119
1.000239315
1.000987085
1.001357374
1.001709705
1.00192817
1.002445267
0.9108716506
0.9160126524
0.8621516271
0.8382880241
0.8376208165
0.8538860291
0.9135874709
0.9744753118
0.9931251985
0.9881946585
0.9932068999
0.9930799248
0.9927799423
0.9945255686
0.9959296621
0.9966606858
0.9981261274
0.9991490452
0.9995773806
1.000204885
1.000947753
1.001494203
1.001979292
1.002152636
1.001987478
0.9169081695
0.9136336904
0.8675004926
0.8421966839
0.8404088574
0.8643686397
0.9286001896
0.9743667339
0.9887099715
0.9840992522
0.9886698731
0.9888142019
0.9896931263
0.9920420389
0.9939534459
0.9949781472
0.9965142674
0.9978253507
0.9986576956
0.999060028
0.9992967179
0.9998481384
1.000719363
1.001237066
1.001198484
0.9203522489
0.9107616199
0.8729130734
0.8458443218
0.8448866154
0.8754472237
0.9452204504
0.9773879748
0.9887339176
0.9822642055
0.9858143126
0.9859666752
0.9869675124
0.989332672
0.9916965785
0.992728464
0.9940830167
0.9955844812
0.9970649507
0.9971854258
0.9973266205
0.9976906605
0.9986631267
0.999714552
1.000726259
0.922777142
0.9078343786
0.8774584915
0.8490706151
0.8508634986
0.8903942333
0.9549018509
0.9821100195
0.9921210258
0.9843101118
0.9876335825
0.9868497319
0.9865545658
0.9878650345
0.9904045108
0.9913984722
0.9924825485
0.9940187165
0.995699975
0.9961529347
0.996164879
0.9964331232
0.9974246841
0.9987312248
1.000963917
0.9235886258
0.9061895735
0.8806288749
0.8545137395
0.8615782199
0.9115201377
0.9616450002
0.9850502603
0.993166346
0.9878148828
0.9908368331
0.9896009562
0.9879710834
0.9884111064
0.9907793376
0.9919883105
0.9926403902
0.9936355023
0.9957726187
0.9969131772
0.9969315423
0.9967830091
0.9972491168
0.9986978325
1.001275102
0.9233053267
0.9052760342
0.8833038148
0.8609458064
0.8741772071
0.9284414362
0.9701610611
0.9864718818
0.9918771854
0.9895835135
0.9924467268
0.9911523073
0.9896349693
0.9899166741
0.9920951255
0.9939793265
0.9953837543
0.9964435041
0.998038525
0.9992920966
0.9994872815
0.9993164519
0.9994587179
1.000106135
1.001187911
0.9224724463
0.9059210734
0.8868610273
0.8699319399
0.8899323297
0.9396706677
0.9804442267
0.9881223098
0.9905559783
0.9902285509
0.9930116929
0.9921724854
0.9916808723
0.9924611736
0.9938831375
0.9956733321
0.99776623
0.9990016527
1.000038211
1.000901397
1.001347669
1.001536376
1.001632183
1.001567626
1.001352622
0.9215353363
0.9067734187
0.8911735575
0.879485429
0.9050947416
0.9582667458
0.9892520085
0.9931552657
0.9927483289
0.9920212748
0.9948851106
0.9947680706
0.9956351
0.9964392674
0.9969426886
0.9977883102
0.999615689
1.000813436
1.001593052
1.002196919
1.002717918
1.003069244
1.003245503
1.003350305
1.003494579
0.9200997572
0.9079302828
0.8970639168
0.8902291179
0.9251981016
0.9819099588
0.9981701914
1.003024853
1.001306288
0.9985625843
1.001349721
1.001169795
1.0017595
1.002152801
1.002401612
1.002293459
1.003241142
1.004267479
1.004908067
1.005227435
1.005517394
1.005838676
1.006216515
1.006947756
1.007982213
0.9187569868
0.9096461642
0.9048200706
0.9068240373
0.9573200689
0.9976662495
1.009513092
1.015709777
1.014405973
1.00929442
1.010940301
1.009718293
1.009288592
1.009516675
1.010211235
1.009940822
1.01022164
1.010976789
1.011594449
1.011675687
1.011463478
1.011499922
1.011908026
1.012642105
1.013731086
0.918225566
0.9130873705
0.9126492944
0.9248771728
0.9820640007
1.010230602
1.022120173
1.027016919
1.026449438
1.020996781
1.021870489
1.019634572
1.018440108
1.018755233
1.020379096
1.020230971
1.019809102
1.020100846
1.020878867
1.020911388
1.020299244
1.019819518
1.01997772
1.020276949
1.021106629
0.9186309981
0.9166268171
0.9218330386
0.9457829604
1.001092594
1.027989381
1.034492131
1.036270798
1.035643955
1.032528154
1.033546919
1.030907384
1.0293932
1.029810555
1.031725457
1.031719936
1.031116755
1.031307071
1.032096924
1.032126481
1.03141282
1.030557812
1.030252079
1.029925779
1.030247764
0.9204253778
0.9200146746
0.932580984
0.9676060383
1.028849678
1.047365381
1.046891968
1.043057698
1.042876868
1.04214418
1.043787568
1.042572663
1.041615921
1.041747944
1.042959438
1.043074029
1.043213429
1.043302605
1.043765027
1.04388379
1.043487082
1.042835616
1.042148861
1.041402935
1.041517999
0.9218414782
0.9252128522
0.9445375601
0.9926622404
1.055299995
1.058857615
1.053787697
1.050887899
1.050256025
1.05120559
1.053919278
1.053426052
1.053069734
1.052871007
1.053258414
1.054141611
1.054868919
1.054964428
1.055350485
1.055709683
1.055632549
1.055323765
1.054475178
1.053903624
1.053764776
0.9246420987
0.9316366185
0.9615067831
1.031930935
1.072411699
1.068581019
1.063757045
1.062007937
1.060679264
1.060829852
1.063829649
1.064270593
1.06387146
1.062747844
1.062895793
1.064038219
1.065815075
1.06605187
1.066314474
1.066759053
1.067101383
1.067164723
1.066582836
1.066597901
1.067017251
0.9280576584
0.9385575245
0.9849016787
1.066245932
1.08407536
1.078468553
1.074360491
1.075479244
1.074234432
1.071987074
1.074216569
1.073835855
1.073302181
1.072647738
1.073768143
1.07479477
1.076278671
1.077126078
1.07785498
1.078177054
1.078379704
1.078327829
1.078467313
1.079280923
1.080095164
0.9316205629
0.9482662532
1.008334317
1.08474209
1.096984677
1.088086575
1.085620104
1.087532542
1.086704896
1.083678613
1.084626928
1.083348179
1.083593559
1.084282794
1.086095883
1.086752418
1.087618465
1.089090427
1.090163583
1.090184347
1.089806693
1.089493833
1.090103379
1.090835667
1.092096716
0.9359795909
0.9596144739
1.032652132
1.103893866
1.108921292
1.099952979
1.094766798
1.097663291
1.097379667
1.094072368
1.095947959
1.094713663
1.095041912
1.096556358
1.098629998
1.098638589
1.098998036
1.100719332
1.101950298
1.101717558
1.100950034
1.100385835
1.100653144
1.100855581
1.101464484
0.9390632034
0.9739718512
1.060478138
1.123302483
1.121109524
1.10721215
1.100764516
1.102802097
1.1051008
1.105098516
1.107449898
1.10592882
1.105570259
1.106634921
1.10843858
1.108229373
1.108610963
1.110132574
1.111147896
1.11090127
1.110260218
1.109525401
1.108918623
1.108652203
1.10868311
0.9425344925
0.9949174063
1.094851407
1.138970421
1.127472947
1.110785481
1.107778414
1.110332154
1.113342307
1.114728741
1.117048142
1.114683598
1.113128703
1.114208108
1.115568887
1.115928887
1.116092265
1.117253375
1.117853156
1.117629635
1.116643576
1.115718328
1.114738922
1.114155139
1.113857464
0.9511197381
1.024857483
1.125344729
1.14748473
1.133888545
1.118996752
1.118173599
1.11878755
1.119473725
1.119367146
1.121395483
1.12026114
1.118157607
1.11852203
1.119706882
1.120519369
1.120781519
1.121201625
1.121361843
1.121303322
1.120607758
1.119617442
1.118525666
1.117948424
1.117512732
0.9702082302
1.06162525
1.153636796
1.157395683
1.141428368
1.126805265
1.12785778
1.129015186
1.125105259
1.121231012
1.122265888
1.121621331
1.119856181
1.118639841
1.120940652
1.12117854
1.121637907
1.121405906
1.12148405
1.121758987
1.121861507
1.120897509
1.119593484
1.119343766
1.118963761
0.9855628733
1.106146871
1.172855177
1.163834004
1.142716833
1.128316929
1.131863225
1.134457393
1.128607722
1.12335237
1.124223183
1.121381701
1.119459813
1.119140453
1.121639861
1.121873906
1.122055195
1.121970093
1.122329422
1.12232164
1.121720099
1.120487893
1.119723672
1.119460698
1.118829877
1.012164811
1.155475989
1.182044178
1.168333927
1.141806357
1.128901413
1.133248259
1.134296115
1.129486705
1.125452543
1.125840594
1.122557546
1.120300088
1.120789622
1.122822022
1.122737913
1.123005752
1.123387859
1.123404258
1.12312984
1.122170555
1.120929214
1.120511279
1.120197226
1.119568891
1.014102987
1.161514791
1.185297647
1.171909152
1.14345818
1.130085681
1.130151468
1.130246957
1.128322248
1.125688113
1.126997299
1.124414267
1.122129225
1.123092821
1.124181495
1.123054823
1.123940423
1.124783889
1.124790433
1.123927413
1.12257027
1.121513267
1.120912202
1.120210555
1.119575749
0.9884207329
1.114978842
1.173479508
1.170682816
1.145083483
1.127592583
1.126284027
1.127351887
1.126369172
1.125281854
1.126723709
1.124952504
1.122571679
1.123638611
1.124490968
1.123321541
1.124165092
1.125336017
1.125480002
1.124613406
1.123228816
1.121953157
1.120717547
1.12001564
1.119601239
0.9710438221
1.064553772
1.149614245
1.161504147
1.141339706
1.124222108
1.122032419
1.12562465
1.126711361
1.124547879
1.125745665
1.122479992
1.120702873
1.121687781
1.123067537
1.122837115
1.122597825
1.123636437
1.124029463
1.123667935
1.122645088
1.121259078
1.11958913
1.119003001
1.118849165
0.9512108772
1.021380904
1.119587339
1.148237577
1.135106543
1.119083246
1.119933154
1.124142855
1.122510909
1.119307027
1.120611873
1.117577442
1.116250585
1.116642059
1.119004291
1.119304158
1.119155958
1.119744907
1.120315338
1.120290995
1.119969188
1.118970153
1.118149531
1.117757849
1.117604946
0.9428081517
0.9935257528
1.092482595
1.133259087
1.126125853
1.113197885
1.113826173
1.117331108
1.114973625
1.111597344
1.113166379
1.113003276
1.112110042
1.11129234
1.113217258
1.113578055
1.114787257
1.11541501
1.115651016
1.115386455
1.115420395
1.115014531
1.114528746
1.114253036
1.114253198
0.9387582515
0.9759730257
1.068243105
1.122182444
1.116221118
1.104387863
1.102884656
1.10527667
1.105521667
1.104078624
1.106088858
1.105562089
1.105353865
1.105529122
1.106181391
1.106759796
1.107669861
1.108820149
1.10958627
1.109639629
1.109344993
1.108518135
1.107956842
1.107992818
1.108377294
0.9348432448
0.9603457274
1.039858457
1.10857793
1.105721843
1.095502271
1.090714789
1.091801256
1.093042119
1.094544399
1.097334116
1.097036119
1.095819008
1.095871901
1.096467329
1.097546143
1.098880319
1.099876198
1.100978713
1.101165127
1.100800538
1.099829213
1.099454329
1.099889975
1.100513674
0.9312046292
0.9477919257
1.006254764
1.084452727
1.101143986
1.08983062
1.081360956
1.080763481
1.082108927
1.083962218
1.086850998
1.086393164
1.085674867
1.085881533
1.087122764
1.088502226
1.08953364
1.090483498
1.091853841
1.092029766
1.091397012
1.090118939
1.089618252
1.090159397
1.090877151
0.9276717602
0.9384164266
0.9806478239
1.051447981
1.090180715
1.084545859
1.076725657
1.073646295
1.07450575
1.073540772
1.07530553
1.074056035
1.073560617
1.075130744
1.077439775
1.077967828
1.07833521
1.079130548
1.08046018
1.080589949
1.080134177
1.079557032
1.079350402
1.079600528
1.080273288
0.9255832709
0.9307698088
0.9618021943
1.028281616
1.073410143
1.070567208
1.068908583
1.067282228
1.067343709
1.063793454
1.064179126
1.06188095
1.061416233
1.062631031
1.065285593
1.065586542
1.065770819
1.066375923
1.06753895
1.067669862
1.067420385
1.067299374
1.067375564
1.066986104
1.067577292
0.9222128086
0.9254361981
0.9459144963
1.004565006
1.0525918
1.054935752
1.056750558
1.056986526
1.056766643
1.052198032
1.053557835
1.051251104
1.050347052
1.050637825
1.052741932
1.053130429
1.053015381
1.053383136
1.05409392
1.054292835
1.054269392
1.054396194
1.054402506
1.054184499
1.054485869
0.9200492005
0.9214558282
0.9316871409
0.9721289502
1.035329028
1.039871539
1.043602293
1.045945233
1.043987572
1.040051393
1.041835628
1.041122424
1.040746048
1.040000793
1.040441934
1.040532408
1.040822588
1.041365622
1.041716938
1.041662678
1.041577059
1.0414972
1.041531009
1.041452492
1.041760352
0.9193409588
0.916124462
0.9217327636
0.9437754787
1.008402743
1.028794553
1.031857562
1.032467192
1.028994236
1.028488283
1.031163629
1.031171241
1.031176382
1.030284627
1.029709459
1.02926998
1.030305824
1.031058898
1.031208923
1.030944806
1.030512435
1.030046848
1.029522781
1.029962258
1.030706088
0.9186447263
0.9121040965
0.9129054577
0.9219211965
0.9706742504
1.01532763
1.021493393
1.020535139
1.019117035
1.018778335
1.02143345
1.021113283
1.021173556
1.020791974
1.020222477
1.019682445
1.020411559
1.02133483
1.021757155
1.021681066
1.021177718
1.020298489
1.019601282
1.02004612
1.021134516
0.9183696979
0.9098570155
0.9042829473
0.9056619033
0.9454622702
0.994680006
1.010514388
1.012751743
1.012401549
1.010392244
1.012206979
1.010927244
1.01069343
1.010596308
1.011270823
1.011594371
1.012103609
1.012712602
1.01341464
1.013553541
1.01324456
1.012336035
1.011976381
1.012496141
1.013672174
0.9202906286
0.908062532
0.8973104729
0.8928617068
0.9309330641
0.9762284441
1.00049732
1.006486498
1.006804309
1.002801332
1.004196244
1.002311162
1.001041145
1.001517148
1.003434
1.004498645
1.005083273
1.005632498
1.006663008
1.007234323
1.007049303
1.006575538
1.006752144
1.007290368
1.008263248
0.9216082156
0.9068003895
0.8915359207
0.879426215
0.9105934007
0.9654087553
0.9900769519
0.999930272
1.001451315
0.9960901412
0.9977090625
0.9959063268
0.9943220762
0.9949112716
0.9971635858
0.9985719367
0.999168597
0.9996644398
1.000946106
1.001864195
1.001883736
1.00229238
1.003166948
1.003663725
1.004201578
0.9222363505
0.9060749473
0.8868580064
0.8690205262
0.8890613172
0.9489865276
0.9801917957
0.9922853628
0.9949077304
0.9886574467
0.9913082397
0.9906209696
0.9902291665
0.9913714856
0.9933501003
0.994011084
0.9945740372
0.9954550349
0.9968935098
0.9978763688
0.9981564746
0.9990154846
0.9999855757
1.000538139
1.001217376
0.9233137911
0.905291236
0.8833221038
0.8612976738
0.8730285792
0.9242031429
0.9713487275
0.9828295317
0.9868533944
0.9827261919
0.9867574277
0.9871567518
0.9879794318
0.9901207549
0.9918222637
0.9922111963
0.9932215516
0.9950660757
0.9965950737
0.9974379313
0.9975819803
0.9976443326
0.9978536106
0.9987288762
1.000749021
0.9236631212
0.9061288001
0.8804393182
0.854527046
0.860777702
0.9048801896
0.9624370228
0.9779376096
0.9842238887
0.9827042946
0.9866815945
0.9869702325
0.9881668664
0.9899196685
0.9912476449
0.9921818286
0.9940357812
0.9960166174
0.9974376607
0.9983887054
0.9985134785
0.9982210929
0.9981775675
0.999264305
1.001389314
0.9227353119
0.9076804317
0.877430231
0.849113627
0.8517079391
0.8926569277
0.9500221378
0.9764141317
0.98604817
0.9856058572
0.9895664904
0.9890759742
0.9891715725
0.98993671
0.9913790531
0.9926551928
0.9950404394
0.9968211411
0.9981098786
0.9991962379
0.9993696366
0.998990603
0.99909011
1.000274498
1.002038411
0.9202449458
0.9107509505
0.8730922731
0.8458586286
0.845283091
0.8772474246
0.9387933682
0.9771680888
0.9913650135
0.988624183
0.9925669949
0.9913785746
0.9899268502
0.9899219978
0.9915098403
0.9933074128
0.9952539668
0.9964218695
0.9975190788
0.9987459887
0.9990246139
0.999097084
0.9996587662
1.000739226
1.001725484
0.9169156925
0.9136506798
0.8676941839
0.8421597733
0.8399111268
0.8631360921
0.9316497016
0.9801651937
0.9985069907
0.9901954231
0.9936036864
0.9923164295
0.9898487924
0.9898044379
0.9927135146
0.9940763068
0.9947850241
0.9950940461
0.9962997529
0.9977060556
0.9979434153
0.9985163787
0.9995503994
1.00024512
1.000363571
0.9108479606
0.9160188489
0.8622786258
0.8383397625
0.8376776323
0.8543153012
0.9195910737
0.9828978339
1.000848503
0.9884547259
0.9926655779
0.9914999888
0.9897635255
0.99133644
0.9948102319
0.9955774204
0.9954691355
0.9959345039
0.9973050613
0.9985429703
0.9986313399
0.9986179332
0.9990628808
0.9995593625
1.000625896
0.9082928712
0.9161904335
0.8538888803
0.8346019213
0.8348811854
0.8435184012
0.8969335526
0.9745812202
0.9981675282
0.9858989156
0.9931845964
0.9924772919
0.9913558554
0.9937259343
0.9966841786
0.9969828268
0.9970268392
0.997630833
0.9988414579
0.9997678716
0.9998421596
0.999695176
0.9999594763
1.000538668
1.0018221
1.050403239
0.8993964259
0.8436865207
0.8292527164
0.8325451072
0.835253728
0.8564915716
0.9182453257
0.9736751309
0.9857789049
0.9985947024
0.9979590197
0.9988273128
1.000829884
1.000791652
1.000921136
1.001511299
1.002144192
1.002719449
1.003285879
1.00375962
1.004035371
1.004457336
1.004883213
1.005446087
1.10658558
1.044493163
0.9717118679
0.9091977842
0.8779563031
0.8497806693
0.8507549987
0.8615378375
0.9008364355
0.9584499347
0.9957573546
1.000002748
1.008329865
1.009774769
1.006901835
1.006835583
1.007141993
1.007144807
1.007318765
1.007827608
1.008735576
1.009481526
1.010055442
1.010014281
1.009746847
1.122131353
1.100611785
1.048531502
0.989336007
0.9370113075
0.8931871244
0.8784724092
0.8773745161
0.8779718238
0.8948769059
0.935974797
0.9765476315
1.004068415
1.009640597
1.009418082
1.01182727
1.011493467
1.010694631
1.010232167
1.010487446
1.010964618
1.011340454
1.011778659
1.012442481
1.012374039
1.118874596
1.11757731
1.097701595
1.056703805
1.004956268
0.9595979274
0.9282911396
0.8973549135
0.8770239577
0.8780405227
0.8860928086
0.9187121306
0.9594666432
0.9910167325
1.00222382
1.010913615
1.01193588
1.011941147
1.011984064
1.011860239
1.011588558
1.011051357
1.01093555
1.011363811
1.01233238
1.114039417
1.119568749
1.115575855
1.095108197
1.056516782
1.015101224
0.9710816704
0.9289546865
0.9089097119
0.8895195772
0.8909638178
0.8926666183
0.903645116
0.9358573839
0.9708045322
0.9986835569
1.004582722
1.009317476
1.011770134
1.011701114
1.011248066
1.010314596
1.009534189
1.009664324
1.010797123
1.075783699
1.106214779
1.111570394
1.11061221
1.094923719
1.063534465
1.020197641
0.9867552437
0.9540607645
0.9209142581
0.9061665892
0.8909556465
0.8917062477
0.8978778208
0.9212643364
0.9528328558
0.9778369923
1.001294601
1.007300029
1.007160531
1.008408085
1.007957188
1.007074886
1.007220785
1.008702097
1.025476123
1.078108233
1.106606205
1.113031184
1.110201737
1.093218706
1.06358974
1.029555038
0.991986433
0.9613725735
0.9341082436
0.9086492808
0.9004141966
0.9013417266
0.9027353527
0.9111826477
0.9374534635
0.9685371072
0.987883331
0.9973381825
1.006028177
1.005796947
1.006085101
1.00649815
1.007366539
1.003888087
1.032557882
1.073703039
1.106950067
1.106919808
1.105282464
1.092758627
1.066590504
1.03421766
1.002960168
0.9727842214
0.9470096468
0.9279023975
0.9103390121
0.9019178039
0.9022746037
0.907279185
0.9233326752
0.9542298355
0.9835177067
0.9992784702
1.001314111
1.003985192
1.006018431
1.005953664
1.000263087
1.006436666
1.034725452
1.081436088
1.099178
1.106283344
1.104548086
1.092646705
1.068180017
1.038992195
1.00794255
0.9816869653
0.9554819964
0.9294184348
0.917207902
0.9069585305
0.9077364669
0.9093217419
0.9197437466
0.9416243783
0.9666106148
0.9841831169
0.9989687365
1.002941089
1.002835733
1.000007751
1.000691522
1.009539353
1.036465942
1.072851385
1.100553875
1.104665981
1.102092682