/*--------------------------------*- C++ -*----------------------------------*\
  =========                 |
  \\      /  F ield         | OpenFOAM: The Open Source CFD Toolbox
   \\    /   O peration     | Website:  https://openfoam.org
    \\  /    A nd           | Version:  7
     \\/     M anipulation  |
\*---------------------------------------------------------------------------*/
FoamFile
{
    version     2.0;
    format      ascii;
    class       volScalarField;
    location    "2";
    object      p;
}
// * * * * * * * * * * * * * * * * * * * * * * * * * * * * * * * * * * * * * //

dimensions      [1 -1 -2 0 0 0 0];

internalField   nonuniform List<scalar> 
2222
(
2.62904267
2.605229136
2.589876571
2.582094289
2.57264804
2.561794331
2.542780063
2.520984198
2.508793488
2.495448541
2.478744362
2.455260937
2.425889624
1.047778417
1.048530305
1.052058135
1.083191758
1.343989821
1.949961998
2.383878515
2.543111285
2.629923905
2.671437908
2.679900489
2.684057889
2.694044133
2.728376529
2.754456416
2.770414566
2.776695198
2.777973131
2.767973487
2.749333017
2.722985009
2.704120449
2.695988489
2.690125654
2.680445698
2.655864786
2.629054092
2.606365345
2.59150318
2.585134298
2.573028874
2.562431847
2.543500966
2.524266847
2.513138081
2.499775232
2.481403286
2.45623901
2.425646341
1.050880051
1.048192337
1.065462323
1.247035688
1.803230272
2.315621006
2.506904259
2.598043504
2.664741066
2.685768249
2.707198289
2.701047399
2.726514096
2.748530503
2.764333204
2.772874762
2.777536158
2.770288846
2.752817326
2.724739199
2.706313979
2.701300914
2.695536365
2.685448871
2.663053955
2.635216994
2.611691892
2.595632082
2.589351509
2.575724502
2.565045085
2.547333905
2.528585814
2.519358432
2.506467268
2.486013978
2.459049725
2.427764903
2.389295778
1.05929234
1.052224615
1.056487582
1.179295615
1.667118844
2.245868878
2.489635707
2.566553738
2.635228228
2.681918145
2.713718763
2.726536743
2.736789224
2.749912026
2.763138981
2.766337787
2.77191041
2.76941873
2.753480123
2.727292188
2.708680466
2.705137315
2.698856853
2.688565009
2.665852534
2.640242442
2.612661536
2.598025857
2.593045208
2.57809241
2.566514822
2.55042766
2.535023161
2.527660925
2.513561114
2.490972083
2.462368649
2.430806175
2.395084456
1.060644476
1.059637835
1.054867643
1.128742622
1.509053652
2.144822935
2.484996265
2.567732945
2.619660177
2.665033401
2.71018496
2.740735987
2.753978084
2.759714391
2.765196694
2.765095018
2.766132157
2.766495275
2.752120916
2.727836608
2.711650217
2.707138783
2.701279504
2.691284656
2.669562818
2.644530286
2.616853153
2.602305404
2.599074211
2.583069763
2.569406138
2.554353706
2.539593799
2.533047877
2.519830217
2.495578053
2.465935144
2.434193533
2.401446737
1.049795483
1.05629167
1.065269856
1.09440012
1.391494664
2.028744546
2.457252374
2.583585312
2.631446464
2.656385675
2.698933997
2.741693031
2.757426684
2.770987912
2.771209642
2.765531102
2.764700916
2.764109326
2.749432616
2.727743837
2.713875269
2.708401956
2.702906976
2.693781066
2.673272104
2.648189079
2.620170998
2.608822917
2.602926415
2.586448313
2.57198633
2.558018766
2.544409013
2.537397429
2.52465223
2.499975123
2.469721367
2.437396071
2.407347335
1.048548299
1.047547784
1.061896043
1.089454295
1.286827901
1.878303472
2.386688248
2.588337662
2.651435993
2.66753906
2.689620797
2.735273627
2.753250947
2.771180944
2.777441195
2.768691957
2.765247113
2.764732408
2.748234669
2.727887674
2.716319101
2.709803467
2.704388995
2.695748061
2.676809335
2.652575971
2.62265897
2.613664551
2.601245065
2.584778716
2.571730586
2.561513972
2.548501524
2.541138522
2.529476851
2.504728298
2.474296094
2.441260305
2.413236061
1.054285522
1.049989065
1.080013762
1.195749402
1.672628825
2.281115856
2.567137159
2.66167813
2.682984378
2.690213984
2.720871331
2.741397483
2.767458978
2.777301306
2.774304136
2.770115693
2.768897061
2.750375304
2.729931932
2.721167771
2.712512513
2.706220991
2.697335238
2.67996544
2.657094424
2.627859726
2.613268196
2.604177723
2.584106901
2.569336818
2.562399614
2.550411369
2.544692271
2.534610021
2.509833847
2.479076987
2.445758922
2.419175328
1.05822847
1.056519935
1.073457797
1.1679033
1.575485604
2.125975543
2.515656404
2.655842695
2.692604596
2.695937342
2.711985863
2.728495212
2.756737463
2.774126142
2.776852929
2.777530996
2.775879862
2.755944993
2.735494697
2.729852285
2.718424015
2.710101141
2.69990862
2.682820949
2.661583243
2.633405145
2.614439217
2.609559421
2.588772504
2.569224263
2.560512149
2.552210341
2.550413904
2.540393664
2.515399277
2.484283275
2.451414857
2.425672455
1.058391159
1.056925622
1.064007236
1.129713754
1.449892121
2.040482944
2.442234772
2.627477657
2.689366803
2.69888908
2.709685548
2.724743668
2.747074828
2.767301163
2.774762919
2.778597445
2.77753528
2.758274779
2.74032773
2.73856215
2.725018463
2.716249409
2.705102372
2.686135474
2.665508768
2.638447293
2.617091601
2.613088641
2.593235026
2.572148429
2.562291671
2.558107172
2.558553782
2.54736198
2.522003797
2.490626074
2.45790807
2.432346805
1.057017996
1.048973582
1.063088013
1.107674011
1.354352693
1.920613261
2.372041976
2.590490918
2.671299908
2.691244314
2.706687568
2.726218693
2.745362347
2.764529401
2.770670714
2.775916851
2.775537282
2.757546466
2.742210354
2.741684967
2.726936859
2.718603898
2.707840338
2.68974733
2.668746608
2.643256129
2.620125816
2.614471266
2.594981847
2.575925673
2.568105314
2.56633515
2.567947509
2.55416474
2.529317773
2.496714682
2.463293967
2.438041381
1.054020089
1.05205787
1.065375118
1.096257341
1.274157911
1.79897778
2.287845675
2.552759893
2.64461499
2.67055288
2.697842561
2.728384131
2.74652206
2.765942386
2.768544513
2.771690133
2.771986659
2.756193555
2.743341432
2.742072742
2.727311108
2.718408468
2.70747532
2.689721842
2.670729531
2.64810636
2.624046075
2.615396943
2.59398522
2.578200891
2.573425792
2.574372547
2.575636218
2.558762844
2.532696437
2.500284115
2.466649673
2.442216772
1.06714931
1.060389052
1.062313546
1.082003252
1.199043114
1.654624579
2.235661613
2.518057437
2.633709923
2.654580378
2.686504453
2.728283552
2.754638814
2.772503583
2.770002726
2.769767714
2.767107362
2.753043373
2.743179787
2.740896784
2.726524127
2.717561509
2.706562982
2.688827502
2.671577512
2.652952004
2.628618721
2.616448858
2.594560749
2.578340809
2.577050137
2.580038389
2.581678088
2.562021737
2.534980472
2.501984284
2.468820552
2.445084795
1.051478367
1.05122309
1.066051592
1.145358294
1.519314053
2.134728983
2.504944847
2.646118167
2.658913588
2.682586742
2.727727893
2.758269813
2.777603587
2.773315418
2.770927073
2.764217589
2.751983634
2.745658246
2.741434938
2.727385852
2.716343367
2.705045782
2.687708958
2.672507548
2.657227936
2.632814477
2.617745603
2.596415417
2.57886351
2.578481992
2.582689432
2.586292166
2.564617759
2.536675113
2.503054655
2.470405936
2.447264616
1.048053579
1.05357589
1.070264534
1.117703037
1.4247637
1.991613072
2.45458018
2.640409649
2.676546227
2.689596063
2.728888176
2.757246026
2.777687241
2.774394495
2.773621815
2.762823601
2.753339458
2.750731859
2.743665741
2.729745957
2.717081366
2.704892674
2.687460209
2.674017711
2.660396662
2.635793123
2.619533635
2.599007382
2.581413215
2.578392299
2.586393884
2.589811647
2.566715743
2.536559092
2.502652335
2.471475954
2.449417541
2.434230116
1.056064943
1.060733129
1.067591056
1.101181712
1.338202355
1.818690554
2.363447259
2.609217523
2.691057764
2.707100971
2.733725967
2.753232986
2.775196185
2.775204377
2.775619683
2.764685285
2.757741298
2.757541891
2.747826895
2.733902607
2.719821919
2.706282868
2.68867041
2.676487371
2.663348416
2.638214701
2.621503914
2.602219517
2.584220724
2.581979623
2.590295097
2.590642921
2.566528952
2.534843689
2.501676736
2.472670326
2.452289779
2.442688205
1.061309817
1.058849119
1.063144914
1.086782133
1.259430531
1.701163347
2.252165409
2.547502928
2.685555416
2.721825116
2.737274848
2.749915572
2.770448361
2.775339513
2.77546173
2.765050487
2.760308533
2.760528107
2.750078071
2.737835757
2.72377657
2.708738612
2.691516245
2.680448239
2.667384977
2.641743693
2.623897852
2.605706538
2.587434885
2.586411275
2.593514319
2.589162868
2.56375709
2.53266798
2.501128999
2.474292971
2.456918038
2.451054393
1.061591977
1.056482215
1.0571485
1.070992282
1.182202127
1.612856766
2.127492672
2.508017355
2.649762195
2.718379013
2.737375185
2.74866428
2.765623291
2.774824414
2.774819763
2.763929405
2.760768822
2.761429793
2.751428044
2.740906951
2.727591614
2.711230477
2.694698506
2.685827247
2.673470438
2.648798653
2.6291049
2.611304644
2.592299442
2.591986921
2.594573586
2.585427717
2.560223268
2.530593759
2.50111663
2.477372456
2.463292022
2.457245502
1.0602119
1.052664481
1.053049355
1.062025277
1.130561053
1.515225427
2.0091697
2.462454304
2.61945659
2.68943235
2.723857165
2.744336159
2.762511517
2.775032755
2.774913284
2.763220414
2.760566308
2.759706401
2.751190076
2.74245311
2.729458137
2.711652924
2.69675929
2.690503729
2.681952908
2.660125999
2.635790026
2.613596038
2.598921686
2.596329554
2.594295741
2.582383246
2.557364906
2.528945589
2.501455247
2.481073768
2.467307172
2.460567874
1.057342702
1.051327643
1.05336665
1.061455902
1.1062586
1.404332212
1.902922687
2.401372915
2.609670985
2.651855384
2.698805393
2.734750729
2.762082987
2.77477071
2.776320102
2.763422482
2.760889739
2.757057258
2.751473108
2.743117071
2.728605555
2.70896052
2.696882265
2.694331287
2.687279576
2.668112845
2.638378083
2.615881386
2.603764721
2.599017173
2.59488297
2.580572903
2.555119485
2.527704606
2.501827897
2.482053847
2.468547238
2.461729949
1.053169715
1.055782644
1.06199326
1.093998744
1.298662718
1.799550576
2.306046342
2.595602727
2.652128612
2.670782503
2.718745907
2.761765718
2.775516004
2.777770982
2.76423303
2.761679756
2.755736708
2.754076624
2.746002141
2.7297367
2.708146324
2.697866014
2.696704467
2.690639812
2.671658775
2.640122888
2.61881195
2.607274964
2.601222114
2.595128184
2.57946916
2.553954344
2.527126528
2.501746032
2.482324914
2.469533259
2.461788769
1.056803677
1.059010636
1.06308956
1.083523103
1.22512557
1.699606804
2.178127289
2.560209507
2.655547627
2.679838309
2.711556995
2.758719651
2.777207635
2.778191032
2.765118378
2.763106245
2.757222725
2.758472502
2.750206501
2.731812556
2.710632108
2.701148068
2.698677508
2.692480083
2.674285505
2.643040422
2.622744408
2.61147168
2.603162483
2.596086689
2.578739959
2.5529484
2.526154007
2.500881132
2.481875834
2.469957829
2.461629311
1.058568867
1.059732295
1.061029434
1.073258762
1.169516977
1.588909625
2.050030791
2.501661517
2.663419356
2.694708121
2.724850439
2.757042923
2.776917793
2.776538719
2.764865758
2.7633224
2.758935115
2.762862471
2.753713418
2.732333718
2.712016164
2.704887027
2.702230654
2.694705171
2.677774657
2.647838479
2.629055053
2.616492348
2.606721326
2.597644957
2.577849377
2.550874239
2.523873068
2.498655834
2.48050726
2.469405294
2.461557336
1.058608842
1.05665449
1.05568632
1.062434685
1.128165888
1.459896539
1.964669385
2.401376826
2.648320128
2.709570624
2.746944778
2.759980664
2.77214257
2.774006309
2.764726265
2.761019892
2.759068415
2.766415901
2.755199626
2.730306497
2.710088873
2.707646499
2.705749919
2.698173298
2.68335006
2.655679832
2.640062102
2.624018827
2.611383433
2.598656557
2.576018509
2.547391578
2.519817055
2.495194897
2.479381073
2.46982674
2.46082979
1.055686553
1.05321626
1.053331132
1.057514732
1.101705747
1.347269098
1.892965415
2.318455703
2.618079409
2.712468152
2.748464049
2.760378555
2.766470595
2.771478495
2.764520842
2.756697755
2.759529101
2.768452994
2.754537066
2.724881343
2.706772485
2.708621949
2.708674392
2.702545928
2.69097028
2.668487412
2.65296384
2.632970148
2.616722405
2.599355057
2.572205143
2.541730589
2.515043288
2.492517286
2.479499129
2.471806602
2.462707722
1.052190533
1.053201707
1.053616514
1.05730369
1.08671094
1.262870827
1.801025717
2.245964889
2.58458211
2.692212525
2.719930125
2.738252546
2.755191031
2.768195829
2.764853586
2.751943015
2.759551933
2.769371169
2.753502228
2.720136338
2.705903359
2.709273175
2.71096349
2.70658787
2.699604981
2.679279276
2.659059932
2.63949195
2.622138853
2.598831272
2.566395826
2.535495187
2.511085612
2.490754945
2.480325953
2.474417723
2.464558038
1.053465286
1.05449841
1.057973906
1.078467142
1.202999551
1.680046735
2.145466528
2.512483873
2.665697413
2.68450756
2.705374773
2.73592642
2.761765219
2.767171546
2.74841954
2.760034743
2.771345663
2.753760627
2.719842973
2.707956928
2.710396116
2.711334037
2.709425168
2.704481578
2.683879344
2.662262056
2.644155948
2.625842407
2.598815962
2.564178943
2.531226339
2.507279222
2.489138466
2.482052249
2.477158394
2.466519639
2.457571329
1.055084102
1.056692594
1.058843714
1.072965744
1.158925953
1.543379674
2.075910465
2.424887403
2.630821804
2.673542695
2.707380472
2.72767967
2.75931585
2.769054272
2.749108472
2.761570821
2.774039642
2.754766149
2.722082015
2.712314867
2.711533075
2.709864606
2.709902445
2.707128103
2.68557004
2.662925413
2.647713048
2.629129281
2.60100526
2.565820098
2.530934964
2.506920861
2.490806567
2.485227459
2.479598262
2.46821149
2.45830438
1.056161383
1.057714245
1.058629322
1.066906014
1.124452031
1.413128676
1.99413722
2.315215686
2.582833494
2.676102962
2.710526035
2.746532408
2.77156558
2.770740259
2.75364855
2.764442078
2.777529798
2.756861044
2.727643009
2.71570686
2.71221942
2.709513679
2.71039501
2.706884456
2.684616501
2.662296048
2.649531787
2.631567976
2.604325447
2.569620856
2.534062169
2.511870747
2.4961376
2.488767732
2.481137471
2.46964656
2.460078269
1.055854012
1.057228177
1.05737146
1.060300953
1.097901765
1.304681558
1.88054976
2.265594677
2.543810861
2.676782822
2.726406625
2.775103102
2.793047899
2.776540184
2.759878145
2.771132373
2.783873383
2.760684149
2.730353718
2.717010133
2.711595212
2.710085423
2.71341999
2.707193798
2.684506143
2.662662076
2.651531595
2.633181194
2.607626371
2.573949552
2.539094779
2.518029691
2.501022441
2.491095182
2.482122046
2.471019105
2.461825404
1.054373759
1.055846935
1.05581339
1.05799007
1.081296285
1.226483507
1.734638249
2.261170706
2.530740352
2.689342504
2.744332723
2.783678661
2.80649575
2.782543964
2.765322521
2.774401325
2.785523782
2.760898854
2.730266887
2.71528003
2.708877332
2.710391819
2.716743434
2.70938162
2.685997417
2.663843391
2.653548753
2.635171643
2.610281563
2.577215446
2.542273983
2.520078882
2.502262992
2.49232824
2.484170462
2.472708866
2.462738389
1.052996167
1.054821952
1.054956716
1.057007485
1.072668008
1.175115259
1.594251603
2.197649782
2.516864355
2.70912157
2.745526014
2.771203604
2.786516775
2.776624551
2.76800022
2.776124657
2.785200122
2.758494753
2.726900196
2.713000929
2.706122385
2.710876303
2.719797116
2.712202905
2.688834563
2.666901819
2.656763354
2.638753101
2.613152306
2.578269125
2.541626435
2.515390487
2.500325667
2.494601807
2.487118388
2.473905898
2.462051685
1.053176386
1.05532102
1.055826919
1.057541343
1.068734007
1.14070305
1.469763879
2.103679531
2.43662113
2.673797586
2.728370746
2.726473577
2.737185942
2.750216293
2.762430723
2.774393944
2.780552757
2.753023301
2.724083005
2.713532041
2.706033929
2.711093789
2.722275732
2.715482532
2.692676071
2.672576673
2.662868625
2.644308477
2.614749376
2.577768374
2.53849976
2.515159846
2.503521246
2.498296442
2.488926463
2.473555744
2.46101246
1.057572895
1.058346648
1.059450463
1.066443287
1.115856959
1.36556781
1.978291859
2.333586211
2.579378852
2.689810536
2.705363764
2.720633764
2.721683058
2.747346307
2.768064769
2.77394618
2.749633754
2.723636823
2.714058387
2.706434415
2.712102425
2.72409983
2.717037755
2.693654273
2.676971389
2.668282607
2.647797307
2.615496236
2.578485705
2.541429163
2.522105513
2.511791105
2.501262069
2.488763108
2.473558761
2.463064655
1.058930434
1.059759913
1.060021963
1.064365468
1.096929807
1.278251258
1.82367557
2.279977875
2.486991111
2.633289549
2.695809493
2.721756682
2.731527256
2.742906895
2.763392494
2.770628495
2.748868624
2.72338419
2.715490319
2.707374075
2.713560312
2.725700893
2.717590329
2.694671897
2.679241602
2.670522022
2.649360146
2.616605176
2.580866077
2.546918236
2.531488569
2.519918591
2.505110724
2.491287868
2.478246844
2.468399659
1.058736637
1.05980472
1.059958333
1.062340738
1.08222417
1.208745342
1.665152251
2.234276168
2.444059187
2.605297422
2.689957449
2.734042557
2.746108996
2.760432631
2.769366339
2.772113409
2.75044316
2.72551492
2.720485221
2.70999508
2.71584617
2.726685644
2.717071963
2.694988668
2.680871802
2.671978453
2.651000217
2.618338282
2.584080851
2.554277102
2.536871195
2.525153561
2.511484942
2.49871421
2.486642067
2.475396777
1.05686
1.058994197
1.0594227
1.060629827
1.072513867
1.158622996
1.528076146
2.154834684
2.46428914
2.62936254
2.711124679
2.759088637
2.770992493
2.781373699
2.780792954
2.775063053
2.75516578
2.733597055
2.727354298
2.713023953
2.71806781
2.727881652
2.717148037
2.695344208
2.682571409
2.674157802
2.653636625
2.620977503
2.588116365
2.560381902
2.537738921
2.525843008
2.517987224
2.507727005
2.494924934
2.481367157
1.055674509
1.057517914
1.058420237
1.060155679
1.068055112
1.125385739
1.415525936
2.042221005
2.444250312
2.644337226
2.749658522
2.774675027
2.777165929
2.786368183
2.786868979
2.779392842
2.762544991
2.740244342
2.727359215
2.712592577
2.719124246
2.729306704
2.717325512
2.695921552
2.684669481
2.677759532
2.657429231
2.624736605
2.592374213
2.564052553
2.536334571
2.526581981
2.522788525
2.51391141
2.499026166
2.482832425
1.055938127
1.05753065
1.058621709
1.059669841
1.06614859
1.104241961
1.324690953
1.916123719
2.39280723
2.593694591
2.742159945
2.770111657
2.768762512
2.769609073
2.779363832
2.782925892
2.766445789
2.741915337
2.725338001
2.710934486
2.719959317
2.730440809
2.719067464
2.698576924
2.687965132
2.682733808
2.662557176
2.629771405
2.596500611
2.56721932
2.539353252
2.531779249
2.525392145
2.514399687
2.495710824
2.478479399
1.059048053
1.059726924
1.06031777
1.064953947
1.090631284
1.24836746
1.772233513
2.331245233
2.505569875
2.671428846
2.73900524
2.750186092
2.754484509
2.777135166
2.788493375
2.768262451
2.74028488
2.719911877
2.709029817
2.720526264
2.731515308
2.72236587
2.703232286
2.693436232
2.689316407
2.669205866
2.636193891
2.60090799
2.570635634
2.544163446
2.539137184
2.528308832
2.511256666
2.49309739
2.478731745
1.060893716
1.061135719
1.061266324
1.063830844
1.080975019
1.18905235
1.622267813
2.238189203
2.459141317
2.605936928
2.693048887
2.735151878
2.751628743
2.787667764
2.798707227
2.768177495
2.732782508
2.709752508
2.705534527
2.720774435
2.73270706
2.722054502
2.704300773
2.698044064
2.697293403
2.678595455
2.645077761
2.606273527
2.574834985
2.551460582
2.546501045
2.533634755
2.514673607
2.497939399
2.484672206
2.476520063
1.061691993
1.061988444
1.061229262
1.062350433
1.073111506
1.14555412
1.481609481
2.11112286
2.45848844
2.581118829
2.662291622
2.723440439
2.754970105
2.795174923
2.803336366
2.763023929
2.724465696
2.704455078
2.70622133
2.721254892
2.731425957
2.719844155
2.702995045
2.70025342
2.703631391
2.688131428
2.654750692
2.612269258
2.581091472
2.560812584
2.551130013
2.538808073
2.520570457
2.505494643
2.491828332
2.482220352
1.060838499
1.060930889
1.059992654
1.060453087
1.066828879
1.115103661
1.369987316
1.972660454
2.44044942
2.596574177
2.686675603
2.736951786
2.761924848
2.79577955
2.788714027
2.748770299
2.717414708
2.704420194
2.709456761
2.722657157
2.730091956
2.718112773
2.7012057
2.702866608
2.707150673
2.69297083
2.660574035
2.617627648
2.58939732
2.567953671
2.554005231
2.543030089
2.527433833
2.510509698
2.49530622
2.485370588
1.058695076
1.059153811
1.058539063
1.059281009
1.063360746
1.094752645
1.284311782
1.834339578
2.392757752
2.577157134
2.723543967
2.778658134
2.77073051
2.777901645
2.75732189
2.727389993
2.71180373
2.708541384
2.717014344
2.726965409
2.730606932
2.71807695
2.701683635
2.707238391
2.710266804
2.696406717
2.663810625
2.622160414
2.596900236
2.572857569
2.557091195
2.546347772
2.531674198
2.511643625
2.49508075
2.485036577
1.05746925
1.058008869
1.057776473
1.05871138
1.062184897
1.082545802
1.218916603
1.701962617
2.317507117
2.528890034
2.68296507
2.777501515
2.772859406
2.761941763
2.75111678
2.722185718
2.712950853
2.718495822
2.728885662
2.735114192
2.732755817
2.720011211
2.70492671
2.714317246
2.715267907
2.700988586
2.66807337
2.627743016
2.602213842
2.576802598
2.560962262
2.549889787
2.532779463
2.510947349
2.493411751
2.482721213
1.058655855
1.058469348
1.05810847
1.05867997
1.061673171
1.075487045
1.169615382
1.57181419
2.211589101
2.501120371
2.623874025
2.725114707
2.753099028
2.760412405
2.755626899
2.73799401
2.726388695
2.731617816
2.737230906
2.73908922
2.736586265
2.723679929
2.71147247
2.724769894
2.722340791
2.706453411
2.668980046
2.629137241
2.605874181
2.580365133
2.56495479
2.553807494
2.532301032
2.512735939
2.494374742
2.483570759
1.059734712
1.059136045
1.058915738
1.061063354
1.070549026
1.134171232
1.449772168
2.078607332
2.485407657
2.591056796
2.676204527
2.722774741
2.758889204
2.765734345
2.758375394
2.749863385
2.745285365
2.745361792
2.741149703
2.733175068
2.726405516
2.721250362
2.737420059
2.729019374
2.706771337
2.668275874
2.629781996
2.607767819
2.583834901
2.569642174
2.558018249
2.534849477
2.515925874
2.497219611
2.487284798
1.060815854
1.059786514
1.058425067
1.05948348
1.06570982
1.108917326
1.344705286
1.930933644
2.450547078
2.588238371
2.668405631
2.716724247
2.761634422
2.786268378
2.786555014
2.77221599
2.75754432
2.751690404
2.743877597
2.729603896
2.723791367
2.727013489
2.744267132
2.731200339
2.705483543
2.666595493
2.629288688
2.608859397
2.587764998
2.576900093
2.56422977
2.53854416
2.518738832
2.500295266
2.492359751
1.05992749
1.059114348
1.0570577
1.057623228
1.06155618
1.091136509
1.263469209
1.78817386
2.387558655
2.567468573
2.693080965
2.754454201
2.786494199
2.804441381
2.79770676
2.780068935
2.761187241
2.753602643
2.743951713
2.725608315
2.72088825
2.730251296
2.74659579
2.731673337
2.702840057
2.663358629
2.626184457
2.609687953
2.593883344
2.589538719
2.575289827
2.54567402
2.520569838
2.503238349
2.498482322
1.057789839
1.056892979
1.056754647
1.057512054
1.059942581
1.079574192
1.20337938
1.657198401
2.294308399
2.538871309
2.670558256
2.788735825
2.820242148
2.809796635
2.792572193
2.761521233
2.745123471
2.746268396
2.740052568
2.720316555
2.717277188
2.732658063
2.746492483
2.730600395
2.698146366
2.656239794
2.621870317
2.611903244
2.60506271
2.602303989
2.584917362
2.552132437
2.521914881
2.506692055
2.504607046
1.05568864
1.055304892
1.05665705
1.057854888
1.059913989
1.072660639
1.159233888
1.536580202
2.18278433
2.505042006
2.621711681
2.749926062
2.813876757
2.798953081
2.758307079
2.723595321
2.715163453
2.732615181
2.735747199
2.719117597
2.71295091
2.73395393
2.743720721
2.726682773
2.689517702
2.647146415
2.620872474
2.616447081
2.615585343
2.606802484
2.587517831
2.553979825
2.523838025
2.510746765
2.509431443
1.05549818
1.055350496
1.056005884
1.057539525
1.059949407
1.068653052
1.127557665
1.424703637
2.055776433
2.461311823
2.578859196
2.689783164
2.765006919
2.772724754
2.741157173
2.717724457
2.713761424
2.72661208
2.735871075
2.722019555
2.712382969
2.734571515
2.738122725
2.719935891
2.680203526
2.642560854
2.623710155
2.622645097
2.619079377
2.608360282
2.588160512
2.554312581
2.526299928
2.515285608
2.512496222
1.056807695
1.056043042
1.056043004
1.056921075
1.059465214
1.066034326
1.105620108
1.327959105
1.908650554
2.406566755
2.570548714
2.657963426
2.719403312
2.738757409
2.732697688
2.723813204
2.72855648
2.73559675
2.744189686
2.728534956
2.715137509
2.736452732
2.734539306
2.71638901
2.675875514
2.641908469
2.630138624
2.62816182
2.621291187
2.608146928
2.587647526
2.554628364
2.529411249
2.520206307
2.515636047
1.05645795
1.055891253
1.055859261
1.057992829
1.063751432
1.090806027
1.251795603
1.761510789
2.332510291
2.589977424
2.669792008
2.711899245
2.716572129
2.728026096
2.733109303
2.745419223
2.755075104
2.758767764
2.737526547
2.720641399
2.738408226
2.735157247
2.715772614
2.674648884
2.644837035
2.637231044
2.630980654
2.6201199
2.606954319
2.588757487
2.556304451
2.534007535
2.525873557
2.520612871
1.055619715
1.054785998
1.055210867
1.056838231
1.061809907
1.080883713
1.195549436
1.628110722
2.242649287
2.573476677
2.710250786
2.766245526
2.7404909
2.741770506
2.753917456
2.771473398
2.777569088
2.774024816
2.747310576
2.728273869
2.742549063
2.737821776
2.717590621
2.676396458
2.651102176
2.63970294
2.628971558
2.615274842
2.60778261
2.591546434
2.559835993
2.542871193
2.532464449
2.526370035
2.523286902
1.052581288
1.05473635
1.055706012
1.056914478
1.060377161
1.07404218
1.154438119
1.510636717
2.153535679
2.531224793
2.713607729
2.812966208
2.813032166
2.787485601
2.780277641
2.786615734
2.788982893
2.784458344
2.754788302
2.735424443
2.750499761
2.743013886
2.721254474
2.681522304
2.654592197
2.638688607
2.623736553
2.614035712
2.610832022
2.597705821
2.572507575
2.553950119
2.538063415
2.53369518
2.530780923
1.049522771
1.054342841
1.056455221
1.057594157
1.059832151
1.069442808
1.124323344
1.406144878
2.038875092
2.476441059
2.69056886
2.778641389
2.829824347
2.823651623
2.790162831
2.786988811
2.78829247
2.78331592
2.757482667
2.74157285
2.754890204
2.746722761
2.723204965
2.684332947
2.653152857
2.63538657
2.622683355
2.61694372
2.616945817
2.610418269
2.58811815
2.558892613
2.544019978
2.545005178
2.541243893
1.04826908
1.051845963
1.056795889
1.058559436
1.060188654
1.066698644
1.103363524
1.313231959
1.899744547
2.4252773
2.646855751
2.716937571
2.7763038
2.8010938
2.782161997
2.772840738
2.763842029
2.764815037
2.753370763
2.745384894
2.757983588
2.746954461
2.721158955
2.681605534
2.646624514
2.630029705
2.625131543
2.622235852
2.626823195
2.619362785
2.593632166
2.564155996
2.552999756
2.560606249
2.55291552
1.048846812
1.050540387
1.0549536
1.058616972
1.061088898
1.065302361
1.089779908
1.238410689
1.743836103
2.343038874
2.607070465
2.678711548
2.733025108
2.754275334
2.760238431
2.744736689
2.736306343
2.74277755
2.744956925
2.744251766
2.758306161
2.744861833
2.715948076
2.673905576
2.638407219
2.626571055
2.629272938
2.63033818
2.63264686
2.623573452
2.59827688
2.56965607
2.56481653
2.575032048
2.559895924
1.051545905
1.050164934
1.053938703
1.057811706
1.061557446
1.064972643
1.081395833
1.184718663
1.601135498
2.232717258
2.565403482
2.684877035
2.729018378
2.723893033
2.730906437
2.733698022
2.732940238
2.743377685
2.737287511
2.741031071
2.756517266
2.741349374
2.709204377
2.664335751
2.636481207
2.626915203
2.633662595
2.634197722
2.635491819
2.626580348
2.600061489
2.575312888
2.577155211
2.583756465
2.56467867
1.052102702
1.051704479
1.053313327
1.057249027
1.061523912
1.064468628
1.07566396
1.147644068
1.487853858
2.11618534
2.525775914
2.705998513
2.732792462
2.711689832
2.71722601
2.722597611
2.734576207
2.748100989
2.739369531
2.742617977
2.756644556
2.737398526
2.702794892
2.659207155
2.637536657
2.628336079
2.635226398
2.634996666
2.63458212
2.624879738
2.599483684
2.58239568
2.590325893
2.589245138
2.566080477
1.052827357
1.053973613
1.057265538
1.061083645
1.064421562
1.071701619
1.120729195
1.394081961
2.011941583
2.510224441
)
;

boundaryField
{
    inlet
    {
        type            fixedValue;
        value           nonuniform 0();
    }
    outlet
    {
        type            zeroGradient;
    }
    bottom
    {
        type            slip;
    }
    top
    {
        type            slip;
    }
    obstacle
    {
        type            zeroGradient;
    }
    defaultFaces
    {
        type            empty;
    }
    procBoundary22to15
    {
        type            processor;
        value           uniform 1.046761443;
    }
    procBoundary22to16
    {
        type            processor;
        value           nonuniform List<scalar> 
40
(
2.630243514
2.606864201
2.590739674
2.583563092
2.575203512
2.564041245
2.549966771
2.524011024
2.508882814
2.495160768
2.479730321
2.458579245
2.429437241
1.047270031
1.049228089
1.054191296
1.102835343
1.432129802
2.04555539
2.446118782
2.578786086
2.638519417
2.664758109
2.653973324
2.673166607
2.695877505
2.737455983
2.762450553
2.773997118
2.777666308
2.776164168
2.767421445
2.74836863
2.722557642
2.701728827
2.689911539
2.682494127
2.674723789
2.653402802
2.653402802
)
;
    }
    procBoundary22to17
    {
        type            processor;
        value           uniform 2.3840771;
    }
    procBoundary22to21
    {
        type            processor;
        value           nonuniform List<scalar> 
70
(
1.054384208
1.054384208
1.06087044
1.056488028
1.045946887
1.053919619
1.059308778
1.059308778
1.056840097
1.059143318
1.058981008
1.050840383
1.063814521
1.06416099
1.06416099
1.055436931
1.055
1.060302919
1.063330557
1.063229436
1.062901893
1.054630406
1.054630406
1.056413225
1.058756897
1.060384479
1.060312595
1.058505547
1.051531123
1.051531123
1.052673687
1.053641435
1.054045191
1.053842082
1.053264551
1.05336989
1.054946946
1.054946946
1.056223192
1.05646829
1.05513479
1.054285282
1.055033473
1.057808249
1.057808249
1.059773731
1.060343839
1.059904265
1.05832073
1.058148765
1.059433357
1.060531754
1.060531754
1.061699248
1.061256505
1.059376167
1.059021276
1.05884752
1.060753347
1.057658387
1.057658387
1.056692962
1.052827275
1.049555014
1.049882377
1.053413529
1.055047876
1.05468662
1.052030793
1.052030793
)
;
    }
    procBoundary22to23
    {
        type            processor;
        value           nonuniform List<scalar> 
65
(
2.384993911
2.384993911
2.359098948
2.361747417
2.365897583
2.371206464
2.377411652
2.383979296
2.391098239
2.398446486
2.405743977
2.412762312
2.419602735
2.426588536
2.426588536
2.4119456
2.420664761
2.428629595
2.43473192
2.439543039
2.443106255
2.445816901
2.448319713
2.451501625
2.455066721
2.457720194
2.458100445
2.458100445
2.444682385
2.448395042
2.453628773
2.455234822
2.455798903
2.455300115
2.455292338
2.457465753
2.461490332
2.467168874
2.471542545
2.472379518
2.469880674
2.471262409
2.471262409
2.465931767
2.470640763
2.473576597
2.474308566
2.474574209
2.47687178
2.48161385
2.488090879