/*--------------------------------*- C++ -*----------------------------------*\
  =========                 |
  \\      /  F ield         | OpenFOAM: The Open Source CFD Toolbox
   \\    /   O peration     | Website:  https://openfoam.org
    \\  /    A nd           | Version:  7
     \\/     M anipulation  |
\*---------------------------------------------------------------------------*/
FoamFile
{
    version     2.0;
    format      ascii;
    class       volScalarField;
    location    "0.6";
    object      p;
}
// * * * * * * * * * * * * * * * * * * * * * * * * * * * * * * * * * * * * * //

dimensions      [1 -1 -2 0 0 0 0];

internalField   nonuniform List<scalar> 
143
(
1.003561476
1.029622064
1.135816343
1.308226036
1.363430271
1.38523847
1.382857664
1.341299615
1.000000104
1.000287739
1.003990301
1.040969178
1.142499486
1.268786558
1.374353157
1.384641144
1.377904049
1
1.000014374
1.000338609
1.007235562
1.039558165
1.145585269
1.299203358
1.351362359
1.369215543
1
1.000000468
1.000018409
1.000784165
1.006714971
1.049618305
1.149394484
1.261628786
1.356796173
1
1.00000001
1.000000668
1.000052826
1.000727745
1.010150135
1.045837599
1.149458404
1.289012312
1
1
1.000000016
1.000002261
1.000051726
1.001257102
1.008927791
1.054506829
1.150984212
1
1
1
1.000000062
1.000002433
1.00009719
1.001113717
1.012043874
1.049402833
1
1
1
1.000000001
1.000000078
1.00000472
1.000091749
1.001600636
1.010562674
1
1
1
1
1.000000002
1.000000147
1.000004987
1.000133305
1.001456784
1
1
1
1
1
1.000000003
1.000000184
1.000007044
1.000132707
1
1
1
1
1
1
1.000000005
1.00000024
1.00000802
1
1
1
1
1
1
1
1.000000006
1.00000032
1
1
1
1
1
1
1
1
1.000000009
1
1
1
1
1
1
1
1
1
1
1
1
1
1
1
1
1
1
1
1
1
1
1
1
1
1
1
)
;

boundaryField
{
    inlet
    {
        type            fixedValue;
        value           nonuniform 0();
    }
    outlet
    {
        type            zeroGradient;
    }
    bottom
    {
        type            slip;
    }
    top
    {
        type            slip;
    }
    obstacle
    {
        type            zeroGradient;
    }
    defaultFaces
    {
        type            empty;
    }
    procBoundary33to26
    {
        type            processor;
        value           nonuniform List<scalar> 6(0.9999999829 0.9999999998 1 1 1 1);
    }
    procBoundary33to27
    {
        type            processor;
        value           nonuniform List<scalar> 10(1.027055733 1.12777323 1.274243577 1.396594451 1.405823032 1.396472971 1.343751408 1.241876429 1.00001284 1.00001284);
    }
    procBoundary33to32
    {
        type            processor;
        value           nonuniform List<scalar> 9(1 1 1 1 1 1 1 1 1);
    }
    procBoundary33to34
    {
        type            processor;
        value           nonuniform List<scalar> 
16
(
1.252513044
1.334812423
1.366559266
1.367412817
1.340142141
1.253648576
1.150374143
1.056841085
1.012918951
1.001789014
1.000156208
1.000008952
1.000000331
1.000000009
1
1
)
;
    }
}


// ************************************************************************* //
