/*--------------------------------*- C++ -*----------------------------------*\
  =========                 |
  \\      /  F ield         | OpenFOAM: The Open Source CFD Toolbox
   \\    /   O peration     | Website:  https://openfoam.org
    \\  /    A nd           | Version:  7
     \\/     M anipulation  |
\*---------------------------------------------------------------------------*/
FoamFile
{
    version     2.0;
    format      ascii;
    class       volScalarField;
    location    "2.7";
    object      p;
}
// * * * * * * * * * * * * * * * * * * * * * * * * * * * * * * * * * * * * * //

dimensions      [1 -1 -2 0 0 0 0];

internalField   nonuniform List<scalar> 
555
(
1.552846874
1.53169423
1.518303584
1.507469731
1.491447084
1.478525653
1.472205841
1.467224264
1.459667498
1.4540028
1.45217426
1.450394571
1.447285334
1.442315352
1.44021595
1.440043668
1.438593316
1.436339531
1.552846762
1.531694343
1.518303807
1.507469803
1.491447001
1.478525621
1.472205833
1.467224201
1.459667383
1.454002862
1.452174338
1.450394618
1.447285316
1.442315295
1.440215949
1.440043669
1.438593283
1.436339504
1.435981677
1.436507524
1.438299107
1.440277613
1.441623369
1.442859053
1.444975651
1.448154899
1.451194466
1.453398391
1.454924519
1.456067739
1.457098151
1.457158266
1.456752428
1.447119782
1.465586223
1.485765653
1.49284498
1.493844393
1.491572428
1.490541787
1.488679762
1.484444169
1.478759375
1.475884959
1.473421779
1.46954777
1.46350331
1.456425123
1.454251555
1.453319838
1.451528111
1.449547986
1.449020338
1.449544044
1.450453172
1.450195118
1.44940377
1.449174012
1.449478951
1.449691147
1.449585313
1.449442832
1.449372896
1.449514469
1.449589737
1.44983093
1.406549844
1.430817948
1.458081972
1.470182492
1.479602784
1.489465113
1.490616038
1.490157557
1.490792958
1.490103283
1.488305934
1.485812968
1.482852411
1.47785888
1.4704992
1.465143696
1.464351717
1.464236573
1.462945988
1.460555832
1.457607822
1.456119904
1.454380338
1.451694887
1.447475094
1.444845345
1.44451155
1.443934679
1.443100475
1.44321934
1.443909674
1.445136871
1.446989917
1.199214394
1.24290785
1.292115957
1.332290128
1.364234446
1.406376846
1.426052203
1.437796347
1.452306096
1.459429659
1.463839506
1.469959228
1.47529878
1.478326817
1.481295345
1.486548165
1.488321718
1.487291346
1.485274168
1.482522064
1.479454192
1.476707596
1.473104513
1.467992305
1.46122455
1.45551053
1.452618687
1.450909389
1.449256241
1.44778358
1.448097429
1.448385456
1.448353769
1.039981361
1.062476487
1.092267981
1.133793336
1.175334243
1.223183113
1.274983593
1.317432916
1.36471675
1.400651737
1.424043392
1.448295052
1.468477516
1.473740098
1.480469913
1.487832455
1.488003807
1.486806877
1.485022193
1.482510564
1.478488725
1.474241949
1.470200843
1.466707885
1.464492209
1.463751434
1.463092172
1.462175786
1.460462477
1.458265694
1.455968101
1.454692028
1.453184612
1.00203513
1.004467754
1.008901257
1.017254624
1.030444423
1.04919862
1.078916861
1.113188117
1.151613585
1.20381633
1.251188035
1.29474317
1.337981215
1.367629323
1.397040604
1.427992022
1.435865889
1.444344066
1.453915853
1.455050213
1.457596721
1.465020839
1.471308928
1.472642062
1.475137363
1.479222421
1.479839554
1.478741613
1.475909762
1.473577129
1.471262377
1.468740805
1.466199285
1.000019741
1.000063338
1.000185033
1.000506174
1.001303787
1.002972284
1.006393617
1.012935125
1.023086281
1.040338916
1.065046688
1.094711375
1.135814952
1.182225056
1.227948894
1.276905668
1.318612097
1.355029397
1.398725865
1.421840403
1.439369237
1.457792814
1.466346726
1.4701946
1.476841944
1.479860768
1.47954023
1.478328612
1.475506576
1.47053146
1.465613018
1.463621225
1.464101649
1.000000024
1.000000126
1.000000582
1.000002478
1.000009606
1.000033709
1.00010675
1.000315675
1.000831324
1.002034286
1.004635354
1.009533664
1.018180882
1.032775997
1.053045064
1.082552277
1.120664753
1.158242468
1.204366506
1.256130691
1.298902121
1.340269458
1.370513629
1.392286285
1.416010963
1.435239862
1.441277365
1.447946018
1.451733511
1.452174717
1.45593698
1.463933361
1.468256972
1
1
1
1.000000001
1.000000008
1.000000048
1.000000254
1.0000012
1.000005
1.000018816
1.0000644
1.000202193
1.000555972
1.001456047
1.003391883
1.007247409
1.014412694
1.026236486
1.044107803
1.071308612
1.103358569
1.14233509
1.188898095
1.236970864
1.283358347
1.324638843
1.357208469
1.390300617
1.422436531
1.441488504
1.45283454
1.459231598
1.464582927
1
1
1
1
1
1
1
1
1.000000003
1.000000021
1.000000123
1.000000631
1.000002792
1.000011347
1.000040386
1.000131955
1.000386223
1.001041657
1.002512553
1.005668867
1.011383703
1.021519216
1.037299491
1.059641874
1.090490228
1.130435038
1.172703751
1.215025973
1.259685329
1.307229525
1.349772565
1.37934024
1.393048485
1
1
1
1
1
1
1
1
1
1
1
1
1.000000001
1.00000001
1.000000063
1.000000343
1.00000166
1.000007097
1.00002675
1.00009053
1.000276208
1.000760583
1.001902559
1.004311864
1.009253858
1.017511936
1.031325393
1.051303458
1.080580339
1.115848109
1.156795246
1.202723325
1.245206834
1
1
1
1
1
1
1
1
1
1
1
1
1
1
1
1
1.000000001
1.000000005
1.000000036
1.000000202
1.000001044
1.000004516
1.000017992
1.000061791
1.000200706
1.00055333
1.001473151
1.003389031
1.007475051
1.014392928
1.027161486
1.045023681
1.066762181
1
1
1
1
1
1
1
1
1
1
1
1
1
1
1
1
1
1
1
1
1
1.000000003
1.00000002
1.000000124
1.000000664
1.000002948
1.000012517
1.000043629
1.000149788
1.000415149
1.001155075
1.002848003
1.004774902
1
1
1
1
1
1
1
1
1
1
1
1
1
1
1
1
1
1
1
1
1
1
1
1
1
1.000000001
1.000000012
1.000000077
1.000000445
1.000002009
1.000008355
1.000056068
1.000019589
1
1
1
1
1
1
1
1
1
1
1
1
1
1
1
1
1
1
1
1
1
1
1
1
1
1
1
1
1
1.000000001
1.000000006
1.000000276
0.9999999948
1
1
1
1
1
1
1
1
1
1
1
1
1
1
1
1
1
1
1
1
1
1
1
1
1
1
1
1
1
1
1
1
0.9999999995
1
1
1
1
1
1
1
1
1
)
;

boundaryField
{
    inlet
    {
        type            fixedValue;
        value           nonuniform 0();
    }
    outlet
    {
        type            zeroGradient;
    }
    bottom
    {
        type            slip;
    }
    top
    {
        type            slip;
    }
    obstacle
    {
        type            zeroGradient;
    }
    defaultFaces
    {
        type            empty;
    }
    procBoundary20to13
    {
        type            processor;
        value           uniform 1.576283662;
    }
    procBoundary20to14
    {
        type            processor;
        value           nonuniform List<scalar> 
19
(
1.447119845
1.46558602
1.485765554
1.492844999
1.49384442
1.491572449
1.490541801
1.488679785
1.484444222
1.478759365
1.475884887
1.473421729
1.469547796
1.46350343
1.456425176
1.454251509
1.453319819
1.451528118
1.43598168
)
;
    }
    procBoundary20to19
    {
        type            processor;
        value           nonuniform List<scalar> 
16
(
1.576283507
1.434018746
1.370306791
1.149910864
1.022896975
1.000870196
1.00000583
1.000000004
1
1
1
1
1
1
1
1
)
;
    }
    procBoundary20to25
    {
        type            processor;
        value           uniform 1;
    }
    procBoundary20to26
    {
        type            processor;
        value           nonuniform List<scalar> 
34
(
1
1
1
1
1
1
1
1
1
1
1
1
1
1
1
1
1
1
1
1
1
1
1
1
1
1
1
1
1
1
1
1
1
1
)
;
    }
    procBoundary20to27
    {
        type            processor;
        value           nonuniform List<scalar> 
16
(
1.091756567
1.383591033
1.441966671
1.446253042
1.448776783
1.455504431
1.461938067
1.471951389
1.471478869
1.44066894
1.371504185
1.187666286
1.040461445
1.003665941
1.000152947
1.00000344
)
;
    }
}


// ************************************************************************* //
