/*--------------------------------*- C++ -*----------------------------------*\
  =========                 |
  \\      /  F ield         | OpenFOAM: The Open Source CFD Toolbox
   \\    /   O peration     | Website:  https://openfoam.org
    \\  /    A nd           | Version:  7
     \\/     M anipulation  |
\*---------------------------------------------------------------------------*/
FoamFile
{
    version     2.0;
    format      ascii;
    class       volVectorField;
    location    "3.7";
    object      U;
}
// * * * * * * * * * * * * * * * * * * * * * * * * * * * * * * * * * * * * * //

dimensions      [0 1 -1 0 0 0 0];

internalField   nonuniform List<vector> 
22
(
(3.018835705 -0.003894166278 0)
(3.016072196 -0.0005339065138 0)
(3.013893078 -0.003837028886 0)
(3.028570085 -0.01341501032 0)
(3.026588204 0.003158431829 0)
(3.019002074 -0.002490453482 0)
(3.013895095 0.009049723489 0)
(3.042643443 -0.02487452591 0)
(3.029966115 0.003158733179 0)
(3.013046708 0.0009669531059 0)
(3.008515044 0.01316477489 0)
(3.049557239 -0.04893058777 0)
(3.029597341 -0.001648553911 0)
(3.006896087 0.0008961063732 0)
(3.003100851 0.01565439428 0)
(3.024385741 -0.07339213327 0)
(3.001199411 0.01157388348 0)
(2.999794285 0.01865970852 0)
(3.009565143 -0.09923886259 0)
(3.008663342 -0.08171596297 0)
(2.998440775 -0.04324916821 0)
(3.006276747 -0.1303418051 0)
)
;

boundaryField
{
    inlet
    {
        type            fixedValue;
        value           nonuniform 0();
    }
    outlet
    {
        type            inletOutlet;
        inletValue      nonuniform 0();
        value           nonuniform 0();
    }
    bottom
    {
        type            slip;
    }
    top
    {
        type            slip;
    }
    obstacle
    {
        type            slip;
    }
    defaultFaces
    {
        type            empty;
    }
    procBoundary28to21
    {
        type            processor;
        value           nonuniform List<vector> 2((3.044464392 -0.09566666684 0) (3.063438231 -0.1296046222 0));
    }
    procBoundary28to22
    {
        type            processor;
        value           nonuniform List<vector> 3((3.000023615 0.001967132108 0) (2.99570286 -0.000362400348 0) (2.99383686 -0.002528245011 0));
    }
    procBoundary28to27
    {
        type            processor;
        value           nonuniform List<vector> 6((3.072112564 -0.1640699651 0) (3.070256593 -0.210071983 0) (3.040784287 -0.1488773981 0) (3.040784287 -0.1488773981 0) (3.010108374 -0.08891326489 0) (2.989411444 -0.006596177861 0));
    }
    procBoundary28to29
    {
        type            processor;
        value           nonuniform List<vector> 7((3.010459696 0.008202639975 0) (3.010459696 0.008202639975 0) (3.009528129 -0.002717285201 0) (3.004349463 0.001080009214 0) (2.999329504 0.002301651943 0) (2.996896934 0.005041736162 0) (2.998754922 -0.01818301379 0));
    }
    procBoundary28to34
    {
        type            processor;
        value           nonuniform List<vector> 4((3.017692257 -0.1084496756 0) (3.010539301 -0.08111392352 0) (3.017692257 -0.1084496756 0) (2.989783885 0.004131010867 0));
    }
}


// ************************************************************************* //
