/*--------------------------------*- C++ -*----------------------------------*\
  =========                 |
  \\      /  F ield         | OpenFOAM: The Open Source CFD Toolbox
   \\    /   O peration     | Website:  https://openfoam.org
    \\  /    A nd           | Version:  7
     \\/     M anipulation  |
\*---------------------------------------------------------------------------*/
FoamFile
{
    version     2.0;
    format      ascii;
    class       volScalarField;
    location    "2.2";
    object      p;
}
// * * * * * * * * * * * * * * * * * * * * * * * * * * * * * * * * * * * * * //

dimensions      [1 -1 -2 0 0 0 0];

internalField   nonuniform List<scalar> 5(1.009961098 1.027803076 1.010206445 1.025580112 1.009485362);

boundaryField
{
    inlet
    {
        type            fixedValue;
        value           nonuniform 0();
    }
    outlet
    {
        type            zeroGradient;
    }
    bottom
    {
        type            slip;
    }
    top
    {
        type            slip;
    }
    obstacle
    {
        type            zeroGradient;
    }
    defaultFaces
    {
        type            empty;
    }
    procBoundary23to16
    {
        type            processor;
        value           nonuniform List<scalar> 2(1.053374581 1.061211926);
    }
    procBoundary23to17
    {
        type            processor;
        value           nonuniform List<scalar> 3(1.010404884 1.027629323 1.027629323);
    }
    procBoundary23to29
    {
        type            processor;
        value           nonuniform List<scalar> 2(1.025293546 1.009492335);
    }
}


// ************************************************************************* //
