/*--------------------------------*- C++ -*----------------------------------*\
  =========                 |
  \\      /  F ield         | OpenFOAM: The Open Source CFD Toolbox
   \\    /   O peration     | Website:  https://openfoam.org
    \\  /    A nd           | Version:  7
     \\/     M anipulation  |
\*---------------------------------------------------------------------------*/
FoamFile
{
    version     2.0;
    format      ascii;
    class       volScalarField;
    location    "3.2";
    object      rho;
}
// * * * * * * * * * * * * * * * * * * * * * * * * * * * * * * * * * * * * * //

dimensions      [1 -3 0 0 0 0 0];

internalField   nonuniform List<scalar> 
2222
(
1.284090988
1.284171446
1.284270461
1.284398938
1.284566284
1.284732242
1.284908611
1.284881694
1.284467314
1.284075262
1.283954961
1.284004586
1.284070177
1.284350446
1.284884411
1.283047787
1.28301182
1.283190982
1.283176308
1.282865424
1.283073953
1.283079781
1.282880522
1.283000838
1.282960963
1.282710683
1.28242883
1.282063753
1.281923983
1.281990014
1.282254388
1.282732212
1.282971368
1.28299676
1.283155563
1.283476853
1.283984686
1.284136473
1.284049884
1.284055293
1.284136441
1.284242623
1.28438328
1.284587211
1.284895479
1.284939494
1.284843912
1.284563527
1.284336963
1.284305714
1.284271848
1.284428066
1.284876627
1.283516339
1.283157831
1.283240211
1.283269897
1.283220251
1.283075982
1.282932518
1.283150378
1.28313518
1.282922095
1.282767683
1.282680805
1.28262405
1.282319778
1.282222979
1.282325951
1.282620556
1.282926274
1.282995651
1.283105209
1.283275293
1.283728985
1.284192435
1.284347026
1.284350529
1.284396884
1.284423115
1.284453441
1.284561993
1.284760801
1.285004556
1.284995721
1.284896735
1.284781599
1.284807092
1.284864752
1.284778389
1.284971028
1.283662887
1.283122041
1.283055704
1.28314102
1.283510659
1.283286197
1.283072572
1.28351763
1.283413012
1.283118679
1.282976971
1.283024943
1.283191938
1.283193872
1.282935628
1.282682848
1.282860652
1.283116811
1.283181771
1.283302121
1.28351259
1.283833597
1.284272767
1.284642291
1.284745174
1.284805696
1.284858557
1.284813846
1.28482967
1.284849129
1.284910186
1.285235544
1.285309124
1.285217226
1.28523056
1.285335767
1.285364434
1.285279557
1.28424844
1.283484214
1.283219764
1.283388332
1.284067307
1.283725943
1.283831439
1.284207752
1.284174145
1.283962275
1.283708889
1.283873029
1.284153142
1.284258754
1.284156483
1.283897982
1.283621057
1.28366431
1.283980166
1.284084994
1.284157925
1.284392118
1.284816332
1.285251948
1.285469585
1.28550027
1.285575439
1.285589688
1.285513625
1.28543443
1.285477968
1.285548174
1.285712686
1.285766622
1.285825974
1.285974616
1.286037559
1.285968828
1.285365767
1.284530565
1.284184258
1.284325281
1.285093725
1.285112319
1.285337421
1.285481017
1.285559594
1.285643709
1.285446143
1.285461865
1.285679113
1.285701327
1.285595141
1.285478134
1.285174432
1.285111386
1.285340549
1.285603224
1.285677267
1.285726937
1.286023538
1.286335985
1.286584909
1.286742299
1.28683869
1.286924751
1.286933116
1.286749767
1.2866744
1.286634777
1.286665678
1.286684266
1.286716833
1.286925034
1.287162228
1.287016833
1.28700622
1.286400685
1.286199392
1.286354577
1.286875047
1.287133018
1.287470037
1.287625132
1.28771637
1.287960065
1.288034811
1.287792614
1.287799044
1.287745028
1.287646736
1.287533485
1.287425884
1.287362345
1.287473529
1.287764388
1.288051887
1.288147696
1.288142305
1.288333921
1.288485538
1.288619955
1.288772717
1.288985905
1.289088983
1.289014879
1.28877994
1.288556149
1.288506776
1.288462936
1.28842135
1.288484084
1.288738802
1.288782569
1.290377323
1.28947479
1.289354759
1.289572912
1.289677893
1.290134798
1.290505144
1.290779091
1.290911178
1.291231889
1.291298957
1.29107174
1.290799133
1.2906211
1.290440775
1.290488148
1.290455549
1.290512263
1.290590984
1.290825229
1.29118843
1.291405097
1.29132626
1.291265145
1.291362395
1.291493214
1.291667216
1.291912257
1.292051181
1.29205583
1.291925239
1.291594418
1.291377888
1.291305055
1.29123857
1.291177019
1.291170186
1.291406937
1.294648872
1.294126445
1.293988858
1.294231252
1.293842462
1.294281094
1.294742882
1.295164587
1.295275754
1.295334018
1.295445544
1.295307136
1.294892133
1.294455323
1.29410224
1.29425384
1.294473245
1.294658596
1.294798106
1.294972444
1.295304423
1.295536349
1.295456008
1.295312388
1.295304942
1.295432058
1.295617564
1.295849667
1.295999641
1.296031966
1.295959099
1.29574191
1.295450489
1.295342236
1.295232626
1.295039427
1.294972664
1.295210583
1.300092992
1.299932463
1.299832288
1.30000027
1.299479362
1.299821081
1.300423798
1.30077148
1.300748977
1.300509466
1.300523189
1.300487565
1.300039859
1.299429055
1.299174738
1.299230238
1.299659079
1.299833635
1.300051731
1.300333646
1.300484999
1.300631712
1.30057825
1.300433403
1.300391809
1.300491338
1.300643734
1.300738318
1.300857814
1.300988529
1.300962498
1.300820172
1.300594794
1.300489245
1.300395951
1.300165069
1.299988424
1.300167787
1.307157778
1.30692292
1.306773471
1.306857848
1.306626183
1.306789268
1.307124197
1.307174836
1.307167729
1.306758368
1.306571388
1.30660226
1.306179329
1.305676294
1.305470285
1.305525471
1.30573842
1.306276629
1.306498074
1.306365216
1.306309184
1.306428367
1.306546158
1.306549087
1.306509104
1.30658222
1.306675893
1.306671961
1.306675323
1.306771618
1.306926201
1.306909214
1.306727076
1.306596709
1.306508427
1.306376603
1.306259012
1.306449271
1.315589534
1.315291366
1.31491853
1.314491806
1.314369826
1.314419941
1.314437042
1.31430731
1.314349505
1.313900552
1.31363209
1.313625373
1.313287754
1.313035113
1.31303001
1.312918212
1.313009596
1.313227077
1.313398021
1.313414663
1.313312193
1.31328844
1.313336051
1.313482267
1.313519316
1.313516636
1.313565649
1.313583909
1.313546607
1.313512538
1.313635818
1.313803049
1.313721894
1.313574863
1.313491319
1.313450572
1.313434257
1.313558776
1.324789769
1.32422698
1.323308256
1.322464772
1.322445636
1.322402779
1.322289884
1.322157841
1.322156876
1.321815408
1.321557166
1.321454986
1.321322788
1.321392568
1.321349299
1.321128492
1.321066339
1.321078903
1.321132443
1.321246967
1.321204232
1.32102249
1.321008752
1.32114204
1.321225942
1.321240473
1.321264862
1.321291902
1.321239752
1.321180335
1.321199381
1.321297394
1.321336834
1.32118145
1.321176393
1.321228122
1.321244117
1.321347775
1.332737522
1.331751456
1.330881817
1.330911787
1.33077964
1.330461952
1.330438622
1.330322521
1.330229644
1.330195341
1.33004081
1.330254999
1.330180321
1.329902924
1.329656362
1.329588955
1.329434376
1.329394381
1.329511499
1.329524033
1.32931693
1.329321112
1.32938953
1.32948607
1.329564427
1.329540423
1.329550062
1.329601448
1.329532493
1.329482031
1.32944813
1.329422295
1.329269078
1.329242132
1.32939973
1.32956687
1.329688545
1.340889098
1.339870099
1.339412893
1.339285966
1.339012907
1.338704075
1.33888301
1.338729073
1.339094061
1.33919475
1.33906613
1.339076571
1.338820222
1.338484514
1.338337603
1.338199563
1.337988284
1.337867704
1.337868763
1.338041195
1.337969519
1.337986079
1.337997895
1.338065429
1.33815464
1.338195351
1.338281572
1.338359104
1.338335604
1.338180092
1.338048831
1.337947056
1.337812747
1.337734707
1.337792881
1.337974502
1.338200606
1.349004021
1.34805211
1.347599058
1.347459139
1.347152968
1.347086058
1.347335933
1.347438882
1.347987072
1.348125327
1.348039499
1.34773583
1.347398706
1.346888634
1.346687268
1.346669372
1.34655176
1.346357958
1.346289578
1.346602246
1.346767523
1.346724401
1.346711392
1.346750587
1.346811312
1.346972605
1.347144473
1.347244891
1.347225567
1.347029013
1.346814091
1.346643551
1.346561635
1.346448185
1.346408783
1.346481105
1.3467295
1.356744948
1.355953209
1.355615182
1.355614983
1.355533757
1.355577168
1.35570844
1.35620397
1.356730025
1.356831185
1.356756165
1.356178048
1.355567319
1.355004511
1.354783368
1.354896639
1.35500524
1.354911564
1.354875691
1.355050847
1.355297951
1.355268112
1.355282626
1.35536675
1.355372455
1.355478694
1.355719943
1.355886524
1.355944284
1.355746494
1.355462192
1.355232408
1.355195121
1.355094695
1.355000941
1.354990727
1.355150119
1.364325308
1.363911455
1.363758283
1.363740353
1.363852564
1.363857465
1.363983088
1.364611373
1.364869234
1.364952291
1.364754359
1.364006029
1.36333427
1.36300033
1.362852308
1.362982319
1.363216561
1.363262479
1.363311099
1.363411073
1.363653109
1.363636516
1.363577109
1.363655559
1.363719335
1.363752819
1.363876495
1.363966501
1.364064764
1.364013632
1.363747768
1.363494305
1.363437461
1.363408738
1.363339682
1.363286782
1.36339452
1.372204982
1.371807605
1.3717459
1.37159022
1.371695807
1.371674209
1.371868399
1.372305105
1.372295508
1.37225375
1.371829126
1.37127582
1.370872954
1.37076006
1.37065581
1.370732889
1.370994254
1.371109388
1.371246524
1.371380509
1.37151893
1.371508787
1.371383108
1.371371272
1.371503049
1.371516962
1.371530373
1.371525952
1.371572796
1.371590522
1.371443317
1.371253683
1.371136282
1.371164313
1.371157831
1.371149967
1.37124903
1.37973348
1.379241751
1.379167507
1.378908745
1.378847374
1.37887313
1.379059976
1.379211233
1.379079741
1.378846645
1.378247106
1.377976432
1.377881062
1.377867532
1.377847513
1.377864407
1.378068148
1.37820775
1.378386115
1.378546129
1.378535824
1.378492686
1.378379275
1.378282722
1.378353159
1.378392672
1.378396346
1.378370477
1.378353463
1.378345659
1.378310619
1.378263182
1.378155994
1.378176722
1.378222869
1.378326626
1.378493463
1.386278369
1.385930896
1.385692284
1.385421515
1.385151558
1.385193918
1.385291787
1.385288668
1.385102826
1.384743781
1.384138104
1.383967081
1.384038396
1.384059391
1.384122281
1.384121873
1.384277336
1.384420074
1.384501463
1.384583348
1.384510071
1.384438034
1.384393866
1.384317553
1.38426746
1.384278217
1.384313095
1.384374088
1.384362028
1.384313092
1.384285047
1.384324352
1.384313711
1.384305665
1.384395443
1.384576082
1.384817514
1.39166735
1.39155901
1.391041438
1.390789926
1.390435359
1.390459244
1.39048783
1.390498437
1.390286969
1.389898988
1.389417069
1.389195042
1.389279937
1.38936509
1.389418236
1.389392199
1.38948346
1.389625629
1.389536781
1.389431963
1.389423608
1.389431619
1.389465689
1.389431684
1.389255534
1.389208356
1.389314786
1.389448237
1.389456042
1.389399758
1.389339887
1.389377168
1.389441835
1.389451335
1.389520231
1.389690713
1.389942039
1.395877739
1.395746573
1.394959246
1.394658886
1.394431278
1.394499833
1.394625973
1.394708173
1.394503295
1.394111201
1.393830997
1.393716556
1.393725648
1.393663079
1.393550427
1.39350297
1.393476535
1.393533898
1.393359957
1.393223759
1.393352907
1.393444105
1.393497216
1.393499995
1.393357379
1.393318069
1.393428194
1.39348305
1.393443592
1.39341566
1.393392904
1.393416889
1.393465602
1.393481881
1.393497244
1.393632889
1.393840979
1.398670691
1.39814754
1.397424356
1.39723812
1.397257575
1.397498082
1.397834664
1.397859016
1.397698875
1.397373557
1.397196941
1.397145645
1.397019059
1.396638223
1.396422357
1.396464259
1.396398292
1.396301316
1.396076047
1.395989802
1.396196831
1.396326738
1.39643471
1.396597659
1.396675754
1.396653728
1.396614409
1.3964926
1.396454858
1.396494663
1.39652054
1.396456006
1.396381596
1.396391099
1.396363414
1.396396815
1.396479402
1.399888348
1.399263153
1.398850596
1.398853827
1.399168979
1.399813997
1.400223552
1.400054896
1.399928411
1.399602048
1.399266404
1.39906063
1.39874877
1.398343267
1.398275929
1.398375218
1.398334763
1.398220944
1.398137156
1.398109056
1.398290143
1.398521904
1.398742554
1.398959844
1.399121554
1.399098974
1.398958565
1.398872136
1.398830564
1.398782235
1.398689884
1.398545701
1.398439632
1.398404919
1.398241761
1.398090572
1.398019595
1.400212525
1.399713808
1.399342386
1.399447295
1.400431824
1.401424377
1.401833107
1.401557057
1.401247071
1.400726896
1.400142596
1.399745834
1.399385045
1.399253709
1.399221565
1.399219448
1.399196063
1.399199711
1.399418413
1.399801252
1.400151206
1.400372769
1.400435285
1.400444905
1.40054166
1.400619617
1.400582492
1.400473352
1.400236953
1.399980418
1.399896454
1.399890427
1.39986497
1.39965325
1.399322454
1.399082623
1.398896353
1.399539031
1.399516863
1.400171447
1.401531006
1.402401328
1.402746748
1.40246632
1.401722449
1.401006471
1.400487686
1.400243171
1.399991264
1.399733079
1.399535602
1.399473601
1.39961125
1.399831292
1.400283541
1.400988973
1.401377021
1.401462548
1.401299422
1.401182374
1.401298762
1.401488629
1.401467925
1.401152418
1.400835059
1.400707113
1.400702787
1.40075152
1.4006653
1.400303397
1.400096251
1.399970508
1.399804467
1.400085127
1.400510807
1.401444995
1.402621247
1.403126005
1.403312617
1.402953455
1.402024519
1.401608277
1.401271554
1.400940517
1.400691192
1.400256486
1.400160961
1.40021355
1.400411095
1.400740108
1.401254962
1.401816029
1.401879702
1.401818498
1.401740177
1.401738838
1.401772263
1.401834259
1.401783167
1.401676781
1.401646278
1.401613934
1.401508785
1.401305771
1.401038618
1.400785019
1.400673369
1.400579091
1.400679517
1.401448276
1.401985835
1.402730032
1.40346668
1.40369478
1.403549241
1.403203457
1.402518057
1.40243125
1.402187594
1.401697682
1.401399972
1.401085062
1.401141245
1.401256771
1.401404945
1.40167617
1.402107968
1.402292893
1.402110923
1.402115533
1.402178237
1.402149248
1.401987261
1.401920386
1.402038998
1.402261101
1.402327741
1.402217292
1.401955336
1.401633936
1.401345712
1.401108546
1.400862537
1.400771234
1.401342286
1.402905521
1.403308869
1.403807209
1.404066276
1.404063118
1.403655385
1.403301814
1.402911964
1.402916191
1.402661654
1.402144478
1.401920788
1.402026327
1.402184026
1.402293722
1.402363364
1.402490983
1.402626183
1.402476994
1.402261614
1.402332605
1.402402375
1.402262898
1.402054743
1.402024997
1.402286578
1.402577184
1.402537759
1.402249859
1.401929922
1.401744934
1.401502642
1.401177948
1.40092749
1.401044621
1.401810885
1.403927737
1.404017631
1.404320846
1.404333796
1.404003622
1.403508995
1.403131944
1.403015079
1.402971363
1.40260645
1.402267076
1.402133856
1.40263332
1.402884124
1.402929625
1.402948243
1.403015247
1.402812793
1.402391306
1.402265679
1.40226614
1.402216961
1.402130684
1.4021686
1.402295755
1.402426515
1.402423168
1.402269596
1.402007674
1.401819284
1.401692602
1.401476899
1.401232356
1.401179075
1.401526508
1.402091154
1.404384743
1.403942425
1.403682862
1.403517665
1.403041484
1.402642856
1.402592611
1.40281865
1.402647027
1.402214306
1.402195471
1.402168375
1.40270885
1.402943877
1.402852555
1.402737
1.402591731
1.402157564
1.401723649
1.401911961
1.401995917
1.401974799
1.402084878
1.402367247
1.402541187
1.402392627
1.402088168
1.401961982
1.401958119
1.401871242
1.401613312
1.401428983
1.401380615
1.401669337
1.40207928
1.402327586
1.404086963
1.402924026
1.402252359
1.401931587
1.401516192
1.401548343
1.402097496
1.402444635
1.402047959
1.401636605
1.401676688
1.401799861
1.402069851
1.401995592
1.401796073
1.401406083
1.400972177
1.400694593
1.400906815
1.401414908
1.401720726
1.401947887
1.40220266
1.402483377
1.402483154
1.402184357
1.401965958
1.40206411
1.402167814
1.402009978
1.401589617
1.401378196
1.401520984
1.402015604
1.402400795
1.402232145
1.402926039
1.401333467
1.400477018
1.400348186
1.400373008
1.400815689
1.401728267
1.401994757
1.40158368
1.401232566
1.401118471
1.400927056
1.400613271
1.400273573
1.399972466
1.399779545
1.399713393
1.400008529
1.400698308
1.401335716
1.401717557
1.402083636
1.402336182
1.40240235
1.402170336
1.401872795
1.401903389
1.402162787
1.402255155
1.401993467
1.40152321
1.401389134
1.4016008
1.402016377
1.402113
1.401325582
1.401514268
1.400308864
1.399846401
1.399832433
1.400244429
1.400822898
1.401423268
1.401545078
1.401393684
1.40102685
1.400541793
1.400047427
1.399644003
1.399569484
1.399473662
1.399613055
1.399865031
1.400324635
1.400932449
1.401441654
1.401776307
1.402059418
1.402085678
1.401811641
1.401558206
1.4015746
1.401885998
1.402034732
1.40197384
1.401735864
1.401561293
1.401463806
1.401590161
1.4016896
1.401086498
1.400312532
1.400461578
1.39995245
1.39960102
1.399615687
1.400201851
1.400801475
1.401226226
1.401289679
1.40121018
1.400871081
1.400270661
1.399776297
1.39948683
1.399413377
1.399533562
1.399745068
1.400041289
1.400621595
1.401260937
1.401441989
1.401481822
1.401383079
1.401047379
1.400816222
1.400895604
1.401292924
1.401613004
1.401554956
1.401305354
1.401258873
1.401443607
1.401407188
1.401346783
1.400925514
1.400007412
1.400023658
1.399748637
1.399495479
1.39934803
1.399443921
1.400133482
1.400647646
1.40087055
1.400869679
1.40066619
1.400565367
1.400010244
1.399480922
1.399351597
1.399320903
1.399512788
1.399873488
1.400437962
1.400916811
1.400989581
1.400913015
1.400428273
1.400007081
1.399926103
1.400161655
1.400422736
1.400712386
1.400768822
1.40060442
1.400503003
1.400725407
1.400939201
1.400924181
1.400628639
1.399817448
1.399537048
1.399762465
1.398805368
1.398763924
1.398996902
1.399362858
1.400004984
1.400221357
1.40035398
1.399957376
1.399734491
1.399920482
1.399523505
1.399104735
1.399253721
1.399375804
1.399615162
1.399846915
1.400089416
1.400201222
1.399995931
1.39940482
1.398966564
1.399072707
1.399197458
1.399462066
1.399711349
1.399757978
1.399646211
1.399620412
1.399686851
1.399864807
1.39989534
1.399711972
1.399138024
1.398811187
1.398937606
1.399372691
1.397495459
1.39770029
1.398415456
1.399171797
1.399543591
1.399478322
1.399208904
1.398662941
1.398577967
1.398908322
1.398848328
1.398723706
1.39889865
1.398855861
1.398645461
1.398584909
1.398772618
1.3986563
1.397938879
1.397585234
1.397854769
1.398018057
1.398319814
1.39860844
1.398756625
1.398579373
1.398497751
1.398489702
1.398610058
1.398495793
1.39813104
1.397753589
1.397531799
1.397752178
1.398177277
1.398873717
1.395922584
1.396427145
1.39743177
1.39803061
1.397883659
1.397836527
1.397350613
1.397067048
1.39720012
1.397732626
1.397822491
1.397630692
1.397257833
1.397059348
1.396885931
1.396693388
1.396464996
1.395894031
1.395662181
1.396150033
1.396576031
1.397024913
1.397391336
1.397368998
1.397281264
1.397134907
1.397073731
1.3971839
1.397113793
1.396594283
1.396152398
1.396056903
1.396103934
1.396393705
1.397031206
1.397559632
1.394883985
1.395664084
1.396021797
1.395948207
1.39558682
1.394990254
1.395265875
1.395863903
1.396269916
1.396095584
1.395836491
1.39528276
1.394615854
1.394157716
1.393710134
1.393301306
1.393326651
1.394015745
1.394641489
1.395430339
1.39572211
1.395728193
1.395659623
1.395454796
1.3955138
1.395586141
1.395499874
1.395223891
1.394777069
1.394469691
1.394435034
1.394583135
1.394979701
1.395529513
1.395760043
1.393007374
1.393396706
1.39317995
1.39260868
1.392213373
1.392380381
1.393558205
1.394210768
1.394398
1.394072063
1.393339306
1.391990697
1.391164636
1.390985843
1.390982294
1.391160891
1.391675055
1.392462965
1.393401815
1.393853716
1.393813339
1.393724082
1.393491439
1.393489531
1.393644397
1.393760267
1.393617769
1.393324721
1.393037
1.392894775
1.39291677
1.393174325
1.393588495
1.393857299
1.393629427
1.39058608
1.389996568
1.389049348
1.388878443
1.389412397
1.390643865
1.391875034
1.392387253
1.392114441
1.391012798
1.389637255
1.389033762
1.389030201
1.38923581
1.389440094
1.389737419
1.390321503
1.391177875
1.39170502
1.392000446
1.391592629
1.391148014
1.391218978
1.391473532
1.391722397
1.391757284
1.391657778
1.391604371
1.391529723
1.391588973
1.391761891
1.392056845
1.392140069
1.392042115
1.391612381
1.387578008
1.386507587
1.386419546
1.386928574
1.387825003
1.389211106
1.39002498
1.389877972
1.388921545
1.387646039
1.387445152
1.387543417
1.387639996
1.387818611
1.388174726
1.388687649
1.389376896
1.389703521
1.389840658
1.389568333
1.389106554
1.389072339
1.389373315
1.389652567
1.389809975
1.38981848
1.389935566
1.390084331
1.390406359
1.390634486
1.390728948
1.390687479
1.390424392
1.390105111
1.389863488
1.385454255
1.384856833
1.385080805
1.385696455
1.386785015
1.38794313
1.387989876
1.387429192
1.386543291
1.386200686
1.386301166
1.386381206
1.386629138
1.386854583
1.387294724
1.387933684
1.388323402
1.38826769
1.387851014
1.387450504
1.387453117
1.387607784
1.387993246
1.388183522
1.388266109
1.388244098
1.388356576
1.388727682
1.389089991
1.389247689
1.389189261
1.388996298
1.388656003
1.38821552
1.388145317
1.384396048
1.383922684
1.384311067
1.385031405
1.386350064
1.386891657
1.38659079
1.386110967
1.385366136
1.385262199
1.385511617
1.385724448
1.386103929
1.386354546
1.386758356
1.387198077
1.387212912
1.386928586
1.386609083
1.386253388
1.386314038
1.386736642
1.387205723
1.387149941
1.387132968
1.387139168
1.387117147
1.387243173
1.387505486
1.387630074
1.3875663
1.387413967
1.386936349
1.386294555
1.386562665
1.383799637
1.383558865
1.384158703
1.385340964
1.386458789
1.38647048
1.385923516
1.385187401
1.384688408
1.384840827
1.385315126
1.38573653
1.386033636
1.386239738
1.386441443
1.386548801
1.386334905
1.385955962
1.385800604
1.385794211
1.386167078
1.386486046
1.386550293
1.386238192
1.386181696
1.386138974
1.386062388
1.385909761
1.386055409
1.38608684
1.385841269
1.385422326
1.385080719
1.385173121
1.385302443
1.3838575
1.383923111
1.384848104
1.386279116
1.386746614
1.386628294
1.385865719
1.385106781
1.384955915
1.385043054
1.38559199
1.386105373
1.386026841
1.385869748
1.385764313
1.38582089
1.38571861
1.38555433
1.385676526
1.386045207
1.386193026
1.385906441
1.38544872
1.385199733
1.385061134
1.385078449
1.385075588
1.385000169
1.384560722
1.384339582
1.384118032
1.383968618
1.384013372
1.384275354
1.384418524
1.383944858
1.384564576
1.385912567
1.386629873
1.386637283
1.38651393
1.38598698
1.385689221
1.385713181
1.385805438
1.385912288
1.385822732
1.385208806
1.384980913
1.384829103
1.384943374
1.385036106
1.385214496
1.385341509
1.385407736
1.385293112
1.384885604
1.384262955
1.384102086
1.383991005
1.384131085
1.38425103
1.384169818
1.383762874
1.383408987
1.383292848
1.383286087
1.383512264
1.383940703
1.383879406
1.38379456
1.384930096
1.385639956
1.385617873
1.385629199
1.385462324
1.385684912
1.385866313
1.385708344
1.385734149
1.385377985
1.384430381
1.383930947
1.383744653
1.383732842
1.383835476
1.383973112
1.384093255
1.384270029
1.384139422
1.384064558
1.383751575
1.383279326
1.383117587
1.383172747
1.383492848
1.383734856
1.383675835
1.383368256
1.383007368
1.383051956
1.383373238
1.383876025
1.38394712
1.383629803
1.383351464
1.384212903
1.384115761
1.384232837
1.38432981
1.384157981
1.384679753
1.384888763
1.384629785
1.384286575
1.383787811
1.382982521
1.382666581
1.382393301
1.382454011
1.38254485
1.382683143
1.382726158
1.383091756
1.383227984
1.383072049
1.38277723
1.382511004
1.382478213
1.38278493
1.383261376
1.383477494
1.383407479
1.383266552
1.383173512
1.383299215
1.383579831
1.383805778
1.383680814
1.383543887
1.382527694
1.382470103
1.382388581
1.382309569
1.382457185
1.382893225
1.383344729
1.383376552
1.383143655
1.382532936
1.382019726
1.381926114
1.381434126
1.381229717
1.381231896
1.381320965
1.381407737
1.381657905
1.382089505
1.382622685
1.382459522
1.38208817
1.382102113
1.382306111
1.382858827
1.383133442
1.383115264
1.382982124
1.38292575
1.383118993
1.383118861
1.383054901
1.383053418
1.383066081
1.383429208
1.38167268
1.380622952
1.380361034
1.38008354
1.380354294
1.381547835
1.382013692
1.381915703
1.381766832
1.381371176
1.381072244
1.380594512
1.38048247
1.380436221
1.380329616
1.380450346
1.380529296
1.380960374
1.38147522
1.381921465
1.381942781
1.381764303
1.382076896
1.382550776
1.382901927
1.382732698
1.382449053
1.382315795
1.382350715
1.382539472
1.382513081
1.382325069
1.382241136
1.382384466
1.383043769
1.380632555
1.37970198
1.379189306
1.379289188
1.379494605
1.380213488
1.380814837
1.380897701
1.380693708
1.380348952
1.380116472
1.379811718
1.379952072
1.379934012
1.379807758
1.379929881
1.380220627
1.381020419
1.38158752
1.381352475
1.381375868
1.381599906
1.382052666
1.382588377
1.382477731
1.38195327
1.38161754
1.381658642
1.381861627
1.381952877
1.381974193
1.381902464
1.381862862
1.381978736
1.382443949
1.378773823
1.37847902
1.378912051
1.379406207
1.379393085
1.380112652
1.380386861
1.380130702
1.380092674
1.37990511
1.380174601
1.380175341
1.379826348
1.379778182
1.379967229
1.380932328
1.381631575
1.381723961
1.380742549
1.380758479
1.381331074
1.381817941
1.382064514
1.381597425
1.381033143
1.380951085
1.38127035
1.381609068
1.381672469
1.381696929
1.381765298
1.381848957
1.381800812
1.381719082
1.378612652
1.378678626
1.378986014
1.379537379
1.380626599
1.380951603
1.380958819
1.38096256
1.380977676
1.381027879
1.381175083
1.381064223
1.38070129
1.380776528
1.381272293
1.38206356
1.381731343
1.381168098
1.380542856
1.380376226
1.380940763
1.381232797
1.381108827
1.380741034
1.380475078
1.380648285
1.381243146
1.38157325
1.381721884
1.381689568
1.381712274
1.381701547
1.381404398
1.38091494
1.380385785
1.380681185
1.38122674
1.381674967
1.382363227
1.382774368
1.382784491
1.382668476
1.382456137
1.382482844
1.381904969
1.381374594
1.3814174
1.381774172
1.382071433
1.381663853
1.381229752
1.379935483
1.380104298
1.38039615
1.380738575
1.380811205
1.380362631
1.380298771
1.380357324
1.380892448
1.381473416
1.381611997
1.381736781
1.381742007
1.381546202
1.38120041
1.380628107
1.380179183
1.381524344
1.382041261
1.382300045
1.382792325
1.382258594
1.382642275
1.383043832
1.382942982
1.382533149
1.382247276
1.381615692
1.380905597
1.381040224
1.381377978
1.381382169
1.380497356
1.379728871
1.37914152
1.379513382
1.380482416
1.38078469
1.380515717
1.380120147
1.380267882
1.380897291
1.381494499
1.38166377
1.381636001
1.381665664
1.381603219
1.3809903
1.380439855
1.379986784
1.379663192
1.381116759
1.381250476
1.381308998
1.381777993
1.381455422
1.381440273
1.381859619
1.382066249
1.381937297
1.38115219
1.38074497
1.380454539
1.380560717
1.380595589
1.380058146
1.379562456
1.378766243
1.379648458
1.380484916
1.381123886
1.381086407
1.380584355
1.380695642
1.380963761
1.381841678
1.381832369
1.381514098
1.381462946
1.381290146
1.381021771
1.380396877
1.379938878
1.379687978
1.379587528
1.38095188
1.380390779
1.380046391
1.380265922
1.38102709
1.38066341
1.380322157
1.380571258
1.380601506
1.380384897
1.380238716
1.380706425
1.380727039
1.380225136
1.379411832
1.379197248
1.379655946
1.380905985
1.382243942
1.382211056
1.381651755
1.381615533
1.381911675
1.382095895
1.381935606
1.381639413
1.381169949
1.381107189
1.380917636
1.380481612
1.380057522
1.379712903
1.379812828
1.380441835
1.380144714
1.379983057
1.37972954
1.379113088
1.379936558
1.380388509
1.380129866
1.379815366
1.379828495
1.380617133
1.38087562
1.381070995
1.380765896
1.379966052
1.379506584
1.379697418
1.381191018
1.382425317
1.383112173
1.382748429
1.382110226
1.382133462
1.382145384
1.382157937
1.381585853
1.381032703
1.38074346
1.380643418
1.380511053
1.380146875
1.379970645
1.380116968
1.380920443
1.381937931
1.378814429
1.378651222
1.37887882
1.379116245
1.378515737
1.37887847
1.379191942
1.379696354
1.380750057
1.381361088
1.381362387
1.380603563
1.380108167
1.379669393
1.379582016
1.380513486
1.381859015
1.382486112
1.382559351
1.382224712
1.381922892
1.38145166
1.381365254
1.381284008
1.38091118
1.380428302
1.380482526
1.380383597
1.380156008
1.380199179
1.38074601
1.381630815
1.377361168
1.377245318
1.377470993
1.377816936
1.377575243
1.37762859
)
;

boundaryField
{
    inlet
    {
        type            calculated;
        value           nonuniform 0();
    }
    outlet
    {
        type            calculated;
        value           nonuniform List<scalar> 
61
(
1.284852453
1.284969905
1.285296093
1.286016118
1.287046397
1.28878462
1.291384392
1.295184524
1.300105764
1.306427769
1.313575586
1.321362428
1.329740042
1.338245848
1.34671523
1.35510798
1.363363661
1.371232794
1.378483308
1.384808516
1.389945375
1.393865886
1.396526962
1.398076377
1.398921123
1.399782254
1.400629697
1.401283641
1.40175935
1.402062318
1.402322847
1.402287585
1.401455541
1.400340036
1.399976608
1.39972077
1.399317019
1.398845493
1.397565703
1.395779935
1.393658755
1.391620804
1.389871941
1.388155667
1.386570297
1.385307465
1.384411749
1.383852999
1.383592403
1.383507555
1.383406189
1.383051092
1.382489559
1.381792268
1.380991041
1.380237735
1.379669729
1.379489014
1.380292993
1.381898801
1.284855949
)
;
    }
    bottom
    {
        type            calculated;
        value           nonuniform 0();
    }
    top
    {
        type            calculated;
        value           nonuniform 0();
    }
    obstacle
    {
        type            calculated;
        value           nonuniform 0();
    }
    defaultFaces
    {
        type            empty;
    }
    procBoundary23to17
    {
        type            processor;
        value           nonuniform List<scalar> 
39
(
1.284114352
1.28426198
1.284394566
1.284539485
1.284721259
1.284866562
1.284929474
1.284877076
1.284598737
1.284178333
1.283998905
1.284054897
1.284161558
1.284512996
1.284811429
1.282775413
1.282798487
1.28297516
1.282886419
1.282429769
1.283040521
1.283212018
1.283082178
1.283122442
1.283008609
1.282543581
1.282066713
1.281824671
1.281905143
1.281938636
1.282329159
1.282949228
1.283152005
1.283132868
1.283336917
1.2838678
1.284134212
1.284104989
1.284104989
)
;
    }
    procBoundary23to22
    {
        type            processor;
        value           nonuniform List<scalar> 
63
(
1.283669459
1.28403158
1.284222516
1.284816266
1.285765379
1.287092042
1.290434632
1.295007833
1.300711973
1.307825811
1.316368608
1.325353338
1.333433361
1.333433361
1.341639565
1.349719162
1.357470731
1.364769371
1.372477779
1.379926846
1.3864102
1.391654774
1.395776587
1.398776177
1.400349986
1.400829663
1.400053527
1.400053527
1.400430773
1.401559868
1.402771343
1.403913092
1.404580327
1.40471593
1.404331534
1.403294453
1.401715346
1.400294669
1.39901675
1.397511384
1.395540828
1.394274476
1.394274476
1.392473072
1.390478652
1.388241316
1.38661312
1.385530851
1.385032943
1.384536103
1.38406299
1.383378097
1.382444073
1.381654204
1.381381708
1.381677425
1.379809486
1.379809486
1.379706154
1.380241709
1.381742367
1.381773832
1.380832165
)
;
    }
    procBoundary23to28
    {
        type            processor;