/*--------------------------------*- C++ -*----------------------------------*\
  =========                 |
  \\      /  F ield         | OpenFOAM: The Open Source CFD Toolbox
   \\    /   O peration     | Website:  https://openfoam.org
    \\  /    A nd           | Version:  7
     \\/     M anipulation  |
\*---------------------------------------------------------------------------*/
FoamFile
{
    version     2.0;
    format      ascii;
    class       volScalarField;
    location    "3.5";
    object      rho;
}
// * * * * * * * * * * * * * * * * * * * * * * * * * * * * * * * * * * * * * //

dimensions      [1 -3 0 0 0 0 0];

internalField   nonuniform List<scalar> 5(1.314590381 1.182881662 1.23856383 1.181696255 1.192987645);

boundaryField
{
    inlet
    {
        type            calculated;
        value           nonuniform 0();
    }
    outlet
    {
        type            calculated;
        value           nonuniform 0();
    }
    bottom
    {
        type            calculated;
        value           nonuniform 0();
    }
    top
    {
        type            calculated;
        value           nonuniform 0();
    }
    obstacle
    {
        type            calculated;
        value           nonuniform List<scalar> 3(1.182881662 1.181696255 1.192987645);
    }
    defaultFaces
    {
        type            empty;
    }
    procBoundary15to4
    {
        type            processor;
        value           uniform 1.331174579;
    }
    procBoundary15to9
    {
        type            processor;
        value           nonuniform List<scalar> 3(1.440920294 1.540848819 1.540848819);
    }
    procBoundary15to10
    {
        type            processor;
        value           nonuniform List<scalar> 4(1.391260874 1.268615521 1.268615521 1.295855404);
    }
    procBoundary15to21
    {
        type            processor;
        value           uniform 1.200834727;
    }
}


// ************************************************************************* //
