/*--------------------------------*- C++ -*----------------------------------*\
  =========                 |
  \\      /  F ield         | OpenFOAM: The Open Source CFD Toolbox
   \\    /   O peration     | Website:  https://openfoam.org
    \\  /    A nd           | Version:  7
     \\/     M anipulation  |
\*---------------------------------------------------------------------------*/
FoamFile
{
    version     2.0;
    format      ascii;
    class       volScalarField;
    location    "4.5";
    object      p;
}
// * * * * * * * * * * * * * * * * * * * * * * * * * * * * * * * * * * * * * //

dimensions      [1 -1 -2 0 0 0 0];

internalField   nonuniform List<scalar> 
2222
(
0.5886477153
0.5984434151
0.6388675203
0.7426706484
0.8467115732
0.8295181607
0.8122290794
0.7924226533
0.7743588732
0.7589756359
0.7441939089
0.729271529
0.716287339
0.7040648001
0.6917970873
0.6802166211
0.6706169976
0.6607420499
0.6499229295
0.6397324885
0.631318039
0.6238475425
0.6156678572
0.6095753111
0.6045967693
0.5980897542
0.58781164
0.5870995465
0.5869604137
0.5858631298
0.5873394189
0.603867479
0.6701470538
0.7845127629
0.8970659405
0.8195674347
0.8033655722
0.7867552925
0.7677050747
0.7500332312
0.7353088939
0.7215612162
0.7075787984
0.6951149565
0.683236934
0.6715672963
0.6609528505
0.6523370268
0.6433836686
0.6338144462
0.6243630709
0.6172702592
0.6111596378
0.6040335797
0.5994342501
0.5962854661
0.5903175179
0.5845766041
0.5852416649
0.5862936102
0.5905633249
0.620597952
0.7048541776
0.8199398699
0.9317620044
0.9562178869
0.7930953828
0.7781904226
0.7631977063
0.7454574441
0.7287629871
0.7152504337
0.7027531243
0.6895840476
0.6781245733
0.6675891868
0.6575617706
0.647675513
0.639821788
0.6318474521
0.623159774
0.6142800839
0.6077589456
0.602135857
0.5949759926
0.5926904187
0.5902584028
0.5850667702
0.5832751343
0.5846102486
0.5951514325
0.6446475977
0.7408239591
0.8769803121
0.9581923922
0.9985051103
0.9968527046
0.7694913232
0.7550539273
0.7405796181
0.7241289755
0.7083529094
0.6953018695
0.6830038955
0.6703389598
0.6591870043
0.6489718753
0.6390947252
0.6293769708
0.6221785558
0.6149925784
0.6068565102
0.5982758471
0.5928702335
0.5877030946
0.5817738651
0.5819859628
0.5818161555
0.5811584017
0.5838905416
0.6057927364
0.6718269598
0.8033004
0.9166391379
0.9630888175
0.9837713259
1.005940093
1.006361237
0.7438124478
0.7299137444
0.7156829856
0.6995634054
0.6841643093
0.6713842776
0.6598266692
0.6482191695
0.6384353937
0.6296595031
0.6212076014
0.6132550083
0.6079785873
0.6027121579
0.5955176528
0.5881090796
0.5850453978
0.5809597069
0.5783896714
0.5794469917
0.5807720998
0.5869122612
0.6218147308
0.7131129719
0.8440355723
0.9111619107
0.9671448562
0.9863490236
0.9912273047
0.9990693408
1.004139422
0.7197980929
0.7076584156
0.6952554645
0.6809512946
0.6668727067
0.6552878899
0.6452285789
0.6348809715
0.6263115836
0.6188992777
0.6115984083
0.6042583993
0.6006000537
0.5967859434
0.5893237525
0.5838444573
0.5818209646
0.5787420365
0.5785574248
0.5798971329
0.5938939898
0.6471342543
0.7543149093
0.8894749501
0.9813653352
0.9867663795
0.9962062706
1.002870151
1.003479734
1.003299131
1.005075625
0.6987063961
0.6867336147
0.6747224464
0.661171059
0.6471909895
0.6358885191
0.6264146005
0.6165857953
0.6091530022
0.6034187519
0.5963539929
0.5894570562
0.5883938631
0.5861230822
0.5790899687
0.5764559843
0.5767755882
0.5765592959
0.5796807565
0.6025199245
0.6854289631
0.7959059768
0.9075000747
0.9525215067
0.9972545329
1.002679328
1.003832658
1.005744876
1.007273273
1.006841763
1.005943639
0.6721843788
0.661029422
0.6498370709
0.6370578337
0.6240783597
0.6151608832
0.6081682983
0.6003341419
0.5952305931
0.5914113253
0.5847255673
0.5794601516
0.5800651452
0.5788695503
0.5747684814
0.5745850462
0.5755906219
0.5827230298
0.6225691183
0.714567221
0.8507946028
0.9478843384
0.9925207678
0.9888318067
0.9975778203
1.001353084
1.001540871
1.003589557
1.005378071
1.006764198
1.006590838
0.6521671172
0.6427809041
0.6337917284
0.6226148755
0.6115880032
0.6057741688
0.6010063861
0.5944827571
0.5907541497
0.5874620309
0.5815391342
0.577552005
0.5780499116
0.5774403571
0.5751473938
0.5763660154
0.592348251
0.6463980395
0.7682614704
0.9099689825
0.9528653104
0.9815360961
1.004382572
1.003663391
1.003463906
1.003593723
1.002443285
1.001271607
1.001961987
1.004441675
1.006032865
0.6327448542
0.6239594254
0.6164712383
0.6043847114
0.595488881
0.5932706458
0.5900024738
0.5842583736
0.5823812786
0.5799729312
0.5753387299
0.5734346136
0.5743903958
0.5750941955
0.5788489636
0.604718324
0.6889850944
0.8109082365
0.8935486385
0.9692282137
0.9848216843
0.9908649406
0.999627451
1.005281908
1.00561785
1.005447285
1.004194176
1.002072614
1.002243416
1.003352614
1.005305272
0.6076221285
0.6028733261
0.5981170778
0.587578238
0.5820316416
0.582089664
0.5802618027
0.575956477
0.5750288192
0.5736487219
0.571571716
0.5715589089
0.5727143835
0.5840724709
0.6263814963
0.7231006517
0.867156439
0.9685479927
0.9831388538
0.9997362684
1.00668279
1.005247574
1.004899029
1.006551002
1.006470248
1.005999413
1.005577455
1.004811762
1.004240799
1.004272656
1.004886229
0.5984352808
0.5961463086
0.5922848702
0.5839727004
0.5794378633
0.5793959008
0.5778031651
0.5743141284
0.5740230618
0.5733200484
0.571734932
0.573833352
0.5902618554
0.663302618
0.7681700188
0.884974344
0.9375589237
0.9937203217
1.00037726
1.006067696
1.009571086
1.009700202
1.008863299
1.007436227
1.005959843
1.005156259
1.004945999
1.004913761
1.004842776
1.004866304
1.004884541
0.5873265767
0.5869809998
0.5840875112
0.5774960519
0.5744549329
0.5749393992
0.5738030806
0.5719439469
0.5725419804
0.5731987381
0.5776720196
0.6091331278
0.6920968262
0.8278204927
0.9334893181
0.9868593958
0.9838010182
0.9945389267
1.000393753
1.005155829
1.006956882
1.007520379
1.007665276
1.006881165
1.005652139
1.004362177
1.004001982
1.004258681
1.00469298
1.004932114
1.004883608
0.5772084897
0.5775970979
0.5756491653
0.5705957453
0.5682113467
0.5685042494
0.5685569835
0.569039127
0.5709280095
0.5835965006
0.6313031129
0.7361721953
0.8814357752
0.9253619276
0.9670200063
1.001254836
1.001101059
1.002268589
1.003878254
1.003957734
1.002905004
1.003372394
1.004838221
1.005963094
1.005636282
1.004670765
1.003992414
1.003963763
1.004268256
1.004741176
1.005247904
0.5755794487
0.5761467053
0.5745972962
0.5697881518
0.5674656335
0.5676155672
0.5681361445
0.5712085005
0.5929948595
0.6650063055
0.7856309575
0.9026312598
0.9863068566
0.9906778683
0.9914706921
0.9986881568
1.002916923
1.005523788
1.006397021
1.005787325
1.004079755
1.003393596
1.004058993
1.005359886
1.005542451
1.005205222
1.004733232
1.004619615
1.00490218
1.005351556
1.005876947
0.573563541
0.5742132455
0.5734586396
0.5699046683
0.5681622107
0.5683188662
0.5744521871
0.6081434639
0.7057498176
0.8247087346
0.9300881603
0.9602241945
0.9919130021
1.003019674
1.004331919
1.004617799
1.004468419
1.00570664
1.006997026
1.007315575
1.006747361
1.005473421
1.005267996
1.005429109
1.005272038
1.005157073
1.004960056
1.004954262
1.005419397
1.006117061
1.006615233
0.5686836294
0.5699619903
0.5702616839
0.5685086044
0.5689620515
0.579741222
0.6351438828
0.7436898151
0.8818703876
0.961822366
0.9975744702
0.9922523477
0.9957187589
1.002090542
1.004917209
1.006001096
1.005478093
1.005500282
1.006480919
1.007152671
1.007271814
1.007011502
1.006310035
1.005796439
1.005102309
1.005026637
1.005051923
1.005224693
1.005776367
1.006491874
1.006744111
0.5664360475
0.5675722788
0.5681071905
0.5714671912
0.5948590976
0.6655044503
0.7863601428
0.9157940392
0.9517154924
0.9817745906
1.004929754
1.003719615
1.00062461
1.001669544
1.003724011
1.005483516
1.005782392
1.005523208
1.005646929
1.006188345
1.006683249
1.006592113
1.006124172
1.005448786
1.004676742
1.004592397
1.004691606
1.004953945
1.005456952
1.006023688
1.006088953
0.566858834
0.5678841447
0.5756931095
0.6161766396
0.7103751128
0.8403886864
0.9380036909
0.997123302
0.9973862539
0.9950002864
0.9993909374
1.004000297
1.002988443
1.001899244
1.002276915
1.003575308
1.00516638
1.005514544
1.005515573
1.005161608
1.004734773
1.004399458
1.004051947
1.003987423
1.004110103
1.004351475
1.004485345
1.004705838
1.005089593
1.005443587
1.005510037
0.5685008716
0.5836150689
0.6393493644
0.7725454395
0.8832204209
0.9571483184
0.9756787635
1.001421195
1.007218992
1.005884819
1.003213339
1.003652989
1.003871585
1.003091869
1.002953064
1.003445434
1.004727473
1.005587479
1.005467503
1.004807702
1.003864597
1.003074523
1.002953307
1.00330509
1.003946858
1.004429472
1.00477696
1.00520605
1.005622378
1.005864753
1.005867287
0.5955609029
0.6778362396
0.8035746664
0.9014164022
0.9642778161
0.9967501415
0.9926727901
0.9971696567
1.004852137
1.007178716
1.006286637
1.004822401
1.004363353
1.003943559
1.003980827
1.004309916
1.004641524
1.005172321
1.004988721
1.004522824
1.00404195
1.003621161
1.003610993
1.003744956
1.004049328
1.004498032
1.005058006
1.005805589
1.006434452
1.006584792
1.006534747
0.7141949713
0.8559115687
0.9632097353
0.9790589467
0.9929608026
1.00363122
1.004248476
1.002185883
1.003311106
1.006380844
1.00655438
1.005774525
1.004913493
1.004407605
1.004487084
1.004876039
1.005004358
1.004829907
1.004300552
1.004057249
1.004158669
1.004196768
1.0041842
1.004112488
1.004157966
1.004469067
1.005007468
1.005862836
1.006697907
1.006849302
1.006831921
0.8985038008
0.9431177706
0.9896038466
0.9927799867
0.9970348634
1.003136372
1.005451343
1.004736467
1.004025792
1.004798125
1.005890563
1.005763062
1.005002122
1.004219465
1.004158084
1.004638899
1.005183789
1.004982478
1.004563773
1.004049383
1.004025037
1.004197805
1.004251969
1.004030685
1.004077249
1.004535162
1.005248931
1.006081843
1.006573151
1.006665738
1.006661837
0.9953514775
0.9902349378
0.9970748356
0.9963199284
0.9958561942
0.9984856675
1.002748829
1.004887921
1.004661007
1.004388895
1.004796856
1.004951205
1.004500633
1.003575603
1.003431799
1.003763364
1.004782383
1.005046364
1.004917654
1.004501668
1.004100137
1.003982414
1.004170959
1.00448293
1.004716221
1.005066343
1.005557939
1.006123471
1.006345569
1.006381817
1.006351112
1.004963091
1.003018118
1.001289866
0.9999852707
0.9990356121
0.9996616362
1.002189798
1.004539705
1.004879392
1.004804794
1.004682392
1.004472344
1.003941962
1.00308937
1.002935216
1.003084494
1.003948309
1.005210162
1.005528926
1.005420621
1.005008581
1.004819683
1.004976493
1.005180969
1.00531851
1.005517141
1.00576492
1.005924567
1.006027946
1.00603238
1.006024189
0.9963232716
1.000561239
1.001389133
1.001654201
1.001606825
1.001869065
1.002880079
1.004331644
1.005072073
1.005215225
1.004940365
1.004633724
1.004011305
1.003258756
1.003152313
1.003291058
1.00406094
1.005367263
1.005940271
1.006005597
1.005805908
1.005453782
1.00548442
1.005580284
1.005617586
1.005632124
1.005708546
1.005639295
1.005620778
1.005606838
1.005664609
0.9973922991
0.9994022468
1.001905039
1.003232402
1.004297897
1.004775524
1.004974848
1.005318696
1.005613809
1.005369758
1.00484044
1.004500261
1.004081466
1.003653157
1.003627456
1.003819033
1.004436244
1.005684096
1.00631571
1.006408183
1.006236164
1.005876258
1.005839482
1.005843763
1.005735096
1.005692635
1.005773472
1.005610354
1.005515652
1.005456548
1.00551556
1.001696252
1.002016333
1.002774384
1.003816973
1.005176589
1.005863387
1.005928977
1.005851466
1.00562768
1.005039447
1.004284202
1.0039652
1.003653472
1.003471488
1.00353726
1.00384485
1.004597989
1.005754428
1.006244194
1.006269706
1.006022479
1.005444731
1.005205178
1.005284099
1.005396843
1.005621317
1.005958124
1.005903377
1.005756557
1.005636466
1.005702477
1.00158303
1.002138029
1.003711069
1.005124898
1.00604804
1.006306586
1.006272686
1.006161353
1.005490872
1.004282879
1.003512769
1.00322034
1.002975878
1.003072589
1.003509947
1.004047511
1.004660247
1.005353538
1.005495325
1.005382049
1.004940176
1.004497702
1.004519834
1.004745234
1.005099485
1.005567805
1.006078447
1.006176256
1.005983788
1.005793617
1.005709418
1.002502181
1.003100807
1.004360016
1.00561852
1.006024444
1.006068536
1.005888906
1.005445041
1.004454812
1.002770074
1.001739051
1.001389686
1.001229646
1.001829768
1.003193246
1.004134122
1.004760442
1.005151295
1.005145501
1.004862951
1.004340971
1.003998085
1.004026824
1.004264503
1.004707211
1.005242438
1.005618117
1.00561179
1.0054198
1.005280578
1.005219605
1.00200883
1.00228444
1.003060696
1.004464856
1.005450883
1.005534238
1.005456221
1.00505734
1.00435719
1.00331024
1.002007014
1.00131763
1.000924901
1.000999552
1.002261747
1.003635485
1.004227066
1.004591296
1.004658079
1.004466287
1.004073042
1.003759064
1.003823026
1.004027072
1.004298881
1.004527097
1.004945472
1.005316935
1.005405309
1.005397873
1.005259222
1.005046616
1.001914965
1.002187318
1.003040001
1.004558057
1.005400264
1.005342357
1.005080828
1.004353976
1.003344395
1.002083051
1.00117054
1.00109076
1.000893148
1.001120115
1.002424758
1.00391824
1.004565413
1.004551577
1.00445558
1.004187785
1.003701109
1.003361103
1.003539377
1.004045198
1.004504806
1.004784208
1.005058972
1.005188187
1.005066701
1.005211521
1.005365641
1.005199162
1.002483734
1.002591118
1.003126204
1.004624762
1.005368326
1.005216514
1.004864743
1.004030319
1.002999133
1.0016251
1.000629536
1.000609372
1.000729014
1.001207589
1.002460875
1.00387219
1.004530903
1.00475469
1.00466653
1.004370116
1.003700693
1.003380032
1.003369763
1.003691191
1.004472459
1.00498713
1.005287951
1.005270394
1.00496882
1.004645733
1.004913537
1.005210127
1.002822965
1.003191573
1.003733042
1.004960434
1.005700744
1.005663512
1.005312324
1.004237661
1.00289335
1.001243221
1.00027108
1.000185108
1.000459421
1.001329645
1.002612597
1.003718774
1.004400667
1.004683865
1.004714534
1.004561577
1.004042288
1.003503102
1.003401433
1.0035696
1.00410636
1.004952462
1.005446151
1.005488709
1.005030115
1.004567154
1.004506251
1.004794187
1.003082258
1.003597592
1.004053206
1.004989581
1.005622581
1.005771974
1.005657158
1.004881475
1.003692697
1.001718452
1.000010933
0.9997481859
1.000101174
1.001409082
1.003011596
1.003897862
1.004290532
1.004545043
1.00471492
1.004617566
1.004226365
1.003795068
1.003611666
1.003652119
1.004016766
1.004611927
1.005356163
1.005538132
1.005323926
1.004798091
1.004490755
1.004513758
1.003395288
1.003905516
1.004276506
1.004973845
1.005328115
1.005476483
1.005423417
1.004863886
1.00392482
1.002295002
1.000459941
0.9996162187
0.9997848313
1.001310365
1.003228596
1.004348627
1.004510089
1.004673371
1.00476393
1.00450697
1.004207208
1.00394424
1.003909358
1.003944949
1.004071669
1.00452979
1.005025555
1.005300054
1.005348925
1.005105712
1.004606848
1.00445915
1.003361805
1.003900641
1.004379896
1.004973219
1.005153045
1.00514141
1.004964545
1.00448171
1.003461868
1.002065605
1.000765366
0.999988436
0.9999465438
1.001262023
1.003135011
1.004597646
1.005063301
1.005276952
1.005149146
1.004535192
1.004068544
1.003941487
1.004013597
1.004214272
1.004358418
1.004521648
1.00496456
1.004953238
1.004972298
1.005091946
1.004893279
1.004644641
1.003123943
1.003523885
1.004346829
1.005040368
1.00511234
1.00495344
1.004509252
1.003928153
1.002781511
1.001414021
1.000477002
1.000135686
1.000359052
1.001755249
1.003114959
1.004578447
1.00539602
1.00569904
1.005683602
1.004984106
1.004122687
1.003850691
1.003899164
1.004235806
1.004631569
1.004771863
1.004928071
1.004861378
1.004600191
1.004678349
1.004872991
1.004885864
1.002658218
1.003285851
1.004456306
1.00521213
1.005195309
1.004966539
1.004425731
1.003664809
1.002456261
1.00079942
1.000038418
0.9999598476
1.000521187
1.002425076
1.003493464
1.004630823
1.005503311
1.005845792
1.005894045
1.005405994
1.004552389
1.003844541
1.003837739
1.003995567
1.0046259
1.005055449
1.00515797
1.004883224
1.004488712
1.004291001
1.004496577
1.004866204
1.002183493
1.002600529
1.003490189
1.004442452
1.005290431
1.005330789
1.00511227
1.004375327
1.003539246
1.00229178
1.000436499
0.9997407927
0.9997464638
1.000438004
1.002669822
1.004187184
1.004905484
1.005522445
1.005823684
1.005816676
1.005507226
1.004876111
1.004191512
1.00380059
1.003914679
1.0042825
1.005046153
1.005354515
1.005163415
1.004576086
1.00420848
1.004194361
1.004490744
1.002665462
1.003184219
1.003709574
1.004600268
1.005346894
1.005356292
1.005059977
1.004234416
1.003439116
1.002215726
1.000452469
0.9996381961
0.9996798141
1.000423131
1.002731765
1.004717824
1.005373785
1.005650373
1.005764331
1.005651564
1.005454554
1.004916206
1.004450071
1.004064854
1.003884088
1.00418706
1.004636302
1.005279475
1.005254508
1.004879174
1.004339725
1.004131674
1.004334421
1.003151428
1.003797155
1.004244663
1.005010081
1.005427472
1.005300608
1.004857787
1.004119533
1.003309801
1.002118212
1.000630272
0.999843551
0.9999169914
1.000604493
1.002743318
1.004840835
1.005786071
1.006049721
1.005964708
1.00552131
1.004957722
1.004643301
1.004451949
1.004271591
1.004162075
1.004190169
1.004528443
1.004744387
1.005024494
1.004960315
1.004650687
1.004289163
1.004287882
1.00320565
1.004075842
1.004629868
1.005513593
1.005834321
1.005556584
1.004830049
1.003918722
1.002897176
1.00173537
1.00063462
1.000076975
1.000287993
1.001128056
1.002855354
1.004971428
1.006050982
1.006369395
1.006371515
1.005730197
1.004802114
1.004160428
1.004118755
1.004252144
1.004390968
1.004520764
1.004546053
1.004601364
1.004420373
1.004656198
1.00474101
1.004519031
1.004570281
1.003201744
1.003986802
1.0048832
1.005837013
1.006145736
1.005888738
1.005279919
1.004195116
1.002818886
1.001083701
1.000016235
1.000069704
1.000474941
1.001619075
1.003307438
1.004982354
1.006122526
1.006449418
1.006495027
1.006012103
1.00498031
1.004026581
1.003697459
1.003864734
1.004411867
1.00476447
1.004864582
1.004694099
1.004299265
1.004068163
1.004474158
1.004536786
1.004774207
1.003495483
1.003867151
1.004624134
1.005758469
1.006341189
1.006145238
1.005629217
1.004734816
1.003187656
1.001135475
0.9995598625
0.9995176728
1.000084032
1.001790002
1.003761853
1.005122137
1.005899155
1.006315582
1.006490649
1.006105994
1.005177931
1.004222824
1.00364697
1.003582806
1.003988569
1.004805527
1.005098163
1.005012469
1.004475989
1.00393376
1.003939179
1.004301501
1.004795027
1.003919973
1.004223484
1.004781046
1.005315218
1.005680161
1.005576487
1.005559142
1.004949746
1.00361741
1.001696565
0.9997593494
0.999343496
0.9997270761
1.001310033
1.004071672
1.005564244
1.005890728
1.006006591
1.005930104
1.005737086
1.005263757
1.004416909
1.003904091
1.003618522
1.003817599
1.004404151
1.005180164
1.005173739
1.004845609
1.004136849
1.003800986
1.003852037
1.004441069
1.004144866
1.004862239
1.005383428
1.005520611
1.005332315
1.004759289
1.00427141
1.003833837
1.003387176
1.001950832
1.000269684
0.9996530748
0.9999604875
1.001153352
1.003922864
1.0058904
1.006183929
1.006135993
1.005765171
1.005026287
1.00474769
1.004552318
1.004156226
1.003960387
1.003964312
1.004251044
1.004889922
1.005290584
1.00502198
1.004586787
1.003989785
1.003783026
1.002650686
1.003935852
1.005206395
1.005965009
1.006064708
1.005691099
1.004948075
1.003985995
1.002817975
1.001718314
1.001082025
1.000456558
1.000132897
1.000520213
1.00152962
1.003481453
1.005914086
1.006462837
1.006500172
1.00597378
1.004910025
1.00413792
1.004136887
1.004353864
1.004251948
1.004426147
1.004441095
1.004686787
1.004935262
1.005143037
1.004807082
1.004460281
1.003969972
1.002488673
1.003319634
1.00455143
1.005816587
1.006371781
1.00615374
1.005449851
1.004254638
1.002800852
1.001056652
0.9995656639
0.999474476
1.000097271
1.000889214
1.002224269
1.003590728
1.00507266
1.006133559
1.00642965
1.006168304
1.00524911
1.004194069
1.003650899
1.003896827
1.004468078
1.004726533
1.004914122
1.004888263
1.004709988
1.004668508
1.00493088
1.004714354
1.004438358
1.003006139
1.003339037
1.003763605
1.004566039
1.005617773
1.005880195
1.005543893
1.004547765
1.003258043
1.001426836
0.9993605117
0.9986482222
0.9990862908
1.00050262
1.002668188
1.004121286
1.004807669
1.00516549
1.005522081
1.00586983
1.005545155
1.004686672
1.00378999
1.003531378
1.00394872
1.00485477
1.005242828
1.005383926
1.004954825
1.004463778
1.004426983
1.004785427
1.004745875
1.003844017
1.003815626
1.003914548
1.004094298
1.004465142
1.004408943
1.004378293
1.004389052
1.003632198
1.002099723
0.9998096888
0.9987273583
0.9988609822
0.9998644453
1.002571903
1.00477924
1.005139629
1.005033254
1.004884929
1.004806794
1.005216953
1.005037942
1.004332485
1.003729224
1.003622838
1.00414919
1.005204061
1.005681574
1.005487651
1.004770303
1.004261371
1.004252391
1.004656872
1.004341521
1.004471006
1.004413781
1.004435311
1.004463584
1.003973462
1.003261592
1.002883892
1.002679538
1.002019518
1.000312899
0.9993620192
0.9993914669
1.000168067
1.002068279
1.00500547
1.005676739
1.005497556
1.005096141
1.004475036
1.004268844
1.004608977
1.004712703
1.004299964
1.003856888
1.003876743
1.004379541
1.005393343
1.005732541
1.005413892
1.004641003
1.004147003
1.004067932
1.003961829
1.004802009
1.004833833
1.004954605
1.004833414
1.004119596
1.003075057
1.002095691
1.001291341
1.000887357
1.00050919
1.000075645
1.000245122
1.000940637
1.002342769
1.004405801
1.005857925
1.005990957
1.00569361
1.004910588
1.004082394
1.00375303
1.004206587
1.004684962
1.004460482
1.004247295
1.004252293
1.004507963
1.005174743
1.005636975
1.00531762
1.004611153
1.004081004
1.0033676
1.004080946
1.00473494
1.005078186
1.005105481
1.004536065
1.003671083
1.002593733
1.001314362
1.000026177
0.9996840594
1.000101595
1.000727505
1.001810899
1.003120806
1.004264539
1.005146201
1.005764484
1.006018214
1.005600625
1.004609003
1.003709508
1.003510128
1.004156629
1.004885286
1.004972475
1.004760752
1.004463475
1.00430175
1.004884035
1.005528746
1.005280591
1.004684062
1.003625581
1.003721134
1.004039892
1.00435205
1.004681406
1.004629745
1.004388647
1.003558369
1.002063963
1.000186457
0.9991021299
0.999169503
1.000175207
1.002161848
1.004080781
1.004829184
1.004995679
1.005152562
1.005336294
1.005731606
1.005280895
1.004312285
1.003636157
1.003567424
1.004360821
1.005353653
1.005503996
1.005105347
1.004428883
1.004156929
1.004696803
1.005380358
1.005325316
1.003976177
1.004388929
1.00422323
1.004266571
1.004300334
1.004021723
1.003630136
1.003817831
1.00382708
1.002809162
1.000940093
0.9993715887
0.9990344634
0.9994356078
1.001237484
1.00446778
1.005719964
1.00560787
1.005408513
1.004993191
1.00489086
1.005229785
1.004972118
1.004301784
1.003748111
1.003783292
1.004723876
1.005849735
1.005939274
1.005192515
1.004350069
1.00405264
1.004337576
1.005249621
1.003682443
1.004997173
1.005036381
1.005049928
1.004880649
1.004340575
1.003361277
1.00272582
1.002764821
1.002738306
1.001578349
1.000105884
0.9995428922
0.9997306892
1.000848227
1.003635263
1.006137946
1.006431912
1.00623592
1.005528483
1.004661399
1.004374693
1.004798849
1.004937468
1.004481701
1.004082508
1.00423457
1.005136446
1.006110811
1.005956242
1.005187175
1.004340175
1.003823588
1.004157642
1.003130999
1.004361077
1.005365351
1.005707765
1.00564129
1.005205595
1.004206525
1.003030805
1.001997149
1.001254118
1.001048288
1.000586136
1.000314962
1.000642423
1.001490855
1.00315203
1.005329638
1.006620152
1.006907055
1.006436604
1.005258132
1.004192473
1.003979228
1.004732579
1.005171613
1.004891615
1.00456813
1.004625454
1.005172278
1.006032745
1.006013958
1.00524034
1.004244517
1.003869695
1.003273739
1.003717458
1.004342867
1.005183605
1.00586717
1.005820736
1.005279244
1.003918662
1.00218806
1.000457671
0.9995775522
0.9998032129
1.000566387
1.001452638
1.002720277
1.003659741
1.004665285
1.005503062
1.006367706
1.006798501
1.006063328
1.004765551
1.003906167
1.003943032
1.004929524
1.005530087
1.005450608
1.005168106
1.004869205
1.005121753
1.00601525
1.005993129
1.0051866
1.004436775
1.003988292
1.003930968
1.00387493
1.004076122
1.004562436
1.004857843
1.005047772
1.004449143
1.002944074
1.000825838
0.9991458574
0.9987976569
0.9994264084
1.001131107
1.003453939
1.004744275
1.005014468
1.005049877
1.005161947
1.005583734
1.006051678
1.00542528
1.004426047
1.003842574
1.004045546
1.005288689
1.006221562
1.006161956
1.005317274
1.004771137
1.005011822
1.005789587
1.005806091
1.00542527
1.004622185
1.004663715
1.004279735
1.00395692
1.003762654
1.003371232
1.003390223
1.003904622
1.003465109
1.001677513
0.9996653592
0.9988326842
0.9990002
1.000050976
1.003131325
1.005652209
1.005927018
1.005701062
1.005171827
1.004593717
1.004557544
1.00508833
1.004923282
1.004375375
1.00401731
1.004382963
1.005825908
1.006688627
1.006204344
1.005331369
1.004781202
1.004750097
1.005212406
1.005841943
1.004405706
1.005255194
1.005046932
1.004729244
1.004283657
1.00340656
1.002455791
1.002078078
1.002205727
1.001849662
1.000454144
0.9995254836
0.9995500647
1.000122421
1.002244044
1.005394652
1.006642636
1.006514416
1.005824465
1.004699445
1.003810302
1.003726573
1.004442208
1.004814188
1.004425688
1.004170696
1.004764234
1.006212029
1.006860468
1.006334473
1.005309264
1.00450941
1.004240701
1.00500426
1.004173624
1.004869081
1.005386706
1.005488911
1.005123501
1.004124348
1.002544271
1.001329182
1.00064007
1.000440515
1.000507209
1.000236267
1.000523352
1.001173959
1.002455617
1.004293296
1.005893468
1.006461509
1.006318898
1.005408717
1.00417408
1.003344752
1.003364856
1.004251089
1.004782587
1.004742551
1.004770552
1.005247739
1.006255162
1.00678877
1.006187729
1.005140157
1.00427698
1.003108507
1.004477177
1.004607824
1.004764281
1.005074371
1.005349166
1.00472148
1.003337894
1.001987889
1.000656293
0.9994747218
0.9992569773
0.9999308807
1.001128811
1.002493757
1.003477595
1.004172034
1.004792131
1.00523927
1.005788414
1.005837291
1.004930526
1.003812693
1.003184342
1.003416561
1.004546674
1.005316953
1.005281803
1.005108623
1.005253193
1.006016447
1.006556221
1.006026189
1.005091839
1.003427545
1.005026599
1.004854854
1.00456718
1.004424922
1.004536248
1.004338747
1.003974764
1.002989773
1.001421919
0.9995726345
0.9988050579
0.9990971454
1.000310725
1.00268887
1.004581049
1.004958471
1.004957619
1.00476135
1.004581356
1.004832179
1.005150474
1.004588433
1.003849165
1.003525624
1.003900368
1.00516677
1.005902447
1.005777645
1.005335141
1.005136408
1.005499162
1.006110319
1.005939833
1.003558668
1.005232067
1.005412465
1.005154541
1.004761893
1.004141759
1.003210666
1.002999029
1.003055719
1.002067752
1.000517351
0.9994112897
0.999269973
0.9997648772
1.001387168
1.004583843
1.005858608
1.005822746
1.005239075
1.004365797
1.003907684
1.0041765
1.004748524
1.00469504
1.004197688
1.003912077
1.004617506
1.006133221
1.006526771
1.006009193
1.005219207
1.004756366
1.004932592
1.005757838
1.003498589
1.004659949
1.005594702
1.005738753
1.005418528
1.004440782
1.002954414
1.002079276
1.001827008
1.001905126
1.001387488
1.000356349
1.000129702
1.000261018
1.001031767
1.003379399
1.005802041
1.006416938
1.006143825
1.005305751
1.00420739
1.003668851
1.003849865
1.00471424
1.004997005
1.004710038
1.004744196
1.005512079
1.006552045
1.006682543
1.006071167
1.005134103
1.004457995
1.004581766
1.003667677
1.004466335
1.004879811
1.005419543
1.005677814
1.005105087
1.003900353
1.002563145
1.001431485
1.000641217
1.00062641
1.000628737
1.000951911
1.001388441
1.001978428
1.003214101
1.004706357
1.005832062
1.006579124
1.006365287
1.005194848
1.004041214
1.003528917
1.003966115
1.005206197
1.00570307
1.005448148
1.005364084
1.005844685
1.006742401
1.006836972
1.006048503
1.004927206
1.004211848
1.004139623
1.004979289
1.004738358
1.0047342
1.004989114
1.005160246
1.004688793
1.003376806
1.001789493
1.000212065
0.9994516816
0.9995376876
1.000625465
1.002188543
1.003620658
1.004240503
1.004668764
1.004966898
1.00535379
1.006012273
1.00589057
1.005000128
1.004100979
1.00387879
1.00450906
1.005883556
1.006281682
1.006043439
1.005693386
1.004627976
1.005822732
1.005454344
)
;

boundaryField
{
    inlet
    {
        type            fixedValue;
        value           nonuniform 0();
    }
    outlet
    {
        type            zeroGradient;
    }
    bottom
    {
        type            slip;
    }
    top
    {
        type            slip;
    }
    obstacle
    {
        type            zeroGradient;
    }
    defaultFaces
    {
        type            empty;
    }
    procBoundary10to4
    {
        type            processor;
        value           nonuniform List<scalar> 
32
(
0.5907859737
0.5912836089
0.5942012607
0.6218854412
0.8731314422
0.8555504789
0.8376606681
0.8163770558
0.7969734659
0.7807639581
0.7653066671
0.7493114118
0.7358549203
0.7236270139
0.7113948812
0.6997021005
0.689762286
0.6795826829
0.6683080174
0.6575862563
0.6487955009
0.6409433801
0.632381263
0.6256397991
0.6199494121
0.6135633121
0.6037456761
0.5993679217
0.5962220314
0.5902422168
0.587736138
0.587736138
)
;
    }
    procBoundary10to5
    {
        type            processor;
        value           uniform 0.8610194084;
    }
    procBoundary10to9
    {
        type            processor;
        value           nonuniform List<scalar> 
55
(
0.8690532496
0.8405512959
0.8133277871
0.7890340878
0.7620505438
0.7367905797
0.7151387159
0.687885067
0.6662850138
0.6471691592
0.6214441868
0.6088257159
0.5950253229
0.5811478667
0.5781191184
0.5748298171
0.5691178333
0.566970285
0.5671429573
0.567152061
0.5711583082
0.6176995261
0.7621835144
0.9223559199
0.985751076
0.990517735
0.9981121589
1.002728336
1.001810264
1.002100825
1.002100825
1.001335536
1.00185902
1.002099714
1.002025963
1.002184757
1.002520347
1.002674032
1.002668509
1.002300381
1.002300381
1.00157944
1.001799297
1.002142524
1.002131187
1.002558351
1.003125387
1.003469715
1.003358143
1.003358143
1.001294587
1.001634244
1.002378067
1.003075732
1.002956674
)
;
    }
    procBoundary10to11
    {
        type            processor;
        value           nonuniform List<scalar> 
70
(
0.9783431893
0.9910723901
0.9982680526
1.00521142
1.006321941
1.0056335
1.005363089
1.006108369
1.005911925
1.005855327
1.005377303
1.004980078
1.004840955
1.005510014
1.006218252
1.006925018
1.006851998
1.006134483
1.005433731
1.005666343
1.006240184
1.006570296
1.006413423
1.006083763
1.005843204
1.005707691
1.005656351
1.005985168
1.006004893
1.005472817
1.005202126
1.00533988