/*--------------------------------*- C++ -*----------------------------------*\
  =========                 |
  \\      /  F ield         | OpenFOAM: The Open Source CFD Toolbox
   \\    /   O peration     | Website:  https://openfoam.org
    \\  /    A nd           | Version:  7
     \\/     M anipulation  |
\*---------------------------------------------------------------------------*/
FoamFile
{
    version     2.0;
    format      ascii;
    class       volScalarField;
    location    "4.6";
    object      rho;
}
// * * * * * * * * * * * * * * * * * * * * * * * * * * * * * * * * * * * * * //

dimensions      [1 -3 0 0 0 0 0];

internalField   nonuniform List<scalar> 
2222
(
1.824131843
1.820949628
1.820396323
1.821055521
1.821003494
1.819847815
1.819365488
1.80859596
1.80796419
1.808479516
1.809564125
1.809831563
1.810034998
1.810749527
1.812402697
1.814891679
1.817496111
1.819676662
1.821702693
1.823851722
1.825604775
1.826365855
1.826862507
1.827122514
1.827140988
1.826876696
1.826114424
1.825181144
1.824105362
1.823746183
1.823682226
1.823689367
1.823844433
1.808596137
1.807963979
1.808479016
1.809563916
1.809831795
1.810035304
1.810749678
1.812402682
1.814891611
1.817496064
1.819676635
1.821702676
1.823851626
1.825604809
1.826365948
1.82686248
1.827122401
1.827140847
1.826876677
1.826114512
1.825181367
1.824105551
1.823746169
1.82368219
1.823689274
1.823844264
1.824047614
1.824142359
1.824145751
1.82412704
1.824031557
1.823910246
1.823892471
1.824015081
1.824402664
1.824841425
1.824909075
1.824810829
1.824585685
1.824284865
1.824148002
1.824101951
1.824113703
1.824339222
1.824511886
1.824456182
1.824299428
1.824089384
1.82396395
1.823931544
1.823926011
1.824021799
1.824233451
1.824265991
1.82418761
1.824044657
1.823908042
1.823861421
1.823844026
1.823855483
1.823970577
1.824098571
1.824098437
1.824060505
1.824012675
1.823992998
1.823987207
1.824132112
1.820949858
1.820396005
1.821055194
1.821003659
1.819848287
1.819365564
1.819682902
1.820422149
1.820821803
1.82074754
1.820736094
1.820704692
1.820262684
1.81973417
1.819418024
1.819635607
1.820668795
1.822025748
1.822527211
1.822443153
1.822394589
1.82251027
1.822799988
1.82310876
1.823519328
1.824201179
1.824818792
1.824936133
1.824915934
1.824743111
1.824310821
1.823995537
1.823950034
1.823985451
1.824220687
1.824433953
1.824457395
1.824421207
1.824242085
1.824010897
1.823948122
1.823944892
1.824033902
1.824234046
1.824336377
1.824329458
1.824288642
1.824177181
1.82402634
1.823982857
1.823991204
1.824082736
1.824187667
1.824181722
1.824135791
1.82406212
1.823975439
1.823946312
1.823944254
1.823978976
1.824079587
1.824198968
1.824246412
1.824239936
1.824222612
1.824213378
1.83805044
1.836065089
1.833194969
1.830659898
1.829199653
1.827465301
1.824287319
1.821867424
1.821078607
1.819760643
1.818089121
1.816837143
1.816133966
1.815140684
1.814197393
1.814301285
1.814964397
1.816774625
1.819599035
1.822261545
1.823917617
1.824638602
1.824950883
1.824993609
1.824834874
1.82474392
1.82483158
1.824969099
1.824888639
1.824626851
1.824270881
1.82385123
1.823571852
1.823543877
1.823602935
1.823830842
1.824137557
1.824291941
1.824373041
1.82441898
1.824392639
1.824320915
1.824302835
1.824308774
1.824346385
1.824427216
1.824462254
1.82447671
1.824453903
1.824334406
1.824207793
1.824185137
1.824195479
1.824226464
1.824286519
1.824327807
1.824339065
1.824337406
1.824315355
1.82431095
1.824322811
1.824349885
1.824413698
1.824476163
1.82448697
1.824491854
1.824479126
1.854278203
1.854637501
1.853993525
1.852228143
1.849996252
1.847253616
1.842909882
1.837761266
1.833913029
1.830367364
1.826685359
1.823343694
1.82185487
1.820950279
1.819485893
1.818229211
1.817981001
1.818293723
1.819506134
1.820710769
1.821057115
1.821398353
1.821497775
1.821428663
1.821770794
1.822229908
1.822805571
1.823470625
1.823651815
1.823651587
1.823752865
1.824011177
1.824180821
1.824286592
1.824462973
1.824698207
1.82482536
1.82482899
1.824811232
1.824755618
1.824658041
1.824537267
1.824426273
1.824359121
1.824318021
1.824299072
1.82431095
1.824337459
1.824364778
1.824369256
1.824336988
1.824367229
1.824427674
1.824492873
1.82458548
1.824658783
1.824686129
1.824696656
1.824671727
1.824613317
1.824603832
1.824634492
1.824663227
1.824682654
1.824684954
1.824688706
1.824676499
1.852615153
1.853879208
1.853451662
1.852334706
1.850077437
1.845460962
1.839137966
1.835759488
1.833718426
1.833973411
1.833617848
1.83277795
1.831316554
1.830460887
1.829226451
1.827300564
1.825384584
1.823603289
1.821790251
1.820593844
1.819357597
1.819001336
1.8188634
1.818728861
1.818778705
1.81910857
1.81992796
1.820976365
1.821846991
1.822394665
1.822899769
1.823540634
1.823855339
1.823944587
1.824084885
1.824296749
1.824464679
1.824482127
1.824505667
1.824580643
1.824596656
1.824573638
1.824525545
1.824457262
1.824419594
1.824441585
1.824527019
1.824665948
1.824751745
1.824784715
1.824797983
1.824791999
1.824825842
1.824882603
1.824948502
1.824981739
1.824979748
1.824956572
1.824922614
1.824897711
1.824891414
1.824855491
1.824789811
1.82473593
1.824712871
1.824687506
1.824674221
1.798556726
1.813791822
1.818615445
1.823608257
1.828390994
1.831393156
1.835287662
1.840937762
1.84443933
1.844627441
1.845040652
1.84608664
1.845875191
1.845025907
1.843831218
1.841895123
1.838718608
1.834866244
1.831100663
1.827030551
1.823198823
1.821080049
1.82084606
1.820702799
1.820494611
1.820369326
1.820316259
1.820423481
1.820770093
1.821460315
1.822268878
1.823133054
1.823546084
1.823581559
1.82342773
1.823272003
1.82338261
1.823498677
1.823623604
1.823935136
1.824268193
1.824333396
1.824359235
1.824417258
1.824504183
1.824624707
1.824804022
1.825031452
1.825128487
1.825141896
1.825127954
1.825069395
1.825042993
1.825045951
1.825029792
1.825019676
1.825030795
1.825035685
1.825005053
1.824925836
1.824832679
1.82485722
1.824911163
1.824929699
1.824941319
1.824930704
1.824907421
1.678782581
1.72344828
1.753867674
1.775752844
1.801360696
1.819712371
1.829798338
1.841546422
1.845314542
1.844409285
1.845347584
1.845411063
1.844580285
1.843269504
1.840819581
1.837492637
1.834530752
1.833034113
1.831990722
1.831493793
1.830553367
1.830033034
1.82973274
1.829363175
1.828476858
1.82665471
1.824970055
1.823986261
1.823214951
1.822287408
1.821740936
1.821589429
1.821440862
1.821163352
1.820840245
1.820744582
1.820924527
1.821320611
1.822006522
1.822960966
1.823888406
1.824493938
1.824717876
1.82480301
1.824859651
1.824913262
1.824998375
1.825194326
1.825389861
1.825413096
1.825377398
1.825204766
1.824934478
1.824740753
1.824711291
1.824727359
1.824785396
1.824852181
1.824874164
1.824881773
1.824870099
1.824887524
1.824936658
1.82500709
1.825106425
1.82517943
1.825187185
1.492819535
1.52819748
1.574659703
1.613432198
1.655059534
1.694609907
1.724167186
1.759953729
1.779712633
1.791372749
1.80678653
1.812028419
1.816130125
1.821081125
1.824509905
1.828627505
1.834799332
1.839910077
1.840268474
1.840743958
1.84191835
1.842622083
1.842121481
1.841005079
1.839228296
1.836135967
1.832703315
1.828863805
1.825901923
1.823096471
1.821899324
1.822062505
1.822207814
1.822120841
1.821860254
1.821651529
1.821632535
1.821821583
1.822297406
1.823124166
1.823762807
1.823893222
1.823841987
1.823678951
1.82354853
1.823578292
1.823701213
1.823958983
1.824387056
1.824717337
1.824796119
1.824828925
1.824782865
1.824741302
1.824758334
1.824843631
1.825051784
1.825253973
1.825287767
1.825264693
1.825202379
1.825129144
1.825116709
1.825141032
1.825211743
1.825322969
1.82537203
1.409511401
1.417478495
1.431597464
1.45075621
1.475260466
1.510779134
1.547887413
1.589083166
1.633654258
1.670060695
1.712225931
1.745452692
1.768310251
1.793368123
1.810738261
1.820334035
1.832434906
1.838035138
1.837244232
1.838252569
1.840088829
1.839729189
1.839131583
1.83692283
1.833667779
1.830264556
1.829350836
1.830053997
1.829915055
1.829157874
1.828254841
1.828066628
1.828540975
1.828504056
1.827384299
1.826099265
1.825295483
1.824655829
1.824137557
1.823674131
1.823213925
1.822642289
1.822082132
1.821926527
1.821957488
1.82204585
1.822196972
1.822540782
1.823179973
1.823720492
1.824146967
1.824478084
1.824650901
1.824743119
1.824844435
1.825034917
1.825357816
1.82560702
1.825622984
1.825570235
1.825420177
1.82519355
1.82505124
1.825035
1.825078129
1.825239691
1.825387345
1.400201169
1.400538108
1.40135688
1.403164638
1.406511817
1.412905118
1.423394027
1.438561792
1.462825342
1.49084911
1.523385686
1.568257796
1.607752322
1.648580973
1.688487168
1.716471969
1.750208297
1.771735873
1.7833055
1.799205543
1.807514002
1.810809632
1.816296039
1.819973103
1.823147352
1.828536659
1.833931876
1.837025388
1.838191868
1.839665508
1.839963629
1.839378025
1.838373386
1.836812108
1.834376329
1.831499521
1.829367961
1.826931327
1.824618714
1.823204936
1.822971184
1.822653256
1.822359138
1.822394496
1.822475599
1.822569208
1.822838944
1.82340105
1.824017177
1.824286178
1.824214131
1.824036964
1.823926115
1.823868598
1.823927503
1.824110689
1.824403563
1.824781588
1.824974177
1.825012436
1.825030116
1.825024361
1.82504074
1.825097834
1.825213695
1.825366758
1.825462264
1.400005646
1.400007647
1.400015084
1.400040888
1.40011749
1.400326299
1.400870788
1.402037932
1.404524504
1.409332485
1.416971878
1.430488075
1.449686647
1.473343432
1.50755431
1.544164517
1.583454495
1.628328747
1.664780226
1.703878806
1.738805059
1.761245325
1.784426159
1.805550499
1.814531142
1.823475864
1.833020341
1.833233291
1.833663843
1.836229475
1.836229251
1.835665969
1.833898146
1.831064943
1.827867596
1.826926152
1.827428382
1.828400176
1.82818454
1.827705492
1.827845142
1.827815317
1.827755463
1.82760824
1.826926439
1.825909134
1.825247864
1.824786435
1.824209118
1.823771313
1.823325501
1.822910703
1.82286782
1.822899785
1.822971678
1.823094522
1.823314384
1.823689784
1.824075564
1.824319688
1.824638346
1.82498135
1.825120314
1.82518228
1.825254669
1.825378451
1.825462488
1.40000504
1.400005042
1.400005049
1.400005095
1.400005321
1.400006321
1.400010329
1.400024445
1.400069007
1.400200647
1.400535516
1.401333888
1.403128392
1.406458127
1.412659649
1.423109347
1.437840183
1.461228986
1.490110468
1.520871031
1.564013263
1.604986805
1.64135589
1.683488008
1.712670186
1.740591325
1.768866197
1.779274718
1.790973699
1.804103661
1.806602911
1.811078548
1.816079688
1.819852984
1.824076565
1.82887842
1.833940823
1.835786161
1.836961282
1.837165759
1.836705464
1.836046125
1.835027061
1.833353135
1.830952452
1.828903879
1.826691674
1.824839292
1.823487971
1.823137667
1.822989767
1.822995837
1.823090071
1.823393675
1.823594548
1.823792104
1.824060045
1.824274121
1.824494209
1.824573602
1.824450714
1.824442093
1.824514719
1.824508571
1.824459414
1.824527662
1.824782633
1.40000504
1.40000504
1.40000504
1.40000504
1.40000504
1.400005041
1.400005044
1.400005064
1.400005169
1.400005666
1.400007731
1.40001532
1.400041532
1.400120054
1.400329721
1.40087617
1.402063131
1.404499701
1.409379702
1.417015958
1.42977215
1.449478152
1.472602602
1.504943439
1.543411962
1.580208116
1.623598958
1.662404639
1.696544206
1.734795275
1.758263748
1.776552453
1.799662053
1.811440526
1.817867591
1.827874177
1.831117778
1.830708498
1.832213569
1.833230715
1.83262803
1.83114148
1.829027377
1.826606927
1.825365588
1.825766498
1.82707865
1.827246339
1.826974856
1.827166164
1.827508985
1.82744012
1.827427131
1.827128596
1.826471681
1.825867234
1.825187711
1.824423162
1.823973484
1.823714813
1.823513627
1.823578967
1.823692476
1.823726637
1.823699663
1.823776345
1.824062451
1.40000504
1.40000504
1.40000504
1.40000504
1.40000504
1.40000504
1.40000504
1.40000504
1.40000504
1.40000504
1.400005042
1.40000505
1.400005099
1.40000534
1.400006395
1.400010584
1.400025368
1.400071518
1.400206769
1.400553727
1.40135187
1.403164991
1.406602112
1.412628966
1.423288935
1.438199317
1.459866588
1.490237626
1.520753198
1.559584416
1.604562147
1.639000023
1.678735423
1.711387181
1.734047421
1.764487779
1.77828245
1.786551104
1.799627342
1.804633953
1.807329079
1.811959476
1.817148188
1.82142201
1.825558091
1.830700434
1.833936356
1.834860896
1.834985876
1.834603643
1.834165172
1.833455026
1.832044031
1.830124808
1.828394786
1.826534545
1.824970148
1.823798402
1.823301375
1.823310256
1.823498867
1.823847904
1.824284811
1.824453575
1.824569556
1.824666497
1.824764504
1.40000504
1.40000504
1.40000504
1.40000504
1.40000504
1.40000504
1.40000504
1.40000504
1.40000504
1.40000504
1.40000504
1.40000504
1.40000504
1.40000504
1.400005041
1.400005044
1.400005067
1.400005182
1.400005719
1.400007948
1.400016061
1.400043591
1.400127557
1.400346018
1.400904172
1.402159953
1.404585469
1.409468279
1.417583917
1.429714713
1.449660315
1.473924047
1.503402896
1.543261099
1.580747521
1.620867256
1.662052175
1.693474761
1.729485993
1.757469934
1.774947305
1.793822688
1.809128512
1.815318465
1.822272859
1.828846836
1.829371278
1.829703071
1.830790178
1.830460468
1.829254854
1.827224665
1.824572854
1.824116916
1.824688244
1.825944275
1.826446289
1.826776623
1.826833332
1.826853281
1.827065794
1.827453427
1.827295839
1.826770316
1.826212311
1.825530955
1.82469963
1.40000504
1.40000504
1.40000504
1.40000504
1.40000504
1.40000504
1.40000504
1.40000504
1.40000504
1.40000504
1.40000504
1.40000504
1.40000504
1.40000504
1.40000504
1.40000504
1.40000504
1.40000504
1.40000504
1.400005042
1.400005052
1.400005107
1.400005379
1.400006549
1.400011118
1.400027183
1.400076902
1.400218565
1.400591691
1.401426685
1.403260166
1.406928657
1.413002147
1.423538265
1.439563214
1.46006672
1.490574018
1.523803416
1.558015927
1.602897309
1.641472474
1.676935093
1.710143438
1.733799139
1.759014493
1.776476644
1.785086243
1.796178655
1.802762783
1.805834729
1.809952666
1.814844259
1.819321603
1.823599913
1.82881426
1.83294326
1.833088531
1.833465124
1.833193854
1.83260527
1.831801305
1.830685589
1.829314084
1.8279048
1.826116988
1.824870445
1.823793173
1.40000504
1.40000504
1.40000504
1.40000504
1.40000504
1.40000504
1.40000504
1.40000504
1.40000504
1.40000504
1.40000504
1.40000504
1.40000504
1.40000504
1.40000504
1.40000504
1.40000504
1.40000504
1.40000504
1.40000504
1.40000504
1.40000504
1.40000504
1.400005041
1.400005045
1.400005071
1.400005204
1.400005815
1.400008335
1.400017432
1.40004727
1.400138742
1.400378808
1.40095312
1.402312904
1.404879241
1.409744502
1.418449917
1.430864217
1.450220236
1.476261764
1.505599543
1.543393673
1.582634504
1.622875532
1.662435747
1.693893892
1.727281347
1.756230984
1.774448432
1.793025773
1.807933243
1.812847046
1.819010443
1.827105314
1.828365853
1.828087183
1.828841166
1.828912162
1.827893139
1.825551151
1.823250401
1.823316698
1.823658647
1.824786802
1.825975782
1.826410669
1.40000504
1.40000504
1.40000504
1.40000504
1.40000504
1.40000504
1.40000504
1.40000504
1.40000504
1.40000504
1.40000504
1.40000504
1.40000504
1.40000504
1.40000504
1.40000504
1.40000504
1.40000504
1.40000504
1.40000504
1.40000504
1.40000504
1.40000504
1.40000504
1.40000504
1.40000504
1.40000504
1.400005041
1.400005042
1.400005054
1.40000512
1.400005438
1.400006801
1.400011981
1.400030143
1.40008595
1.400241393
1.40064481
1.40156889
1.403489973
1.407347551
1.413864153
1.42479504
1.440774101
1.462371091
1.493054565
1.526851495
1.561173731
1.604506729
1.642820621
1.678209576
1.713282283
1.735386463
1.754911741
1.777156282
1.785789825
1.793425426
1.801155865
1.805462731
1.808877151
1.813582665
1.818462268
1.822634245
1.826665825
1.83164238
1.832692587
1.832497289
1.40000504
1.40000504
1.40000504
1.40000504
1.40000504
1.40000504
1.40000504
1.40000504
1.40000504
1.40000504
1.40000504
1.40000504
1.40000504
1.40000504
1.40000504
1.40000504
1.40000504
1.40000504
1.40000504
1.40000504
1.40000504
1.40000504
1.40000504
1.40000504
1.40000504
1.40000504
1.40000504
1.40000504
1.40000504
1.40000504
1.40000504
1.40000504
1.400005041
1.400005047
1.400005079
1.400005241
1.40000597
1.40000892
1.400019662
1.400053548
1.400156588
1.400426639
1.401070189
1.402499929
1.405357231
1.410581848
1.419516335
1.432793176
1.452755056
1.479562465
1.509131332
1.546606654
1.587032348
1.626810263
1.665717244
1.697374471
1.727422298
1.756680641
1.775866865
1.792907877
1.808306169
1.812104094
1.815966024
1.823170471
1.827757559
1.827862638
1.827691783
1.40000504
1.40000504
1.40000504
1.40000504
1.40000504
1.40000504
1.40000504
1.40000504
1.40000504
1.40000504
1.40000504
1.40000504
1.40000504
1.40000504
1.40000504
1.40000504
1.40000504
1.40000504
1.40000504
1.40000504
1.40000504
1.40000504
1.40000504
1.40000504
1.40000504
1.40000504
1.40000504
1.40000504
1.40000504
1.40000504
1.40000504
1.40000504
1.40000504
1.40000504
1.40000504
1.40000504
1.400005041
1.400005043
1.400005058
1.40000514
1.400005534
1.400007199
1.400013455
1.400034652
1.400100206
1.400280139
1.400731159
1.401777133
1.403889618
1.408085498
1.415089537
1.426747439
1.443570954
1.465921624
1.496946681
1.532791716
1.567277044
1.607846156
1.64784793
1.680572842
1.719141552
1.739650899
1.755019361
1.773286385
1.788731808
1.792825441
1.800217666
1.40000504
1.40000504
1.40000504
1.40000504
1.40000504
1.40000504
1.40000504
1.40000504
1.40000504
1.40000504
1.40000504
1.40000504
1.40000504
1.40000504
1.40000504
1.40000504
1.40000504
1.40000504
1.40000504
1.40000504
1.40000504
1.40000504
1.40000504
1.40000504
1.40000504
1.40000504
1.40000504
1.40000504
1.40000504
1.40000504
1.40000504
1.40000504
1.40000504
1.40000504
1.40000504
1.40000504
1.40000504
1.40000504
1.40000504
1.40000504
1.40000504
1.400005042
1.400005049
1.400005091
1.4000053
1.400006228
1.400009871
1.400023033
1.40006405
1.400185681
1.400498758
1.401247662
1.402842078
1.406082468
1.411709141
1.421623132
1.435535404
1.456807722
1.484609063
1.516113135
1.551875814
1.59332642
1.634987033
1.669833052
1.704440617
1.730165658
1.758256474
1.40000504
1.40000504
1.40000504
1.40000504
1.40000504
1.40000504
1.40000504
1.40000504
1.40000504
1.40000504
1.40000504
1.40000504
1.40000504
1.40000504
1.40000504
1.40000504
1.40000504
1.40000504
1.40000504
1.40000504
1.40000504
1.40000504
1.40000504
1.40000504
1.40000504
1.40000504
1.40000504
1.40000504
1.40000504
1.40000504
1.40000504
1.40000504
1.40000504
1.40000504
1.40000504
1.40000504
1.40000504
1.40000504
1.40000504
1.40000504
1.40000504
1.40000504
1.40000504
1.40000504
1.40000504
1.400005041
1.400005044
1.400005066
1.400005175
1.400005695
1.400007837
1.400015872
1.400041969
1.400123718
1.400334788
1.400885333
1.402057911
1.404608643
1.40903916
1.41739703
1.429295987
1.448150767
1.471560032
1.503865278
1.539269032
1.577732963
1.615473576
1.40000504
1.40000504
1.40000504
1.40000504
1.40000504
1.40000504
1.40000504
1.40000504
1.40000504
1.40000504
1.40000504
1.40000504
1.40000504
1.40000504
1.40000504
1.40000504
1.40000504
1.40000504
1.40000504
1.40000504
1.40000504
1.40000504
1.40000504
1.40000504
1.40000504
1.40000504
1.40000504
1.40000504
1.40000504
1.40000504
1.40000504
1.40000504
1.40000504
1.40000504
1.40000504
1.40000504
1.40000504
1.40000504
1.40000504
1.40000504
1.40000504
1.40000504
1.40000504
1.40000504
1.40000504
1.40000504
1.40000504
1.40000504
1.40000504
1.40000504
1.400005042
1.400005053
1.400005112
1.400005403
1.40000664
1.400011534
1.400028261
1.400082137
1.40022858
1.400629639
1.401485046
1.403495198
1.406986803
1.414008439
1.423904976
1.4418918
1.458815108
1.40000504
1.40000504
1.40000504
1.40000504
1.40000504
1.40000504
1.40000504
1.40000504
1.40000504
1.40000504
1.40000504
1.40000504
1.40000504
1.40000504
1.40000504
1.40000504
1.40000504
1.40000504
1.40000504
1.40000504
1.40000504
1.40000504
1.40000504
1.40000504
1.40000504
1.40000504
1.40000504
1.40000504
1.40000504
1.40000504
1.40000504
1.40000504
1.40000504
1.40000504
1.40000504
1.40000504
1.40000504
1.40000504
1.40000504
1.40000504
1.40000504
1.40000504
1.40000504
1.40000504
1.40000504
1.40000504
1.40000504
1.40000504
1.40000504
1.40000504
1.40000504
1.40000504
1.40000504
1.40000504
1.400005041
1.400005046
1.400005078
1.40000524
1.400005961
1.400009016
1.40001952
1.400056434
1.400155397
1.400453724
1.401056717
1.403023983
1.404297247
1.40000504
1.40000504
1.40000504
1.40000504
1.40000504
1.40000504
1.40000504
1.40000504
1.40000504
1.40000504
1.40000504
1.40000504
1.40000504
1.40000504
1.40000504
1.40000504
1.40000504
1.40000504
1.40000504
1.40000504
1.40000504
1.40000504
1.40000504
1.40000504
1.40000504
1.40000504
1.40000504
1.40000504
1.40000504
1.40000504
1.40000504
1.40000504
1.40000504
1.40000504
1.40000504
1.40000504
1.40000504
1.40000504
1.40000504
1.40000504
1.40000504
1.40000504
1.40000504
1.40000504
1.40000504
1.40000504
1.40000504
1.40000504
1.40000504
1.40000504
1.40000504
1.40000504
1.40000504
1.40000504
1.40000504
1.40000504
1.40000504
1.40000504
1.400005041
1.400005043
1.40000506
1.400005155
1.400005571
1.400007563
1.400013489
1.400071379
1.400034163
1.40000504
1.40000504
1.40000504
1.40000504
1.40000504
1.40000504
1.40000504
1.40000504
1.40000504
1.40000504
1.40000504
1.40000504
1.40000504
1.40000504
1.40000504
1.40000504
1.40000504
1.40000504
1.40000504
1.40000504
1.40000504
1.40000504
1.40000504
1.40000504
1.40000504
1.40000504
1.40000504
1.40000504
1.40000504
1.40000504
1.40000504
1.40000504
1.40000504
1.40000504
1.40000504
1.40000504
1.40000504
1.40000504
1.40000504
1.40000504
1.40000504
1.40000504
1.40000504
1.40000504
1.40000504
1.40000504
1.40000504
1.40000504
1.40000504
1.40000504
1.40000504
1.40000504
1.40000504
1.40000504
1.40000504
1.40000504
1.40000504
1.40000504
1.40000504
1.40000504
1.40000504
1.40000504
1.40000504
1.400005042
1.400005049
1.400005393
1.400004951
1.40000504
1.40000504
1.40000504
1.40000504
1.40000504
1.40000504
1.40000504
1.40000504
1.40000504
1.40000504
1.40000504
1.40000504
1.40000504
1.40000504
1.40000504
1.40000504
1.40000504
1.40000504
1.40000504
1.40000504
1.40000504
1.40000504
1.40000504
1.40000504
1.40000504
1.40000504
1.40000504
1.40000504
1.40000504
1.40000504
1.40000504
1.40000504
1.40000504
1.40000504
1.40000504
1.40000504
1.40000504
1.40000504
1.40000504
1.40000504
1.40000504
1.40000504
1.40000504
1.40000504
1.40000504
1.40000504
1.40000504
1.40000504
1.40000504
1.40000504
1.40000504
1.40000504
1.40000504
1.40000504
1.40000504
1.40000504
1.40000504
1.40000504
1.40000504
1.40000504
1.40000504
1.40000504
1.40000504
1.40000504
1.40000504
1.400005041
1.400005022
1.40000504
1.40000504
1.40000504
1.40000504
1.40000504
1.40000504
1.40000504
1.40000504
1.40000504
1.40000504
1.40000504
1.40000504
1.40000504
1.40000504
1.40000504
1.40000504
1.40000504
1.40000504
1.40000504
1.40000504
1.40000504
1.40000504
1.40000504
1.40000504
1.40000504
1.40000504
1.40000504
1.40000504
1.40000504
1.40000504
1.40000504
1.40000504
1.40000504
1.40000504
1.40000504
1.40000504
1.40000504
1.40000504
1.40000504
1.40000504
1.40000504
1.40000504
1.40000504
1.40000504
1.40000504
1.40000504
1.40000504
1.40000504
1.40000504
1.40000504
1.40000504
1.40000504
1.40000504
1.40000504
1.40000504
1.40000504
1.40000504
1.40000504
1.40000504
1.40000504
1.40000504
1.40000504
1.40000504
1.40000504
1.40000504
1.40000504
1.40000504
1.40000504
1.40000504
1.40000504
1.40000504
1.40000504
1.40000504
1.40000504
1.40000504
1.40000504
1.40000504
1.40000504
1.40000504
1.40000504
1.40000504
1.40000504
1.40000504
1.40000504
1.40000504
1.40000504
1.40000504
1.40000504
1.40000504
1.40000504
1.40000504
1.40000504
1.40000504
1.40000504
1.40000504
1.40000504
1.40000504
1.40000504
1.40000504
1.40000504
1.40000504
1.40000504
1.40000504
1.40000504
1.40000504
1.40000504
1.40000504
1.40000504
1.40000504
1.40000504
1.40000504
1.40000504
1.40000504
1.40000504
1.40000504
1.40000504
1.40000504
1.40000504
1.40000504
1.40000504
1.40000504
1.40000504
1.40000504
1.40000504
1.40000504
1.40000504
1.40000504
1.40000504
1.40000504
1.40000504
1.40000504
1.40000504
1.40000504
1.40000504
1.40000504
1.40000504
1.40000504
1.40000504
1.40000504
1.40000504
1.40000504
1.40000504
1.40000504
1.40000504
1.40000504
1.40000504
1.40000504
1.40000504
1.40000504
1.40000504
1.40000504
1.40000504
1.40000504
1.40000504
1.40000504
1.40000504
1.40000504
1.40000504
1.40000504
1.40000504
1.40000504
1.40000504
1.40000504
1.40000504
1.40000504
1.40000504
1.40000504
1.40000504
1.40000504
1.40000504
1.40000504
1.40000504
1.40000504
1.40000504
1.40000504
1.40000504
1.40000504
1.40000504
1.40000504
1.40000504
1.40000504
1.40000504
1.40000504
1.40000504
1.40000504
1.40000504
1.40000504
1.40000504
1.40000504
1.40000504
1.40000504
1.40000504
1.40000504
1.40000504
1.40000504
1.40000504
1.40000504
1.40000504
1.40000504
1.40000504
1.40000504
1.40000504
1.40000504
1.40000504
1.40000504
1.40000504
1.40000504
1.40000504
1.40000504
1.40000504
1.40000504
1.40000504
1.40000504
1.40000504
1.40000504
1.40000504
1.40000504
1.40000504
1.40000504
1.40000504
1.40000504
1.40000504
1.40000504
1.40000504
1.40000504
1.40000504
1.40000504
1.40000504
1.40000504
1.40000504
1.40000504
1.40000504
1.40000504
1.40000504
1.40000504
1.40000504
1.40000504
1.40000504
1.40000504
1.40000504
1.40000504
1.40000504
1.40000504
1.40000504
1.40000504
1.40000504
1.40000504
1.40000504
1.40000504
1.40000504
1.40000504
1.40000504
1.40000504
1.40000504
1.40000504
1.40000504
1.40000504
1.40000504
1.40000504
1.40000504
1.40000504
1.40000504
1.40000504
1.40000504
1.40000504
1.40000504
1.40000504
1.40000504
1.40000504
1.40000504
1.40000504
1.40000504
1.40000504
1.40000504
1.40000504
1.40000504
1.40000504
1.40000504
1.40000504
1.40000504
1.40000504
1.40000504
1.40000504
1.40000504
1.40000504
1.40000504
1.40000504
1.40000504
1.40000504
1.40000504
1.40000504
1.40000504
1.40000504
1.40000504
1.40000504
1.40000504
1.40000504
1.40000504
1.40000504
1.40000504
1.40000504
1.40000504
1.40000504
1.40000504
1.40000504
1.40000504
1.40000504
1.40000504
1.40000504
1.40000504
1.40000504
1.40000504
1.40000504
1.40000504
1.40000504
1.40000504
1.40000504
1.40000504
1.40000504
1.40000504
1.40000504
1.40000504
1.40000504
1.40000504
1.40000504
1.40000504
1.40000504
1.40000504
1.40000504
1.40000504
1.40000504
1.40000504
1.40000504
1.40000504
1.40000504
1.40000504
1.40000504
1.40000504
1.40000504
1.40000504
1.40000504
1.40000504
1.40000504
1.40000504
1.40000504
1.40000504
1.40000504
1.40000504
1.40000504
1.40000504
1.40000504
1.40000504
1.40000504
1.40000504
1.40000504
1.40000504
1.40000504
1.40000504
1.40000504
1.40000504
1.40000504
1.40000504
1.40000504
1.40000504
1.40000504
1.40000504
1.40000504
1.40000504
1.40000504
1.40000504
1.40000504
1.40000504
1.40000504
1.40000504
1.40000504
1.40000504
1.40000504
1.40000504
1.40000504
1.40000504
)
;

boundaryField
{
    inlet
    {
        type            calculated;
        value           nonuniform 0();
    }
    outlet
    {
        type            calculated;
        value           nonuniform 0();
    }
    bottom
    {
        type            calculated;
        value           nonuniform 0();
    }
    top
    {
        type            calculated;
        value           nonuniform 0();
    }
    obstacle
    {
        type            calculated;
        value           nonuniform List<scalar> 
93
(
1.808596137
1.807963979
1.808479016
1.809563916
1.809831795
1.810035304
1.810749678
1.812402682
1.814891611
1.817496064
1.819676635
1.821702676
1.823851626
1.825604809
1.826365948
1.82686248
1.827122401
1.827140847
1.826876677
1.826114512
1.825181367
1.824105551
1.823746169
1.82368219
1.823689274
1.823844264
1.824047614
1.824142359
1.824145751
1.82412704
1.824031557
1.823910246
1.823892471
1.824015081
1.824402664
1.824841425
1.824909075
1.824810829
1.824585685
1.824284865
1.824148002
1.824101951
1.824113703
1.824339222
1.824511886
1.824456182
1.824299428
1.824089384
1.82396395
1.823931544
1.823926011
1.824021799
1.824233451
1.824265991
1.82418761
1.824044657
1.823908042
1.823861421
1.823844026
1.823855483
1.823970577
1.824098571
1.824098437
1.824060505
1.824012675
1.823992998
1.823987207
1.80859596
1.80796419
1.808479516
1.809564125
1.809831563
1.810034998
1.810749527
1.812402697
1.814891679
1.817496111
1.819676662
1.821702693
1.823851722
1.825604775
1.826365855
1.826862507
1.827122514
1.827140988
1.826876696
1.826114424
1.825181144
1.824105362
1.823746183
1.823682226
1.823689367
1.823844433
)
;
    }
    defaultFaces
    {
        type            empty;
    }
    procBoundary20to13
    {
        type            processor;
        value           nonuniform List<scalar> 2(1.826881918 1.811396635);
    }
    procBoundary20to14
    {
        type            processor;
        value           nonuniform List<scalar> 
28
(
1.838050792
1.836065025
1.833194442
1.830659791
1.829199681
1.827465071
1.824286555
1.819683004
1.819683004
1.820422312
1.820821926
1.820747623
1.820736217
1.820704658
1.820262441
1.819733888
1.819417959
1.819635754
1.820669247
1.822026032
1.822527061
1.82244291
1.822394373
1.822510125
1.822799912
1.823108765
1.823519481
1.824047715
)
;
    }
    procBoundary20to19
    {
        type            processor;
        value           nonuniform List<scalar> 
33
(
1.811396951
1.82688167
1.838781445
1.853727426
1.852462256
1.787104427
1.640719284
1.464945387
1.404641556
1.400068897
1.400005164
1.40000504
1.40000504
1.40000504
1.40000504
1.40000504
1.40000504
1.40000504
1.40000504
1.40000504
1.40000504
1.40000504
1.40000504
1.40000504
1.40000504
1.40000504
1.40000504
1.40000504
1.40000504
1.40000504
1.40000504
1.40000504
1.40000504
)
;
    }
    procBoundary20to25
    {
        type            processor;
        value           nonuniform List<scalar> 2(1.40000504 1.40000504);
    }
    procBoundary20to26
    {
        type            processor;
        value           nonuniform List<scalar> 
69
(
1.40000504
1.40000504
1.40000504
1.40000504
1.40000504
1.40000504
1.40000504
1.40000504
1.40000504
1.40000504
1.40000504
1.40000504
1.40000504
1.40000504
1.40000504
1.40000504
1.40000504
1.40000504
1.40000504
1.40000504
1.40000504
1.40000504
1.40000504
1.40000504
1.40000504
1.40000504
1.40000504
1.40000504
1.40000504
1.40000504
1.40000504
1.40000504
1.40000504
1.40000504
1.40000504
1.40000504
1.40000504
1.40000504
1.40000504
1.40000504
1.40000504
1.40000504
1.40000504
1.40000504
1.40000504
1.40000504
1.40000504
1.40000504
1.40000504
1.40000504
1.40000504
1.40000504
1.40000504
1.40000504
1.40000504