/*--------------------------------*- C++ -*----------------------------------*\
  =========                 |
  \\      /  F ield         | OpenFOAM: The Open Source CFD Toolbox
   \\    /   O peration     | Website:  https://openfoam.org
    \\  /    A nd           | Version:  7
     \\/     M anipulation  |
\*---------------------------------------------------------------------------*/
FoamFile
{
    version     2.0;
    format      ascii;
    class       volVectorField;
    location    "4";
    object      U;
}
// * * * * * * * * * * * * * * * * * * * * * * * * * * * * * * * * * * * * * //

dimensions      [0 1 -1 0 0 0 0];

internalField   nonuniform List<vector> 
2222
(
(3 3.821905078e-15 0)
(3 1.726319612e-15 0)
(3 1.504844095e-15 0)
(3 1.355638362e-15 0)
(3 6.414427937e-16 0)
(3 -6.921574176e-16 0)
(3 -1.157515946e-15 0)
(3 -9.635150595e-16 0)
(3 -4.090173909e-16 0)
(3 -5.900930796e-16 0)
(3 -7.984320019e-16 0)
(3 -1.284270515e-15 0)
(3 -2.915503098e-15 0)
(3 -3.066424475e-15 0)
(3 -3.540360032e-15 0)
(3 -2.088894758e-15 0)
(3 -3.447514136e-15 0)
(3 -5.56070576e-15 0)
(3 -5.723745228e-15 0)
(3 -5.017296883e-15 0)
(3 -5.682543596e-15 0)
(3 -1.258268251e-14 0)
(3 -2.108225158e-17 0)
(3 4.068574422e-16 0)
(3 -2.749632081e-17 0)
(3 -9.689154802e-16 0)
(3 -1.039777071e-15 0)
(3 -1.763808854e-15 0)
(3 -1.518780255e-15 0)
(3 -1.336314943e-15 0)
(3 -7.249707323e-16 0)
(3 -3.385961049e-16 0)
(3 5.797830929e-17 0)
(3 6.178204401e-16 0)
(3 1.399895059e-15 0)
(3 2.703291982e-15 0)
(3 2.68976532e-15 0)
(3 1.631154881e-15 0)
(3 1.982666694e-15 0)
(3 3.38045821e-16 0)
(3 -1.824520909e-15 0)
(3 -2.847806013e-15 0)
(3 -3.053437067e-15 0)
(3 -3.525178539e-15 0)
(3 -3.894353531e-15 0)
(3 -2.893879359e-15 0)
(3 -2.233474109e-15 0)
(3 -2.319791084e-15 0)
(3 -1.963072331e-15 0)
(3 -4.729655065e-17 0)
(3 1.351992765e-15 0)
(3 2.711996901e-15 0)
(3 5.305206527e-15 0)
(3 4.305017087e-15 0)
(3 3.913221204e-15 0)
(3 4.919208235e-15 0)
(3 5.80226564e-15 0)
(3 6.333013388e-15 0)
(3 6.572056352e-15 0)
(3 6.856201181e-15 0)
(3 6.631121421e-15 0)
(3 6.040882469e-15 0)
(3 5.691344824e-15 0)
(3 3.892032695e-15 0)
(3 2.000470717e-15 0)
(3 1.129864065e-15 0)
(3 9.258214826e-16 0)
(3 3.09997651e-15 0)
(3 2.446774855e-15 0)
(3 2.209735253e-15 0)
(3 2.882219897e-15 0)
(3 2.787008181e-15 0)
(3 1.920101452e-15 0)
(3 1.211937162e-15 0)
(3 1.902856735e-15 0)
(3 2.134600596e-15 0)
(3 1.433958576e-15 0)
(3 1.69016495e-15 0)
(3 2.066840914e-15 0)
(3 4.490446418e-15 0)
(3 4.011824918e-15 0)
(3 2.197336503e-15 0)
(3 1.738363734e-15 0)
(3 3.646495119e-16 0)
(3 -2.831464234e-15 0)
(3 -5.587282312e-15 0)
(3 -7.348616975e-15 0)
(3 -1.277432035e-14 0)
(3 6.142805456e-16 0)
(3 6.551869977e-16 0)
(3 -1.477880056e-16 0)
(3 8.995504471e-17 0)
(3 -1.825758749e-15 0)
(3 -1.903869047e-15 0)
(3 -1.111610717e-15 0)
(3 -9.687801209e-16 0)
(3 -2.432199358e-15 0)
(3 -2.38239256e-15 0)
(3 -2.103938682e-15 0)
(3 -1.497878013e-15 0)
(3 -1.041791383e-15 0)
(3 8.353014969e-16 0)
(3 1.857649431e-15 0)
(3 4.359836436e-15 0)
(3 4.922572193e-15 0)
(3 4.551259602e-15 0)
(3 2.005280842e-15 0)
(3 -1.625420625e-15 0)
(3 -1.725206112e-15 0)
(3 -2.399554823e-15 0)
(3 -3.439871806e-15 0)
(3 -4.06645562e-15 0)
(3 -3.344756265e-15 0)
(3 3.828074507e-16 0)
(3 2.875525732e-15 0)
(3 3.156487916e-15 0)
(3 2.266727211e-15 0)
(3 1.733043137e-15 0)
(3 1.344809646e-15 0)
(3 2.050774295e-15 0)
(3 1.017093321e-15 0)
(3 1.27207149e-15 0)
(3 2.586665693e-15 0)
(3 5.760564264e-15 0)
(3 7.355876487e-15 0)
(3 7.916547691e-15 0)
(3 8.640988982e-15 0)
(3 8.953136461e-15 0)
(3 8.793754785e-15 0)
(3 7.863524736e-15 0)
(3 6.92298784e-15 0)
(3 5.060198532e-15 0)
(3 3.153097911e-15 0)
(3 9.325022382e-16 0)
(3 3.064427342e-16 0)
(3 4.353878023e-16 0)
(3 3.879109376e-15 0)
(3 7.249823676e-15 0)
(3 8.086482706e-15 0)
(3 5.349506453e-15 0)
(3 2.218424861e-15 0)
(3 3.712052303e-16 0)
(3 3.546822383e-16 0)
(3 1.832318154e-15 0)
(3 5.419133103e-15 0)
(3 7.458675856e-15 0)
(3 8.707903133e-15 0)
(3 7.638874206e-15 0)
(3 6.184800921e-15 0)
(3 5.757904978e-15 0)
(3 2.373938764e-15 0)
(3 -3.040799399e-15 0)
(3 -9.386651556e-15 0)
(3 -1.08172875e-14 0)
(3 9.245155704e-18 0)
(3 -2.944584468e-16 0)
(3 -1.202060201e-15 0)
(3 -1.74075547e-15 0)
(3 -7.306206999e-16 0)
(3 6.372968919e-16 0)
(3 5.701692026e-16 0)
(3 -2.167683787e-17 0)
(3 -1.302198577e-15 0)
(3 -2.405170236e-15 0)
(3 -2.221327308e-15 0)
(3 -1.083992319e-15 0)
(3 -8.895417049e-16 0)
(3 -2.556884352e-16 0)
(3 1.070010959e-15 0)
(3 1.598550758e-15 0)
(3 1.713867808e-15 0)
(3 1.368482424e-15 0)
(3 1.067500143e-15 0)
(3 3.937144881e-16 0)
(3 -3.091382025e-16 0)
(3 -1.32447828e-16 0)
(3 -4.879653662e-16 0)
(3 -5.350156316e-16 0)
(3 -1.032426804e-15 0)
(3 -8.222649897e-17 0)
(3 7.559167489e-16 0)
(3 5.085103364e-16 0)
(3 3.336355221e-16 0)
(3 -1.703071269e-15 0)
(3 -1.194948103e-15 0)
(3 -5.916295425e-16 0)
(3 -4.370941815e-17 0)
(3 3.082116339e-16 0)
(3 1.653101384e-15 0)
(3 3.492258475e-15 0)
(3 4.680283714e-15 0)
(3 5.594784426e-15 0)
(3 8.412468152e-15 0)
(3 9.281415391e-15 0)
(3 8.490015925e-15 0)
(3 6.047453835e-15 0)
(3 5.385490698e-15 0)
(3 4.033596773e-15 0)
(3 2.547828465e-15 0)
(3 1.01585021e-15 0)
(3 1.855333962e-15 0)
(3 5.20737563e-15 0)
(3 6.090556051e-15 0)
(3 6.749384493e-15 0)
(3 6.796686343e-15 0)
(3 5.961200612e-15 0)
(3 5.410939014e-15 0)
(3 4.48052896e-15 0)
(3 3.465859586e-15 0)
(3 5.079835201e-15 0)
(3 5.427376257e-15 0)
(3 4.83103372e-15 0)
(3 6.96229064e-15 0)
(3 8.03413761e-15 0)
(3 3.659964666e-15 0)
(3 1.363869648e-15 0)
(3 9.530903705e-16 0)
(3 -2.269133203e-15 0)
(3 -4.83843757e-15 0)
(3 -5.492813642e-15 0)
(3 4.896603223e-18 0)
(3 -3.99156651e-16 0)
(3 -8.579770642e-17 0)
(3 -3.270849625e-16 0)
(3 1.135150177e-15 0)
(3 2.998867598e-15 0)
(3 2.711927972e-15 0)
(3 1.038576101e-15 0)
(3 1.181571671e-15 0)
(3 4.559658402e-16 0)
(3 3.023654529e-16 0)
(3 2.397733666e-16 0)
(3 1.605554543e-15 0)
(3 2.770649249e-15 0)
(3 1.806236624e-15 0)
(3 4.398203999e-17 0)
(3 -1.887734952e-16 0)
(3 8.814324037e-17 0)
(3 9.462025632e-16 0)
(3 3.206019014e-15 0)
(3 3.567319956e-15 0)
(3 4.470026622e-15 0)
(3 4.289754013e-15 0)
(3 4.389553441e-15 0)
(3 2.696778316e-15 0)
(3 8.752848163e-16 0)
(3 -5.564888499e-16 0)
(3 -7.535011248e-16 0)
(3 -4.896941484e-17 0)
(3 9.191737126e-17 0)
(3 1.031856649e-15 0)
(3 4.665428605e-16 0)
(3 1.543362379e-15 0)
(3 1.631090616e-15 0)
(3 1.902097211e-15 0)
(3 2.90951729e-15 0)
(3 2.303703296e-15 0)
(3 4.730140074e-15 0)
(3 4.70295062e-15 0)
(3 5.564521881e-15 0)
(3 3.192820263e-15 0)
(3 2.198339076e-15 0)
(3 1.884852369e-15 0)
(3 1.394011334e-15 0)
(3 1.066695262e-15 0)
(3 3.89961118e-15 0)
(3 4.743028535e-15 0)
(3 4.837121787e-15 0)
(3 5.524520439e-15 0)
(3 5.999957954e-15 0)
(3 5.866485079e-15 0)
(3 5.672791309e-15 0)
(3 7.098447425e-15 0)
(3 8.77061908e-15 0)
(3 7.471716773e-15 0)
(3 4.110203649e-15 0)
(3 2.557629834e-15 0)
(3 1.53659164e-15 0)
(3 2.677233155e-15 0)
(3 2.389825265e-15 0)
(3 2.376738837e-15 0)
(3 1.81077031e-15 0)
(3 1.566534524e-15 0)
(3 1.009071237e-15 0)
(3 1.88120805e-15 0)
(3 2.123590629e-15 0)
(3 -6.394788856e-16 0)
(3 -6.948997771e-16 0)
(3 -4.51862863e-16 0)
(3 1.525349048e-15 0)
(3 1.323695207e-15 0)
(3 9.00758058e-16 0)
(3 3.732435592e-16 0)
(3 5.484072329e-16 0)
(3 3.044052209e-16 0)
(3 1.12907353e-15 0)
(3 1.153112739e-15 0)
(3 1.19702768e-16 0)
(3 -1.99459926e-16 0)
(3 9.828299431e-16 0)
(3 1.073878226e-15 0)
(3 2.276245948e-15 0)
(3 2.805120768e-15 0)
(3 3.933413482e-15 0)
(3 5.190676365e-15 0)
(3 5.745079712e-15 0)
(3 5.30729329e-15 0)
(3 3.156697264e-15 0)
(3 1.530729021e-15 0)
(3 1.257431864e-15 0)
(3 9.500533857e-16 0)
(3 -8.185785863e-16 0)
(3 -2.254703343e-15 0)
(3 -1.286259213e-15 0)
(3 -3.693524463e-16 0)
(3 1.684948249e-15 0)
(3 1.631941707e-15 0)
(3 9.41230802e-16 0)
(3 6.702665881e-16 0)
(3 5.558862601e-16 0)
(3 1.034521732e-15 0)
(3 9.829743321e-16 0)
(3 1.347679163e-15 0)
(3 1.261453971e-15 0)
(3 -2.132244971e-16 0)
(3 -7.606131503e-16 0)
(3 -1.717292596e-15 0)
(3 -5.198031968e-16 0)
(3 -9.071362788e-16 0)
(3 -2.657636645e-16 0)
(3 2.024147706e-16 0)
(3 3.81469543e-15 0)
(3 3.259621859e-15 0)
(3 3.62187239e-15 0)
(3 4.440722318e-15 0)
(3 6.211117481e-15 0)
(3 7.458115927e-15 0)
(3 5.544569806e-15 0)
(3 4.375736942e-15 0)
(3 4.761651967e-15 0)
(3 4.854911314e-15 0)
(3 3.143436913e-15 0)
(3 8.335269715e-16 0)
(3 -1.394685987e-15 0)
(3 -1.632359952e-15 0)
(3 -3.281918707e-16 0)
(3 2.622111134e-16 0)
(3 4.947489429e-16 0)
(3 6.081624185e-16 0)
(3 1.709462933e-16 0)
(3 2.621934083e-15 0)
(3 4.394520075e-15 0)
(3 -1.077805492e-15 0)
(3 -5.801228912e-16 0)
(3 -4.188114679e-16 0)
(3 -4.707352671e-16 0)
(3 -6.9943133e-16 0)
(3 -2.087000782e-15 0)
(3 -1.679805468e-15 0)
(3 -4.335277943e-16 0)
(3 9.109492481e-16 0)
(3 1.148968422e-15 0)
(3 6.522835625e-16 0)
(3 3.688543929e-16 0)
(3 -8.568546005e-16 0)
(3 -6.89216878e-16 0)
(3 -5.395945787e-16 0)
(3 2.887014333e-15 0)
(3 2.22415089e-15 0)
(3 3.145598077e-15 0)
(3 3.788465914e-15 0)
(3 4.135406166e-15 0)
(3 2.299824217e-15 0)
(3 1.146132001e-16 0)
(3 -1.996064692e-17 0)
(3 8.010807034e-16 0)
(3 5.689601707e-16 0)
(3 -1.062625435e-15 0)
(3 -1.467420308e-15 0)
(3 -5.454893079e-16 0)
(3 -1.393866539e-16 0)
(3 6.039979387e-16 0)
(3 -6.352666755e-17 0)
(3 8.087943708e-18 0)
(3 -6.412366789e-16 0)
(3 -1.515231932e-15 0)
(3 -1.899423529e-15 0)
(3 -3.003578955e-15 0)
(3 -2.76727602e-15 0)
(3 -2.464813661e-15 0)
(3 -2.748776447e-15 0)
(3 -2.859575668e-15 0)
(3 -2.284635338e-15 0)
(3 -2.263202456e-15 0)
(3 -2.709496323e-15 0)
(3 -1.178872681e-15 0)
(3 1.035643592e-15 0)
(3 3.771869796e-15 0)
(3 4.426694744e-15 0)
(3 3.992733873e-15 0)
(3 4.502489075e-15 0)
(3 6.780905948e-15 0)
(3 7.990202859e-15 0)
(3 6.523146206e-15 0)
(3 4.425651004e-15 0)
(3 4.000429798e-15 0)
(3 4.025400697e-15 0)
(3 2.826091555e-15 0)
(3 2.638872607e-15 0)
(3 1.394801749e-15 0)
(3 -5.757990541e-16 0)
(3 -1.034618154e-15 0)
(3 -9.903046248e-16 0)
(3 -9.648839499e-16 0)
(3 -2.492149233e-16 0)
(3 1.165024006e-15 0)
(3 2.816569003e-15 0)
(3 3.4788489e-15 0)
(3 1.776636985e-16 0)
(3 -4.027298464e-16 0)
(3 -2.1347374e-16 0)
(3 -1.129050733e-15 0)
(3 -1.031664672e-15 0)
(3 -8.333090032e-16 0)
(3 -3.425746397e-16 0)
(3 4.145026807e-17 0)
(3 7.554796538e-16 0)
(3 1.870634012e-15 0)
(3 2.54311932e-15 0)
(3 2.117710097e-15 0)
(3 7.097860769e-16 0)
(3 -7.578383359e-16 0)
(3 -2.947084384e-16 0)
(3 -2.397408564e-16 0)
(3 -1.527213244e-15 0)
(3 -1.013797108e-15 0)
(3 -1.698586173e-15 0)
(3 -2.388165201e-15 0)
(3 -1.720533937e-15 0)
(3 -8.938629457e-16 0)
(3 1.226564091e-15 0)
(3 1.877700846e-15 0)
(3 2.225747797e-15 0)
(3 2.75752064e-15 0)
(3 3.757865258e-15 0)
(3 3.396765334e-15 0)
(3 2.681580331e-15 0)
(3 1.529238479e-15 0)
(3 5.239580801e-16 0)
(3 -6.001804252e-17 0)
(3 -3.40880797e-16 0)
(3 -2.373436263e-15 0)
(3 -4.004064326e-15 0)
(3 -4.777152281e-15 0)
(3 -5.765216377e-15 0)
(3 -5.603607062e-15 0)
(3 -4.433729464e-15 0)
(3 -2.948273658e-15 0)
(3 -2.241369542e-15 0)
(3 -2.739035352e-15 0)
(3 -3.132012562e-15 0)
(3 -1.5113333e-15 0)
(3 2.382076152e-15 0)
(3 4.786888367e-15 0)
(3 6.330880068e-15 0)
(3 6.129128551e-15 0)
(3 5.776238187e-15 0)
(3 6.708476012e-15 0)
(3 5.853155707e-15 0)
(3 6.271164593e-15 0)
(3 6.170341467e-15 0)
(3 5.788708212e-15 0)
(3 4.969223497e-15 0)
(3 3.647988213e-15 0)
(3 1.754119821e-15 0)
(3 1.245850364e-15 0)
(3 1.704529453e-17 0)
(3 -3.122473956e-15 0)
(3 -2.351237538e-15 0)
(3 -2.685771331e-16 0)
(3 2.635020091e-15 0)
(3 5.447102568e-15 0)
(3 5.234146285e-15 0)
(3 4.689045447e-15 0)
(3 6.587908987e-16 0)
(3 1.520128251e-15 0)
(3 9.44561475e-16 0)
(3 9.857381397e-16 0)
(3 -4.637593245e-17 0)
(3 6.716791639e-16 0)
(3 -2.707412714e-16 0)
(3 -4.600390478e-16 0)
(3 -2.050473709e-16 0)
(3 1.347526755e-15 0)
(3 1.894639362e-15 0)
(3 5.043306337e-16 0)
(3 -5.484095925e-16 0)
(3 -2.898958121e-15 0)
(3 -3.207322766e-15 0)
(3 -5.012939203e-15 0)
(3 -3.945904131e-15 0)
(3 -3.23138601e-15 0)
(3 -3.425305302e-15 0)
(3 -3.396146648e-15 0)
(3 -1.935370931e-15 0)
(3 1.949606809e-16 0)
(3 1.298417912e-15 0)
(3 1.984708408e-15 0)
(3 3.199392443e-15 0)
(3 3.99559009e-15 0)
(3 4.033229876e-15 0)
(3 3.005994635e-15 0)
(3 1.218340877e-15 0)
(3 -1.016016048e-15 0)
(3 -1.530502497e-15 0)
(3 -1.707972661e-15 0)
(3 -2.247310433e-15 0)
(3 -3.101947694e-15 0)
(3 -4.017756362e-15 0)
(3 -5.006944853e-15 0)
(3 -6.040331759e-15 0)
(3 -6.218908325e-15 0)
(3 -4.877646326e-15 0)
(3 -3.310538478e-15 0)
(3 -2.462383023e-15 0)
(3 -1.421947735e-15 0)
(3 -1.338449226e-15 0)
(3 8.363261881e-16 0)
(3 2.252936518e-15 0)
(3 2.513996711e-15 0)
(3 3.880403358e-15 0)
(3 5.171876418e-15 0)
(3 4.46904131e-15 0)
(3 3.502404875e-15 0)
(3 4.055616046e-15 0)
(3 5.144864934e-15 0)
(3 5.253315481e-15 0)
(3 4.401853924e-15 0)
(3 2.384619935e-15 0)
(3 1.904859926e-15 0)
(3 1.424692173e-15 0)
(3 2.879222567e-15 0)
(3 2.689260579e-15 0)
(3 1.418702083e-15 0)
(3 -6.740904876e-16 0)
(3 7.095914133e-16 0)
(3 7.218484444e-16 0)
(3 2.686286332e-15 0)
(3 2.817269573e-15 0)
(3 2.588305201e-15 0)
(3 1.235518934e-15 0)
(3 1.921976157e-15 0)
(3 1.398442553e-15 0)
(3 1.409705293e-15 0)
(3 1.464380451e-15 0)
(3 1.775631567e-15 0)
(3 5.124451521e-16 0)
(3 -2.85668914e-16 0)
(3 3.732415711e-16 0)
(3 1.246019766e-15 0)
(3 9.29048422e-16 0)
(3 -2.212952046e-16 0)
(3 -5.990096316e-16 0)
(3 -1.077521597e-15 0)
(3 -2.891073e-15 0)
(3 -3.112565922e-15 0)
(3 -3.241621772e-15 0)
(3 -2.429025015e-15 0)
(3 -1.498790251e-15 0)
(3 -9.906239475e-16 0)
(3 -1.067294533e-16 0)
(3 1.202516329e-15 0)
(3 2.253220033e-15 0)
(3 2.319128674e-15 0)
(3 2.690540017e-15 0)
(3 2.276239981e-15 0)
(3 2.446406588e-15 0)
(3 2.531119705e-15 0)
(3 8.037717299e-16 0)
(3 -1.7306344e-15 0)
(3 -4.452827137e-15 0)
(3 -4.855974205e-15 0)
(3 -4.694262668e-15 0)
(3 -4.098702278e-15 0)
(3 -3.729267163e-15 0)
(3 -4.252815658e-15 0)
(3 -3.823173851e-15 0)
(3 -2.991225072e-15 0)
(3 -1.980332308e-15 0)
(3 -2.398421781e-15 0)
(3 -2.360807838e-15 0)
(3 -9.262310433e-16 0)
(3 3.23841704e-16 0)
(3 2.180622417e-15 0)
(3 6.881623028e-16 0)
(3 7.303063814e-17 0)
(3 9.191925449e-16 0)
(3 2.070000492e-15 0)
(3 2.633031954e-15 0)
(3 2.414925116e-15 0)
(3 3.53543781e-15 0)
(3 4.257792034e-15 0)
(3 3.750998583e-15 0)
(3 1.723580805e-15 0)
(3 -1.960344976e-15 0)
(3 -3.246563003e-15 0)
(3 -4.970572948e-16 0)
(3 1.679828048e-15 0)
(3 2.256681702e-15 0)
(3 2.724120506e-15 0)
(3 2.046744638e-15 0)
(3 -1.063003352e-16 0)
(3 -1.708076664e-15 0)
(3 -2.569789702e-15 0)
(3 -2.538655723e-15 0)
(3 -1.601164976e-15 0)
(3 -3.367323767e-16 0)
(3 -1.129137238e-15 0)
(3 -9.317979561e-16 0)
(3 -9.809307471e-16 0)
(3 -1.436868052e-16 0)
(3 -7.666701927e-16 0)
(3 -6.365376562e-16 0)
(3 -1.299774577e-15 0)
(3 -1.295473237e-15 0)
(3 -1.743708444e-15 0)
(3 -9.647623128e-16 0)
(3 -6.254608952e-16 0)
(3 5.071331414e-17 0)
(3 2.432071128e-15 0)
(3 1.483464936e-15 0)
(3 2.951100051e-16 0)
(3 -2.573319277e-15 0)
(3 -3.718894145e-15 0)
(3 -3.672574264e-15 0)
(3 -4.090089025e-15 0)
(3 -2.112036952e-15 0)
(3 -1.801549089e-15 0)
(3 8.061394597e-16 0)
(3 1.861649629e-15 0)
(3 2.66831525e-15 0)
(3 3.535004178e-15 0)
(3 4.48618741e-15 0)
(3 4.464064219e-15 0)
(3 3.446568328e-15 0)
(3 1.583825018e-16 0)
(3 -3.243779719e-15 0)
(3 -6.924484065e-15 0)
(3 -6.377221487e-15 0)
(3 -5.212429466e-15 0)
(3 -4.499892723e-15 0)
(3 -3.128930196e-15 0)
(3 -2.839927602e-15 0)
(3 -9.562505969e-16 0)
(3 -8.314626843e-16 0)
(3 -2.23763887e-15 0)
(3 -3.335581351e-15 0)
(3 -1.772692776e-15 0)
(3 -9.243961541e-16 0)
(3 -1.887265198e-15 0)
(3 -1.284800243e-15 0)
(3 -1.084289943e-15 0)
(3 -8.079051438e-16 0)
(3 -1.288012417e-15 0)
(3 -2.503349844e-15 0)
(3 -1.920909823e-15 0)
(3 -9.529215759e-16 0)
(3 4.636910841e-16 0)
(3 1.104344578e-15 0)
(3 4.650846568e-17 0)
(3 -4.686470816e-16 0)
(3 2.40138451e-16 0)
(3 1.589146913e-15 0)
(3 2.255126731e-15 0)
(3 2.193759166e-15 0)
(3 1.538069654e-15 0)
(3 1.713989878e-15 0)
(3 1.067905419e-16 0)
(3 -2.129238378e-15 0)
(3 -4.195371944e-15 0)
(3 -4.713790291e-15 0)
(3 -3.508392002e-15 0)
(3 -6.829100398e-16 0)
(3 -1.381544283e-15 0)
(3 -1.164004395e-15 0)
(3 -1.829522243e-15 0)
(3 -2.915762657e-15 0)
(3 -3.694550436e-15 0)
(3 -2.25552191e-15 0)
(3 -1.754482882e-15 0)
(3 -2.701735352e-15 0)
(3 -4.526459797e-15 0)
(3 -4.023645956e-15 0)
(3 -1.429063695e-15 0)
(3 2.035531583e-16 0)
(3 -1.114685483e-16 0)
(3 -1.774856019e-15 0)
(3 -4.265455964e-15 0)
(3 -4.866939677e-15 0)
(3 -5.59287242e-15 0)
(3 -3.818968657e-15 0)
(3 -3.02221105e-15 0)
(3 -2.084194651e-15 0)
(3 -8.338731647e-16 0)
(3 6.861886572e-16 0)
(3 2.021128711e-15 0)
(3 3.956215744e-15 0)
(3 6.386170561e-15 0)
(3 6.388195625e-15 0)
(3 4.101586632e-15 0)
(3 1.009361768e-15 0)
(3 -1.393838733e-15 0)
(3 -2.301179513e-15 0)
(3 -3.475316252e-15 0)
(3 -3.875634503e-15 0)
(3 -3.633397597e-15 0)
(3 -4.030867806e-15 0)
(3 -3.405134072e-15 0)
(3 -3.130994151e-15 0)
(3 -3.17821275e-15 0)
(3 -3.87501968e-15 0)
(3 -3.47168022e-15 0)
(3 -1.958703025e-15 0)
(3 -7.740446858e-16 0)
(3 -8.922177443e-16 0)
(3 -1.41756784e-15 0)
(3 -1.408493942e-16 0)
(3 1.861063265e-16 0)
(3 -1.482916925e-15 0)
(3 -2.259975927e-15 0)
(3 -3.694175402e-15 0)
(3 -4.138736509e-15 0)
(3 -2.76235144e-15 0)
(3 -1.702529709e-15 0)
(3 -3.070288985e-16 0)
(3 9.943329101e-16 0)
(3 3.805758893e-15 0)
(3 3.009684778e-15 0)
(3 7.430620736e-16 0)
(3 6.38709392e-16 0)
(3 1.582815582e-15 0)
(3 2.551342472e-15 0)
(3 9.401153144e-16 0)
(3 -9.385933585e-16 0)
(3 -3.224045216e-15 0)
(3 -3.442471023e-15 0)
(3 -4.199840098e-15 0)
(3 -5.677381212e-15 0)
(3 -7.389842964e-17 0)
(3 -1.351649666e-17 0)
(3 -3.514902932e-16 0)
(3 -6.311588385e-16 0)
(3 -1.005253302e-15 0)
(3 -1.053534456e-15 0)
(3 -1.158940935e-15 0)
(3 -1.334739918e-15 0)
(3 -2.287583672e-15 0)
(3 -2.332524231e-15 0)
(3 -1.973920365e-15 0)
(3 -1.195330465e-15 0)
(3 -1.800630668e-15 0)
(3 -1.739203669e-15 0)
(3 -3.188898083e-15 0)
(3 -5.890136579e-15 0)
(3 -4.776770432e-15 0)
(3 -2.865771424e-15 0)
(3 -2.123192938e-15 0)
(3 -1.265725927e-15 0)
(3 -7.363097138e-17 0)
(3 3.786799311e-16 0)
(3 1.607064711e-15 0)
(3 1.712516665e-15 0)
(3 2.320128464e-15 0)
(3 2.596068236e-15 0)
(3 2.244145567e-15 0)
(3 7.004062103e-16 0)
(3 -1.56829716e-15 0)
(3 -2.554632655e-15 0)
(3 -5.34928152e-16 0)
(3 2.50242554e-15 0)
(3 1.117687832e-15 0)
(3 2.647997459e-16 0)
(3 -2.337516398e-15 0)
(3 -3.384238594e-15 0)
(3 -3.518911301e-15 0)
(3 -4.542360228e-15 0)
(3 -6.209427474e-15 0)
(3 -6.047392214e-15 0)
(3 -4.573763025e-15 0)
(3 -3.990379824e-15 0)
(3 -2.905356187e-15 0)
(3 -1.745290839e-15 0)
(3 -1.505886463e-15 0)
(3 -1.403809728e-15 0)
(3 -1.015606553e-15 0)
(3 -2.51173129e-15 0)
(3 -2.337566609e-15 0)
(3 -1.497836725e-15 0)
(3 -1.669417005e-15 0)
(3 -1.426530396e-15 0)
(3 5.256235579e-16 0)
(3 2.568466377e-15 0)
(3 1.952642221e-15 0)
(3 2.045606934e-15 0)
(3 9.447172005e-16 0)
(3 -9.798872809e-16 0)
(3 -6.978608207e-16 0)
(3 8.541217375e-16 0)
(3 9.585861016e-16 0)
(3 8.421270707e-16 0)
(3 1.241763516e-15 0)
(3 -1.328106552e-15 0)
(3 -1.29908679e-15 0)
(3 -2.252412727e-15 0)
(3 2.641127394e-16 0)
(3 8.834677983e-16 0)
(3 6.880717503e-17 0)
(3 3.737462604e-16 0)
(3 3.476678553e-16 0)
(3 -8.258045448e-16 0)
(3 -2.203179179e-15 0)
(3 -3.17154099e-15 0)
(3 -2.47001851e-15 0)
(3 -1.608336146e-15 0)
(3 -2.090991972e-15 0)
(3 -2.161430772e-15 0)
(3 -2.89690284e-15 0)
(3 -3.021170719e-15 0)
(3 -1.475800113e-15 0)
(3 -7.172400769e-16 0)
(3 -1.09754255e-15 0)
(3 -7.049020273e-16 0)
(3 -1.005910493e-15 0)
(3 5.755646359e-16 0)
(3 1.175589873e-15 0)
(3 5.203663243e-16 0)
(3 -3.29961148e-16 0)
(3 -1.786447993e-16 0)
(3 -2.295470098e-16 0)
(3 -2.107723414e-15 0)
(3 -2.397858214e-15 0)
(3 -8.000510682e-16 0)
(3 7.135488315e-16 0)
(3 7.933653901e-16 0)
(3 1.117571724e-15 0)
(3 1.274104941e-15 0)
(3 7.502432962e-16 0)
(3 4.739518802e-16 0)
(3 -7.461973824e-16 0)
(3 -1.008761583e-15 0)
(3 -1.08513572e-16 0)
(3 -4.598874015e-16 0)
(3 -3.29947764e-16 0)
(3 -1.228119033e-15 0)
(3 -2.892821173e-15 0)
(3 -4.345101608e-15 0)
(3 -3.5296194e-15 0)
(3 -1.036419905e-15 0)
(3 -4.569052811e-16 0)
(3 2.41019863e-16 0)
(3 4.386595903e-16 0)
(3 3.470096653e-16 0)
(3 -4.13444452e-16 0)
(3 -1.146185052e-15 0)
(3 -2.789462001e-15 0)
(3 -5.088598597e-15 0)
(3 -4.008542831e-15 0)
(3 -2.857916914e-15 0)
(3 -3.012856249e-15 0)
(3 -1.656429485e-15 0)
(3 1.302195085e-15 0)
(3 8.159930578e-16 0)
(3 9.231457866e-16 0)
(3 1.494476183e-15 0)
(3 1.677580114e-15 0)
(3 2.928063947e-15 0)
(3 3.480916565e-15 0)
(3 3.263245051e-15 0)
(3 3.957527313e-15 0)
(3 3.827815418e-15 0)
(3 -6.347101418e-16 0)
(3 -2.491429529e-16 0)
(3 -9.976535002e-17 0)
(3 2.153357159e-16 0)
(3 -1.063960751e-15 0)
(3 -1.445160334e-15 0)
(3 -1.024527516e-15 0)
(3 -6.326188815e-16 0)
(3 -7.091851706e-16 0)
(3 -6.686869172e-16 0)
(3 -1.092142074e-15 0)
(3 -8.669514733e-16 0)
(3 8.786361314e-17 0)
(3 2.509632867e-16 0)
(3 5.554558512e-16 0)
(3 2.993061328e-15 0)
(3 2.963835907e-15 0)
(3 2.411651661e-15 0)
(3 8.872562041e-16 0)
(3 2.434148855e-16 0)
(3 -3.722360202e-16 0)
(3 -2.925679376e-16 0)
(3 -2.980282993e-16 0)
(3 -1.120198396e-15 0)
(3 -1.848803609e-15 0)
(3 -3.773345756e-15 0)
(3 -3.045317773e-15 0)
(3 -8.8049346e-16 0)
(3 1.537320107e-15 0)
(3 2.877664004e-15 0)
(3 9.103867184e-16 0)
(3 -8.03160205e-16 0)
(3 -1.228978289e-15 0)
(3 -1.209767513e-15 0)
(3 -7.595237372e-16 0)
(3 7.025848358e-16 0)
(3 1.377737754e-15 0)
(3 1.534511054e-15 0)
(3 3.669912046e-15 0)
(3 3.547984067e-15 0)
(3 2.227214664e-15 0)
(3 -5.645170087e-17 0)
(3 2.070249432e-17 0)
(3 1.251281756e-15 0)
(3 2.56970882e-15 0)
(3 3.212946505e-15 0)
(3 2.294462157e-15 0)
(3 2.947226727e-15 0)
(3 2.25694235e-15 0)
(3 1.135765289e-15 0)
(3 -1.250289652e-15 0)
(3 -2.577316029e-15 0)
(3 -3.013011579e-15 0)
(3 -2.473805263e-15 0)
(3 -2.172605142e-15 0)
(3 -1.218289334e-15 0)
(3 -1.877991562e-16 0)
(3 1.515199784e-15 0)
(3 3.572372455e-15 0)
(3 3.06603835e-15 0)
(3 1.674059508e-15 0)
(3 1.190922319e-15 0)
(3 4.048142667e-15 0)
(3 7.347805178e-15 0)
(3 8.994303805e-15 0)
(3 7.904456674e-15 0)
(3 -5.1451591e-16 0)
(3 -6.618716254e-16 0)
(3 9.438267959e-16 0)
(3 4.599086676e-16 0)
(3 -2.154777963e-16 0)
(3 1.104155912e-15 0)
(3 3.060607485e-15 0)
(3 3.45030803e-15 0)
(3 2.653607693e-15 0)
(3 1.854412998e-15 0)
(3 1.256686022e-15 0)
(3 1.524534499e-15 0)
(3 2.584446003e-15 0)
(3 3.294637096e-15 0)
(3 3.626054435e-15 0)
(3 5.384631862e-15 0)
(3 6.701448152e-15 0)
(3 6.240382128e-15 0)
(3 4.3127264e-15 0)
(3 3.004589199e-15 0)
(3 2.5784543e-15 0)
(3 1.975836701e-15 0)
(3 1.87237217e-15 0)
(3 1.262207565e-15 0)
(3 -5.083384131e-16 0)
(3 -2.447045498e-15 0)
(3 -3.584218466e-15 0)
(3 -3.772958104e-15 0)
(3 -1.94513474e-15 0)
(3 9.662795127e-16 0)
(3 1.676067353e-15 0)
(3 3.713541275e-16 0)
(3 -4.956829803e-16 0)
(3 -1.009114066e-15 0)
(3 4.692264055e-17 0)
(3 1.702010416e-15 0)
(3 7.075679672e-16 0)
(3 6.351092518e-16 0)
(3 1.265556901e-15 0)
(3 3.516017117e-15 0)
(3 4.096003215e-15 0)
(3 5.0095465e-15 0)
(3 4.551678842e-15 0)
(3 8.740852624e-16 0)
(3 1.12280381e-15 0)
(3 1.26284434e-16 0)
(3 1.882830634e-16 0)
(3 1.615139492e-16 0)
(3 1.145248594e-15 0)
(3 2.334074747e-15 0)
(3 2.888638645e-15 0)
(3 3.662873302e-15 0)
(3 2.569803632e-15 0)
(3 1.137193342e-15 0)
(3 1.120298869e-15 0)
(3 9.276590135e-16 0)
(3 -2.739464066e-16 0)
(3 1.879825754e-15 0)
(3 2.465588915e-15 0)
(3 1.848329261e-15 0)
(3 2.043797556e-15 0)
(3 4.504694565e-15 0)
(3 8.109030801e-15 0)
(3 9.997764184e-15 0)
(3 7.404385247e-15 0)
(3 6.393754028e-15 0)
(3 3.054280105e-16 0)
(3 3.750206097e-16 0)
(3 6.948791862e-16 0)
(3 1.430974328e-15 0)
(3 2.042189417e-15 0)
(3 2.375500805e-15 0)
(3 3.47179257e-15 0)
(3 3.349301754e-15 0)
(3 4.145207436e-15 0)
(3 5.151748427e-15 0)
(3 4.427510977e-15 0)
(3 2.670965062e-15 0)
(3 8.776164252e-16 0)
(3 -9.680856077e-17 0)
(3 2.677353829e-16 0)
(3 1.239337192e-15 0)
(3 2.968722056e-15 0)
(3 2.783283381e-15 0)
(3 3.902665526e-15 0)
(3 4.871159516e-15 0)
(3 4.332997847e-15 0)
(3 3.071059391e-15 0)
(3 2.075253495e-15 0)
(3 2.606045886e-15 0)
(3 1.742430096e-15 0)
(3 7.856378038e-16 0)
(3 -2.272158393e-15 0)
(3 -3.153459766e-15 0)
(3 -2.751887106e-15 0)
(3 -1.961508036e-15 0)
(3 -4.851417333e-16 0)
(3 -3.109615992e-16 0)
(3 -1.433074819e-15 0)
(3 -1.608238696e-15 0)
(3 -9.503636827e-16 0)
(3 -2.563553017e-15 0)
(3 -1.669448807e-15 0)
(3 -4.479886322e-16 0)
(3 -1.492638116e-15 0)
(3 -1.249068766e-15 0)
(3 2.205970845e-15 0)
(3 2.480884468e-15 0)
(3 1.235986529e-15 0)
(3 2.167974479e-16 0)
(3 -3.188314055e-15 0)
(3 -3.582464213e-15 0)
(3 -2.535678269e-15 0)
(3 -2.125435448e-15 0)
(3 -9.625001651e-16 0)
(3 -1.204159204e-15 0)
(3 7.515960821e-16 0)
(3 1.3287233e-15 0)
(3 9.579630279e-16 0)
(3 9.358911505e-16 0)
(3 1.455518651e-15 0)
(3 -1.301424847e-15 0)
(3 -1.37736744e-15 0)
(3 -1.681764209e-15 0)
(3 -9.41062274e-16 0)
(3 2.213756073e-16 0)
(3 4.182300124e-15 0)
(3 6.248146441e-15 0)
(3 6.496641029e-15 0)
(3 6.703974255e-15 0)
(3 4.892914082e-15 0)
(3 3.772061068e-15 0)
(3 -3.831400668e-17 0)
(3 4.959071872e-16 0)
(3 1.775992728e-16 0)
(3 1.47129446e-15 0)
(3 1.342526606e-15 0)
(3 1.269384758e-15 0)
(3 2.005721562e-15 0)
(3 3.585701713e-15 0)
(3 4.133548334e-15 0)
(3 3.493522092e-15 0)
(3 2.336692175e-15 0)
(3 1.127135196e-15 0)
(3 5.360178812e-17 0)
(3 -9.654923046e-16 0)
(3 -6.063888409e-16 0)
(3 -1.164182155e-16 0)
(3 9.314328278e-16 0)
(3 9.11238839e-16 0)
(3 2.976352296e-15 0)
(3 2.749432131e-15 0)
(3 2.40943229e-15 0)
(3 1.11772601e-15 0)
(3 -5.535419156e-16 0)
(3 -1.074531837e-15 0)
(3 -1.378501536e-15 0)
(3 -7.3818117e-16 0)
(3 -8.70157078e-16 0)
(3 -8.556786117e-16 0)
(3 -2.681941626e-15 0)
(3 -3.500683866e-15 0)
(3 -4.690066716e-15 0)
(3 -4.386178681e-15 0)
(3 -3.373716071e-15 0)
(3 -2.191728127e-15 0)
(3 -1.0618701e-15 0)
(3 -1.889545712e-15 0)
(3 -1.361298615e-15 0)
(3 -1.582314784e-15 0)
(3 -2.506096055e-15 0)
(3 -5.299677144e-15 0)
(3 -3.680259947e-15 0)
(3 -2.814858255e-15 0)
(3 -2.450906821e-15 0)
(3 -1.643472383e-16 0)
(3 -9.579745882e-16 0)
(3 -5.446832428e-16 0)
(3 -9.458254532e-16 0)
(3 -5.855605858e-16 0)
(3 -2.341683102e-15 0)
(3 -4.717474516e-15 0)
(3 -3.774569691e-15 0)
(3 -3.511464214e-15 0)
(3 -3.176772829e-15 0)
(3 -2.771201405e-15 0)
(3 -2.244266817e-15 0)
(3 -1.01658934e-15 0)
(3 -1.382268885e-16 0)
(3 1.56969029e-15 0)
(3 3.561982914e-15 0)
(3 5.08421606e-15 0)
(3 7.386852123e-15 0)
(3 7.531390484e-15 0)
(3 6.91697274e-15 0)
(3 6.233806672e-15 0)
(3 6.373548508e-15 0)
(3 5.023324774e-15 0)
(3 1.656857884e-16 0)
(3 -3.424025546e-17 0)
(3 -3.222858799e-16 0)
(3 1.621669315e-16 0)
(3 1.339433353e-15 0)
(3 2.581572347e-15 0)
(3 1.959263563e-15 0)
(3 2.498201128e-15 0)
(3 1.687145501e-15 0)
(3 2.299242462e-16 0)
(3 3.123761503e-17 0)
(3 1.119602526e-16 0)
(3 2.175948202e-16 0)
(3 3.624540187e-16 0)
(3 8.150526132e-16 0)
(3 6.565877139e-16 0)
(3 -2.588479007e-16 0)
(3 8.503689914e-16 0)
(3 2.25382992e-15 0)
(3 1.308701053e-15 0)
(3 1.42243106e-15 0)
(3 1.251747735e-15 0)
(3 8.85897763e-17 0)
(3 -2.40039377e-15 0)
(3 -2.100166171e-15 0)
(3 -6.001763614e-16 0)
(3 -6.276237319e-16 0)
(3 -1.929949684e-15 0)
(3 -4.002336895e-15 0)
(3 -4.648510065e-15 0)
(3 -3.939476343e-15 0)
(3 -2.51464786e-15 0)
(3 -1.722452148e-15 0)
(3 -2.263626228e-15 0)
(3 -1.395001199e-15 0)
(3 -7.649037449e-16 0)
(3 -2.244490514e-15 0)
(3 -3.690559601e-15 0)
(3 -3.562298865e-15 0)
(3 -2.935843746e-15 0)
(3 -3.380557839e-15 0)
(3 -2.815030437e-15 0)
(3 -4.225372868e-16 0)
(3 1.668521542e-15 0)
(3 1.789307798e-15 0)
(3 5.325727525e-16 0)
(3 -2.272981903e-17 0)
(3 -4.608055621e-16 0)
(3 -1.430413188e-15 0)
(3 -2.765764449e-15 0)
(3 -4.191016247e-15 0)
(3 -5.718178348e-15 0)
(3 -5.437025193e-15 0)
(3 -3.978838098e-15 0)
(3 -1.481030365e-15 0)
(3 5.344460112e-16 0)
(3 1.58589149e-15 0)
(3 2.753061142e-15 0)
(3 3.037149364e-15 0)
(3 3.289375998e-15 0)
(3 3.549317976e-15 0)
(3 4.635140294e-15 0)
(3 4.785478547e-15 0)
(3 4.801669859e-15 0)
(3 7.317285318e-15 0)
(3 9.627654809e-15 0)
(3 -1.126571425e-16 0)
(3 -1.060385525e-16 0)
(3 4.140745433e-16 0)
(3 2.576434109e-16 0)
(3 2.033311671e-15 0)
(3 2.664394697e-15 0)
(3 1.23319611e-15 0)
(3 -5.744314885e-16 0)
(3 -9.693861265e-16 0)
(3 -4.546967429e-16 0)
(3 -6.31095962e-16 0)
(3 -1.278838783e-15 0)
(3 -1.923755142e-15 0)
(3 -9.914026063e-16 0)
(3 -1.273806636e-15 0)
(3 -1.627561601e-15 0)
(3 -1.690298728e-15 0)
(3 8.342315836e-16 0)
(3 1.329501851e-15 0)
(3 2.318456813e-15 0)
(3 2.826318575e-15 0)
(3 2.389727436e-15 0)
(3 2.578725549e-15 0)
(3 1.199336747e-15 0)
(3 9.669943273e-16 0)
(3 1.040435459e-15 0)
(3 8.706333617e-16 0)
(3 7.664103917e-16 0)
(3 -5.783969491e-16 0)
(3 -2.35306332e-15 0)
(3 -2.147116316e-15 0)
(3 -2.311017374e-15 0)
(3 -1.956094893e-15 0)
(3 -2.117483633e-15 0)
(3 -3.387658876e-15 0)
(3 -4.233029848e-15 0)
(3 -4.118162351e-15 0)
(3 -3.678156213e-15 0)
(3 -2.879070651e-15 0)
(3 6.04844884e-17 0)
(3 1.655852812e-15 0)
(3 2.488262865e-15 0)
(3 3.026067254e-15 0)
(3 3.521434853e-15 0)
(3 3.209783397e-15 0)
(3 1.210278314e-15 0)
(3 1.00743833e-15 0)
(3 7.801812874e-16 0)
(3 2.958614297e-16 0)
(3 -7.098842597e-17 0)
(3 -8.857607512e-16 0)
(3 -2.894530797e-15 0)
(3 -3.861498728e-15 0)
(3 -4.068772258e-15 0)
(3 -2.870801545e-15 0)
(3 -3.823139726e-16 0)
(3 4.019096192e-17 0)
(3 -2.638042856e-17 0)
(3 4.670025767e-16 0)
(3 1.349647692e-15 0)
(3 1.646833479e-15 0)
(3 1.52835567e-15 0)
(3 2.054565833e-15 0)
(3 2.019437504e-15 0)
(3 4.360867862e-15 0)
(3 6.41795926e-15 0)
(3 2.624716882e-16 0)
(3 9.888216656e-16 0)
(3 1.325523078e-15 0)
(3 1.268759765e-15 0)
(3 1.076414753e-16 0)
(3 4.466379098e-16 0)
(3 3.250061576e-17 0)
(3 -8.754922509e-16 0)
(3 -8.926655289e-16 0)
(3 -9.505166189e-16 0)
(3 -1.701542158e-15 0)
(3 -1.801408745e-15 0)
(3 -2.434607984e-15 0)
(3 -2.236365731e-15 0)
(3 -2.234317357e-15 0)
(3 -1.473725015e-15 0)
(3 8.03381614e-16 0)
(3 1.389588431e-15 0)
(3 1.705742282e-15 0)
(3 2.198747095e-15 0)
(3 1.784990521e-15 0)
(3 1.63769517e-15 0)
(3 1.555295579e-15 0)
(3 2.468780224e-15 0)
(3 2.20639809e-15 0)
(3 2.588674882e-15 0)
(3 3.414810909e-15 0)
(3 4.837589671e-15 0)
(3 5.300369084e-15 0)
(3 2.617834561e-15 0)
(3 1.410957276e-15 0)
(3 -9.745271307e-16 0)
(3 -3.110041934e-15 0)
(3 -2.591427143e-15 0)
(3 -3.064366647e-15 0)
(3 -3.173599588e-15 0)