/*--------------------------------*- C++ -*----------------------------------*\
  =========                 |
  \\      /  F ield         | OpenFOAM: The Open Source CFD Toolbox
   \\    /   O peration     | Website:  https://openfoam.org
    \\  /    A nd           | Version:  7
     \\/     M anipulation  |
\*---------------------------------------------------------------------------*/
FoamFile
{
    version     2.0;
    format      ascii;
    class       volVectorField;
    location    "0.4";
    object      U;
}
// * * * * * * * * * * * * * * * * * * * * * * * * * * * * * * * * * * * * * //

dimensions      [0 1 -1 0 0 0 0];

internalField   nonuniform List<vector> 
2225
(
(2.949194377 0.03246077563 0)
(2.948998367 0.0319088483 0)
(2.950379086 0.03019805076 0)
(2.952169806 0.02835530195 0)
(2.952964103 0.02591355714 0)
(2.95356013 0.02422631477 0)
(2.957566647 0.02058959438 0)
(2.961368886 0.01694823836 0)
(2.964056204 0.01518069119 0)
(2.968383906 0.01078729931 0)
(2.971266549 0.007544031183 0)
(2.97427233 0.005182166285 0)
(3.120289969 -0.3464741239 0)
(3.124522764 -0.3571156208 0)
(3.125807726 -0.3605077458 0)
(3.127895638 -0.3625368324 0)
(3.130564845 -0.3679625081 0)
(3.13191749 -0.3700984652 0)
(3.132689445 -0.3670267095 0)
(3.128881186 -0.3442098597 0)
(3.119457723 -0.2887424652 0)
(3.101246997 -0.2006769874 0)
(3.067117704 -0.06804761513 0)
(3.072797534 -0.05559906049 0)
(3.031774989 0.03178073753 0)
(2.996652891 0.02458841621 0)
(2.983397762 0.02270672954 0)
(2.965414266 0.03496370181 0)
(2.959419122 0.03832906628 0)
(2.95399044 0.03738584 0)
(2.949863349 0.03547764731 0)
(2.949168342 0.03368951192 0)
(2.948634106 0.03282671332 0)
(2.94850371 0.0324410845 0)
(2.949928643 0.03080025962 0)
(2.951928446 0.02935275344 0)
(2.952891144 0.02659541092 0)
(2.953514886 0.02511224535 0)
(2.956633477 0.0214946712 0)
(2.961369594 0.0171135728 0)
(2.964292945 0.01523511648 0)
(2.968264618 0.0114099557 0)
(2.970909321 0.008514945525 0)
(2.974159155 0.005735906918 0)
(3.11736574 -0.3281291663 0)
(3.121103211 -0.3356625307 0)
(3.124371723 -0.3521923413 0)
(3.126374094 -0.3561697879 0)
(3.129910195 -0.3592362736 0)
(3.131805524 -0.3659566215 0)
(3.133098304 -0.3673397915 0)
(3.13553282 -0.3658817588 0)
(3.13468304 -0.3617202532 0)
(3.126946732 -0.3340211306 0)
(3.110999384 -0.270297382 0)
(3.089835626 -0.1723837281 0)
(3.048554308 -0.04103536017 0)
(3.031691955 -0.0352052208 0)
(2.988258136 0.01567827678 0)
(2.968917195 0.04001289365 0)
(2.962355776 0.04305657309 0)
(2.954281064 0.04051403323 0)
(2.949556024 0.03665558683 0)
(2.948708227 0.03476098603 0)
(2.94819297 0.03361065666 0)
(2.947977029 0.03278218808 0)
(2.949254803 0.03099378498 0)
(2.951800567 0.02973942843 0)
(2.953154503 0.02712722384 0)
(2.953871159 0.02565740482 0)
(2.956135025 0.02248148368 0)
(2.961194396 0.01734549558 0)
(2.964170986 0.01517169014 0)
(2.967864204 0.01188169907 0)
(2.970986663 0.008263320405 0)
(2.974236077 0.005353383823 0)
(3.114150144 -0.3134731951 0)
(3.11633573 -0.3154329855 0)
(3.120481831 -0.3278351259 0)
(3.12353578 -0.3395167482 0)
(3.126942602 -0.3431655804 0)
(3.131019402 -0.3569841737 0)
(3.132046322 -0.3629452452 0)
(3.134199788 -0.3614644237 0)
(3.135870485 -0.3634076825 0)
(3.13587184 -0.3636393755 0)
(3.132974177 -0.3510959525 0)
(3.125088494 -0.3183986588 0)
(3.078629016 -0.1777069239 0)
(3.068574398 -0.1174822692 0)
(3.001586746 0.02129723494 0)
(2.977269696 0.05828699326 0)
(2.963792754 0.04808591915 0)
(2.954592462 0.04019283693 0)
(2.950359004 0.03930084528 0)
(2.94814083 0.03701888564 0)
(2.947788363 0.03390999096 0)
(2.947753561 0.03198660511 0)
(2.948601331 0.03048285648 0)
(2.951510653 0.02912435972 0)
(2.953466567 0.02734345525 0)
(2.954496692 0.02610810961 0)
(2.956231714 0.02362343116 0)
(2.961021563 0.01795505809 0)
(2.963916853 0.01532438273 0)
(2.967132849 0.01258133996 0)
(2.970942532 0.008744161583 0)
(2.974372982 0.005746203596 0)
(3.112620783 -0.307656079 0)
(3.116014977 -0.3098958802 0)
(3.11992691 -0.3161177491 0)
(3.12114788 -0.3236693682 0)
(3.122829823 -0.325033079 0)
(3.12438622 -0.3293970678 0)
(3.12960261 -0.3472436434 0)
(3.131476953 -0.353186633 0)
(3.135354862 -0.3603086714 0)
(3.136847637 -0.365844874 0)
(3.137716222 -0.3638140375 0)
(3.136786845 -0.3585973713 0)
(3.124144634 -0.3234875723 0)
(3.107290645 -0.2553890577 0)
(3.03480299 -0.06238989956 0)
(3.000792207 -0.004185810209 0)
(2.971891856 0.03094390276 0)
(2.959768377 0.0382429034 0)
(2.952045645 0.04089721203 0)
(2.947724884 0.03892467013 0)
(2.947049158 0.03513805512 0)
(2.947656557 0.03327190489 0)
(2.949018468 0.03202238828 0)
(2.951147222 0.03021396057 0)
(2.953683839 0.02832270759 0)
(2.954970248 0.02655291277 0)
(2.956501698 0.02456814533 0)
(2.960889954 0.01897225674 0)
(2.96378544 0.01547657277 0)
(2.966500504 0.01319819859 0)
(2.97049329 0.009406826222 0)
(2.97427253 0.006144995058 0)
(3.109959567 -0.2901014398 0)
(3.113306093 -0.2926770949 0)
(3.11757444 -0.300649628 0)
(3.11997024 -0.3139418717 0)
(3.121122681 -0.3188513805 0)
(3.124445671 -0.3200823637 0)
(3.127103641 -0.3281167352 0)
(3.128281347 -0.3365127272 0)
(3.130635718 -0.337888164 0)
(3.134629503 -0.3489011914 0)
(3.136329884 -0.3567725342 0)
(3.136532872 -0.3561604249 0)
(3.135757607 -0.3536530874 0)
(3.129898307 -0.3388115475 0)
(3.089256246 -0.2336682403 0)
(3.050626078 -0.1407850462 0)
(3.018901253 -0.03359931907 0)
(2.978006076 0.04604299933 0)
(2.95136525 0.04496008286 0)
(2.943888319 0.0395310094 0)
(2.946275071 0.03505678742 0)
(2.947585455 0.03469542829 0)
(2.949602997 0.03321551348 0)
(2.950977687 0.03143463882 0)
(2.953422624 0.02913843902 0)
(2.955094318 0.02690989524 0)
(2.956675751 0.02523905626 0)
(2.960465886 0.02042051239 0)
(2.963603188 0.01637942282 0)
(2.966141999 0.0142227322 0)
(2.969662301 0.01071769581 0)
(2.973778378 0.007104818057 0)
(3.108186532 -0.2767700659 0)
(3.109784837 -0.2786285512 0)
(3.111492901 -0.2800887684 0)
(3.116719667 -0.2950954721 0)
(3.118744368 -0.3043276181 0)
(3.121808035 -0.3063396159 0)
(3.12531758 -0.3149288444 0)
(3.126527599 -0.3255886238 0)
(3.128272966 -0.3273923983 0)
(3.1313708 -0.3314944055 0)
(3.135008976 -0.3474715818 0)
(3.135605246 -0.3555510609 0)
(3.136793167 -0.3551292403 0)
(3.135971347 -0.3533845646 0)
(3.125411556 -0.3301211351 0)
(3.106575679 -0.2683860002 0)
(3.049265028 -0.07733514906 0)
(2.987889937 0.04923500055 0)
(2.956314795 0.03476305728 0)
(2.948867159 0.03587053977 0)
(2.949166399 0.03679190945 0)
(2.948597512 0.03557896616 0)
(2.949577869 0.03402591538 0)
(2.950192116 0.03268400273 0)
(2.951851233 0.0305150024 0)
(2.954738968 0.02771614394 0)
(2.956683694 0.02524236609 0)
(2.960148559 0.02075867489 0)
(2.963326604 0.01698137725 0)
(2.965800313 0.01505831533 0)
(2.969052697 0.0116158474 0)
(2.973307386 0.007579676916 0)
(3.106850318 -0.263244594 0)
(3.107877222 -0.2721030465 0)
(3.110757249 -0.2741320878 0)
(3.114811689 -0.281805179 0)
(3.115956388 -0.2899816825 0)
(3.117323616 -0.290372435 0)
(3.119628883 -0.2952565424 0)
(3.12406922 -0.3097059093 0)
(3.125507771 -0.3164969964 0)
(3.128545563 -0.3169855181 0)
(3.13166936 -0.3269203451 0)
(3.132089947 -0.3356607217 0)
(3.133310674 -0.3369911974 0)
(3.134670546 -0.3437225321 0)
(3.132915002 -0.3442597759 0)
(3.127245004 -0.3346473773 0)
(3.0915596 -0.2438592786 0)
(3.052202295 -0.144094617 0)
(3.013746015 -0.03224016913 0)
(2.96865377 0.03247047707 0)
(2.952877265 0.03533633087 0)
(2.946505879 0.03370422397 0)
(2.949079005 0.031782243 0)
(2.950035686 0.03180462373 0)
(2.951402114 0.03064320942 0)
(2.954248968 0.02854768864 0)
(2.956597423 0.02572706077 0)
(2.959836759 0.02118774015 0)
(2.962785125 0.01779090533 0)
(2.96506378 0.01627289443 0)
(2.968476836 0.012457714 0)
(2.97277649 0.007861827004 0)
(3.101971776 -0.2426578682 0)
(3.104935158 -0.2559626983 0)
(3.108063795 -0.2595105433 0)
(3.111802833 -0.265768086 0)
(3.114787779 -0.2804896439 0)
(3.115578087 -0.2852109341 0)
(3.118764902 -0.2866501594 0)
(3.121917367 -0.2957490174 0)
(3.122655407 -0.3024561571 0)
(3.124689423 -0.3037291214 0)
(3.126911625 -0.308485558 0)
(3.129593628 -0.3237346351 0)
(3.130533155 -0.328668544 0)
(3.13378661 -0.337393672 0)
(3.133740714 -0.3428350564 0)
(3.131818921 -0.3418620505 0)
(3.120556923 -0.3201297525 0)
(3.096570892 -0.2514182031 0)
(3.049398108 -0.08867486389 0)
(2.987584849 0.05529252373 0)
(2.95457915 0.02865203281 0)
(2.948254754 0.03085981604 0)
(2.949782209 0.03281716437 0)
(2.950637713 0.03402994023 0)
(2.952287672 0.03227848676 0)
(2.954491402 0.02929022363 0)
(2.956088643 0.02660241216 0)
(2.959325238 0.02195876494 0)
(2.962239291 0.01801457326 0)
(2.964253367 0.01676415934 0)
(2.967901998 0.01269891914 0)
(2.972285791 0.007892064382 0)
(3.099144308 -0.2306225646 0)
(3.102051415 -0.2415621737 0)
(3.103834865 -0.2438911682 0)
(3.105426388 -0.2458424789 0)
(3.110854261 -0.2609604059 0)
(3.11313914 -0.2712420057 0)
(3.116504928 -0.2737971379 0)
(3.120105062 -0.2816610147 0)
(3.121530268 -0.2934554114 0)
(3.122516668 -0.2960905675 0)
(3.125211836 -0.2982912653 0)
(3.126686913 -0.3074392727 0)
(3.126605575 -0.312994536 0)
(3.127916571 -0.3136009727 0)
(3.130398223 -0.3235155699 0)
(3.13048476 -0.3321678722 0)
(3.1279351 -0.3314322419 0)
(3.120332083 -0.3175130777 0)
(3.08612096 -0.2354483552 0)
(3.038978339 -0.119354779 0)
(3.007415722 -0.04218161291 0)
(2.960833017 0.01537982645 0)
(2.951564649 0.03762678457 0)
(2.950544369 0.03566433123 0)
(2.95210884 0.03281936541 0)
(2.953955308 0.02991097271 0)
(2.955799746 0.02746148417 0)
(2.958428719 0.02410937014 0)
(2.961409191 0.01977132061 0)
(2.963421548 0.01809214447 0)
(2.967132426 0.01374095187 0)
(2.971855919 0.008596324073 0)
(3.096130201 -0.2176947092 0)
(3.099904209 -0.2272370848 0)
(3.101639014 -0.2368675436 0)
(3.104145106 -0.2402184335 0)
(3.108335321 -0.2486303427 0)
(3.109912121 -0.2566560205 0)
(3.111468024 -0.2562400109 0)
(3.114074262 -0.262002803 0)
(3.119194483 -0.2775294033 0)
(3.120120845 -0.2848850979 0)
(3.122536569 -0.2856157725 0)
(3.125300322 -0.2940764247 0)
(3.125475595 -0.3040628357 0)
(3.125792828 -0.3076535723 0)
(3.128498524 -0.312413681 0)
(3.129455877 -0.3233557009 0)
(3.127362409 -0.3256162435 0)
(3.124816578 -0.323451845 0)
(3.114869477 -0.3083041851 0)
(3.076787805 -0.2147934456 0)
(3.045874923 -0.1153540504 0)
(2.983302451 0.05168989776 0)
(2.953253417 0.03690406211 0)
(2.949807545 0.03101912502 0)
(2.95145683 0.03151175946 0)
(2.953880193 0.03128905107 0)
(2.95634064 0.02882458886 0)
(2.958255986 0.02534503823 0)
(2.960685196 0.02083941885 0)
(2.962997286 0.01819209311 0)
(2.966452305 0.01438105694 0)
(2.971500179 0.009175722855 0)
(3.091325302 -0.2008951029 0)
(3.093629731 -0.2056909982 0)
(3.098473308 -0.2208367799 0)
(3.101523587 -0.2271649866 0)
(3.105899071 -0.2343045506 0)
(3.108828048 -0.2473506726 0)
(3.109846004 -0.2517225188 0)
(3.112727037 -0.2535682349 0)
(3.115768881 -0.2630133167 0)
(3.116563442 -0.2702538013 0)
(3.11830419 -0.2703714005 0)
(3.120491357 -0.2760228698 0)
(3.123063519 -0.2884573504 0)
(3.122965725 -0.2926650497 0)
(3.124739851 -0.2959437164 0)
(3.127356242 -0.3074611879 0)
(3.127230582 -0.3197983333 0)
(3.124380547 -0.3199970707 0)
(3.12133388 -0.3161698271 0)
(3.110751957 -0.2992202528 0)
(3.078414156 -0.2271881692 0)
(3.018777257 -0.07360414381 0)
(2.985413736 -0.03630887826 0)
(2.960266678 0.01816533026 0)
(2.955143939 0.03337432643 0)
(2.955525046 0.03301837399 0)
(2.956433073 0.02926551369 0)
(2.957400605 0.02633577153 0)
(2.959065352 0.02327013124 0)
(2.961997984 0.01982036435 0)
(2.965576195 0.01580348789 0)
(2.970736797 0.01023448366 0)
(3.088317174 -0.1920394169 0)
(3.090700755 -0.1947870479 0)
(3.094721037 -0.2063835508 0)
(3.097444531 -0.2122644898 0)
(3.099232603 -0.2132557505 0)
(3.105148182 -0.2276856702 0)
(3.107778682 -0.2392303943 0)
(3.110714608 -0.2431023531 0)
(3.114619044 -0.2530125313 0)
(3.115307497 -0.2621760421 0)
(3.116273115 -0.263616785 0)
(3.117932011 -0.2652040435 0)
(3.12036403 -0.2757527567 0)
(3.120475773 -0.2825815283 0)
(3.121065527 -0.2817498844 0)
(3.123213325 -0.2886486092 0)
(3.124551824 -0.3011815449 0)
(3.122558156 -0.3076368977 0)
(3.120797132 -0.310378833 0)
(3.117486116 -0.3082435269 0)
(3.106527942 -0.2925588934 0)
(3.058971414 -0.1912972743 0)
(3.023842097 -0.1083089726 0)
(2.975576753 0.01754324488 0)
(2.960690398 0.03967258393 0)
(2.955317221 0.03242305371 0)
(2.955871054 0.02710776209 0)
(2.956853617 0.0259437976 0)
(2.958657686 0.02403518041 0)
(2.961623181 0.02056943164 0)
(2.965089484 0.01576862088 0)
(2.970088227 0.01003738247 0)
(3.085527519 -0.1795406272 0)
(3.08799493 -0.1848882641 0)
(3.092267447 -0.1940045959 0)
(3.095169338 -0.2039943594 0)
(3.097558375 -0.2063306821 0)
(3.101318978 -0.2135042155 0)
(3.103599254 -0.2236654485 0)
(3.105852764 -0.2247258327 0)
(3.10855506 -0.2310796655 0)
(3.113751646 -0.2472962762 0)
(3.114115414 -0.2540475744 0)
(3.116299665 -0.2569962355 0)
(3.118911121 -0.2657032951 0)
(3.118652212 -0.2721341314 0)
(3.118986223 -0.2739129264 0)
(3.119513526 -0.2756508382 0)
(3.121605687 -0.2875557001 0)
(3.12002606 -0.2940601656 0)
(3.119069286 -0.2992486511 0)
(3.117684824 -0.3031559578 0)
(3.113742606 -0.3011354357 0)
(3.097852302 -0.2757978199 0)
(3.070932071 -0.2078136054 0)
(3.004736319 -0.03277079609 0)
(2.970329039 -0.005008350254 0)
(2.957856344 0.02116596644 0)
(2.957333228 0.02581715351 0)
(2.957548973 0.02583600867 0)
(2.959582336 0.02376798676 0)
(2.961702857 0.02101695143 0)
(2.964361663 0.01714907043 0)
(2.969140171 0.01110015187 0)
(3.081147375 -0.1627414798 0)
(3.083770719 -0.1690959071 0)
(3.086822372 -0.1736740591 0)
(3.092818734 -0.189162899 0)
(3.095347695 -0.197348197 0)
(3.099206264 -0.2043448643 0)
(3.102211829 -0.2149826289 0)
(3.103839874 -0.218098129 0)
(3.105798633 -0.219437176 0)
(3.108981501 -0.2304149156 0)
(3.110267186 -0.2389908438 0)
(3.112265212 -0.2399024687 0)
(3.115801666 -0.2484577299 0)
(3.117739303 -0.2611457572 0)
(3.117022151 -0.2657205757 0)
(3.117870566 -0.2678536458 0)
(3.118818567 -0.2745347837 0)
(3.117607398 -0.2836856946 0)
(3.116444013 -0.2844207883 0)
(3.1146269 -0.2896655344 0)
(3.112510377 -0.2917789545 0)
(3.107616365 -0.2915414339 0)
(3.09573974 -0.2705913043 0)
(3.054119056 -0.1737539177 0)
(3.026065313 -0.1150940622 0)
(2.979330848 -0.008468095553 0)
(2.96213498 0.02999157149 0)
(2.956198147 0.02581071195 0)
(2.959826846 0.02172650202 0)
(2.961553248 0.02046918487 0)
(2.963695983 0.01812012059 0)
(2.9679917 0.01272702801 0)
(3.078235407 -0.1504089327 0)
(3.081197096 -0.1594949239 0)
(3.08369427 -0.161082842 0)
(3.087792664 -0.1708383171 0)
(3.091339764 -0.181824024 0)
(3.094436105 -0.1851402863 0)
(3.099564194 -0.1974657593 0)
(3.101813647 -0.2088557479 0)
(3.10376791 -0.2131465279 0)
(3.107312722 -0.2220538583 0)
(3.108357203 -0.2295899579 0)
(3.10956524 -0.2293822374 0)
(3.110750181 -0.2321348697 0)
(3.114298442 -0.2446628576 0)
(3.114153062 -0.252579907 0)
(3.114866874 -0.2545859998 0)
(3.116705659 -0.2613610553 0)
(3.116222654 -0.2704731407 0)
(3.114218674 -0.2760652979 0)
(3.112984375 -0.2786480843 0)
(3.112451546 -0.2892834322 0)
(3.109759557 -0.2903908305 0)
(3.104500704 -0.286686934 0)
(3.087034271 -0.2541438394 0)
(3.065128496 -0.1871240862 0)
(3.006189016 -0.02661124207 0)
(2.963551142 0.02024560844 0)
(2.957252856 0.01587410298 0)
(2.960302054 0.01864926852 0)
(2.961691697 0.02068979741 0)
(2.963289785 0.01867490529 0)
(2.966659278 0.01448703585 0)
(3.074040416 -0.1339196057 0)
(3.078643581 -0.1463225765 0)
(3.081365145 -0.1534603433 0)
(3.085516126 -0.1617929305 0)
(3.089024886 -0.1720112437 0)
(3.091440571 -0.1740422351 0)
(3.093015139 -0.1776672343 0)
(3.097688121 -0.1920060247 0)
(3.100486207 -0.1986721991 0)
(3.104247081 -0.2049811052 0)
(3.107129389 -0.2176925086 0)
(3.107440971 -0.2227035401 0)
(3.109001803 -0.2247154932 0)
(3.111557786 -0.2340669483 0)
(3.11129735 -0.2414006047 0)
(3.111573676 -0.2418234096 0)
(3.112659033 -0.2464235968 0)
(3.113959506 -0.2564109247 0)
(3.112241504 -0.2631202064 0)
(3.110698093 -0.2661947825 0)
(3.110511619 -0.2693442304 0)
(3.106988239 -0.2783565392 0)
(3.103805198 -0.2791837422 0)
(3.097816788 -0.2756716916 0)
(3.085937702 -0.2532808011 0)
(3.046683637 -0.1586615305 0)
(3.02196432 -0.1022323485 0)
(2.990372867 -0.02421141319 0)
(2.969762115 0.01853967694 0)
(2.961032789 0.01971851051 0)
(2.961590443 0.0167957872 0)
(2.965240493 0.01459419709 0)
(3.069523673 -0.1191590786 0)
(3.072849072 -0.126298139 0)
(3.077749817 -0.1388964803 0)
(3.081811032 -0.146399804 0)
(3.086879946 -0.1589460556 0)
(3.089101059 -0.1674350818 0)
(3.091618858 -0.1718097106 0)
(3.09517325 -0.1815194412 0)
(3.097179889 -0.186780337 0)
(3.098281643 -0.1870506029 0)
(3.102280875 -0.1984324369 0)
(3.104765985 -0.2102344543 0)
(3.106570506 -0.2138070493 0)
(3.109681405 -0.2226148979 0)
(3.109690371 -0.2318471771 0)
(3.109377639 -0.2340380131 0)
(3.110043813 -0.2362207537 0)
(3.111030011 -0.2441395602 0)
(3.10995914 -0.2513617647 0)
(3.108006128 -0.2532144315 0)
(3.107444557 -0.2586599454 0)
(3.10790425 -0.2693117338 0)
(3.103038956 -0.2768429086 0)
(3.100074959 -0.2756628039 0)
(3.095144932 -0.2709238192 0)
(3.076820697 -0.2359907998 0)
(3.056251521 -0.1722637462 0)
(3.01064835 -0.03400933453 0)
(2.973521819 0.02460849286 0)
(2.961114311 0.01353531868 0)
(2.96382059 0.01345853867 0)
(2.966610315 0.01360757897 0)
(3.066904122 -0.111903322 0)
(3.070133015 -0.1166923418 0)
(3.074325568 -0.1261642351 0)
(3.077611802 -0.1324231329 0)
(3.080315502 -0.1378281103 0)
(3.085484285 -0.1515721871 0)
(3.088778679 -0.1593800967 0)
(3.092727457 -0.1677182621 0)
(3.095302832 -0.178388559 0)
(3.09671217 -0.1821441891 0)
(3.099162148 -0.1867076557 0)
(3.101290393 -0.1970323977 0)
(3.10269434 -0.1996548798 0)
(3.103961984 -0.203853581 0)
(3.107880022 -0.2172197139 0)
(3.107306622 -0.2240651737 0)
(3.107761409 -0.2271126049 0)
(3.109550936 -0.2357280366 0)
(3.107833156 -0.2399067671 0)
(3.106055973 -0.2439833459 0)
(3.104158095 -0.2452684626 0)
(3.103446291 -0.2513607951 0)
(3.101741598 -0.2582393129 0)
(3.097641128 -0.2630002269 0)
(3.095202175 -0.2631137164 0)
(3.089270597 -0.2592769216 0)
(3.077055588 -0.2347959851 0)
(3.040035148 -0.147521587 0)
(3.015826701 -0.09251354961 0)
(2.993500251 -0.0232660072 0)
(2.972582874 0.006753825581 0)
(2.969214548 0.01180304633 0)
(3.063223987 -0.09652856945 0)
(3.066587727 -0.1047316521 0)
(3.071111495 -0.1139359533 0)
(3.07502996 -0.1253078238 0)
(3.078102853 -0.1294802885 0)
(3.081810929 -0.1374046954 0)
(3.084745011 -0.1454990372 0)
(3.086845881 -0.1486276711 0)
(3.092019745 -0.1616733788 0)
(3.094514208 -0.1723929727 0)
(3.096985522 -0.1782919182 0)
(3.099699521 -0.1868264333 0)
(3.10067438 -0.1918117197 0)
(3.10150326 -0.1938554789 0)
(3.103845517 -0.2026351033 0)
(3.104319915 -0.2116603516 0)
(3.104142178 -0.2125127467 0)
(3.107188937 -0.2211642236 0)
(3.106042473 -0.2289869438 0)
(3.104047556 -0.233674916 0)
(3.102804001 -0.2382274982 0)
(3.101072627 -0.2416057892 0)
(3.101020979 -0.2504658251 0)
(3.098073486 -0.2547994749 0)
(3.094965514 -0.2600436737 0)
(3.092242322 -0.2585374551 0)
(3.086810304 -0.2536494429 0)
(3.0684805 -0.2227684569 0)
(3.042169799 -0.154223518 0)
(3.010776878 -0.04786360375 0)
(2.98197418 0.01999515756 0)
(2.967642161 0.01180988198 0)
(3.058838762 -0.08101464048 0)
(3.062512399 -0.09167470015 0)
(3.06556631 -0.09627016472 0)
(3.071621986 -0.1104134253 0)
(3.075090516 -0.1201662972 0)
(3.078718777 -0.125971826 0)
(3.08242695 -0.1365788852 0)
(3.084580759 -0.1408684966 0)
(3.086599211 -0.1447018961 0)
(3.090310746 -0.1570777242 0)
(3.092875573 -0.1629276672 0)
(3.095898136 -0.1698273795 0)
(3.099060081 -0.1814107592 0)
(3.099698651 -0.186753003 0)
(3.101584067 -0.1930716882 0)
(3.102464212 -0.2012721555 0)
(3.10214364 -0.2036701321 0)
(3.102078686 -0.2062952387 0)
(3.104127885 -0.2167744699 0)
(3.102274914 -0.2222324004 0)
(3.100740607 -0.2261027146 0)
(3.099962471 -0.2313903129 0)
(3.097633198 -0.2349866489 0)
(3.095897266 -0.2415633176 0)
(3.093132201 -0.2429450932 0)
(3.089155098 -0.247301444 0)
(3.086541892 -0.2477164208 0)
(3.080332876 -0.2438636718 0)
(3.067633206 -0.2197597185 0)
(3.034596701 -0.1411548133 0)
(3.018293996 -0.09097062589 0)
(2.987320309 -0.02069520836 0)
(3.055199109 -0.06896856546 0)
(3.059333604 -0.08126406653 0)
(3.061945052 -0.08473159743 0)
(3.065774889 -0.09232331112 0)
(3.070508142 -0.1058969871 0)
(3.073924655 -0.1106434385 0)
(3.078834286 -0.1206785025 0)
(3.082223043 -0.1329561755 0)
(3.084665292 -0.1387269757 0)
(3.088127488 -0.1470350601 0)
(3.090206812 -0.1538615575 0)
(3.090884156 -0.1546873041 0)
(3.093785318 -0.1634779954 0)
(3.097424311 -0.1756275842 0)
(3.099122626 -0.1816781196 0)
(3.100467346 -0.18819586 0)
(3.100613092 -0.1949842056 0)
(3.100148152 -0.1985888931 0)
(3.100730863 -0.204369369 0)
(3.099917672 -0.2101980419 0)
(3.097578756 -0.2126438354 0)
(3.097780915 -0.2193321731 0)
(3.096058416 -0.2250352986 0)
(3.094474734 -0.2308519311 0)
(3.092462611 -0.2361744876 0)
(3.089486203 -0.2409519171 0)
(3.086781974 -0.2470661164 0)
(3.08379818 -0.2449606196 0)
(3.077393407 -0.2382160766 0)
(3.06255638 -0.2137897664 0)
(3.038251044 -0.1487934234 0)
(2.998698044 -0.03624035105 0)
(3.050316367 -0.05411113348 0)
(3.055822731 -0.06749714803 0)
(3.059041466 -0.07723354065 0)
(3.062441114 -0.08201841049 0)
(3.067235237 -0.09474321873 0)
(3.070212529 -0.1006836573 0)
(3.072379967 -0.1026030839 0)
(3.077935029 -0.1167973449 0)
(3.081021769 -0.125390929 0)
(3.084523622 -0.1316917944 0)
(3.088457779 -0.1445078051 0)
(3.089282051 -0.1506084848 0)
(3.090914322 -0.1527725209 0)
(3.093867233 -0.1624386669 0)
(3.095155158 -0.1683227685 0)
(3.095921923 -0.1722542076 0)
(3.098189639 -0.1813413362 0)
(3.098970358 -0.1903948939 0)
(3.098869905 -0.1963350412 0)
(3.097818688 -0.1991361853 0)
(3.096585303 -0.2046408769 0)
(3.094471686 -0.2070100854 0)
(3.093777683 -0.2128496559 0)
(3.091357321 -0.2163116351 0)
(3.090401416 -0.222515177 0)
(3.088188806 -0.2262626125 0)
(3.08455851 -0.2284313802 0)
(3.080898257 -0.2336822995 0)
(3.078087946 -0.233193356 0)
(3.07208358 -0.2293037429 0)
(3.061217904 -0.2090312186 0)
(3.024737201 -0.122005525 0)
(3.045968166 -0.04161618044 0)
(3.049729962 -0.04930825083 0)
(3.054772015 -0.0628628083 0)
(3.058505302 -0.07017843648 0)
(3.063259306 -0.08011158977 0)
(3.067043581 -0.09187667342 0)
(3.069903177 -0.09563054681 0)
(3.074247984 -0.1041861363 0)
(3.077376563 -0.1150168916 0)
(3.079354856 -0.1165416196 0)
(3.082433727 -0.1246793648 0)
(3.086849637 -0.1390132623 0)
(3.088815439 -0.1443961756 0)
(3.091645641 -0.1515831612 0)
(3.093233244 -0.161094008 0)
(3.093763924 -0.1644297529 0)
(3.093353765 -0.1658614253 0)
(3.095826122 -0.1757900354 0)
(3.095822118 -0.182679289 0)
(3.095435615 -0.1879734714 0)
(3.095166414 -0.1942422215 0)
(3.094078092 -0.2014083157 0)
(3.092268933 -0.204794312 0)
(3.089820931 -0.2067541462 0)
(3.088089525 -0.2108278697 0)
(3.086607909 -0.2161368005 0)
(3.08415321 -0.2204355501 0)
(3.080634653 -0.2272422712 0)
(3.079594296 -0.2319822935 0)
(3.075243543 -0.2296942778 0)
(3.070113224 -0.2244327636 0)
(3.046079451 -0.1758493929 0)
(3.042585378 -0.0330033907 0)
(3.045997489 -0.0386181443 0)
(3.050295321 -0.04878754885 0)
(3.054285864 -0.0585508594 0)
(3.058129912 -0.06494153325 0)
(3.063124044 -0.07748939571 0)
(3.066502903 -0.08495462507 0)
(3.070116394 -0.09061282945 0)
(3.074986884 -0.1051463863 0)
(3.076758174 -0.1119823066 0)
(3.079156576 -0.1137331033 0)
(3.082872245 -0.1245837792 0)
(3.084663014 -0.1305932688 0)
(3.086358018 -0.1346637662 0)
(3.091317755 -0.1480663068 0)
(3.091677693 -0.1570634001 0)
(3.092114161 -0.1603901917 0)
(3.093094663 -0.1641551454 0)
(3.093384934 -0.1731500912 0)
(3.091832943 -0.1749216841 0)
(3.090798932 -0.178761512 0)
(3.092172534 -0.1870638877 0)
(3.090807029 -0.1941898832 0)
(3.088682511 -0.1987698466 0)
(3.086777761 -0.201811637 0)
(3.084556205 -0.2049599543 0)
(3.081868036 -0.2072991303 0)
(3.079387908 -0.2117419045 0)
(3.076599093 -0.2147999277 0)
(3.071973756 -0.2180243543 0)
(3.069923162 -0.2188111783 0)
(3.058968561 -0.2025669326 0)
(3.037754399 -0.01783073501 0)
(3.042179253 -0.02841013917 0)
(3.046108695 -0.03653444803 0)
(3.050473269 -0.04752003926 0)
(3.054238502 -0.0543491856 0)
(3.058605491 -0.0630694807 0)
(3.062658694 -0.07347165757 0)
(3.065719798 -0.07740128087 0)
(3.069575842 -0.08696779297 0)
(3.073807586 -0.1010167648 0)
(3.076549531 -0.1060622303 0)
(3.080324774 -0.1137497319 0)
(3.082505084 -0.12329375 0)
(3.083596947 -0.1249107248 0)
(3.085149623 -0.130588582 0)
(3.088202238 -0.142928641 0)
(3.089249985 -0.1484689895 0)
(3.090517521 -0.1531902738 0)
(3.092080045 -0.1635826952 0)
(3.090534153 -0.1700105017 0)
(3.088977369 -0.1703066539 0)
(3.089567213 -0.1759047811 0)
(3.087693967 -0.1809776372 0)
(3.086011661 -0.185227027 0)
(3.085021005 -0.1905361022 0)
(3.083485895 -0.1955235344 0)
(3.081165236 -0.199204978 0)
(3.078085425 -0.2020104431 0)
(3.07671928 -0.2093661963 0)
(3.07368429 -0.2136667356 0)
(3.069812644 -0.2178885722 0)
(3.064262367 -0.2114767381 0)
(3.032499674 -0.00315126898 0)
(3.037344385 -0.01444491253 0)
(3.041501109 -0.02363814131 0)
(3.046340825 -0.03483483436 0)
(3.050598048 -0.04450490109 0)
(3.054396099 -0.05049667677 0)
(3.059187584 -0.06145296964 0)
(3.062726369 -0.06989862281 0)
(3.066122948 -0.0758185037 0)
(3.069808603 -0.08681821322 0)
(3.072487222 -0.09291137349 0)
(3.075032207 -0.09714915324 0)
(3.080494139 -0.1111029781 0)
(3.081655667 -0.1194573603 0)
(3.08321861 -0.1230982844 0)
(3.085662544 -0.1328725209 0)
(3.085885922 -0.1367146287 0)
(3.085547236 -0.1379882174 0)
(3.088146971 -0.1477519977 0)
(3.088869893 -0.1586195851 0)
(3.087454522 -0.1623115427 0)
(3.087393244 -0.16657906 0)
(3.086378033 -0.1739364223 0)
(3.083678441 -0.1745959365 0)
(3.082446375 -0.1782955087 0)
(3.080606297 -0.1820352683 0)
(3.0797739 -0.1879584121 0)
(3.077250934 -0.1920631099 0)
(3.074428615 -0.1952781547 0)
(3.072029604 -0.1986739024 0)
(3.068053522 -0.2020621724 0)
(3.064240351 -0.2023649021 0)
(3.028730158 0.006491649025 0)
(3.032850835 -0.00193801815 0)
(3.036882651 -0.01073336484 0)
(3.041110907 -0.0200054044 0)
(3.046405437 -0.03209302778 0)
(3.050749676 -0.04055932072 0)
(3.054459795 -0.04673880157 0)
(3.059164438 -0.05772605179 0)
(3.063005893 -0.06653583108 0)
(3.066814648 -0.07605297807 0)
(3.069733841 -0.0844411285 0)
(3.07192639 -0.08674801622 0)
(3.074180782 -0.09307810015 0)
(3.078349732 -0.1058521321 0)
(3.080568427 -0.1120667511 0)
(3.083216913 -0.1202418478 0)
(3.084192492 -0.1298265151 0)
(3.084130627 -0.1323619153 0)
(3.084759806 -0.1363590615 0)
(3.08533015 -0.1451377939 0)
(3.084361406 -0.1493424516 0)
(3.083932619 -0.1532885922 0)
(3.085441967 -0.1626443893 0)
(3.08319352 -0.1688099158 0)
(3.081078047 -0.1719365989 0)
(3.079239934 -0.1731740447 0)
(3.077040542 -0.1758181748 0)
(3.074428224 -0.1793019845 0)
(3.072255192 -0.1838689121 0)
(3.071295532 -0.1899471946 0)
(3.069129412 -0.1936035865 0)
(3.064757124 -0.1993872638 0)
(3.023868589 0.02012051478 0)
(3.028963474 0.008716908258 0)
(3.033269589 -0.0007122666261 0)
(3.03737104 -0.009290818088 0)
(3.041540793 -0.01784432957 0)
(3.046556752 -0.02852619651 0)
(3.050901276 -0.03674904832 0)
(3.054924988 -0.04452526964 0)
(3.058937726 -0.0537804818 0)
(3.062452467 -0.06188948264 0)
(3.066667234 -0.07251513162 0)
(3.069611821 -0.080459259 0)
(3.072484758 -0.0864442275 0)
(3.075466286 -0.09497267885 0)
(3.076960152 -0.09975968238 0)
(3.077893643 -0.1038490898 0)
(3.081251045 -0.115614316 0)
(3.081877906 -0.1224538435 0)
(3.082814124 -0.128400133 0)
(3.083467906 -0.1366194025 0)
(3.082358024 -0.1408980558 0)
(3.081043002 -0.1418429339 0)
(3.081058932 -0.1474963935 0)
(3.080989227 -0.1555829852 0)
(3.078868388 -0.159023555 0)
(3.077920017 -0.1638931359 0)
(3.076819393 -0.1701548059 0)
(3.074317692 -0.1737773062 0)
(3.071804138 -0.1762596081 0)
(3.0688937 -0.177214845 0)
(3.066119241 -0.1783020287 0)
(3.062129851 -0.1835969227 0)
(3.01897308 0.03350563428 0)
(3.023461707 0.02384050631 0)
(3.028414855 0.01309050198 0)
(3.033857983 0.000906140486 0)
(3.038211437 -0.008346452518 0)
(3.042438147 -0.01595484975 0)
(3.047002534 -0.02496253584 0)
(3.051283886 -0.03380218462 0)
(3.055549562 -0.04375598395 0)
(3.059061867 -0.05183225797 0)
(3.061725762 -0.05708979002 0)
(3.065372193 -0.06537522328 0)
(3.069438622 -0.07471503433 0)
(3.072774602 -0.08415691067 0)
(3.074918638 -0.09288579604 0)
(3.076217882 -0.09722843331 0)
(3.077786195 -0.1029376706 0)
(3.078646476 -0.1096961749 0)
(3.079020808 -0.1142334442 0)
(3.08031596 -0.1229793004 0)
(3.080732728 -0.1322501012 0)
(3.079643075 -0.1355000183 0)
(3.079639232 -0.1399700174 0)
(3.07891046 -0.1462349537 0)
(3.076392009 -0.1473202065 0)
(3.074696844 -0.1498064643 0)
(3.074230613 -0.1557661817 0)
(3.072723074 -0.1613196228 0)
(3.070639857 -0.1655077493 0)
(3.06803262 -0.1686424586 0)
(3.066400845 -0.1723733286 0)
(3.061994417 -0.1764420721 0)
(3.015155464 0.04356806945 0)
(3.019959565 0.03363495801 0)
(3.024013317 0.02573641799 0)
(3.028450764 0.01643761641 0)
(3.034134519 0.003699212378 0)
(3.038743938 -0.00544906283 0)
(3.043227973 -0.01352052458 0)
(3.047218123 -0.02138740346 0)
(3.051557458 -0.03110044608 0)
(3.056005815 -0.04249826422 0)
(3.059258073 -0.05058683005 0)
(3.06235543 -0.05523128959 0)
(3.065416027 -0.06136476892 0)
(3.0680446 -0.06901617845 0)
(3.071157823 -0.07863021929 0)
(3.07401164 -0.08835752421 0)
(3.075600923 -0.09518226347 0)
(3.07663937 -0.1010772962 0)
(3.076668807 -0.1046298542 0)
(3.076526987 -0.1097162226 0)
(3.077556948 -0.1185869027 0)
(3.077391751 -0.1239428901 0)
(3.077378803 -0.1290035198 0)
(3.077444141 -0.1364359892 0)
(3.075672435 -0.141943705 0)
(3.073734906 -0.1430212158 0)
(3.07316994 -0.1475750189 0)
(3.070663142 -0.1503425156 0)
(3.068559401 -0.1538345532 0)
(3.06609402 -0.1563930232 0)
(3.064583785 -0.1592534379 0)
(3.060882435 -0.1646752424 0)
(3.010295516 0.05717834097 0)
(3.015914772 0.04565182467 0)
(3.02102325 0.0342428309 0)
(3.025220174 0.02606394341 0)
(3.029846256 0.01678673125 0)
(3.034488843 0.007126017 0)
(3.03912147 -0.001675930733 0)