/*--------------------------------*- C++ -*----------------------------------*\
  =========                 |
  \\      /  F ield         | OpenFOAM: The Open Source CFD Toolbox
   \\    /   O peration     | Website:  https://openfoam.org
    \\  /    A nd           | Version:  7
     \\/     M anipulation  |
\*---------------------------------------------------------------------------*/
FoamFile
{
    version     2.0;
    format      ascii;
    class       volScalarField;
    location    "3";
    object      T;
}
// * * * * * * * * * * * * * * * * * * * * * * * * * * * * * * * * * * * * * //

dimensions      [0 0 0 1 0 0 0];

internalField   nonuniform List<scalar> 
555
(
1.112346965
1.107723119
1.099692932
1.088737799
1
1.000000011
1.000001765
1.000039273
1.000776277
1.00456724
1.023058823
1.054300522
1.082933119
1.106977207
1.114436091
1.114328026
1.114053303
1.112816675
1.108467153
1.100586764
1.089616284
1.07662856
1
1.000000435
1.000040404
1.000490806
1.005465728
1.020026957
1.0540615
1.091530684
1.107494966
1.111084637
1.114573356
1.114894427
1.113457795
1.109122214
1.10136371
1.090623932
1.077176174
1.063030353
1.000000033
1.000012295
1.000549735
1.003888719
1.022369981
1.05457003
1.083482214
1.107521627
1.11520288
1.115286548
1.115170423
1.114037536
1.110002414
1.102253484
1.091501589
1.077713507
1.062726171
1.047841217
1.000003021
1.000224497
1.004469709
1.018693308
1.053893697
1.09266254
1.109621631
1.112639744
1.11490181
1.115773558
1.114566245
1.110658681
1.103110954
1.092172909
1.078398847
1.062213826
1.046681928
1.030105224
1.000118449
1.002529554
1.020614291
1.0545051
1.084824698
1.108935007
1.116309609
1.116103887
1.115756672
1.114778868
1.111266716
1.103996855
1.092902938
1.07884662
1.062357056
1.044890295
1.028282056
1.009506203
1.002052685
1.01605932
1.053657076
1.094129016
1.111023271
1.113905385
1.115530104
1.116137303
1.115187764
1.11180019
1.104796675
1.093673254
1.079199855
1.06209394
1.043372386
1.025172703
1.007503965
0.9888374799
1.015486464
1.054493707
1.086724371
1.110626706
1.117714235
1.117277626
1.116376593
1.115507743
1.112477086
1.105752401
1.094746874
1.079428997
1.061688924
1.041969661
1.021940833
1.004037292
0.9851836417
0.9671461086
1.051101532
1.098273208
1.108697889
1.11254879
1.116054233
1.11694427
1.116122816
1.113049937
1.106575862
1.095750715
1.08005309
1.060794981
1.04080125
1.018959455
0.9990322361
0.9816624073
0.9617132466
0.9468617427
1.089707954
1.114488801
1.119064131
1.118214652
1.11670755
1.116040376
1.113315683
1.107054701
1.096479974
1.080642911
1.05994853
1.03888462
1.016044307
0.9925241371
0.9745233708
0.9560613862
0.9377527979
0.9295546182
1.107687782
1.113616311
1.118632304
1.118365671
1.117211965
1.113949062
1.107790178
1.09735005
1.081614642
1.059002561
1.035971161
1.013350154
0.9867857376
0.967864588
0.9519052444
0.9307152117
0.9152510214
0.9065483877
1.118147825
1.116747417
1.117132392
1.116531591
1.114346484
1.109149253
1.099002005
1.082723654
1.058542337
1.032298624
1.009269721
0.9808418653
0.9554964541
0.9425800458
0.9249610305
0.9083228894
0.8998838474
0.8871544981
1.118857278
1.117842679
1.116086972
1.114178755
1.110293566
1.100995116
1.084394529
1.058411688
1.028310332
1.004804756
0.9754738385
0.9459474346
0.9310931413
0.91521685
0.8919869776
0.8840827817
0.8795629045
0.8683691727
1.116995725
1.115686238
1.114003568
1.110798593
1.102352467
1.085372721
1.058078749
1.02423232
0.9959452241
0.9663818781
0.9287474677
0.9180222382
0.9102855188
0.8920777818
0.8762308708
0.8694588865
0.8594048567
0.8497845777
1.115788978
1.114217572
1.111726767
1.104134532
1.086195221
1.056831395
1.019410019
0.98727431
0.9584250475
0.9247962487
0.9011233621
0.8909442453
0.8759882257
0.8603731535
0.8596635942
0.8570326604
0.8511416956
0.8472124267
1.114365663
1.112839561
1.106718081
1.088197155
1.055693109
1.011493644
0.9735434707
0.9416887902
0.9057158686
0.8923573724
0.8846340669
0.8712644764
0.8557837788
0.8467621829
0.8440157422
0.8440173651
0.844905248
0.8471439738
1.114010737
1.10946753
1.091439562
1.052510257
1.005309177
0.9635204382
0.9276916768
0.8969696132
0.8730641124
0.8590633758
0.8574082675
0.8516743989
0.8471910529
0.8458882337
0.8442006082
0.844245957
0.8506230802
0.8733492051
1.113221592
1.094801656
1.05073396
0.9894833781
0.9345784495
0.9012939224
0.8790789524
0.8729235197
0.8667566987
0.855950586
0.8476818197
0.8409187298
0.8409134278
0.8431131907
0.8460856628
0.8611675689
0.9009902794
0.9499867913
1.101765498
1.044284113
0.9688529725
0.9138978708
0.8762703877
0.8471349511
0.8415990999
0.8439020999
0.8490102575
0.8491033499
0.8460035661
0.8417298572
0.8422108098
0.8508541879
0.8783418245
0.9300803553
0.9778229815
1.0024133
1.049517612
0.9097587041
0.82841132
0.8315277687
0.8378724956
0.8326126053
0.8245405452
0.8261550904
0.8296469689
0.834440198
0.8384346522
0.8431908379
0.8586947605
0.9044309704
0.9675503927
0.9882103674
0.998995511
1.013390012
0.9060964241
0.9175938564
0.8420015745
0.8402348694
0.8389106586
0.8215944492
0.8170379783
0.8202934903
0.830277237
0.8367178689
0.8428602724
0.8544880678
0.8919853511
0.9565940924
1.00619465
1.016365408
1.004647803
1.012910174
0.9084623455
0.9140585155
0.8525054988
0.8467988964
0.8393132029
0.8201174574
0.8165515993
0.8204112582
0.8304528998
0.8376740916
0.8450964635
0.8612209927
0.9085937238
0.9726017817
1.010787663
1.016313904
1.004771019
1.01280199
0.9140461243
0.9092292316
0.859588356
0.8504449894
0.8391271745
0.8197310317
0.8166468881
0.8207572925
0.8304564574
0.8384807373
0.847046856
0.8690261698
0.9174408779
0.9790520908
1.00965555
1.014809803
1.004102241
1.012224705
0.9179246716
0.9051099994
0.8648019152
0.8547808998
0.8394700452
0.818961465
0.8166575184
0.8208488981
0.8304166271
0.8390800941
0.8501773027
0.8770495556
0.9302040208
0.9840408288
1.008166284
1.012872318
1.003414275
1.011255588
0.9202528287
0.9018451125
0.8687031312
0.8579634133
0.8397572631
0.8189185849
0.8167860898
0.8208845365
0.8301976258
0.8399110108
0.8537523449
0.8855086556
0.9512865445
0.9913714581
1.008313363
1.010927157
1.002550647
1.010121712
0.9215120007
0.900367842
0.8727711454
0.8607113975
0.8397553701
0.8187711205
0.8173350075
0.8213097082
0.8303900056
0.8418045948
0.8578291279
0.901024403
0.9673207992
0.9993732774
1.008570061
1.009121297
1.001919398
1.009020403
0.9217066632
0.8999254615
0.8764979196
0.863337129
0.8395873206
0.8186530286
0.8176220873
0.8218423941
0.8312990369
0.843844956
0.8652519264
0.9181467958
0.9719842692
1.002319005
1.008479759
1.007819441
1.001503173
1.008029597
0.9215289548
0.900287871
0.8796714717
0.8646666777
0.8390778637
0.8185584775
0.8175778075
0.8219038079
0.8320099972
0.845916363
0.8762006543
0.926514486
0.9775386665
1.00299941
1.007988446
1.006746173
1.00129531
1.007280752
0.9210029464
0.9007820096
0.8824918661
0.8661091093
0.8384979358
0.8188164867
0.8176325054
0.8218071858
0.8323446512
0.8496293923
0.8835218866
0.9370195288
0.9866510596
1.002066309
1.007006031
1.005803643
1.001091477
0.9199800416
0.9009581936
0.8849975482
0.8673524485
0.8380418882
0.8195540756
0.8184618226
0.8224039254
0.8332960286
0.8544105369
0.8923964306
0.9560380534
0.9942707368
1.002294798
1.006294251
1.004886301
1.000665034
0.9184685743
0.9011404118
0.8868641695
0.8682100213
0.837773867
0.8199517938
0.8193993149
0.8239024998
0.8356592459
0.8595510417
0.9101719034
0.9708608629
0.9980064639
1.003276104
1.005624716
1.0037787
1.000188611
0.9165370777
0.9012078234
0.8883067634
0.8688643181
0.8377676353
0.8203816916
0.8197158188
0.8244131958
0.8381145479
0.8684798066
0.9273486063
0.977198327
0.9976755972
1.00369197
)
;

boundaryField
{
    inlet
    {
        type            fixedValue;
        value           nonuniform 0();
    }
    outlet
    {
        type            inletOutlet;
        inletValue      nonuniform 0();
        value           nonuniform 0();
    }
    bottom
    {
        type            slip;
    }
    top
    {
        type            slip;
    }
    obstacle
    {
        type            zeroGradient;
    }
    defaultFaces
    {
        type            empty;
    }
    procBoundary9to3
    {
        type            processor;
        value           nonuniform List<scalar> 
19
(
1.11307935
1.111632817
1.10690693
1.098739552
1
1
1.000000047
1.000002009
1.000066645
1.000638798
1.005869444
1.020491442
1.054098723
1.091074849
1.105952494
1.109911224
1.113406729
1.11380455
1.11380455
)
;
    }
    procBoundary9to4
    {
        type            processor;
        value           nonuniform List<scalar> 5(1.076398968 1.063406345 1.048626545 1.03115615 1.011727476);
    }
    procBoundary9to8
    {
        type            processor;
        value           nonuniform List<scalar> 2(1 1);
    }
    procBoundary9to10
    {
        type            processor;
        value           nonuniform List<scalar> 
27
(
0.9925502828
0.9748347736
0.9550830763
0.9353025494
0.9177719786
0.8904382109
0.8714104319
0.8625775208
0.8500949112
0.8479646866
0.8611343085
0.9215600979
0.9795114168
1.005279545
1.01228286
1.012734813
1.01257175
1.011883764
1.010881082
1.009859797
1.008802299
1.007864792
1.0067864
1.006540466
1.006540466
1.005768011
1.00510695
)
;
    }
    procBoundary9to14
    {
        type            processor;
        value           nonuniform List<scalar> 
17
(
0.9999999999
0.9999999973
0.9999999884
1.000008048
1.001358844
1.019152699
1.067078221
1.103990755
1.118085895
1.118165539
1.117126619
1.117743173
1.115130292
1.114447161
1.114419342
1.115145203
1.116716979
)
;
    }
    procBoundary9to15
    {
        type            processor;
        value           nonuniform List<scalar> 
18
(
1.005233918
1.002507627
0.999606469
0.9144576354
0.9011957919
0.8895313416
0.8690112844
0.8375839614
0.8214997717
0.8204421104
0.8249088514
0.8409651975
0.8791290853
0.9370810244
0.9824668936
0.9970200197
1.005233918
1.002394735
)
;
    }
}


// ************************************************************************* //
