/*--------------------------------*- C++ -*----------------------------------*\
  =========                 |
  \\      /  F ield         | OpenFOAM: The Open Source CFD Toolbox
   \\    /   O peration     | Website:  https://openfoam.org
    \\  /    A nd           | Version:  7
     \\/     M anipulation  |
\*---------------------------------------------------------------------------*/
FoamFile
{
    version     2.0;
    format      ascii;
    class       volScalarField;
    location    "1.3";
    object      rho;
}
// * * * * * * * * * * * * * * * * * * * * * * * * * * * * * * * * * * * * * //

dimensions      [1 -3 0 0 0 0 0];

internalField   nonuniform List<scalar> 
2222
(
1.824263124
1.821063717
1.820137047
1.820640437
1.821046609
1.820624874
1.819739155
1.809117471
1.807725891
1.807820683
1.808906786
1.80993073
1.810510139
1.8111103
1.812353166
1.814657462
1.817416883
1.819811131
1.821745362
1.823782696
1.825844134
1.826728092
1.82686755
1.826870961
1.826643779
1.826501667
1.82606716
1.825431131
1.82463664
1.823890834
1.823692549
1.823663209
1.823666023
1.809117918
1.807725864
1.807820526
1.808906322
1.809930476
1.810510164
1.811110514
1.812353276
1.814657364
1.817416896
1.81981127
1.82174538
1.82378266
1.825844134
1.826728143
1.826867561
1.82687095
1.826643726
1.826501555
1.826067254
1.825431262
1.824636896
1.823890949
1.823692448
1.823663097
1.823665865
1.823797932
1.824030961
1.82423824
1.824284937
1.824254836
1.824141736
1.824041167
1.824028782
1.824146875
1.824502538
1.824813635
1.824793462
1.824637552
1.824357042
1.824119123
1.824044939
1.824016383
1.824108907
1.824422249
1.824536841
1.824472548
1.824305563
1.824074623
1.823944062
1.823910898
1.823909285
1.824030301
1.824241233
1.824251506
1.824168391
1.824030852
1.823912336
1.823874778
1.823859493
1.823879502
1.824009755
1.824115585
1.824097334
1.824045755
1.823998592
1.823984822
1.824263261
1.821063715
1.820136943
1.820640354
1.821046574
1.820625051
1.819739328
1.81965635
1.820170561
1.820617559
1.820532701
1.820453503
1.820631041
1.820634598
1.820361703
1.819724382
1.819507587
1.819826599
1.820984143
1.822388754
1.822803418
1.822859821
1.822974587
1.823168425
1.823353103
1.823515944
1.823820544
1.824338131
1.824804618
1.824895363
1.824843234
1.824615251
1.824224638
1.823992868
1.823968573
1.824026047
1.824242894
1.824383251
1.824374255
1.824288483
1.824101641
1.823942025
1.823915524
1.823942482
1.824101645
1.824324521
1.824406853
1.82439784
1.824344152
1.824193839
1.824022541
1.823981375
1.823987173
1.824071585
1.824160571
1.824156223
1.824124304
1.824072997
1.824006176
1.823981918
1.823977447
1.824008671
1.824102399
1.824199511
1.824221243
1.824210083
1.824202877
1.83713828
1.835320624
1.833385641
1.831635267
1.829698869
1.827707013
1.825475467
1.822394458
1.820363543
1.818963239
1.817551534
1.816309871
1.815861376
1.81545073
1.814864063
1.814853805
1.815317243
1.816423352
1.818656055
1.82147358
1.823807893
1.825020827
1.825414319
1.825448779
1.825255105
1.82477982
1.824594493
1.824578958
1.824601143
1.824485171
1.824303494
1.824068835
1.823780913
1.823596041
1.823599088
1.823710556
1.823966612
1.824220711
1.82433529
1.824397826
1.824427629
1.824381586
1.824297933
1.824295633
1.824322082
1.824389714
1.824471562
1.824499897
1.824512205
1.824480947
1.824352127
1.824223274
1.824186942
1.824185931
1.824206513
1.824286151
1.824355303
1.8243735
1.824380444
1.824371244
1.824347533
1.824338345
1.824343208
1.824378742
1.82440804
1.824410453
1.824410383
1.854452346
1.854292813
1.85367146
1.852297
1.850078766
1.847336851
1.843623853
1.838522284
1.833785872
1.82966795
1.826378523
1.822875998
1.821398625
1.820906501
1.82011005
1.819006546
1.818183356
1.818161043
1.818717097
1.820163858
1.821048356
1.821563632
1.821886467
1.821973122
1.822008057
1.822199446
1.822562801
1.823209334
1.823602076
1.823636212
1.823730463
1.823997892
1.824237279
1.824318442
1.824430681
1.824636224
1.824755666
1.824771353
1.824762657
1.824734553
1.824650059
1.824529809
1.824422429
1.824362343
1.824337425
1.824328733
1.824344694
1.824378732
1.824414833
1.824440507
1.824445481
1.824411215
1.824423926
1.824465324
1.824532858
1.824637959
1.824701308
1.824722509
1.824731696
1.824715863
1.82466054
1.824617555
1.824594258
1.824570176
1.824538298
1.824499982
1.824492101
1.853019704
1.853548732
1.853299716
1.852041694
1.849800765
1.845617816
1.839901986
1.835866185
1.833685091
1.834009557
1.833969687
1.832738485
1.830886881
1.830318367
1.829363347
1.827508297
1.825452231
1.823569172
1.821491801
1.82045426
1.819421237
1.818933149
1.819034579
1.819098002
1.819120942
1.819238411
1.819831476
1.820904822
1.821868313
1.822388374
1.822787339
1.823344876
1.823855562
1.824009458
1.824134877
1.824331438
1.824482362
1.824498885
1.824472048
1.824462834
1.824499298
1.824516227
1.82453631
1.824542654
1.824504669
1.824490978
1.824544197
1.824653735
1.824775607
1.824836947
1.824864455
1.82486644
1.824841807
1.824862179
1.824925748
1.824977446
1.824990077
1.824973048
1.824932725
1.824867543
1.824772939
1.824684156
1.82462931
1.824609881
1.82460311
1.824584292
1.824590654
1.799389804
1.813283772
1.819798199
1.823206967
1.827691884
1.831359551
1.835182983
1.839862639
1.844535917
1.845785524
1.845939995
1.846242071
1.845587448
1.844651032
1.843496911
1.841579462
1.838611489
1.835174282
1.831481106
1.827303653
1.823757251
1.820704419
1.820235991
1.820428088
1.820466169
1.820511352
1.820609304
1.820661353
1.820860775
1.821365654
1.82194424
1.822706839
1.823385396
1.823674023
1.823674002
1.82350065
1.823415113
1.823464183
1.823545545
1.823704294
1.824036842
1.824286235
1.824436524
1.824528236
1.824593756
1.824677932
1.824796895
1.824968029
1.825127018
1.825164473
1.825166256
1.825131815
1.825073786
1.825036475
1.825005643
1.824986169
1.824991767
1.825032403
1.825052508
1.825038561
1.824976444
1.824889051
1.824860335
1.824868222
1.824898021
1.82493562
1.824956236
1.678725051
1.721211696
1.75576495
1.777568109
1.800065348
1.820068355
1.829168934
1.839216795
1.846202838
1.845874258
1.845677139
1.845521076
1.844417741
1.842850271
1.840378928
1.837258099
1.834044568
1.832977293
1.832399089
1.832117779
1.831006105
1.829626326
1.828823066
1.828611126
1.828309945
1.827125076
1.825368192
1.824221904
1.823357961
1.82239365
1.82144418
1.821185361
1.821211108
1.821181153
1.821019092
1.820965047
1.821120173
1.82142527
1.821915907
1.822656536
1.823508837
1.82433577
1.8248488
1.824975092
1.825014401
1.825035315
1.825073796
1.825128854
1.825258257
1.825357191
1.825349275
1.8252696
1.825066625
1.824825138
1.824693668
1.824689178
1.824722018
1.824817585
1.824909407
1.82492704
1.824919585
1.82488895
1.824895941
1.824928664
1.825002076
1.825126962
1.825225386
1.494174189
1.527027018
1.572989776
1.61521083
1.654441448
1.695816704
1.724800949
1.755629169
1.782290848
1.792248283
1.804993111
1.813944557
1.816199392
1.820253398
1.824673704
1.828715636
1.833725173
1.839204506
1.841292141
1.84161798
1.842093526
1.842291962
1.84169833
1.840671887
1.839117888
1.836347397
1.833049364
1.829083506
1.826082221
1.823505911
1.821674702
1.821594242
1.821959706
1.822179014
1.822122194
1.8219447
1.821778167
1.82182938
1.822097829
1.82267284
1.823430204
1.823899988
1.823998995
1.823929417
1.823750555
1.823644854
1.823712249
1.823878614
1.824184853
1.824638103
1.824853262
1.824928217
1.824924209
1.824852595
1.824814731
1.824832356
1.824921632
1.825129068
1.825303039
1.825321543
1.825291352
1.82520156
1.825106022
1.825087038
1.825103079
1.825164451
1.825295485
1.409565076
1.417473688
1.431159548
1.4513893
1.475348766
1.509692416
1.548984451
1.588600458
1.633918221
1.67175913
1.708962283
1.746546662
1.769649472
1.791729262
1.812139983
1.820730393
1.829463892
1.83873621
1.839006749
1.838453015
1.839889362
1.839668237
1.838882656
1.836764644
1.833797798
1.830370081
1.829183767
1.830034322
1.830071681
1.829482342
1.828416579
1.827812095
1.828014693
1.82833211
1.827922447
1.826460293
1.825252462
1.824522561
1.823950065
1.823396758
1.823034725
1.822636899
1.822249806
1.82207697
1.822037402
1.822059019
1.82218088
1.822456656
1.823002375
1.82364802
1.824214465
1.824617349
1.824863972
1.824923223
1.824943656
1.824986366
1.825122865
1.825393807
1.82559245
1.825598944
1.825545066
1.825370599
1.825125047
1.824994514
1.824992224
1.825041111
1.825218793
1.400200512
1.400540676
1.401345324
1.403172885
1.406574071
1.412777762
1.423566123
1.43860198
1.461944173
1.492415256
1.523339509
1.565975131
1.609448804
1.647484296
1.689425692
1.718350736
1.746231362
1.774101082
1.784697984
1.796543977
1.808528542
1.811251459
1.815552838
1.82000326
1.823633647
1.828337573
1.833168562
1.837386524
1.838631799
1.83970793
1.839889106
1.839224249
1.838246128
1.836882604
1.834685985
1.831676559
1.829267181
1.826730172
1.824665835
1.823050941
1.822753047
1.822605263
1.822486537
1.822626346
1.822627163
1.822602492
1.822765572
1.823260821
1.82382493
1.824241516
1.8242729
1.824171653
1.824096915
1.824032665
1.824012959
1.824090468
1.824245236
1.824531917
1.824925161
1.825114005
1.825146591
1.825133181
1.825114771
1.825121218
1.825157211
1.825220691
1.825339279
1.400005644
1.400007661
1.400015094
1.400040764
1.400118702
1.400324858
1.400865996
1.402059133
1.404471854
1.409369669
1.417124726
1.429942853
1.45011826
1.473781541
1.506375774
1.545178433
1.583306755
1.627777174
1.666411701
1.701334373
1.739122107
1.762802366
1.783043618
1.805770565
1.815306085
1.822346976
1.832711045
1.834419006
1.834015872
1.835801788
1.836166619
1.835575091
1.833788923
1.831127945
1.828173585
1.82681463
1.827238253
1.82837624
1.82831193
1.828027054
1.827743176
1.827411726
1.827556364
1.827658223
1.827178449
1.826016124
1.825191255
1.824706137
1.824142313
1.823708352
1.823361186
1.822973574
1.822933776
1.822993633
1.823040539
1.823131809
1.823293115
1.823591365
1.824009349
1.824316859
1.824642286
1.82503726
1.825229586
1.825237146
1.825239256
1.825257153
1.82533999
1.40000504
1.400005042
1.400005049
1.400005095
1.400005322
1.400006318
1.400010301
1.400024496
1.400068887
1.400199963
1.400539902
1.40132588
1.403117187
1.406521047
1.412571489
1.423174372
1.438004799
1.460314834
1.490951412
1.521594847
1.561879582
1.605936309
1.641555397
1.6835021
1.714299505
1.738074587
1.76910403
1.780851387
1.790220778
1.803807145
1.807357233
1.810850692
1.815612884
1.819997858
1.824179532
1.828361174
1.833577095
1.836111755
1.837198121
1.837205648
1.836658203
1.835842593
1.834846452
1.833337114
1.831094591
1.829006124
1.826687602
1.824949753
1.823623282
1.823121831
1.822994686
1.823008829
1.82314008
1.823479021
1.823742124
1.823942943
1.82414571
1.824243407
1.824373907
1.824470867
1.824411402
1.824454792
1.824557089
1.824623798
1.8245657
1.824537808
1.824654181
1.40000504
1.40000504
1.40000504
1.40000504
1.40000504
1.400005041
1.400005044
1.400005064
1.400005169
1.400005664
1.400007744
1.400015341
1.400041263
1.400120915
1.400329952
1.400868192
1.40207956
1.404476409
1.409335499
1.417213774
1.429515926
1.449500694
1.473221258
1.503963783
1.543724254
1.580754091
1.622980901
1.663639757
1.695407792
1.733568623
1.759593936
1.777428721
1.798571402
1.81204196
1.817771313
1.826420234
1.831774675
1.831362182
1.832175403
1.833252288
1.832685087
1.83099453
1.828792241
1.82657427
1.825361391
1.825703166
1.827084574
1.827428772
1.827257337
1.827327959
1.827389532
1.827264451
1.827390593
1.827181144
1.826543278
1.826000959
1.825361562
1.824511171
1.823876799
1.823524033
1.823424905
1.823531233
1.823702739
1.823773779
1.823774867
1.823821649
1.824020928
1.40000504
1.40000504
1.40000504
1.40000504
1.40000504
1.40000504
1.40000504
1.40000504
1.40000504
1.40000504
1.400005042
1.40000505
1.400005099
1.400005341
1.400006396
1.400010556
1.400025387
1.400071626
1.400205851
1.40055754
1.401354021
1.403139252
1.406646497
1.412601543
1.423200137
1.438500332
1.459313294
1.490347343
1.522092808
1.558114181
1.603908098
1.640298482
1.678239839
1.712250587
1.734362378
1.762236195
1.779506614
1.786738396
1.798519839
1.80589832
1.807716316
1.811401645
1.817272743
1.821771918
1.825542485
1.830033978
1.834351979
1.834951688
1.835186019
1.834770425
1.834090762
1.833221771
1.831914724
1.83015236
1.828462484
1.826528915
1.825036473
1.824024369
1.823321339
1.823238607
1.823387113
1.823791547
1.824281879
1.824424536
1.824537943
1.82468916
1.824789837
1.40000504
1.40000504
1.40000504
1.40000504
1.40000504
1.40000504
1.40000504
1.40000504
1.40000504
1.40000504
1.40000504
1.40000504
1.40000504
1.40000504
1.400005041
1.400005044
1.400005067
1.400005182
1.400005718
1.400007955
1.400016105
1.400043282
1.400127555
1.40034785
1.400896738
1.402170258
1.404598505
1.409392513
1.417724082
1.429701697
1.449334934
1.4745109
1.503305936
1.542555311
1.581367223
1.620659326
1.662552522
1.69425548
1.726749149
1.758605738
1.775965428
1.792667622
1.810279006
1.815760766
1.82057337
1.828348362
1.829960759
1.82994941
1.830861285
1.830723349
1.829208415
1.826883726
1.824880037
1.824299726
1.824537858
1.825646522
1.826479779
1.826925897
1.826821103
1.826796524
1.827137097
1.827542955
1.8273072
1.826588229
1.826004714
1.825498492
1.824846616
1.40000504
1.40000504
1.40000504
1.40000504
1.40000504
1.40000504
1.40000504
1.40000504
1.40000504
1.40000504
1.40000504
1.40000504
1.40000504
1.40000504
1.40000504
1.40000504
1.40000504
1.40000504
1.40000504
1.400005042
1.400005052
1.400005106
1.400005379
1.400006554
1.400011111
1.400027185
1.400077159
1.400217955
1.400591949
1.401434485
1.403243092
1.4069267
1.413070887
1.423448341
1.439642121
1.46006334
1.490017258
1.525094841
1.557860566
1.601602262
1.642618442
1.675067275
1.71194022
1.735992025
1.754610457
1.77852172
1.786709121
1.793872866
1.803549116
1.806749485
1.809396219
1.814871479
1.820183645
1.823949352
1.827400872
1.8326609
1.833587314
1.833485528
1.833087449
1.832519983
1.831897596
1.830857515
1.829203613
1.827620319
1.825761915
1.824709989
1.823853921
1.40000504
1.40000504
1.40000504
1.40000504
1.40000504
1.40000504
1.40000504
1.40000504
1.40000504
1.40000504
1.40000504
1.40000504
1.40000504
1.40000504
1.40000504
1.40000504
1.40000504
1.40000504
1.40000504
1.40000504
1.40000504
1.40000504
1.40000504
1.400005041
1.400005045
1.400005071
1.400005205
1.400005814
1.400008332
1.400017488
1.40004718
1.400138227
1.400381298
1.400951381
1.402302593
1.404914577
1.409697025
1.418458144
1.431113186
1.449543774
1.476888935
1.50607937
1.541860279
1.583958849
1.622103841
1.662191741
1.696564374
1.724669833
1.754956238
1.776289523
1.792862062
1.807747016
1.813802652
1.818028964
1.824844088
1.82889129
1.82887228
1.828916981
1.828901748
1.827621279
1.825296807
1.823433186
1.82338624
1.823797894
1.824385984
1.825688773
1.826444867
1.40000504
1.40000504
1.40000504
1.40000504
1.40000504
1.40000504
1.40000504
1.40000504
1.40000504
1.40000504
1.40000504
1.40000504
1.40000504
1.40000504
1.40000504
1.40000504
1.40000504
1.40000504
1.40000504
1.40000504
1.40000504
1.40000504
1.40000504
1.40000504
1.40000504
1.40000504
1.40000504
1.400005041
1.400005042
1.400005054
1.400005119
1.400005438
1.400006807
1.400011984
1.400030085
1.400086091
1.400241712
1.400641284
1.401584141
1.403461439
1.407347129
1.413986998
1.424553729
1.440908028
1.46301575
1.491201801
1.527793695
1.563430417
1.601563894
1.642683296
1.6784772
1.71436221
1.736260875
1.753850768
1.775593052
1.788036992
1.792459459
1.799690254
1.806995124
1.808823181
1.812184404
1.818665448
1.824402248
1.82793311
1.829347152
1.83213721
1.832749099
1.40000504
1.40000504
1.40000504
1.40000504
1.40000504
1.40000504
1.40000504
1.40000504
1.40000504
1.40000504
1.40000504
1.40000504
1.40000504
1.40000504
1.40000504
1.40000504
1.40000504
1.40000504
1.40000504
1.40000504
1.40000504
1.40000504
1.40000504
1.40000504
1.40000504
1.40000504
1.40000504
1.40000504
1.40000504
1.40000504
1.40000504
1.40000504
1.400005041
1.400005047
1.400005079
1.400005241
1.400005971
1.400008907
1.40001969
1.400053639
1.40015586
1.400427966
1.40107472
1.402473705
1.40542104
1.410503972
1.419530898
1.432904414
1.452719298
1.479088669
1.509953626
1.546142708
1.587154783
1.626779163
1.664430467
1.700018624
1.726856299
1.752914988
1.777221518
1.795223319
1.805957804
1.811912646
1.819223724
1.823639007
1.824816302
1.826784967
1.82818771
1.40000504
1.40000504
1.40000504
1.40000504
1.40000504
1.40000504
1.40000504
1.40000504
1.40000504
1.40000504
1.40000504
1.40000504
1.40000504
1.40000504
1.40000504
1.40000504
1.40000504
1.40000504
1.40000504
1.40000504
1.40000504
1.40000504
1.40000504
1.40000504
1.40000504
1.40000504
1.40000504
1.40000504
1.40000504
1.40000504
1.40000504
1.40000504
1.40000504
1.40000504
1.40000504
1.40000504
1.400005041
1.400005043
1.400005059
1.40000514
1.400005533
1.400007199
1.400013474
1.400034536
1.400100668
1.400278582
1.400738228
1.401752305
1.40396812
1.407948114
1.415275441
1.426479125
1.44400293
1.46607839
1.496198102
1.531798329
1.570624104
1.606620927
1.644884543
1.68276498
1.717882279
1.738425866
1.756139984
1.774409998
1.785664924
1.792041188
1.799963801
1.40000504
1.40000504
1.40000504
1.40000504
1.40000504
1.40000504
1.40000504
1.40000504
1.40000504
1.40000504
1.40000504
1.40000504
1.40000504
1.40000504
1.40000504
1.40000504
1.40000504
1.40000504
1.40000504
1.40000504
1.40000504
1.40000504
1.40000504
1.40000504
1.40000504
1.40000504
1.40000504
1.40000504
1.40000504
1.40000504
1.40000504
1.40000504
1.40000504
1.40000504
1.40000504
1.40000504
1.40000504
1.40000504
1.40000504
1.40000504
1.40000504
1.400005042
1.400005049
1.400005091
1.400005302
1.400006225
1.400009891
1.400022888
1.400064994
1.400183019
1.400504915
1.401236954
1.402886204
1.405991654
1.411943254
1.421224535
1.436286377
1.456290718
1.484103317
1.516240909
1.553328988
1.592479298
1.6322882
1.669151214
1.70608406
1.731354723
1.756662794
1.40000504
1.40000504
1.40000504
1.40000504
1.40000504
1.40000504
1.40000504
1.40000504
1.40000504
1.40000504
1.40000504
1.40000504
1.40000504
1.40000504
1.40000504
1.40000504
1.40000504
1.40000504
1.40000504
1.40000504
1.40000504
1.40000504
1.40000504
1.40000504
1.40000504
1.40000504
1.40000504
1.40000504
1.40000504
1.40000504
1.40000504
1.40000504
1.40000504
1.40000504
1.40000504
1.40000504
1.40000504
1.40000504
1.40000504
1.40000504
1.40000504
1.40000504
1.40000504
1.40000504
1.40000504
1.400005041
1.400005044
1.400005066
1.400005176
1.400005693
1.400007842
1.400015842
1.40004246
1.400122463
1.400339721
1.400876366
1.402092442
1.404568262
1.409103302
1.417261952
1.429478448
1.448064142
1.471804758
1.502618577
1.538750039
1.578361268
1.61588694
1.40000504
1.40000504
1.40000504
1.40000504
1.40000504
1.40000504
1.40000504
1.40000504
1.40000504
1.40000504
1.40000504
1.40000504
1.40000504
1.40000504
1.40000504
1.40000504
1.40000504
1.40000504
1.40000504
1.40000504
1.40000504
1.40000504
1.40000504
1.40000504
1.40000504
1.40000504
1.40000504
1.40000504
1.40000504
1.40000504
1.40000504
1.40000504
1.40000504
1.40000504
1.40000504
1.40000504
1.40000504
1.40000504
1.40000504
1.40000504
1.40000504
1.40000504
1.40000504
1.40000504
1.40000504
1.40000504
1.40000504
1.40000504
1.40000504
1.40000504
1.400005042
1.400005053
1.400005112
1.400005405
1.400006647
1.400011559
1.40002834
1.400082444
1.40023015
1.400624584
1.401506332
1.403463159
1.407001626
1.413868998
1.424023324
1.441537552
1.458814859
1.40000504
1.40000504
1.40000504
1.40000504
1.40000504
1.40000504
1.40000504
1.40000504
1.40000504
1.40000504
1.40000504
1.40000504
1.40000504
1.40000504
1.40000504
1.40000504
1.40000504
1.40000504
1.40000504
1.40000504
1.40000504
1.40000504
1.40000504
1.40000504
1.40000504
1.40000504
1.40000504
1.40000504
1.40000504
1.40000504
1.40000504
1.40000504
1.40000504
1.40000504
1.40000504
1.40000504
1.40000504
1.40000504
1.40000504
1.40000504
1.40000504
1.40000504
1.40000504
1.40000504
1.40000504
1.40000504
1.40000504
1.40000504
1.40000504
1.40000504
1.40000504
1.40000504
1.40000504
1.40000504
1.400005041
1.400005047
1.400005078
1.400005242
1.400005971
1.400009001
1.400019718
1.400055888
1.400157029
1.400446859
1.401066077
1.40294217
1.404262482
1.40000504
1.40000504
1.40000504
1.40000504
1.40000504
1.40000504
1.40000504
1.40000504
1.40000504
1.40000504
1.40000504
1.40000504
1.40000504
1.40000504
1.40000504
1.40000504
1.40000504
1.40000504
1.40000504
1.40000504
1.40000504
1.40000504
1.40000504
1.40000504
1.40000504
1.40000504
1.40000504
1.40000504
1.40000504
1.40000504
1.40000504
1.40000504
1.40000504
1.40000504
1.40000504
1.40000504
1.40000504
1.40000504
1.40000504
1.40000504
1.40000504
1.40000504
1.40000504
1.40000504
1.40000504
1.40000504
1.40000504
1.40000504
1.40000504
1.40000504
1.40000504
1.40000504
1.40000504
1.40000504
1.40000504
1.40000504
1.40000504
1.40000504
1.400005041
1.400005043
1.40000506
1.400005155
1.400005574
1.40000755
1.40001351
1.400068788
1.400031153
1.40000504
1.40000504
1.40000504
1.40000504
1.40000504
1.40000504
1.40000504
1.40000504
1.40000504
1.40000504
1.40000504
1.40000504
1.40000504
1.40000504
1.40000504
1.40000504
1.40000504
1.40000504
1.40000504
1.40000504
1.40000504
1.40000504
1.40000504
1.40000504
1.40000504
1.40000504
1.40000504
1.40000504
1.40000504
1.40000504
1.40000504
1.40000504
1.40000504
1.40000504
1.40000504
1.40000504
1.40000504
1.40000504
1.40000504
1.40000504
1.40000504
1.40000504
1.40000504
1.40000504
1.40000504
1.40000504
1.40000504
1.40000504
1.40000504
1.40000504
1.40000504
1.40000504
1.40000504
1.40000504
1.40000504
1.40000504
1.40000504
1.40000504
1.40000504
1.40000504
1.40000504
1.40000504
1.40000504
1.400005042
1.400005049
1.400005375
1.400004976
1.40000504
1.40000504
1.40000504
1.40000504
1.40000504
1.40000504
1.40000504
1.40000504
1.40000504
1.40000504
1.40000504
1.40000504
1.40000504
1.40000504
1.40000504
1.40000504
1.40000504
1.40000504
1.40000504
1.40000504
1.40000504
1.40000504
1.40000504
1.40000504
1.40000504
1.40000504
1.40000504
1.40000504
1.40000504
1.40000504
1.40000504
1.40000504
1.40000504
1.40000504
1.40000504
1.40000504
1.40000504
1.40000504
1.40000504
1.40000504
1.40000504
1.40000504
1.40000504
1.40000504
1.40000504
1.40000504
1.40000504
1.40000504
1.40000504
1.40000504
1.40000504
1.40000504
1.40000504
1.40000504
1.40000504
1.40000504
1.40000504
1.40000504
1.40000504
1.40000504
1.40000504
1.40000504
1.40000504
1.40000504
1.40000504
1.400005041
1.400005031
1.40000504
1.40000504
1.40000504
1.40000504
1.40000504
1.40000504
1.40000504
1.40000504
1.40000504
1.40000504
1.40000504
1.40000504
1.40000504
1.40000504
1.40000504
1.40000504
1.40000504
1.40000504
1.40000504
1.40000504
1.40000504
1.40000504
1.40000504
1.40000504
1.40000504
1.40000504
1.40000504
1.40000504
1.40000504
1.40000504
1.40000504
1.40000504
1.40000504
1.40000504
1.40000504
1.40000504
1.40000504
1.40000504
1.40000504
1.40000504
1.40000504
1.40000504
1.40000504
1.40000504
1.40000504
1.40000504
1.40000504
1.40000504
1.40000504
1.40000504
1.40000504
1.40000504
1.40000504
1.40000504
1.40000504
1.40000504
1.40000504
1.40000504
1.40000504
1.40000504
1.40000504
1.40000504
1.40000504
1.40000504
1.40000504
1.40000504
1.40000504
1.40000504
1.40000504
1.40000504
1.40000504
1.40000504
1.40000504
1.40000504
1.40000504
1.40000504
1.40000504
1.40000504
1.40000504
1.40000504
1.40000504
1.40000504
1.40000504
1.40000504
1.40000504
1.40000504
1.40000504
1.40000504
1.40000504
1.40000504
1.40000504
1.40000504
1.40000504
1.40000504
1.40000504
1.40000504
1.40000504
1.40000504
1.40000504
1.40000504
1.40000504
1.40000504
1.40000504
1.40000504
1.40000504
1.40000504
1.40000504
1.40000504
1.40000504
1.40000504
1.40000504
1.40000504
1.40000504
1.40000504
1.40000504
1.40000504
1.40000504
1.40000504
1.40000504
1.40000504
1.40000504
1.40000504
1.40000504
1.40000504
1.40000504
1.40000504
1.40000504
1.40000504
1.40000504
1.40000504
1.40000504
1.40000504
1.40000504
1.40000504
1.40000504
1.40000504
1.40000504
1.40000504
1.40000504
1.40000504
1.40000504
1.40000504
1.40000504
1.40000504
1.40000504
1.40000504
1.40000504
1.40000504
1.40000504
1.40000504
1.40000504
1.40000504
1.40000504
1.40000504
1.40000504
1.40000504
1.40000504
1.40000504
1.40000504
1.40000504
1.40000504
1.40000504
1.40000504
1.40000504
1.40000504
1.40000504
1.40000504
1.40000504
1.40000504
1.40000504
1.40000504
1.40000504
1.40000504
1.40000504
1.40000504
1.40000504
1.40000504
1.40000504
1.40000504
1.40000504
1.40000504
1.40000504
1.40000504
1.40000504
1.40000504
1.40000504
1.40000504
1.40000504
1.40000504
1.40000504
1.40000504
1.40000504
1.40000504
1.40000504
1.40000504
1.40000504
1.40000504
1.40000504
1.40000504
1.40000504
1.40000504
1.40000504
1.40000504
1.40000504
1.40000504
1.40000504
1.40000504
1.40000504
1.40000504
1.40000504
1.40000504
1.40000504
1.40000504
1.40000504
1.40000504
1.40000504
1.40000504
1.40000504
1.40000504
1.40000504
1.40000504
1.40000504
1.40000504
1.40000504
1.40000504
1.40000504
1.40000504
1.40000504
1.40000504
1.40000504
1.40000504
1.40000504
1.40000504
1.40000504
1.40000504
1.40000504
1.40000504
1.40000504
1.40000504
1.40000504
1.40000504
1.40000504
1.40000504
1.40000504
1.40000504
1.40000504
1.40000504
1.40000504
1.40000504
1.40000504
1.40000504
1.40000504
1.40000504
1.40000504
1.40000504
1.40000504
1.40000504
1.40000504
1.40000504
1.40000504
1.40000504
1.40000504
1.40000504
1.40000504
1.40000504
1.40000504
1.40000504
1.40000504
1.40000504
1.40000504
1.40000504
1.40000504
1.40000504
1.40000504
1.40000504
1.40000504
1.40000504
1.40000504
1.40000504
1.40000504
1.40000504
1.40000504
1.40000504
1.40000504
1.40000504
1.40000504
1.40000504
1.40000504
1.40000504
1.40000504
1.40000504
1.40000504
1.40000504
1.40000504
1.40000504
1.40000504
1.40000504
1.40000504
1.40000504
1.40000504
1.40000504
1.40000504
1.40000504
1.40000504
1.40000504
1.40000504
1.40000504
1.40000504
1.40000504
1.40000504
1.40000504
1.40000504
1.40000504
1.40000504
1.40000504
1.40000504
1.40000504
1.40000504
1.40000504
1.40000504
1.40000504
1.40000504
1.40000504
1.40000504
1.40000504
1.40000504
1.40000504
1.40000504
1.40000504
1.40000504
1.40000504
1.40000504
1.40000504
1.40000504
1.40000504
1.40000504
1.40000504
1.40000504
1.40000504
1.40000504
1.40000504
1.40000504
1.40000504
1.40000504
1.40000504
1.40000504
1.40000504
1.40000504
1.40000504
1.40000504
1.40000504
1.40000504
1.40000504
1.40000504
1.40000504
1.40000504
1.40000504
1.40000504
1.40000504
1.40000504
1.40000504
1.40000504
1.40000504
1.40000504
1.40000504
1.40000504
1.40000504
1.40000504
1.40000504
1.40000504
1.40000504
1.40000504
1.40000504
1.40000504
1.40000504
1.40000504
1.40000504
1.40000504
1.40000504
1.40000504
)
;

boundaryField
{
    inlet
    {
        type            calculated;
        value           nonuniform 0();
    }
    outlet
    {
        type            calculated;
        value           nonuniform 0();
    }
    bottom
    {
        type            calculated;
        value           nonuniform 0();
    }
    top
    {
        type            calculated;
        value           nonuniform 0();
    }
    obstacle
    {
        type            calculated;
        value           nonuniform List<scalar> 
93
(
1.809117918
1.807725864
1.807820526
1.808906322
1.809930476
1.810510164
1.811110514
1.812353276
1.814657364
1.817416896
1.81981127
1.82174538
1.82378266
1.825844134
1.826728143
1.826867561
1.82687095
1.826643726
1.826501555
1.826067254
1.825431262
1.824636896
1.823890949
1.823692448
1.823663097
1.823665865
1.823797932
1.824030961
1.82423824
1.824284937
1.824254836
1.824141736
1.824041167
1.824028782
1.824146875
1.824502538
1.824813635
1.824793462
1.824637552
1.824357042
1.824119123
1.824044939
1.824016383
1.824108907
1.824422249
1.824536841
1.824472548
1.824305563
1.824074623
1.823944062
1.823910898
1.823909285
1.824030301
1.824241233
1.824251506
1.824168391
1.824030852
1.823912336
1.823874778
1.823859493
1.823879502
1.824009755
1.824115585
1.824097334
1.824045755
1.823998592
1.823984822
1.809117471
1.807725891
1.807820683
1.808906786
1.80993073
1.810510139
1.8111103
1.812353166
1.814657462
1.817416883
1.819811131
1.821745362
1.823782696
1.825844134
1.826728092
1.82686755
1.826870961
1.826643779
1.826501667
1.82606716
1.825431131
1.82463664
1.823890834
1.823692549
1.823663209
1.823666023
)
;
    }
    defaultFaces
    {
        type            empty;
    }
    procBoundary20to13
    {
        type            processor;
        value           nonuniform List<scalar> 2(1.82643292 1.811799161);
    }
    procBoundary20to14
    {
        type            processor;
        value           nonuniform List<scalar> 
28
(
1.837138926
1.835320995
1.8333865
1.831634894
1.829697821
1.82770642
1.825475293
1.819656328
1.819656328
1.820170656
1.820617589
1.82053279
1.820453528
1.820631082
1.820634572
1.820361445
1.819724096
1.81950756
1.81982687
1.820984753
1.822389043
1.822803351
1.822859568
1.822974309
1.823168238
1.823352995
1.823515949
1.823798174
)
;
    }
    procBoundary20to19
    {
        type            processor;
        value           nonuniform List<scalar> 
33
(
1.811799336
1.826432571
1.837151776
1.853827741
1.853636867
1.789747543
1.641487769
1.464844264
1.404596767
1.400068518
1.400005164
1.40000504
1.40000504
1.40000504
1.40000504
1.40000504
1.40000504
1.40000504
1.40000504
1.40000504
1.40000504
1.40000504
1.40000504
1.40000504
1.40000504
1.40000504
1.40000504
1.40000504
1.40000504
1.40000504
1.40000504
1.40000504
1.40000504
)
;
    }
    procBoundary20to25
    {
        type            processor;
        value           nonuniform List<scalar> 2(1.40000504 1.40000504);
    }
    procBoundary20to26
    {
        type            processor;
        value           nonuniform List<scalar> 
69
(
1.40000504
1.40000504
1.40000504
1.40000504
1.40000504
1.40000504
1.40000504
1.40000504
1.40000504
1.40000504
1.40000504
1.40000504
1.40000504
1.40000504
1.40000504
1.40000504
1.40000504
1.40000504
1.40000504
1.40000504
1.40000504
1.40000504
1.40000504
1.40000504
1.40000504
1.40000504
1.40000504
1.40000504
1.40000504
1.40000504
1.40000504
1.40000504
1.40000504
1.40000504
1.40000504
1.40000504
1.40000504
1.40000504
1.40000504
1.40000504
1.40000504
1.40000504
1.40000504
1.40000504
1.40000504
1.40000504
1.40000504
1.40000504
1.40000504
1.40000504
1.40000504
1.40000504
1.40000504
1.40000504
1.40000504
1.40000504
1.40000504
1.40000504