/*--------------------------------*- C++ -*----------------------------------*\
  =========                 |
  \\      /  F ield         | OpenFOAM: The Open Source CFD Toolbox
   \\    /   O peration     | Website:  https://openfoam.org
    \\  /    A nd           | Version:  7
     \\/     M anipulation  |
\*---------------------------------------------------------------------------*/
FoamFile
{
    version     2.0;
    format      ascii;
    class       volScalarField;
    location    "3.7";
    object      T;
}
// * * * * * * * * * * * * * * * * * * * * * * * * * * * * * * * * * * * * * //

dimensions      [0 0 0 1 0 0 0];

internalField   nonuniform List<scalar> 5(1.038449286 1.031915442 1.038088608 1.031270332 1.03544553);

boundaryField
{
    inlet
    {
        type            fixedValue;
        value           nonuniform 0();
    }
    outlet
    {
        type            inletOutlet;
        inletValue      uniform 1;
        value           nonuniform List<scalar> 2(1.03194828 1.031269089);
    }
    bottom
    {
        type            slip;
    }
    top
    {
        type            slip;
    }
    obstacle
    {
        type            zeroGradient;
    }
    defaultFaces
    {
        type            empty;
    }
    procBoundary29to22
    {
        type            processor;
        value           nonuniform List<scalar> 3(1.049059658 1.046595309 1.041188696);
    }
    procBoundary29to23
    {
        type            processor;
        value           nonuniform List<scalar> 2(1.038370762 1.031952932);
    }
    procBoundary29to35
    {
        type            processor;
        value           nonuniform List<scalar> 3(1.028862414 1.028862414 1.032360084);
    }
}


// ************************************************************************* //
