/*--------------------------------*- C++ -*----------------------------------*\
  =========                 |
  \\      /  F ield         | OpenFOAM: The Open Source CFD Toolbox
   \\    /   O peration     | Website:  https://openfoam.org
    \\  /    A nd           | Version:  7
     \\/     M anipulation  |
\*---------------------------------------------------------------------------*/
FoamFile
{
    version     2.0;
    format      ascii;
    class       volScalarField;
    location    "4.4";
    object      T;
}
// * * * * * * * * * * * * * * * * * * * * * * * * * * * * * * * * * * * * * //

dimensions      [0 0 0 1 0 0 0];

internalField   nonuniform List<scalar> 
22
(
1.040543352
1.044773302
1.046409612
1.034247305
1.040883297
1.04207029
1.033187405
1.02757594
1.038140399
1.038439403
1.030186803
1.016526401
1.035190784
1.035789613
1.028340706
0.9980436038
1.016804762
1.022581664
0.9654365821
0.9793800042
1.002180174
0.9774885562
)
;

boundaryField
{
    inlet
    {
        type            fixedValue;
        value           nonuniform 0();
    }
    outlet
    {
        type            inletOutlet;
        inletValue      nonuniform 0();
        value           nonuniform 0();
    }
    bottom
    {
        type            slip;
    }
    top
    {
        type            slip;
    }
    obstacle
    {
        type            zeroGradient;
    }
    defaultFaces
    {
        type            empty;
    }
    procBoundary28to21
    {
        type            processor;
        value           nonuniform List<scalar> 2(1.015255575 0.9983978534);
    }
    procBoundary28to22
    {
        type            processor;
        value           nonuniform List<scalar> 3(1.047052479 1.047909306 1.04901622);
    }
    procBoundary28to27
    {
        type            processor;
        value           nonuniform List<scalar> 6(0.9805590973 0.9587132742 0.9690379629 0.9690379629 0.960354864 0.9993369175);
    }
    procBoundary28to29
    {
        type            processor;
        value           nonuniform List<scalar> 7(1.037000897 1.037000897 1.032833664 1.028071243 1.025336758 1.025285415 1.013386244);
    }
    procBoundary28to34
    {
        type            processor;
        value           nonuniform List<scalar> 4(0.9743919056 0.9769761362 0.9743919056 1.006775028);
    }
}


// ************************************************************************* //
