/*--------------------------------*- C++ -*----------------------------------*\
  =========                 |
  \\      /  F ield         | OpenFOAM: The Open Source CFD Toolbox
   \\    /   O peration     | Website:  https://openfoam.org
    \\  /    A nd           | Version:  7
     \\/     M anipulation  |
\*---------------------------------------------------------------------------*/
FoamFile
{
    version     2.0;
    format      ascii;
    class       volScalarField;
    location    "4";
    object      p;
}
// * * * * * * * * * * * * * * * * * * * * * * * * * * * * * * * * * * * * * //

dimensions      [1 -1 -2 0 0 0 0];

internalField   nonuniform List<scalar> 
2225
(
0.505476654
0.5037571537
0.4983717335
0.4947453572
0.4934275696
0.4899525425
0.4853508018
0.4843332653
0.4828884284
0.4779268381
0.4741747689
0.4736820041
0.4715217688
0.4670086033
0.462471378
0.5807770038
0.5899568682
0.5860311162
0.5767809563
0.5703353326
0.5673868602
0.5616132213
0.5569374517
0.554120863
0.5477186036
0.5401518729
0.5387898537
0.536299747
0.5299227821
0.5267705564
0.5241540362
0.5179285356
0.5141332166
0.5128991415
0.5092085554
0.5038184434
0.5019920565
0.4996745005
0.4945010956
0.492344712
0.491260285
0.4876832099
0.4820190875
0.4809285848
0.4799058623
0.4770028602
0.4717798151
0.4802408159
0.6013808
0.5987795362
0.5922930501
0.5828761873
0.5788057157
0.5741352084
0.5683075293
0.5652644537
0.5607846065
0.5518211275
0.548143272
0.5464774631
0.5410856244
0.5355793787
0.5335690853
0.5290941085
0.5226289798
0.5212864468
0.5193112112
0.5139931105
0.5106668731
0.5087583195
0.5042486536
0.5002464007
0.4992256065
0.4970610418
0.4910535281
0.4880689689
0.4873831153
0.4851643953
0.4808342404
0.4799283242
0.612695306
0.610173378
0.6068625071
0.5982139619
0.5907395171
0.5861663614
0.5800788087
0.5763219342
0.5732698514
0.56569391
0.557891606
0.5563618959
0.5531821938
0.5465413931
0.5439447434
0.5412200066
0.5341334429
0.5301383251
0.5288222629
0.524784593
0.5196990137
0.5175606847
0.5141698143
0.5087310787
0.5071419614
0.5058900081
0.5013780748
0.496056654
0.4949472776
0.4933219814
0.4899916946
0.4854876677
0.6272434997
0.6211798385
0.6191571981
0.6134933707
0.604457207
0.5986252234
0.5924408123
0.5871140148
0.5844161835
0.5794221561
0.5700466112
0.5662917444
0.5639566421
0.5576942323
0.5530096732
0.5509268072
0.5456707687
0.5384967625
0.5370939506
0.534946378
0.5295279604
0.5262331366
0.5238173642
0.518439793
0.5148393176
0.5138658529
0.5112033121
0.5050546764
0.5025222047
0.5012585598
0.4986210137
0.4934500452
0.6453983611
0.6330440903
0.6299587553
0.6270447643
0.6197078129
0.6121622393
0.605552974
0.5981896612
0.5949290753
0.5920121129
0.5843402925
0.5767168136
0.5742865071
0.5698024389
0.5635292381
0.5612976601
0.5580899114
0.5498660634
0.5459811887
0.5448007732
0.5406613508
0.5354177499
0.5329390819
0.5287808659
0.5229443965
0.5214419904
0.5200205716
0.5151741358
0.5105220945
0.5089272001
0.5068508492
0.5019288249
0.6626813718
0.6496071277
0.6410889173
0.6387760561
0.6337361851
0.6259812141
0.6192217832
0.6110017445
0.6052708154
0.602990747
0.5980864159
0.589019159
0.5846839596
0.5811529124
0.5744698799
0.5708350809
0.5684850558
0.562130627
0.5543567773
0.5528614333
0.5505026834
0.5448182496
0.5415924851
0.5390286678
0.5330666675
0.5292425693
0.5283144399
0.5253453983
0.5196392124
0.5168237236
0.5149915619
0.5103311136
0.6777478954
0.6685171838
0.6548582113
0.6494695783
0.6461345885
0.6399574877
0.6333735045
0.6254604034
0.615998549
0.6129223184
0.6103953502
0.6032440918
0.5958276391
0.5920080094
0.5861442516
0.5808581702
0.5788860849
0.5750395101
0.5658496281
0.562031772
0.560718311
0.5561622455
0.5509039061
0.5485266056
0.5441148922
0.5374158667
0.5357507337
0.5343302634
0.5296010132
0.5250878816
0.5231266051
0.5187395191
0.6906878754
0.6847612534
0.672913987
0.6616463373
0.6574798048
0.6526771782
0.6466836145
0.6400959456
0.629822195
0.6226736034
0.6208271134
0.6164319827
0.608306037
0.6030974282
0.5979237628
0.5911518415
0.5883440357
0.5857813006
0.5786630155
0.5709793201
0.5693148983
0.5663489824
0.5600808801
0.5571344836
0.5546091953
0.5480827092
0.5434061035
0.5426141034
0.5398901408
0.5343609097
0.5311992263
0.5268198681
0.7019147797
0.6981652548
0.6909792361
0.6780593864
0.6688138017
0.6639540542
0.6589983614
0.6540292141
0.646030547
0.6340180831
0.6301402473
0.6279402892
0.6218200308
0.6149448883
0.6097336889
0.6024597185
0.5976787289
0.5958776062
0.5917243896
0.5825636136
0.5787241991
0.5767854574
0.5714530816
0.5668039756
0.5646665749
0.5600554759
0.5523529846
0.5501223693
0.5487390546
0.544401163
0.5400198299
0.5350749047
0.7139776757
0.7098643429
0.7055487872
0.6962113893
0.6835921502
0.6755321587
0.6703911406
0.6662160547
0.6606566212
0.649680434
0.6401515258
0.6381038081
0.6342280256
0.6271805837
0.6214689448
0.6148680541
0.6075805525
0.6050863667
0.6025340517
0.5953916577
0.5882690822
0.585842783
0.5816416868
0.5754266558
0.5731020333
0.5705048514
0.563208203
0.5576963132
0.5569466952
0.5544032228
0.549773098
0.5436026553
0.7304401161
0.7206715878
0.7172472922
0.7120387769
0.7016777387
0.689461667
0.6812781037
0.6769741284
0.6733516161
0.6663402667
0.6533827219
0.6475289515
0.6451528581
0.6397452177
0.6335893776
0.6277336512
0.6190255776
0.613792477
0.6122151724
0.6081522175
0.5998914993
0.5955232633
0.5922244653
0.5859067772
0.582468355
0.5807124102
0.5757760307
0.5672971876
0.5648731776
0.5631831853
0.5593797001
0.5525745773
0.7513146497
0.735216303
0.7283092819
0.7249217878
0.7182357584
0.7067014449
0.6946231202
0.6876634111
0.6844910529
0.680115845
0.6700410843
0.6585757846
0.6552600396
0.6513491869
0.6453135867
0.639985005
0.6325810304
0.6235758056
0.6209319716
0.6186825999
0.6122249718
0.6056542544
0.602024715
0.5962342079
0.590435242
0.5885906081
0.5858292542
0.578168311
0.5725543816
0.5714663364
0.5690058597
0.5621602032
0.7708680516
0.7558505205
0.7408748601
0.7358054015
0.7317672175
0.7240376509
0.7118836994
0.699720991
0.6943398661
0.6914933919
0.6858010843
0.673681011
0.6654513293
0.6617689869
0.6564719096
0.651575283
0.6463380497
0.6364731137
0.6291549643
0.6276906088
0.6240931922
0.6171454498
0.6123127147
0.607421688
0.6002666434
0.597362835
0.595727469
0.5907303805
0.5824649999
0.5797831073
0.5779448054
0.5716160237
0.7867204969
0.7765391716
0.7597975849
0.7476186139
0.743488816
0.7385789679
0.7295317149
0.71636374
0.7054615956
0.7017384995
0.6984040793
0.6901805759
0.6786216147
0.6724411876
0.6671392791
0.6620412023
0.6579935629
0.6510003716
0.6400063586
0.6361964894
0.6341673633
0.6286093929
0.6225876827
0.6180527053
0.6111133085
0.6054089925
0.6037203084
0.6008086933
0.593233822
0.5874484918
0.585835966
0.5807051912
0.7990407347
0.7930086298
0.7813735046
0.7644333916
0.7545355324
0.750364924
0.7446620219
0.7349670416
0.7210429684
0.7115530223
0.7086230433
0.7042619252
0.6947805384
0.6850408519
0.6778495773
0.6716977243
0.6682223126
0.6641867322
0.6546693618
0.6449375944
0.6429970766
0.6396475147
0.6335258341
0.6287676225
0.6231160904
0.6149809336
0.6119374038
0.6104915584
0.6058366901
0.5980116496
0.5946719329
0.5895776488
0.8113735362
0.8066094844
0.7995126136
0.7858431075
0.7695330095
0.7615427108
0.7571710359
0.7507594083
0.7397796752
0.7255002042
0.7185236494
0.7156364777
0.7096487905
0.7000915419
0.690797158
0.6822772874
0.677779303
0.6750433535
0.6691240841
0.6573839492
0.6517738971
0.6494990199
0.644342654
0.6389337975
0.6343725284
0.626763116
0.6198771202
0.618225969
0.6156665523
0.6088063891
0.6033095895
0.5977059652
0.8270181516
0.8178230364
0.8129223253
0.804745197
0.7901626009
0.7748325798
0.7677953875
0.7632590342
0.7565030892
0.744445093
0.7304122431
0.7252657174
0.7216603592
0.7150549268
0.7061381675
0.6953373789
0.6870086993
0.6843793351
0.6813232227
0.6728790649
0.6620088271
0.6586616811
0.6547518387
0.648991702
0.6449630951
0.6395981338
0.6300921191
0.6256958515
0.6245157081
0.6205936745
0.6143947256
0.6069779954
0.8506261661
0.8323056722
0.8249594267
0.8198657095
0.8103284552
0.7943865283
0.7802536601
0.7743039726
0.7698370172
0.7620523234
0.7481628817
0.7361284498
0.7320153184
0.7276855864
0.7208204671
0.7111174715
0.6992917989
0.6935536933
0.6914732917
0.6866596149
0.6759318736
0.6687621111
0.6648020797
0.6589620247
0.6544606089
0.6506782842
0.6431163607
0.6340463467
0.6319937077
0.6298580754
0.6247435478
0.6160704721
0.8722829616
0.8535919209
0.8371281111
0.8310450779
0.8253859003
0.8148294706
0.7984235945
0.7854669158
0.7804402456
0.77580262
0.7669678645
0.7521789356
0.7420366889
0.737977047
0.7333220717
0.7264690109
0.7155762162
0.7039087303
0.7002389661
0.697709229
0.690836119
0.6812221369
0.6752633371
0.66903768
0.6633432442
0.6604786865
0.6560489753
0.6460076999
0.6393609101
0.6379986229
0.635048392
0.6266950825
0.8888240499
0.8770518202
0.8570953784
0.8428857284
0.8378262937
0.8316764158
0.8195924044
0.802348697
0.7913585041
0.7872152699
0.7819798708
0.7711759597
0.7563761713
0.7481964211
0.7440668826
0.7391967393
0.7314997051
0.7192252437
0.7096654011
0.7071118127
0.7032364787
0.6950170471
0.6873238625
0.6803208413
0.6727635591
0.669313802
0.666558316
0.6597860695
0.6491377956
0.6458230717
0.6440082317
0.6365089414
0.9000968767
0.8936920539
0.8801064854
0.8598618338
0.8480515618
0.8433025191
0.8363011638
0.8231709265
0.8061837989
0.7971867322
0.7932453606
0.787077743
0.775199036
0.7613765085
0.7538063573
0.7494719987
0.7445783633
0.7362875654
0.7230342938
0.7156186778
0.7129970321
0.7077850845
0.7005147071
0.6930910659
0.6836573433
0.6775338701
0.6756054896
0.6721017069
0.6627848195
0.6542331323
0.6523353795
0.6463641546
0.9112231664
0.9059984523
0.8988940767
0.8835988632
0.8633831085
0.8539546695
0.8494713009
0.8416730198
0.826951722
0.8105966336
0.8035520734
0.7995132743
0.792086213
0.7792875956
0.7663763716
0.7592393147
0.7552647569
0.7501716087
0.7402343332
0.7271422866
0.7219521922
0.7184596912
0.7127584867
0.7060939727
0.697213794
0.6873498869
0.6839378782
0.6819213583
0.6762687922
0.6657966715
0.6612646333
0.6554670794
0.9298884413
0.9165245497
0.9114696712
0.9030043309
0.8859804932
0.8668923884
0.8591485512
0.8543058119
0.8454542396
0.8299429988
0.8149476246
0.8091048061
0.8045026858
0.7963571497
0.7837672053
0.7709102936
0.7642712935
0.7607729617
0.7553443509
0.7439449959
0.7320159087
0.7274215003
0.7232183154
0.7180605562
0.7113783796
0.7006415126
0.6921008739
0.6901130038
0.6873844554
0.6795421332
0.6717504535
0.6645097967
0.9561293238
0.9329734081
0.9219992432
0.9168238116
0.9073119384
0.8889436178
0.8712280524
0.8648676573
0.8599254176
0.8501290477
0.8334150826
0.8199229883
0.8148760426
0.8099018929
0.80110232
0.7877244118
0.7750844337
0.770052488
0.7668628795
0.7600408665
0.7472200859
0.7374934383
0.7328183566
0.7284863557
0.7234619715
0.7155515232
0.7039574594
0.6980387544
0.6963319451
0.6917199903
0.6838407108
0.6743592611
0.977259558
0.958367281
0.9363709906
0.9272372407
0.9216750309
0.9107856684
0.8915724757
0.8755680465
0.8699529646
0.864426042
0.8535090432
0.8364300566
0.8243659444
0.8196442244
0.8143390718
0.8052547526
0.7911617278
0.7794785821
0.7757343911
0.7721202975
0.7639095824
0.751537899
0.742762815
0.7374715658
0.7333670733
0.7285013515
0.719496916
0.7076372939
0.70395207
0.7015411511
0.6960373978
0.6853266109
0.9912987566
0.9808115821
0.9605470484
0.9399829971
0.9322677958
0.9263689867
0.91449883
0.8946482203
0.880367405
0.8755002521
0.8697332388
0.8576716769
0.8398868793
0.8294026493
0.8251921775
0.819689628
0.8094006047
0.7941879465
0.7847111111
0.7817278996
0.7771397755
0.7676028792
0.7561873427
0.7474353959
0.7422498143
0.7387389586
0.7333055497
0.7223298726
0.7124776923
0.7100272865
0.7067048665
0.6966094903
1.002404664
0.9958007789
0.984095441
0.9626061665
0.943727761
0.9371028996
0.9307051635
0.9175726778
0.89749478
0.8850441565
0.8805074033
0.8739220574
0.8605990133
0.8431494739
0.8341736087
0.8299987106
0.8239099763
0.8126949557
0.7975543872
0.789950849
0.7866987963
0.7810224576
0.7717673568
0.7607648167
0.751225216
0.7468407316
0.743823301
0.7375917793
0.7251706917
0.7180103051
0.7157473132
0.707551695
1.018447598
1.006955634
1.000108934
0.9870940477
0.9646757821
0.9477473995
0.9418875186
0.9349578538
0.9206733469
0.9005561473
0.8900343018
0.8857637064
0.8786060576
0.8641319668
0.8472457443
0.8395848561
0.8354933688
0.8288504119
0.8162055413
0.8015152868
0.7953273904
0.7915541425
0.7853336833
0.7761322688
0.764178125
0.7552046446
0.7523682971
0.7492077564
0.7407258793
0.7285496446
0.7246434697
0.7176663184
1.044881016
1.021059762
1.011388759
1.004120332
0.9897404735
0.9668611776
0.9520517545
0.9466327224
0.9389044009
0.9232550571
0.9037356726
0.8948809643
0.8903852729
0.8821488015
0.8670051591
0.8512321821
0.8443122232
0.8399962399
0.8326945242
0.8193399638
0.8056330927
0.7999154203
0.795593268
0.789521527
0.7801900215
0.7670862657
0.759714049
0.7576557932
0.753617077
0.7429405889
0.7345595864
0.7268870149
1.068955236
1.045690529
1.023837863
1.01554293
1.007741019
0.9920766052
0.9693522592
0.956592936
0.9512439711
0.9426462249
0.9259059329
0.9073517169
0.8996714555
0.8949515543
0.8862007911
0.8706406012
0.8554805301
0.8493938708
0.8452520851
0.8372972405
0.8228257361
0.8100974441
0.804688561
0.8004527434
0.7942716052
0.783420483
0.7700496069
0.7652247982
0.7632781175
0.7569786058
0.7469860142
0.7366408131
1.084413808
1.070656151
1.046425681
1.02668732
1.019351559
1.010959325
0.994174341
0.9721172557
0.9610617768
0.9555664259
0.9460680875
0.9285274127
0.91102522
0.9041252821
0.8990886778
0.8896558347
0.8736240723
0.8592165519
0.8539521228
0.8495631329
0.8406713384
0.8260321418
0.814334431
0.8090976093
0.80486258
0.7983383026
0.7862343488
0.7737498712
0.7707525396
0.7677033882
0.7602939664
0.7476397771
1.095607369
1.087163813
1.072077712
1.04721605
1.029592156
1.022878477
1.013857124
0.9961096008
0.9749123101
0.9652104677
0.9595792923
0.9493935502
0.9312743552
0.9147578761
0.9085715163
0.9034463046
0.8935280994
0.8766958181
0.8633543372
0.8590213521
0.854441939
0.8446314275
0.8298231489
0.8188563145
0.814000892
0.8099412784
0.8024994914
0.7885368998
0.7786604425
0.776363934
0.7720780791
0.7596471319
1.111327123
1.098536192
1.089725581
1.073324543
1.048222753
1.032593887
1.026223997
1.01652288
0.9978252526
0.9774976352
0.9690665356
0.9633661286
0.95249976
0.9338147169
0.9185139524
0.9130391143
0.9075848258
0.8967184883
0.8793688755
0.8675571509
0.8635342947
0.8581628322
0.8476643995
0.8333051962
0.822802323
0.8184071834
0.8142802231
0.8057446345
0.7910749938
0.7841741153
0.7815218055
0.7713357859
1.137984748
1.112601295
1.101368042
1.09213827
1.074504461
1.049532039
1.035715518
1.029476584
1.018988567
0.9992319642
0.9800113565
0.9728148192
0.9669871748
0.9553216932
0.9362776545
0.9225038136
0.9174882736
0.9116764395
0.8999695746
0.8825142747
0.8720496311
0.8681237054
0.8623384982
0.8515949152
0.8369568845
0.8270462133
0.8234959988
0.8191958472
0.8085645351
0.7947376918
0.7905229377
0.7821158657
1.162596401
1.137736961
1.114070707
1.104140935
1.094430865
1.07562525
1.051110327
1.038991884
1.032688081
1.02122186
1.000469089
0.9827579354
0.9765063019
0.9703105213
0.9577832767
0.9387915835
0.926445219
0.9216422032
0.9153195332
0.902846637
0.8855706135
0.8763345868
0.8721330841
0.8658592619
0.8548255833
0.839900472
0.8310849667
0.8280964589
0.8228735463
0.8103387468
0.8008125323
0.7917482923
1.178510689
1.163281796
1.137601195
1.115841711
1.106845507
1.096525152
1.076577394
1.052960722
1.042374652
1.035783314
1.023228792
1.00191238
0.9858044098
0.9799851665
0.9733318185
0.9601014066
0.9413726556
0.9300991845
0.9254877989
0.9188997576
0.9056841121
0.8889821472
0.8805402622
0.876361279
0.8700517888
0.8584512979
0.8430502385
0.8359515426
0.8332720773
0.8262320328
0.8148699988
0.8023213814
1.191379752
1.18024891
1.163959715
1.137775542
1.117873513
1.109397587
1.098309866
1.077406395
1.055100432
1.045646424
1.03863134
1.02514467
1.003726675
0.9888472636
0.9832400355
0.976200593
0.9624381787
0.9437166428
0.9334806552
0.9291324861
0.9220925808
0.9083180363
0.8921032005
0.8846728585
0.8803394214
0.8736589275
0.8612146344
0.8460320023
0.8408647858
0.8372827306
0.8293720772
0.8145861034
1.211086081
1.193207492
1.182036281
1.164685421
1.138277969
1.120043703
1.111719461
1.09983154
1.078335345
1.057323841
1.048604826
1.041241215
1.027084623
1.00563384
0.9918029133
0.9864633672
0.9791567755
0.964611166
0.9459278058
0.9368203695
0.9326915891
0.9251626807
0.9105512667
0.8957474183
0.8886454941
0.8844364067
0.8775789203
0.8638173806
0.8500645377
0.846076419
0.8417406376
0.8281595876
1.237846296
1.211285414
1.194998158
1.183633617
1.165303774
1.139035957
1.122220992
1.11388682
1.101351044
1.079424402
1.059389301
1.051302381
1.0437359
1.028945057
1.00743817
0.9949044326
0.9898574764
0.982065201
0.9666164342
0.9480583434
0.9403603637
0.9360787208
0.9276897607
0.9132508298
0.8987898351
0.8924896405
0.888220927
0.8806206716
0.8659299066
0.8545775736
0.8510214192
0.8402092918
1.237086168
1.211488618
1.196463323
1.184885562
1.165820692
1.139965703
1.124430127
1.116146058
1.103029907
1.080484009
1.061351216
1.053973133
1.046163098
1.030564408
1.009372149
0.9982701008
0.9932353143
0.9848201585
0.968303971
0.9506936662
0.9437506698
0.9393220796
0.9303900009
0.9152638506
0.9023677063
0.8961045813
0.8919833421
0.8835006129
0.8683459009
0.8607297652
0.8509867392
1.258829316
1.236270873
1.2114709
1.197538764
1.185846177
1.166254817
1.140964235
1.126798748
1.118562301
1.104677368
1.081416655
1.063562311
1.056744542
1.048464603
1.032094272
1.011649334
1.001566483
0.9963414486
0.9872609379
0.9702489123
0.9531442465
0.9474517392
0.9423761906
0.9325369594
0.918372927
0.9050392031
0.899943505
0.895209817
0.8850581148
0.8734927181
0.8610826973
1.273917998
1.258488723
1.235246177
1.211307136
1.19845549
1.186708088
1.166576823
1.142057655
1.129261183
1.120858918
1.106028218
1.082534333
1.066139283
1.059520356
1.050659087
1.033785337
1.014014614
1.004484009
0.9991696593
0.989654398
0.9717608125
0.9564256966
0.9506774116
0.9455692845
0.9353545337
0.9200491856
0.9092044437
0.9033157247
0.8977926042
0.8885861701
0.873245942
1.289099389
1.27390149
1.258050708
1.234227005
1.211327906
1.199461645
1.187462952
1.166690639
1.143162102
1.131463778
1.122743747
1.107208194
1.084064255
1.068850527
1.062190874
1.052877769
1.035594327
1.016106846
1.007244898
1.001905011
0.9918321103
0.9738117895
0.9589786142
0.954865375
0.9483223914
0.9372607884
0.9240423971
0.9120686761
0.9069709045
0.9006896661
0.8859346253
1.310446657
1.28830588
1.273764231
1.257589082
1.23342488
1.211749588
1.200450152
1.18795347
1.166623049
1.144124849
1.133212902
1.124315767
1.108477081
1.085769736
1.071412367
1.064825503
1.055130699
1.037284841
1.01818706
1.010024631
1.004673087
0.9939218353
0.9750891349
0.9633992964
0.9576277767
0.9515122658
0.9401888295
0.9259891863
0.9173641728
0.9101457393
0.8971681021
1.332055362
1.308526055
1.287525955
1.273719845
1.257255548
1.232989136
1.212273334
1.201224859
1.188222907
1.16654411
1.144868314
1.134691985
1.125835729
1.109731526
1.087224268
1.073930734
1.067449416
1.057310602
1.038886731
1.020499533
1.012994769
1.007235889
0.9958397109
0.9779783874
0.9659484296
0.9618353906
0.9532760454
0.9424946042
0.9312300458
0.9201512076
0.9077619515
1.348675357
1.330323468
1.306847559
1.287043649
1.273689853
1.256904895
1.232479303
1.212621931
1.201829577
1.188544367
1.166505023
1.145581145
1.136201532
1.127318162
1.110641841
1.088516873
1.076434459
1.069952441
1.059219534
1.040673023
1.023073717
1.015825876
1.009945156
0.9977044864
0.9803167843
0.9704680837
0.9632250668
0.9568982596
0.9441684447
0.9324760325
0.9224365628
1.364113814
1.34753654
1.328934577
1.305601644
1.286625925
1.27353232
1.256281808
1.231753562
1.212865575
1.202575091
1.188978529
1.166531043
1.14650204
1.137778857
1.12854951
1.111199967
1.089856007
1.078800841
1.07208906
1.060996177
1.04245535
1.025894716
1.01880851
1.012134119
1.000244075
0.9837182016
0.9729363033
0.9667495694
0.954719502
0.9449364226
0.9452555526
1.382822174
1.363270389
1.346969478
1.328001929
1.304493859
1.286187408
1.273085947
1.255353594
1.230836915
1.213339856
1.203379686
1.189376686
1.166658095
1.147744217
1.139233231
1.129483735
1.111705949
1.09123704
1.080839924
1.073906808
1.062545568
1.044710059
1.028759966
1.021581218
1.014307114
1.001693585
0.9879788736
0.9747196497
0.9644296494
0.9598359259
0.9784801574
1.40193795
1.381676971
1.362651278
1.346414849
1.326899038
1.303422471
1.285651672
1.272536933
1.2542605
1.230269531
1.213890473
1.204065251
1.189601169
1.167083787
1.148980748
1.140497436
1.130281076
1.112261512
1.092663389
1.082697352
1.075554381
1.063927229
1.046853256
1.03245022
1.02343461
1.015558444
1.002404556
0.9872996324
0.9808449376
0.9818439627
1.035574512
1.417723796
1.400352157
1.380281581
1.361807848
1.345595627
1.325784231
1.302492901
1.285380226
1.2720217
1.25347165
1.229982051
1.21438616
1.204430059
1.189809479
1.167497891
1.15019396
1.141627691
1.131014446
1.112959695
1.094592436
1.084599514
1.076658304
1.065214127
1.049161541
1.035704062
1.024061579
1.01305783
1.005945277
1.008416426
1.023562653
1.134994579
1.431855537
1.416024997
1.398627357
1.378655044
1.36059635
1.344511724
1.324622286
1.301931597
1.28521781
1.271762173
1.25304316
1.229983321
1.214627103
1.204736132
1.189887299
1.167974755
1.151307037
1.14263368
1.131736357
1.114270236
1.096908568
1.086477107
1.077020603
1.065927775
1.050463627
1.035217369
1.027648006
1.030269721
1.051198378
1.109706205
1.266139255
1.445133973
1.430160718
1.414254528
1.396555942
1.376691594
1.35913986
1.343282974
1.323601452
1.301497104
1.285300306
1.271759584
1.252935764
1.229953762
1.215108463
1.204935336
1.189885156
1.168304368
1.152632194
1.14360889
1.132223117
1.116255298
1.099305693
1.087786198
1.076510001
1.063182927
1.053871186
1.05574357
1.072512614
1.140731277
1.253908196
1.378385763
1.455449485
1.443865323
1.42862072
1.412469277
1.39456613
1.374783172
1.357610405
1.341950083
1.322496274
1.301068339
1.285289637
1.271755029
1.25274909
1.230466051
1.215784493
1.205026803
1.189573563
1.169434865
1.153822386
1.144491128
1.132502006
1.11744798
1.101014642
1.086340158
1.079047058
1.081005692
1.103329447
1.166341118
1.278882498
1.413601201
1.44981694
1.460775928
1.453897594
1.442199124
1.426947985
1.410688745
1.392521012
1.372886236
1.356083486
1.340552509
1.321256685
1.300495391
1.285243662
1.271454099
1.252772215
1.231386297
1.216452519
1.205028768
1.189506876
1.170929221
1.155584464
1.144379525
1.131751601
1.115711087
1.104473973
1.106759579
1.126433651
1.197801695
1.320835236
1.420072087
1.487012652
1.481863527
1.461624813
1.459422338
1.452401123
1.440364651
1.425086051
1.408828338
1.390720655
1.371345305
1.354705488
1.339019988
1.319998584
1.299956227
1.284778153
1.270906442
1.252623508
1.232689446
1.217042129
1.205159286
1.189897176
1.172231207
1.156128387
1.142642858
1.133066487
1.135140067
1.158700216
1.225638864
1.350737643
1.471848908
1.517248308
1.513279868
1.493808671
1.46024077
1.461279144
1.458900984
1.451063001
1.438602431
1.423235966
1.407096249
1.38901514
1.369863282
1.353364295
1.337625925
1.318758426
1.29952317
1.28392561
1.270131474
1.252501977
1.233702202
1.218163637
1.204797086
1.188938754
1.171198068
1.159617899
1.163065275
1.184277996
1.264180986
1.396968661
1.489654286
1.559442335
1.558937217
1.543066896
1.504895103
1.461517022
1.460899917
1.458495927
1.45591611
1.449042352
1.436654469
1.421287846
1.405045764
1.38737002
1.368832798
1.352216849
1.336390429
1.317704274
1.298961544
1.283130787
1.268941167
1.252204896
1.234451387
1.217545249
1.202822944
1.191380653
1.193958068
1.221559393
1.296191468
1.418767335
1.559068447
1.576103999
1.580308882
1.572040959
1.555614648
1.518229407
1.458353207
1.456535026
1.45803216
1.458898574
1.455791425
1.447618229
1.434844467
1.419392918
1.403636442
1.385862037
1.367828416
1.350965756
1.334973718
1.316693307
1.298553456
1.282295095
1.267509387
1.250118447
1.232684453
1.221437797
1.226417379
1.252943302
1.339933972
1.479916735
1.572140707
1.63787295
1.635153639
1.610911484
1.580631131
1.560709607
1.52188478
1.441947006
1.45002021
1.460613485
1.460283979
1.458631163
1.454331122
1.445976591
1.433385054
1.417963483
1.401725665
1.384144032
1.366336002
1.34957267
1.333559277
1.315688138
1.29804091
1.280301276
1.264325225
1.25364796
1.258409671
1.292271234
1.381489197
1.50371792
1.63716376
1.651252922
1.650728189
1.645832834
1.630302824
1.602485284
1.574850136
1.527956832
1.416034113
1.454750949
1.459368797
1.457612563
1.458249455
1.457775914
1.454100091
1.445485535
1.432274585
1.416310716
1.399844292
1.382009252
1.365079186
1.348159937
1.331891455
1.313409955
1.295123323
1.285435834
1.292301286
1.327984976
1.426009594
1.567463048
1.668370929
1.720789057
1.710404979
1.677927256
1.649780703
1.630750843
1.605743669
1.578419421
1.532973498
1.374010155
1.440739937
1.442112177
1.449612611
1.459244468
1.459403981
1.458289101
1.453652402
1.444400092
1.431046761
1.414554115
1.397742532
1.380546004
1.363659942
1.34578827
1.328264835
1.319679974
1.326775195
1.371004507
1.479274648
1.603893499
1.711511085
1.734806628
1.733409519
1.725265357
1.703794636
1.669474701
1.636267012
1.607717581
1.582112713
1.542283572
1.256030882
1.355177985
1.409055163
1.450324294
1.459256732
1.457577752
1.457346419
1.456740899
1.452630283
1.443286776
1.429213932
1.413067593
1.39629308
1.37819085
1.360326264
1.3537294
1.363941416
1.41619306
1.525808223
1.670950354
1.776214359
1.801147601
1.783911037
1.750871237
1.727748036
1.706743339
1.677572986
1.643525779
1.612340761
1.586458955
1.541485737
1.118262765
1.247644486
1.372918264
1.443356023
1.444733386
1.449527555
1.456135795
1.457602395
1.456094178
1.451172505
1.441669506
1.428162749
1.411084408
1.392804374
1.388676748
1.402383761
1.458991706
1.584703662
1.73261966
1.789162085
1.821996926
1.819641665
1.806465487
1.776026789
1.74011938
1.709113807
1.681387276
1.65162396
1.618936084
1.590867432
1.542934888
1.037561132
1.12551058
1.249681435
1.371280579
1.407775114
1.442535518
1.456443244
1.455271952
1.455729251
1.455158515
1.450641373
1.441265277
1.424679292
1.424180165
1.441483744
1.513750346
1.644107295
1.779313529
1.886819957
1.885535324
1.864441196
1.833876903
1.812224511
1.786098755
1.750877343
1.715515518
1.685623782
1.656143897
1.623764844
1.594895795
1.546106062
1.007889083
1.039839136
1.120880628
1.248920287
1.369282147
1.44013241
1.446340503
1.449111402
1.454267175
1.456058112
1.455051191
1.449790484
1.453551095
1.483809135
1.565724218
1.695496374
1.846981822
1.881336325
1.90942504
1.907585291
1.891348823
1.857563853
1.822486434
1.792422178
1.7612986
1.726223122
1.691920514
1.660371088
1.628658343
1.600079472
1.550565454
1.001103452
1.007862663
1.040110945
1.119810573
1.245702703
1.379792936
1.411362861
1.441640327
1.454217579
1.454401543
1.455981211
1.470321393
1.516803154
1.62551846
1.773562154
1.89318385
1.97877578
1.969211401
1.943654986
1.917116062
1.894852422
1.865897723
1.829483845
1.796386492
1.76592541
1.73285851
1.698049091
1.664952089
1.632486846
1.603886422
1.554704277
1.000101605
1.001055738
1.008513171
1.037403053
1.122874397
1.254276445
1.361681339
1.435690424
1.446560312
1.451335145
1.478563537
1.550025132
1.670813162
1.803356786
1.940988278
1.98323763
2.000207034
1.996938606
1.979855054
1.948555803
1.915960416
1.885917999
1.852546741
1.816981734
1.782962227
1.75004651
1.715994257
1.681220529
1.646485712
1.617036046
1.567828406
1.000006644
1.000094682
1.001199576
1.007589175
1.041350512
1.116408267
1.248250677
1.37223131
1.416650018
1.477727453
1.572188494
1.700185001
1.868418631
1.97679918
2.03929645
2.038268564
2.023144243
2.001736241
1.976249273
1.94400083
1.908872666
1.876157361
1.842717634
1.8073962
1.77250322
1.73872925
1.704640971
1.669981066
1.634984781
1.604922239
1.555041108
1.000000308
1.000006134
1.000109226
1.001086366
1.008652987
1.037901922
1.127650867
1.261862582
1.403960823
1.565922514
1.733828345
1.852024898
1.966063148
2.031357649
2.069154541
2.062876993
2.03897213
2.007973822
1.977528958
1.946084606
1.912327834
1.878194444
1.844047456
1.809026792
1.773536193
1.738468037
1.704049844
1.669714187
1.634896764
1.604527789
1.554183974
1.00000001
1.000000257
1.000006762
1.00009898
1.001213946
1.008722335
1.045971091
1.154342822
1.383758526
1.635615232
1.8494749
2.042904277
2.105254467
2.100557118
2.089953621
2.073384372
2.048796215
2.013501468
1.978075969
1.946233703
1.914226671
1.880258772
1.845788435
1.811128312
1.775475538
1.739317027
1.704304074
1.670139284
1.635654137
1.605228372
1.554461569
)
;

boundaryField
{
    inlet
    {
        type            fixedValue;
        value           nonuniform 0();
    }
    outlet
    {
        type            zeroGradient;
    }
    bottom
    {
        type            slip;
    }
    top
    {
        type            slip;
    }
    obstacle
    {
        type            zeroGradient;
    }
    defaultFaces
    {
        type            empty;
    }
    procBoundary35to29
    {
        type            processor;
        value           nonuniform List<scalar> 
33
(
0.4970910015
0.4938296636
0.4879425799
0.4862413248
0.484766438
0.480423967
0.4775030627
0.4765687005
0.4738256798
0.468323419
0.4665381289
0.4647610271
0.4610420537
0.4575952664
0.4580199384
0.9374306811
0.578177155
0.5712477815
0.5621409193
0.5593192361
0.5556427334
0.5490600887
0.5458567135
0.5424198805
0.5345535021
0.530411114
0.5288747395
0.5241882913
0.5185382598
0.5164773263
0.5125504467
0.5068128451
0.5068128451
)
;
    }
    procBoundary35to34
    {
        type            processor;
        value           nonuniform List<scalar> 
71
(
0.592920161
0.6062724121
0.6222983908
0.639518988
0.6560434286
0.6702089046
0.6825048167
0.694446166
0.7074762266
0.7255678743
0.7465655316
0.7648064406
0.779238324
0.7920110899
0.8042719931
0.8228636245
0.8465310486
0.8683065267
0.8828694702
0.8944558886
0.9062254855
0.9274094982
0.9536195236
0.9734377861
0.9866341318
0.9978667355
1.016035351
1.043790363
1.066868686
1.081443111
1.092624221
1.110151161
1.138003791
1.161693464
1.176782429
1.189782456
1.211141121
1.238602644
1.259319392
1.259038113
1.259038113
1.273890917