/*--------------------------------*- C++ -*----------------------------------*\
  =========                 |
  \\      /  F ield         | OpenFOAM: The Open Source CFD Toolbox
   \\    /   O peration     | Website:  https://openfoam.org
    \\  /    A nd           | Version:  7
     \\/     M anipulation  |
\*---------------------------------------------------------------------------*/
FoamFile
{
    version     2.0;
    format      ascii;
    class       volVectorField;
    location    "4.2";
    object      U;
}
// * * * * * * * * * * * * * * * * * * * * * * * * * * * * * * * * * * * * * //

dimensions      [0 1 -1 0 0 0 0];

internalField   nonuniform List<vector> 
138
(
(2.982429831 -0.005378106148 0)
(2.981115621 -0.005654501957 0)
(2.980116669 0.0003537247223 0)
(2.981225262 0.004973901293 0)
(2.98352935 0.001792254875 0)
(2.982278458 0.0008215493932 0)
(2.978129842 0.0004949165964 0)
(3.048009051 -0.01055800585 0)
(3.039552646 -0.003225296066 0)
(3.036824085 -0.00537970952 0)
(3.033982662 6.404641479e-05 0)
(3.033217856 0.002510464508 0)
(3.03461771 0.0001943041904 0)
(3.032979305 0.000165418375 0)
(3.028262899 -0.0005171000887 0)
(3.095509575 -0.0009407141819 0)
(3.093842163 -0.00216925713 0)
(3.090165438 -0.006716663691 0)
(3.086062593 -0.001057523458 0)
(3.083098185 0.0004183461857 0)
(3.08268115 -0.001733516334 0)
(3.079989505 -0.0008673131822 0)
(3.074998622 -0.001049128046 0)
(3.137218432 0.009403099199 0)
(3.136970255 -0.002711612214 0)
(3.13529339 -0.007690103614 0)
(3.130363355 -0.002014284828 0)
(3.126523851 -0.0009476558423 0)
(3.125063988 -0.002899991296 0)
(3.122030287 -0.0007671745908 0)
(3.117001049 -0.0002817475005 0)
(3.182882395 0.008982408838 0)
(3.17623336 -0.003139142222 0)
(3.173153431 -0.004653672034 0)
(3.167847072 0.0004420167728 0)
(3.165652028 -0.0004339593161 0)
(3.163377877 -0.002554733231 0)
(3.160191988 0.001999803727 0)
(3.155116893 0.002879129406 0)
(3.22997789 -0.004545360335 0)
(3.22088415 0.003583215697 0)
(3.211671475 -0.001336329847 0)
(3.207664437 -0.0008612113665 0)
(3.203568218 0.004881201829 0)
(3.202131441 0.003017144705 0)
(3.199394339 1.349583394e-05 0)
(3.195958827 0.003227635685 0)
(3.191001553 0.004241007205 0)
(3.25481286 -0.01283568977 0)
(3.249850176 -0.002664457736 0)
(3.242478546 0.0002603625735 0)
(3.24142308 0.001956145437 0)
(3.237804496 0.007199019652 0)
(3.235783056 0.005206141255 0)
(3.232781418 0.001513863257 0)
(3.22953025 0.001998161344 0)
(3.224457528 0.002915972231 0)
(3.277106313 -0.007578447819 0)
(3.273027211 -0.003363986496 0)
(3.273062251 -3.010701224e-06 0)
(3.271122884 -0.00105104149 0)
(3.265773929 0.004458626723 0)
(3.263670587 0.00283200935 0)
(3.261399341 -0.0003779156965 0)
(3.257925868 -0.0007069607382 0)
(3.25281876 0.0004205526593 0)
(3.295694902 0.003414821669 0)
(3.291482016 4.828704564e-05 0)
(3.292811811 -0.001799108279 0)
(3.289669276 -0.005413588352 0)
(3.286583222 -0.0007908036344 0)
(3.286141474 -0.0005596028405 0)
(3.284234189 -0.00322927915 0)
(3.281188306 -0.00270859598 0)
(3.276770117 -0.001682924716 0)
(3.304662168 0.01149784699 0)
(3.299362717 0.00184659547 0)
(3.299065078 -0.007118661149 0)
(3.298434917 -0.008495959317 0)
(3.297171767 -0.002076825454 0)
(3.298024252 -0.001445991706 0)
(3.296252286 -0.001636607615 0)
(3.294228158 -0.0003772597944 0)
(3.290818185 -0.0005395873513 0)
(3.296548772 0.009670619711 0)
(3.292384542 -0.0006051083444 0)
(3.293269578 -0.007186014366 0)
(3.295190124 -0.003345262875 0)
(3.294332841 0.001939976817 0)
(3.29478609 0.0006269145821 0)
(3.293884214 0.001228901117 0)
(3.292258039 0.002430395273 0)
(3.289509342 0.001448264234 0)
(3.275619109 0.003539314768 0)
(3.274807535 0.002152083462 0)
(3.276510179 -0.004278291183 0)
(3.278331684 -0.001831444873 0)
(3.278831089 0.002686023862 0)
(3.279997843 0.0007241302264 0)
(3.279796009 -0.0002192139308 0)
(3.278022949 0.0005426978851 0)
(3.2767764 0.001158485407 0)
(3.253304387 -0.01135436195 0)
(3.24992494 0.002792886153 0)
(3.252648729 0.009230219962 0)
(3.256921482 0.005348246453 0)
(3.25896354 0.005988998176 0)
(3.258727187 0.003816255216 0)
(3.260362382 -0.00267860347 0)
(3.261066006 -0.00104349526 0)
(3.259611111 0.003860819001 0)
(3.258635552 -0.0005939554712 0)
(3.229486838 -0.01149862159 0)
(3.229694029 -0.003924966865 0)
(3.234575564 0.005296101638 0)
(3.240510807 0.007606162528 0)
(3.242501227 0.005022572322 0)
(3.242503501 0.005186956351 0)
(3.245384259 0.0008921246673 0)
(3.246574322 0.001635200853 0)
(3.244564769 0.003030379572 0)
(3.244728778 0.001347614152 0)
(3.212990904 -7.882076852e-05 0)
(3.219935627 -0.001827686528 0)
(3.226873755 -0.002463685399 0)
(3.232122451 -0.0007533330529 0)
(3.234293508 -0.0009960211741 0)
(3.234729794 0.001689011145 0)
(3.236158227 0.0004972326746 0)
(3.237370944 -0.0001472043929 0)
(3.237353483 -0.0008877686876 0)
(3.205734798 0.01178011164 0)
(3.215678181 0.001216914395 0)
(3.221489204 -0.009059031218 0)
(3.228317172 -0.008612714468 0)
(3.231057548 -0.005516336021 0)
(3.232492246 -0.002674919519 0)
(3.232161025 -0.0005354803305 0)
)
;

boundaryField
{
    inlet
    {
        type            fixedValue;
        value           nonuniform 0();
    }
    outlet
    {
        type            inletOutlet;
        inletValue      nonuniform 0();
        value           nonuniform 0();
    }
    bottom
    {
        type            slip;
    }
    top
    {
        type            slip;
    }
    obstacle
    {
        type            slip;
    }
    defaultFaces
    {
        type            empty;
    }
    procBoundary16to10
    {
        type            processor;
        value           nonuniform List<vector> 9((2.926739721 -0.005394079698 0) (2.930629228 -0.005448867583 0) (2.930662628 0.0006601542217 0) (2.932856263 0.005347339819 0) (2.934948913 0.002354215745 0) (2.933785448 0.003461267204 0) (2.931144303 0.004898517475 0) (2.984599853 -0.01020609997 0) (2.984599853 -0.01020609997 0));
    }
    procBoundary16to11
    {
        type            processor;
        value           uniform (2.973236432 0.0005945940812 0);
    }
    procBoundary16to15
    {
        type            processor;
        value           nonuniform List<vector> 
16
(
(3.050978297 -0.01817904939 0)
(3.099442019 -0.002893093337 0)
(3.145900862 0.008513092733 0)
(3.194138193 0.006008702677 0)
(3.194138193 0.006008702677 0)
(3.230263743 -0.0258691906 0)
(3.256016575 -0.0301919771 0)
(3.281421018 -0.01884907769 0)
(3.30293123 -0.001018591205 0)
(3.311060694 0.01139671828 0)
(3.301863808 0.004880387533 0)
(3.279659171 -0.003391184793 0)
(3.279659171 -0.003391184793 0)
(3.26257627 -0.02400388615 0)
(3.2323668 -0.01657753563 0)
(3.208993559 0.002267738181 0)
)
;
    }
    procBoundary16to17
    {
        type            processor;
        value           nonuniform List<vector> 
15
(
(3.021948595 -0.000800142702 0)
(3.0685806 -0.0007514197513 0)
(3.110392068 -4.02783243e-05 0)
(3.14894813 0.0004892839823 0)
(3.184617104 0.001145826798 0)
(3.217576541 0.0009743533882 0)
(3.247457265 -7.103335347e-05 0)
(3.27405137 -0.000153424442 0)
(3.289648721 0.0009478599047 0)
(3.289691155 0.002403934222 0)
(3.278277979 -0.001032280923 0)
(3.262866207 -0.002447823708 0)
(3.25091816 -0.0001469001704 0)
(3.237533776 0.001233909426 0)
(3.237533776 0.001233909426 0)
)
;
    }
    procBoundary16to21
    {
        type            processor;
        value           uniform (3.197035645 0.01208192468 0);
    }
    procBoundary16to22
    {
        type            processor;
        value           nonuniform List<vector> 10((3.23335725 -0.001851541011 0) (3.235088837 -0.003114626232 0) (3.205143334 0.009768992925 0) (3.213228329 0.0005490685656 0) (3.21884368 -0.008931451775 0) (3.227153401 -0.006267211528 0) (3.229745913 -0.006017386647 0) (3.232027023 -0.003148538885 0) (3.23335725 -0.001851541011 0) (3.233414657 -0.000356462062 0));
    }
}


// ************************************************************************* //
