/*--------------------------------*- C++ -*----------------------------------*\
  =========                 |
  \\      /  F ield         | OpenFOAM: The Open Source CFD Toolbox
   \\    /   O peration     | Website:  https://openfoam.org
    \\  /    A nd           | Version:  7
     \\/     M anipulation  |
\*---------------------------------------------------------------------------*/
FoamFile
{
    version     2.0;
    format      ascii;
    class       volScalarField;
    location    "0.5";
    object      rho;
}
// * * * * * * * * * * * * * * * * * * * * * * * * * * * * * * * * * * * * * //

dimensions      [1 -3 0 0 0 0 0];

internalField   nonuniform List<scalar> 5(1.383358331 1.26473525 1.39619208 1.290764127 1.40455534);

boundaryField
{
    inlet
    {
        type            calculated;
        value           nonuniform 0();
    }
    outlet
    {
        type            calculated;
        value           nonuniform 0();
    }
    bottom
    {
        type            calculated;
        value           nonuniform 0();
    }
    top
    {
        type            calculated;
        value           nonuniform 0();
    }
    obstacle
    {
        type            calculated;
        value           nonuniform 0();
    }
    defaultFaces
    {
        type            empty;
    }
    procBoundary10to4
    {
        type            processor;
        value           uniform 1.321042097;
    }
    procBoundary10to15
    {
        type            processor;
        value           nonuniform List<scalar> 4(1.230396428 1.230396428 1.163741476 1.18821067);
    }
    procBoundary10to16
    {
        type            processor;
        value           nonuniform List<scalar> 2(1.301665343 1.402506911);
    }
    procBoundary10to17
    {
        type            processor;
        value           nonuniform List<scalar> 3(1.380609814 1.383111465 1.377338278);
    }
}


// ************************************************************************* //
