/*--------------------------------*- C++ -*----------------------------------*\
  =========                 |
  \\      /  F ield         | OpenFOAM: The Open Source CFD Toolbox
   \\    /   O peration     | Website:  https://openfoam.org
    \\  /    A nd           | Version:  7
     \\/     M anipulation  |
\*---------------------------------------------------------------------------*/
FoamFile
{
    version     2.0;
    format      ascii;
    class       volScalarField;
    location    "1.8";
    object      rho;
}
// * * * * * * * * * * * * * * * * * * * * * * * * * * * * * * * * * * * * * //

dimensions      [1 -3 0 0 0 0 0];

internalField   nonuniform List<scalar> 
2222
(
2.205624566
2.111943387
2.033475495
1.961859687
1.891598056
1.821283258
1.764513755
1.713982337
1.663976465
1.619419511
1.578683533
1.538676153
1.498741822
1.465266493
1.433054888
1.399143403
1.365403197
1.400006022
1.411451222
1.855799106
2.906769117
3.222770159
3.262503626
3.266808079
3.273889006
3.278319023
3.27067253
3.245533617
3.173701742
3.080146268
2.962038977
2.810838933
2.677517169
2.566306615
2.444813434
2.334900626
2.243412112
2.158222981
2.065869489
1.988253299
1.918660053
1.851161835
1.782185374
1.726608763
1.677500024
1.629542238
1.585973937
1.546237373
1.507332931
1.468438196
1.435823193
1.404710291
1.372377052
1.339588113
1.400066623
1.479433713
2.366184108
3.087807762
3.246670879
3.2876567
3.29218018
3.285978849
3.28220774
3.272561995
3.226010794
3.138814722
3.035724158
2.912077678
2.757407824
2.623346206
2.513179588
2.393796803
2.284193489
2.194317019
2.11108833
2.020538142
1.943341611
1.875564161
1.810697599
1.743319523
1.688900328
1.641376098
1.595181137
1.552667017
1.514015603
1.476517536
1.438953432
1.407053279
1.376815099
1.345619118
1.313673033
1.401851714
1.736685213
2.851673583
3.231842279
3.296429488
3.305562441
3.300254568
3.281626412
3.278753006
3.259461312
3.200670368
3.100301169
2.987258985
2.858797945
2.702237281
2.56861397
2.459634707
2.343199644
2.233911113
2.145459067
2.063960404
1.975315924
1.898462269
1.832659609
1.770197461
1.704646972
1.651495759
1.605397088
1.561149785
1.519597719
1.481919811
1.445528258
1.408976202
1.377938443
1.348858005
1.319281604
1.288643853
1.431528888
2.199967558
3.16356446
3.250114001
3.291552977
3.304355003
3.300376589
3.288770773
3.282973935
3.246833074
3.1728066
3.059181311
2.937017541
2.80444846
2.646384417
2.513083424
2.405045481
2.291495048
2.182738388
2.096049781
2.016152007
1.92966089
1.853170524
1.789223385
1.729061666
1.665840005
1.614040185
1.569355751
1.526569126
1.486116414
1.449563202
1.41441765
1.379171695
1.349021912
1.320980282
1.292435409
1.262416421
1.638419373
2.719029005
3.293468355
3.297331403
3.295631389
3.304517975
3.300192234
3.289444519
3.274480084
3.226874971
3.140578837
3.014087048
2.883396134
2.747444122
2.588724599
2.456175167
2.349136475
2.23889362
2.130826495
2.045482667
1.967217018
1.883388387
1.807266286
1.745251219
1.687437968
1.626619122
1.576100589
1.532945449
1.49217144
1.453064343
1.417520832
1.383326798
1.349142718
1.320103447
1.293346037
1.266218701
1.237670944
2.090921849
3.117467179
3.33616256
3.331783987
3.319931202
3.311181364
3.299750404
3.287667751
3.261841708
3.20091114
3.101853609
2.963337615
2.825443581
2.687766248
2.529580639
2.397983133
2.29234918
2.185557845
2.078387628
1.994703791
1.918371242
1.837256936
1.761610582
1.701557537
1.646214847
1.58823735
1.538969942
1.497236344
1.457942759
1.419848594
1.38524825
1.352175086
1.319184767
1.290739866
1.264624241
1.238522724
1.211048084
2.645909134
3.304665434
3.322541504
3.315335506
3.304918908
3.297904322
3.291049291
3.27955721
3.243963627
3.17017415
3.058999973
2.909745897
2.766191774
2.627750166
2.470573607
2.339945832
2.235792028
2.132442691
2.026306386
1.943654081
1.868956493
1.790811738
1.716028903
1.657970691
1.605018219
1.549628233
1.501712321
1.461594856
1.424091628
1.387401534
1.353903003
1.32189653
1.290076608
1.262590871
1.237640976
1.212763983
1.186357149
3.219706768
3.378561319
3.361190591
3.32485653
3.293414615
3.28392589
3.282141339
3.270923782
3.223773446
3.135934974
3.012490068
2.85316027
2.704726932
2.56632518
2.410970776
2.281471656
2.178522125
2.078011622
1.973181192
1.892005265
1.819102869
1.743729569
1.670112536
1.61419189
1.563707439
1.511422367
1.465097337
1.426478344
1.390416301
1.354856997
1.3221187
1.290631134
1.25955534
1.232671886
1.208656157
1.185100308
1.160055229
3.312101464
3.373784414
3.364588402
3.336360036
3.306165326
3.292439128
3.287987459
3.267697374
3.200890593
3.096173492
2.959025132
2.78969488
2.637734327
2.500272836
2.34814591
2.220784108
2.119915894
2.022606027
1.919345476
1.838987346
1.768041542
1.69611302
1.624236459
1.570422401
1.522370561
1.47289476
1.428018025
1.391084479
1.356773613
1.322630295
1.291168031
1.261044675
1.231327505
1.205138327
1.181743692
1.159071599
1.135253427
3.338329432
3.335617931
3.337168121
3.332770943
3.328562115
3.322420452
3.310971933
3.27040262
3.175999309
3.051421861
2.89981334
2.720814116
2.566348689
2.431433471
2.283859228
2.158825246
2.060495023
1.966713865
1.865620934
1.786395045
1.71736911
1.648399235
1.578191966
1.526463684
1.480815796
1.434395407
1.391411768
1.356030101
1.322729359
1.289338384
1.258423929
1.228880362
1.200059095
1.174676689
1.152779333
1.131906167
1.109568649
3.326445823
3.321168491
3.323692646
3.326751864
3.329354031
3.329264636
3.312247245
3.254641432
3.143288604
3.002318375
2.838772735
2.652153445
2.495587155
2.362081167
2.218733437
2.096230421
2.000601774
1.910537158
1.812188587
1.733841374
1.666892209
1.601242232
1.533221916
1.483404564
1.440086038
1.396393519
1.354947066
1.321128913
1.289398866
1.257886414
1.228213968
1.199252484
1.171178526
1.146762298
1.125689201
1.105540532
1.084320297
3.317347051
3.322848185
3.323935007
3.323863583
3.325366395
3.321383783
3.295698313
3.225985006
3.099226018
2.946376369
2.776495648
2.586771107
2.428931272
2.29616778
2.156012136
2.034286146
1.940411753
1.853422519
1.757989535
1.681398991
1.617041122
1.554455809
1.488386305
1.440456213
1.399421844
1.358325051
1.318379629
1.285434931
1.254627819
1.223960119
1.194851521
1.167146863
1.140707311
1.117440414
1.097815515
1.079197458
1.059597095
3.323119185
3.326539752
3.324845763
3.32417591
3.322707529
3.310981813
3.270745452
3.184511608
3.042440067
2.881703625
2.711020248
2.522263485
2.364846336
2.232804225
2.094771183
1.973330732
1.880005629
1.794639482
1.701949947
1.627325201
1.566105492
1.507057003
1.443769992
1.398063774
1.359324778
1.32078451
1.282809919
1.251544705
1.222019362
1.192443624
1.164281439
1.137616543
1.111989296
1.089373096
1.070977518
1.053767589
1.035047598
3.329805245
3.326256313
3.325591449
3.325351057
3.320716926
3.298188901
3.241486995
3.136938801
2.978821519
2.810929595
2.640141659
2.453574857
2.298097515
2.167781047
2.032940498
1.911648946
1.818610188
1.734061225
1.643661274
1.571480116
1.514086811
1.459056135
1.39895041
1.355330259
1.318343802
1.281357366
1.244374664
1.214077882
1.185898765
1.158059728
1.13158876
1.106461626
1.082519646
1.061869819
1.044925641
1.028642634
1.011001303
3.327436248
3.325286619
3.326936733
3.326315238
3.31793838
3.284615877
3.210582074
3.086599145
2.9112012
2.734510511
2.562630948
2.37803428
2.225025108
2.098298549
1.967931621
1.848152848
1.756446496
1.673442234
1.585444203
1.514987965
1.461148535
1.410253408
1.354081635
1.313360763
1.27915335
1.244711808
1.209424214
1.179878932
1.15270158
1.125836007
1.100048239
1.076365674
1.054341704
1.034673942
1.018388105
1.003110391
0.9873866306
3.323101965
3.326477258
3.328346733
3.326725948
3.313450929
3.267316429
3.174602412
3.030870919
2.839334112
2.65442943
2.479547979
2.295297913
2.145342949
2.022896502
1.898760629
1.782277489
1.693507437
1.613459767
1.528632289
1.460120086
1.409531131
1.362296289
1.309373847
1.270216535
1.237310787
1.204554432
1.170728586
1.142634577
1.117241442
1.092068928
1.068272865
1.047049213
1.026579491
1.007448482
0.9929469584
0.9796747321
0.9648456785
3.324243988
3.328771275
3.329128596
3.325792481
3.305872302
3.243790197
3.130471542
2.968001827
2.761798383
2.569329721
2.393017052
2.209760684
2.061819696
1.943604616
1.825936437
1.714175182
1.630212077
1.55517038
1.474934879
1.408652591
1.360428948
1.315972821
1.267521617
1.231088329
1.200054253
1.168805862
1.136569472
1.109147896
1.083839094
1.060039455
1.038212284
1.01745497
0.9978757341
0.9815040352
0.9682615923
0.9549374318
0.9402644307
3.328236328
3.329574459
3.329653268
3.323785711
3.294033849
3.212402451
3.077127156
2.895986601
2.677475684
2.480673312
2.303801417
2.122042758
1.977470546
1.863202611
1.751869646
1.645401357
1.566816586
1.497427548
1.42307261
1.360253567
1.313383204
1.269802728
1.223302479
1.187711834
1.158827295
1.13045526
1.100253816
1.074158996
1.050954248
1.02907614
1.008180597
0.9892395023
0.9721521676
0.9567849392
0.9437896266
0.9310731308
0.9189487798
3.32954743
3.330384303
3.330003554
3.319469444
3.276381194
3.171778949
3.013189377
2.81514341
2.58658276
2.386705745
2.212092177
2.034659374
1.893575311
1.783431454
1.67780324
1.576356527
1.503459766
1.440206915
1.372596962
1.314043629
1.270316816
1.228610679
1.184224694
1.149536403
1.121750453
1.09494764
1.065936483
1.040954528
1.019113077
0.9981424277
0.9785366911
0.9619154198
0.9457266427
0.9299449508
0.919000954
0.908982795
0.8968176471
3.329137659
3.331293485
3.329427279
3.311511401
3.251356541
3.120712496
2.938646623
2.724850808
2.489119649
2.289509136
2.118340054
1.94583912
1.810307637
1.70501869
1.605200141
1.508557023
1.440861014
1.382875952
1.320332974
1.265106503
1.22332819
1.183176573
1.140889989
1.107727571
1.082286985
1.057810999
1.030962377
1.008266988
0.9879387484
0.9684074017
0.9508630239
0.9350750696
0.9198991301
0.9074095523
0.897481192
0.8866980777
0.8740339268
3.329990598
3.332199122
3.327258585
3.298611338
3.217201293
3.057944911
2.852912806
2.626365103
2.386389471
2.188491652
2.022393115
1.857347948
1.727811347
1.627974575
1.533697635
1.441586502
1.379174073
1.326292643
1.270605954
1.220453113
1.181274514
1.142518436
1.101876443
1.069643503
1.044799816
1.021151332
0.9957859449
0.9744411225
0.9558180105
0.9386411271
0.9227822811
0.9080902771
0.894376949
0.8818833679
0.8720893074
0.8625393679
0.8536041356
3.332090193
3.332336351
3.322007074
3.278750637
3.171902933
2.982572941
2.756514965
2.520017777
2.279044385
2.085538748
1.925599763
1.767922087
1.645481488
1.551778232
1.46389389
1.377534002
1.317681878
1.266142291
1.214131826
1.167162203
1.13210493
1.097723124
1.060779131
1.030957443
1.007971289
0.9856895247
0.9617455077
0.9421676472
0.925751208
0.9103744319
0.8951876107
0.8821677998
0.8702340466
0.8591280584
0.8511631097
0.8434375246
0.8335705688
3.333384818
3.330680115
3.312075302
3.250144482
3.113887327
2.894206194
2.650154644
2.407442396
2.168381942
1.980617936
1.827733528
1.679258129
1.563981828
1.476532318
1.3951825
1.315482232
1.260796266
1.213087513
1.164760731
1.120174314
1.08746491
1.055940941
1.021897349
0.9936835019
0.9717077126
0.9504317177
0.9273889365
0.9089518456
0.8949064714
0.8813775236
0.8680547178
0.8564400218
0.8456064415
0.8352565603
0.8275949924
0.8197990137
0.8106356896
3.332429092
3.326288417
3.297122809
3.21121942
3.042060835
2.79328998
2.534695753
2.289152664
2.055174272
1.874961591
1.730528544
1.590582239
1.482999487
1.402678244
1.326391345
1.249648667
1.197039674
1.153036926
1.109171682
1.067841569
1.040013847
1.01364671
0.9839961317
0.9584991968
0.9383907629
0.9182194084
0.8956577015
0.878680243
0.8665540744
0.8547129952
0.8428879502
0.832771636
0.8223096704
0.8124809402
0.8055423463
0.7985265957
0.7914631116
3.328557436
3.318209191
3.275154522
3.160323137
2.955836289
2.680453292
2.411602761
2.166863757
1.939930413
1.768636185
1.633246915
1.501948121
1.402977449
1.331397531
1.263328714
1.193051061
1.143669332
1.101796362
1.060251644
1.020772841
0.9953220497
0.9721861742
0.9460933296
0.9232113328
0.9051060373
0.8860531156
0.8652539579
0.8497526179
0.8383882873
0.8274332062
0.8175500113
0.8082435187
0.7990602768
0.7914951139
0.7858818368
0.7796767492
0.7720074929
3.322279868
3.305744465
3.244629925
3.095439056
2.854755746
2.556713263
2.281023472
2.040631365
1.823497753
1.662534762
1.537245307
1.415295859
1.322918197
1.254114955
1.190823124
1.126726607
1.083112745
1.046979777
1.010323254
0.9746243377
0.9530823727
0.9334886175
0.9106718936
0.8902770077
0.8745887726
0.8574978419
0.8382549304
0.823166331
0.8123390657
0.8036414828
0.7952893091
0.7875728354
0.7795155692
0.7712886681
0.7642923494
0.7577422068
0.750471903
3.314392861
3.290088365
3.205030025
3.015310231
2.738168857
2.42137607
2.143874644
1.911852767
1.705902923
1.556295672
1.440428224
1.332698963
1.251016805
1.188219983
1.129621043
1.070383149
1.030207536
0.9970195988
0.963402053
0.9304257587
0.9110771004
0.8940685373
0.8745750809
0.8571676965
0.8437879275
0.8288612357
0.8107494885
0.7964444644
0.7874091337
0.7793903031
0.7710571474
0.7644220114
0.7570861393
0.7495780728
0.7449318615
0.7395126288
0.732740574
3.304522525
3.271810856
3.154630491
2.917546392
2.605656492
2.275262206
2.001253871
1.779433499
1.587782099
1.451856076
1.343271909
1.240864469
1.163747333
1.110039842
1.061151226
1.009498027
0.9764413203
0.9497508862
0.9208486776
0.8906024222
0.8735069982
0.8587734759
0.8414657747
0.8257980107
0.8151430424
0.8027828428
0.7870080374
0.7748585004
0.7660001909
0.7575950218
0.7501503552
0.7440356381
0.7379648371
0.7329268816
0.7277658961
0.7213966873
0.7145480269
3.294901385
3.248753265
3.087156535
2.798495193
2.45594964
2.116685079
1.853766897
1.644549821
1.467501274
1.350672963
1.258811506
1.166347966
1.094639515
1.045635241
1.001484688
0.9542648537
0.9254881149
0.9027842292
0.8774302009
0.8504454865
0.8353659399
0.8224874972
0.8073381318
0.7941242186
0.7861187404
0.7762276622
0.7624462686
0.7505193453
0.7406435027
0.7325614976
0.7259250796
0.7224856142
0.7188772086
0.7136623732
0.7079625363
0.7020599235
0.6941004346
3.287763577
3.216936678
2.99813757
2.655536657
2.288228148
1.947943266
1.701817103
1.509359859
1.34601269
1.236967011
1.154887711
1.074326763
1.014281162
0.9774639104
0.942989674
0.9025443708
0.8803744452
0.8624390337
0.8403386438
0.815313853
0.8017265054
0.7902492256
0.7768522609
0.7657142215
0.7595181215
0.7511187391
0.7385184849
0.7290945263
0.7215158595
0.7143033889
0.7083773582
0.7036960655
0.6980225638
0.6917543152
0.6879994569
0.6836215212
0.6758282783
3.281239137
3.171150336
2.881090345
2.484216896
2.100837495
1.770030145
1.541026927
1.378758421
1.242467768
1.146837303
1.071464467
0.9979326097
0.9461875211
0.9162481224
0.8867233477
0.850562086
0.8334067568
0.820099468
0.8018886946
0.7792860813
0.7673084057
0.757837289
0.7458855137
0.735279365
0.7310584406
0.7249902665
0.7163156065
0.7080915947
0.6993268569
0.6902350476
0.6814718477
0.6772513976
0.6753176333
0.6739985383
0.6715112413
0.6662232302
0.6576687731
3.272813661
3.101735415
2.727567255
2.277331291
1.892753409
1.588692726
1.374780033
1.224198385
1.107348201
1.035904248
0.9805841746
0.9200798079
0.880828737
0.8613505926
0.8378584407
0.8046752358
0.7926473694
0.7830983657
0.7679719271
0.7483815176
0.7375830329
0.7286155582
0.7164081244
0.7067924805
0.7051280346
0.7015628217
0.6937371118
0.6853147243
0.6776994348
0.6695094246
0.6630920543
0.6603472933
0.658760871
0.6558677004
0.6526125723
0.6483286712
0.6399433553
3.258791869
2.996645196
2.52226849
2.039517977
1.662290926
1.405408046
1.235238114
1.105974805
1.004155727
0.9474943951
0.9038564493
0.8493980544
0.8181198714
0.8059770957
0.7878765699
0.7570542953
0.750707952
0.7450115418
0.7328594079
0.7156281642
0.7059685969
0.6983842933
0.6870217497
0.6775749313
0.676850533
0.6737857447
0.6665853864
0.6618906778
0.6582423416
0.6517182518
0.6448393816
0.6402734165
0.6356684859
0.6323889179
0.6312799903
0.6279965226
0.6209471763
3.231515766
2.830297885
2.254546648
1.774898843
1.412652353
1.173185253
1.052419507
0.9707696364
0.8928291212
0.8652740781
0.8380723377
0.7923742968
0.770368062
0.7625071289
0.7462275492
0.7162534431
0.7125276864
0.7098902873
0.7008645293
0.6860797796
0.6786777145
0.6721748892
0.6610510027
0.6495075296
0.6493197038
0.6484194166
0.6458680776
0.6441594176
0.6403116083
0.6321411097
0.6209555867
0.6142656169
0.6122635678
0.6122332225
0.6119526028
0.6097561538
0.6058788528
3.169201193
2.575440584
1.90158058
1.494826958
1.22031835
1.01490966
0.9278164122
0.8526235982
0.790942227
0.7855923882
0.7696998286
0.7328626829
0.7163432785
0.7115814096
0.6987432418
0.6749864076
0.6717472716
0.6708129876
0.6643773872
0.6523155047
0.6484020154
0.6427115324
0.6332053884
0.6257078956
0.6250693958
0.624059494
0.6186588354
0.6157519575
0.6134244943
0.6087028645
0.6041637053
0.6025147657
0.600355533
0.5976875597
0.5967989242
0.5956523535
0.5925375425
3.016639495
2.215907844
1.491594557
1.131452411
0.9496502046
0.8434919216
0.8128260025
0.753652897
0.7187377199
0.7237658876
0.7149773031
0.6818226522
0.6728367003
0.6711776273
0.6611730668
0.6404674979
0.6362676005
0.6359366649
0.6306785891
0.6202135727
0.6208197542
0.6192560251
0.6130670965
0.6037488029
0.6002467153
0.597010553
0.5946232706
0.5955595503
0.5969335804
0.5951681749
0.5915977835
0.5876066689
0.583690533
0.582066228
0.5805189153
0.576755299
0.5734275146
2.629450604
1.714926499
1.222865175
0.9601236043
0.8000707346
0.7327462038
0.7088186171
0.6656980217
0.6433348706
0.6466298812
0.6397794214
0.616413302
0.617599551
0.6212456688
0.6156572446
0.6021430407
0.6005341884
0.6008090732
0.5959714093
0.5899443003
0.5905637921
0.5912059907
0.5861933561
0.5791131989
0.578946777
0.5798044862
0.5797789712
0.5804241646
0.5808002421
0.5784052163
0.5748358328
0.5722355402
0.5702645884
0.5668880163
0.5660325192
0.5651142999
0.5628925928
1.803609704
0.8495714377
0.8359367276
0.7964856524
0.7146377745
0.6665782086
0.6430621591
0.6097471661
0.5945335076
0.5948516253
0.5894097604
0.5794841757
0.5811685431
0.5866417895
0.5843275148
0.5774456708
0.577130889
0.57790033
0.5749980109
0.5725613537
0.5744565131
0.5732032067
0.571294166
0.5713352102
0.5718042115
0.5695473357
0.5660098039
0.564954325
0.5637250915
0.5625204585
0.5631322202
0.563318733
0.5612649987
0.558784944
0.5572045752
0.556666173
0.5574611038
0.5580850423
0.51155437
0.6580677234
0.7217613544
0.673521084
0.6375832146
0.6187306904
0.5885903761
0.577582084
0.577465673
0.5714048549
0.5670975193
0.568837488
0.5752026837
0.5733148168
0.5688878067
0.5688184934
0.5700165676
0.5675720407
0.5674754806
0.5669039227
0.5692631314
0.5668516377
0.5664379689
0.5641137558
0.5631996387
0.5624937254
0.5626282797
0.563622066
0.5616856388
0.5597695312
0.5589407913
0.5583635172
0.5583512404
0.5572518007
0.5562615941
0.4988683721
0.4803254415
0.6121412168
0.7021847861
0.6568903452
0.6280315416
0.6099919561
0.5813457973
0.5731195954
0.5727937767
0.5670454723
0.564198179
0.5669228649
0.5728215635
0.5706507526
0.5668570228
0.5673248798
0.5682579357
0.5661252702
0.5660783727
0.5660660797
0.5679850975
0.5657430206
0.5651210877
0.5627676322
0.5630729253
0.5617894832
0.5624065182
0.5628535772
0.5610168749
0.5594716978
0.5589563358
0.5583369559
0.5585618218
0.5573669426
0.5565607697
0.4869379071
0.4513748692
0.5773789348
0.6830639118
0.6471133592
0.6251082074
0.6039705877
0.5784903542
0.5712279007
0.5677798184
0.5625724408
0.5611476672
0.5643322084
0.5703266334
0.5673907322
0.5643620527
0.5649514103
0.5661709155
0.5642923923
0.5648493417
0.5653056506
0.5672152969
0.5653098317
0.5627268451
0.5612368569
0.5627269515
0.5612830452
0.5618208723
0.562477536
0.5608162825
0.5594089356
0.5590746237
0.5586448994
0.558896477
0.5577704637
0.557352641
0.4712984834
0.4236060215
0.5658503147
0.6655672703
0.6345309606
0.6171772836
0.5974932887
0.5744580139
0.5693485849
0.5650281494
0.5607461487
0.5603876367
0.5636632278
0.5683639574
0.565440533
0.5638365197
0.5642567504
0.5647384385
0.5634918579
0.5642770001
0.564676311
0.5664048868
0.5640440505
0.5619638549
0.5603179278
0.5623090841
0.5607343304
0.5619019462
0.5626071095
0.5609759783
0.5596214316
0.5594135901
0.5593542951
0.5594248029
0.5585222344
0.5602799402
0.4400217862
0.4259433883
0.5592684358
0.6481128732
0.6276575386
0.613558105
0.5901493508
0.5687149939
0.5656205214
0.5625626865
0.5590070623
0.55891665
0.5627493768
0.5668892491
0.5644142265
0.5637519548
0.5636634663
0.5636228527
0.5623973766
0.5634681901
0.5643167019
0.5656786509
0.5623133806
0.5617245805
0.5605597532
0.5619742364
0.5604660479
0.56225554
0.5628417285
0.5613075941
0.5601018424
0.5600930665
0.5604666371
0.560557555
0.5597205384
0.5686449419
0.4162906558
0.4344709566
0.5440709553
0.6341573371
0.6243517531
0.6123555077
0.5861008321
0.5666019901
0.5614381886
0.558646708
0.5561087942
0.5564136217
0.5610681706
0.5653522076
0.5626627798
0.5628801704
0.562327257
0.5619288418
0.560889531
0.5626493027
0.5640952447
0.5650954136
0.5618896037
0.5608753284
0.5616550001
0.561877349
0.560772569
0.5628302372
0.5634219148
0.5620786432
0.5609723879
0.561065708
0.5617898343
0.5617619705
0.5620310566
0.6264232534
0.4114954424
0.439454058
0.5316570186
0.6220605552
0.6189290992
0.6107793943
0.5847173882
0.5665849186
0.5604234454
0.5558085442
0.5542759108
0.5555852297
0.5590888338
0.5632875294
0.5611229273
0.5621074254
0.5614589631
0.5609634845
0.5606698427
0.562621989
0.5640520711
0.5646405965
0.5614693351
0.5602526347
0.5622477136
0.5622189411
0.5614276475
0.5638189092
0.5645732164
0.5634623572
0.5622938327
0.5624872035
0.5637195135
0.5634060723
0.5637651088
0.7384231576
0.4092836063
0.4368501937
0.5264995693
0.6093496607
0.6124229977
0.6071704765
0.5824350537
0.5659642981
0.5604126159
0.5553195278
0.5541692904
0.5555670616
0.558474976
0.5613723768
0.5610233811
0.5620837703
0.5613946169
0.5609469146
0.5607274943
0.5627962309
0.5642926329
0.5641570325
0.560917341
0.5606287689
0.5629235779
0.5626050041
0.562399515
0.5653296712
0.566327097
0.5649917481
0.5636000934
0.5639433282
0.5654547266
0.5655837939
0.57479478
0.8771499381
0.4044432227
0.4275701851
0.5262756939
0.5982657851
0.6070897748
0.5995835409
0.5771777662
0.5634961879
0.5594780161
0.5554574608
0.5542744508
0.5559539405
0.5585639633
0.560763244
0.5615173015
0.562216773
0.5615775372
0.5611040736
0.5611332993
0.5635142143
0.5649406736
0.5646617663
0.5616121561
0.5623322472
0.5637944408
0.5632774509
0.5639846319
0.5677277504
0.5688921674
0.5671265672
0.565468369
0.5657713225
0.5675395884
0.5667131489
0.6214881802
1.038344517
0.4002341556
0.4251858911
0.5267454722
0.5916228538
0.604255218
0.5964572198
0.5734831941
0.5605985204
0.5576204394
0.5555189052
0.5542555521
0.5560489446
0.5587393627
0.5611474748
0.561912968
0.5625036914
0.5617258168
0.5613933621
0.5616441262
0.5644562525
0.5657914051
0.5649557724
0.562584493
0.5642340156
0.5645894552
0.5638981339
0.565866341
0.5691020837
0.5699959213
0.5685626402
0.5678461737
0.5681998378
0.5694752033
0.5702009575
0.7398741182
0.4017158013
0.4255188956
0.526123418
0.5861051689
0.6016194022
0.5965342367
0.5739539271
0.5601696713
0.5564654737
0.5554590072
0.5539579767
0.5558583721
0.5586433812
0.5614026534
0.5626702425
0.5629461154
0.5621282676
0.5621227727
0.5623508325
0.5654814136
0.5667328107
0.5658893078
0.5637127029
0.5655526101
0.5656465322
0.5648959069
0.5671444346
0.5699828148
0.5709737778
0.5695630725
0.569187038
0.5699215341
0.5704912026
0.5791483227
0.9190808023
0.4171759395
0.4266683836
0.522651502
0.579696867
0.5992382479
0.5974692573
0.5746194921
0.5603912524
0.5563947105
0.5541211267
0.5532873163
0.5558966677
0.5583012367
0.5614967838
0.5631163224
0.5635756806
0.562754227
0.5626936696
0.5635414191
0.5666251844
0.5680321083
0.5671670737
0.5652479857
0.5666654334
0.5665018732
0.5661538835
0.5688101795
0.5714417879
0.5728052232
0.5711156059
0.5704428736
0.571071982
0.5723538494
0.6261155266
1.001886615
0.4404170062
0.4290726138
0.5166194561
0.5756204498
0.5974838377
0.5972490157
0.5742909221
0.5617948845
0.5572864555
0.554478507
0.5535535255
0.556011047
0.5583124387
0.5614726658
0.5637153465
0.564158338
0.5632965531
0.5632625024
0.5646355306
0.5678775157
0.5696313013
0.5691215801
0.5674556338
0.568001782
0.5675973583
0.5681366461
0.5713337999
0.5734236827
0.5749235924
0.5739551253
0.5727310449
0.5729320037
0.5746086638
0.7560016285
1.081082953
0.4463006563
0.433143779
0.5153564836
0.5748309285
0.5963705061
0.59493888
0.5725101814
0.5635788966
0.5591407385
0.5557385596
0.5542092087
0.556361237
0.5587778698
0.5616634071
0.5646459168
0.5649851564
0.5641821804
0.564139869
0.5653716618
0.568601614
0.5703294964
0.5699558241
0.5690320134
0.569220052
0.5684492666
0.5695671143
0.5723536335
0.5743825355
0.5751827841
0.5750976748
0.5756078198
0.5758952438
0.5841217337
0.8666817717
1.192706854
0.4444042116
0.4349882803
0.5170226874
0.5745435963
0.595790682
0.5890460715
0.5723786994
0.5643536808
0.5598408908
0.5570615583
0.5555747633
0.5575329769
0.5601377922
0.5625216008
0.5657652575
0.5666151999
0.5663153398
0.5661308292
0.5665350064
0.5697805968
0.5715152514
0.570759786
0.5700373633
0.5700605087
0.569480651
0.5707581466
0.5728782054
0.5744548742
0.5752733707
0.5755763874
0.5763220625
0.5766310715
0.6349294363
1.021942332
1.230835047
0.4411623879
0.4366471713
0.5199262092
0.5753479239
0.5956580691
0.5863763372
0.5728794762
0.5647348969
0.5602501828
0.5575977182
0.5568313478
0.5590246527
0.561257589
0.5639895165
0.5667881506
0.5678000159
0.5681839626
0.5684374233
0.5688328363
0.5715493244
0.5730586533
0.5723534196
0.5713048258
0.5713697237
0.570994605
0.5728066179
0.573924976
0.5750843516
0.5766241793
0.5767057936
0.5765543623
0.5795639236
0.7465890342
1.151771214
1.235512931
0.4264746563
0.4424943595
0.5237605637
0.5770989133
0.5964681099
0.5871331757
0.5748266089
0.5655885429
0.5608957663
0.5579693655
0.5573118073
0.559478679
0.5617882746
0.5649801543
0.5682566094
0.568452471
0.5688926765
0.5692702013
0.5709781901
0.5732576865
0.5747801286
0.5738718905
0.5730245062
0.5725905228
0.5736941343
0.5756573833
0.5766331044
0.5772545003
0.579412038
0.5794946162
0.5775791083
0.59050321
0.9307276645
1.184172094
1.219733532
0.40805521
0.4562128609
0.525400975
0.5763292015
0.5960780686
0.5888807915
0.5786038904
0.5679990748
0.562814797
0.5580162387
0.5574906534
0.5597629648
0.56196451
0.5655401924
0.5696605232
0.5695364909
0.5695829138
0.5697062859
0.5717736526
0.5745889886
0.576474207
0.5745342869
0.5739689678
0.5734739564
0.5746079894
0.5761207471
0.5782524636
0.5799201891
0.5795105161
0.5804360153
0.5816512055
0.6434375889
1.031909454
1.196643254
0.4062944797
0.4666715404
0.5261353473
0.5743247469
0.5950106178
0.5889616742
0.5798702282
0.5712647789
0.5639371443
0.5590023349
0.5580269978
0.5604375501
0.5624864167
0.5660123022
0.5701961152
0.5710436915
0.571148728
0.570729732
0.5727131333
0.5763436251
0.5772032175
0.575074936
0.5746529433
0.5740584111
0.5753847245
0.5764016916
0.5781679641
0.5802292464
0.5794089595
0.5805401415
0.5839468718
0.7778097184
1.090063115
1.228579128
0.4069810719
0.4688947759
0.5265519499
0.57237703
0.5924083753
0.5879156018
0.5796622855
0.5724031676
0.5653113615
0.5603026504
0.5595787529
0.5620183196
0.5638104248
0.5669727509
0.5707240469
0.5721253118
0.5731855477
0.5731060116
0.5744983725
0.5772612184
0.5779964895
0.5760537411
0.5755732205
0.5749408659
0.5767076517
0.5775030143
0.5776189893
0.5801051392
0.5799521378
0.5819498879
0.5951769278
0.8858198189
1.182037996
1.252049589
0.4080866138
0.4697132041
0.5260397967
0.5716395659
0.5911827528
0.5873934694
0.5803847975
0.5729962967
0.566025004
0.560934103
0.5616405871
0.563232076
0.5656048861
0.5690935489
0.5718221036
0.5733708271
0.5743954516
0.5747584479
0.576411677
0.5775791445
0.5786325133
0.5774831067
0.5772094773
0.576452364
0.5776707217
0.5801561241
0.5780178728
0.5801075926
0.5818326679
0.5832432684
0.6496880729
1.033219468
1.240234939
1.253057659
0.4125325851
0.4696666027
0.5253396425
0.5711856282
0.591406135
0.5887574668
0.5836444357
0.5744259843
0.5659781373
0.5613995276
0.5623414198
0.5635641988
0.5664306739
0.571605275
0.5741355796
0.5754633239
0.5754218125
0.5751372871
0.57702739
0.5784927915
0.5787677207
0.5782950012
0.5787523013
0.5789285857
0.5796416911
0.5808278172
0.5804187034
0.580680943
0.5833837792
0.5861309855
0.773116256
1.161269402
1.247594444
1.248700779
0.4304003559
0.4656594927
0.5252692828
0.5708336198
0.59133167
0.5909784976
0.5872585983
0.5774207879
0.5666660425
0.5616889237
0.5627921974
0.5634113991
0.5667796708
0.572353823
0.5754928429
0.5769843719
0.5768242039
0.5755291669
0.5772606541
0.5788121418
0.5789544769
0.5787601754
0.5792544201
0.5801658983
0.5810527518
)
;

boundaryField
{
    inlet
    {
        type            calculated;
        value           nonuniform 0();
    }
    outlet
    {
        type            calculated;
        value           nonuniform 0();
    }
    bottom
    {
        type            calculated;
        value           nonuniform 0();
    }
    top
    {
        type            calculated;
        value           nonuniform 0();
    }
    obstacle
    {
        type            calculated;
        value           nonuniform List<scalar> 
23
(
0.5580850423
0.4988683721
0.4869379071
0.4712984834
0.4400217862
0.4162906558
0.4114954424
0.4092836063
0.4044432227
0.4002341556
0.4017158013
0.4171759395
0.4404170062
0.4463006563
0.4444042116
0.4411623879
0.4264746563
0.40805521
0.4062944797
0.4069810719
0.4080866138
0.4125325851
0.4304003559
)
;
    }
    defaultFaces
    {
        type            empty;
    }
    procBoundary9to3
    {
        type            processor;
        value           nonuniform List<scalar> 
38
(
2.252582687
2.157864643
2.078536531
2.004961687
1.931882677
1.860822304
1.802833156
1.750615196
1.698791336
1.653023528
1.611062959
1.569507751
1.528459771
1.494403689
1.461346468
1.426195311
1.391643454
1.400005047
1.401278263
1.525198791
2.535027586
3.11792396
3.254248858
3.272759915
3.279386705
3.276347363
3.267743483
3.250555342
3.200530155
3.119503184
3.007695193
2.860787771
2.729770348
2.618454742
2.495740689
2.385879372
2.292952788
2.292952788
)
;
    }
    procBoundary9to4
    {
        type            processor;