/*--------------------------------*- C++ -*----------------------------------*\
  =========                 |
  \\      /  F ield         | OpenFOAM: The Open Source CFD Toolbox
   \\    /   O peration     | Website:  https://openfoam.org
    \\  /    A nd           | Version:  7
     \\/     M anipulation  |
\*---------------------------------------------------------------------------*/
FoamFile
{
    version     2.0;
    format      ascii;
    class       volScalarField;
    location    "1.5";
    object      p;
}
// * * * * * * * * * * * * * * * * * * * * * * * * * * * * * * * * * * * * * //

dimensions      [1 -1 -2 0 0 0 0];

internalField   nonuniform List<scalar> 
558
(
1.416007736
1.43390692
1.445328534
1.446115616
1.439434445
1.418812509
1.383736321
1.337791565
1
1
1.000000003
1.000000247
1.000013188
1.00021147
1.003187098
1.017451881
1.083312269
1.20061496
1.313909966
1.416962117
1.44656594
1.444858441
1.443960306
1.437714309
1.416561049
1.381379798
1
1
1
1.000000006
1.000000436
1.000012359
1.000300265
1.002632098
1.021628869
1.074859491
1.199439501
1.347658624
1.409534858
1.427197981
1.443799803
1.443539826
1.43574253
1.414568856
1
1
1
1
1.000000009
1.000000512
1.000017841
1.000263599
1.003407232
1.01836493
1.084342039
1.199772652
1.314933204
1.416522211
1.442515875
1.440316099
1.440819049
1.433909353
1
1
1
1
1
1.000000016
1.000000729
1.000017827
1.00034412
1.002925969
1.022107716
1.076244132
1.201312659
1.348510969
1.402200483
1.423832929
1.44139933
1.44068946
1
1
1
1
1
1
1.000000021
1.000000885
1.000022689
1.000318561
1.003579567
1.019437238
1.085416692
1.200589524
1.317441426
1.416152075
1.438283214
1.436104895
1
1
1
1
1
1
1
1.000000032
1.000001052
1.000023739
1.000381976
1.003246052
1.022602192
1.078293792
1.204175805
1.346984661
1.396113012
1.420308614
1
1
1
1
1
1
1
1.000000001
1.000000034
1.000001285
1.00002704
1.000374925
1.003722355
1.020689013
1.085889559
1.201087251
1.319955244
1.412799453
1
1
1
1
1
1
1
1
1.000000001
1.00000005
1.000001337
1.000029703
1.000410305
1.003575994
1.022843608
1.07976459
1.206941532
1.339323016
1
1
1
1
1
1
1
1
1
1.000000001
1.000000047
1.000001652
1.00003074
1.000426495
1.003844455
1.02177757
1.085951298
1.200774785
1
1
1
1
1
1
1
1
1
1
1.000000001
1.000000066
1.000001566
1.000035561
1.00043071
1.003952828
1.02276411
1.082291532
1
1
1
1
1
1
1
1
1
1
1
1.000000002
1.000000057
1.000001962
1.000033643
1.000474213
1.003966662
1.022803575
1
1
1
1
1
1
1
1
1
1
1
1
1.000000001
1.000000075
1.000001699
1.00003976
1.0004413
1.004290767
1
1
1
1
1
1
1
1
1
1
1
1
1
1.000000002
1.00000006
1.000002109
1.000034235
1.000505714
1
1
1
1
1
1
1
1
1
1
1
1
1
1
1.000000001
1.000000078
1.000001731
1.000041343
1
1
1
1
1
1
1
1
1
1
1
1
1
1
1
1.000000002
1.000000063
1.000002218
1
1
1
1
1
1
1
1
1
1
1
1
1
1
1
1
1.000000002
1.000000083
1
1
1
1
1
1
1
1
1
1
1
1
1
1
1
1
1
1.000000002
1
1
1
1
1
1
1
1
1
1
1
1
1
1
1
1
1
1
1
1
1
1
1
1
1
1
1
1
1
1
1
1
1
1
1
1
1
1
1
1
1
1
1
1
1
1
1
1
1
1
1
1
1
1
1
1
1
1
1
1
1
1
1
1
1
1
1
1
1
1
1
1
1
1
1
1
1
1
1
1
1
1
1
1
1
1
1
1
1
1
1
1
1
1
1
1
1
1
1
1
1
1
1
1
1
1
1
1
1
1
1
1
1
1
1
1
1
1
1
1
1
1
1
1
1
1
1
1
1
1
1
1
1
1
1
1
1
1
1
1
1
1
1
1
1
1
1
1
1
1
1
1
1
1
1
1
1
1
1
1
1
1
1
1
1
1
1
1
1
1
1
1
1
1
1
1
1
1
1
1
1
1
1
1
1
1
1
1
1
1
1
1
1
1
1
1
1
1
1
1
1
1
1
1
1
1
1
1
1
1
1
1
1
1
1
1
1
1
1
1
1
1
1
1
1
1
1
1
1
1
1
1
1
1
1
1
1
1
1
1
1
1
1
1
)
;

boundaryField
{
    inlet
    {
        type            fixedValue;
        value           nonuniform 0();
    }
    outlet
    {
        type            zeroGradient;
    }
    bottom
    {
        type            slip;
    }
    top
    {
        type            slip;
    }
    obstacle
    {
        type            zeroGradient;
    }
    defaultFaces
    {
        type            empty;
    }
    procBoundary33to26
    {
        type            processor;
        value           nonuniform List<scalar> 
13
(
1
1
1
1
1
1
1
1
1
1
1
1
1
)
;
    }
    procBoundary33to27
    {
        type            processor;
        value           nonuniform List<scalar> 
19
(
1.450222691
1.449802232
1.447908167
1.441118578
1.421328669
1.386347284
1.340715945
1.285003571
1
1.000000001
1.000000184
1.000007245
1.00024865
1.002326568
1.020949648
1.07352132
1.198084485
1.348859846
1.348859846
)
;
    }
    procBoundary33to32
    {
        type            processor;
        value           nonuniform List<scalar> 
17
(
1
1
1
1
1
1
1
1
1
1
1
1
1
1
1
1
1
)
;
    }
    procBoundary33to34
    {
        type            processor;
        value           nonuniform List<scalar> 
32
(
1.284270076
1.334702871
1.378128249
1.412146494
1.432307156
1.437143917
1.437569922
1.433542447
1.390809242
1.319247201
1.207314828
1.086820521
1.022501931
1.00395293
1.000438807
1.00003435
1.000001842
1.00000007
1.000000002
1
1
1
1
1
1
1
1
1
1
1
1
1
)
;
    }
}


// ************************************************************************* //
