/*--------------------------------*- C++ -*----------------------------------*\
  =========                 |
  \\      /  F ield         | OpenFOAM: The Open Source CFD Toolbox
   \\    /   O peration     | Website:  https://openfoam.org
    \\  /    A nd           | Version:  7
     \\/     M anipulation  |
\*---------------------------------------------------------------------------*/
FoamFile
{
    version     2.0;
    format      ascii;
    class       volVectorField;
    location    "2.4";
    object      U;
}
// * * * * * * * * * * * * * * * * * * * * * * * * * * * * * * * * * * * * * //

dimensions      [0 1 -1 0 0 0 0];

internalField   nonuniform List<vector> 5((3 -2.220156018e-16 0) (2.987330668 0.003718638485 0) (2.973872388 0.004539772006 0) (3 -3.409266013e-15 0) (3 -4.444640311e-15 0));

boundaryField
{
    inlet
    {
        type            fixedValue;
        value           nonuniform 0();
    }
    outlet
    {
        type            inletOutlet;
        inletValue      nonuniform 0();
        value           nonuniform 0();
    }
    bottom
    {
        type            slip;
    }
    top
    {
        type            slip;
    }
    obstacle
    {
        type            slip;
    }
    defaultFaces
    {
        type            empty;
    }
    procBoundary19to13
    {
        type            processor;
        value           nonuniform List<vector> 4((3 1.790584847e-15 0) (3 4.449030341e-17 0) (3 4.449030341e-17 0) (2.987330669 -0.003718664798 0));
    }
    procBoundary19to18
    {
        type            processor;
        value           uniform (3 -2.663802516e-15 0);
    }
    procBoundary19to20
    {
        type            processor;
        value           uniform (2.958831089 0.0205155769 0);
    }
    procBoundary19to25
    {
        type            processor;
        value           nonuniform List<vector> 4((2.998496491 0.002428983358 0) (2.99541703 0.007831932444 0) (3 -1.939992916e-15 0) (3 -3.206235542e-15 0));
    }
}


// ************************************************************************* //
