/*--------------------------------*- C++ -*----------------------------------*\
  =========                 |
  \\      /  F ield         | OpenFOAM: The Open Source CFD Toolbox
   \\    /   O peration     | Website:  https://openfoam.org
    \\  /    A nd           | Version:  7
     \\/     M anipulation  |
\*---------------------------------------------------------------------------*/
FoamFile
{
    version     2.0;
    format      ascii;
    class       volScalarField;
    location    "1";
    object      T;
}
// * * * * * * * * * * * * * * * * * * * * * * * * * * * * * * * * * * * * * //

dimensions      [0 0 0 1 0 0 0];

internalField   nonuniform List<scalar> 
2222
(
1.118013807
1.118441467
1.118774119
1.119086563
1.119164888
1.119010782
1.11887157
1.118790272
1.118802368
1.118910727
1.119142365
1.119621636
1.120294727
1.120807245
1.121087047
1.121261351
1.121281372
1.12114797
1.120975839
1.12068937
1.120117681
1.119641246
1.120280789
1.128348655
1.243223578
1.41475576
1.447901287
1.443098378
1.438998333
1.436931643
1.438636864
1.433684454
1.421948806
1.401117863
1.118154618
1.118612309
1.119039608
1.119194873
1.11912584
1.118926114
1.118713719
1.118651651
1.118694492
1.118854226
1.119192561
1.119732227
1.120381822
1.120867113
1.121180775
1.121350044
1.121456131
1.121446079
1.121334055
1.121179652
1.120770231
1.120183773
1.120621151
1.126951774
1.229571619
1.40902133
1.444267603
1.44066137
1.438478513
1.438789737
1.439566349
1.435085808
1.422552885
1.401220766
1.118095127
1.118748525
1.119252983
1.119385059
1.119275547
1.119017493
1.118693489
1.118546403
1.118564275
1.118728063
1.119140755
1.119808295
1.120434655
1.120883618
1.121229896
1.121467346
1.121622133
1.121738791
1.121688755
1.121614124
1.121413799
1.120842479
1.121019115
1.126273123
1.216572431
1.403101541
1.441750641
1.439006541
1.438411258
1.440230069
1.440518016
1.435774139
1.422919588
1.401777163
1.117953371
1.118656074
1.119339507
1.119558644
1.119475723
1.119176255
1.118765482
1.118550755
1.118561647
1.118724569
1.119158255
1.119859596
1.120414183
1.120766105
1.121093761
1.121484118
1.121793656
1.121968893
1.122037364
1.122038567
1.121923384
1.121440991
1.121381275
1.125854649
1.204236093
1.39572022
1.440090142
1.437786749
1.438790049
1.441356034
1.442519379
1.436367117
1.422532467
1.402025094
1.117964218
1.118600627
1.119145441
1.119541934
1.119479486
1.119221051
1.118889313
1.118721583
1.118745541
1.118907252
1.119303084
1.11997279
1.120458464
1.120731024
1.120991661
1.121352306
1.121839274
1.122177745
1.122308949
1.122346608
1.122273174
1.12192583
1.121719682
1.125472026
1.192665986
1.38626599
1.438016787
1.4361489
1.43974105
1.442790694
1.445087048
1.436767445
1.421610648
1.401939899
1.118191168
1.118718544
1.119107949
1.119327227
1.119241998
1.119075031
1.118976736
1.118944354
1.119003778
1.119183207
1.119544642
1.120151802
1.120599821
1.120822584
1.121029428
1.121300695
1.121677367
1.122208437
1.122542713
1.122615629
1.122566813
1.122319292
1.122021757
1.125076926
1.182580425
1.373840281
1.433621481
1.433562527
1.440953645
1.445392693
1.445523215
1.436132846
1.419887663
1.401772416
1.118534177
1.118969224
1.11930117
1.119315074
1.119157172
1.118947918
1.118892998
1.11893423
1.119041379
1.119284349
1.119741496
1.120374002
1.120817299
1.120992436
1.121172267
1.12136147
1.121564952
1.12194113
1.122535753
1.122877414
1.122866248
1.122618587
1.122334037
1.124629889
1.174625349
1.358151862
1.425954465
1.430601911
1.442893451
1.448625239
1.44538046
1.434370245
1.417840445
1.40245611
1.118810854
1.11931177
1.119622323
1.119529438
1.119331469
1.119071144
1.118927368
1.118914294
1.118999681
1.119234066
1.119714459
1.120463302
1.121048569
1.121288107
1.121444537
1.121550462
1.121658593
1.121813261
1.122193895
1.122822113
1.1230834
1.122940558
1.122664018
1.124275397
1.168533824
1.342728102
1.417916259
1.430080453
1.444996629
1.449124544
1.444164884
1.431338243
1.417308099
1.404405298
1.118920076
1.119566464
1.119965952
1.119854846
1.119650139
1.119328018
1.119074526
1.11902271
1.119077062
1.119285206
1.119665735
1.120291758
1.121104811
1.121545539
1.121729414
1.121814732
1.121824306
1.121891867
1.122074003
1.122489887
1.122960409
1.123067736
1.123007429
1.124140323
1.163541702
1.332911922
1.410839373
1.429943053
1.446958723
1.447882944
1.441443904
1.428372569
1.417520983
1.405963539
1.118350271
1.118926684
1.119598847
1.120180818
1.120212352
1.12003883
1.119631942
1.119286843
1.11922601
1.119300855
1.119538294
1.119861942
1.120256098
1.120844661
1.121566594
1.121944695
1.122075901
1.122103428
1.122153288
1.122268835
1.122460407
1.122742389
1.12287254
1.123119895
1.124134521
1.158925021
1.326804444
1.406663845
1.431243407
1.446556625
1.445279791
1.43821735
1.426417619
1.417246148
1.406447962
1.118613401
1.119145705
1.11963292
1.120110788
1.120309351
1.120189028
1.119864578
1.119649512
1.119651169
1.119770438
1.120034226
1.120253751
1.120459542
1.120732686
1.121272462
1.121912603
1.122279612
1.122482424
1.122572208
1.122610221
1.122714836
1.122806069
1.122741887
1.122949504
1.124007516
1.154180056
1.320237699
1.405646049
1.434261368
1.445485083
1.442501657
1.435332348
1.425542704
1.417184995
1.408012155
1.119003107
1.119525936
1.119938181
1.120184217
1.120176216
1.119964927
1.119838418
1.119902988
1.12006568
1.120258503
1.120525235
1.120736781
1.120814943
1.120898695
1.121085686
1.121537728
1.122185275
1.122704466
1.122950205
1.12301265
1.123100239
1.123108213
1.122979808
1.122950511
1.123769913
1.149058236
1.310725115
1.409650273
1.437055419
1.444238365
1.440863122
1.432882816
1.423111156
1.417969373
1.410381261
1.119538066
1.120030238
1.120481119
1.120503306
1.120357842
1.119965105
1.119750804
1.119831357
1.120145015
1.120560332
1.120955255
1.121198021
1.121248721
1.121168517
1.121099102
1.121265417
1.121768179
1.122483425
1.123097154
1.123404021
1.123535273
1.123510579
1.123277948
1.123060826
1.123675212
1.143851273
1.29758779
1.41722508
1.43960441
1.443391607
1.439544471
1.431439283
1.420753208
1.419553437
1.41342171
1.1200314
1.120508137
1.120941241
1.120920046
1.120614504
1.120270853
1.11998218
1.119942925
1.120093399
1.120494892
1.120972779
1.121273467
1.121410723
1.121373036
1.121295701
1.121393074
1.121618673
1.122093796
1.122760427
1.123431278
1.123811107
1.123869571
1.123571771
1.123305241
1.123774045
1.139334843
1.282473322
1.425158726
1.438986836
1.440585534
1.436194217
1.427786502
1.420347791
1.421320615
1.415355208
1.120341739
1.120926421
1.121298221
1.121287918
1.121182869
1.120911269
1.120474658
1.120385061
1.120438959
1.120603528
1.120895573
1.121166358
1.121304152
1.121411286
1.121491816
1.121586404
1.121781505
1.122108196
1.122646741
1.123181733
1.123666067
1.124021128
1.123945734
1.123746685
1.124024778
1.13614024
1.267638488
1.428992576
1.437337649
1.434959522
1.431105699
1.423584089
1.422269234
1.422885022
1.416371872
1.120510161
1.121000622
1.121547074
1.12175496
1.12176164
1.121629319
1.1212202
1.120891754
1.120862187
1.120978524
1.121259088
1.121468506
1.121525428
1.121562152
1.121676305
1.121857225
1.122093123
1.122420699
1.12284649
1.123241303
1.123590494
1.12388804
1.124012417
1.12404572
1.124313554
1.134271316
1.252899132
1.427828617
1.432863809
1.428861627
1.425423347
1.421076704
1.423601388
1.423534255
1.416175298
1.120928184
1.121181024
1.121608328
1.122169723
1.12235309
1.122259527
1.121978314
1.121636846
1.12153862
1.121659158
1.121840544
1.121954714
1.121896977
1.121840035
1.121928413
1.122140372
1.122412255
1.122760158
1.123269585
1.123758353
1.124022419
1.12413775
1.124020921
1.124041819
1.124439466
1.133042978
1.23700145
1.423611013
1.426216364
1.422229461
1.421603459
1.42160892
1.424743706
1.423534025
1.415631273
1.121465237
1.121720706
1.122072966
1.122437059
1.12281602
1.122849325
1.122674512
1.122369426
1.122223601
1.122315845
1.122510499
1.122583028
1.12238227
1.122256963
1.122288793
1.122451245
1.122671825
1.123030434
1.123665051
1.124318928
1.124574553
1.124530501
1.124312607
1.124256509
1.124567708
1.132043946
1.220344491
1.416249145
1.419820346
1.417928794
1.419529157
1.422627956
1.425249553
1.423144228
1.415417339
1.122395718
1.122601613
1.122783569
1.122932674
1.123255325
1.123477119
1.123384829
1.123140475
1.122979904
1.122924654
1.122953199
1.123041627
1.123004041
1.122929393
1.122865528
1.122960145
1.123096532
1.123345043
1.123708827
1.124325475
1.12500276
1.125161493
1.12499004
1.124821877
1.124993768
1.131280084
1.205597425
1.40579354
1.414465768
1.415417139
1.420936112
1.424542184
1.424859686
1.422696842
1.415463637
1.123207509
1.123390289
1.123380924
1.123540507
1.123911708
1.124186686
1.124175466
1.123912415
1.123678797
1.123624772
1.123688463
1.123956047
1.124240412
1.124256609
1.124185659
1.123990982
1.123823884
1.123918804
1.124037633
1.124308559
1.124963253
1.125677444
1.12575867
1.125474196
1.125530002
1.130668248
1.194416738
1.394005278
1.410757635
1.414723802
1.423855136
1.424945241
1.424038033
1.421914668
1.415048186
1.123758873
1.124052909
1.124256734
1.124548834
1.124905931
1.125254011
1.125392652
1.125047275
1.124580698
1.12438858
1.12444238
1.124749782
1.125258755
1.125486711
1.125542676
1.12548277
1.125152475
1.124748613
1.124653773
1.124752045
1.125038485
1.125713499
1.126040239
1.12576467
1.125821215
1.130012821
1.186903315
1.383651853
1.408160707
1.414306669
1.424762381
1.424218536
1.422906697
1.420954198
1.414065822
1.123858979
1.124542885
1.125069748
1.125461825
1.125803251
1.1261885
1.126613215
1.126626988
1.126252005
1.125718348
1.125624468
1.125777836
1.126215039
1.126523143
1.126638456
1.126641659
1.126466679
1.126096151
1.125838712
1.125760288
1.125794356
1.125966834
1.126069004
1.12566725
1.125703375
1.129174388
1.181500595
1.376273178
1.405120588
1.414850818
1.424451121
1.423104823
1.421780325
1.419277786
1.413058657
1.124309767
1.124799619
1.125376613
1.125944745
1.126548725
1.127150693
1.127631597
1.127900564
1.127754937
1.127396702
1.126970201
1.126893247
1.127163807
1.127514472
1.127632949
1.127687008
1.127631154
1.127380546
1.127069805
1.126861448
1.126729017
1.126383115
1.126106004
1.125617647
1.12557061
1.128417964
1.176257531
1.370475982
1.402349958
1.414848551
1.424153253
1.422781695
1.42166752
1.417421635
1.412640114
1.125050528
1.125208289
1.125636162
1.125991173
1.126306498
1.126843787
1.127738663
1.128669794
1.12897271
1.128841636
1.128602832
1.12821314
1.127935871
1.128085269
1.128439103
1.128608198
1.128635284
1.128633099
1.128444319
1.128030435
1.12759017
1.127093338
1.126494413
1.125956865
1.125768851
1.125706376
1.128095152
1.169858241
1.363771855
1.401337049
1.415891865
1.424703361
1.423718857
1.420319163
1.415043346
1.412427079
1.126069037
1.126552243
1.126747184
1.12682978
1.126905059
1.127181552
1.127871861
1.129152277
1.130003513
1.130005536
1.129813254
1.129401332
1.128911374
1.12850794
1.128543911
1.128830317
1.129125724
1.129232844
1.129038786
1.1285846
1.127733999
1.12694116
1.126318809
1.126148857
1.12646553
1.126594313
1.12844709
1.162465614
1.353502507
1.401295337
1.418475924
1.425866345
1.424094975
1.417435554
1.412652659
1.412457483
1.126779238
1.127657319
1.127704079
1.127666168
1.127795543
1.128114737
1.128540156
1.12922442
1.130537903
1.131111851
1.13101349
1.130595567
1.129732763
1.128841344
1.128474251
1.128465071
1.12863316
1.128865197
1.128857534
1.128324751
1.127313897
1.126597336
1.126407475
1.126468996
1.126829232
1.127438791
1.129150331
1.156384329
1.337171143
1.401647852
1.421479011
1.425984529
1.42256241
1.413588562
1.410815333
1.412471879
1.126898422
1.127828415
1.128527007
1.128931097
1.129253136
1.129462213
1.129486084
1.129811698
1.130455939
1.131185091
1.131365191
1.131255596
1.130463823
1.129603122
1.129064232
1.128832153
1.128733955
1.128747052
1.12849233
1.127866823
1.127077071
1.126537276
1.126453067
1.126544801
1.126743669
1.12735622
1.129465389
1.15256833
1.317647619
1.402140599
1.423331606
1.425506544
1.420322607
1.410288143
1.40942867
1.412587801
1.127452162
1.127802933
1.128661818
1.129722488
1.130462862
1.130662694
1.130867903
1.130911053
1.131084538
1.131219779
1.131239502
1.131146372
1.131049901
1.130633422
1.129959629
1.129438984
1.129020933
1.128598668
1.128212819
1.127887584
1.127624436
1.127277538
1.127001625
1.126959371
1.12699539
1.127344279
1.129255807
1.149679626
1.300767861
1.40258366
1.424311943
1.424392783
1.417952844
1.408074555
1.408429273
1.412601708
1.128342494
1.128454864
1.128997666
1.129671941
1.130604369
1.131558566
1.132166293
1.132309062
1.132036257
1.131736481
1.131576052
1.131351146
1.13146682
1.131471151
1.130952971
1.130208478
1.129509354
1.128924055
1.128737591
1.128751887
1.128648908
1.128197002
1.127787707
1.127845475
1.127900332
1.128065518
1.129400475
1.146742299
1.28710898
1.403882103
1.424639733
1.422623611
1.416223821
1.407169891
1.408101848
1.412364384
1.129610532
1.129544018
1.129811187
1.130138191
1.130740842
1.131685204
1.132707422
1.133234815
1.132919544
1.132577712
1.132313573
1.131920678
1.131804274
1.131770129
1.131637319
1.13101566
1.130169818
1.129551545
1.129470124
1.129627465
1.129668631
1.129288116
1.128918924
1.128923692
1.12897878
1.128996378
1.129938746
1.143924765
1.273126143
1.404910796
1.424693373
1.421615098
1.415044092
1.406087028
1.407922944
1.412158723
1.131227713
1.131268282
1.13116372
1.131238848
1.131639742
1.132156867
1.132643668
1.133373595
1.133529121
1.133490391
1.133207243
1.132714832
1.132262236
1.131948084
1.131833499
1.131552315
1.130868735
1.130226705
1.129943394
1.129997821
1.130285456
1.130323954
1.13010215
1.130002111
1.129962313
1.129997103
1.130778073
1.14187911
1.256787446
1.404598235
1.425611118
1.421689763
1.413976999
1.404282033
1.407477687
1.412437122
1.132518145
1.132703066
1.132681798
1.132829823
1.132916454
1.132873341
1.13298766
1.133318718
1.133908371
1.134160142
1.133913667
1.133491948
1.132927267
1.132500506
1.132287624
1.132080852
1.131679464
1.131120422
1.13061737
1.130450499
1.130575904
1.130906375
1.131061088
1.130957089
1.130898438
1.130975841
1.131644226
1.140629709
1.239288398
1.400049331
1.427541673
1.422338882
1.412510674
1.403517075
1.407304543
1.413693103
1.132420852
1.133080427
1.133646818
1.133942257
1.133954553
1.133842851
1.133861013
1.133975635
1.134472386
1.134718991
1.134529061
1.134261463
1.133809039
1.133327654
1.133038437
1.132864303
1.132629668
1.132232932
1.131642351
1.13121239
1.131140746
1.131273138
1.13157498
1.13165439
1.13163289
1.131652148
1.132220384
1.139705582
1.223484589
1.390995582
1.42965446
1.423899253
1.412221197
1.403716294
1.407693569
1.414354802
1.132527572
1.132871222
1.133413287
1.134020414
1.134508319
1.134845376
1.134897454
1.134805558
1.134944849
1.135039206
1.134998808
1.134929283
1.134670738
1.13411584
1.133762153
1.133583957
1.133423311
1.133230475
1.132800723
1.132243818
1.131985905
1.13194233
1.132121909
1.132404706
1.132449898
1.132375328
1.132759693
1.138886329
1.211819296
1.382058961
1.432153924
1.425827341
1.412803438
1.404696547
1.409285265
1.413904728
1.133128104
1.133265172
1.13358764
1.133996488
1.134533563
1.135106488
1.135282739
1.135178276
1.135079011
1.135067987
1.13516589
1.135251404
1.135126642
1.13463074
1.134235384
1.134016652
1.133841976
1.133711047
1.133491973
1.133062687
1.132748885
1.132663753
1.132816981
1.133265687
1.133467858
1.133308588
1.133463439
1.138325606
1.202664241
1.375401744
1.434436325
1.426820213
1.413445378
1.406322657
1.409884978
1.412665857
1.133999677
1.13400222
1.134179107
1.134438621
1.13481944
1.135221996
1.135424634
1.135441605
1.135279973
1.135183532
1.135255548
1.13533362
1.135253588
1.134947693
1.134603032
1.134376395
1.134180001
1.133977789
1.133723649
1.133460164
1.133208787
1.133185049
1.13343369
1.134014951
1.134464607
1.134434169
1.134379922
1.138122286
1.193459277
1.369835188
1.436254365
1.426431229
1.413588723
1.407727664
1.410119313
1.41167933
1.134837368
1.13492508
1.134998038
1.135048719
1.135193343
1.135405543
1.135622546
1.135757923
1.135686591
1.135563795
1.135571293
1.135504454
1.135314336
1.135088674
1.134881609
1.134749318
1.134591327
1.134289983
1.133877746
1.133571079
1.133387762
1.13342782
1.133736983
1.134309131
1.134828188
1.135132023
1.135233579
1.138047878
1.183164479
1.363784237
1.4365795
1.426469912
1.415311869
1.408768127
1.409872079
1.411242186
1.134578283
1.135107863
1.135447727
1.135632126
1.1356604
1.135650328
1.13569694
1.135879091
1.136113772
1.136229923
1.136166501
1.136027529
1.135681847
1.13537634
1.135251054
1.135193256
1.135150546
1.134970167
1.134547415
1.134013301
1.133667279
1.133519901
1.133554558
1.133775365
1.134210482
1.134666412
1.135153479
1.135585247
1.137882237
1.174064861
1.354882587
1.433666374
1.42756831
1.418319542
1.409929754
1.410145089
1.411719277
1.134260114
1.134910911
1.135383372
1.135704976
1.135883382
1.135909355
1.135947475
1.136082842
1.136293888
1.136420599
1.136370745
1.136163949
1.135814663
1.135609964
1.135563051
1.135557529
1.13549438
1.135273564
1.134895281
1.134438204
1.133974479
1.133743839
1.133745129
1.133895869
1.13415992
1.134411031
1.134709738
1.135282786
1.137512808
1.167781708
1.341222239
1.429290444
1.428370897
1.42062769
1.411674378
1.411098831
1.41252051
1.134141738
1.134620301
1.135011582
1.135314108
1.135562858
1.135738142
1.135883057
1.135993228
1.136093779
1.136110491
1.136057814
1.135945567
1.13585347
1.135927724
1.135929801
1.135806178
1.135620952
1.135369847
1.135135668
1.134908157
1.134483138
1.134179566
1.134066254
1.134075332
1.134145924
1.134270346
1.1344797
1.134988762
1.137014741
1.162890501
1.326775812
1.428362547
1.428647627
1.421673337
1.413489119
1.412296319
1.412168032
1.134306175
1.134522028
1.134719329
1.134851216
1.13498001
1.135103838
1.135204325
1.135287923
1.135331503
1.135338849
1.135375836
1.135502251
1.135689471
1.135984243
1.13607306
1.135860055
1.135525349
1.135218281
1.135076353
1.135023915
1.134746016
1.134442744
1.134283476
1.134220374
1.134279663
1.134428058
1.134607272
1.134907917
1.136540953
1.157770856
1.315714331
1.43022318
1.427695598
1.421452889
1.415303915
1.413132823
1.411397164
1.134393494
1.134553013
1.134647455
1.134577806
1.134476126
1.134311444
1.134234216
1.13423506
1.134303827
1.134415532
1.134572883
1.134924613
1.135398555
1.135845162
1.135924039
1.135686191
1.135240224
1.134868807
1.134680716
1.134624417
1.134510735
1.134315634
1.134216968
1.134241496
1.134444898
1.134802906
1.135073461
1.135255408
1.1364215
1.152519325
1.305855402
1.43358329
1.425316526
1.420739203
1.417077772
1.414752773
1.411386352
1.134072662
1.134392469
1.134483615
1.134389042
1.134152256
1.133685027
1.133412952
1.133310566
1.133372064
1.133705554
1.134066293
1.1345232
1.135181247
1.135617114
1.135598429
1.13534155
1.134926457
1.13450589
1.134092396
1.133855386
1.133797218
1.13382208
1.133888697
1.134040937
1.134383596
1.134998655
1.135495201
1.135661454
1.136442114
1.148493346
1.294245607
1.43479791
1.425838312
1.422105036
1.4195108
1.416252128
1.411810365
1.133105481
1.133730478
1.133996803
1.133971823
1.133749256
1.133159729
1.132703263
1.132598727
1.132657076
1.13312935
1.133670566
1.134220706
1.134923136
1.135257057
1.135191611
1.134981884
1.134669195
1.1342691
1.133696081
1.133215418
1.13307289
1.133122969
1.133375716
1.133777433
1.134335704
1.135043359
1.135594935
1.135798522
1.136351795
1.146010128
1.279214436
1.431658518
1.426936467
1.424633696
1.42222053
1.418315354
1.41333022
1.132049934
1.132638822
1.133063027
1.133139444
1.133031065
1.132529427
1.131921006
1.131814638
1.131895558
1.132465027
1.133182116
1.13384889
1.134532122
1.134761736
1.134731299
1.134585421
1.134370107
1.134034841
1.13352909
1.132985736
1.132800104
1.132864835
1.133151605
1.13362994
1.134223379
1.134773556
1.135204751
1.135504195
1.136075766
1.144178777
1.259800766
1.415879755
1.427809628
1.42696116
1.424617563
1.42070387
1.415355825
1.13152576
1.131931956
1.132251113
1.132261762
1.132120269
1.131649477
1.130949573
1.130798586
1.130884035
1.131458006
1.132451131
1.133283236
1.13386965
1.134055267
1.134101516
1.134019445
1.133866806
1.133702215
1.133404869
1.132997369
1.132826813
1.13288276
1.133076451
1.133407885
1.133999899
1.134558526
1.134937813
1.135240502
1.135818242
1.142421214
1.238528851
1.395740366
1.427332611
1.42891768
1.426520283
1.422644726
1.416442968
1.131418641
1.131762149
1.131941567
1.131836862
1.131556108
1.130975792
1.130168618
1.129827714
1.129882645
1.130318335
1.131314925
1.132220699
1.132636809
1.132985962
1.133248895
1.133353203
1.133298959
1.13317445
1.133112484
1.133018866
1.132932761
1.133005643
1.133125711
1.133259342
1.133771623
1.134610202
1.135028245
1.135268155
1.135754956
1.140777576
1.222158961
1.387997202
1.424920066
1.430649527
1.428242475
1.42430428
1.417185221
1.131564702
1.131933099
1.132069857
1.131915158
1.131547628
1.13090846
1.130080007
1.129539828
1.129494308
1.129862185
1.130540684
1.13117372
1.131744818
1.132342909
1.132746252
1.132933639
1.132901453
1.132817136
1.132884852
1.132998832
1.13302193
1.133105402
1.133113977
1.133324803
1.133995047
1.135009743
1.135511145
1.135577658
1.135830632
1.139497157
1.211800796
1.384559608
1.422998723
1.430649715
1.429901881
1.425615333
1.417340174
1.131870745
1.132184198
1.132266659
1.13209103
1.131755088
1.131181697
1.130385754
1.129763008
1.129701179
1.129948489
1.130176679
1.130819398
1.131767708
1.132405557
1.13277997
1.132936143
1.132917962
1.132790778
1.13281177
1.1329165
1.133027783
1.133117512
1.133340432
1.133786388
1.134546943
1.135455834
1.13593428
1.135877558
1.135912831
1.138565363
1.203396524
1.380398954
1.42289833
1.430585149
1.431316559
1.427031359
1.418037735
1.131385593
1.132223281
1.132745587
1.132941706
1.132887054
1.132597813
1.132087483
1.131419315
1.13081107
1.130379123
1.130289983
1.130590493
1.131328853
1.132364781
1.133040188
1.133338734
1.133474577
1.133449656
1.133294
1.13320508
1.133127379
1.133126352
1.133315682
1.133833685
1.134547412
1.135181303
1.135703491
1.136011072
1.135975248
1.135955531
1.137928926
1.193435866
1.372995242
1.423332737
1.433278193
1.434001959
1.429017859
1.419417489
1.132222241
1.132863044
1.133628703
1.134103517
1.134268085
1.13408979
1.13355882
1.132845251
1.13217462
1.131700215
1.131558629
1.13181237
1.132572524
1.133648001
1.134234211
1.134491291
1.134602462
1.134551068
1.134440229
1.134249972
1.134014077
1.133945252
1.134186995
1.134780508
1.135461574
1.135993733
1.136252192
1.136177088
1.135963694
1.13606752
1.137667162
1.181110129
1.358116261
1.421863101
1.436919605
1.436844362
1.431024182
1.421582864
1.135651855
1.136023383
1.136378646
1.136405935
1.136440207
1.13627681
1.135824159
1.135294263
1.134777075
1.134198723
1.133977101
1.134195373
1.134979104
1.135755695
1.136327823
1.136550985
1.136518334
1.136374763
1.136224567
1.136046452
1.135986778
1.136015317
1.13614895
1.136606943
1.137260937
1.137574202
1.137580532
1.137158785
1.136568332
1.136514745
1.137996537
1.17063994
1.334096475
1.415955028
1.440474432
1.439673003
1.432803751
1.422949856
1.14278618
1.142730184
1.142612129
1.142382476
1.142115123
1.141540532
1.140668241
1.139777003
1.139054318
1.138448683
1.138232331
1.138403883
1.139006012
1.13957147
1.139985383
1.14007842
1.139773952
1.139351633
1.139148905
1.139292968
1.139401034
1.139409935
1.139672164
1.1400945
1.14043955
1.140583
1.140124626
1.139369382
1.138791548
1.138560651
1.139521596
1.165631472
1.314722193
1.409753123
1.443862088
1.4423037
1.434116737
1.423849683
1.153481326
1.153446733
1.153364975
1.152897705
1.151912669
1.150898135
1.149676849
1.148241666
1.146935254
1.145950232
1.145507859
1.145594286
1.146055669
1.146464134
1.146715526
1.146639588
1.146049284
1.14535291
1.144864467
1.144672862
1.144889
1.145157647
1.145261693
1.145488294
1.145534781
1.145077999
1.144546428
1.144283163
1.143954763
1.142978499
1.143329326
1.16466145
1.305091731
1.407695584
1.446194351
1.444120983
1.434745758
1.424111751
1.168146494
1.168022007
1.167732626
1.167117522
1.166241248
1.164918891
1.163081777
1.160989464
1.159078826
1.157587675
1.156722415
1.15654606
1.156798122
1.157128064
1.157139507
1.156591503
1.156040024
1.155330512
1.154597785
1.15394733
1.153655497
1.153664934
1.153516623
1.153219728
1.152672391
1.152081431
1.152028339
1.152162778
1.151753461
1.150662916
1.150035424
1.166292658
1.298458434
1.406400302
1.446191401
1.44350786
1.434476172
1.423966373
1.185387223
1.185250549
1.184947665
1.184391908
1.183424264
1.182081039
1.180213247
1.177661009
1.175004503
1.17295067
1.171687883
1.171298099
1.171204464
1.171124711
1.170915321
1.170808602
1.170341384
1.169466273
1.168398139
1.167238779
1.166269428
1.165543779
1.164854813
1.163942556
1.163047305
1.162816453
1.162743874
1.162682492
1.162424388
1.161343752
1.160134893
1.17138582
1.291001294
1.403881608
1.444468617
1.441737602
1.434735978
1.424856829
1.204259668
1.203559905
1.202915003
1.202253098
1.201474307
1.200384024
1.198604113
1.19601798
1.193232134
1.190874683
1.189293867
1.188444193
1.18809642
1.187986159
1.187767145
1.18743628
1.18693751
1.186010965
1.184863569
1.183630837
1.182287823
1.180691245
1.179170341
1.177919519
1.177238728
1.176944063
1.176752044
1.176345995
1.175506771
1.174451037
1.172982059
1.180777836
1.281305678
1.398926041
1.444119207
1.442837338
1.436694984
1.426972144
1.222278396
1.221299174
1.220315994
1.21941339
1.218458647
1.217255009
1.215628566
1.213510479
1.211025768
1.208712949
1.20696268
1.205909257
1.205371842
1.205053954
1.204811345
1.204435643
1.203848921
1.203014204
1.201879235
1.200606287
1.19915952
1.197622257
1.195941959
1.19450954
1.193558504
1.192948421
1.192495373
1.19180557
1.190644827
1.189067889
1.187582057
1.193350254
1.274292724
1.39169978
1.446406257
1.445030074
1.438443592
1.429323178
1.237411453
1.235952224
1.234531937
1.233367914
1.232324993
1.231172368
1.229652853
1.227740504
1.22570649
1.223876239
1.222402789
1.221324223
1.220621126
1.220175417
1.219800509
1.219370911
1.218742634
1.217976955
1.216966721
1.215959568
1.214722659
1.2132122
1.211815618
1.210771582
1.209991746
1.209296782
1.208592671
1.207530375
1.205839978
1.204040984
1.202132148
1.20661933
1.275798491
1.394203821
1.450430779
1.447654866
1.439429953
1.431211442
1.248090695
1.246759744
1.245233771
1.243629791
1.242047244
1.240582167
1.239180082
1.237738795
1.236345442
1.235103743
1.23407106
1.233212735
1.232489104
1.231987116
1.231605905
1.231162598
1.230526702
1.229649243
1.228638083
1.227736417
1.226752833
1.225727105
1.224905209
1.224237612
1.22369027
1.223041623
1.222275917
1.22121086
1.21958297
1.217424034
1.215474949
1.218903672
1.281397974
1.404389667
1.455973554
1.450034691
1.439550471
1.432395236
1.253173562
1.252167238
1.250942614
1.249507526
1.247952963
1.246407771
1.244889216
1.243512849
1.242619225
1.241875983
1.241342412
1.240965252
1.240539162
1.240189633
1.239805679
1.239332245
1.238434895
1.237131837
1.23620129
1.235539482
1.234801337
1.234079995
1.233579118
1.233413698
1.233233536
1.23266575
1.231877911
1.23093471
1.229761043
1.228181411
1.226174319
1.229170022
1.283176016
1.418551818
1.462715555
1.450587711
1.437848326
1.432324759
1.254959103
1.254539732
1.253751853
1.252761017
1.251587732
1.250331762
1.249017686
1.247700343
1.246559083
1.245959143
1.245546114
1.24534058
1.245192858
1.245035743
1.244805402
1.244468009
1.243932401
1.242968311
1.241529481
1.240534003
1.239782974
1.239084084
)
;

boundaryField
{
    inlet
    {
        type            fixedValue;
        value           nonuniform 0();
    }
    outlet
    {
        type            inletOutlet;
        inletValue      uniform 1;
        value           nonuniform List<scalar> 
61
(
1.401005464
1.401255441
1.401857268
1.402004169
1.401800605
1.401771427
1.402661937
1.404632941
1.40588791
1.406158101
1.407732163
1.410348188
1.41347477
1.415313798
1.416316892
1.416084404
1.415691687
1.415591373
1.415618752
1.415090697
1.414029296
1.413120003
1.412786999
1.412628982
1.41259068
1.412489117
1.412584467
1.412542539
1.412245428
1.412131088
1.412671895
1.414083999
1.414363729
1.413664538
1.41232037
1.411548076
1.411365951
1.412275004
1.412638298
1.412132024
1.411202745
1.411220838
1.411780168
1.413584432
1.415366439
1.416336855
1.416926813
1.417134311
1.418075479
1.41975904
1.421789905
1.423003254
1.423767982
1.423806763
1.423763861
1.425104801
1.427273389
1.429644109
1.431381194
1.432233295
1.431860659
)
;
    }
    bottom
    {
        type            slip;
    }
    top
    {
        type            slip;
    }
    obstacle
    {
        type            zeroGradient;
    }
    defaultFaces
    {
        type            empty;
    }
    procBoundary17to11
    {
        type            processor;
        value           nonuniform List<scalar> 
34
(
1.117798969
1.118216557
1.118661249
1.119141171
1.119303725
1.119163034
1.11894896
1.118780245
1.11875175
1.11884855
1.119075837
1.119541137
1.120229732
1.120757665
1.12102054
1.121091289
1.121018558
1.120841285
1.120662734
1.120258282
1.119704241
1.11938004
1.120164297
1.13075986
1.257003829
1.421375245
1.450316605
1.445340199
1.439930104
1.435493309
1.436280337
1.432022418
1.421178594
1.401393398
)
;
    }
    procBoundary17to16
    {
        type            processor;
        value           nonuniform List<scalar> 
66
(
1.117684257
1.117712706
1.117489723
1.117335653
1.117407044
1.117668938
1.118053843
1.118318905
1.118311789
1.118311789
1.118018279
1.118301106
1.118655055
1.119130027
1.119586619
1.119814853
1.120111745
1.120545222
1.121359346
1.122122646
1.122873262
1.123147387
1.123180262
1.12388306
1.12388306
1.124605938
1.125622271
1.126008247
1.126160042
1.127045009
1.128405141
1.1299811
1.131273917
1.131744007
1.131613466
1.132256256
1.133229647
1.134130534
1.134670103
1.134670103
1.133929752
1.133673202
1.133761116
1.134026622
1.134088826
1.133507872
1.132319796
1.131369219
1.13093944
1.130887714
1.130858736
1.131129868
1.131129868
1.130234634
1.1316389
1.13545718
1.142771318
1.153615873
1.16827242
1.185869691
1.205263952
1.223445582
1.238811794
1.249125011
1.253797787
1.253797787
)
;
    }
    procBoundary17to22
    {
        type            processor;
        value           uniform 1.254990067;
    }
    procBoundary17to23
    {
        type            processor;