/*--------------------------------*- C++ -*----------------------------------*\
  =========                 |
  \\      /  F ield         | OpenFOAM: The Open Source CFD Toolbox
   \\    /   O peration     | Website:  https://openfoam.org
    \\  /    A nd           | Version:  7
     \\/     M anipulation  |
\*---------------------------------------------------------------------------*/
FoamFile
{
    version     2.0;
    format      ascii;
    class       volScalarField;
    location    "2";
    object      T;
}
// * * * * * * * * * * * * * * * * * * * * * * * * * * * * * * * * * * * * * //

dimensions      [0 0 0 1 0 0 0];

internalField   nonuniform List<scalar> 
2222
(
1.307916941
1.28665069
1.276576
1.278543163
1.277189574
1.280803812
1.282144905
1.2946035
1.296234044
1.304676846
1.304349252
1.303310698
1.306662159
1.308127089
1.308664357
1.308040231
1.307137548
1.306347087
1.014897122
1.138373144
1.253019983
1.289602388
1.275526284
1.295750026
1.280449367
1.271452516
1.264954184
1.26746375
1.270322108
1.278126505
1.289371754
1.293181338
1.300728869
1.301168149
1.30098277
1.303360425
1.303688378
1.304351017
1.304548422
1.303986625
1.303306154
0.9485634847
1.074595795
1.223149256
1.262025451
1.259841204
1.282304508
1.27500857
1.273176995
1.262106294
1.268141579
1.268123879
1.275803911
1.278794904
1.28717438
1.294675735
1.295204162
1.296287067
1.298901997
1.297725294
1.296454389
1.296783033
1.296628993
1.296643962
0.8328392771
0.9112416875
1.157118131
1.245783866
1.267090058
1.27179117
1.273100259
1.270910639
1.264252838
1.269243399
1.268359073
1.269662568
1.265446567
1.276595472
1.281765208
1.283791396
1.286375415
1.290055689
1.28818163
1.284765091
1.284800839
1.284730528
1.28488339
0.7161373526
0.7093761297
0.931419966
1.224274322
1.277941403
1.260755587
1.276334704
1.271035647
1.262750723
1.262959554
1.261527902
1.259702053
1.254569435
1.262773577
1.265056422
1.266833441
1.27438533
1.277856592
1.275799487
1.271355982
1.271464989
1.270945976
1.271026114
0.7183013861
0.7044213534
0.6888831257
1.032743354
1.276062393
1.25308693
1.274515472
1.262517833
1.259117226
1.253365435
1.254303533
1.244844546
1.246218047
1.252146191
1.252322034
1.251337324
1.258695666
1.261568406
1.259950014
1.25536001
1.255596473
1.254697011
1.254938797
1.255332717
0.7181121299
0.7028457391
0.6827158641
0.7022397622
1.141778615
1.249335789
1.261779567
1.241659594
1.244900127
1.231025672
1.233473198
1.232707047
1.240516566
1.242318849
1.243622086
1.239606228
1.244032379
1.242982061
1.24339477
1.242023295
1.242297288
1.241481083
1.241326853
1.241361873
0.7173523055
0.7024099642
0.6819576353
0.6500259977
0.8433665666
1.188243738
1.224437853
1.215366889
1.216111431
1.208563571
1.211283028
1.217960147
1.232626809
1.233697421
1.237927865
1.231888814
1.230810251
1.228805113
1.229590142
1.230615172
1.231315229
1.230857595
1.23030807
1.229992504
0.7165913115
0.7026309546
0.6809454594
0.6486860141
0.6297324097
0.9972696218
1.16253164
1.193503036
1.188120221
1.18885601
1.190405142
1.205309097
1.218880294
1.223681072
1.228504666
1.22411255
1.219497955
1.216204435
1.217921049
1.221252191
1.222785487
1.222207341
1.221472213
1.220707788
0.713776853
0.7030527658
0.6797834657
0.6476758017
0.6200042175
0.6970272044
1.06884356
1.184899025
1.173471415
1.185183662
1.179886058
1.194137315
1.203785506
1.212301179
1.217726149
1.214087352
1.209980048
1.207993413
1.20836996
1.211423701
1.214512206
1.214478767
1.214105056
1.213477098
0.7082514508
0.7030478188
0.678086426
0.6466708491
0.6200759807
0.6032701428
0.8193742524
1.13975946
1.179670064
1.185514149
1.181195634
1.186920564
1.184661835
1.201044839
1.204883295
1.205551267
1.202422281
1.201906313
1.201619329
1.203439661
1.208227962
1.208814209
1.208599322
1.208281066
0.7064641421
0.7030881562
0.6765502701
0.6462005915
0.619471309
0.6019449315
0.6082763986
0.985222228
1.175842876
1.186534102
1.181435085
1.180377965
1.172036605
1.189415403
1.189680909
1.19508227
1.197801982
1.198884299
1.195993194
1.194638084
1.200894127
1.202663529
1.202747345
1.202797406
1.202892613
0.7064761785
0.7034386614
0.6763872287
0.6460446988
0.6193973027
0.6021287824
0.5956589499
0.7346281399
1.116098008
1.186318525
1.184061961
1.170808809
1.169016281
1.179895981
1.180712105
1.184432378
1.194895123
1.196138311
1.191357457
1.187521449
1.192857759
1.195605771
1.197690992
1.198681475
1.200242623
0.7084217803
0.7031221308
0.6769528793
0.6456873172
0.6190832196
0.6006968223
0.594649206
0.5988968838
0.9289450209
1.14665868
1.181962592
1.167095937
1.173027649
1.177466355
1.180495409
1.180846129
1.191144175
1.191138016
1.188597859
1.185566943
1.18835398
1.19147308
1.195454695
1.196883683
1.199241214
0.7146681305
0.701882434
0.6785021989
0.6460913862
0.6182524339
0.5994081997
0.5941153783
0.5915766881
0.6767348185
1.065963885
1.166577497
1.17306455
1.186603565
1.180148886
1.186260252
1.183770233
1.190138738
1.188356506
1.189762469
1.188164465
1.189594301
1.192408109
1.197232122
1.198950153
1.201137555
0.7194781363
0.7020511268
0.6800476894
0.6460215824
0.6175629132
0.5985457127
0.5930227206
0.5917645756
0.5949465977
0.8571836679
1.137503524
1.189572563
1.198192915
1.190304882
1.200236054
1.19280438
1.192559465
1.190956377
1.194782015
1.196945085
1.193936631
1.196486345
1.201768191
1.202833135
1.204580851
0.7221211347
0.7033038475
0.6806844404
0.6454448231
0.6175910289
0.5984455797
0.5929658936
0.5928051809
0.5924266632
0.6245927491
1.08262826
1.196605048
1.205688782
1.203784745
1.209998114
1.205936571
1.194910938
1.193562335
1.200442181
1.204287459
1.20368751
1.205662073
1.20954192
1.210239384
1.209721517
0.722453359
0.7046285025
0.6807260447
0.6455963779
0.618036133
0.598700857
0.593033
0.5926164719
0.5935265498
0.5973704472
0.8352206462
1.172277601
1.206084567
1.212427237
1.215025107
1.212142211
1.204366131
1.203971493
1.205357073
1.207058695
1.20990551
1.21099071
1.212586627
1.215188763
1.213848846
0.7187188948
0.7063104502
0.6808600424
0.6460448971
0.6187676299
0.5993547208
0.5930358216
0.5922439816
0.593622551
0.5959819308
0.6140115595
1.04227799
1.189597613
1.214524352
1.208621718
1.214225419
1.213256218
1.213360296
1.207484586
1.204769994
1.210658686
1.211260595
1.212270366
1.215148885
1.214285265
1.213537433
0.7135377909
0.708229961
0.680927227
0.6464114645
0.6194253365
0.6002669464
0.5933292062
0.5920241662
0.5931088099
0.5957055236
0.600884407
0.7772043556
1.139372095
1.206147681
1.192276368
1.205280379
1.213910924
1.21440934
1.20531258
1.200726267
1.207110921
1.208093334
1.208873285
1.212768477
1.213049636
1.214527681
0.7112884568
0.708603572
0.6808842571
0.6467975587
0.6196002197
0.6008277174
0.5936859786
0.5919366323
0.592797049
0.5952198614
0.6000958483
0.6112882514
0.9885087395
1.16294024
1.17896664
1.188837741
1.209966367
1.210942049
1.202463988
1.198228454
1.202036701
1.203430953
1.204909978
1.208216316
1.2112502
1.214174984
0.7104767021
0.7084603624
0.6810602369
0.6472955363
0.6194094683
0.6007440815
0.5934919468
0.5918953947
0.5927714682
0.5951986142
0.6000976331
0.6044040811
0.6967178299
1.073955521
1.175647605
1.179553404
1.20419026
1.198102935
1.200197624
1.196678447
1.198383045
1.199871852
1.201382717
1.204611853
1.209384072
1.213696265
0.7110701822
0.7077300416
0.6813485256
0.6476629615
0.6193514478
0.6005702232
0.5929995206
0.5915823429
0.5929469118
0.5954516757
0.6008083644
0.6049361684
0.6075067089
0.8573229282
1.158529708
1.181509975
1.19444826
1.191731331
1.20316186
1.202419061
1.195580188
1.197341661
1.200073737
1.201892189
1.208393043
1.212708387
0.7155929685
0.7059134842
0.6824292941
0.6478517107
0.619857966
0.6007124859
0.5930177946
0.5914764068
0.5938087435
0.5961394766
0.6012475237
0.6051944894
0.6056640013
0.6218147237
1.090251309
1.191410548
1.189250394
1.189816205
1.207562789
1.210006984
1.19812873
1.201654988
1.20428753
1.204661986
1.208448472
1.209992159
0.7188055677
0.7051747399
0.6835316543
0.6480706167
0.6203520162
0.6015304908
0.5935255185
0.5917656521
0.5945553506
0.5973981872
0.6011727326
0.6046407903
0.6053030647
0.605859495
0.8135500384
1.167346351
1.18963689
1.197501791
1.207885047
1.20805961
1.202639947
1.204477371
1.204637767
1.207207171
1.206342601
1.2063245
1.207197725
0.7196165759
0.7050387741
0.6835644337
0.6480214403
0.6206256579
0.6025605786
0.5946559437
0.5926147653
0.5952145382
0.59769323
0.6004993705
0.6037129584
0.6047947634
0.6052650255
0.6129079637
1.008170631
1.178070449
1.200365396
1.201519683
1.20462341
1.203858273
1.203771
1.202238075
1.205102194
1.201741714
1.202645801
1.206258767
0.7197899603
0.7050244627
0.6831348862
0.647558692
0.6207032791
0.6035231286
0.596035802
0.5934489141
0.5957678623
0.597593863
0.6000568367
0.6030233292
0.604502997
0.6052800272
0.6046132856
0.7306687427
1.117383694
1.19233637
1.181841329
1.188398903
1.198817581
1.19702551
1.194228405
1.201001224
1.196982302
1.198893838
1.203028696
0.7181729946
0.7054689241
0.6823791696
0.6468750908
0.6206193315
0.604007752
0.5970219767
0.5943227688
0.595950565
0.5976394437
0.5999995585
0.6026951747
0.6043351265
0.6049741435
0.6045498853
0.6074934581
0.9127359395
1.171025655
1.161107574
1.169052462
1.190047799
1.182946451
1.181351622
1.192646753
1.192397412
1.196177459
1.199869609
0.7140970003
0.7062441936
0.6817157561
0.6462125871
0.6202787491
0.6040355357
0.5975868476
0.5952595739
0.5960061425
0.5979201466
0.6000439882
0.6026344211
0.6042131135
0.6047978836
0.604756272
0.6045602047
0.6600699987
1.0652516
1.15273721
1.163281687
1.179798368
1.176296656
1.176894423
1.18297127
1.190320112
1.194649968
1.195773059
0.7129269701
0.7070982967
0.6815338371
0.6456751438
0.6194199653
0.6039177486
0.5978791946
0.595753623
0.5964487696
0.5984072925
0.6005551707
0.6030590532
0.6046274061
0.6048369491
0.6047084251
0.6049472752
0.6057428711
0.8544737828
1.139527323
1.173193559
1.173330277
1.176996494
1.178395257
1.180414489
1.191525125
1.193370312
1.189936246
0.7131582571
0.7073523506
0.6817752061
0.6455019898
0.6183544678
0.6035047351
0.5979722919
0.5959570007
0.5971160066
0.5991864977
0.6018523795
0.6045673282
0.6054642305
0.605039684
0.6047678366
0.6051234175
0.6040457557
0.6254442296
1.078203309
1.179140646
1.174061503
1.187623966
1.190289614
1.180437342
1.193143536
1.191631033
1.186870444
0.7143728652
0.706835684
0.6824543847
0.6455599608
0.6178072055
0.6029508631
0.5979973033
0.5963274663
0.5977331399
0.5999116131
0.6027786249
0.6053045982
0.6056848419
0.6050849764
0.6046631727
0.6050618596
0.6046801075
0.6030649525
0.8143745256
1.157214638
1.18284996
1.196068592
1.194765947
1.18727633
1.192158205
1.190433437
1.187612895
1.184722433
0.7180606213
0.7070203343
0.6846594677
0.6460010274
0.6175544801
0.6025449579
0.5980026005
0.5967170064
0.5982427428
0.6005847299
0.60337758
0.6053250011
0.605614308
0.6050421184
0.6044859763
0.6050971949
0.6055424634
0.60319939
0.6079367385
1.00398144
1.178156143
1.19329578
1.193223309
1.191563172
1.189775914
1.189328048
1.192649208
1.189471321
0.7213386591
0.7082580389
0.6882368238
0.6469776293
0.6173302962
0.6021622761
0.5978654979
0.5970138925
0.5988667577
0.6013642419
0.603895777
0.6048917882
0.6050461352
0.6049066542
0.6044255674
0.6049014391
0.6056317018
0.6036959499
0.601273775
0.7346722424
1.123461274
1.182682566
1.187777046
1.188098224
1.179917949
1.187582335
1.193532815
1.194539468
0.722895195
0.7102768556
0.6894583122
0.6484206032
0.6171158721
0.6017697386
0.5976666989
0.5973570923
0.5998772294
0.6026417039
0.6046009363
0.6049203887
0.6049887295
0.6044620603
0.6042108682
0.6046307755
0.6054734456
0.6036554035
0.6015394739
0.6043261739
0.9344420168
1.132591345
1.164739347
1.185321877
1.17178411
1.186045143
1.192215578
1.194093071
0.7226639094
0.712801527
0.6895790037
0.6488776833
0.6171744901
0.6016547752
0.5974750318
0.5977539687
0.6010730335
0.604089493
0.6056196156
0.6051928123
0.6050672685
0.6041531149
0.6036920902
0.6043113174
0.6051639531
0.6035963329
0.6017215024
0.6003772737
0.6755893942
1.037595142
1.138603981
1.179194625
1.169066502
1.183820548
1.184580117
1.19225792
0.7215970636
0.7137215809
0.689457185
0.6487056699
0.6175653725
0.6016931255
0.5972496848
0.5978434431
0.6020027223
0.605225666
0.6065964532
0.6057205387
0.6052305162
0.6039307736
0.6032351044
0.6040003949
0.604394999
0.6033350157
0.6017858664
0.6006894852
0.601142665
0.8441543962
1.111446757
1.162870279
1.173631372
1.178504924
1.173849404
1.183260718
0.7210702941
0.7137480097
0.6881242681
0.647737
0.617300075
0.6013176285
0.5969094106
0.5978503145
0.6024808304
0.6061058307
0.6073450847
0.6066011518
0.6058464609
0.6039695795
0.603200894
0.6035865869
0.6035180711
0.6029954081
0.6018641428
0.6009619527
0.60032178
0.6145742276
1.062865122
1.146685448
1.18103445
1.171682939
1.168171274
1.173490215
1.178122056
0.7207497908
0.711776393
0.6861529431
0.6456807425
0.6159885653
0.6003888825
0.5963690385
0.5976676074
0.6023671046
0.6064674474
0.6081174292
0.6076286567
0.6068211704
0.6043785645
0.6032607339
0.6031753117
0.6029243143
0.6028542026
0.6017277904
0.6014761444
0.6014002932
0.6023966512
0.8192532054
1.121440861
1.181159875
1.166736959
1.166892937
1.167510755
1.177401847
0.7209252859
0.7085587372
0.6839127617
0.6433647241
0.6134849132
0.598887555
0.5953575798
0.5968308394
0.6022231738
0.6068222094
0.6089796875
0.6085282428
0.6072174112
0.604510692
0.6030658896
0.60284386
0.6026019172
0.6028220405
0.6017219958
0.6018760179
0.6021406617
0.602288752
0.6091442119
1.015247825
1.171888955
1.165115804
1.173989078
1.165060222
1.178271552
0.7226915273
0.7068667832
0.6824310922
0.641602155
0.609704233
0.5965107122
0.5941343368
0.5963360788
0.6023835704
0.607443326
0.6099828274
0.6094420244
0.6072485885
0.6043845865
0.6027079366
0.6023250055
0.6025475244
0.6029664091
0.6019804388
0.6022068364
0.6031420727
0.6034997142
0.6041318859
0.7416706656
1.091146734
1.166510709
1.173836503
1.169738663
1.174297867
0.7236919669
0.7063909257
0.681514066
0.6394319835
0.6065969645
0.5945903586
0.5929049321
0.5957106088
0.6026061983
0.6083933664
0.6114154448
0.6103347292
0.6069733687
0.6037739136
0.6020962778
0.6013921539
0.6026779614
0.6032086509
0.6026505943
0.6035477335
0.6046655454
0.6046704414
0.6060940866
0.6097469274
0.9297786874
1.143510387
1.171525081
1.171736964
1.168210718
0.7238155237
0.7071062181
0.6807352802
0.6369065609
0.6053966289
0.593981471
0.5924489093
0.5949154554
0.602742156
0.6097322902
0.6127149506
0.6110893969
0.6069470084
0.6035171371
0.6014406585
0.6007454656
0.6025166868
0.6032590429
0.6036891852
0.6042867426
0.6053606478
0.6071935561
0.6088183206
0.6086056509
0.6869375569
1.067838447
1.159124345
1.166837965
1.153411443
0.7227371517
0.7115875022
0.6794951599
0.6347351498
0.6045242835
0.5936866259
0.5927476451
0.5945536257
0.6029202176
0.6104861442
0.6134895197
0.6117364974
0.6071758508
0.6035548195
0.6012176632
0.6004479764
0.6020655681
0.6027417517
0.6045827665
0.6042873865
0.6052140798
0.6079616224
0.6096643643
0.6111239914
0.6134355566
0.8679363368
1.104006306
1.160439725
1.143995477
0.7158674255
0.7139807625
0.6782506645
0.6330271355
0.6034695542
0.5928896095
0.5927258464
0.5947086194
0.6029113676
0.6106984984
0.6139049796
0.6123356719
0.6074481164
0.6036854793
0.6012197931
0.6004071564
0.6014330161
0.6025115804
0.6051411634
0.6046364169
0.6054414607
0.6076936637
0.6097844348
0.6128347844
0.6133944167
0.6428264308
1.017448782
1.141961486
1.141939043
1.154155039
0.7091646201
0.7140168997
0.6763902092
0.631860063
0.602769887
0.5920106026
0.5923124037
0.5946857483
0.6023716596
0.6106156731
0.6139427321
0.6127881535
0.6085908963
0.6046406261
0.6019728103
0.6012697535
0.6011974766
0.6025104298
0.6055219917
0.6054177818
0.6062200855
0.6080354576
0.6097233118
0.6130833057
0.6162844235
0.6181059638
0.8033043433
1.081741829
1.149947694
1.145173018
0.7066705722
0.713572752
0.6745478949
0.6313029361
0.6023004957
0.5913980063
0.5914370813
0.5941050317
0.6010905853
0.6098172395
0.6133684284
0.6132666168
0.6099423603
0.6061709681
0.6031957967
0.6024402975
0.6011860415
0.6027049586
0.6059301656
0.6074713251
0.6079381981
0.6089196552
0.6105684599
0.6131441222
0.6171662604
0.6203740425
0.6257066917
0.9816697224
1.146996384
1.137380069
0.7063427006
0.7107814603
0.6741289318
0.6314795725
0.6015871559
0.5909889953
0.5905632952
0.5931843628
0.6001823902
0.6091697374
0.6128849252
0.6136987443
0.6107173599
0.6070060986
0.6039063838
0.6029705177
0.6018773982
0.6046291294
0.6069973253
0.6093223718
0.6105384754
0.610530135
0.6126759897
0.6140915214
0.6173186539
0.6214749119
0.6231021021
0.7516574331
1.106210871
1.136637901
0.7123215708
0.7039889075
0.6740695012
0.6331888733
0.601201046
0.5908660041
0.5901296466
0.592650047
0.5994357348
0.6086253557
0.6127514217
0.6140000264
0.6110823015
0.6070151035
0.6041577163
0.6033273688
0.6037952245
0.6059503413
0.6086051226
0.6104000513
0.6127550281
0.6142408555
0.6153164951
0.6167071627
0.6181971574
0.6214384897
0.6243856
0.6298008094
0.9414202118
1.130259437
0.7211193937
0.7004598718
0.6742044623
0.6343180582
0.6015755932
0.5909461103
0.5901123568
0.5925410465
0.5989386753
0.6079306298
0.612837293
0.6140638522
0.6111746941
0.606839535
0.6039364681
0.6034492539
0.6045186582
0.606266024
0.6101716047
0.6117569514
0.6139192406
0.6161602931
0.6176890766
0.619388645
0.6207342135
0.6225934395
0.6259259439
0.6284128741
0.7223729917
1.080521976
0.7240235414
0.70038868
0.6748790404
0.6363678673
0.6033031817
0.5916979795
0.5906509986
0.5932268324
0.5989512068
0.6075039286
0.6128017044
0.6138984162
0.6112671826
0.6069984444
0.6040382515
0.6031964131
0.6044837986
0.6057029369
0.6107048046
0.6136773903
0.6147166163
0.61698979
0.6187237688
0.6209403382
0.6235169931
0.6249552287
0.6283744424
0.6299657249
0.6332673857
0.8972959102
0.7251346225
0.7007948489
0.6769194531
0.638450687
0.6054353624
0.5928355529
0.591249882
0.5943476818
0.5992916066
0.6069242686
0.6124710699
0.6138919017
0.6114224838
0.6073955007
0.604393751
0.6033014122
0.6036675212
0.6052491072
0.6107540502
0.6147906342
0.6158872925
0.6172805196
0.6187893506
0.6215985858
0.6249850811
0.6277035772
0.6308988818
0.6323347655
0.6329588845
0.6780559063
1.057480881
0.7252407596
0.7034005038
0.679303671
0.6402560447
0.6075511661
0.5941237766
0.5917948311
0.5947987656
0.5992931167
0.6063182942
0.6119091801
0.6136711526
0.6117698045
0.6091060683
0.6057483707
0.6037580667
0.6036498406
0.6053107915
0.6104054388
0.6149767008
0.6181483748
0.6186120691
0.6193266587
0.621639335
0.6255444694
0.6294726321
0.63181397
0.6349451345
0.635996317
0.6374366891
0.859811392
0.7158010906
0.7071246797
0.6800522118
0.6419826472
0.6096560096
0.5953482419
0.5921389451
0.5949684154
0.5991745589
0.6051977417
0.6100395227
0.6126860538
0.6117975992
0.6113719345
0.6085897105
0.6057434882
0.6038738825
0.6056673647
0.6105272278
0.6150697814
0.6197786349
0.6207087628
0.6217075219
0.6226837056
0.6256166362
0.6298660982
0.6324265937
0.635897241
0.6392187311
0.6404531937
0.6636634284
0.6974015973
0.7087221734
0.6798329281
0.6435050553
0.6116806869
0.596650377
0.5924844605
0.5949260921
0.5985889926
0.6031927506
0.6077593217
0.6113047446
0.6115015631
0.6120944811
0.6102751557
0.608301506
0.605326685
0.6076237485
0.6108651548
0.6155685809
0.6206019452
0.6238010762
0.6248309786
0.6256827034
0.6267815535
0.6299454377
0.632998965
0.6368012901
0.6405591889
0.6432340287
0.6435184227
0.6907911442
0.7089784261
0.6773424074
0.6446509001
0.6134237828
0.5981809259
0.5930130883
0.595064237
0.5984188134
0.6021036149
0.6063838324
0.6106419203
0.6111329493
0.6120477272
0.6107118578
0.6097833902
0.6087904072
0.6105583892
0.6126823822
0.6157969224
0.6206906992
0.6253664488
0.6276943737
0.628521751
0.6294163128
0.6312305506
0.6334773429
0.6374811437
0.6411274353
0.6438581238
0.6456866893
0.6903567665
0.708181809
0.6764446925
0.6453720569
0.6144675274
0.5997239058
0.5939107762
0.5955466282
0.5984707163
0.6018175664
0.6058248455
0.610504498
0.611056317
0.6115637011
0.6105574466
0.6101966122
0.6106158494
0.6122600393
0.6156311525
0.6183778151
0.620689849
0.6256811831
0.6289899994
0.63089665
0.6320333754
0.633178914
0.63641091
0.6388344138
0.6419941954
0.6439792618
0.6464997042
0.6917981958
0.7043256202
0.6766333879
0.6457605779
0.6152649746
0.6008563967
0.5951483643
0.5963025252
0.5993294043
0.6018121198
0.6057902374
0.6112047943
0.6118634015
0.6115777745
0.6111207631
0.6107983378
0.610873696
0.6129988131
0.6171882021
0.6208176478
0.6220011554
0.6260768019
0.6290358196
0.6320147189
0.6343983386
0.6359399675
0.6391581811
0.642325231
0.6425577688
0.6449326439
0.646501933
0.7078172308
0.6989976053
0.677339058
0.6461816765
0.6158878573
0.6013987947
0.5962928311
0.5973238432
0.6003995283
0.6027961567
0.6066137379
0.6119478323
0.6129576099
0.6117666559
0.6125255639
0.6124240212
0.6113263835
0.6132415715
0.6176301209
0.6220104546
0.625133081
0.6270426987
0.6296746298
0.6320348447
0.6354858536
0.6386392299
0.6407063815
0.6438184278
0.6450750963
0.6470115466
0.6476507836
0.7223534026
0.6963232612
0.6775784862
0.6478773005
0.6168204768
0.6015736971
0.5969718287
0.5983449618
0.6008483417
0.6041481903
0.6073461081
0.6120157831
0.613195115
0.6138269808
0.6157113284
0.6140892777
0.6126422102
0.6149380377
0.6181224812
0.6228244085
0.6276721413
0.6277712111
0.6312140431
0.6328033632
0.6355274849
0.6394896292
0.6418951626
0.6442638823
0.6475880286
0.6492603287
0.6508081032
0.6502328112
0.7252594171
0.695967888
0.6778837776
0.6494169957
0.6186282989
0.6019786002
0.5972936941
0.5993666241
0.601154168
0.6046187503
0.6072999266
0.6106593941
0.6132231481
0.616190508
0.6177370311
0.6170570414
0.6166938533
0.6181803155
0.6213104637
0.6248061157
0.6291867659
0.6317884387
0.6327258907
0.6354486393
0.6363100794
0.639460935
0.6423921061
0.644691721
0.6485345296
0.6512591504
0.6532624203
0.6536767863
0.7247430845
0.6959644332
0.6791930861
0.6495927057
0.6198809604
0.6035402821
0.5981263924
0.5999053216
0.6012133442
0.6045841072
0.6070223394
0.6095161499
0.6130004258
0.6167941572
0.6184709098
0.6196442167
0.619939775
0.6207743386
0.6247241353
0.6277693123
0.6298781205
0.6345403739
0.6368127323
0.6381241407
0.6392427333
0.640276631
0.6426772672
0.6460643605
0.6491105461
0.651908778
0.6545758201
0.6561195771
0.7113694911
0.6963751992
0.6797068695
0.6491439267
0.6202158215
0.6047234445
0.5999172599
0.60011174
0.6014855524
0.6044499343
0.6062565464
0.6093609512
0.6129823456
0.6166881564
0.6185577956
0.6207223861
0.6214172079
0.6231649153
0.6266034072
0.6296913001
0.6308623851
0.6355584381
0.6388642176
0.6408489829
0.6418407077
0.642976482
0.6449403941
0.6471038494
0.6498495682
0.6520542991
0.6550583419
0.6573113923
0.6972919971
0.7000431775
0.6793659889
0.6487826481
0.620336493
0.6049630807
0.6008263365
0.60100598
0.6022325349
0.6046690916
0.6062721665
0.6093796552
0.6131981476
0.6163977381
0.6185299787
0.6213100204
0.6223202281
0.6244496034
0.6284021752
0.6315436821
0.6339469673
0.6362273247
0.6395253994
0.6423237276
0.6441234994
0.6461024791
0.6488645415
0.6512698513
0.6508286556
0.6530118913
0.6552526597
0.6578038423
0.6950738945
0.7034825301
0.6765153333
0.6487386961
0.6198296025
0.6049683084
0.6010564472
0.6021997724
0.6041758426
0.6062494468
0.60722132
0.6114606194
0.6152201833
0.616575611
0.6193483944
0.6222576873
0.6233362126
0.6252496006
0.6292214149
0.6329351813
0.6366560776
0.6376944456
0.6398232504
0.6424471855
0.6455531791
0.6487524143
0.6509875839
0.6537714429
0.6547412055
0.6551667597
0.6565369743
0.6580377351
0.6957233346
0.7045031295
0.6750525585
0.6489617749
0.6187857035
0.6027430544
0.6001701018
0.6025651804
0.6069225035
0.609733439
0.6115777138
0.6152836788
0.6184276215
0.6191087223
0.6230011079
0.6227490367
0.6265744982
0.6280204706
0.6299417057
0.6336187358
0.6386223494
0.6396110044
0.6413044286
0.6429778252
0.6459446408
0.6497999414
0.6521294276
0.6546659339
0.6571835992
0.6579223449
0.6594104661
0.6596131889
0.7060143306
0.7044848501
0.6750890707
0.649781725
0.6174772427
0.6005895949
0.5983372778
0.6022635875
0.6081062117
0.6119437261
0.6146283652
0.6167743263
0.6201392791
0.622998693
0.6255407619
0.6271911204
0.6304529448
0.6326436658
0.6327901602
0.6346016391
0.6395113328
0.6440108416
0.6441467274
0.6458682749
0.6471146848
0.6500563719
0.6529397387
0.6550118191
0.6580182868
0.660139525
0.6617542948
0.6630708155
0.6620791976
0.7202438208
0.7024757527
0.6751155193
0.6499638955
0.61655733
0.5997442136
0.5979177019
0.6021400746
0.608333845
0.6130629251
0.6159535836
0.6167179401
0.6207305682
0.624562542
0.626370716
0.6301927942
0.6329414482
0.6358916128
0.6369187231
0.6379453538
0.6398078207
0.6457756715
0.6474615399
0.649283136
0.6515979759
0.6509241801
0.6532217448
0.6556765694
0.6582145488
0.6608172415
0.6630379272
0.6651590739
0.665488877
0.7233942153
0.6971796935
0.675322809
0.6497702088
0.6165592781
0.5995175409
0.5981568907
0.6025816452
0.6088106689
0.6133098396
0.6163920367
0.6162242422
0.6206309744
0.62489364
0.6263547747
0.6309868987
0.6340768917
0.6377948231
0.6394275263
0.6408704933
0.6417163394
0.6462168702
0.6498332655
0.6516728881
0.6542791834
0.6548002193
0.6554040947
0.6576162151
0.6588640108
0.6610831243
0.6634697656
0.6660771222
0.6676003993
0.7220807713
0.6955793883
0.6766365242
0.6495587597
0.6168349902
0.6003279915
0.6001188945
0.6047752546
0.6097040845
0.6139857508
0.6169347285
0.6167784591
0.6207299628
0.6246680502
0.6264215488
0.6308543119
0.6339333272
0.6382034688
0.6408719493
0.6432065704
0.6461160641
0.6467800581
0.6503445271
0.6530296033
0.6552558389
0.6580929961
0.6598048735
0.6616858749
0.6615685523
0.6618237342
0.6637404933
0.6663584412
0.6685877111
0.7195198968
0.6960438591
0.6776485882
0.6484368981
0.6168731978
0.600880138
0.6010944145
0.6070318547
0.6119911778
0.6159478192
0.6195189451
0.6199647192
0.6217373642
0.6250383916
0.6275556491
0.6314272642
0.6345062304
0.6379317037
0.6408727077
0.6448043044
0.648838858
0.6479163672
0.6506088028
0.6530752803
0.6559272332
0.6595616099
0.6619972879
0.6642785083
0.6656929374
0.6649867441
0.6652805812
0.6668300806
0.6689210491
0.7200062301
0.6976606309
0.6777191947
0.6448731607
0.6156582286
0.6002261699
0.60098024
0.6088532256
0.6151416235
0.62071757
0.6243706374
0.6263879689
0.6272426228
0.6293662012
0.6330571957
0.6322583634
0.6370439565
0.6385727484
0.6409978875
0.6449334009
0.6506067315
0.6519280146
0.6513064774
0.6533674351
0.6562645994
0.6600647938
0.6627933047
0.6651980162
0.6676596209
0.6685163855
0.6690326489
0.6694393788
0.6695909717
0.7225659994
0.7024001845
0.6760138333
0.6400232799
0.6120434032
0.5981676771
0.6004674763
0.6102927291
0.6178440815
0.6243966304
0.627142314
0.6298456059
0.6320452198
0.6345564547
0.6371324264
0.6371811281
0.6411415055
0.6414698593
0.6427735044
0.6454962924
0.6515551508
0.6558344635
0.6550143187
0.6548476437
0.6570893198
0.6601305827
0.6631045696
0.6654471861
0.6683221747
0.670299985
0.6715996909
0.6728614516
0.6726144604
0.7295342489
0.7116240656
0.6723968811
0.6351509438
0.6085799051
0.5958305649
0.5997298797
0.6105322694
0.6197235229
0.626293782
0.628306156
0.6312798027
0.6340344559
0.6365876746
0.6386542148
0.6414277185
0.6445222062
0.645927301
0.6475218813
0.649626952
0.6521429254
0.6572859125
0.6596429333
0.6597227506
0.66115113
0.6613011237
0.6636525976
0.6661319664
0.668621295
0.6709276851
0.6727925427
0.6746132691
0.675667019
0.7342059158
0.7137787995
0.665965788
0.6317734278
0.6071487724
0.5952977845
0.5998082397
0.6110462584
0.6202909159
0.6262825554
0.6284848182
0.6316194057
0.6345643573
0.6370389128
0.6389105474
0.6428252407
0.6459136707
0.6486053176
0.6508345835
0.6536649033
0.6556226932
0.6578785789
0.661573811
0.6633234923
0.6650716569
0.6656120616
0.6662552151
0.6688528585
0.6696401971
0.6714084571
0.6731755075
0.6753148821
0.6770245385
0.6782768458
0.734403676
0.7118658741
0.6619008576
0.6299798278
0.60785553
0.5963952354
0.6012751328
0.6126710398
0.6213222482
0.6268707776
0.6294804143
0.6322508233
0.6349326451
0.6373158153
0.6389837495
0.6428125134
0.645954976
0.649513899
0.6528421046
0.6557296905
0.6585199018
0.6592159971
0.6622364257
0.6648256672
0.6667807494
0.669050123
0.6705710901
0.672715881
0.6733056764
0.6731092859
0.6737676676
0.6756440438
0.6774388964
0.6789638228
0.7338254522
0.7097327407
0.661867727
0.6270425369
0.608052579
0.5986885881
0.6062724709
0.6183871949
0.6257518209
0.6289392587
0.6343191742
0.6358727529
0.6366491857
0.6385082265
0.6406492839
0.643169816
0.6464167645
0.6502044841
0.6540454544
0.6576057307
0.6603982952
0.6611856682
0.6625421377
0.6653386667
0.6674990787
0.6704673399
0.6727301073
0.674654935
0.6766028388
0.6770311139
0.6764439306
0.6768342866
0.6779201988
0.6793344157
0.7256974062
0.7086502605
0.6629105668
0.6221358542
0.605537863
0.5991005108
0.6091434869
0.6234347783
0.6323829615
0.6356909565
0.6409726684
0.6421549327
0.6431028834
0.6441414075
0.6469252175
0.6465595977
0.648355778
0.6517226757
0.6554726663
0.6591685645
0.6623456978
0.6661441361
0.6644384127
0.6658994372
0.6679491344
0.6708483422
0.6735272573
0.675365114
0.6779735999
)
;

boundaryField
{
    inlet
    {
        type            fixedValue;
        value           nonuniform 0();
    }
    outlet
    {
        type            inletOutlet;
        inletValue      nonuniform 0();
        value           nonuniform 0();
    }
    bottom
    {
        type            slip;
    }
    top
    {
        type            slip;
    }
    obstacle
    {
        type            zeroGradient;
    }
    defaultFaces
    {
        type            empty;
    }
    procBoundary21to15
    {
        type            processor;
        value           nonuniform List<scalar> 
24
(
1.310608367
1.297001573
1.286741178
1.295773042
1.290739342
1.289638489
1.288348552
1.298410046
1.30146281
1.304302834
1.302687437
1.307631415
1.3111602
1.311748589
1.311184214
1.310703626
1.310387755
1.309880099
1.048375291
1.202842542
1.283244351
1.322095809
1.307267629
1.307267629
)
;
    }
    procBoundary21to22
    {
        type            processor;
        value           nonuniform List<scalar> 
69
(
1.306526774
1.302670731
1.296484464
1.285254641
1.271367521
1.271367521
1.256382431
1.242526477
1.231372033
1.221152899
1.213426955
1.207867203
1.207867203
1.203960684
1.202849305
1.203504368
1.204806199
1.20736217
1.209896779