/*--------------------------------*- C++ -*----------------------------------*\
  =========                 |
  \\      /  F ield         | OpenFOAM: The Open Source CFD Toolbox
   \\    /   O peration     | Website:  https://openfoam.org
    \\  /    A nd           | Version:  7
     \\/     M anipulation  |
\*---------------------------------------------------------------------------*/
FoamFile
{
    version     2.0;
    format      ascii;
    class       volScalarField;
    location    "3.9";
    object      p;
}
// * * * * * * * * * * * * * * * * * * * * * * * * * * * * * * * * * * * * * //

dimensions      [1 -1 -2 0 0 0 0];

internalField   nonuniform List<scalar> 
558
(
0.7024528083
0.6721654262
0.6489271675
0.6376242047
0.6201314619
0.6076660534
0.6107244434
0.6204324403
1.035939104
0.9888216095
0.9370310703
0.885276298
0.8544405421
0.8260082136
0.7854065416
0.7524367689
0.7391636334
0.7210731893
0.6905936346
0.6742496503
0.6595116449
0.6351704279
0.621103626
0.6204277264
1.099550805
1.04711891
1.00027647
0.9455701658
0.8998519597
0.8727842821
0.8408347702
0.8010032615
0.7769417163
0.7578759356
0.7287702193
0.7005381535
0.6870871207
0.6711650973
0.6435935979
0.6289956164
1.167081177
1.105568572
1.058211997
1.008545512
0.955212164
0.9183264243
0.8886384377
0.8505919451
0.8132191178
0.7924342465
0.7702633078
0.7394453405
0.7212043727
0.7089888407
0.6873008551
0.6606804486
1.229291499
1.168535198
1.114152062
1.066989771
1.015641576
0.9659417223
0.9323051338
0.8987338122
0.8589018921
0.8308600723
0.8116819958
0.785017492
0.7536232173
0.7369795296
0.7204820647
0.6934535749
1.284303335
1.228495673
1.171266919
1.120788666
1.073568249
1.02245983
0.9786586949
0.9462385006
0.9093852669
0.8698706887
0.8452149105
0.8221759375
0.7903188412
0.7670659865
0.7551716241
0.7374376305
1.333230949
1.282705439
1.22903065
1.174033045
1.127014739
1.078813912
1.029239087
0.9901415485
0.9566323243
0.9174862708
0.8816576231
0.8604515691
0.8342541555
0.8010709649
0.7837059133
0.7687873459
1.377240519
1.332337135
1.281978739
1.229149471
1.177449069
1.130978326
1.084040317
1.035583652
1.001067672
0.9660640095
0.9252992879
0.8971072977
0.8736866539
0.8416673783
0.8102466331
0.7970756367
1.411788392
1.375493533
1.330075804
1.281196045
1.228629654
1.18004209
1.135239899
1.087617777
1.044764297
1.010032655
0.9722189093
0.9337406252
0.9093084477
0.8840895018
0.8482785745
0.8258865118
1.431703026
1.40914818
1.372919524
1.328261865
1.279828294
1.228550393
1.182278554
1.137568804
1.092057237
1.052737998
1.017772162
0.9781101685
0.9451313852
0.9217525483
0.8914393237
0.8563611294
1.437075975
1.428544504
1.405858474
1.369810784
1.32537085
1.277896727
1.229560403
1.183958155
1.140362609
1.096529169
1.060637436
1.022593948
0.9845778003
0.9559853431
0.9305884719
0.8980736866
1.434032943
1.435492298
1.426222237
1.40289132
1.366964346
1.324234279
1.277042833
1.231163313
1.185864715
1.142339249
1.102517495
1.064644557
1.027370779
0.9917610042
0.9666900441
0.9392539072
1.438408167
1.43679867
1.432400761
1.422761178
1.400469253
1.364833061
1.322270624
1.277112759
1.231621992
1.187534995
1.145598743
1.107627014
1.069439144
1.030556005
1.000389243
0.9748379473
1.419698963
1.419694294
1.427227271
1.431092337
1.422213774
1.3987335
1.363508883
1.321640846
1.277497943
1.232409266
1.188151234
1.149006194
1.112261127
1.072204725
1.036052532
1.007888882
1.316411851
1.383130914
1.429447197
1.432708565
1.429103273
1.419025295
1.396667501
1.361723053
1.319447592
1.277029779
1.231591578
1.189755102
1.153065474
1.115892916
1.076549275
1.040481032
1.197519625
1.332372913
1.417897335
1.418433368
1.421810693
1.426483284
1.418707744
1.394936759
1.359328982
1.318821649
1.276474221
1.232364341
1.190980344
1.157190658
1.119328083
1.078485313
1.088418735
1.205439156
1.325771826
1.375608171
1.414813121
1.428443393
1.425671595
1.414695798
1.391834762
1.356950008
1.317313612
1.274966842
1.231328331
1.193540964
1.160272604
1.122892189
1.026116006
1.084473449
1.197310663
1.328447318
1.412805512
1.419216472
1.417708299
1.41985118
1.412591297
1.390023112
1.354749728
1.316268003
1.274857689
1.231362283
1.195205806
1.163600863
1.004860449
1.022978909
1.087208662
1.20257604
1.336522885
1.376948646
1.405903212
1.423701857
1.420818431
1.409884023
1.386867113
1.352963635
1.314787767
1.273241938
1.230255546
1.197083509
1.000589237
1.00404998
1.025247852
1.085796902
1.200955865
1.32013612
1.405162362
1.418815106
1.416174784
1.415942714
1.407847352
1.384802838
1.350860929
1.312984661
1.272640743
1.230954008
1.000045698
1.000470278
1.004754708
1.023514314
1.086526933
1.200209934
1.33418326
1.3751193
1.404661538
1.42043544
1.417381824
1.405860106
1.382249944
1.348975994
1.312100637
1.27069993
1.000002371
1.000035951
1.000585146
1.004292567
1.023903001
1.08679077
1.20290512
1.313419583
1.397905816
1.414249127
1.411356109
1.412109769
1.403731715
1.380655154
1.346760513
1.310228899
1.000000083
1.000001887
1.00004703
1.00050529
1.004507244
1.024060749
1.085705309
1.202792454
1.334166417
1.367760689
1.39609335
1.414922542
1.412978626
1.401170038
1.377526614
1.345464805
1.000000002
1.000000069
1.0000025
1.00003915
1.000557923
1.004534949
1.023120458
1.088632039
1.203801663
1.305203234
1.391355751
1.410170588
1.40597936
1.406190569
1.398001994
1.375974233
1
1.000000002
1.000000089
1.000002014
1.000047
1.000545253
1.004257091
1.024896788
1.083200213
1.200907663
1.337572178
1.36974029
1.389060966
1.406393851
1.4060341
1.395893807
1
1
1.000000002
1.000000073
1.000002594
1.000043696
1.000520931
1.004666584
1.022401404
1.090339131
1.206329073
1.30138175
1.384767373
1.405844292
1.402711862
1.401249824
1
1
1.000000002
1.000000097
1.000002252
1.000045065
1.000575096
1.004078593
1.026214792
1.083237443
1.197365229
1.331452716
1.372788904
1.38780047
1.401914189
1
1
1
1.000000003
1.000000081
1.000002634
1.000048298
1.000505212
1.00486841
1.022114727
1.090048872
1.2033612
1.297438225
1.378703194
1.403052908
1
1
1
1
1.000000002
1.000000107
1.000002626
1.000043544
1.000596767
1.003966291
1.026537464
1.083273933
1.19740515
1.322718609
1.377150627
1
1
1
1
1
1.000000003
1.000000095
1.000002598
1.00004999
1.000497306
1.005014661
1.022573056
1.091048282
1.197977675
1.298383418
1
1
1
1
1
1
1.000000002
1.000000109
1.000002863
1.000043487
1.000617135
1.004086534
1.026507507
1.081457565
1.197853035
1
1
1
1
1
1
1
1.000000003
1.000000109
1.00000263
1.000050132
1.000505762
1.004809819
1.023170359
1.087565365
1
1
1
1
1
1
1
1
1.000000003
1.000000108
1.000002792
1.000043384
1.000578304
1.004382487
1.024685336
1
1
1
1
1
1
1
1
1
1.000000003
1.000000108
1.00000261
1.000047591
1.000544802
1.004411827
1
1
1
1
1
1
1
1
1
1
1.000000003
1.000000109
1.000002686
1.000044524
1.000543788
1
1
1
1
1
1
1
1
1
1
1
1.000000003
1.000000096
1.000002424
1.000042131
)
;

boundaryField
{
    inlet
    {
        type            fixedValue;
        value           nonuniform 0();
    }
    outlet
    {
        type            zeroGradient;
    }
    bottom
    {
        type            slip;
    }
    top
    {
        type            slip;
    }
    obstacle
    {
        type            zeroGradient;
    }
    defaultFaces
    {
        type            empty;
    }
    procBoundary34to27
    {
        type            processor;
        value           nonuniform List<scalar> 4(1.094376688 1.164447415 1.229031026 1.284917897);
    }
    procBoundary34to28
    {
        type            processor;
        value           nonuniform List<scalar> 
17
(
0.6669409202
0.6362473022
0.6249945433
0.6156773497
0.604715619
0.6057281213
0.6214565286
0.6855027765
0.9722984971
0.9232941302
0.8703713618
0.8334977328
0.8121302776
0.7808496883
0.7398115064
0.7194599562
0.7194599562
)
;
    }
    procBoundary34to29
    {
        type            processor;
        value           uniform 0.6517434598;
    }
    procBoundary34to33
    {
        type            processor;
        value           nonuniform List<scalar> 
32
(
1.335310678
1.379464443
1.413370276
1.433089147
1.440303579
1.440140099
1.425172564
1.394882813
1.336739712
1.207430046
1.082838553
1.022093303
1.003818137
1.000443277
1.000034102
1.000001802
1.000000065
1.000000002
1
1
1
1
1
1
1
1
1
1
1
1
1
1
)
;
    }
    procBoundary34to35
    {
        type            processor;
        value           nonuniform List<scalar> 
35
(
0.6212625325
0.6243398131
0.6483000225
0.6718042825
0.7081757749
0.743618119
0.7812102864
0.8129948143
0.8380020307
0.8653289397
0.9034534048
0.9453623262
0.9827948234
1.016688758
1.047671049
1.081810344
1.124977822
1.16556172
1.198313727
1.23101714
1.2710673
1.309507442
1.342706246
1.372357213
1.392683086
1.401616158
1.401226541
1.386145578
1.362373184
1.304649871
1.19270098
1.083910506
1.024630878
1.004466975
1.000551186
)
;
    }
}


// ************************************************************************* //
