/*--------------------------------*- C++ -*----------------------------------*\
  =========                 |
  \\      /  F ield         | OpenFOAM: The Open Source CFD Toolbox
   \\    /   O peration     | Website:  https://openfoam.org
    \\  /    A nd           | Version:  7
     \\/     M anipulation  |
\*---------------------------------------------------------------------------*/
FoamFile
{
    version     2.0;
    format      ascii;
    class       volScalarField;
    location    "1.7";
    object      rho;
}
// * * * * * * * * * * * * * * * * * * * * * * * * * * * * * * * * * * * * * //

dimensions      [1 -3 0 0 0 0 0];

internalField   nonuniform List<scalar> 
2222
(
4.59060433
4.592122995
4.642517555
4.64424451
4.647440969
4.654127528
4.719829123
4.722967254
4.727795263
4.732834883
4.735307013
4.735641285
4.733624775
4.778971374
4.783136235
4.786826192
4.78913898
4.788906182
4.786961179
4.784538621
4.783281728
4.782904761
4.793205723
4.788785354
4.787193284
4.791426429
4.79678671
4.802741418
4.806886683
4.808371462
4.807668233
4.803202241
4.7965835
1.012225142
1.014272238
1.016057945
1.017559942
1.019361171
1.021854264
1.024432387
1.025780557
1.026370656
1.026650753
1.027016339
1.027160975
1.026942335
1.026527914
1.026027002
1.025319799
1.024180866
1.022501467
1.020818509
1.019668537
1.01859461
1.017010507
1.015415079
1.014469772
1.013944863
1.013613217
1.01339116
1.013220803
1.01307217
1.013060491
1.013262004
1.013927567
1.014398312
1.014409209
1.014341359
1.014618824
1.01496446
1.01500912
1.014930528
1.014679328
1.014614588
1.014678628
1.014727431
1.014746379
1.014750132
1.01469799
1.014571806
1.014581938
1.014673275
1.014746635
1.014800683
1.014835105
1.014833906
1.014892164
1.015000028
1.015056528
1.015095609
1.015152358
1.015240279
1.01529796
1.015333413
1.015376241
1.015433291
1.015471261
1.015493567
1.015502909
1.015525537
1.003806515
1.005302004
1.007531231
1.009464858
1.010685932
1.012007886
1.014095693
1.015694469
1.015843548
1.015174269
1.014836485
1.01525595
1.016394012
1.01730084
1.017433511
1.017278364
1.017172124
1.017202599
1.017438949
1.018111201
1.018810015
1.019128691
1.01918749
1.019174881
1.019300939
1.019477388
1.01965361
1.019621646
1.01917492
1.018619928
1.018314895
1.018089963
1.017902248
1.017543246
1.016957286
1.016507781
1.016229666
1.016085487
1.01593358
1.015800153
1.015725571
1.015652322
1.015548852
1.015547004
1.015554162
1.015531029
1.015525324
1.01559665
1.015710685
1.015730453
1.015722207
1.015697391
1.015706138
1.01573437
1.015742502
1.01575097
1.015763231
1.015769966
1.015770473
1.015757191
1.015733969
1.015735249
1.015740693
1.015743784
1.015744904
1.015728951
1.015713103
1.000888581
1.000351157
1.000704991
1.001851583
1.003270209
1.00362649
1.003786414
1.004595815
1.005943724
1.006361021
1.006566992
1.007394866
1.009802816
1.012711707
1.014420897
1.015301538
1.01644794
1.017981151
1.019279336
1.020373644
1.021776746
1.02351793
1.024020015
1.024038426
1.024038698
1.023832489
1.023386047
1.022816514
1.022227408
1.021463165
1.020485638
1.019478667
1.018424688
1.017784822
1.017732046
1.017647786
1.017324161
1.017185748
1.017224337
1.017369205
1.017344445
1.017121393
1.016951891
1.016950796
1.016936683
1.016825914
1.016724712
1.016727372
1.016695007
1.016554626
1.016360593
1.016323276
1.016329338
1.016289238
1.016218814
1.016208599
1.016223713
1.016246151
1.016232519
1.016221917
1.016227897
1.016258835
1.016284754
1.01629828
1.016304553
1.016322657
1.016327513
1.006403879
1.001049775
0.9976528136
0.997254101
0.9968179604
0.9959347702
0.9950760902
0.9947288585
0.9950271423
0.9956081686
0.9961745015
0.9970898142
0.9989665941
1.001377081
1.003505495
1.004908785
1.006315812
1.008738192
1.011373362
1.013284408
1.014741266
1.016723098
1.018084012
1.018516923
1.018623708
1.01894527
1.019439485
1.01975277
1.020324474
1.020828412
1.021003783
1.02089948
1.020735504
1.020571172
1.020650189
1.020800258
1.020586332
1.020140354
1.019981593
1.019920466
1.019801088
1.019456052
1.019230956
1.019181814
1.019093675
1.018895813
1.018561904
1.018341773
1.018239455
1.018117885
1.01791325
1.017707494
1.017654213
1.017584634
1.017440941
1.017210353
1.017141701
1.017145925
1.017106129
1.017026818
1.01702911
1.017063373
1.017092225
1.017107577
1.017120532
1.017157522
1.017165465
1.015933767
1.008673788
1.000842732
1.000423289
1.001352442
1.000824126
0.9981429176
0.9964401286
0.9966956467
0.9989366105
1.001903914
1.002689774
1.002421027
1.002606315
1.003395743
1.004325819
1.004757111
1.004562659
1.004805456
1.00551509
1.006270881
1.007012183
1.007971959
1.009342469
1.011079381
1.012807845
1.014452637
1.016038741
1.017663254
1.019025393
1.020302386
1.020958749
1.021159625
1.021522436
1.022073854
1.022315991
1.022264727
1.022030499
1.021720259
1.021571832
1.021421186
1.021168659
1.020795268
1.020452105
1.02024725
1.020039357
1.019676196
1.019377451
1.019329355
1.019306902
1.019196177
1.018943929
1.018826446
1.01877318
1.01866946
1.018432694
1.018304279
1.018293522
1.018257996
1.018149787
1.018053585
1.018038551
1.018015466
1.01796606
1.017869107
1.01779632
1.017751816
1.072920339
1.067793802
1.054642537
1.042150831
1.037483741
1.035257964
1.029264358
1.019860608
1.015297038
1.015137649
1.014800707
1.011765794
1.007135235
1.003501487
1.001974543
1.001623267
1.001048825
1.000450528
0.99990152
0.9997146284
0.999877309
1.000109437
1.000384231
1.001155829
1.002645922
1.004147402
1.005453638
1.006555582
1.008109779
1.009911341
1.011730616
1.014015489
1.015783972
1.016743598
1.017626227
1.019068858
1.019497615
1.019486189
1.019546828
1.019866368
1.020284234
1.020391491
1.020463638
1.020578943
1.020794279
1.021088231
1.021097914
1.02104022
1.021037185
1.021033562
1.020968928
1.020760329
1.020436424
1.020273379
1.020183363
1.019989556
1.019723979
1.019614573
1.019540853
1.019387488
1.019135072
1.018928549
1.018770331
1.018618085
1.018462024
1.018336726
1.018199402
1.135964213
1.121869496
1.111729069
1.098640605
1.078630244
1.065332779
1.058283085
1.051093188
1.040009539
1.027411343
1.02202929
1.01904124
1.015245157
1.008279185
1.00444854
1.004957362
1.005231253
1.004443376
1.002366582
1.001273671
1.001600789
1.003513194
1.00530133
1.00524126
1.004699255
1.004576246
1.005041275
1.005708886
1.005712304
1.005618419
1.005829308
1.006429467
1.007418869
1.008360069
1.009145523
1.010362067
1.012167284
1.013907042
1.015075495
1.016156422
1.017425267
1.018571035
1.019219286
1.019534905
1.019966518
1.0204287
1.020459108
1.020450167
1.020558879
1.020798353
1.020907517
1.020890289
1.020863321
1.0209224
1.021025929
1.021006701
1.020883347
1.020702924
1.020555712
1.020400757
1.020166596
1.019912406
1.019738139
1.019559426
1.019360179
1.019212556
1.019040075
1.227671316
1.203440273
1.183725475
1.171829834
1.159225398
1.137366853
1.118150268
1.110186878
1.103913798
1.089603052
1.071043517
1.063987299
1.061112144
1.054548642
1.04194401
1.034786759
1.032626826
1.030749323
1.025233626
1.018126208
1.015103649
1.015108957
1.014566998
1.011530253
1.007695702
1.005094277
1.004365365
1.004378876
1.003690303
1.003021677
1.002662034
1.002514877
1.00265203
1.002944947
1.003322018
1.003962976
1.005005258
1.006485061
1.007827764
1.008921618
1.010135608
1.011687956
1.013416044
1.014834883
1.015913963
1.0169633
1.017914016
1.018352325
1.018656358
1.019095752
1.019793612
1.019993521
1.019984756
1.020051774
1.020238014
1.02038034
1.02037835
1.020387121
1.020452164
1.020492486
1.020509213
1.020525797
1.020508219
1.02046294
1.020402252
1.020330923
1.020222921
1.302903939
1.28719875
1.268430722
1.246388493
1.230433331
1.216474321
1.199619328
1.176723976
1.161778859
1.151382851
1.139291876
1.119429115
1.103453294
1.09580675
1.08841751
1.076264957
1.06024876
1.052596154
1.047918987
1.042339353
1.032876561
1.023401357
1.020141094
1.018027671
1.014952459
1.009628351
1.007601858
1.008141587
1.008287713
1.007367013
1.00539959
1.004511199
1.004778543
1.006301938
1.007677409
1.007566854
1.007148001
1.006725303
1.006724741
1.00684915
1.007097339
1.007342358
1.007700448
1.008372688
1.009029297
1.009557287
1.01032936
1.011590587
1.012910784
1.013958937
1.015059381
1.01622776
1.016989942
1.017520816
1.018106526
1.018673789
1.019145474
1.019597506
1.019971163
1.020120569
1.020151567
1.020207944
1.020360334
1.020457936
1.020471128
1.020505519
1.020584021
1.361928408
1.34951462
1.336891752
1.322639227
1.304950783
1.287320281
1.273273841
1.258576723
1.238502699
1.218209006
1.205992795
1.194709485
1.17745221
1.155688029
1.14498311
1.137940606
1.126768726
1.10653218
1.094454987
1.090178975
1.085382613
1.071950699
1.058079851
1.053770718
1.051899215
1.046431767
1.036725166
1.031345589
1.029696355
1.027996255
1.023367023
1.017435968
1.015015225
1.015048944
1.014728218
1.012506704
1.009380289
1.006743772
1.005932182
1.006132987
1.00583062
1.005377676
1.005128132
1.004975706
1.004995743
1.005140335
1.005363483
1.005947504
1.00698795
1.008256961
1.009180056
1.010054133
1.01111591
1.012254661
1.013389448
1.014698026
1.015891512
1.016761573
1.01764386
1.018310654
1.01854079
1.018759232
1.019238695
1.019835349
1.020067844
1.020196141
1.020334984
1.3916278
1.386757661
1.380064422
1.371888955
1.362324256
1.350753861
1.336633703
1.322909212
1.3095474
1.294454591
1.275300422
1.259328547
1.246772061
1.23307114
1.213223046
1.195514448
1.185196823
1.174928892
1.159182033
1.139471404
1.130039916
1.122962094
1.113114738
1.095746019
1.084064916
1.079021883
1.073501577
1.063411044
1.050003711
1.044324349
1.041036609
1.036873882
1.029255628
1.021815025
1.019671187
1.018147737
1.015351392
1.010751291
1.00929606
1.009814185
1.010150321
1.009422306
1.007663807
1.006782986
1.006960925
1.008055217
1.009097751
1.009035515
1.00875657
1.008391935
1.008361272
1.008450142
1.008627036
1.008760888
1.008951352
1.009415293
1.010101003
1.010585886
1.011078383
1.011913541
1.013172748
1.014163579
1.014938208
1.015873347
1.016881712
1.017501843
1.018040108
1.399196247
1.398353332
1.396906442
1.394545957
1.390994047
1.38618048
1.379863226
1.371648672
1.361551609
1.351032052
1.339454801
1.325622585
1.309534181
1.296344028
1.283740856
1.268433361
1.248606807
1.23496385
1.224713227
1.21206909
1.191788942
1.176558506
1.168979208
1.160645398
1.144553421
1.126512034
1.11975712
1.115094981
1.105496387
1.087892086
1.079240717
1.076753717
1.073194556
1.061778233
1.050605342
1.047343897
1.045782782
1.041126545
1.033346418
1.029252855
1.028011791
1.026537891
1.022461018
1.017185021
1.015217907
1.015239599
1.014919647
1.013161124
1.010690986
1.008416493
1.007666868
1.007769928
1.007474055
1.007172309
1.007063016
1.006992719
1.006956882
1.007044002
1.007170354
1.007533669
1.008335493
1.009326363
1.010081918
1.010703099
1.011550718
1.01254991
1.013698428
1.399980071
1.399933766
1.399819682
1.399568598
1.399070389
1.398143214
1.396571919
1.394162592
1.390634167
1.38566232
1.379240037
1.371713658
1.362650971
1.351466744
1.339148443
1.327720963
1.315402899
1.30014676
1.28374426
1.271870824
1.26031192
1.245181748
1.225940919
1.214417851
1.20543844
1.193693949
1.174433614
1.161146894
1.154373281
1.146493426
1.132078936
1.115659428
1.109386114
1.104244108
1.095651235
1.08024189
1.071535392
1.068144419
1.063835137
1.055077954
1.043968432
1.039730951
1.03716606
1.033471188
1.026492665
1.020946022
1.019787623
1.018637605
1.015990013
1.011859135
1.01071095
1.011151238
1.011389598
1.010723533
1.009275241
1.008560341
1.008733522
1.009671229
1.010356926
1.010190186
1.009875177
1.009663171
1.009675542
1.009747162
1.009856248
1.009857998
1.010075245
1.400004843
1.400004202
1.400001861
1.399994302
1.399972292
1.399914994
1.399781643
1.399495141
1.398937196
1.397957413
1.396333595
1.393799423
1.390218513
1.385494929
1.379304832
1.371361078
1.362459559
1.353032584
1.342122537
1.32859834
1.315665557
1.304614207
1.292463932
1.276000844
1.260446185
1.250453586
1.240241802
1.224705572
1.206436563
1.197355924
1.190170534
1.178607939
1.159419908
1.148758062
1.143899991
1.136958785
1.121608222
1.10761049
1.103506621
1.10004023
1.09084157
1.075667825
1.06985973
1.06824878
1.064870749
1.054492941
1.046211737
1.043904351
1.04236192
1.037572614
1.030931805
1.027809888
1.026929499
1.025609676
1.021999179
1.017458707
1.015686144
1.015669387
1.015296428
1.0136616
1.011549247
1.009834292
1.009283255
1.009283635
1.008949803
1.00867385
1.008504607
1.40000504
1.400005038
1.400005027
1.400004974
1.400004741
1.400003838
1.400000703
1.399990964
1.399964044
1.399896291
1.399741712
1.399426492
1.398828408
1.397773798
1.396094369
1.393599463
1.390005981
1.385112065
1.37917113
1.372097762
1.363431279
1.35291118
1.342747108
1.332464853
1.320479415
1.305469537
1.293321051
1.283142508
1.271279693
1.254170503
1.240462469
1.231974323
1.222479371
1.206808882
1.190393428
1.183013257
1.176323815
1.165042241
1.147264469
1.138387364
1.133581411
1.126551309
1.112492815
1.100019035
1.095976862
1.091778094
1.083514249
1.069973772
1.063905408
1.061189105
1.057251104
1.049200367
1.040165146
1.037095879
1.034980001
1.031604114
1.025138535
1.020675702
1.019844272
1.018864501
1.016610009
1.013053713
1.012050792
1.012460246
1.012558484
1.011786672
1.010418705
1.40000504
1.40000504
1.40000504
1.40000504
1.40000504
1.400005036
1.40000502
1.400004942
1.400004618
1.400003407
1.399999388
1.399987418
1.399955137
1.399877525
1.399706384
1.399359135
1.398724105
1.397650065
1.395917876
1.393342948
1.38986018
1.38525561
1.379232525
1.371884506
1.364102845
1.355298372
1.344577007
1.332494331
1.322352958
1.312077714
1.299162657
1.283653251
1.273144751
1.264119982
1.252190287
1.234744006
1.223425138
1.216474533
1.20746165
1.191110593
1.176950625
1.171340659
1.165590044
1.153811988
1.137027912
1.130391645
1.126835575
1.120060289
1.105276777
1.095243839
1.092604644
1.089606699
1.080630172
1.068001714
1.06382431
1.062502287
1.059147489
1.049837797
1.043174963
1.04131596
1.039978141
1.035850174
1.029960225
1.026991051
1.026176736
1.024877442
1.021354398
1.40000504
1.40000504
1.40000504
1.40000504
1.40000504
1.40000504
1.40000504
1.40000504
1.400005039
1.400005034
1.40000501
1.400004902
1.400004471
1.40000293
1.399997971
1.399983734
1.399946771
1.399859012
1.39967177
1.399306733
1.398637415
1.397517744
1.39580381
1.393281209
1.389713246
1.385115304
1.379626779
1.37289309
1.364486
1.355441356
1.346686267
1.336879495
1.324473202
1.312249676
1.302816974
1.292836339
1.279021309
1.264253067
1.255435709
1.24719692
1.235047757
1.218185184
1.209006381
1.202855138
1.194035196
1.178001977
1.165795881
1.160879615
1.155176557
1.144029533
1.128672541
1.122690469
1.118846767
1.112385582
1.099334507
1.089401565
1.086311119
1.08271225
1.075462033
1.063767899
1.058574589
1.056237608
1.052889822
1.045869094
1.037879091
1.035371898
1.032795023
1.40000504
1.40000504
1.40000504
1.40000504
1.40000504
1.40000504
1.40000504
1.40000504
1.40000504
1.40000504
1.40000504
1.40000504
1.400005039
1.400005032
1.400004999
1.400004857
1.400004308
1.400002409
1.399996542
1.399980061
1.399938468
1.399843437
1.399642165
1.399254761
1.398575858
1.397447052
1.395684812
1.393186923
1.389831264
1.385365037
1.379615817
1.373176628
1.366040162
1.357546329
1.347183788
1.33763836
1.328664268
1.318268844
1.304614542
1.293357165
1.284907615
1.275252314
1.260643457
1.247273725
1.239975269
1.232493813
1.220052286
1.203981041
1.196542959
1.19135654
1.18284573
1.166944006
1.156255404
1.152354555
1.147418885
1.136294323
1.121768187
1.116907661
1.114156657
1.108275014
1.095173625
1.086369238
1.084194804
1.081851802
1.073839737
1.063776808
1.059430884
1.40000504
1.40000504
1.40000504
1.40000504
1.40000504
1.40000504
1.40000504
1.40000504
1.40000504
1.40000504
1.40000504
1.40000504
1.40000504
1.40000504
1.40000504
1.40000504
1.400005038
1.400005029
1.400004986
1.400004806
1.400004137
1.400001891
1.399995112
1.39997673
1.399931112
1.3998283
1.39961914
1.399220546
1.398517036
1.39738921
1.395682966
1.393188299
1.389782139
1.385577454
1.380393068
1.373902712
1.366214245
1.358632758
1.350445856
1.340570987
1.329091859
1.319921218
1.311174563
1.300364229
1.28617008
1.276256973
1.26870849
1.25936203
1.244513526
1.23253421
1.226289117
1.219360764
1.207252053
1.192025499
1.185522702
1.180766354
1.172917445
1.158101817
1.147846051
1.144095096
1.139387406
1.129748191
1.115850121
1.110744328
1.107637992
1.101939002
1.090688269
1.40000504
1.40000504
1.40000504
1.40000504
1.40000504
1.40000504
1.40000504
1.40000504
1.40000504
1.40000504
1.40000504
1.40000504
1.40000504
1.40000504
1.40000504
1.40000504
1.40000504
1.40000504
1.40000504
1.40000504
1.400005037
1.400005025
1.400004972
1.400004754
1.400003964
1.400001393
1.399993825
1.3999736
1.399925044
1.399817448
1.399598204
1.399193688
1.398497278
1.397357718
1.395647304
1.393275603
1.390051389
1.385768707
1.380575892
1.374821255
1.368060554
1.359737909
1.350856532
1.342863089
1.33421641
1.323235566
1.311488291
1.303100384
1.294867249
1.283804614
1.269554269
1.260872493
1.254242105
1.245332466
1.230519081
1.21949443
1.214239522
1.208068493
1.196414164
1.181632387
1.175857994
1.171965891
1.16477004
1.150302413
1.141079778
1.138175121
1.131848628
1.40000504
1.40000504
1.40000504
1.40000504
1.40000504
1.40000504
1.40000504
1.40000504
1.40000504
1.40000504
1.40000504
1.40000504
1.40000504
1.40000504
1.40000504
1.40000504
1.40000504
1.40000504
1.40000504
1.40000504
1.40000504
1.40000504
1.40000504
1.40000504
1.400005037
1.400005022
1.400004957
1.400004703
1.400003806
1.400000936
1.399992698
1.399971195
1.399919763
1.399808787
1.399588168
1.399176632
1.398476464
1.397376721
1.395712651
1.393320434
1.390190547
1.386292472
1.381380575
1.3752408
1.368641485
1.361796884
1.353931731
1.344151336
1.33487325
1.326981509
1.318324406
1.306579214
1.295014793
1.287523811
1.279949735
1.268908442
1.254808368
1.247123326
1.241258212
1.232938207
1.218574646
1.208077197
1.203455401
1.197941406
1.18621639
1.174033911
1.167591474
1.40000504
1.40000504
1.40000504
1.40000504
1.40000504
1.40000504
1.40000504
1.40000504
1.40000504
1.40000504
1.40000504
1.40000504
1.40000504
1.40000504
1.40000504
1.40000504
1.40000504
1.40000504
1.40000504
1.40000504
1.40000504
1.40000504
1.40000504
1.40000504
1.40000504
1.40000504
1.40000504
1.400005039
1.400005036
1.400005018
1.400004944
1.400004657
1.400003663
1.400000569
1.399991781
1.399969265
1.399916753
1.399803247
1.399579615
1.399176832
1.398487596
1.397386525
1.3957795
1.393542118
1.39048824
1.386513515
1.381906039
1.376577957
1.370150654
1.362383914
1.355018449
1.347676793
1.339126175
1.328257912
1.319213199
1.311775099
1.303289215
1.291184756
1.280019741
1.273273358
1.266451298
1.255705282
1.24169742
1.23505291
1.230075207
1.220977374
1.207886005
1.40000504
1.40000504
1.40000504
1.40000504
1.40000504
1.40000504
1.40000504
1.40000504
1.40000504
1.40000504
1.40000504
1.40000504
1.40000504
1.40000504
1.40000504
1.40000504
1.40000504
1.40000504
1.40000504
1.40000504
1.40000504
1.40000504
1.40000504
1.40000504
1.40000504
1.40000504
1.40000504
1.40000504
1.40000504
1.40000504
1.40000504
1.400005039
1.400005035
1.400005015
1.400004932
1.400004618
1.400003553
1.400000275
1.399991184
1.399968084
1.399914517
1.399802065
1.399581042
1.399178211
1.398509288
1.397462724
1.39588269
1.393665733
1.390821538
1.387194503
1.382567798
1.377033309
1.371288397
1.364857415
1.357235053
1.34839166
1.340733072
1.333283227
1.324637635
1.31297637
1.304143874
1.297702543
1.289642894
1.276236624
1.26690954
1.261566402
1.252161744
1.40000504
1.40000504
1.40000504
1.40000504
1.40000504
1.40000504
1.40000504
1.40000504
1.40000504
1.40000504
1.40000504
1.40000504
1.40000504
1.40000504
1.40000504
1.40000504
1.40000504
1.40000504
1.40000504
1.40000504
1.40000504
1.40000504
1.40000504
1.40000504
1.40000504
1.40000504
1.40000504
1.40000504
1.40000504
1.40000504
1.40000504
1.40000504
1.40000504
1.40000504
1.40000504
1.400005039
1.400005034
1.400005012
1.400004923
1.400004589
1.400003476
1.400000109
1.399990815
1.399967675
1.399914628
1.399802295
1.399586555
1.399200383
1.398544508
1.397521562
1.396040423
1.393952485
1.391127854
1.38755599
1.383377285
1.378455152
1.372432224
1.365452181
1.359053683
1.352404866
1.343449667
1.333637217
1.327042826
1.320003552
1.308981709
1.299378196
1.291205842
1.40000504
1.40000504
1.40000504
1.40000504
1.40000504
1.40000504
1.40000504
1.40000504
1.40000504
1.40000504
1.40000504
1.40000504
1.40000504
1.40000504
1.40000504
1.40000504
1.40000504
1.40000504
1.40000504
1.40000504
1.40000504
1.40000504
1.40000504
1.40000504
1.40000504
1.40000504
1.40000504
1.40000504
1.40000504
1.40000504
1.40000504
1.40000504
1.40000504
1.40000504
1.40000504
1.40000504
1.40000504
1.40000504
1.40000504
1.400005039
1.400005034
1.400005011
1.400004916
1.400004573
1.400003439
1.400000041
1.399990834
1.399967856
1.399915803
1.399807754
1.399597865
1.399221442
1.398600714
1.3976362
1.396181476
1.394157587
1.391599332
1.388307017
1.383879213
1.379070366
1.374155225
1.367833888
1.360047759
1.353519484
1.346805696
1.338368614
1.328914742
1.40000504
1.40000504
1.40000504
1.40000504
1.40000504
1.40000504
1.40000504
1.40000504
1.40000504
1.40000504
1.40000504
1.40000504
1.40000504
1.40000504
1.40000504
1.40000504
1.40000504
1.40000504
1.40000504
1.40000504
1.40000504
1.40000504
1.40000504
1.40000504
1.40000504
1.40000504
1.40000504
1.40000504
1.40000504
1.40000504
1.40000504
1.40000504
1.40000504
1.40000504
1.40000504
1.40000504
1.40000504
1.40000504
1.40000504
1.40000504
1.40000504
1.40000504
1.40000504
1.400005039
1.400005033
1.40000501
1.400004914
1.400004569
1.400003443
1.400000102
1.399991058
1.399968967
1.39991862
1.399813749
1.399616135
1.399258826
1.398655398
1.397740626
1.396413354
1.394450117
1.391903327
1.388883946
1.384971547
1.380126772
1.374933699
1.369416693
1.362192587
1.40000504
1.40000504
1.40000504
1.40000504
1.40000504
1.40000504
1.40000504
1.40000504
1.40000504
1.40000504
1.40000504
1.40000504
1.40000504
1.40000504
1.40000504
1.40000504
1.40000504
1.40000504
1.40000504
1.40000504
1.40000504
1.40000504
1.40000504
1.40000504
1.40000504
1.40000504
1.40000504
1.40000504
1.40000504
1.40000504
1.40000504
1.40000504
1.40000504
1.40000504
1.40000504
1.40000504
1.40000504
1.40000504
1.40000504
1.40000504
1.40000504
1.40000504
1.40000504
1.40000504
1.40000504
1.40000504
1.40000504
1.400005039
1.400005033
1.40000501
1.400004915
1.400004578
1.400003486
1.400000264
1.399991639
1.399970377
1.399922999
1.399823932
1.399634554
1.399300589
1.398736631
1.397864311
1.396586939
1.394806877
1.392395957
1.38945882
1.385388578
1.40000504
1.40000504
1.40000504
1.40000504
1.40000504
1.40000504
1.40000504
1.40000504
1.40000504
1.40000504
1.40000504
1.40000504
1.40000504
1.40000504
1.40000504
1.40000504
1.40000504
1.40000504
1.40000504
1.40000504
1.40000504
1.40000504
1.40000504
1.40000504
1.40000504
1.40000504
1.40000504
1.40000504
1.40000504
1.40000504
1.40000504
1.40000504
1.40000504
1.40000504
1.40000504
1.40000504
1.40000504
1.40000504
1.40000504
1.40000504
1.40000504
1.40000504
1.40000504
1.40000504
1.40000504
1.40000504
1.40000504
1.40000504
1.40000504
1.40000504
1.40000504
1.400005039
1.400005034
1.40000501
1.40000492
1.400004599
1.400003559
1.400000532
1.399992411
1.399972587
1.399927859
1.399835869
1.39965984
1.399344297
1.398819266
1.39802292
1.396679705
1.40000504
1.40000504
1.40000504
1.40000504
1.40000504
1.40000504
1.40000504
1.40000504
1.40000504
1.40000504
1.40000504
1.40000504
1.40000504
1.40000504
1.40000504
1.40000504
1.40000504
1.40000504
1.40000504
1.40000504
1.40000504
1.40000504
1.40000504
1.40000504
1.40000504
1.40000504
1.40000504
1.40000504
1.40000504
1.40000504
1.40000504
1.40000504
1.40000504
1.40000504
1.40000504
1.40000504
1.40000504
1.40000504
1.40000504
1.40000504
1.40000504
1.40000504
1.40000504
1.40000504
1.40000504
1.40000504
1.40000504
1.40000504
1.40000504
1.40000504
1.40000504
1.40000504
1.40000504
1.40000504
1.40000504
1.400005039
1.400005034
1.400005012
1.400004928
1.400004629
1.400003671
1.400000857
1.399993404
1.399975122
1.399933582
1.399852386
1.399651206
1.40000504
1.40000504
1.40000504
1.40000504
1.40000504
1.40000504
1.40000504
1.40000504
1.40000504
1.40000504
1.40000504
1.40000504
1.40000504
1.40000504
1.40000504
1.40000504
1.40000504
1.40000504
1.40000504
1.40000504
1.40000504
1.40000504
1.40000504
1.40000504
1.40000504
1.40000504
1.40000504
1.40000504
1.40000504
1.40000504
1.40000504
1.40000504
1.40000504
1.40000504
1.40000504
1.40000504
1.40000504
1.40000504
1.40000504
1.40000504
1.40000504
1.40000504
1.40000504
1.40000504
1.40000504
1.40000504
1.40000504
1.40000504
1.40000504
1.40000504
1.40000504
1.40000504
1.40000504
1.40000504
1.40000504
1.40000504
1.40000504
1.40000504
1.40000504
1.400005039
1.400005034
1.400005015
1.400004938
1.400004669
1.400003779
1.40000148
1.399989135
1.40000504
1.40000504
1.40000504
1.40000504
1.40000504
1.40000504
1.40000504
1.40000504
1.40000504
1.40000504
1.40000504
1.40000504
1.40000504
1.40000504
1.40000504
1.40000504
1.40000504
1.40000504
1.40000504
1.40000504
1.40000504
1.40000504
1.40000504
1.40000504
1.40000504
1.40000504
1.40000504
1.40000504
1.40000504
1.40000504
1.40000504
1.40000504
1.40000504
1.40000504
1.40000504
1.40000504
1.40000504
1.40000504
1.40000504
1.40000504
1.40000504
1.40000504
1.40000504
1.40000504
1.40000504
1.40000504
1.40000504
1.40000504
1.40000504
1.40000504
1.40000504
1.40000504
1.40000504
1.40000504
1.40000504
1.40000504
1.40000504
1.40000504
1.40000504
1.40000504
1.40000504
1.40000504
1.40000504
1.400005039
1.400005035
1.40000502
1.400004777
1.40000504
1.40000504
1.40000504
1.40000504
1.40000504
1.40000504
1.40000504
1.40000504
1.40000504
1.40000504
1.40000504
1.40000504
1.40000504
1.40000504
1.40000504
1.40000504
1.40000504
1.40000504
1.40000504
1.40000504
1.40000504
1.40000504
1.40000504
1.40000504
1.40000504
1.40000504
1.40000504
1.40000504
1.40000504
1.40000504
1.40000504
1.40000504
1.40000504
1.40000504
1.40000504
1.40000504
1.40000504
1.40000504
1.40000504
1.40000504
1.40000504
1.40000504
1.40000504
1.40000504
1.40000504
1.40000504
1.40000504
1.40000504
1.40000504
1.40000504
1.40000504
1.40000504
1.40000504
1.40000504
1.40000504
1.40000504
1.40000504
1.40000504
1.40000504
1.40000504
1.40000504
1.40000504
1.40000504
1.400005039
1.40000504
1.40000504
1.40000504
1.40000504
1.40000504
1.40000504
1.40000504
1.40000504
1.40000504
1.40000504
1.40000504
1.40000504
1.40000504
1.40000504
1.40000504
1.40000504
1.40000504
1.40000504
1.40000504
1.40000504
1.40000504
1.40000504
1.40000504
1.40000504
1.40000504
1.40000504
1.40000504
1.40000504
1.40000504
1.40000504
1.40000504
1.40000504
1.40000504
1.40000504
1.40000504
1.40000504
1.40000504
1.40000504
1.40000504
1.40000504
1.40000504
1.40000504
1.40000504
1.40000504
1.40000504
1.40000504
1.40000504
1.40000504
)
;

boundaryField
{
    inlet
    {
        type            calculated;
        value           nonuniform 0();
    }
    outlet
    {
        type            calculated;
        value           nonuniform 0();
    }
    bottom
    {
        type            calculated;
        value           nonuniform 0();
    }
    top
    {
        type            calculated;
        value           nonuniform 0();
    }
    obstacle
    {
        type            calculated;
        value           nonuniform List<scalar> 
78
(
1.012225142
1.014272238
1.016057945
1.017559942
1.019361171
1.021854264
1.024432387
1.025780557
1.026370656
1.026650753
1.027016339
1.027160975
1.026942335
1.026527914
1.026027002
1.025319799
1.024180866
1.022501467
1.020818509
1.019668537
1.01859461
1.017010507
1.015415079
1.014469772
1.013944863
1.013613217
1.01339116
1.013220803
1.01307217
1.013060491
1.013262004
1.013927567
1.014398312
1.014409209
1.014341359
1.014618824
1.01496446
1.01500912
1.014930528
1.014679328
1.014614588
1.014678628
1.014727431
1.014746379
1.014750132
1.01469799
1.014571806
1.014581938
1.014673275
1.014746635
1.014800683
1.014835105
1.014833906
1.014892164
1.015000028
1.015056528
1.015095609
1.015152358
1.015240279
1.01529796
1.015333413
1.015376241
1.015433291
1.015471261
1.015493567
1.015502909
1.015525537
4.793205723
4.788785354
4.787193284
4.791426429
4.79678671
4.802741418
4.806886683
4.808371462
4.807668233
4.803202241
4.7965835
)
;
    }
    defaultFaces
    {
        type            empty;
    }
    procBoundary20to13
    {
        type            processor;
        value           nonuniform List<scalar> 6(4.590570528 4.641920311 4.719025158 4.775896457 4.795791706 1.01044314);
    }
    procBoundary20to14
    {
        type            processor;
        value           nonuniform List<scalar> 
16
(
4.573342005
4.575456774
4.597303474
4.597303474
4.604151544
4.660795026
4.660795026
4.665066455
4.667591533
4.73131644
4.73131644
4.730891399
4.782712412
4.782712412
4.782032654
4.790203354
)
;
    }
    procBoundary20to19
    {
        type            processor;
        value           nonuniform List<scalar> 
30
(
1.002067185
1.001605849
1.011261952
1.020031782
1.079159733
1.16001031
1.244630584
1.318506316
1.372702713
1.394989642
1.399644657
1.399997189
1.400004999
1.40000504
1.40000504
1.40000504
1.40000504
1.40000504
1.40000504
1.40000504
1.40000504
1.40000504
1.40000504
1.40000504
1.40000504
1.40000504
1.40000504
1.40000504
1.40000504
1.40000504
)
;
    }
    procBoundary20to26
    {
        type            processor;
        value           nonuniform List<scalar> 
70
(
1.40000504
1.40000504
1.40000504
1.40000504
1.40000504
1.40000504
1.40000504
1.40000504
1.40000504
1.40000504
1.40000504
1.40000504
1.40000504
1.40000504
1.40000504
1.40000504
1.40000504
1.40000504
1.40000504
1.40000504
1.40000504
1.40000504
1.40000504
1.40000504
1.40000504
1.40000504
1.40000504
1.40000504
1.40000504
1.40000504
1.40000504
1.40000504
1.40000504
1.40000504
1.40000504
1.40000504
1.40000504
1.40000504
1.40000504
1.40000504
1.40000504
1.40000504
1.40000504
1.40000504
1.40000504
1.40000504
1.40000504
1.40000504
1.40000504
1.40000504
1.40000504
1.40000504
1.40000504
1.40000504
1.40000504
1.40000504
1.40000504
1.40000504
1.40000504
1.40000504
1.40000504
1.40000504
1.40000504
1.40000504
1.40000504
1.40000504
1.40000504
1.40000504
1.40000504
1.40000504
)
;
    }
    procBoundary20to27
    {