/*--------------------------------*- C++ -*----------------------------------*\
  =========                 |
  \\      /  F ield         | OpenFOAM: The Open Source CFD Toolbox
   \\    /   O peration     | Website:  https://openfoam.org
    \\  /    A nd           | Version:  7
     \\/     M anipulation  |
\*---------------------------------------------------------------------------*/
FoamFile
{
    version     2.0;
    format      ascii;
    class       volScalarField;
    location    "1.6";
    object      p;
}
// * * * * * * * * * * * * * * * * * * * * * * * * * * * * * * * * * * * * * //

dimensions      [1 -1 -2 0 0 0 0];

internalField   nonuniform List<scalar> 
2222
(
1.656770781
1.627649982
1.598663207
1.567064972
1.534214495
1.501088941
0.7398147161
0.7287877771
0.7169840069
0.7054761103
0.6908751806
0.6776718044
0.6686441409
0.6572592464
0.6437424784
0.6328150937
0.6239317071
0.6138722583
0.6091400048
0.610672808
0.7427457588
1.419782083
1.916602138
1.922562512
1.894344678
1.843953277
1.798220282
1.758439531
1.721871137
1.692715045
1.666960495
1.640650689
1.612014389
1.582949145
1.55305175
1.52175154
1.489379629
0.7204531198
0.7095757345
0.698189805
0.6866554666
0.673635851
0.6604649315
0.6514809196
0.641465914
0.6290320447
0.6166043388
0.609985602
0.6007694162
0.5947778716
0.5923388841
0.6304197059
1.106693865
1.756790758
1.882915964
1.872717694
1.841129347
1.797408065
1.753204481
1.714362387
1.677188012
1.645470955
1.620445247
1.598809951
1.570212705
1.535408599
1.502567735
1.470554009
0.7000024808
0.6899108794
0.6796280459
0.6684989247
0.6562697354
0.6446842359
0.6348042978
0.626220056
0.6143474952
0.6009907358
0.5957638614
0.5889145737
0.5815647426
0.5769854709
0.5845514748
0.8334455598
1.531729138
1.852811637
1.852024078
1.82424755
1.771653944
1.719449061
1.682575433
1.660498863
1.637046192
1.611385354
1.583018026
1.55394204
1.522095203
1.490212106
1.459771231
0.6794694689
0.6697928229
0.6603144558
0.6496882331
0.6379372055
0.6279812231
0.6177153021
0.6100963179
0.5991120893
0.5858332581
0.5803391519
0.5757285177
0.5679327052
0.562596137
0.5630353305
0.6556812782
1.247860701
1.777163151
1.803433977
1.781554858
1.740939892
1.701334305
1.667846913
1.634034208
1.607525938
1.584606951
1.559951233
1.531043744
1.502947193
1.477565829
1.451419752
0.662403813
0.6524941371
0.6432618774
0.6329612906
0.6210196972
0.6116085971
0.6020826188
0.5941832403
0.5852829869
0.5725126146
0.5669095497
0.5636241197
0.5564851613
0.5494168077
0.5469186085
0.5711102066
0.9810104574
1.588741104
1.765866299
1.762231939
1.744647255
1.714564102
1.677262637
1.631224174
1.589316462
1.551630784
1.521905102
1.511708114
1.497640796
1.476710644
1.451951926
0.6431643527
0.6337170359
0.6251817331
0.6155618439
0.6040647336
0.5951537011
0.5868870222
0.5785037631
0.5710564158
0.5591641417
0.5527792562
0.550044524
0.5445253328
0.5370444864
0.5329613218
0.538208549
0.7351315555
1.39679452
1.697135579
1.749347064
1.730353712
1.697113324
1.659383876
1.611890071
1.564828314
1.533913862
1.512435044
1.491940113
1.478059232
1.459940384
1.433993419
0.6247376248
0.6154606363
0.6073984825
0.5982596219
0.5873191609
0.5785831824
0.5712907201
0.5631752224
0.555711412
0.5457877417
0.5381879315
0.5360469094
0.5322853857
0.5246332361
0.519161624
0.5193857473
0.5871499491
1.150550166
1.585736303
1.679225099
1.680986032
1.653760645
1.623972103
1.594734895
1.558915938
1.521547003
1.493638211
1.471419206
1.446994978
1.418012786
1.405530483
0.6082529668
0.5987593984
0.5908659946
0.5822020556
0.5717820267
0.5630259613
0.5563263776
0.5489118474
0.5409467092
0.5329085475
0.5258465761
0.5238856809
0.5209807829
0.5137834498
0.5068284898
0.5051340282
0.524152681
0.8611376415
1.509566522
1.637388723
1.656210376
1.644475988
1.613508783
1.587168281
1.55805027
1.518763662
1.487770003
1.457278938
1.428150604
1.405986564
1.378404584
0.5897088464
0.5811699885
0.5737936968
0.5658699511
0.5560271839
0.5475818599
0.5417565301
0.5353332253
0.5274524527
0.520013341
0.5145585582
0.5116157142
0.5090190056
0.5029310389
0.4953268824
0.4923272572
0.496353855
0.6509777832
1.319064272
1.616022312
1.603833108
1.599509428
1.583065694
1.560005357
1.537799739
1.511773572
1.481824973
1.458122374
1.422476268
1.390451116
1.36972446
0.5709933126
0.5630215513
0.5559723852
0.5486823842
0.5394891071
0.5315435126
0.5263527746
0.520795737
0.5136273774
0.5058454626
0.5021332271
0.4984061991
0.4963080241
0.4917505588
0.4837464473
0.4797657386
0.4799750624
0.5363936334
1.021140796
1.566343955
1.577123418
1.555044848
1.531451465
1.516836962
1.504887394
1.492216066
1.47415736
1.449352067
1.418338768
1.375502842
1.348838983
0.5555268568
0.5473065384
0.5401880494
0.5330841643
0.5244407487
0.5165919195
0.5118616614
0.5069434824
0.50038374
0.4918201514
0.4893471365
0.4861426977
0.4838306411
0.4805041534
0.472951262
0.4686869217
0.4677845478
0.4837083048
0.7702134484
1.425948353
1.5617852
1.5499118
1.520965514
1.504267948
1.488464983
1.471670589
1.45210077
1.426541023
1.399877724
1.369060281
1.336898168
0.5389015768
0.5311950256
0.5243881997
0.5173961359
0.509244181
0.5018896592
0.4979907633
0.4938633603
0.4882352396
0.4802164709
0.4783526097
0.4761171857
0.4731510807
0.4701306181
0.4636688705
0.4588129439
0.4569807044
0.4606444657
0.5960998441
1.179956931
1.537807606
1.544492648
1.52737394
1.49314694
1.463554839
1.433887995
1.426296964
1.409566259
1.380181593
1.354307397
1.329503686
0.5218586842
0.5148774571
0.5086875049
0.5022023566
0.4948467728
0.4881182608
0.4846211501
0.4808492834
0.475901883
0.4682265382
0.4662371728
0.4647009396
0.4618300023
0.4588624181
0.4539504506
0.4481764573
0.4461851727
0.4467571508
0.494247729
0.9283539771
1.453006762
1.520613416
1.510719082
1.478323461
1.43124434
1.409447632
1.390768658
1.386345365
1.370928064
1.347599977
1.319793423
0.5078053911
0.5007710546
0.4944038083
0.487871446
0.4804712553
0.473994103
0.4707625654
0.4672378823
0.4625866099
0.4554381534
0.4534540038
0.4524551038
0.4497622567
0.4461971617
0.4427408549
0.4377275433
0.435388533
0.4342993009
0.4462841262
0.7123378885
1.289047472
1.495500214
1.490950628
1.466340913
1.424772632
1.387741063
1.373758204
1.352867259
1.33903987
1.330594467
1.314911993
0.4937782558
0.4866682115
0.4803751858
0.4740715956
0.4666286191
0.4606038209
0.4577222551
0.4544516544
0.4502707125
0.4440333303
0.4419032302
0.4413124691
0.4391634192
0.4356085883
0.4330997016
0.4296639325
0.4268543992
0.4244994759
0.4269402735
0.5498347349
1.065071621
1.447143549
1.472029112
1.455318615
1.420443995
1.371935952
1.343301165
1.335201294
1.324837196
1.307035732
1.295829642
0.4784130156
0.471453701
0.4656396428
0.460014343
0.4535300656
0.4485391457
0.4466922344
0.4442199097
0.4405027616
0.4347401623
0.4323808986
0.4316058473
0.4296188355
0.4259493562
0.423178803
0.4208522418
0.4177200277
0.4151193134
0.4146984453
0.4557840554
0.8440038938
1.339596142
1.439906331
1.433590698
1.408993049
1.365832279
1.330446836
1.308371138
1.298096278
1.293427772
1.284918711
0.4633779856
0.4574026764
0.4525466634
0.4477931842
0.4413079323
0.4364811063
0.4349689748
0.4326758483
0.4290500844
0.4237125046
0.421201588
0.4204387196
0.4186513721
0.4150367978
0.4122963341
0.4108729203
0.4079704727
0.4051164679
0.4033407981
0.4141087605
0.6512958777
1.181339593
1.405833782
1.404934615
1.388652859
1.351917425
1.31371549
1.298258618
1.284501453
1.269220889
1.264695124
0.4487813753
0.4432121878
0.4384124646
0.4338632508
0.4272763013
0.4230006631
0.422076478
0.4201514103
0.4168512416
0.4118150852
0.4090514363
0.4082732584
0.4066807663
0.4037699213
0.4012060724
0.4004775614
0.3984717026
0.395752371
0.3928942746
0.3952022953
0.5076896453
0.9825653721
1.349784394
1.38674584
1.374311398
1.346302484
1.301578583
1.272987166
1.260784361
1.249825315
1.24191706
0.4329702731
0.4272378331
0.4231726603
0.4192114184
0.4145261785
0.4101755415
0.4092178299
0.4080917193
0.4058976695
0.4017743195
0.3998045927
0.3990086722
0.3975904446
0.3951699984
0.392540489
0.391987498
0.3905030106
0.3873715383
0.3834222381
0.3834064635
0.4230221603
0.7879409817
1.241355413
1.358242682
1.353545511
1.333007291
1.297676016
1.263028792
1.237850405
1.226271146
1.226968126
0.4192397131
0.4137641102
0.4111475397
0.4083473829
0.4046188951
0.4006988755
0.3993441954
0.3980022176
0.3958368256
0.3918794837
0.3905194872
0.389625528
0.3881588655
0.3852769378
0.3820796761
0.3818027852
0.3808151536
0.3776162174
0.3741943973
0.3733383787
0.3840565464
0.6117293788
1.102943537
1.317913755
1.335802105
1.320939614
1.29090258
1.257257884
1.232347854
1.212817879
1.198976351
0.4056658971
0.4007409512
0.398722034
0.3959844561
0.3925794216
0.3888321854
0.3872013562
0.38583142
0.3836991992
0.3802503372
0.3798133593
0.379182033
0.3776227069
0.3742742441
0.3716707774
0.3719973698
0.3717082924
0.3698843578
0.3665837056
0.3640750232
0.3665752245
0.4784486289
0.9263866934
1.257697662
1.315285943
1.308356263
1.285883574
1.247779905
1.213028948
1.193097576
1.1862787
0.3876962391
0.383568177
0.382637685
0.3810933364
0.3788104279
0.3759716973
0.3742868488
0.3731331268
0.3709979498
0.3683897065
0.3685123637
0.368461478
0.3673845533
0.3645502388
0.3622475693
0.3625594256
0.3628287154
0.3618347368
0.3592401256
0.3572030576
0.3580336055
0.3997623559
0.7462708498
1.168951681
1.293894947
1.292187528
1.275702013
1.243036302
1.202448896
1.170248949
1.160188706
0.3739568031
0.3696742922
0.3686490727
0.3678875189
0.3669053437
0.3648256359
0.36383799
0.3629617895
0.3607793873
0.3588566725
0.3590515066
0.3595521908
0.3588325304
0.3566193455
0.3547160008
0.3546829717
0.3547768658
0.3537661923
0.3515206917
0.3490839431
0.3490813316
0.3615294836
0.5895711903
0.9907501967
1.22696976
1.263917866
1.249785236
1.270964381
1.342522757
1.472897412
1.643529483
0.3661415982
0.3616844946
0.3605452684
0.3594420666
0.3577213086
0.355627519
0.354850732
0.3536646146
0.3512365729
0.3493208257
0.3494031081
0.3495957841
0.3486038764
0.3461098713
0.3435754136
0.3429354227
0.3430460765
0.3422054281
0.3397112367
0.3366409954
0.3364182613
0.3409320706
0.4502685573
1.134867
1.385546416
1.640303665
1.935280163
2.15284704
2.327840827
2.436270369
2.448518704
0.3556766903
0.3501540081
0.349012912
0.3480604709
0.3464712203
0.3453585469
0.3450348188
0.3438401946
0.3413651265
0.3390321547
0.3388946431
0.3391846395
0.338610902
0.3369475252
0.3352804274
0.3343462328
0.3334634893
0.3324956051
0.3312752717
0.3316103334
0.3343669412
0.3719280465
0.6231081265
1.387256107
2.135770169
2.644378391
2.683045266
2.687351743
2.664398029
2.614389198
2.578517064
0.3389919313
0.3357538187
0.3347563713
0.3347886641
0.3342379635
0.3333207182
0.3330913189
0.3324942485
0.3310028347
0.3297002692
0.3295385091
0.3292485242
0.3283201494
0.3267741382
0.3265479171
0.3273579178
0.3277182006
0.3271475499
0.3263748031
0.3333770752
0.428493823
0.6541977732
0.8211784391
1.297653689
2.222835534
2.753487517
2.764137892
2.730987485
2.683424176
2.636539208
2.593250387
0.3267310952
0.3243385064
0.3233681751
0.3238362925
0.3239634418
0.3241204251
0.324940147
0.3248237007
0.3238469034
0.3223230795
0.3219916428
0.3222826616
0.3220149306
0.3210921498
0.3202885612
0.3194435466
0.3190056992
0.3192139226
0.3535838453
0.5025629027
0.7410320973
0.9465194689
0.9488847066
1.111522887
1.967952138
2.595593418
2.735233533
2.728773059
2.696245178
2.658051791
2.611929952
0.3197547423
0.3178934488
0.3170173146
0.317028496
0.3169624058
0.3167613549
0.3170858608
0.316979105
0.3160340127
0.3146406004
0.3132690682
0.3122339196
0.3108330164
0.3105302402
0.3100018458
0.3102180056
0.3153098378
0.3907492262
0.6130102558
0.8653108369
0.9085883535
0.9712609495
0.973097429
1.012779673
1.562341145
2.403540124
2.752737469
2.756301229
2.725428471
2.684516914
2.633210288
0.3105161461
0.3088746173
0.3087171519
0.3088621088
0.3087260578
0.3088021915
0.3092592246
0.3091014474
0.3083228938
0.3066388503
0.3066909667
0.3063499152
0.305610633
0.3036650168
0.3027787799
0.3222206707
0.4685219198
0.7372902549
0.8970389242
0.9714407811
0.9662952129
0.9752370002
0.9773824346
0.989421743
1.221902832
2.085112464
2.735065734
2.737723686
2.723220146
2.684606939
2.645778372
0.29985176
0.2985584921
0.2977766869
0.2978361871
0.2979869923
0.298388951
0.2994894516
0.300024728
0.2997750537
0.299187499
0.2964059178
0.2957601475
0.2950170776
0.2953383536
0.3435662205
0.5947587497
0.856040277
0.9391663768
0.9506631116
0.9778499975
0.9773270521
0.9789251378
0.9806913432
0.9855176601
1.059375761
1.662234429
2.528535224
2.697508252
2.712599857
2.70494164
2.67675975
0.2947238159
0.2920545297
0.2914200588
0.2913403676
0.2913743696
0.291528567
0.2918412694
0.2931983309
0.2938608039
0.2939642085
0.2935403238
0.2935320065
0.2926808634
0.2918749537
0.2953396444
0.598882217
0.9116104138
0.9655775215
0.9738124239
0.954587843
0.97845098
0.9798517355
0.9802401252
0.9817094219
0.9844041216
1.011462527
1.490795739
2.4363754
2.713856954
2.712193327
2.703249129
2.680438966
0.2919275113
0.2895332652
0.2887765734
0.2888084512
0.2885788541
0.2885353662
0.2888311344
0.290164262
0.2910532451
0.2913259813
0.2907832776
0.291615209
0.2906687944
0.290044578
0.3744346969
0.7651739014
0.9246440083
0.9651136896
0.9764901247
0.9561073734
0.9769331692
0.9805829633
0.9821026498
0.9839882924
0.9857600459
1.005446848
1.442022769
2.434399055
2.719298142
2.716261695
2.705291431
2.677722696
0.2881869392
0.2860995192
0.2849859835
0.2854214826
0.2858512174
0.2864549078
0.287185511
0.2885534214
0.2894819538
0.2888933097
0.2885635406
0.2890830271
0.2887099255
0.2882909602
0.5877741165
0.8781368022
0.9184445799
0.9604512888
0.9766184265
0.9580708706
0.9767005629
0.981674258
0.9826286753
0.9847184351
0.9857098779
1.002211312
1.395509175
2.423258455
2.719670993
2.716887031
2.708460251
2.676473702
0.2843890085
0.2823519072
0.2823597956
0.2837012593
0.2846305852
0.2852501451
0.286047397
0.2875231953
0.2884227372
0.2877571781
0.2876288313
0.2877200584
0.2869166098
0.320426253
0.7193605278
0.9568241448
0.9231125879
0.9563751749
0.9784200435
0.9604063516
0.9751060019
0.98031117
0.983167161
0.9869953228
0.9877460157
0.9990826479
1.351737345
2.415372902
2.721563818
2.717735509
2.710344999
2.673960291
0.28257967
0.2807954813
0.2813321046
0.2825972339
0.2833997109
0.2838165781
0.284574856
0.2861757694
0.2868298509
0.2865577283
0.2866669781
0.2868359533
0.2850919824
0.5070575352
0.8249450492
0.9651785007
0.9371590172
0.9564497934
0.9758818629
0.9627035541
0.975188189
0.9808402566
0.9829941875
0.9870231924
0.9882815107
0.9993722103
1.30945193
2.403772073
2.723575861
2.718930054
2.711578852
2.670635838
0.2812394136
0.2797040808
0.2802553448
0.2812046344
0.2813716438
0.2811125815
0.2816179404
0.2833649393
0.2837292469
0.2843058745
0.2845382269
0.2842376451
0.293392434
0.6782647777
0.9334987555
0.9650314362
0.947715119
0.9600449631
0.9764467338
0.9648129652
0.9736185176
0.9811395945
0.9836219445
0.9876677328
0.9895411732
0.998899857
1.270297368
2.389155173
2.724458809
2.72016287
2.713709312
2.667172192
0.2791222126
0.278226309
0.2782628162
0.2783690476
0.2775161263
0.2770975962
0.2780029913
0.2799908351
0.2808901278
0.2808936141
0.2811921021
0.28154664
0.4309752882
0.7847899758
0.962554347
0.9581200554
0.9523423598
0.9676652397
0.9812148977
0.9680852523
0.9734823735
0.9812577411
0.9841547154
0.9877875191
0.9905764828
0.9992724075
1.23411529
2.371847371
2.724106955
2.720477303
2.714425818
2.664264796
0.2750842342
0.2750719752
0.2744207019
0.2742647341
0.2745365759
0.2752281534
0.2765398883
0.2786548186
0.2796951218
0.2795639805
0.2797616573
0.2814910306
0.6404198114
0.9114233761
0.9688994248
0.9487465094
0.9549381861
0.9764906308
0.9865064216
0.9720857706
0.9747091045
0.981869188
0.9841232868
0.9873021243
0.9910318136
0.9992337876
1.201043833
2.353541275
2.721155448
2.71958414
2.714367393
2.662789902
0.2708092385
0.2709383341
0.2712533368
0.2723399609
0.2735185504
0.2745306645
0.2760057945
0.2780409935
0.2791410392
0.2790871551
0.2790018746
0.3621425527
0.7442198462
0.9632124102
0.9662770197
0.9477303426
0.9592839503
0.9805660407
0.9888502689
0.9746837228
0.9765222389
0.9829389856
0.9846356343
0.9869908596
0.9905233187
0.9983277784
1.170606847
2.334375546
2.71668961
2.716090541
2.71322488
2.660970883
0.2707008893
0.2694609386
0.2693155204
0.2702204006
0.271720919
0.273199081
0.2742083972
0.2755923507
0.2773141423
0.2781113726
0.2779466261
0.2771596887
0.5876772353
0.8688035482
0.9708008835
0.9504324007
0.9502637328
0.9657510581
0.981308738
0.9892205013
0.9764873794
0.9778244015
0.9841956404
0.9859860364
0.9877129253
0.9896669775
0.9971622601
1.142371872
2.313774222
2.714603379
2.711914662
2.711135471
2.665490803
0.270414675
0.2690020928
0.2687592216
0.2700635969
0.2715018251
0.272383541
0.2729864897
0.2740757658
0.2755346862
0.2755741049
0.2748506906
0.3129722092
0.7191585072
0.9536198946
0.9698577089
0.9405729208
0.9585749389
0.9692912649
0.9824276837
0.989039089
0.9778698697
0.9789345616
0.9850999828
0.9873733772
0.9891037224
0.9892655045
0.9945698094
1.115967839
2.291128707
2.712338605
2.710253567
2.706724003
2.671805207
0.2696506714
0.26834096
0.2683971852
0.2696045637
0.2703037133
0.27016507
0.2700284463
0.2709069259
0.2718874072
0.2718592452
0.272377206
0.516139143
0.8324148866
0.9678713956
0.955453553
0.9426429657
0.9701413308
0.969032098
0.9738109733
0.9824316808
0.9760720626
0.9785527355
0.9857263277
0.9886958064
0.9907162266
0.9899933719
0.9931327359
1.092706755
2.266047249
2.708232707
2.709942574
2.704560124
2.676902347
0.2674658364
0.2664505724
0.2669904013
0.2678350763
0.2673533807
0.2661691299
0.2662510255
0.2678451947
0.2694804415
0.27056028
0.2849098183
0.6915439604
0.9398931396
0.9707230907
0.9426871486
0.9530397657
0.9768553113
0.9664398367
0.9597387999
0.9727241575
0.9731252444
0.9775822053
0.985686517
0.9898886184
0.9923387286
0.9911463823
0.9929321941
1.073348692
2.238985189
2.706464629
2.71079536
2.704097336
2.681501091
0.2631810856
0.2624978051
0.2639034926
0.2640915589
0.263532624
0.2638024018
0.264847523
0.2667040047
0.2688934639
0.2695238656
0.4453504999
0.7922909848
0.9626149592
0.9602599037
0.9439627459
0.9677721568
0.9778712161
0.9590834677
0.9523103651
0.9687648365
0.9740103964
0.9778649421
0.9855009378
0.9903452539
0.9935532196
0.9925565156
0.9935412161
1.058304673
2.210261554
2.704593226
2.712142553
2.705384709
2.684725971
0.2605266218
0.2595753681
0.2602513742
0.2610631177
0.2620338927
0.263089851
0.2643664216
0.2665874112
0.2680647834
0.2712187221
0.6801049837
0.9092136519
0.9667650858
0.9417513258
0.9514154316
0.9751175684
0.9772546714
0.9544345984
0.9533181647
0.9708420398
0.976092766
0.9793546297
0.9856293083
0.9905617412
0.9940213018
0.9939975667
0.9947503217
1.04734158
2.180816441
2.698115467
2.713030116
2.705860426
2.686201135
0.2595846106
0.2588416071
0.2589449782
0.2601876861
0.2616033773
0.262807418
0.2639910267
0.2659520284
0.266422323
0.3738031455
0.7746991596
0.9575526142
0.9607519632
0.9389539256
0.9638874664
0.9754939879
0.9706684299
0.9547777897
0.9558400801
0.9743184853
0.9795527676
0.9814020351
0.9859636693
0.9902483359
0.9942242637
0.9950420485
0.9960297769
1.039118924
2.151266902
2.692317326
2.710804944
2.709800042
2.686758517
0.2592362158
0.2586512092
0.2586392374
0.2601034253
0.2612608764
0.2617599238
0.2625895847
0.2638815287
0.2631616615
0.6236089668
0.8519436198
0.9641291135
0.9453705497
0.9442259106
0.9722258459
0.9710408459
0.9612125555
0.9571919342
0.9637266427
0.9819136848
0.9845280433
0.9836492364
0.9863194851
0.9893243131
0.9937034625
0.9956967627
0.9970909671
1.032407411
2.121469896
2.687048714
2.705560164
2.713641376
0.2575095074
0.2581579771
0.2579385165
0.2584510131
0.2595673759
0.2598079337
0.2592175965
0.2593343564
0.2591541452
0.3334285355
0.8075964605
0.9350421994
0.9642595997
0.940495887
0.9576682482
0.9741117197
0.9628508146
0.9593901562
0.9633638356
0.974143136
0.9874676142
0.9883994183
0.9854063019
0.9869209099
0.9886060274
0.9919836386
0.9955187735
0.9977427014
1.026647357
2.091290525
2.680032229
2.707512781
2.720368012
0.2550562923
0.2554821535
0.255851016
0.2570886659
0.2576821972
0.2565275202
0.2551391509
0.2563580553
0.2579396835
0.5648959874
0.8500804093
0.9651302917
0.9523956371
0.9437518972
0.9690055978
0.9717148348
0.9583089247
0.9609982342
0.9703573193
0.9773281345
0.9876299821
0.9900236228
0.9868620422
0.9877582927
0.989145898
0.9915913725
0.9937517895
0.9973287128
1.021601608
2.059686419
2.672389419
2.711356367
2.726453179
0.2509538191
0.2521575247
0.2520859901
0.2538747359
0.2539879929
0.2529537604
0.2532865924
0.2548024684
0.302859886
0.7918070053
0.888399448
0.9681925183
0.9423207273
0.9533813182
0.972088278
0.9649479996
0.9591753289
0.9661582134
0.9734218274
0.9773945914
0.9864451888
0.9890181917
0.9871520843
0.9882235125
0.9904365837
0.9924729313
0.9929003708
0.9953949794
1.016887019
2.025954596
2.664687219
2.71302629
2.729499899
0.2487073827
0.2498424493
0.2497110702
0.2506771144
0.2513068568
0.2516220324
0.2529844372
0.2541283441
0.5148673715
0.8674745907
0.937763998
0.967265029
0.9447970561
0.9640336159
0.9720894761
0.9596988668
0.9627206554
0.9745851422
0.9749635394
0.9732092274
0.9802115812
0.9854389777
0.985781229
0.9879514038
0.9915810667
0.9939461027
0.993531933
0.9941393748
1.012334554
1.990175623
2.65702747
2.710867218
2.730782253
0.2481289584
0.2490891312
0.2489519564
0.249596363
0.2504897261
0.2512357181
0.252354685
0.2803499102
0.7652628142
0.8759065956
0.9621798385
0.9553653511
0.950304012
0.9679876912
0.9663490174
0.9595480938
0.9693803446
0.9782318429
0.9743286976
0.9672886978
0.9719970961
0.9792913645
0.9826284665
0.9872973745
0.9931042445
0.9959178814
0.9947902732
0.9942599113
1.008534467
1.952930855
2.646712193
2.707235796
2.73279332
0.2481913989
0.2490864502
0.2488515249
0.2492257557
0.2502240726
0.2510261756
0.2501138188
0.4703644229
0.8676053615
0.9058297185
0.9664486822
0.9448014881
0.9563698319
0.9683708327
0.9596355876
0.9615366057
0.9747479233
0.9793538215
0.9718550382
0.9662304692
0.9700695871
0.976989701
0.9812650155
0.9871016331
0.9943953134
0.9972646403
0.996265878
0.9949553794
1.005902009
1.913838222
2.632292929
2.703467038
2.738486645
0.2473321824
0.2483335399
0.248571498
0.2490726187
0.2495778288
0.2489859127
0.2624920585
0.7423848019
0.8692820103
0.9462645018
0.968905993
0.9462511123
0.9597410521
0.9646879454
0.9580942827
0.9663193309
0.9765599025
0.9775074833
0.9715395223
0.9684961847
0.972358347
0.9783012628
0.9817384599
0.9865173441
0.9941127619
0.9978148838
0.9973542285
0.9956566948
1.00447157
1.8717175
2.62258559
2.701454988
2.746883815
0.24518171
0.2462844838
0.2471469216
0.2478989585
0.2477728898
0.245443383
0.4283702723
0.867180059
0.8972448913
0.9656985665
0.9640165308
0.9501520069
0.9611710761
0.9584493749
0.9594985504
0.971826504
0.9758359932
0.9740382755
0.973738368
0.9728235106
0.9762117592
0.9809284052
0.9829982137
0.9863248265
0.9918566025
0.996547646
0.9979577919
0.9970327139
1.00399797
1.825457687
2.6194551
2.703224525
2.750864077
0.2391251306
0.2413794486
0.2423434096
0.2439145293
0.2450201791
0.2437790854
0.2487909891
0.7114362421
0.8623497103
0.9375648602
0.9702298689
0.9515872141
0.9554055122
0.9624691048
0.9574076485
0.9625604441
0.9735990974
0.9727853994
0.9737839989
0.9784057377
0.9800509795
0.9825512779
0.9851403259
0.9853857135
0.9875182837
0.9902307094
0.9935246773
0.997633388
0.9981871758
1.003834361
1.775485468
2.624736225
2.711453471
2.753488785
0.2370925276
0.2395432591
0.2392116448
0.2398276212
0.24066697
0.2408994896
0.392460553
0.856327371
0.8857333221
0.9609691369
0.9716102908
0.9455377476
0.9586177487
0.9611035636
0.9593554106
0.9683993559
0.9741766909
0.971370551
0.9753188417
0.9836635507
0.9846403334
0.9864042922
0.9897500353
0.9890929838
0.9894058122
0.99058646
0.9920277852
0.9948305085
0.9978863621
1.003430111
1.723949417
2.632187223
2.723999381
2.752443291
0.2364527707
0.2387048338
0.2384661668
0.2383833185
0.2388635247
0.2407559979
0.6792790206
0.8555089131
0.9220721036
0.9685216333
0.962501588
0.9458815921
0.960730584
0.9598284089
0.9625717907
0.97168324
0.9725945494
0.9723421242
0.9786675431
0.9857878894
0.986193487
0.9882308511
0.9932561405
0.9930503741
0.9925022283
0.9923318247
0.9927983753
0.9934666879
0.9953946386
1.00186241
1.672669218
2.635839411
2.736177328
2.749347478
0.2363737368
0.2385205951
0.2382690977
0.2379822446
0.2386764297
0.3650751284
0.8460506787
0.8763703487
0.953681005
0.9697264424
0.9460512928
0.948557645
0.9623442938
0.9613223745
0.9667244804
0.9730717707
0.9708379509
0.9737795267
0.9820947718
0.9856836982
0.9857408152
0.9888903109
0.9953278939
0.9965367667
0.9954731149
0.9947105414
0.9947864251
0.9939333088
0.9940862298
0.9996479421
1.621697052
2.632525455
2.746124852
2.742425808
0.2357661104
0.2379638259
0.2378452901
0.2377678051
0.238334798
0.6481832769
0.8554736856
0.9126792707
0.9680937821
0.9629911454
0.9382090596
0.9555533093
0.9627639134
0.9624645843
0.9687327375
0.9718536372
0.9700637841
0.9755220162
0.9820651642
0.9819237726
0.9805783469
0.9864133165
0.9965248862
0.9984385068
0.997708015
0.9962285663
0.9961079639
0.9953265433
0.9945101597
0.9985215353
1.570224132
2.632239375
2.75108051
2.73785717
0.234056203
0.2361748493
0.2365403303
0.2361684348
0.3467861239
0.8422065881
0.8736369194
0.9493430932
0.9710559978
0.9484790896
0.9399491806
0.9616778001
0.9617436267
0.9626378799
0.9692581502
0.9694927746
0.9702019882
0.9763948834
0.9803410698
0.976993832
0.9755531248
0.9825638423
0.9939973789
0.9979941656
0.9975539758
0.9964196604
0.9967974611
0.9969082645
0.9957805229
0.9984996227
1.51789721
2.639513315
2.757798843
2.743464953
0.2302887325
0.2322354617
0.2324978836
0.2333812105
0.6194132392
0.8759913165
0.911623497
0.9685002426
0.9659362526
0.936747732
0.9456321844
0.9644644806
0.9612662167
0.9631466535
0.9685171837
0.9681155725
0.9720649663
0.9780544747
0.9783691067
0.9751896524
0.9745685757
0.9797267085
0.9888343847
0.9919477078
0.9933422333
0.9953018426
0.9977382085
0.9986770003
0.9973737925
0.9991082943
1.465538057
2.650861678
2.763748954
2.748993982
0.2268330082
0.2289226318
0.2290218018
0.336218272
0.8396569237
0.8752970053
0.9473921823
0.9715376309
0.9514336886
0.9370768935
0.9572880373
0.9655262947
0.9604153713
0.9639944508
0.966687205
0.9688214277
0.9745980342
0.9789543832
0.9775986532
0.9772921773
0.9769941661
0.9797711358
0.9835939319
0.984478458
0.9879334552
0.9939570299
0.9992142793
1.000329037
0.9988511638
0.9998779762
1.414894647
2.656171354
2.766794244
0.2247140363
0.2258248064
0.227151537
0.2290603026
0.6022926359
0.8956595149
0.9032323153
0.964855904
0.9659751365
0.9342383025
0.9416199578
0.9660750386
0.9623985987
0.9588781492
0.9642382247
0.9655099775
0.9705728213
0.9772165835
0.97859637
0.9778228997
0.9808182057
0.9803102881
0.9799632982
0.9781984301
0.9795388461
0.9835686298
0.9908360775
0.998808759
1.001008532
0.9996297696
1.000272438
1.366208601
2.655797874
2.767930883
0.2245998046
0.2257817662
0.2267598039
0.334271485
0.8461129738
0.8785584547
0.9386915562
0.9682789035
0.9493998184
0.9328688597
0.9523617633
0.9683098929
0.9575736591
0.9585104007
0.963990557
0.9666773217
0.9728609124
0.9785681142
0.9779840236
0.9807754737
0.9843569792
0.983382282
0.9790047018
0.9779781451
0.9810352813
0.9844922476
0.9885999999
0.9954850693
0.9996279507
0.9990294517
0.9997557866
1.317489253
2.648935741
2.767170608
0.223597379
0.2252024881
0.2268581959
0.5956271863
0.9101419804
0.8986939017
0.9623125585
0.9632707263
0.9309826988
0.9361323359
0.964772254
0.9649324631
0.9543684668
0.9598056562
0.9640892377
0.9679845566
0.9748305608
0.9781063794
0.9785228961
0.9834406258
0.9872083625
0.9839028505
0.9786539397
0.981315848
0.9849947313
0.9872441575
0.9889322098
0.9927542964
0.9970357412
0.997711594
0.9988149894
1.266146585
2.637385467
2.765842581
0.2214151003
0.2231232284
0.3358137163
0.8557955742
0.8840740068
0.9311378663
0.9674478217
0.9484141843
0.9298638863
0.9478945921
0.9675928195
0.9571421463
0.9544535878
0.9614896284
0.9644672019
0.9682660062
0.9742529186
0.976006934
0.9798147138
0.9855321044
0.9879774135
0.9844418969
0.9825653223
0.9860830246
0.9909283168
0.9914689645
0.9912292955
0.9927495898
0.9954866654
0.99678641
0.9984330252
1.212671375
2.62202237
2.766709758
0.2173313674
0.2210223822
0.5920350856
0.9212881205
0.8978225132
0.9592672215
0.9660026913
0.9333785962
0.934458703
0.9632937026
0.9649606569
0.9504269723
0.9560002186
0.9632767081
0.9649002944
0.9681321999
0.9712689043
0.973918616
0.98115998
0.9865724936
0.9870069043
0.9849505179
0.9858295454
0.9914283116
0.9966098562
0.9960278028
0.994062556
0.993579447
0.9949673148
0.9967662798
0.9988856454
1.163649081
2.605181343
2.764483579
0.2153250069
0.3334444609
0.8509083643
0.9064443503
0.923687146
0.9678266002
0.9556646106
0.9322044761
0.9482237764
0.9671639407
0.9578389733
0.9504603795
0.9587960471
0.9647488812
0.9653788103
0.9674020393
0.9684083455
0.9730997382
0.9810999807
0.9846810998
0.9857518193
0.9861575324
0.989203706
0.9954758117
1.000504554
0.9994996181
0.9961148152
0.9938304759
0.9944912649
0.997048525
)
;

boundaryField
{
    inlet
    {
        type            fixedValue;
        value           nonuniform 0();
    }
    outlet
    {
        type            zeroGradient;
    }
    bottom
    {
        type            slip;
    }
    top
    {
        type            slip;
    }
    obstacle
    {
        type            zeroGradient;
    }
    defaultFaces
    {
        type            empty;
    }
    procBoundary10to4
    {
        type            processor;
        value           nonuniform List<scalar> 
32
(
1.682824743
1.647550373
1.610711232
1.576056929
1.542207339
1.5106902
0.7629514385
0.7504177459
0.737511384
0.7251020972
0.7081226585
0.6955670948
0.6858797555
0.673388112
0.6598090204
0.6493676766
0.637423209
0.6289478188
0.6246979251
0.6377412548
0.9649662263
1.73365763
1.972839878
1.958389212
1.919914872
1.87140019
1.826092552
1.787779819
1.755661132
1.723699857
1.689730536
1.689730536
)
;
    }
    procBoundary10to5
    {
        type            processor;
        value           uniform 1.468837295;
    }
    procBoundary10to9
    {
        type            processor;
        value           nonuniform List<scalar> 
55
(
0.7594284188
0.7397846379