/*--------------------------------*- C++ -*----------------------------------*\
  =========                 |
  \\      /  F ield         | OpenFOAM: The Open Source CFD Toolbox
   \\    /   O peration     | Website:  https://openfoam.org
    \\  /    A nd           | Version:  7
     \\/     M anipulation  |
\*---------------------------------------------------------------------------*/
FoamFile
{
    version     2.0;
    format      ascii;
    class       volScalarField;
    location    "0.9";
    object      rho;
}
// * * * * * * * * * * * * * * * * * * * * * * * * * * * * * * * * * * * * * //

dimensions      [1 -3 0 0 0 0 0];

internalField   nonuniform List<scalar> 
2222
(
1.192416232
1.195607853
1.196080254
1.1961196
1.196194763
1.197534766
1.199904925
1.202900566
1.205129343
1.206136442
1.206610198
1.206929043
1.206989784
1.207223118
1.208172311
1.188959397
1.188489522
1.188404852
1.187804991
1.189576272
1.190656882
1.189219117
1.189908152
1.189467281
1.189510276
1.189528084
1.189177535
1.189004665
1.189327785
1.189806316
1.191128875
1.192234529
1.18896952
1.188319714
1.193549259
1.196961378
1.193117404
1.187534892
1.187782659
1.191745324
1.195268437
1.195572359
1.195716487
1.195986325
1.197351354
1.1998126
1.202522457
1.204499012
1.205611318
1.206195204
1.206451748
1.206466177
1.206848273
1.207625441
1.189235188
1.189350197
1.189998416
1.190039437
1.19178494
1.192207428
1.191237983
1.19182166
1.191655303
1.191584611
1.191505078
1.190485118
1.189256261
1.18936555
1.189606862
1.191408398
1.193341053
1.190825494
1.188994168
1.193321525
1.196965868
1.194482884
1.18930972
1.189646854
1.191801422
1.194966939
1.196222711
1.196094002
1.196311481
1.197619367
1.19994525
1.202201909
1.204000753
1.205257446
1.206012084
1.206692993
1.206818629
1.207226596
1.207767567
1.191238588
1.192996956
1.193997483
1.193203409
1.193635953
1.193414329
1.192820406
1.193459983
1.193487269
1.193302409
1.193190318
1.192671872
1.191759016
1.190769179
1.190748971
1.192528772
1.194586285
1.192783851
1.191283329
1.19478889
1.197810566
1.195841973
1.191177915
1.191895309
1.193665739
1.196730247
1.198000944
1.197698147
1.198143619
1.199422863
1.201273353
1.203268985
1.205074942
1.206316603
1.207088043
1.207820578
1.208362335
1.20858892
1.208729599
1.197347917
1.197494465
1.197669481
1.196260845
1.196040222
1.196085965
1.195446614
1.196026426
1.196027697
1.195628739
1.195499537
1.195380573
1.19541333
1.195473216
1.195604973
1.196133924
1.197119949
1.195491109
1.194338678
1.197360074
1.20028326
1.198685084
1.19502487
1.195540831
1.196906103
1.199718042
1.201344272
1.201671734
1.202342417
1.203604892
1.205161195
1.206735405
1.208318806
1.209443072
1.210133743
1.210787508
1.211636458
1.211832292
1.212000754
1.20435193
1.203496901
1.203482941
1.202311064
1.202595802
1.203551224
1.202355591
1.202605124
1.202220788
1.201379495
1.200875622
1.20056872
1.200913306
1.201756029
1.202623661
1.203204478
1.203094681
1.200720966
1.19933721
1.202758712
1.205945199
1.204597524
1.202241781
1.202021144
1.203326135
1.205368925
1.207370001
1.208215069
1.208889918
1.209872555
1.211274671
1.213002768
1.214359209
1.215286037
1.215868649
1.216488248
1.217214363
1.217837645
1.217686996
1.214759977
1.21398151
1.214092535
1.213475144
1.213900741
1.214325678
1.212945696
1.213092452
1.212732194
1.211849847
1.211300406
1.210647807
1.210381217
1.210945249
1.211614118
1.212069148
1.211943346
1.209664688
1.208397433
1.211276112
1.214738018
1.213678563
1.212190143
1.211483525
1.212922713
1.214290751
1.216284545
1.217456305
1.21800095
1.218758165
1.219973168
1.22177882
1.222973145
1.223693585
1.224158789
1.224654581
1.225393624
1.226263977
1.226521207
1.228143575
1.228159242
1.227277512
1.22741476
1.227257792
1.225700027
1.225644471
1.225176619
1.224330426
1.223880559
1.22324552
1.222863469
1.223156843
1.223250643
1.223427703
1.223275569
1.221021244
1.22030407
1.223121036
1.226469781
1.225398423
1.224697933
1.224110561
1.224859172
1.22581509
1.227508156
1.228993507
1.229539839
1.230043334
1.23117537
1.233019236
1.234177888
1.234857286
1.235119817
1.235354916
1.23598774
1.237069487
1.237953968
1.24363371
1.243999803
1.243081641
1.243271524
1.242755079
1.241205497
1.240965476
1.240312468
1.239504642
1.23896432
1.238255819
1.237640437
1.237182862
1.236550477
1.236658057
1.236717798
1.234498843
1.234085481
1.237240397
1.240304363
1.238961299
1.23871528
1.238504419
1.23816788
1.238631448
1.239843444
1.24136853
1.24208971
1.242494846
1.243652211
1.245477596
1.246752253
1.247554311
1.247587213
1.247716509
1.248254672
1.249618627
1.251196523
1.258880419
1.25892051
1.258043479
1.25857506
1.258284515
1.256879154
1.256520177
1.255735736
1.254940532
1.254216951
1.253424228
1.25237028
1.251210562
1.250201546
1.250216709
1.250674594
1.248773425
1.248509783
1.252120993
1.254488239
1.252605983
1.252283972
1.252287775
1.25145796
1.2514561
1.252470425
1.254035705
1.254845566
1.255467452
1.256652238
1.258385231
1.259893527
1.260741239
1.260559647
1.260650209
1.261120595
1.262649065
1.265063828
1.272675101
1.272293514
1.270982774
1.271608063
1.271526751
1.270246446
1.269870988
1.269037891
1.268209548
1.267306377
1.266637835
1.265577017
1.264300293
1.263395355
1.263338927
1.264255381
1.262581672
1.261857292
1.265731708
1.267400505
1.265225387
1.264673746
1.264771151
1.263812026
1.263441916
1.264162273
1.265727159
1.267107882
1.268045401
1.269177457
1.270887242
1.272166359
1.272529699
1.27232856
1.272419478
1.272836727
1.274567913
1.277400525
1.283732017
1.282858284
1.281596122
1.282432276
1.282693375
1.281402391
1.280999253
1.280017029
1.279089982
1.278035456
1.277350421
1.276384571
1.275426737
1.275015878
1.275275423
1.275563913
1.27348144
1.272723201
1.277252697
1.278587808
1.276090318
1.275206627
1.275497992
1.274378262
1.273587973
1.274082435
1.275766071
1.277729777
1.279000831
1.280037479
1.281375117
1.282392789
1.282425167
1.282232893
1.282367463
1.282872429
1.284423736
1.287454331
1.291662148
1.291267649
1.290210984
1.291280782
1.291674953
1.290405413
1.290024072
1.289101848
1.288132143
1.286898778
1.285599751
1.284635603
1.284240317
1.284378555
1.2850492
1.284503661
1.28198401
1.281017835
1.285703034
1.28671468
1.283920923
1.283213768
1.283751158
1.282301519
1.281459314
1.282011941
1.283601694
1.285706958
1.287110211
1.288114495
1.289149123
1.289902581
1.289581121
1.289418722
1.289642944
1.290359415
1.291862451
1.294313746
1.297485254
1.296592355
1.297653937
1.297767203
1.296782708
1.296452608
1.295859447
1.294962014
1.293703099
1.29227929
1.291037601
1.290412133
1.290431783
1.291332799
1.290672367
1.287551515
1.286926683
1.291229239
1.2915656
1.288490562
1.288540148
1.289589846
1.28903548
1.287314821
1.28740784
1.288758993
1.290726556
1.292317237
1.293356007
1.294063704
1.294616897
1.294246686
1.294169603
1.294404497
1.295117677
1.296643241
1.298804273
1.301425153
1.301279439
1.300250197
1.300921298
1.300677714
1.299923639
1.299694717
1.299453583
1.298689417
1.297874096
1.296927006
1.295691945
1.294847872
1.294397521
1.294659997
1.293979484
1.290539672
1.290532186
1.294420306
1.294014233
1.290712742
1.291361448
1.293411033
1.293226149
1.291683611
1.291115567
1.291981732
1.293583893
1.29495073
1.295996093
1.29654717
1.296986824
1.296913601
1.296860479
1.297069163
1.297758697
1.299152459
1.300991738
1.303122349
1.302841372
1.301500721
1.3019862
1.301648513
1.301082831
1.300874025
1.300904829
1.300199332
1.299626522
1.299020874
1.298321854
1.297357116
1.296260814
1.295769192
1.294831316
1.291480141
1.291927509
1.295716064
1.294900075
1.291399128
1.292190251
1.29520085
1.295625813
1.294351132
1.292924548
1.293405831
1.294577016
1.295703376
1.296618395
1.297268279
1.298238937
1.298363226
1.298160519
1.29829934
1.298930331
1.30017676
1.301672465
1.303488157
1.303109325
1.301462076
1.301818855
1.301291164
1.300863957
1.30056334
1.300575994
1.299936735
1.299424003
1.299157939
1.298863083
1.297868227
1.296170402
1.295376838
1.294661519
1.291679454
1.29261343
1.296322951
1.295149627
1.291237396
1.292001844
1.295713981
1.29651832
1.295475704
1.293398825
1.293198908
1.293938429
1.294844489
1.295963655
1.297346346
1.298827635
1.298967658
1.298615274
1.298676162
1.299274023
1.300348431
1.301785436
1.303567504
1.302310167
1.300769749
1.301148676
1.301128932
1.30076542
1.30028631
1.300171887
1.299582361
1.298918235
1.298634367
1.298297292
1.297368715
1.295780157
1.295301569
1.295007891
1.292011207
1.293057764
1.296790546
1.295218156
1.290813979
1.291261312
1.29500201
1.296230961
1.295296805
1.293091252
1.29238952
1.292843712
1.293780736
1.295511427
1.29743856
1.298683675
1.2987431
1.298567372
1.298661215
1.29929333
1.300319029
1.301874541
1.303713574
1.301359833
1.300291365
1.30071419
1.301352652
1.301103352
1.300449907
1.300283934
1.299739837
1.298869423
1.298182851
1.29744986
1.296694419
1.295700743
1.295644471
1.295663074
1.292318155
1.293220188
1.29718476
1.295429672
1.290497204
1.290739902
1.294147026
1.295226637
1.294439534
1.292361186
1.291688888
1.292259852
1.293396619
1.295487907
1.297405843
1.29820456
1.298246426
1.298229901
1.298512122
1.299225449
1.300284179
1.301878237
1.303679543
1.300453445
1.299567606
1.299510996
1.300552149
1.300408338
1.299811071
1.29984664
1.299534717
1.298743068
1.297986225
1.296801302
1.29587193
1.295055651
1.295299267
1.295633555
1.292181978
1.29303651
1.29704711
1.295166286
1.289933917
1.290055684
1.293245339
1.293887056
1.293132924
1.291383929
1.291240049
1.291902668
1.293139435
1.295318471
1.296800064
1.297070236
1.297017518
1.297203268
1.29777478
1.298623458
1.299780732
1.301234182
1.302793372
1.297089718
1.296375644
1.29757151
1.29746888
1.297358562
1.297759092
1.297809787
1.297405673
1.296897357
1.295790921
1.294815125
1.293795333
1.294078793
1.294297064
1.290619611
1.291463467
1.295777396
1.293977936
1.288636807
1.288649921
1.291798465
1.292200529
1.291430171
1.290220415
1.290436948
1.291167312
1.292511858
1.29438624
1.295240308
1.295103407
1.295056594
1.29547506
1.296265513
1.297170742
1.298419819
1.299735194
1.301081855
1.292212436
1.291638493
1.292999535
1.293031414
1.293226196
1.293770717
1.293971252
1.293873315
1.293815788
1.2931989
1.292571786
1.291321998
1.291422067
1.291026831
1.287304153
1.288205727
1.292828866
1.291299834
1.286146552
1.286204927
1.289612074
1.290120751
1.289699717
1.28889075
1.289176035
1.289933335
1.291092929
1.292241521
1.292565789
1.292309679
1.292334081
1.292925482
1.293783973
1.29473363
1.296110559
1.297369553
1.298532107
1.286404319
1.286564273
1.287944847
1.287796036
1.287972809
1.288590313
1.288795886
1.288690288
1.288894167
1.288981287
1.288865701
1.28719263
1.287205077
1.286316159
1.282737849
1.284076817
1.28897525
1.287506243
1.282790728
1.28301174
1.286435686
1.287623388
1.287282093
1.286897302
1.287210911
1.287866171
1.288522867
1.289010854
1.289058548
1.288990273
1.289095412
1.289765801
1.290540925
1.291572826
1.292938763
1.294118456
1.295118229
1.281507808
1.282255297
1.283454872
1.283388493
1.283132079
1.283774576
1.28385763
1.283653697
1.283780008
1.28420854
1.284483679
1.283471716
1.282592247
1.282058929
1.278848043
1.280210553
1.284838421
1.28322845
1.278748222
1.279239528
1.283037127
1.284827366
1.285002546
1.285032625
1.285315007
1.285356109
1.285231355
1.285369216
1.285339234
1.285558169
1.286113559
1.286699418
1.287345276
1.288318312
1.289215268
1.290721158
1.291966842
1.278156622
1.279261341
1.28033391
1.280276961
1.279873005
1.280323081
1.280282692
1.279907623
1.279725557
1.280117079
1.280419975
1.279838103
1.27955296
1.279294763
1.275422657
1.276681698
1.281305031
1.279593192
1.274898716
1.275459734
1.27956234
1.281909703
1.282324817
1.282609106
1.282867492
1.282334031
1.281953302
1.281849593
1.281883278
1.282203769
1.283491356
1.28443001
1.284698179
1.285401886
1.286754369
1.287940204
1.289143305
1.276766854
1.276810496
1.27781839
1.277744405
1.277406988
1.277716847
1.277942323
1.277967685
1.277435824
1.277049857
1.277239077
1.276758746
1.277176664
1.277499974
1.273602392
1.274691973
1.278455306
1.276483224
1.271652943
1.272296318
1.276645844
1.279031156
1.279426134
1.279762247
1.280101013
1.279552163
1.278477761
1.278241762
1.278475814
1.279992017
1.281529933
1.282907328
1.283609997
1.28440611
1.285229842
1.286174374
1.287025569
1.274637073
1.275558006
1.275516439
1.275313012
1.27552416
1.276040663
1.276535002
1.276381469
1.275896422
1.275536416
1.274833437
1.275500913
1.276312312
1.272589681
1.273580221
1.276872919
1.27433826
1.269228797
1.269944433
1.274543948
1.276484578
1.276630946
1.276876972
1.27713057
1.276189655
1.275505847
1.275711903
1.276677097
1.278502152
1.28017467
1.281608258
1.282750619
1.28373441
1.284730079
1.285413522
1.285800308
1.28583701
1.272795554
1.273561573
1.273681195
1.273567132
1.27374264
1.274435825
1.275230833
1.275388869
1.27529612
1.274981592
1.273955068
1.274283831
1.274958861
1.271435112
1.272630789
1.276553729
1.27385031
1.268265824
1.268921526
1.273725256
1.275114409
1.275045014
1.275226848
1.275214827
1.27442341
1.274071221
1.27432366
1.275416138
1.277511353
1.2792241
1.280918994
1.282423814
1.283750595
1.284834162
1.285364371
1.285411561
1.285058069
1.271913041
1.272362895
1.272774888
1.272629956
1.272774397
1.27342884
1.274093571
1.274362273
1.274707636
1.274715949
1.273777534
1.273729504
1.273738971
1.270286778
1.271846978
1.276510272
1.273783179
1.267893471
1.26859385
1.273542413
1.274398254
1.274174619
1.274202353
1.274163284
1.273572991
1.273386533
1.273663964
1.274898954
1.276943692
1.278710708
1.280820841
1.282411188
1.28384649
1.284876618
1.285278359
1.28513011
1.284446019
1.272000091
1.272178421
1.272871635
1.272581418
1.272599075
1.273156483
1.273434526
1.273546303
1.274173105
1.274529763
1.273896392
1.273708876
1.273317101
1.269496093
1.271299518
1.276507231
1.273919166
1.26822031
1.26888538
1.27360924
1.274376011
1.274117496
1.273991531
1.274129221
1.273715733
1.273406285
1.273669781
1.275122939
1.276846231
1.278495264
1.28079352
1.282695359
1.284069419
1.284923073
1.285146985
1.284847136
1.283964987
1.272953299
1.273134204
1.274021771
1.273413745
1.273271992
1.273668003
1.273592968
1.273270372
1.273678364
1.274333358
1.274198363
1.274220586
1.273703364
1.269293544
1.271079291
1.276658553
1.274249298
1.2684749
1.269094819
1.273679229
1.274514704
1.274313782
1.274287783
1.274631656
1.274479416
1.274287492
1.274615866
1.275897692
1.277346833
1.279154837
1.281758235
1.283610442
1.284503726
1.284961763
1.285109828
1.284635528
1.283627888
1.273405134
1.273726495
1.274689434
1.27403526
1.273962535
1.274463437
1.274539468
1.274016672
1.273852775
1.274304954
1.274173195
1.274608866
1.274409298
1.269831832
1.271403558
1.276520125
1.274022078
1.268152186
1.268867612
1.273690738
1.274409565
1.27426005
1.274403363
1.275053423
1.275293788
1.275481987
1.276055089
1.277097799
1.278249525
1.279996952
1.282617601
1.284522654
1.285026919
1.285285924
1.285245441
1.284614196
1.283712985
1.272926868
1.27347848
1.274425127
1.27375337
1.273824345
1.274412175
1.275019146
1.275113817
1.274640603
1.274387943
1.274081426
1.274659039
1.274834855
1.27054579
1.271759212
1.276155809
1.273397225
1.267465687
1.268394773
1.273792033
1.274160335
1.273971971
1.274219296
1.275184113
1.276123556
1.276727329
1.277218324
1.277840104
1.278798882
1.280376351
1.282859293
1.285149647
1.285681276
1.285865119
1.285634662
1.285027427
1.284334972
1.273136568
1.273982863
1.273359214
1.273501987
1.274131842
1.274850714
1.275487409
1.275562115
1.275192937
1.274448172
1.274707634
1.274855713
1.270977618
1.272385449
1.276274739
1.273000249
1.266937498
1.268226608
1.274383969
1.274265119
1.273922194
1.274181088
1.275366383
1.276787553
1.277437436
1.277678168
1.2781722
1.279063485
1.280631235
1.282984869
1.285549438
1.286373836
1.286560333
1.286265178
1.285729684
1.285182626
1.273588193
1.274222923
1.273637242
1.273649102
1.274175299
1.274740119
1.275294724
1.275814738
1.275990625
1.275493157
1.275403488
1.275181385
1.271431604
1.273338607
1.2770882
1.273125805
1.267020515
1.268664537
1.27536895
1.274985096
1.274407405
1.274643284
1.275985562
1.277387936
1.277804994
1.277887333
1.278228346
1.278970646
1.280509188
1.283006588
1.285662454
1.286834111
1.287047678
1.286975102
1.286480621
1.285911093
1.275359663
1.275955776
1.275395435
1.275068723
1.275236758
1.275349706
1.275435425
1.276023284
1.276651802
1.276713171
1.276707917
1.276159781
1.272112478
1.274669639
1.279014648
1.274458938
1.267857363
1.269722981
1.276517606
1.276110067
1.275235928
1.275494747
1.276906155
1.277998668
1.278085816
1.277927324
1.278106747
1.278769499
1.280372143
1.283049796
1.285780158
1.287277311
1.287671272
1.287818227
1.287193497
1.286556527
1.276956078
1.2777593
1.277390099
1.276900067
1.276933025
1.276967549
1.276615247
1.27675639
1.277471641
1.277897791
1.278268983
1.277566322
1.273257205
1.276188813
1.281065087
1.276454047
1.269414749
1.271212269
1.277752527
1.277505883
1.27640387
1.276560731
1.27783661
1.27857156
1.278514605
1.278134504
1.278162923
1.278811994
1.280431926
1.283394012
1.286583305
1.288195448
1.288709929
1.288883434
1.288136947
1.287376849
1.277183698
1.278509686
1.278532123
1.278127276
1.278217258
1.278552005
1.278586876
1.278266734
1.27862121
1.279064654
1.279658047
1.279058678
1.274740825
1.277800186
1.282868707
1.278362896
1.271036794
1.272595141
1.278941319
1.278862028
1.277711114
1.277757601
1.278775621
1.279242171
1.279084822
1.278526402
1.278465723
1.279082926
1.28092793
1.284446497
1.287914931
1.28965317
1.290137846
1.290243127
1.289450744
1.288484779
1.276964905
1.278643996
1.278898353
1.278735258
1.27904902
1.279752369
1.280399706
1.280224542
1.280024927
1.280087635
1.280716795
1.280288812
1.276187016
1.279379011
1.284377988
1.279688942
1.272070322
1.273549299
1.280074285
1.279970812
1.278922063
1.278986509
1.279873411
1.280187184
1.279855741
1.279220346
1.279190226
1.279962219
1.282511334
1.286671505
1.290092112
1.291621847
1.291910114
1.291875423
1.291130672
1.290080985
1.278997616
1.279260058
1.279291122
1.27966227
1.280468687
1.281357286
1.281730243
1.281412589
1.281019735
1.281409276
1.281065828
1.277157968
1.280382398
1.284687202
1.279661076
1.272200133
1.274098664
1.281232606
1.281013027
1.280089084
1.280106276
1.280949064
1.281205685
1.280777607
1.280402539
1.280615233
1.282224109
1.285904752
1.290102405
1.292996847
1.293810903
1.293901367
1.29360697
1.292745051
1.291710758
1.280488187
1.280588624
1.280283676
1.280320912
1.280928107
1.28173693
1.282326955
1.28239145
1.282105878
1.282088488
1.281678398
1.277775096
1.280876426
1.284778388
1.279490722
1.272331074
1.274740512
1.282791737
1.282535927
1.281619658
1.281206194
1.281856053
1.282189489
1.281934168
1.282145444
1.283426908
1.286293202
1.289420095
1.292123856
1.294147366
1.295072741
1.295069466
1.294708847
1.29389485
1.292773425
1.291977651
1.282554257
1.282248907
1.281944824
1.281537685
1.281657621
1.282072203
1.282571649
1.282878132
1.283106737
1.283135393
1.282594755
1.278436188
1.281382646
1.285161504
1.279584939
1.272950792
1.276002875
1.284849819
1.284690503
1.283356915
1.282067667
1.282512073
1.283298447
1.283802567
1.284996203
1.28712697
1.288749793
1.290264069
1.292469875
1.294292342
1.29518974
1.295114855
1.29476654
1.294173528
1.293135466
1.292161408
1.283453429
1.283330729
1.283277209
1.283120015
1.283094204
1.282952825
1.282947843
1.283368327
1.284023271
1.284439035
1.283880472
1.279389939
1.282320066
1.286146875
1.280080292
1.27431452
1.278020765
1.286491113
1.286332504
1.283975436
1.282510135
1.283003173
1.284473683
1.286258242
1.287675641
1.288214473
1.288998867
1.290312952
1.292434431
1.294051736
1.294981273
1.294934963
1.294457861
1.294002702
1.29340858
1.292535615
1.283053081
1.283062099
1.283408725
1.283950583
1.284310706
1.284367426
1.284036469
1.28425141
1.284882317
1.285610948
1.285045368
1.280488358
1.283963654
1.288153426
1.28168146
1.275367943
1.279028176
1.286723427
1.286497178
1.284021502
1.282769562
1.283440567
1.285605288
1.287849016
1.288378935
1.288557589
1.288949162
1.289971977
1.291838376
1.293200066
1.294056138
1.294717224
1.294491847
1.294153244
1.293995347
1.293501363
1.28206877
1.282818476
1.283487083
1.284232525
1.284739881
1.285242047
1.28537534
1.284874816
1.285189714
1.285898326
1.285444766
1.281185428
1.285657948
1.29006273
1.282991187
1.275473949
1.279143819
1.286654922
1.286235671
1.283808033
1.283085744
1.284102367
1.286692686
1.288256523
1.288391274
1.288374496
1.288650376
1.289236107
1.290571383
1.292360317
1.293967272
1.294858571
1.29479753
1.294814566
1.295252045
1.294610194
1.281590455
1.283615331
1.284069789
1.284416192
1.284957129
1.285525258
1.286019866
1.285589053
1.285222827
1.285788484
1.285332308
1.281456183
1.286642555
1.291025423
1.283702024
1.275514731
1.278946653
1.286596988
1.286238411
1.283932591
1.283795052
1.28522263
1.287232343
1.288306432
1.288443034
1.287843361
1.287868333
1.288711442
1.290602485
1.292496592
1.294291051
1.295661994
1.296059224
1.296352201
1.296105763
1.294812538
1.284376882
1.284202327
1.284355277
1.284584791
1.28513012
1.285883403
1.285909927
1.285503325
1.285701723
1.285214981
1.281693396
1.287230977
1.291241201
1.283766761
1.275899969
1.279492379
1.286765858
1.286875105
1.284988479
1.284815764
1.285970741
1.287276712
1.288220722
1.288449227
1.2881049
1.288163157
1.289053837
1.290984908
1.293293673
1.295729886
1.297315015
1.297389233
1.297049
1.296210877
1.294731747
1.286185772
1.285400947
1.284512445
1.284353204
1.284664284
1.285340267
1.285936763
1.285860685
1.28603575
1.285575471
1.282177001
1.287813741
1.291336663
1.283642872
1.276228133
1.280387656
1.287864546
1.288467434
1.286468168
1.285193948
1.285901494
1.287130372
1.288216372
1.288754344
1.288651988
1.28901141
1.290347463
1.292851469
1.295493819
1.297294966
1.297802564
1.297455248
1.296962333
1.296067117
1.29439393
1.287329097
1.286451089
1.285612208
1.284814658
1.284609739
1.285238303
1.285989173
1.286334034
1.286813611
1.286360936
1.282869615
1.288304684
1.291676121
1.283431253
1.276909658
1.281719224
1.28978631
1.28946721
1.286770653
1.285067157
1.28566106
1.286776289
1.2881556
1.289411771
1.290230748
1.291413859
1.292952531
1.295079831
1.296837845
1.297532191
1.2975942
1.297299066
1.296654061
1.295669725
1.293364152
1.286868074
1.286019834
1.286105362
1.285997063
1.285685766
1.285700409
1.286232426
1.28675775
1.287427089
1.286909524
1.283042054
1.288279228
1.291253786
1.283661431
1.277759283
1.282956498
1.290556638
1.289830454
1.286710873
1.284716885
1.285230992
1.2865149
1.288229243
1.290494754
1.292268096
1.29327979
1.294367177
1.295632358
1.296777518
1.297382686
1.297303295
1.296756756
1.295964187
1.294848219
1.293174899
1.285082744
1.285410134
1.286575909
1.286702857
1.28705578
1.287147931
1.286592915
1.28657984
1.287332278
1.286791705
1.282825293
1.28801159
1.291091395
1.283130394
1.277878546
1.283235565
1.290468269
1.289733749
1.28629682
1.284414257
1.285009172
1.286398497
1.28885365
1.291938208
1.293423647
1.293777025
1.29456498
1.295580892
1.296494204
1.296520267
1.296262748
1.295554609
1.295018976
1.294732322
1.293342436
1.282284679
1.284333043
1.285568889
1.286731284
1.287499854
1.2880453
1.287427707
1.286558721
1.287061179
1.286369794
1.282313451
1.287827535
1.29093655
1.282893144
1.277772842
1.283281857
1.290046312
1.289397627
1.285949001
1.284240439
1.284816463
1.286594701
1.28979755
1.292466518
1.293543891
1.293805477
1.294429345
1.295359445
1.295703233
1.294974588
1.2946269
1.294512894
1.294724655
1.294751976
1.29403703
1.282302732
1.284058
1.284782919
1.285471804
1.286837468
1.288130442
1.28802912
1.286797416
1.286957135
1.285816479
1.28201005
1.287853255
1.29092439
1.282810967
1.277493457
1.283078808
1.290149488
1.289479916
1.285950698
1.28455346
1.285266105
1.287585786
1.290183623
1.292668061
1.293565191
1.293637429
1.293900716
1.294671087
1.294158605
1.293367041
1.293622466
1.294288738
1.294683245
1.294945193
1.294926938
1.285466052
1.284964393
1.285386797
1.286048848
1.287475282
1.288033418
1.286983063
1.28697269
1.28568517
1.281993453
1.288887232
1.291642518
1.282906606
1.277488589
1.283391661
1.290675713
1.290259014
1.286754376
1.285459313
1.286227578
1.288020383
1.290061425
1.292603475
1.294195717
1.294242722
1.294136648
1.293615809
1.293154138
1.293095054
1.293464184
1.294149461
1.294960376
1.295344755
1.29550469
1.288051367
1.287454712
1.285818299
1.285653318
1.286369049
1.287544388
1.286838541
1.287117493
1.285638792
1.282307839
1.290209965
1.292565523
1.283470782
1.277802968
1.284264621
1.29174791
1.29139459
1.287873439
1.285753984
1.286307412
1.287920245
1.289727523
1.292242636
1.294140488
1.294279329
1.294009181
1.29347372
1.292971733
1.293143783
1.293757652
1.294971596
1.295541208
1.295570453
1.295708371
1.296766877
1.28777994
1.288423761
1.287855763
1.286492876
1.286012587
1.286213935
1.286389094
1.287112775
1.285786525
1.282757431
1.290591377
1.292982621
1.284178459
1.278980111
1.285626396
1.292814739
1.291967891
1.288124508
1.285700501
1.28609416
1.28754507
1.289442453
1.292093495
1.294351004
1.294611737
1.294325222
1.293927428
1.293568222
1.293903886
1.295306086
1.296119169
1.295907685
1.295613565
1.295825491
1.296835772
1.286264757
1.28823223
1.288618874
1.288167012
1.28665703
1.28563639
1.28523402
1.286935627
1.285759336
1.282811071
1.290623844
1.292877126
1.284374376
1.280414722
1.286832082
1.29302257
1.291920065
1.288061537
1.28545116
1.28587816
1.287501336
1.289522825
1.292281781
1.295142954
1.295358654
1.295232904
1.295122926
1.295122233
1.295799385
1.296681177
1.296323318
1.295853676
1.295528129
1.295944804
1.296912473
1.281782902
1.285875565
1.289008661
1.288862625
1.287839413
1.285914257
1.284583038
1.28633569
1.285548589
1.282493052
1.29004024
1.291848197
1.284225319
1.281596152
1.287929364
1.29302839
1.291744321
1.287586514
1.285421058
1.285941833
1.287533094
1.289744576
1.292747672
1.295371038
1.296200873
1.296502583
1.29655848
1.296481023
1.296734108
1.296712839
1.296047829
1.295519389
1.295381594
1.295938704
1.296997965
1.28022977
1.28429134
1.286820113
1.288186452
1.287586623
1.286754771
1.284420377
1.285999815
1.284842361
1.280941338
1.288888063
1.289754339
1.284158711
1.28251732
1.289020221
1.293193273
1.291566006
1.287128614
1.285372191
1.285981712
1.287839875
1.290364312
1.292999783
1.295262371
1.296525303
1.297065146
1.296859795
1.296634501
1.296428215
1.296072886
1.295525387
1.294917664
1.29497197
1.295738991
1.297021757
1.282031772
1.284724689
1.285068679
1.285228214
1.286623404
1.286642884
1.285285443
1.286009428
1.284550248
1.280162804
1.28882603
1.288787329
1.283596309
1.283121421
1.290047824
1.29348141
1.291780717
1.287098453
1.285843501
1.286534804
1.288523931
1.290761331
1.292826256
1.295082191
1.296682048
1.297121676
1.296888324
1.296603903
1.296080587
1.294974721
1.294033532
1.293705851
1.294304421
1.295448932
1.296902476
1.289603553
1.289091315
1.285255198
1.283485078
1.283944285
1.286110773
1.285635519
1.286921533
1.284642762
1.28018923
1.288881319
1.288676722
1.283307344
1.283505738
1.29078228
1.294036988
1.292189952
1.28751156
1.286530631
1.287218351
1.289010363
1.290794971
1.292540922
1.294985093
1.296838848
1.297074381
1.296788382
1.29652077
1.295163297
1.293131723
1.292450846
1.292689393
1.293717892
1.295023486
1.29653174
1.292381958
1.288941361
1.283025461
1.282395284
1.283907569
1.285564734
1.287806696
)
;

boundaryField
{
    inlet
    {
        type            calculated;
        value           nonuniform 0();
    }
    outlet
    {
        type            calculated;
        value           nonuniform 0();
    }
    bottom
    {
        type            calculated;
        value           nonuniform 0();
    }
    top
    {
        type            calculated;
        value           nonuniform 0();
    }
    obstacle
    {
        type            calculated;
        value           nonuniform 0();
    }
    defaultFaces
    {
        type            empty;
    }
    procBoundary22to15
    {
        type            processor;
        value           uniform 1.190320217;
    }
    procBoundary22to16
    {
        type            processor;
        value           nonuniform List<scalar> 
40
(
1.192340207
1.196003665
1.196640605
1.196768712
1.196863622
1.197790382
1.199912645
1.203112108
1.205481521
1.206529321
1.207332458
1.207863046
1.207982935
1.207807766
1.208453105
1.188623114
1.188518793
1.188298688
1.187680904
1.188743236
1.189827496
1.188796246
1.189072015
1.188825945
1.188604084
1.188645825
1.189028746
1.189643902
1.190262425
1.190109999
1.19067933
1.19138625
1.188439946
1.18861317
1.194295012
1.197619539
1.192851562
1.187169462
1.188085453
1.188085453
)
;
    }
    procBoundary22to17
    {
        type            processor;
        value           uniform 1.208609029;
    }
    procBoundary22to21
    {
        type            processor;
        value           nonuniform List<scalar> 
69
(
1.189909299
1.190525662
1.196962176
1.205426823
1.216145478
1.228456989
1.228456989
1.243157287
1.25850177
1.272819563
1.284517776
1.292016467
1.297373689
1.297373689
1.301183214
1.303243215
1.303954299
1.303375867
1.301395676
1.299577153
1.298307321
1.298307321
1.293965833
1.288086918
1.282937157
1.278806325
1.277315146
1.275473256
1.275473256
1.274127917
1.272743935
1.271818419
1.27215761
1.273601285
1.274525188
1.272528082
1.272528082
1.273280395
1.27569808
1.277874458
1.278283849
1.277992888
1.277123768
1.277123768
1.278629297
1.281190532
1.282388324
1.282091218
1.280571991
1.279257038
1.282348575
1.282348575
1.284747926
1.286439225
1.286111632
1.283635739
1.279440668
1.278692407
1.284863927
1.284863927
1.288404152
1.288075417
1.285701876
1.278251604
1.275231905
1.277397151
1.287857875
1.293214565
1.293214565
)
;
    }
    procBoundary22to23
    {
        type            processor;
        value           nonuniform List<scalar> 
64
(
1.208230615
1.208377329
1.209243859
1.212399431
1.218209166
1.227149604
1.239073424
1.253108186
1.267917439
1.280824088
1.291170124
1.297672655
1.297672655
1.304106677
1.305251557
1.305429597
1.305434438
1.305448604
1.30522022
1.30407579
1.302211069
1.299590601
1.296082916
1.292678515
1.289708011
1.287311643
1.287311643
1.286387058
1.285224313
1.28425139
1.283481067
1.283072616
1.28318966