/*--------------------------------*- C++ -*----------------------------------*\
  =========                 |
  \\      /  F ield         | OpenFOAM: The Open Source CFD Toolbox
   \\    /   O peration     | Website:  https://openfoam.org
    \\  /    A nd           | Version:  7
     \\/     M anipulation  |
\*---------------------------------------------------------------------------*/
FoamFile
{
    version     2.0;
    format      ascii;
    class       volVectorField;
    location    "4.4";
    object      U;
}
// * * * * * * * * * * * * * * * * * * * * * * * * * * * * * * * * * * * * * //

dimensions      [0 1 -1 0 0 0 0];

internalField   nonuniform List<vector> 5((2.984005129 -0.001243996744 0) (2.975900974 -0.00247817253 0) (2.967984603 -0.004564429316 0) (2.966242354 0.0001030507407 0) (2.936201161 -0.001979433833 0));

boundaryField
{
    inlet
    {
        type            fixedValue;
        value           nonuniform 0();
    }
    outlet
    {
        type            inletOutlet;
        inletValue      uniform (3 0 0);
        value           nonuniform List<vector> 2((2.975900974 -0.00247817253 0) (2.966242354 0.0001030507407 0));
    }
    bottom
    {
        type            slip;
    }
    top
    {
        type            slip;
    }
    obstacle
    {
        type            slip;
    }
    defaultFaces
    {
        type            empty;
    }
    procBoundary17to10
    {
        type            processor;
        value           nonuniform List<vector> 3((3.000992986 0.03302955256 0) (2.977412566 0.01754217741 0) (2.928737697 0.01241083121 0));
    }
    procBoundary17to11
    {
        type            processor;
        value           nonuniform List<vector> 2((2.996953967 0.02750325608 0) (2.991990993 0.00299286759 0));
    }
    procBoundary17to23
    {
        type            processor;
        value           nonuniform List<vector> 3((2.946872864 -0.00114975961 0) (2.946872864 -0.00114975961 0) (2.904703499 -0.001271350306 0));
    }
}


// ************************************************************************* //
