/*--------------------------------*- C++ -*----------------------------------*\
  =========                 |
  \\      /  F ield         | OpenFOAM: The Open Source CFD Toolbox
   \\    /   O peration     | Website:  https://openfoam.org
    \\  /    A nd           | Version:  7
     \\/     M anipulation  |
\*---------------------------------------------------------------------------*/
FoamFile
{
    version     2.0;
    format      ascii;
    class       volVectorField;
    location    "3";
    object      U;
}
// * * * * * * * * * * * * * * * * * * * * * * * * * * * * * * * * * * * * * //

dimensions      [0 1 -1 0 0 0 0];

internalField   nonuniform List<vector> 
2222
(
(2.127911725 -0.9421085566 0)
(2.126530386 -0.9426357354 0)
(2.125766992 -0.9424861622 0)
(2.135823305 -0.9535713102 0)
(2.134963463 -0.9533233775 0)
(2.134277722 -0.951339333 0)
(2.133985399 -0.9492413363 0)
(2.133842378 -0.9484173788 0)
(2.133813355 -0.9485177639 0)
(2.133747325 -0.948974093 0)
(2.143468096 -0.9475780751 0)
(2.142551723 -0.9503471366 0)
(2.14064018 -0.9525048248 0)
(2.138778467 -0.95380254 0)
(2.137976256 -0.9539581846 0)
(2.138098799 -0.9538933935 0)
(2.138345305 -0.953725457 0)
(2.138682818 -0.9531716131 0)
(2.139378308 -0.9521496959 0)
(2.140559605 -0.9507216201 0)
(2.141977805 -0.9501199236 0)
(2.141250019 -0.9511952423 0)
(2.140589987 -0.9519255766 0)
(2.140444033 -0.9524223929 0)
(2.140812382 -0.9525900953 0)
(2.141170152 -0.9525719393 0)
(2.141730933 -0.952422878 0)
(2.142269874 -0.9521168841 0)
(2.142912325 -0.9517806919 0)
(2.143614091 -0.951623029 0)
(2.143959099 -0.9516885994 0)
(2.143464571 -0.9518895637 0)
(2.142422269 -0.9521042958 0)
(2.864827314 0.2658328323 0)
(2.867305762 0.2659899751 0)
(2.867958647 0.2660702781 0)
(2.868576265 0.2661292658 0)
(2.868851207 0.2648585213 0)
(2.869170538 0.2626575974 0)
(2.869766001 0.2615354807 0)
(2.8700305 0.2613261311 0)
(2.869761458 0.2612389716 0)
(2.868995957 0.2609249781 0)
(2.868229276 0.2598643359 0)
(2.868365946 0.2588666472 0)
(2.869000871 0.2593647082 0)
(2.869987507 0.2603442339 0)
(2.869819903 0.2604165992 0)
(2.869710318 0.2605006034 0)
(2.869679371 0.2607213091 0)
(2.869907309 0.2611520949 0)
(2.870719117 0.2618132462 0)
(2.871551731 0.2623813505 0)
(2.872545114 0.2626556957 0)
(2.873020166 0.2626847748 0)
(2.873676184 0.2628818142 0)
(2.873797737 0.2631445755 0)
(2.873531471 0.2632713963 0)
(2.873528889 0.2632685759 0)
(2.87362552 0.2632515741 0)
(2.873874656 0.2632013652 0)
(2.874362402 0.2630763515 0)
(2.87475882 0.2629595927 0)
(2.874835746 0.2629420568 0)
(2.874870645 0.2629559855 0)
(2.874831253 0.2630177861 0)
(2.874675462 0.2631104466 0)
(2.87465877 0.2631565711 0)
(2.874726805 0.2631699682 0)
(2.875012557 0.2631968823 0)
(2.875495149 0.2631803854 0)
(2.875737461 0.2631419084 0)
(2.87581044 0.2631428818 0)
(2.875875382 0.2631948761 0)
(2.875804876 0.26332038 0)
(2.875790891 0.2634262529 0)
(2.875856797 0.2634490698 0)
(2.875952326 0.2634629609 0)
(2.876257198 0.2634570633 0)
(2.876593683 0.2633778254 0)
(2.876673177 0.2633332498 0)
(2.876710694 0.2633321145 0)
(2.876687157 0.2633736447 0)
(2.876626236 0.2634890395 0)
(2.876664716 0.263563141 0)
(2.876699473 0.2635729976 0)
(2.876835602 0.2635751061 0)
(2.877144524 0.2635286613 0)
(2.877332401 0.2634537708 0)
(2.877364187 0.2634405578 0)
(2.877392835 0.2634601017 0)
(2.877327032 0.2635181174 0)
(2.877266382 0.2635835692 0)
(2.877287631 0.2636068122 0)
(2.877328435 0.263612241 0)
(2.877478802 0.2636125165 0)
(2.877696994 0.2635617317 0)
(2.877752286 0.2635115569 0)
(2.877739367 0.2634870443 0)
(2.877738073 0.2635883651 0)
(2.876448908 0.2613796534 0)
(2.876668453 0.259549316 0)
(2.877906542 0.2591277182 0)
(2.878433804 0.2589328294 0)
(2.878752076 0.2580170018 0)
(2.878577836 0.2562238354 0)
(2.877886725 0.2546700371 0)
(2.877166953 0.2545047981 0)
(2.8766817 0.2554079225 0)
(2.876580065 0.2557756143 0)
(2.876642162 0.2557036412 0)
(2.877172179 0.2560705264 0)
(2.878015604 0.2571660642 0)
(2.878389877 0.2588964783 0)
(2.878096554 0.2606544973 0)
(2.877358284 0.2617898823 0)
(2.876886908 0.2630961369 0)
(2.876788676 0.2637876446 0)
(2.876770899 0.2641495421 0)
(2.876664354 0.2642523075 0)
(2.877243712 0.2638724351 0)
(2.878017435 0.2635964124 0)
(2.878187349 0.2635983517 0)
(2.878065564 0.2636070303 0)
(2.877821167 0.263537675 0)
(2.877441444 0.26340389 0)
(2.877381016 0.2633629481 0)
(2.877511232 0.2633623027 0)
(2.877855717 0.263255297 0)
(2.878317303 0.2630767172 0)
(2.878507014 0.2630496534 0)
(2.878545034 0.2630755112 0)
(2.878506397 0.2631723339 0)
(2.878190954 0.2633316711 0)
(2.877841299 0.2635247862 0)
(2.877850882 0.2636358087 0)
(2.877930204 0.2637073788 0)
(2.87817139 0.2637746912 0)
(2.878463357 0.2636809251 0)
(2.878582729 0.2635645521 0)
(2.878595839 0.2635371615 0)
(2.878548645 0.2635598713 0)
(2.878396898 0.2636857282 0)
(2.878318721 0.2638109995 0)
(2.878339986 0.2638472422 0)
(2.878409337 0.2638588185 0)
(2.878590784 0.2637787637 0)
(2.878814849 0.2636012563 0)
(2.878898102 0.2634941159 0)
(2.878903927 0.2634682822 0)
(2.878864198 0.2634997178 0)
(2.87879142 0.2636842233 0)
(2.878800401 0.2638777768 0)
(2.878833614 0.2639302121 0)
(2.878889322 0.2639218758 0)
(2.879018464 0.2637976316 0)
(2.879166819 0.2636102056 0)
(2.879216031 0.263527301 0)
(2.87922006 0.2635270127 0)
(2.87918201 0.2635981399 0)
(2.87912145 0.263720096 0)
(2.879120073 0.2637953604 0)
(2.879132714 0.2638162603 0)
(2.879172015 0.2637791171 0)
(2.879266531 0.2636466813 0)
(2.879316504 0.2634957833 0)
(2.879401497 0.2635740146 0)
(2.885676987 0.2758832145 0)
(2.885753552 0.2723986352 0)
(2.886310351 0.2701089421 0)
(2.886859475 0.2690543181 0)
(2.887935634 0.2680686848 0)
(2.889016652 0.2657451373 0)
(2.888817771 0.2627094376 0)
(2.888107014 0.2617758404 0)
(2.887473713 0.2626286078 0)
(2.887823939 0.2627524484 0)
(2.888384587 0.2621798288 0)
(2.888888164 0.2620619771 0)
(2.889475423 0.262486767 0)
(2.889642275 0.2625471627 0)
(2.889516382 0.262421432 0)
(2.888730762 0.2622594602 0)
(2.8880604 0.2622698852 0)
(2.887478869 0.262350079 0)
(2.88668176 0.2624581044 0)
(2.88594317 0.2627645794 0)
(2.885587638 0.2628981118 0)
(2.885548313 0.2628489623 0)
(2.885314764 0.2628640976 0)
(2.885056971 0.2630358685 0)
(2.884661401 0.2632176879 0)
(2.884327628 0.2631171504 0)
(2.884155085 0.2631235217 0)
(2.884330572 0.2634635921 0)
(2.884396599 0.2636180412 0)
(2.884531624 0.2637741621 0)
(2.884641826 0.2638091393 0)
(2.884710242 0.263834939 0)
(2.884716232 0.2639051269 0)
(2.884481915 0.2639050567 0)
(2.88411515 0.2638499535 0)
(2.883982233 0.263845371 0)
(2.883903614 0.2638858617 0)
(2.88392174 0.2639803802 0)
(2.884093007 0.2640396274 0)
(2.884143748 0.2639481473 0)
(2.884037877 0.2638376613 0)
(2.883917665 0.2637459381 0)
(2.883758355 0.263698878 0)
(2.883614306 0.263749559 0)
(2.883499594 0.263844228 0)
(2.883426285 0.2639369456 0)
(2.88345726 0.2639842724 0)
(2.883528314 0.2640003199 0)
(2.883579217 0.2639713918 0)
(2.883541037 0.2639304326 0)
(2.883482899 0.2639171009 0)
(2.883435471 0.2639317322 0)
(2.883379762 0.2640083651 0)
(2.883283316 0.2640897575 0)
(2.883226935 0.2641315676 0)
(2.883261669 0.2641333174 0)
(2.883299532 0.2640960873 0)
(2.88334012 0.2639878342 0)
(2.883347085 0.2638864861 0)
(2.883300816 0.2638618499 0)
(2.883273153 0.2638683498 0)
(2.883223129 0.2638963116 0)
(2.883111274 0.2639467793 0)
(2.88304385 0.2639734367 0)
(2.883063015 0.263973533 0)
(2.883067354 0.263899313 0)
(2.883135325 0.2639085465 0)
(2.888815953 0.2809514185 0)
(2.888548354 0.2795883885 0)
(2.889317152 0.2767176571 0)
(2.890384961 0.2743458003 0)
(2.891373908 0.2735588922 0)
(2.892467292 0.2723442962 0)
(2.893266978 0.2702674668 0)
(2.893891082 0.269361117 0)
(2.89419241 0.2707160787 0)
(2.895075633 0.2693820817 0)
(2.89602807 0.2661823924 0)
(2.895912509 0.2657252063 0)
(2.895848802 0.2652111947 0)
(2.896898557 0.2633117756 0)
(2.896384219 0.2618122986 0)
(2.895473747 0.2605507989 0)
(2.894368267 0.2593638575 0)
(2.893676214 0.2594384497 0)
(2.893403205 0.2600895265 0)
(2.893076822 0.2603962591 0)
(2.892325044 0.2612049177 0)
(2.891685063 0.2619413661 0)
(2.891308565 0.2623781719 0)
(2.890755523 0.2628761369 0)
(2.890401501 0.2632147812 0)
(2.890173588 0.2634257703 0)
(2.889767683 0.2639560595 0)
(2.889522304 0.2647648023 0)
(2.889540958 0.265097139 0)
(2.889296179 0.2650762361 0)
(2.88900608 0.2648735275 0)
(2.888880671 0.2646944631 0)
(2.888842905 0.2647037547 0)
(2.8889334 0.2647445779 0)
(2.888916578 0.26467871 0)
(2.888695599 0.2646329266 0)
(2.888584266 0.2645890323 0)
(2.888446254 0.2645695817 0)
(2.888270346 0.2645837267 0)
(2.888184493 0.2645730473 0)
(2.888185925 0.2645402628 0)
(2.888237998 0.2644988405 0)
(2.888253991 0.2644543241 0)
(2.888217245 0.2644607959 0)
(2.888147971 0.2645071368 0)
(2.88803434 0.2645667171 0)
(2.887884799 0.2646253686 0)
(2.887785152 0.264649092 0)
(2.887763521 0.2646478353 0)
(2.88774608 0.2646279073 0)
(2.887790083 0.2645804232 0)
(2.887787582 0.2645131682 0)
(2.88772065 0.2644916341 0)
(2.887653467 0.2644926818 0)
(2.887506014 0.264518476 0)
(2.887375899 0.2645228351 0)
(2.887338428 0.2645060741 0)
(2.887291794 0.2644542441 0)
(2.887286802 0.2643860854 0)
(2.887272575 0.2643511652 0)
(2.887245326 0.2643416096 0)
(2.887203962 0.2643200508 0)
(2.887108942 0.2643090477 0)
(2.886971852 0.2643429701 0)
(2.886922174 0.2643697026 0)
(2.88687676 0.2643854877 0)
(2.886862313 0.2643973045 0)
(2.894691968 0.2679418742 0)
(2.893223499 0.2703256726 0)
(2.891578645 0.2715852531 0)
(2.890224554 0.2729238744 0)
(2.889187416 0.2755823388 0)
(2.88821611 0.277887754 0)
(2.888003753 0.2771260695 0)
(2.888526149 0.2774398779 0)
(2.889550575 0.2776670652 0)
(2.888873586 0.2764706886 0)
(2.889102084 0.2742761521 0)
(2.888877042 0.2723492962 0)
(2.888578958 0.2708593784 0)
(2.889762541 0.2685893249 0)
(2.889990874 0.2672756356 0)
(2.891050037 0.2652944338 0)
(2.891762997 0.2625512369 0)
(2.892134828 0.2617200177 0)
(2.892668615 0.2629988186 0)
(2.892792868 0.2630120838 0)
(2.893007732 0.2622149804 0)
(2.893274401 0.2621702529 0)
(2.893233249 0.2625190727 0)
(2.893089984 0.2626275757 0)
(2.892942876 0.2625611379 0)
(2.892763818 0.2628180549 0)
(2.892463805 0.2633872315 0)
(2.892229101 0.2635454352 0)
(2.891911867 0.2638266865 0)
(2.891563508 0.2641325616 0)
(2.891027026 0.2640552951 0)
(2.890648756 0.2638323648 0)
(2.890481846 0.2637010613 0)
(2.89053061 0.263874968 0)
(2.890549319 0.2642900178 0)
(2.890379705 0.264415537 0)
(2.890247879 0.2644508548 0)
(2.890035051 0.2645237314 0)
(2.889717507 0.2646740475 0)
(2.889594421 0.2647558717 0)
(2.889614452 0.2647439662 0)
(2.889690784 0.2647146422 0)
(2.889836681 0.2647762396 0)
(2.889800709 0.2649017724 0)
(2.889748953 0.2649220129 0)
(2.889670754 0.2649339917 0)
(2.88949376 0.2649151288 0)
(2.889303281 0.2648522659 0)
(2.88924103 0.2648052507 0)
(2.889195744 0.2647315043 0)
(2.889254578 0.2646563768 0)
(2.889361672 0.264626532 0)
(2.889349635 0.2646257939 0)
(2.889317101 0.2646183409 0)
(2.88919165 0.2645811088 0)
(2.88895741 0.264587565 0)
(2.888849397 0.2646140645 0)
(2.888824195 0.2646057163 0)
(2.888834741 0.2645681056 0)
(2.888882924 0.2645165648 0)
(2.888903081 0.2645090428 0)
(2.88890218 0.2645232051 0)
(2.888857063 0.2645630896 0)
(2.888722692 0.2646352101 0)
(2.888550883 0.2647058568 0)
(2.888500887 0.2647043223 0)
(2.888473183 0.2646594992 0)
(2.890536197 0.2704847373 0)
(2.8868788 0.2860164613 0)
(2.88589721 0.2865653017 0)
(2.883206919 0.289402408 0)
(2.883000903 0.293369897 0)
(2.881580254 0.2926071981 0)
(2.879537707 0.2866604817 0)
(2.880395046 0.2810936122 0)
(2.88325921 0.2785693697 0)
(2.885631879 0.2773206042 0)
(2.88575723 0.2745697108 0)
(2.885537798 0.2737816506 0)
(2.885109774 0.2724855086 0)
(2.885353613 0.2711683937 0)
(2.885912675 0.2703910259 0)
(2.886725748 0.2695138266 0)
(2.887615233 0.2685660027 0)
(2.888549642 0.2690978448 0)
(2.88950963 0.2697549802 0)
(2.891528403 0.2673272215 0)
(2.891636157 0.2656133023 0)
(2.890694603 0.2653549614 0)
(2.890682586 0.2643776238 0)
(2.890826422 0.2638928902 0)
(2.891078666 0.2634098243 0)
(2.891425265 0.262630928 0)
(2.891558458 0.2624169798 0)
(2.891541868 0.2625015736 0)
(2.891276066 0.262637965 0)
(2.890845257 0.2627984742 0)
(2.890412226 0.2628664101 0)
(2.890166114 0.2628203433 0)
(2.889838931 0.2627771731 0)
(2.889847645 0.2630786107 0)
(2.890231014 0.263641394 0)
(2.890417609 0.2640285797 0)
(2.890363046 0.2641944823 0)
(2.890137165 0.2645185528 0)
(2.889748376 0.2648739581 0)
(2.889518789 0.2649285912 0)
(2.889432418 0.2648665407 0)
(2.889365457 0.2648185831 0)
(2.889479993 0.2648682224 0)
(2.889552057 0.2648768728 0)
(2.889416424 0.2648424673 0)
(2.889344742 0.2648057149 0)
(2.889159848 0.2647713893 0)
(2.88895659 0.2648099148 0)
(2.888905714 0.2648208084 0)
(2.888850218 0.2647499317 0)
(2.888871939 0.2646113617 0)
(2.889005401 0.2645247353 0)
(2.889069442 0.2645362499 0)
(2.889078641 0.2645816006 0)
(2.889042947 0.2646835833 0)
(2.888905369 0.2647482718 0)
(2.888750799 0.2647898931 0)
(2.888712715 0.2648085868 0)
(2.888720629 0.2648069019 0)
(2.888772383 0.2647780412 0)
(2.888895316 0.2647314418 0)
(2.888934344 0.2647210025 0)
(2.888918699 0.2647357576 0)
(2.888840691 0.2647720586 0)
(2.888657446 0.2648161511 0)
(2.88850169 0.26480771 0)
(2.888456718 0.2647737755 0)
(2.918466372 0.1943740088 0)
(2.914753909 0.2042870159 0)
(2.921141666 0.1960339417 0)
(2.905968891 0.2212138478 0)
(2.900183929 0.2468090087 0)
(2.90115496 0.2432052842 0)
(2.896949368 0.2482155658 0)
(2.891754648 0.2562056167 0)
(2.890480083 0.2570174822 0)
(2.890098898 0.2615527325 0)
(2.889638681 0.2654927254 0)
(2.888141895 0.2669826071 0)
(2.88613705 0.268050221 0)
(2.884356772 0.2699049664 0)
(2.88356315 0.274097984 0)
(2.882621887 0.2752613449 0)
(2.882717287 0.2738666029 0)
(2.883912909 0.2739278228 0)
(2.884752388 0.2737715071 0)
(2.885038423 0.272605014 0)
(2.884802593 0.2704004756 0)
(2.884116485 0.2683205513 0)
(2.884198834 0.2660909343 0)
(2.885372495 0.264640185 0)
(2.886169369 0.2639326231 0)
(2.887193057 0.2628329363 0)
(2.887559439 0.2619314969 0)
(2.887925737 0.2614546215 0)
(2.888496442 0.261093056 0)
(2.888570184 0.2614235771 0)
(2.888305123 0.2620813527 0)
(2.88815902 0.2626750587 0)
(2.888159922 0.2628109709 0)
(2.888337581 0.2629281898 0)
(2.888818387 0.2630705619 0)
(2.889259797 0.263296306 0)
(2.88907692 0.2636013726 0)
(2.888748883 0.263688187 0)
(2.888422823 0.2638013725 0)
(2.888212404 0.2638158489 0)
(2.887873001 0.2638167982 0)
(2.88770834 0.2638990459 0)
(2.887974838 0.2639696965 0)
(2.888434688 0.2640196471 0)
(2.888417754 0.2640407568 0)
(2.888329597 0.2640515772 0)
(2.888176275 0.2640880523 0)
(2.887956097 0.2642068746 0)
(2.887842061 0.2644093283 0)
(2.887837229 0.2644913819 0)
(2.887861856 0.264488714 0)
(2.887978875 0.2644351409 0)
(2.888156626 0.2644257171 0)
(2.888210567 0.2644739665 0)
(2.888236291 0.264599084 0)
(2.888139822 0.2647095323 0)
(2.887919364 0.2647214333 0)
(2.887816816 0.2647006796 0)
(2.887833839 0.264702379 0)
(2.887904269 0.2647142433 0)
(2.888056657 0.264682964 0)
(2.888143686 0.2646121151 0)
(2.88813243 0.2645864054 0)
(2.888108028 0.2645731942 0)
(2.888029807 0.2645812178 0)
(2.887895103 0.2646471465 0)
(2.887793414 0.2646744046 0)
(2.971997845 0.05900542469 0)
(2.959836848 0.08985627905 0)
(2.951672111 0.1122460376 0)
(2.934698947 0.1463599546 0)
(2.922437466 0.176981269 0)
(2.925543387 0.1827028919 0)
(2.910005509 0.216185944 0)
(2.898082404 0.2534271608 0)
(2.895464822 0.2529457142 0)
(2.895087541 0.2582448382 0)
(2.886369818 0.2764348137 0)
(2.88398816 0.2821139142 0)
(2.881433863 0.2823877759 0)
(2.880951295 0.2841316983 0)
(2.880724679 0.2860386965 0)
(2.879789871 0.2846693915 0)
(2.877728702 0.2790481071 0)
(2.879210192 0.2736734544 0)
(2.881547637 0.2732580712 0)
(2.882906212 0.2721078023 0)
(2.882193858 0.2703671524 0)
(2.881992114 0.2698457403 0)
(2.881818537 0.2689734062 0)
(2.882233754 0.267943947 0)
(2.882812357 0.2676105194 0)
(2.883502415 0.2677273551 0)
(2.88420051 0.2675717304 0)
(2.88532913 0.2672388579 0)
(2.886583621 0.2657174511 0)
(2.886394571 0.2656920054 0)
(2.885921608 0.2653676991 0)
(2.886155721 0.2649110931 0)
(2.886304378 0.2647338687 0)
(2.886584805 0.2644490924 0)
(2.887022642 0.2639585949 0)
(2.887148199 0.2631863873 0)
(2.887113623 0.2628710756 0)
(2.88702862 0.2626048792 0)
(2.886884079 0.262480086 0)
(2.886764202 0.2626317171 0)
(2.886623419 0.262685218 0)
(2.88636706 0.262788894 0)
(2.886464259 0.2631424543 0)
(2.886861481 0.2635544782 0)
(2.886973532 0.2638369332 0)
(2.886881616 0.2640005736 0)
(2.886730975 0.2640846119 0)
(2.886465313 0.2642731847 0)
(2.886302423 0.2647149224 0)
(2.886306941 0.2649194711 0)
(2.886361502 0.2650132706 0)
(2.886473876 0.265038192 0)
(2.886621966 0.2649186989 0)
(2.886711597 0.2647924736 0)
(2.886716539 0.2647376222 0)
(2.886674361 0.2646845912 0)
(2.886543242 0.2645893152 0)
(2.886469834 0.2645903222 0)
(2.886504339 0.2646595831 0)
(2.886580429 0.264731139 0)
(2.886755359 0.2647166954 0)
(2.886887767 0.2645603004 0)
(2.886921047 0.2644653846 0)
(2.886918846 0.264437001 0)
(2.886861988 0.2644138956 0)
(2.88679231 0.2645053759 0)
(2.886694545 0.2646153892 0)
(2.996872791 0.00609000127 0)
(2.994248809 0.01150759757 0)
(2.990253039 0.02008507183 0)
(2.984182892 0.03175335038 0)
(2.975484272 0.05138998565 0)
(2.967035244 0.07348552852 0)
(2.95575371 0.09852438945 0)
(2.945645964 0.124103941 0)
(2.941858578 0.1374826092 0)
(2.924479038 0.173596087 0)
(2.913119666 0.2137672877 0)
(2.91181377 0.2096333415 0)
(2.915874791 0.2058129335 0)
(2.901918404 0.2335446982 0)
(2.899336864 0.2441669786 0)
(2.901124239 0.2457887428 0)
(2.893831954 0.2526021678 0)
(2.890823926 0.2570597892 0)
(2.889830641 0.2571675918 0)
(2.888484708 0.2607939261 0)
(2.887821123 0.2647069198 0)
(2.886312822 0.2669468743 0)
(2.8843758 0.2680603955 0)
(2.883379573 0.2704380611 0)
(2.882953062 0.2730778381 0)
(2.881958623 0.2731824991 0)
(2.882359655 0.2726461575 0)
(2.882682213 0.2716861908 0)
(2.882717541 0.2706555618 0)
(2.883386342 0.2693060542 0)
(2.883524859 0.2674573808 0)
(2.883215538 0.2659860377 0)
(2.883556855 0.2643174584 0)
(2.884087773 0.2633095981 0)
(2.884688023 0.2628067487 0)
(2.884999227 0.2621209641 0)
(2.885048677 0.261712102 0)
(2.885235247 0.261263925 0)
(2.885464314 0.2612178066 0)
(2.885941636 0.2619086354 0)
(2.885989811 0.2628081027 0)
(2.885758571 0.2629972617 0)
(2.88582429 0.2631867196 0)
(2.88588959 0.263244326 0)
(2.885966705 0.2633418281 0)
(2.886005641 0.2634058356 0)
(2.885942153 0.2634363221 0)
(2.88583583 0.2634788157 0)
(2.885763656 0.263596893 0)
(2.885680958 0.2637202637 0)
(2.885488431 0.2638618513 0)
(2.885433761 0.2640266999 0)
(2.885513769 0.2639494613 0)
(2.885635978 0.2637797909 0)
(2.88570793 0.2638141895 0)
(2.885760161 0.2640458994 0)
(2.885741041 0.2641542302 0)
(2.885718198 0.2642162975 0)
(2.885685383 0.2642246668 0)
(2.885633742 0.2643004896 0)
(2.885651348 0.2643829117 0)
(2.885681187 0.2644065465 0)
(2.885755237 0.2643690162 0)
(2.88585546 0.2642880828 0)
(2.885875792 0.2642545034 0)
(2.885863768 0.2642765744 0)
(2.88579518 0.2643390711 0)
(2.999936547 0.0001116779439 0)
(2.999823632 0.0003149187573 0)
(2.999554365 0.0008193827916 0)
(2.998961003 0.001946691544 0)
(2.997815957 0.00418605864 0)
(2.99574977 0.008552745505 0)
(2.992722632 0.01456268492 0)
(2.987498914 0.02590585005 0)
(2.980080814 0.04416049636 0)
(2.972820786 0.05788916146 0)
(2.9615408 0.08394983242 0)
(2.952124646 0.1115639524 0)
(2.942763206 0.1354451685 0)
(2.923443916 0.1787913918 0)
(2.918434971 0.1922830065 0)
(2.921992982 0.1999914345 0)
(2.902812764 0.2383392544 0)
(2.897021881 0.2576008658 0)
(2.897450248 0.2551717481 0)
(2.89009135 0.2663613634 0)
(2.88667701 0.2790515694 0)
(2.884405137 0.2791380201 0)
(2.883502615 0.2792400501 0)
(2.883345233 0.2812308709 0)
(2.882947499 0.2804890203 0)
(2.882276912 0.2783480952 0)
(2.880294129 0.2729394712 0)
(2.881211955 0.2697590967 0)
(2.882146131 0.2697657438 0)
(2.882451034 0.2684774459 0)
(2.882667601 0.2677753538 0)
(2.882709953 0.2674621176 0)
(2.882901092 0.2662945579 0)
(2.883086842 0.2656446959 0)
(2.883398019 0.2663446512 0)
(2.88362235 0.2666814157 0)
(2.883869728 0.2667400376 0)
(2.884663198 0.2663126673 0)
(2.885238688 0.2652064901 0)
(2.885340275 0.2654403995 0)
(2.885320071 0.2655907735 0)
(2.885366903 0.2651461078 0)
(2.88525263 0.2643583843 0)
(2.885223758 0.2638400738 0)
(2.885315212 0.2636774829 0)
(2.885387312 0.2635325229 0)
(2.885385238 0.2629975456 0)
(2.885580166 0.2626285517 0)
(2.885706425 0.2627016511 0)
(2.885698384 0.262872784 0)
(2.885562565 0.263048966 0)
(2.885327376 0.2632610403 0)
(2.885249669 0.263481141 0)
(2.885237249 0.2635764606 0)
(2.885265438 0.2637157983 0)
(2.885397896 0.2638478125 0)
(2.885556872 0.2640526029 0)
(2.885523503 0.2642204932 0)
(2.885421542 0.2643361439 0)
(2.885179171 0.2645428092 0)
(2.884976035 0.2646672491 0)
(2.884913409 0.2646454276 0)
(2.884922078 0.2645478136 0)
(2.885068932 0.2644023343 0)
(2.885296446 0.2642685623 0)
(2.885369398 0.2642652016 0)
(2.885353197 0.2642924109 0)
(2.999999814 2.959899507e-07 0)
(2.999999154 1.386835056e-06 0)
(2.999996726 5.423204656e-06 0)
(2.999988357 2.002441129e-05 0)
(2.999962349 6.609667309e-05 0)
(2.999894059 0.0001884319413 0)
(2.999715929 0.0005299586202 0)
(2.999321065 0.001259173226 0)
(2.998537364 0.002781490228 0)
(2.996968938 0.006012642768 0)
(2.99431382 0.01128125983 0)
(2.9903453 0.02037840856 0)
(2.984937267 0.0317103003 0)
(2.976996353 0.04782173971 0)
(2.967292205 0.07227007175 0)
(2.957865317 0.09639149092 0)
(2.945291537 0.1264342296 0)
(2.939395843 0.1424739258 0)
(2.935416244 0.1558219222 0)
(2.91552605 0.1988663784 0)
(2.910198516 0.2231377379 0)
(2.912356943 0.2120357684 0)
(2.908889353 0.2199899722 0)
(2.900944462 0.2404042465 0)
(2.901593053 0.2429373435 0)
(2.898258074 0.2495853654 0)
(2.893823967 0.2544058066 0)
(2.891572492 0.2569478271 0)
(2.889885724 0.2571825928 0)
(2.888344262 0.2610089301 0)
(2.887738255 0.2658752017 0)
(2.886240693 0.2676005711 0)
(2.884694302 0.268066535 0)
(2.884445697 0.2704845456 0)
(2.883599989 0.271742488 0)
(2.88308898 0.271528373 0)
(2.882437478 0.270672321 0)
(2.882673047 0.2697220124 0)
(2.883450328 0.268872525 0)
(2.884099003 0.2673285474 0)
(2.884394916 0.2655114605 0)
(2.884229617 0.2644857473 0)
(2.884186598 0.2632828013 0)
(2.884186526 0.2627140036 0)
(2.88452868 0.262451595 0)
(2.884768122 0.2623440218 0)
(2.885008376 0.261999446 0)
(2.885257525 0.2618845686 0)
(2.88580755 0.2621521646 0)
(2.886058373 0.2628310411 0)
(2.885893816 0.2632281452 0)
(2.885559935 0.2633688859 0)
(2.885378943 0.2635129969 0)
(2.885375297 0.2635700569 0)
(2.885375243 0.2636186355 0)
(2.885387752 0.263656106 0)
(2.88554639 0.2635320076 0)
(2.885660752 0.2635066687 0)
(2.885563586 0.2635775425 0)
(2.885430102 0.263656182 0)
(2.885138298 0.2638253665 0)
(2.884895564 0.2639119204 0)
(2.884829058 0.2638979459 0)
(2.884819917 0.2639222403 0)
(2.885036377 0.2640406163 0)
(2.885270503 0.2641347661 0)
(2.885317165 0.2641691078 0)
(3 6.306788515e-11 0)
(3 5.684592372e-10 0)
(2.999999997 4.471363708e-09 0)
(2.999999983 2.575018898e-08 0)
(2.999999911 1.424895995e-07 0)
(2.999999586 6.842176168e-07 0)
(2.999998341 2.736932303e-06 0)
(2.999993611 1.08485396e-05 0)
(2.99997872 3.679461557e-05 0)
(2.999936388 0.0001125767102 0)
(2.999821567 0.0003226939439 0)
(2.999558628 0.0008146983776 0)
(2.998976249 0.001955093738 0)
(2.997839622 0.004147665231 0)
(2.995763387 0.008492853874 0)
(2.992591541 0.01523225435 0)
(2.988298972 0.0239803731 0)
(2.980461995 0.04262840453 0)
(2.972241703 0.06173482514 0)
(2.963060845 0.08017335578 0)
(2.950916284 0.1116764016 0)
(2.945450187 0.1316688977 0)
(2.930236202 0.1653240666 0)
(2.91575726 0.2030798944 0)
(2.917603858 0.2027693921 0)
(2.912323258 0.219805861 0)
(2.898949718 0.2543373466 0)
(2.895743751 0.2587944381 0)
(2.895020439 0.2605581508 0)
(2.888797144 0.272695768 0)
(2.887389118 0.2803761179 0)
(2.885083807 0.2780180821 0)
(2.885249263 0.2774113683 0)
(2.885088003 0.2766686471 0)
(2.885018695 0.27593613 0)
(2.883641472 0.273449243 0)
(2.882048263 0.2689582749 0)
(2.882463794 0.2673426577 0)
(2.882997376 0.2666281034 0)
(2.883630574 0.2661536184 0)
(2.883868576 0.2660255081 0)
(2.884009595 0.2657770458 0)
(2.88423855 0.2649617765 0)
(2.884431654 0.2651350445 0)
(2.884417645 0.2662537044 0)
(2.884338667 0.2664899936 0)
(2.884667916 0.2661987814 0)
(2.885397578 0.2653827895 0)
(2.88578531 0.2653215593 0)
(2.885909344 0.2653007366 0)
(2.885865489 0.2651971072 0)
(2.885623175 0.2646270437 0)
(2.885327145 0.2639684122 0)
(2.885284815 0.2639064629 0)
(2.885267248 0.263921646 0)
(2.885161265 0.2635690386 0)
(2.885315377 0.2630497858 0)
(2.885707416 0.2628868049 0)
(2.885806647 0.2629571551 0)
(2.885836676 0.2631410267 0)
(2.885674053 0.2633076723 0)
(2.885340222 0.2635632176 0)
(2.885138639 0.2638698222 0)
(2.885120366 0.2640166944 0)
(2.885199814 0.2642658072 0)
(2.885352911 0.2643455585 0)
(2.88550677 0.2641912027 0)
(3 -1.037549013e-15 0)
(3 -1.205728863e-13 0)
(3 1.839669053e-13 0)
(3 1.910614281e-12 0)
(3 1.793024876e-11 0)
(3 2.133055987e-10 0)
(2.999999999 1.691951494e-09 0)
(2.999999993 1.108548902e-08 0)
(2.999999959 6.562637753e-08 0)
(2.999999803 3.172636151e-07 0)
(2.999999127 1.439698876e-06 0)
(2.999996541 5.808796489e-06 0)
(2.99998812 2.031491182e-05 0)
(2.999961416 6.835133658e-05 0)
(2.99989003 0.0001954461113 0)
(2.999714239 0.0005278804425 0)
(2.999304032 0.001325495331 0)
(2.998515167 0.002807686503 0)
(2.996975465 0.00597473512 0)
(2.994304072 0.01139461452 0)
(2.990208238 0.02027255874 0)
(2.984743816 0.03348419375 0)
(2.97787037 0.04714132763 0)
(2.968028293 0.06913879984 0)
(2.958449429 0.09483201681 0)
(2.946732177 0.1226600442 0)
(2.935651879 0.1524737197 0)
(2.934543199 0.1573918124 0)
(2.926009534 0.1765339216 0)
(2.910702277 0.2190272287 0)
(2.907922133 0.2270772632 0)
(2.911925657 0.2173557834 0)
(2.903890275 0.2312293788 0)
(2.900325751 0.2416929553 0)
(2.900915218 0.2453033945 0)
(2.896126361 0.2519902011 0)
(2.892997172 0.2563640449 0)
(2.891725546 0.2577785665 0)
(2.889903282 0.2587606198 0)
(2.88813742 0.261909509 0)
(2.887357551 0.2663084989 0)
(2.885719087 0.2675627351 0)
(2.885158635 0.2683324281 0)
(2.885308019 0.2699708092 0)
(2.88445911 0.2705555575 0)
(2.883789226 0.2701920174 0)
(2.882925975 0.268971794 0)
(2.883423006 0.2678127965 0)
(2.88422256 0.2671947524 0)
(2.884827756 0.2657407661 0)
(2.88505406 0.2642682327 0)
(2.884959043 0.2631315185 0)
(2.884876598 0.2622194332 0)
(2.885027925 0.2621589651 0)
(2.885211727 0.2628615331 0)
(2.885256415 0.2630235834 0)
(2.88539771 0.2629648549 0)
(2.885614342 0.2627974488 0)
(2.886083169 0.2629703587 0)
(2.886265732 0.2634237143 0)
(2.886144371 0.2636149559 0)
(2.885905762 0.2636412166 0)
(2.885663852 0.2637862353 0)
(2.885593984 0.2639106236 0)
(2.885575636 0.2639849021 0)
(2.885517167 0.2639749952 0)
(2.885524489 0.2636789821 0)
(3 -8.018212437e-15 0)
(3 -1.132370236e-14 0)
(3 -1.012336649e-14 0)
(3 -9.886565272e-15 0)
(3 -1.644411358e-14 0)
(3 -5.720818598e-14 0)
(3 2.349886119e-13 0)
(3 3.440642082e-14 0)
(3 5.098260458e-12 0)
(3 7.923597559e-11 0)
(3 6.321222806e-10 0)
(2.999999997 4.849259005e-09 0)
(2.999999982 2.934867168e-08 0)
(2.999999906 1.499113043e-07 0)
(2.999999549 7.456517218e-07 0)
(2.999998196 3.013601652e-06 0)
(2.99999335 1.123848683e-05 0)
(2.999977159 3.97362285e-05 0)
(2.999932768 0.0001191267147 0)
(2.999814262 0.0003401784722 0)
(2.999540394 0.0008537441734 0)
(2.99896006 0.001993583253 0)
(2.997810483 0.004292797577 0)
(2.995757621 0.00837264123 0)
(2.99226615 0.01607982971 0)
(2.987991426 0.02489083727 0)
(2.981427427 0.03933665169 0)
(2.97189328 0.06411455575 0)
(2.963267699 0.08206255614 0)
(2.950791237 0.1093939931 0)
(2.942388806 0.1350370825 0)
(2.937516314 0.1540763548 0)
(2.918123699 0.1975803844 0)
(2.910311549 0.2180099117 0)
(2.915503593 0.2154616902 0)
(2.902781838 0.2385032376 0)
(2.896231653 0.2626152258 0)
(2.895365692 0.2619893401 0)
(2.892290526 0.2666996149 0)
(2.888528659 0.2773014699 0)
(2.886739725 0.2806195604 0)
(2.884793777 0.2765974749 0)
(2.885239291 0.2738929141 0)
(2.885699717 0.2720356225 0)
(2.886358557 0.2719337771 0)
(2.885174413 0.269780154 0)
(2.883299512 0.2667358017 0)
(2.883275613 0.2650786221 0)
(2.883585691 0.2649128365 0)
(2.884236922 0.2649253375 0)
(2.884525518 0.2648561807 0)
(2.884753368 0.2646750205 0)
(2.885069719 0.2641876828 0)
(2.885558849 0.2649263374 0)
(2.885680732 0.2661924264 0)
(2.885474213 0.2663886974 0)
(2.885373565 0.2656011413 0)
(2.885748332 0.2649814818 0)
(2.885853496 0.2648903839 0)
(2.88594291 0.2649039995 0)
(2.886072803 0.2647299594 0)
(2.886050926 0.2642706791 0)
(2.885883715 0.2637953958 0)
(2.885673902 0.2636992246 0)
(2.885526904 0.2637824596 0)
(2.885349286 0.2637164776 0)
(2.885255041 0.2633733688 0)
(3 -3.333022643e-15 0)
(3 -4.25712533e-15 0)
(3 -3.527399877e-15 0)
(3 -9.236402374e-15 0)
(3 -1.41109827e-14 0)
(3 -1.542942496e-14 0)
(3 -1.495656088e-14 0)
(3 -1.67704034e-14 0)
(3 -1.979227211e-14 0)
(3 -6.853279477e-15 0)
(3 6.161541704e-14 0)
(3 -3.770710246e-13 0)
(3 2.107402974e-12 0)
(3 2.462361812e-11 0)
(3 2.431855315e-10 0)
(2.999999999 2.011708539e-09 0)
(2.999999992 1.271987017e-08 0)
(2.999999954 7.36473824e-08 0)
(2.999999776 3.675176286e-07 0)
(2.999999054 1.565517513e-06 0)
(2.999996236 6.407144011e-06 0)
(2.999987026 2.221668904e-05 0)
(2.999959265 7.193582459e-05 0)
(2.999880962 0.0002142465328 0)
(2.999698083 0.0005500273725 0)
(2.999274925 0.001398278196 0)
(2.998422391 0.003049592153 0)
(2.996929009 0.006058040501 0)
(2.994259101 0.01169504748 0)
(2.99002144 0.02029559928 0)
(2.984188803 0.0342713316 0)
(2.977413154 0.05007256787 0)
(2.968514177 0.068544304 0)
(2.958707733 0.09273269046 0)
(2.949190694 0.1179505711 0)
(2.934494567 0.1543819765 0)
(2.92789915 0.1739789941 0)
(2.93147072 0.170450522 0)
(2.917232835 0.1956947628 0)
(2.908066871 0.2309534571 0)
(2.906324299 0.2307095205 0)
(2.908679381 0.2257987582 0)
(2.900603739 0.2379224059 0)
(2.898774283 0.244168617 0)
(2.898446185 0.248392193 0)