/*--------------------------------*- C++ -*----------------------------------*\
  =========                 |
  \\      /  F ield         | OpenFOAM: The Open Source CFD Toolbox
   \\    /   O peration     | Website:  https://openfoam.org
    \\  /    A nd           | Version:  7
     \\/     M anipulation  |
\*---------------------------------------------------------------------------*/
FoamFile
{
    version     2.0;
    format      ascii;
    class       volScalarField;
    location    "0.4";
    object      p;
}
// * * * * * * * * * * * * * * * * * * * * * * * * * * * * * * * * * * * * * //

dimensions      [1 -1 -2 0 0 0 0];

internalField   nonuniform List<scalar> 
555
(
1
1
1.000000009
1.000000169
1.00000201
1.000015282
1.000077882
1.000275392
1.000690151
1.00124317
1.001619683
1.001681847
1.001626306
1.001379992
1.000953712
1.000352541
1.000000011
1.000000282
1.000004259
1.000040658
1.000252579
1.001067949
1.003232005
1.007346385
1.012960354
1.01821833
1.02086424
1.021030441
1.020174108
1.017481219
1.013345357
1.006481092
1.000004228
1.000050141
1.000376858
1.001877266
1.006486613
1.016382195
1.031887689
1.050439753
1.067544405
1.078815624
1.082406042
1.081550861
1.077289464
1.068229642
1.056259532
1.034022386
1.000321746
1.001948813
1.007869915
1.022351681
1.047233734
1.07894941
1.110058607
1.134898098
1.150158456
1.157010255
1.156119006
1.151821923
1.14256108
1.128223608
1.111758522
1.079285298
1.006463041
1.021747734
1.052382681
1.094207595
1.138391819
1.171045799
1.194481659
1.202160584
1.204167385
1.2013537
1.195429595
1.186120883
1.173512994
1.157980622
1.142470766
1.112485792
1.044430961
1.09313925
1.147293112
1.194927166
1.221288376
1.235486109
1.240835344
1.236593784
1.229865321
1.222240481
1.213011008
1.201660303
1.188119959
1.172760182
1.158377473
1.131489867
1.13784082
1.195395589
1.240911453
1.260510214
1.262031723
1.257988199
1.248395308
1.23796934
1.229358075
1.220973166
1.211509911
1.200019675
1.186485294
1.171358499
1.156983586
1.12982305
1.236518537
1.267116836
1.277029453
1.276645658
1.274763072
1.267348179
1.255343885
1.241828702
1.229443986
1.217739389
1.204935346
1.190832001
1.176283384
1.162124601
1.15000942
1.128899943
1.291330717
1.299881092
1.295282963
1.286421098
1.275850862
1.265980667
1.253357201
1.236213361
1.217575821
1.198680482
1.179750408
1.161980308
1.146429777
1.13388435
1.125787378
1.113755065
1.311138327
1.303289214
1.295741923
1.285612167
1.271267344
1.253268096
1.230097348
1.204626589
1.180308003
1.157922543
1.137183734
1.119275781
1.104224979
1.092986011
1.086089232
1.078008318
1.311399892
1.301997237
1.291278504
1.273320284
1.249708877
1.22256013
1.193283667
1.165006928
1.139825012
1.117564436
1.097500328
1.079849522
1.065201042
1.053924997
1.04658756
1.04004859
1.313631669
1.300379171
1.276253206
1.246360435
1.215971405
1.18589001
1.156476349
1.129189971
1.104653824
1.082923725
1.062603807
1.045713947
1.032235173
1.021861176
1.015448466
1.008416319
1.304587846
1.277105922
1.24429824
1.210896848
1.17991489
1.150254268
1.121163801
1.094612356
1.071741282
1.052072017
1.033679318
1.017148464
1.002809835
0.9918474877
0.9843669904
0.9763347065
1.276157103
1.243080542
1.208396699
1.17508421
1.144844207
1.116678034
1.090086652
1.065452491
1.042488954
1.022086129
1.00296434
0.9857740229
0.9732998705
0.9638148
0.9578290324
0.9507240443
1.241376621
1.206703641
1.173105432
1.142887358
1.113797757
1.085010698
1.058117644
1.032887771
1.011722263
0.993557184
0.9766018491
0.9616489922
0.9486516748
0.9388211501
0.9322468791
0.9235645126
1.207725622
1.173332622
1.139880563
1.108812621
1.079153393
1.052004093
1.027153688
1.004245156
0.9846387738
0.9654185789
0.9492385373
0.9337832629
0.9219511783
0.9134351967
0.9059461639
0.8970826341
1.172022562
1.137303455
1.105570499
1.076165534
1.048361542
1.021789438
0.9962086189
0.9745031401
0.9543048963
0.937603697
0.9226382022
0.9080356017
0.8979411122
0.8885157353
0.8827080315
0.8744689914
1.136699827
1.103706109
1.072618674
1.043327145
1.015461236
0.9885417748
0.9653898791
0.9449485177
0.9259955758
0.9110464285
0.8966458091
0.8847645445
0.8768640983
0.8669095392
0.8576269359
0.8461830112
1.100791295
1.068165053
1.036931881
1.01030317
0.983660925
0.9586204645
0.9370207726
0.916286
0.8995366779
0.8847226174
0.8701209626
0.8588395447
0.8507991198
0.8402175509
0.830334793
0.8235724337
1.064527085
1.032661424
1.005012907
0.9786690037
0.9517450002
0.9277565314
0.9050502495
0.8849047476
0.8708753342
0.8584205373
0.8450270032
0.8361892681
0.8271130995
0.8174389672
0.8065860146
0.8017817074
1.029070064
0.9979396187
0.9702238931
0.9420867213
0.9183956654
0.8985036265
0.8783256263
0.8591168602
0.8459983908
0.8305720443
0.81867999
0.8118655724
0.8026690053
0.7911175884
0.7793087677
0.7823410198
0.9896380988
0.9622526548
0.9368431433
0.912609674
0.8896550311
0.8679566692
0.8441072325
0.8298561965
0.8181879928
0.8048277112
0.7949212921
0.7844266625
0.7742558631
0.7632721298
0.7634330562
0.7787594626
0.9566440605
0.9296351734
0.9037681079
0.8770084447
0.8576524892
0.8366696977
0.8175585248
0.8062349125
0.7924300075
0.7786946815
0.7676870063
0.7559887098
0.7455941135
0.7429897665
0.7471581781
0.7807455032
0.9196778134
0.8941852245
0.8669297657
0.8467009509
0.8293080574
0.8077693319
0.7916517282
0.7784481354
0.7648982313
0.74971977
0.7403681821
0.7290071141
0.7242387572
0.7297953391
0.7428770822
0.8153913615
0.8861600948
0.8606831031
0.8363147121
0.8187722836
0.7981717299
0.7771182187
0.7644706896
0.7534030739
0.7386069101
0.7245189799
0.7110100584
0.7031498869
0.7074602913
0.7234571879
0.7644221978
0.8920437237
0.8523457896
0.8256038575
0.8050524589
0.78722828
0.7681148492
0.7502077509
0.7400788293
0.7267685787
0.7094925373
0.6936447331
0.6845678064
0.6880564412
0.7021100551
0.7499683226
0.8444217212
0.972228533
0.8185717708
0.7940392401
0.7755572158
0.760272614
0.7401758087
0.7256311846
0.7125940607
0.6967133006
0.6800035104
0.6702322765
0.6729367927
0.6856889269
0.7290434446
0.8402647774
0.9695613883
1.034933613
0.7857173421
0.7624267832
0.7467608378
0.7291941476
0.710775698
0.6972844911
0.6817961751
0.6651097548
0.6515042851
0.6530238964
0.6643178915
0.7169719148
0.8270639095
0.9459695478
1.015873286
1.044499018
0.7512568763
0.7337809334
0.720042444
0.7021184677
0.6851396332
0.6703445114
0.6520532845
0.6375746976
0.6382280177
0.6482733879
0.6919678176
0.8198461649
0.9745912886
1.042122106
1.043933904
1.044354123
0.7201840227
0.7048822659
0.6893197355
0.6716590007
0.6528579472
0.6348440997
0.6187653685
0.6196897336
0.6302725207
0.6817081469
0.8066659928
0.9360611541
1.024697748
1.05693985
1.054980739
1.048601702
0.6926595145
0.6770453657
0.6579668981
0.6413056138
0.6246096217
0.6100786768
0.6104595131
0.6169719389
0.6599086084
0.7947484989
0.979313859
1.034550621
1.047259106
1.054307924
1.055787947
1.050526615
0.6598855453
0.6437475802
0.6233802074
0.6052922887
0.5961992678
0.5982374592
0.6075014372
0.6571191917
0.7834322147
0.9251632953
1.032115798
1.060723467
1.060100648
1.058093053
1.056541522
1.048470811
0.6304746424
0.613135389
0.6018612383
0.591043365
0.5909747697
0.5979443299
0.6451190388
0.7831257971
0.9718912379
1.027862957
1.04928046
1.060832819
1.06189792
1.059472548
1.055136101
1.044768475
0.597359076
0.5848721479
0.5870264692
0.5883983262
0.6073044334
0.6677585964
0.7800817811
0.9107800098
1.027725055
1.060620147
1.060895646
1.060975765
1.060584847
1.056491562
1.051374065
1.041111924
0.5826430253
0.5803061739
0.5890779134
0.6196496156
0.701675621
0.8278126372
0.96182835
1.009989423
1.039859563
1.059997587
1.061092403
)
;

boundaryField
{
    inlet
    {
        type            fixedValue;
        value           nonuniform 0();
    }
    outlet
    {
        type            zeroGradient;
    }
    bottom
    {
        type            slip;
    }
    top
    {
        type            slip;
    }
    obstacle
    {
        type            zeroGradient;
    }
    defaultFaces
    {
        type            empty;
    }
    procBoundary5to4
    {
        type            processor;
        value           nonuniform List<scalar> 
34
(
1
1
1.000000211
1.000033089
1.001274779
1.015550705
1.07480712
1.185763966
1.267476239
1.314120268
1.317991931
1.322854333
1.324355648
1.306180806
1.275755314
1.241349621
1.206604149
1.170323668
1.134722959
1.096721115
1.06145613
1.023463987
0.986043403
0.9492479184
0.9114757936
0.8768061038
0.8424551556
0.8093094297
0.7757202646
0.7428074043
0.712169442
0.6781509988
0.6461060744
0.6132887453
)
;
    }
    procBoundary5to10
    {
        type            processor;
        value           uniform 0.5929388437;
    }
    procBoundary5to11
    {
        type            processor;
        value           nonuniform List<scalar> 
17
(
1.059538666
1.056675661
1.051509245
1.048137497
1.039159439
0.5872757264
0.6079476324
0.6760358603
0.7638631472
0.8467062085
0.9190830579
1.00463028
1.037058241
1.046899034
1.053196993
1.059538666
1.056307815
)
;
    }
}


// ************************************************************************* //
