/*--------------------------------*- C++ -*----------------------------------*\
  =========                 |
  \\      /  F ield         | OpenFOAM: The Open Source CFD Toolbox
   \\    /   O peration     | Website:  https://openfoam.org
    \\  /    A nd           | Version:  7
     \\/     M anipulation  |
\*---------------------------------------------------------------------------*/
FoamFile
{
    version     2.0;
    format      ascii;
    class       volScalarField;
    location    "0.1";
    object      T;
}
// * * * * * * * * * * * * * * * * * * * * * * * * * * * * * * * * * * * * * //

dimensions      [0 0 0 1 0 0 0];

internalField   nonuniform List<scalar> 
555
(
1
1
1
1
1
1.000000183
1.000000009
1
1
1
1
1
1
1
1
1
1
1
1
1
1
1.000000212
1.00000001
1
1
1
1
1
1
1
1
1
1
1
1
1
1
0.9999991258
0.9999998948
0.9999999905
0.9999999971
0.9999999987
0.9999999996
1
1
1
1
1
1
1
1
1
1
0.99989848
0.9999782982
0.9999952012
0.9999978778
0.9999989004
0.9999996126
0.9999999451
0.9999999982
1
1
1
1
1
1
1
1
0.9982430086
0.9992616745
0.9996742664
0.9998139789
0.999893165
0.9999563023
0.9999915016
0.9999995087
0.9999999948
1
1
1
1
1
1
1
0.9897750839
0.9933406638
0.9956323295
0.9970281598
0.9981517116
0.9991415683
0.9997739686
0.9999770017
0.9999994326
0.9999999979
1
1
1
1
1
1
0.9703995397
0.9757560541
0.9808757353
0.9858452376
0.9908332464
0.995313044
0.9983861716
0.9997191005
0.9999838993
0.9999998136
0.9999999997
1
1
1
1
1
0.9423163092
0.948862375
0.9578916923
0.9687628922
0.9796984812
0.9888245627
0.995183574
0.9986776881
0.9998396646
0.9999946533
0.9999999697
1
1
1
1
1
0.9187479659
0.9276807812
0.9413923225
0.9574416415
0.9721062077
0.9833266584
0.9913472689
0.9966503468
0.9992754983
0.9999423744
0.9999989522
0.9999999972
1
1
1
1
0.8989146378
0.9142022921
0.9338862977
0.9543389415
0.9707042149
0.9810002732
0.9884394422
0.9942743197
0.9981495386
0.9997225325
0.9999875035
0.9999998924
0.9999999999
1
1
1
0.8999387747
0.9201271968
0.9434163139
0.9612635197
0.9722145424
0.9802934271
0.9865205844
0.9921386524
0.9967349553
0.9992562919
0.9999361841
0.9999986736
0.9999999956
1
1
1
0.9366683506
0.9607055565
0.972721876
0.977293262
0.9795953442
0.981935553
0.9858430179
0.9908615876
0.9955545797
0.9986625003
0.9998212914
0.999993098
0.9999999505
0.9999999999
0.9999999999
1
0.9816061007
0.9870120273
0.9861384226
0.9844817976
0.9832901865
0.9838222226
0.9861507107
0.9901190092
0.9945828415
0.9980493387
0.9996548342
0.9999800117
0.9999997557
0.9999999992
0.9999999999
0.9999999999
1.00444368
0.9969607568
0.9916517006
0.9877668831
0.9851148899
0.9850713757
0.9865382728
0.9898370458
0.9940062421
0.9975923139
0.999492781
0.9999617272
0.9999993141
0.999999996
0.9999999997
0.9999999999
1.010468787
1.002399593
0.9959230482
0.9906519759
0.9862566447
0.9851373277
0.9863002557
0.9892739898
0.9933487903
0.9971363185
0.9993255293
0.999938697
0.9999984482
0.9999999911
0.9999999996
0.9999999999
1.012788576
1.00794306
1.000326746
0.9946093751
0.9896418951
0.9874508618
0.9874412683
0.9893982561
0.9934233338
0.9973437045
0.9994090523
0.9999405197
0.999999638
1
0.9999999999
0.9999999999
1.012034909
1.006890194
0.9994436372
0.9939622293
0.9895547012
0.9875548296
0.9875324204
0.9894239821
0.9934247099
0.9974013621
0.9994747049
0.9999596464
1.000000042
1.000000002
0.9999999999
0.9999999999
1.010907343
1.005397481
0.9982708823
0.9932566318
0.9894134909
0.987792296
0.987779237
0.9895413997
0.9934442067
0.9973654927
0.999479012
0.9999674388
0.9999999851
0.9999999997
0.9999999999
0.9999999999
1.008839414
1.003452446
0.9972079715
0.9925703111
0.9893242321
0.9881399633
0.9884975946
0.9901469654
0.9935970584
0.9974712368
0.9995212053
0.9999746021
0.9999998905
0.9999999983
0.9999999999
0.9999999999
1.007570198
1.001593245
0.9958950838
0.9917261998
0.9889941634
0.9881442323
0.9890100408
0.9912693927
0.9945303092
0.997754745
0.999579363
0.9999787783
0.9999998997
0.999999998
0.9999999999
0.9999999999
1.006393672
1.000103594
0.9947192874
0.9908554135
0.9885008114
0.9881237438
0.9891062519
0.9918496655
0.9953972952
0.9982723126
0.9996801441
0.9999837878
0.999999892
0.9999999984
0.9999999999
0.9999999999
1.005732673
0.9994536375
0.9938642272
0.9901157648
0.988024726
0.9880079806
0.9891060477
0.9919312146
0.9957510043
0.9985606931
0.9997629005
0.9999893846
0.9999999192
0.9999999989
0.9999999999
0.9999999999
1.005077157
0.9987018091
0.9932133833
0.9896401259
0.987704415
0.9878352378
0.9891079052
0.9921163237
0.9958776301
0.9986795099
0.9998040024
0.9999929638
0.9999999427
0.9999999994
0.9999999999
0.9999999999
1.009815214
1.00444637
0.9979010896
0.9925320057
0.9892993001
0.9876123035
0.9879890334
0.9894074853
0.9925125449
0.9960049047
0.9987540708
0.9998310995
0.9999946713
0.9999999561
0.9999999996
0.9999999999
0.9999999999
1.00945432
1.00388525
0.9972447211
0.9919377703
0.9889169124
0.9875003095
0.9881051265
0.9899046106
0.9929959794
0.9963451232
0.9988670629
0.9998600443
0.9999957572
0.9999999643
0.9999999999
0.9999999999
0.9999999999
1.007971415
1.002879029
0.9965189967
0.9915393546
0.9885373528
0.9872793429
0.9879479444
0.9901078384
0.9933806675
0.9967967959
0.9990399868
0.9998887284
0.9999966587
0.9999999708
1
0.9999999999
0.9999999999
1.00611324
1.001282565
0.995485536
0.9912015089
0.9883112718
0.9870262966
0.9877348652
0.9899536642
0.9937277203
0.9971042505
0.9992136542
0.9999148252
0.9999975565
0.9999999771
1
0.9999999999
0.9999999999
1.004420019
0.9995880117
0.9942967831
0.9907601447
0.9882123177
0.9869237632
0.987752249
0.9898269329
0.9937503402
0.9972922519
0.9993350309
0.9999334613
0.9999983239
0.9999999828
1
0.9999999999
0.9999999999
1.003347785
0.9983249875
0.9934334462
0.9901112649
0.9880767846
0.9871547017
0.9882046655
0.9902390482
0.9937575882
0.9974057012
0.9994127969
0.9999454718
0.9999988409
0.9999999872
0.9999999998
0.9999999999
1.002308784
0.9970635519
0.9927036638
0.9895692557
0.9879200316
0.987346242
0.9889087331
0.991213167
0.9943408132
0.9975891896
0.999472492
0.9999539556
0.9999991579
0.9999999903
0.9999999996
0.9999999999
1.001167544
0.996214563
0.9919786329
0.9890717732
0.9876232126
0.9872828442
0.9888066296
0.9917476834
0.9951130396
0.9979197979
0.9995414435
0.9999615675
0.9999993701
0.9999999929
0.9999999996
0.9999999999
1.003282573
1.000138409
0.9955515319
0.9911941216
0.9885645985
0.987329231
0.9871530191
0.9887888649
0.9920170503
0.9955099313
0.9982262747
0.9996232602
0.9999696203
0.9999995345
0.9999999952
0.9999999997
0.9999999999
1.000944848
0.9987757176
0.9946461387
0.990538387
0.9882070556
0.9871466497
0.9871640564
0.9888265448
0.9919370751
0.9955997317
0.9984246739
0.9996953242
0.9999776058
0.9999996784
0.999999997
0.9999999997
0.9999999999
0.9986896934
0.9970667339
0.9935071168
0.9899220006
0.9878591398
0.9871166094
0.987559063
0.9888709114
0.9918819068
0.9956939311
0.9985647914
0.9997464681
0.9999836589
0.9999997882
0.999999998
)
;

boundaryField
{
    inlet
    {
        type            fixedValue;
        value           nonuniform 0();
    }
    outlet
    {
        type            inletOutlet;
        inletValue      nonuniform 0();
        value           nonuniform 0();
    }
    bottom
    {
        type            slip;
    }
    top
    {
        type            slip;
    }
    obstacle
    {
        type            zeroGradient;
    }
    defaultFaces
    {
        type            empty;
    }
    procBoundary10to4
    {
        type            processor;
        value           nonuniform List<scalar> 
17
(
1
1
1
1
1
1.000000133
1.000000008
1
1
1
1
1
1
1
1
1
1
)
;
    }
    procBoundary10to5
    {
        type            processor;
        value           uniform 1;
    }
    procBoundary10to9
    {
        type            processor;
        value           nonuniform List<scalar> 
27
(
1.000001605
1.000001876
0.9999972098
0.999732391
0.9967889858
0.9857951993
0.9653702927
0.9376307374
0.9143608985
0.8901217526
0.8873462449
0.90736021
0.9656282126
1.008070481
1.014944482
1.016696676
1.015317516
1.014071543
1.011651766
1.010262338
1.009923955
1.010030069
1.009976207
1.009976207
1.015469114
1.014113838
1.01198687
)
;
    }
    procBoundary10to11
    {
        type            processor;
        value           nonuniform List<scalar> 
34
(
1
1
1
1
1
1
1
1
1
1
1
1
1
0.9999999999
0.9999999999
0.9999999999
0.9999999999
0.9999999999
0.9999999999
0.9999999999
0.9999999999
0.9999999999
0.9999999999
0.9999999999
0.9999999999
0.9999999999
0.9999999999
0.9999999999
0.9999999999
0.9999999999
0.9999999999
0.9999999999
0.9999999999
0.9999999999
)
;
    }
    procBoundary10to15
    {
        type            processor;
        value           nonuniform List<scalar> 9(1.009613264 1.007840615 1.007335259 1.006775779 1.005373293 1.005373293 1.015614548 1.011829111 1.007422571);
    }
    procBoundary10to16
    {
        type            processor;
        value           nonuniform List<scalar> 
18
(
0.9999999998
0.9999999999
0.9970636728
0.9956173031
0.9922450368
0.9893371176
0.9875766132
0.9870843297
0.988052155
0.9895563362
0.992688922
0.9960831786
0.9986933824
0.9997825024
0.9999875879
0.9999998563
0.9999999998
0.9999999986
)
;
    }
}


// ************************************************************************* //
