/*--------------------------------*- C++ -*----------------------------------*\
  =========                 |
  \\      /  F ield         | OpenFOAM: The Open Source CFD Toolbox
   \\    /   O peration     | Website:  https://openfoam.org
    \\  /    A nd           | Version:  7
     \\/     M anipulation  |
\*---------------------------------------------------------------------------*/
FoamFile
{
    version     2.0;
    format      ascii;
    class       volVectorField;
    location    "4.1";
    object      U;
}
// * * * * * * * * * * * * * * * * * * * * * * * * * * * * * * * * * * * * * //

dimensions      [0 1 -1 0 0 0 0];

internalField   nonuniform List<vector> 
2222
(
(3 -1.890580763e-12 0)
(3 -1.12948194e-10 0)
(2.999999995 -5.25071978e-09 0)
(2.99999986 -1.506139846e-07 0)
(2.999996762 -3.605353745e-06 0)
(2.999954357 -4.889622804e-05 0)
(2.999530045 -0.000514872584 0)
(2.996707667 -0.003426488619 0)
(2.983913621 -0.01578350953 0)
(2.94952336 -0.04636729502 0)
(2.89774261 -0.07269591512 0)
(2.869255951 -0.08257815372 0)
(2.847128067 -0.07177677159 0)
(2.847056127 -0.07083681582 0)
(2.806991438 -0.0272729241 0)
(2.794873282 -0.009174316443 0)
(2.790762514 0.0002809228563 0)
(2.791648685 0.002918570259 0)
(2.795650857 0.003981129635 0)
(2.801024082 0.0048624859 0)
(2.806595038 0.005478075927 0)
(2.811864815 0.005583805688 0)
(2.817503143 0.005708930484 0)
(2.823527237 0.006019152595 0)
(2.829352154 0.00628296223 0)
(2.835038909 0.006503907504 0)
(2.840985757 0.006951660061 0)
(2.847139415 0.007258080416 0)
(2.85338266 0.007366017812 0)
(2.859936091 0.007265951751 0)
(2.865992727 0.007342461325 0)
(2.87603304 0.00757236995 0)
(3 -2.149745562e-10 0)
(2.999999996 -9.707887379e-09 0)
(2.999999891 -2.828970219e-07 0)
(2.999997644 -6.259018793e-06 0)
(2.999966629 -8.706670772e-05 0)
(2.999660615 -0.0009142044969 0)
(2.997758609 -0.005919526028 0)
(2.990071474 -0.0264212064 0)
(2.96922781 -0.07634672899 0)
(2.944168081 -0.1434305088 0)
(2.92492997 -0.1901309112 0)
(2.88630845 -0.1624191408 0)
(2.857020037 -0.1291265892 0)
(2.83589124 -0.04746556416 0)
(2.812989288 0.009041824132 0)
(2.801427556 0.01151160553 0)
(2.795800856 0.008404631154 0)
(2.797688451 0.01105691485 0)
(2.801889829 0.01493025726 0)
(2.806184308 0.01715020347 0)
(2.811046959 0.01789017747 0)
(2.816344668 0.01760708436 0)
(2.821950653 0.0185455247 0)
(2.826934823 0.01951061329 0)
(2.831664129 0.02006160464 0)
(2.836739194 0.02083364698 0)
(2.842085808 0.0220562454 0)
(2.847433995 0.02251530424 0)
(2.852974181 0.02258446377 0)
(2.858777146 0.02233994322 0)
(2.863885879 0.02240533735 0)
(2.872565076 0.02246496977 0)
(2.999999996 -1.01240837e-08 0)
(2.999999892 -2.795679404e-07 0)
(2.999997348 -7.102589242e-06 0)
(2.999969736 -7.929344654e-05 0)
(2.999617144 -0.001022397509 0)
(2.997916911 -0.005475359133 0)
(2.988538381 -0.02897929423 0)
(2.971489606 -0.07442704648 0)
(2.936988831 -0.1528912605 0)
(2.927390745 -0.1921848706 0)
(2.914505884 -0.2365562356 0)
(2.901567006 -0.2256172799 0)
(2.880272386 -0.1834732605 0)
(2.857906072 -0.1300698107 0)
(2.848898633 -0.08932005307 0)
(2.842351863 -0.04355099495 0)
(2.825270872 -0.008699217612 0)
(2.824167605 0.01316695779 0)
(2.818788414 0.02338109599 0)
(2.81945649 0.02648621582 0)
(2.822970189 0.02729653406 0)
(2.827165862 0.02862931105 0)
(2.831200119 0.03137385365 0)
(2.83466437 0.03297756515 0)
(2.838491066 0.03413583575 0)
(2.842988223 0.0357104029 0)
(2.847884793 0.0375037255 0)
(2.853012487 0.03816862409 0)
(2.858365312 0.03864616869 0)
(2.86386076 0.03886080481 0)
(2.868405038 0.03947823024 0)
(2.875811474 0.03945585261 0)
(2.99999989 -2.849703182e-07 0)
(2.999997338 -7.111936379e-06 0)
(2.999967149 -8.695907655e-05 0)
(2.999639356 -0.0009851846104 0)
(2.997739291 -0.005854119241 0)
(2.989650153 -0.02757375395 0)
(2.96675404 -0.07981309022 0)
(2.946161331 -0.143610607 0)
(2.914287754 -0.2222723026 0)
(2.916104718 -0.2234276718 0)
(2.906718697 -0.2412053319 0)
(2.900825867 -0.2427336299 0)
(2.892478087 -0.2307145305 0)
(2.879232004 -0.1990670046 0)
(2.865508965 -0.1454856321 0)
(2.850315721 -0.06417700015 0)
(2.838526748 -0.0130279862 0)
(2.836701839 0.02099196728 0)
(2.830073997 0.0326347769 0)
(2.829768811 0.03444132694 0)
(2.831207707 0.03577670058 0)
(2.834151142 0.04024536334 0)
(2.837177629 0.0441088249 0)
(2.840230827 0.04468194116 0)
(2.844246117 0.04655280391 0)
(2.848900248 0.04922076117 0)
(2.853727112 0.05061888567 0)
(2.858899754 0.05038702053 0)
(2.864429378 0.05128913556 0)
(2.870132186 0.05213616669 0)
(2.874745819 0.05303234482 0)
(2.88178646 0.05309861582 0)
(2.999997286 -7.231077162e-06 0)
(2.999967982 -8.386927508e-05 0)
(2.999591342 -0.001111898919 0)
(2.998014176 -0.005385341036 0)
(2.987720812 -0.03112915999 0)
(2.973340686 -0.07149108125 0)
(2.933656463 -0.1633827834 0)
(2.93079503 -0.1826854873 0)
(2.909737099 -0.2387443414 0)
(2.902770507 -0.2444984107 0)
(2.896390794 -0.2463335215 0)
(2.894532841 -0.2446974693 0)
(2.893604199 -0.2420313716 0)
(2.891411789 -0.2310139452 0)
(2.885455507 -0.2043665967 0)
(2.871083137 -0.1493457766 0)
(2.863850367 -0.09859714494 0)
(2.845077623 -0.02815396758 0)
(2.840695283 0.009810757853 0)
(2.838660141 0.02929968954 0)
(2.832162184 0.04666793 0)
(2.83111335 0.05567237992 0)
(2.833215018 0.05624402538 0)
(2.836717604 0.05731461743 0)
(2.841472243 0.06075531169 0)
(2.846517355 0.06288939629 0)
(2.851363536 0.06323772758 0)
(2.856571092 0.06356045676 0)
(2.862184589 0.06541358185 0)
(2.867788715 0.06647021831 0)
(2.872262311 0.06748421771 0)
(2.879513493 0.06795150133 0)
(2.999966822 -8.700268226e-05 0)
(2.999605828 -0.001062660256 0)
(2.997735182 -0.005954624631 0)
(2.989514422 -0.02857799238 0)
(2.965860592 -0.08298143595 0)
(2.948158763 -0.1401484087 0)
(2.913344431 -0.2269116128 0)
(2.913519178 -0.2250295766 0)
(2.906016101 -0.2395546624 0)
(2.897264813 -0.2433736557 0)
(2.893884097 -0.2445449245 0)
(2.894032646 -0.2442130544 0)
(2.894718445 -0.2433196478 0)
(2.897160628 -0.2398822073 0)
(2.897481942 -0.2287504934 0)
(2.893164088 -0.2040500028 0)
(2.883939732 -0.1542548377 0)
(2.856685183 -0.06675316551 0)
(2.852354369 -0.013152072 0)
(2.834436224 0.05569430896 0)
(2.829149302 0.06172792837 0)
(2.830527086 0.06587804424 0)
(2.834841702 0.06893258788 0)
(2.841175537 0.07530093418 0)
(2.847044923 0.08064329908 0)
(2.852297187 0.07916159432 0)
(2.857576785 0.0787153833 0)
(2.863844672 0.08120208116 0)
(2.869812994 0.08381023049 0)
(2.87507135 0.08380250355 0)
(2.879432793 0.08451307738 0)
(2.887127673 0.08514463686 0)
(2.999599561 -0.001083213515 0)
(2.997894151 -0.005524428106 0)
(2.987346392 -0.03280070688 0)
(2.973398792 -0.07130317034 0)
(2.933918152 -0.1622641959 0)
(2.932993966 -0.1834768333 0)
(2.907475516 -0.239690472 0)
(2.902116735 -0.2484507398 0)
(2.897058183 -0.2448024266 0)
(2.894050476 -0.242870993 0)
(2.893892461 -0.2427589367 0)
(2.894411612 -0.2425802976 0)
(2.896059165 -0.2418032034 0)
(2.900217756 -0.2361212313 0)
(2.905119779 -0.2332565547 0)
(2.901763946 -0.217284258 0)
(2.899766183 -0.1921147326 0)
(2.89071615 -0.1509565914 0)
(2.872337031 -0.07668021041 0)
(2.849000522 0.001894557608 0)
(2.843950089 0.02679431158 0)
(2.845480409 0.05785532626 0)
(2.837671371 0.07552453096 0)
(2.838121142 0.08498393584 0)
(2.842256547 0.08823514532 0)
(2.847237673 0.08760644676 0)
(2.853361814 0.08973692929 0)
(2.860173255 0.0927866005 0)
(2.865453314 0.09467330666 0)
(2.87022377 0.09518638801 0)
(2.874727306 0.09703850324 0)
(2.882996448 0.09825840798 0)
(2.997793336 -0.005923060942 0)
(2.988549055 -0.03016073052 0)
(2.966950668 -0.07967347545 0)
(2.943216474 -0.1488630259 0)
(2.913103379 -0.2274961214 0)
(2.917765225 -0.2233970704 0)
(2.902046337 -0.2393482908 0)
(2.897500388 -0.244871235 0)
(2.895141771 -0.245334945 0)
(2.893390347 -0.2437776248 0)
(2.893873991 -0.2426918311 0)
(2.895713883 -0.2407668122 0)
(2.899692592 -0.2365737212 0)
(2.90281308 -0.2330416543 0)
(2.908512105 -0.2235467265 0)
(2.909960206 -0.2197492415 0)
(2.907888886 -0.2031271894 0)
(2.90633264 -0.1784957751 0)
(2.898385992 -0.1367364037 0)
(2.876747934 -0.06664422363 0)
(2.8641207 0.005282009237 0)
(2.848086564 0.07791922527 0)
(2.842789846 0.09626785097 0)
(2.843624027 0.0976671292 0)
(2.847319633 0.09793675794 0)
(2.85348181 0.1026105312 0)
(2.859881792 0.1097265956 0)
(2.864481366 0.110288209 0)
(2.867738398 0.1090048883 0)
(2.871763048 0.1104050718 0)
(2.875970069 0.1135516986 0)
(2.884156508 0.1141642832 0)
(2.988062058 -0.03218338255 0)
(2.972103029 -0.07298670053 0)
(2.932682704 -0.1622128629 0)
(2.930347766 -0.1868168908 0)
(2.908512885 -0.2411915945 0)
(2.90361274 -0.2470554386 0)
(2.897760786 -0.2444355776 0)
(2.893840229 -0.2436367326 0)
(2.893366852 -0.2441987885 0)
(2.893600917 -0.2433893426 0)
(2.895181343 -0.2414153588 0)
(2.899081791 -0.2366613166 0)
(2.902827701 -0.2330126885 0)
(2.907967727 -0.2241624897 0)
(2.909649216 -0.2192269486 0)
(2.914780089 -0.2075403498 0)
(2.914716913 -0.2037069107 0)
(2.915204069 -0.1877895812 0)
(2.914427116 -0.1656323596 0)
(2.908091285 -0.1279945984 0)
(2.8906229 -0.05732911172 0)
(2.86971515 0.01455230273 0)
(2.86942319 0.05030885617 0)
(2.858000322 0.09012923656 0)
(2.855768431 0.1025282188 0)
(2.855503583 0.1146065789 0)
(2.857117502 0.1187330858 0)
(2.859464938 0.1198519727 0)
(2.863395553 0.1204239735 0)
(2.868646528 0.1233951941 0)
(2.873004603 0.1265025654 0)
(2.880881785 0.1271445153 0)
(2.969398845 -0.07593745897 0)
(2.939889349 -0.1557700698 0)
(2.913913979 -0.227368595 0)
(2.915943399 -0.2221602024 0)
(2.902266764 -0.2370652325 0)
(2.897335853 -0.2460053514 0)
(2.895058835 -0.2460256635 0)
(2.893076783 -0.2442902268 0)
(2.893318193 -0.2437378205 0)
(2.894869754 -0.2419802302 0)
(2.898493481 -0.2378906557 0)
(2.902563902 -0.2333014477 0)
(2.907501548 -0.2252088183 0)
(2.909962069 -0.2194222509 0)
(2.91396167 -0.2083645978 0)
(2.915192376 -0.2030227944 0)
(2.920689508 -0.1910659325 0)
(2.921721812 -0.1875134174 0)
(2.924450245 -0.1732191239 0)
(2.923624478 -0.1519035373 0)
(2.917127363 -0.1129232729 0)
(2.907099404 -0.06258922704 0)
(2.878081828 0.04171076899 0)
(2.875734368 0.08831176058 0)
(2.858287781 0.1312890498 0)
(2.857787075 0.1317959604 0)
(2.859221358 0.1303678239 0)
(2.862967756 0.1314683483 0)
(2.868375899 0.1382778998 0)
(2.874420949 0.142549775 0)
(2.878457422 0.1418490099 0)
(2.886295435 0.1421719303 0)
(2.933287312 -0.159823011 0)
(2.930724488 -0.1879522819 0)
(2.910732804 -0.2455659896 0)
(2.900951632 -0.2453771944 0)
(2.894858633 -0.2434901789 0)
(2.894152698 -0.2445650016 0)
(2.893351229 -0.2452138821 0)
(2.893649808 -0.2443790923 0)
(2.894887673 -0.2425535179 0)
(2.898241197 -0.2384535058 0)
(2.902356933 -0.2337420346 0)
(2.907014496 -0.2263617099 0)
(2.909881219 -0.2198485936 0)
(2.913527216 -0.2097602407 0)
(2.91544962 -0.2027308884 0)
(2.919558257 -0.1919374058 0)
(2.92198306 -0.186761699 0)
(2.928458135 -0.175185284 0)
(2.930640501 -0.1719104715 0)
(2.933561644 -0.1574725616 0)
(2.932831406 -0.1387433776 0)
(2.927040376 -0.1009535225 0)
(2.912448323 -0.04553938401 0)
(2.893142286 0.03033367853 0)
(2.879292653 0.0863027203 0)
(2.869959137 0.1202600719 0)
(2.868894661 0.1315176507 0)
(2.867537749 0.1456747639 0)
(2.867916277 0.1509198642 0)
(2.871629015 0.1530006423 0)
(2.875482634 0.1525935654 0)
(2.883325911 0.1540924786 0)
(2.913965568 -0.2245939746 0)
(2.916806305 -0.2222113459 0)
(2.904040192 -0.2367621442 0)
(2.895476026 -0.2451770182 0)
(2.893548937 -0.2457071152 0)
(2.893451764 -0.2456958381 0)
(2.89381543 -0.2452985328 0)
(2.895326424 -0.2431972707 0)
(2.898268699 -0.2391032681 0)
(2.902231588 -0.2336792552 0)
(2.906586421 -0.2268779035 0)
(2.909743363 -0.2201506674 0)
(2.913235166 -0.2105117661 0)
(2.915445339 -0.2029593802 0)
(2.919114424 -0.1929652417 0)
(2.922041467 -0.1863584567 0)
(2.927093701 -0.1764326851 0)
(2.930871729 -0.1701736543 0)
(2.936988724 -0.1595266466 0)
(2.93939382 -0.1551192878 0)
(2.941673734 -0.1425125469 0)
(2.939477697 -0.1230635501 0)
(2.933510722 -0.08756205393 0)
(2.924052537 -0.03962818096 0)
(2.892177725 0.06133404818 0)
(2.882344056 0.1071533619 0)
(2.875874566 0.1562128486 0)
(2.872089127 0.1647765618 0)
(2.872183299 0.1647065332 0)
(2.874681446 0.1623927912 0)
(2.880359772 0.1675299793 0)
(2.8898158 0.1719405285 0)
(2.908474968 -0.2480864302 0)
(2.899736099 -0.2453417438 0)
(2.896083292 -0.2428574822 0)
(2.893293686 -0.244927125 0)
(2.893572446 -0.2453115689 0)
(2.893934565 -0.2454883385 0)
(2.895563956 -0.243653969 0)
(2.89841622 -0.2397319949 0)
(2.902262886 -0.2337367337 0)
(2.906098228 -0.2271187015 0)
(2.909514738 -0.2196848899 0)
(2.912774489 -0.2112090966 0)
(2.915158243 -0.2035942956 0)
(2.918816173 -0.1939127705 0)
(2.921847593 -0.1867431092 0)
(2.927007604 -0.1763110828 0)
(2.930680913 -0.1702404713 0)
(2.93594848 -0.1599825592 0)
(2.9389109 -0.1544503854 0)
(2.944443752 -0.1431894203 0)
(2.946446665 -0.1382259081 0)
(2.947921535 -0.1254288974 0)
(2.94611515 -0.1069869091 0)
(2.941723294 -0.07538752211 0)
(2.926523759 -0.02049839887 0)
(2.910905447 0.04647882845 0)
(2.88566499 0.1263284201 0)
(2.882904198 0.1487346011 0)
(2.882626024 0.1636457709 0)
(2.880516074 0.17397054 0)
(2.880797543 0.1810298197 0)
(2.886075078 0.1819875443 0)
(2.900764452 -0.2367734055 0)
(2.894699821 -0.2453510487 0)
(2.894121642 -0.2463242422 0)
(2.89355295 -0.2462316162 0)
(2.894263595 -0.2454422044 0)
(2.895711211 -0.2440123867 0)
(2.898430973 -0.2404399747 0)
(2.902060206 -0.2346113099 0)
(2.905560685 -0.2277378104 0)
(2.909112557 -0.219465238 0)
(2.912011985 -0.2116816896 0)
(2.915165738 -0.2032299407 0)
(2.918262645 -0.1954768753 0)
(2.922061069 -0.1867831818 0)
(2.926672175 -0.1773009253 0)
(2.930682943 -0.169773045 0)
(2.935463024 -0.1609320503 0)
(2.93884188 -0.1541597939 0)
(2.943510681 -0.1433366796 0)
(2.946326876 -0.1360325651 0)
(2.950789158 -0.1254169044 0)
(2.952546138 -0.1208479772 0)
(2.955029672 -0.1102822599 0)
(2.952661767 -0.09123515566 0)
(2.949039324 -0.06264880511 0)
(2.937525307 -0.009634500156 0)
(2.908653219 0.07339999155 0)
(2.89442843 0.1301674061 0)
(2.887932975 0.1773108137 0)
(2.884505949 0.1967951546 0)
(2.884634388 0.1994847251 0)
(2.889464962 0.1968475276 0)
(2.895621971 -0.2430172756 0)
(2.893236212 -0.2448200714 0)
(2.893282816 -0.2465640561 0)
(2.894213305 -0.2464618031 0)
(2.895773764 -0.2448292528 0)
(2.898355652 -0.2411419063 0)
(2.901762255 -0.2354379841 0)
(2.905248453 -0.2284542763 0)
(2.90834683 -0.2206421298 0)
(2.911503899 -0.2118141594 0)
(2.914668068 -0.2036030238 0)
(2.918081475 -0.1956682836 0)
(2.922066251 -0.1873810996 0)
(2.92643207 -0.1786075824 0)
(2.9308076 -0.1697341374 0)
(2.935192597 -0.1612373527 0)
(2.938802741 -0.1536435206 0)
(2.943571491 -0.1427733797 0)
(2.946033441 -0.1361005794 0)
(2.950008176 -0.1250882839 0)
(2.952083959 -0.1197623993 0)
(2.956984321 -0.1090415912 0)
(2.959650574 -0.1040217284 0)
(2.962518146 -0.0937837003 0)
(2.959941996 -0.07503692569 0)
(2.957067596 -0.04887562041 0)
(2.942558779 0.002751269371 0)
(2.922794228 0.07391566655 0)
(2.894223182 0.1565934393 0)
(2.891074451 0.1776678466 0)
(2.890489365 0.1979175326 0)
(2.888936364 0.2055238207 0)
(2.893650347 -0.2465787872 0)
(2.8931865 -0.2464853351 0)
(2.893793287 -0.2463226293 0)
(2.895547712 -0.245210804 0)
(2.898342294 -0.2417254414 0)
(2.901659326 -0.2360248782 0)
(2.904790414 -0.2293164224 0)
(2.907915701 -0.2212621915 0)
(2.910996028 -0.212537529 0)
(2.914191384 -0.2041775589 0)
(2.917734002 -0.1963838402 0)
(2.921940839 -0.1879237584 0)
(2.926306439 -0.1794330436 0)
(2.931117685 -0.1699650649 0)
(2.934938856 -0.1619460426 0)
(2.939149101 -0.1526402386 0)
(2.942847534 -0.1437382799 0)
(2.946302506 -0.1345179838 0)
(2.949677783 -0.1258660614 0)
(2.952113739 -0.1189494889 0)
(2.956601704 -0.1082025617 0)
(2.959495378 -0.1018253589 0)
(2.964287318 -0.09149730285 0)
(2.966899608 -0.08802459367 0)
(2.969583361 -0.07821467768 0)
(2.967058104 -0.06000742756 0)
(2.964245677 -0.03561335204 0)
(2.948078214 0.02328965482 0)
(2.930056258 0.08178709067 0)
(2.903377402 0.1599144998 0)
(2.891725848 0.2121909748 0)
(2.890080945 0.2235244279 0)
(2.89312908 -0.2474568845 0)
(2.894054538 -0.2468344102 0)
(2.895550468 -0.2453011367 0)
(2.898172804 -0.2420706992 0)
(2.901402615 -0.2367141466 0)
(2.904449735 -0.2299815368 0)
(2.907295183 -0.2222499278 0)
(2.910524077 -0.2131345982 0)
(2.913613077 -0.2050642641 0)
(2.917334697 -0.197304292 0)
(2.921738065 -0.188663226 0)
(2.926724795 -0.1789387628 0)
(2.931036831 -0.1707003243 0)
(2.935224469 -0.162007374 0)
(2.938872538 -0.1534646981 0)
(2.942730824 -0.1435873897 0)
(2.946328644 -0.1340254638 0)
(2.949391735 -0.1256821729 0)
(2.952406654 -0.117894934 0)
(2.956206655 -0.1088214377 0)
(2.959687228 -0.1006877816 0)
(2.96406296 -0.09058720629 0)
(2.966283355 -0.08631990387 0)
(2.971345996 -0.07591712883 0)
(2.973804407 -0.07104223601 0)
(2.976715513 -0.06137645507 0)
(2.97234468 -0.04134724332 0)
(2.969096509 -0.01731821251 0)
(2.960521238 0.02564453542 0)
(2.926365236 0.1196073553 0)
(2.917377569 0.1612127586 0)
(2.897127842 0.2154523509 0)
(2.894128882 -0.2468106048 0)
(2.895478651 -0.2456743045 0)
(2.898108967 -0.2425358932 0)
(2.901231402 -0.2372591185 0)
(2.904132592 -0.23054044 0)
(2.906919308 -0.2227762819 0)
(2.909868098 -0.2143510089 0)
(2.913321138 -0.2055807966 0)
(2.916847211 -0.1981705913 0)
(2.921619197 -0.1891215185 0)
(2.926601325 -0.1794953883 0)
(2.931070185 -0.1707458477 0)
(2.934943627 -0.1630389558 0)
(2.939029895 -0.153375611 0)
(2.942922237 -0.1432807782 0)
(2.946508301 -0.1334167929 0)
(2.949307048 -0.1257640704 0)
(2.95240336 -0.1180062077 0)
(2.955880588 -0.1092029185 0)
(2.960136621 -0.09930523359 0)
(2.96396266 -0.09095843759 0)
(2.966880193 -0.08430813953 0)
(2.970729236 -0.07548687785 0)
(2.97333584 -0.06871421598 0)
(2.978069378 -0.05695177147 0)
(2.980148941 -0.05466561552 0)
(2.981209076 -0.04453135933 0)
(2.978844236 -0.02853617874 0)
(2.975357874 -0.001677963527 0)
(2.9625325 0.04367584692 0)
(2.94388517 0.1123728677 0)
(2.910145815 0.2088173995 0)
(2.895689289 -0.2457656065 0)
(2.898041936 -0.242817614 0)
(2.90093149 -0.2377790051 0)
(2.903703527 -0.2312345101 0)
(2.906334052 -0.2236844105 0)
(2.909428603 -0.2150797428 0)
(2.91278411 -0.2067926427 0)
(2.916873468 -0.1981983357 0)
(2.921302644 -0.18981279 0)
(2.926463635 -0.1799694547 0)
(2.930926867 -0.1712201123 0)
(2.934913379 -0.1630177246 0)
(2.938934608 -0.1535353887 0)
(2.943147586 -0.1425990451 0)
(2.946413482 -0.1335883621 0)
(2.949440231 -0.1257678759 0)
(2.952190343 -0.11885858 0)
(2.956387001 -0.1086790183 0)
(2.960776437 -0.09810534162 0)
(2.964107069 -0.09039675725 0)
(2.967326707 -0.08351429169 0)
(2.970246883 -0.07583188014 0)
(2.973902101 -0.06629464671 0)
(2.977451758 -0.05674388943 0)
(2.979416614 -0.05142685389 0)
(2.98333639 -0.04213916317 0)
(2.984551677 -0.03904478947 0)
(2.987584981 -0.02868513369 0)
(2.984152634 -0.01056481117 0)
(2.981413628 0.01298956331 0)
(2.970467596 0.0568332175 0)
(2.936145899 0.1590067036 0)
(2.897961142 -0.24334568 0)
(2.900718105 -0.2382317992 0)
(2.903215547 -0.2318439947 0)
(2.905859219 -0.2243549201 0)
(2.909001297 -0.215786022 0)
(2.912579698 -0.2073243428 0)
(2.916429912 -0.1995386983 0)
(2.921273144 -0.1900980537 0)
(2.926142836 -0.1807549093 0)
(2.930932681 -0.1712208057 0)
(2.934884523 -0.1629138153 0)
(2.938874207 -0.1533291835 0)
(2.94275687 -0.1429884897 0)
(2.946309572 -0.1334141161 0)
(2.94932566 -0.1260922104 0)
(2.952529351 -0.1182006863 0)
(2.956956751 -0.108063621 0)
(2.961384653 -0.09733543259 0)
(2.964667938 -0.0895696137 0)
(2.967342968 -0.0840960361 0)
(2.970473006 -0.07547972424 0)
(2.974602207 -0.06432603539 0)
(2.977561375 -0.05570063593 0)
(2.979693444 -0.04988956593 0)
(2.982133895 -0.04308559991 0)
(2.984534571 -0.0356344202 0)
(2.98920992 -0.02410934045 0)
(2.991376451 -0.02290282462 0)
(2.992554672 -0.01196512383 0)
(2.991186171 0.002387114748 0)
(2.987573908 0.0258228701 0)
(2.964423367 0.1056733265 0)
(2.900252233 -0.2389381432 0)
(2.902717228 -0.2324439394 0)
(2.905166362 -0.225312777 0)
(2.908587699 -0.2164282332 0)
(2.912216232 -0.2080391082 0)
(2.916290798 -0.2002008224 0)
(2.921114864 -0.1910384279 0)
(2.926435335 -0.1804448378 0)
(2.930815859 -0.1716215138 0)
(2.934865368 -0.1629479149 0)
(2.938539956 -0.1538490333 0)
(2.942566498 -0.1429475278 0)
(2.945992867 -0.1335296441 0)
(2.949295723 -0.125570385 0)
(2.952762041 -0.1174283626 0)
(2.957107439 -0.1074472704 0)
(2.961532136 -0.09725918177 0)
(2.965122501 -0.08921117818 0)
(2.967756066 -0.0835941416 0)
(2.971091928 -0.0747044245 0)
(2.975434597 -0.06283417985 0)
(2.977990835 -0.05410135458 0)
(2.980291693 -0.04880966768 0)
(2.981529187 -0.04430408354 0)
(2.985743666 -0.03299451859 0)
(2.988862334 -0.02400099773 0)
(2.991128749 -0.01821087718 0)
(2.995358679 -0.009902802206 0)
(2.995711441 -0.008132651287 0)
(3.000258974 0.001896601555 0)
(2.995771422 0.02129891672 0)
(2.987292987 0.06630858581 0)
(2.902107993 -0.2331147087 0)
(2.904725133 -0.2257609598 0)
(2.907978612 -0.2175856407 0)
(2.912010472 -0.2085691632 0)
(2.915987319 -0.2009217381 0)
(2.921088454 -0.1914562812 0)
(2.92639847 -0.1809800361 0)
(2.930933253 -0.1715980902 0)
(2.934597234 -0.1637461522 0)
(2.93852457 -0.1539196082 0)
(2.942655962 -0.1428466577 0)
(2.946183239 -0.1327110209 0)
(2.949110426 -0.1255476556 0)
(2.95263281 -0.117461167 0)
(2.957148501 -0.106930572 0)
(2.961473715 -0.09703378641 0)
(2.965334139 -0.08879494394 0)
(2.968368256 -0.08221568877 0)
(2.971618543 -0.07349766968 0)
(2.975727592 -0.06210274334 0)
(2.97852329 -0.05277129257 0)
(2.980435869 -0.04865415835 0)
(2.982359387 -0.04303382658 0)
(2.9866041 -0.03199458647 0)
(2.989577545 -0.02244990601 0)
(2.99222634 -0.01580363047 0)
(2.994257542 -0.01105328668 0)
(2.996890372 -0.003615678411 0)
(3.001226956 0.00675044178 0)
(3.003097535 0.007236027711 0)
(3.003650501 0.02319448672 0)
(3.001204268 0.0472030065 0)
(2.904029077 -0.226731882 0)
(2.90747617 -0.2183825286 0)
(2.911595587 -0.2095669614 0)
(2.916112346 -0.2008375906 0)
(2.920850288 -0.1921077527 0)
(2.926300442 -0.1813400851 0)
(2.930752397 -0.172219441 0)
(2.934685477 -0.1637341203 0)
(2.938504128 -0.1539967612 0)
(2.942745742 -0.142680469 0)
(2.94637204 -0.1326539138 0)
(2.949340071 -0.1252407238 0)
(2.952408824 -0.1179728307 0)
(2.95750285 -0.1064791481 0)
(2.962026396 -0.09561092147 0)
(2.965591924 -0.08789713698 0)
(2.968675258 -0.08150691313 0)
(2.97179081 -0.07271592534 0)
(2.975780633 -0.06134029368 0)
(2.978561496 -0.0523118602 0)
(2.980809115 -0.04728448345 0)
(2.982512255 -0.04229035738 0)
(2.987487277 -0.03029213692 0)
(2.990471475 -0.02039292636 0)
(2.992966377 -0.01525427598 0)
(2.994836988 -0.01043627861 0)
(2.998451704 -0.0005834885183 0)
(3.000650919 0.006247902795 0)
(3.003673257 0.01566221159 0)
(3.008121799 0.02071634887 0)
(3.005797472 0.02493936079 0)
(3.009152472 0.04312535534 0)
(2.907068466 -0.2193581339 0)
(2.911373219 -0.2102491836 0)
(2.915835638 -0.2016678232 0)
(2.920754402 -0.192475236 0)
(2.925903694 -0.1822565157 0)
(2.930679157 -0.1720660387 0)
(2.934576238 -0.163862965 0)
(2.938641476 -0.153686065 0)
(2.942586463 -0.1428403978 0)
(2.946240187 -0.1333585216 0)
(2.949657395 -0.1252325754 0)
(2.953013597 -0.116918772 0)
(2.957919736 -0.1060571896 0)
(2.962696783 -0.09458905521 0)
(2.966154434 -0.08671126242 0)
(2.968782262 -0.08142845899 0)
(2.972053768 -0.07225358689 0)
(2.976140898 -0.06040701475 0)
(2.978912355 -0.05092201989 0)
(2.980934165 -0.04640066758 0)
(2.98271303 -0.04112582354 0)
(2.98783944 -0.02904288002 0)
(2.990845325 -0.01906659024 0)
(2.993251124 -0.01379778528 0)
(2.995910223 -0.009119337166 0)
(2.99865964 -0.0005395983543 0)
(3.002348829 0.01086277972 0)
(3.004906315 0.01618013338 0)
(3.006215257 0.02192065438 0)
(3.009705113 0.03165010561 0)
(3.009228522 0.03191228574 0)
(3.014146701 0.04782271097 0)
(2.911261309 -0.2110067503 0)
(2.915851465 -0.2022421422 0)
(2.920555439 -0.1933303246 0)
(2.925917554 -0.1824663692 0)
(2.930585489 -0.17207568 0)
(2.934413499 -0.1636529473 0)
(2.938154181 -0.1547171454 0)
(2.942542563 -0.1427687169 0)
(2.946125524 -0.1333388895 0)
(2.949763092 -0.1254382843 0)
(2.953840382 -0.1156900337 0)
(2.958332811 -0.1050341997 0)
(2.962771005 -0.09484040709 0)
(2.96661719 -0.08613417688 0)
(2.969371427 -0.08020412812 0)
(2.972432488 -0.07153386605 0)
(2.976918528 -0.05901982386 0)
(2.979571977 -0.04975508961 0)
(2.981546562 -0.04517208135 0)
(2.982978716 -0.04047411894 0)
(2.988098982 -0.028236089 0)
(2.991227107 -0.01756328326 0)
(2.993960861 -0.01188603672 0)
(2.995531716 -0.008794121766 0)
(3.000337663 0.002845539862 0)
(3.002982759 0.01129317302 0)
(3.005152793 0.01882855671 0)
(3.008273756 0.02526256136 0)
(3.008380935 0.02870979632 0)
(3.011847069 0.04032798843 0)
(3.013806166 0.04362453668 0)
(3.017914623 0.05564717062 0)
(2.91572176 -0.2031651776 0)
(2.920695291 -0.193642205 0)
(2.925836133 -0.1830912638 0)
(2.930608502 -0.172207716 0)
(2.934225368 -0.1636668498 0)
(2.937704295 -0.1552854194 0)
(2.942516701 -0.1431736019 0)
(2.94657299 -0.1319164055 0)
(2.94983383 -0.1250141633 0)
(2.953857316 -0.1163044651 0)
(2.95872876 -0.1043550962 0)
(2.96279177 -0.09449111825 0)
(2.966797169 -0.08596355202 0)
(2.969963859 -0.0787034822 0)
(2.973070822 -0.06981273383 0)
(2.977132761 -0.05835269837 0)
(2.980047919 -0.0488398367 0)
(2.982287002 -0.04421271568 0)
(2.98367904 -0.03944406529 0)
(2.988964538 -0.02706697416 0)
(2.992233325 -0.01591658247 0)
(2.994511111 -0.01008785904 0)
(2.996949068 -0.006216366498 0)
(2.999976484 0.002616412705 0)
(3.003468242 0.01408013997 0)
(3.006053332 0.02099513435 0)
(3.007512596 0.02515555346 0)
(3.010622817 0.03416248621 0)
(3.011263883 0.03799565009 0)
(3.01502423 0.04908325496 0)
(3.017495527 0.05467474393 0)
(3.021129623 0.06487269898 0)
(2.920736808 -0.1942685926 0)
(2.925815634 -0.1834784887 0)
(2.930269749 -0.1733984578 0)
(2.934246524 -0.1637606215 0)
(2.937681474 -0.1547264175 0)
(2.942239943 -0.1435649785 0)
(2.946869958 -0.1315534827 0)
(2.950273367 -0.1236794758 0)
(2.953558163 -0.117054428 0)
(2.959030798 -0.1047070225 0)
(2.9635883 -0.09284656956 0)
(2.967110517 -0.08492136402 0)
(2.970254417 -0.07805015911 0)
(2.973262785 -0.06906481792 0)
(2.977101523 -0.05767275394 0)
(2.980174589 -0.04825172278 0)
(2.982656283 -0.0429615269 0)
(2.984478274 -0.03783618949 0)
(2.989721882 -0.02563696196 0)
(2.993021514 -0.01450802046 0)
(2.995671895 -0.007675123198 0)
(2.997275118 -0.005405305588 0)
(3.001272424 0.005028300113 0)
(3.004301381 0.01515326496 0)
(3.006065203 0.02222953219 0)
(3.009126587 0.02967641314 0)
(3.009375532 0.03250696123 0)
(3.012881897 0.04301250516 0)
(3.015481868 0.0499569405 0)
(3.018272739 0.05824944338 0)
(3.02041234 0.06368956307 0)
(3.023662854 0.07357257443 0)
(2.925669534 -0.1842960126 0)
(2.930186807 -0.17354071 0)
(2.934043438 -0.1644551012 0)
(2.937990997 -0.1540343812 0)
(2.942002975 -0.1433347357 0)
(2.946463544 -0.1326369352 0)
(2.950661619 -0.1230121258 0)
(2.954081103 -0.115572999 0)
(2.959120742 -0.1048064772 0)
(2.964344607 -0.09208554488 0)
(2.967847484 -0.08329556718 0)
(2.970425653 -0.07792107905 0)
(2.973323491 -0.06911808169 0)
(2.977423484 -0.05696215235 0)
(2.980583665 -0.04686957277 0)
(2.983030751 -0.04127193469 0)
(2.984813101 -0.03638362188 0)
(2.989747249 -0.02459215295 0)
(2.993469489 -0.01294342944 0)
(2.995974676 -0.006350420448 0)
(2.998464252 -0.003087361554 0)
(3.001562173 0.005656445167 0)
(3.005189805 0.01735628419 0)
(3.007501839 0.02526795464 0)
(3.008920607 0.02895728557 0)
(3.011521998 0.03738387602 0)
(3.012312606 0.04270085255 0)
(3.016198461 0.05387903007 0)
(3.018907574 0.06076717234 0)
(3.020859857 0.06476296336 0)
(3.023006199 0.07187219966 0)
(3.026322289 0.08250201734 0)
(2.930307614 -0.1732289518 0)
(2.933888288 -0.164405184 0)
(2.937499061 -0.1555307142 0)
(2.942097078 -0.1430106511 0)
(2.946233921 -0.1325700142 0)
(2.950616617 -0.1233487946 0)
(2.95495489 -0.1136589334 0)
(2.959354246 -0.103538817 0)
(2.964233637 -0.0924285897 0)
(2.968257354 -0.08287770587 0)
(2.971027526 -0.07674113108 0)
(2.973556179 -0.06862800887 0)
(2.978026236 -0.05599527458 0)
(2.981303723 -0.04544677966 0)
(2.983805389 -0.03942421955 0)
(2.985291769 -0.0350559329 0)
(2.989705525 -0.023808114 0)
(2.99382944 -0.01167638232 0)
(2.996552823 -0.004016121025 0)
(2.998490992 -0.001786907544 0)
(3.002093256 0.007378823125 0)
(3.005983512 0.01928995443 0)
(3.007697824 0.02618013374 0)
(3.0106766 0.03329714647 0)
(3.01121385 0.03669619184 0)
(3.014182564 0.0467310807 0)
(3.016730483 0.05517682785 0)
(3.01941898 0.06372771951 0)
(3.021757827 0.06782888704 0)
(3.023419403 0.07337050249 0)
(3.026234087 0.08244156499 0)
(3.029512801 0.09213605586 0)
(2.933891449 -0.1638637955 0)
(2.936950316 -0.1565574186 0)
(2.941941753 -0.1440945302 0)
(2.946918106 -0.1308079229 0)
(2.950751085 -0.1226185831 0)
(2.95495323 -0.1141860762 0)
(2.959711598 -0.1025185819 0)
(2.963997528 -0.09206058939 0)
(2.968127874 -0.08295011761 0)
(2.971432116 -0.07545730866 0)
(2.974208567 -0.06676090886 0)
(2.978201508 -0.05507116349 0)
(2.981572331 -0.04474235126 0)
(2.984513101 -0.03811330542 0)
(2.986251045 -0.03337345955 0)
(2.990228811 -0.022564167 0)
(2.994617391 -0.01016222821 0)
(2.997323307 -0.002074652247 0)
(2.999604043 0.001112767073 0)
(3.001892622 0.008245388934 0)
(3.006172554 0.02060657618 0)
(3.008464578 0.02950154601 0)
(3.010372445 0.03331209738 0)
(3.012927547 0.04061287666 0)
(3.013863721 0.04682648599 0)
(3.017610896 0.05782104445 0)
(3.020300994 0.06639541288 0)
(3.022644338 0.07090846372 0)
(3.024186341 0.07545649055 0)
(3.026922913 0.08490723854 0)
(3.028917222 0.09125276704 0)
(3.032362702 0.1005628717 0)
(2.937053724 -0.1555389417 0)
(2.941549683 -0.1448164951 0)
(2.947343416 -0.1305656909 0)
(2.951312668 -0.1209564208 0)
(2.954770926 -0.11495361 0)
(2.959664474 -0.1035401272 0)
(2.964690491 -0.09029470244 0)
(2.968381854 -0.08143875163 0)
(2.971484196 -0.07471140874 0)
(2.974318666 -0.06602915193 0)
(2.978108001 -0.05423841972 0)
(2.981470506 -0.04399295081 0)
(2.98465772 -0.0370376115 0)
(2.987058855 -0.03155703518 0)