/*--------------------------------*- C++ -*----------------------------------*\
  =========                 |
  \\      /  F ield         | OpenFOAM: The Open Source CFD Toolbox
   \\    /   O peration     | Website:  https://openfoam.org
    \\  /    A nd           | Version:  7
     \\/     M anipulation  |
\*---------------------------------------------------------------------------*/
FoamFile
{
    version     2.0;
    format      ascii;
    class       volScalarField;
    location    "5";
    object      p;
}
// * * * * * * * * * * * * * * * * * * * * * * * * * * * * * * * * * * * * * //

dimensions      [1 -1 -2 0 0 0 0];

internalField   nonuniform List<scalar> 
2223
(
0.4397757788
0.4347520784
0.4322541325
0.4315350042
0.4292489145
0.4247260545
0.4233352979
0.4228451746
0.4206432531
0.4167361523
0.4155072575
0.4148469774
0.4125518586
0.4089366641
0.4078278165
0.4072717742
0.4051998451
0.4017908618
0.4009100372
0.4005222486
0.3987720079
0.3956584731
0.4792846322
0.4782238073
0.4748383652
0.468171519
0.4650883975
0.4637334189
0.4599686136
0.4539830963
0.4525238749
0.451677003
0.4481703323
0.4435261644
0.4427111803
0.4417172984
0.4380484771
0.4339679856
0.4329654768
0.4317273782
0.4280304566
0.4245154932
0.4239792146
0.4230472977
0.4198448456
0.4169757548
0.4166142408
0.4157681472
0.4128238723
0.4099623956
0.409424812
0.4086050339
0.4059281517
0.4934625062
0.4908111334
0.4889268428
0.4834899796
0.4776255036
0.4767478185
0.4752384327
0.4700198999
0.4656358683
0.4645817973
0.4623937399
0.4570757324
0.4534319149
0.4524525652
0.4503434554
0.4454415845
0.4428630224
0.4423737935
0.4405468989
0.4361257487
0.4338769828
0.4332864548
0.4313918066
0.4272456858
0.4252084039
0.4247056863
0.4230844702
0.4193971178
0.4176257029
0.4172985777
0.4159710641
0.509451006
0.5041969288
0.5032431133
0.5003920526
0.4934038123
0.4892889429
0.4877871178
0.4841614748
0.4774994576
0.4746490129
0.4736503571
0.4704125518
0.4646971692
0.4631501742
0.4623866241
0.4592578478
0.4542967568
0.4527588039
0.451721111
0.448512877
0.4439741817
0.4426467724
0.4418038706
0.4389215189
0.4347299132
0.4337623972
0.4331147109
0.4305849891
0.4268119637
0.4258735919
0.4252800307
0.5285275646
0.5200704798
0.516527807
0.5145278931
0.5092469055
0.501823676
0.4998240924
0.4983810172
0.4935018015
0.4877572521
0.4865779325
0.4849257065
0.4798835752
0.4748153342
0.473345019
0.471447245
0.4665522836
0.462207341
0.4614098728
0.4600154183
0.4557705366
0.4523169587
0.4517769726
0.4504605816
0.446544151
0.4432396629
0.4425043071
0.4411990773
0.4375638003
0.4344571752
0.4339188648
0.5443694622
0.536828999
0.5293683695
0.5277495352
0.5253277067
0.5185244074
0.5131324979
0.5116540021
0.5086196946
0.501774436
0.4971043226
0.4956956405
0.4928489732
0.4866215945
0.4834997687
0.4828575357
0.4804747892
0.4749389885
0.4722298402
0.4713644179
0.4687551741
0.4635469646
0.4610006059
0.4601744465
0.4578653521
0.4531702166
0.4511627411
0.4506420249
0.448712364
0.4445008838
0.4425213376
0.5592916398
0.5554804458
0.5466479219
0.5417216903
0.5399623968
0.5354554985
0.5271321961
0.5231018669
0.521515682
0.5173800576
0.5101858358
0.5078956348
0.5067447099
0.5026604976
0.4964269735
0.4942023307
0.4926143118
0.4883416735
0.4826759352
0.4809624185
0.4797686617
0.4760521772
0.471114593
0.4700107693
0.4690540086
0.4657147496
0.4612642942
0.4599868645
0.4589490806
0.4558386061
0.4516035733
0.5749262819
0.571897639
0.5650258891
0.5557207071
0.5523839496
0.5500945196
0.5439451322
0.5364856627
0.5346137137
0.5325202664
0.5264791793
0.519948351
0.5178614477
0.5154132243
0.5094237588
0.5039932185
0.5029180506
0.5011279165
0.4958547482
0.491609114
0.4908317055
0.4889992905
0.4840017278
0.479951652
0.4788483526
0.4769743339
0.4723790195
0.4687407245
0.4680193193
0.4666276224
0.4626831411
0.587931546
0.5850617611
0.5819086346
0.5738849476
0.566296671
0.564378004
0.5611728756
0.5532463705
0.5468885713
0.5448399532
0.5413786571
0.5338095966
0.5291570052
0.5281214288
0.525184692
0.5185065482
0.5149244709
0.5135719793
0.5100961465
0.5037327507
0.5005381955
0.4992808652
0.4961929412
0.4904678374
0.488105233
0.4873664335
0.4848712917
0.4798131763
0.4773821226
0.4765181521
0.474142561
0.6087179009
0.6016139877
0.5987838703
0.5933623828
0.5834096718
0.577356496
0.574874327
0.5697759679
0.5607869088
0.5569011172
0.5553257816
0.5506815454
0.5429606037
0.5398079031
0.5378093672
0.532689226
0.5257077933
0.5233699338
0.5217914676
0.5172970654
0.511321238
0.5098662761
0.5085922543
0.5044464272
0.4991032059
0.4974043649
0.4959092846
0.4919466887
0.4868400732
0.4852610887
0.4841863258
0.6276204776
0.616352006
0.6108427407
0.6077713398
0.60123639
0.5915568401
0.5880706739
0.5857481654
0.5792864479
0.5708571833
0.5680849049
0.5653880679
0.5586177522
0.5513863094
0.5493781575
0.5470187144
0.5407482334
0.5353587478
0.5340858318
0.5316279574
0.5255518358
0.520550172
0.5189405182
0.5164149759
0.5107815341
0.5063034036
0.5052954928
0.5035401187
0.4988133071
0.4947515755
0.4938580757
0.6468227145
0.638039314
0.6277528235
0.6242340302
0.6204971041
0.6117202096
0.6028908485
0.5996290622
0.5955092552
0.586724058
0.5797947802
0.5777920874
0.5742147616
0.5663180475
0.5614334682
0.5597730023
0.5558548139
0.5483162362
0.5440211249
0.5422658417
0.5385625363
0.5318363837
0.5287126235
0.5276729802
0.5246643435
0.5186143331
0.515632426
0.514501034
0.5115369531
0.5058698446
0.5026174716
0.6631909178
0.6573181901
0.6462423646
0.6373062753
0.6337032625
0.6282782142
0.6181648934
0.6117343304
0.6094664191
0.6046497354
0.5953478845
0.5907246232
0.5885763111
0.5832129037
0.5747373419
0.5710650409
0.56887782
0.5636153879
0.5562316259
0.5539048931
0.5521900031
0.5472976139
0.540841819
0.5384353508
0.5364554248
0.5316688964
0.5255022655
0.5233082752
0.5218642935
0.5180688991
0.5125141393
0.6782903658
0.6739672252
0.6672131388
0.6555089767
0.6489611391
0.6459119779
0.6391686472
0.628907975
0.6242078529
0.6208154873
0.6132715769
0.6041002997
0.6006539531
0.5975429127
0.5903356299
0.5829611241
0.580844084
0.5781027967
0.5713650824
0.5650372485
0.5628628773
0.5598868699
0.5534395319
0.5478018109
0.5463060489
0.544191639
0.538744494
0.5336742266
0.5324625666
0.5305742846
0.5255991556
0.6975597662
0.690427527
0.6855850807
0.6763785822
0.6647622789
0.6596215571
0.6550782152
0.6457744155
0.6363885751
0.6329868645
0.6290270961
0.6204866172
0.6132626469
0.6109264635
0.6070112606
0.5986748824
0.5927843941
0.5905167167
0.58637316
0.5784404295
0.5736345836
0.5720455923
0.5685651745
0.5616164326
0.5575856469
0.5559758813
0.5524482459
0.545874521
0.5417047157
0.5401195595
0.5372073668
0.7185149108
0.7064869488
0.7006977077
0.6951220059
0.6846121998
0.6745749914
0.670697688
0.6654678618
0.655146833
0.6481371691
0.6451227023
0.6393394057
0.6294999737
0.623738505
0.6206921702
0.614733644
0.605797353
0.6017105675
0.5994291944
0.5941138821
0.5862392233
0.582939283
0.5807312776
0.5755212889
0.5682306647
0.5651045277
0.5632332044
0.5590196672
0.5525350968
0.5499337859
0.548620873
0.7402882968
0.7278863363
0.7176282192
0.7125824066
0.7053391872
0.6933328031
0.6854218716
0.6811736108
0.6734771005
0.6624659546
0.6568934194
0.6531056502
0.6457693274
0.6365260935
0.6327555755
0.6296635172
0.6226966637
0.614523047
0.6115992634
0.6086026007
0.6017545015
0.5943539422
0.5917473423
0.5890791932
0.5829622008
0.5766283519
0.5746681282
0.5723684812
0.5668817914
0.5607499252
0.5582466267
0.7580800611
0.7490866755
0.7358918105
0.7274710445
0.7221090635
0.7132649451
0.701569985
0.6955162413
0.6909186481
0.6820256286
0.6720985019
0.6681796962
0.6639019027
0.6550906781
0.6470123433
0.6435321969
0.6388441991
0.6300135987
0.6230605371
0.6203881578
0.6163369665
0.6084149997
0.6026834546
0.6006438905
0.5970394774
0.589874467
0.5843994255
0.5821844913
0.5789487988
0.5728192292
0.5676169196
0.775261048
0.7687781415
0.7581621148
0.7454591677
0.7388164222
0.732753088
0.7220951966
0.7115539956
0.7064103728
0.7003233028
0.68960878
0.6811493482
0.6770863967
0.6709531586
0.660993443
0.6546324396
0.6515862505
0.6462617179
0.6372847173
0.6321536405
0.6296332633
0.6245723157
0.616278139
0.6115923844
0.6091536643
0.6045429747
0.5970305643
0.5927918068
0.5909119618
0.5872330752
0.580751471
0.7940879124
0.7857734038
0.7782897999
0.7660062343
0.7546040837
0.7484668481
0.7409786936
0.7294299463
0.7205865641
0.7156788084
0.7085336845
0.69757619
0.6909777343
0.6871758561
0.6800829617
0.6703021353
0.6655913086
0.6619904814
0.6547205204
0.6456854678
0.6413997073
0.6379947556
0.6313944736
0.6233912279
0.6198670611
0.6172136899
0.6117267658
0.6044519558
0.6008444353
0.5983191949
0.5935223037
0.8168962933
0.803608162
0.796156867
0.787482915
0.7743998141
0.7648311334
0.7588736909
0.7500348762
0.7383116521
0.7311160422
0.7257986415
0.7168015149
0.7060552492
0.7006396827
0.6956858806
0.6865467265
0.677404892
0.6733370944
0.6689314562
0.6608630272
0.6531319599
0.6498460054
0.6461405108
0.6390104342
0.6317518837
0.6285481236
0.6252608332
0.618941938
0.6118704393
0.6088591916
0.6063267447
0.8391729273
0.8250608904
0.813345162
0.8059370276
0.7957137477
0.7826367646
0.7743953819
0.7676857998
0.7573434019
0.7462817998
0.7400610422
0.7339623232
0.7239587257
0.714470534
0.7099023657
0.7043682555
0.6945709194
0.6870565712
0.683627276
0.6783654571
0.6694333036
0.6626470902
0.6590431802
0.6540182747
0.6459402745
0.6394148742
0.6363897137
0.6325872504
0.6256344023
0.6192989955
0.616708195
0.8586104709
0.8477135428
0.8333869257
0.8231118507
0.8152703907
0.8037660232
0.79149701
0.7842778255
0.7768190858
0.7654667802
0.7557627421
0.7501641625
0.7429050789
0.7319135828
0.7239518284
0.719293315
0.7120638627
0.7016507985
0.6951934849
0.6910732027
0.6844622994
0.6754952482
0.6698454349
0.6664163767
0.6612151647
0.6532508197
0.6475163496
0.6446408437
0.6403418501
0.6328325288
0.627026522
0.8775454858
0.8678152892
0.8558081414
0.8419287329
0.8326441051
0.8239669922
0.8114571057
0.8003857588
0.793429712
0.7846426319
0.7727425725
0.7643777041
0.7585051176
0.7499597473
0.7391804633
0.7324915149
0.727525805
0.7196014681
0.7097242056
0.7043155091
0.7001877014
0.6930960695
0.6844056445
0.6793642308
0.6754598148
0.6690573332
0.6605929391
0.6554196918
0.6523092661
0.6471205244
0.6391872324
0.8987435342
0.8866107181
0.8765188462
0.8636625101
0.850646898
0.8418777537
0.8322007245
0.8192468683
0.8095424573
0.8025276649
0.7925361571
0.7809692522
0.7739034879
0.767594863
0.7579210837
0.7478341475
0.7418801717
0.7361436192
0.7270620754
0.7176819178
0.7124861929
0.70740836
0.6992261482
0.6907008687
0.6861138798
0.6820937035
0.6754713605
0.6673837765
0.6631742272
0.660094647
0.6543053998
0.9206880736
0.9068320814
0.8953859769
0.8847631705
0.87139804
0.8594201692
0.8507316688
0.839932425
0.8271147399
0.8185355272
0.8108677072
0.7996882611
0.7889936929
0.7823559168
0.7750200245
0.7647558579
0.7555677166
0.7497321848
0.7434767137
0.7343103193
0.7255187529
0.7207275431
0.7156587134
0.7072333901
0.6992602503
0.6953362734
0.6909486342
0.683192185
0.6753040413
0.6714616364
0.6676327033
0.9404010105
0.9280619479
0.9148113084
0.9038145953
0.8926017448
0.8791224537
0.868135786
0.8591728815
0.8473675714
0.8352696355
0.8273865121
0.8188841797
0.8071576621
0.79762275
0.7911057193
0.7830690625
0.7727085935
0.764231974
0.7584669595
0.7516484284
0.7418643794
0.7335719664
0.728872948
0.7228978988
0.7134842184
0.7059884729
0.7021260826
0.6970523415
0.6887546439
0.6819154415
0.6787639728
0.9580599794
0.9473529552
0.9351634323
0.9226098811
0.9118615896
0.9001009586
0.8868831565
0.8766742911
0.8671420987
0.8546628108
0.8435656929
0.8358045887
0.8263055525
0.8145870649
0.8058133007
0.7988658831
0.7901358371
0.7798293649
0.7716746959
0.7657935582
0.7586251553
0.7487081828
0.7410290407
0.7366276644
0.7304230519
0.720709751
0.7142840975
0.7108971807
0.7052483076
0.6963796452
0.6904908968
0.9737522438
0.964114402
0.9538419048
0.9419925569
0.9301587642
0.9195047505
0.907341925
0.8946905423
0.8849181237
0.8746874622
0.8620361511
0.8518548693
0.8438382498
0.8336469765
0.8223160172
0.8139821854
0.8068247068
0.7978479122
0.7875398603
0.7798715108
0.7741856705
0.7664076497
0.7560374593
0.749251099
0.7447707536
0.7373301932
0.7272431219
0.7216518394
0.7177449084
0.7108189912
0.7018903469
0.9858647846
0.9783745174
0.9696385023
0.95986789
0.9485420358
0.9373887288
0.926738904
0.9144223559
0.9024519007
0.8927902253
0.8819270722
0.8695256824
0.859909185
0.8514655391
0.8408762583
0.8298806378
0.8216712009
0.8142611202
0.8048773956
0.7944660415
0.7872032242
0.7813373644
0.7728817283
0.7626202557
0.7566564132
0.7520126718
0.7439891099
0.734266845
0.7296669575
0.7257047175
0.7181055191
0.9936434806
0.9889538165
0.9824604986
0.9746153768
0.965443969
0.9547790937
0.9442412262
0.9335926787
0.9213994889
0.9100475746
0.9002759905
0.8890301283
0.8770394225
0.8676634628
0.8588826552
0.8481465934
0.8373433708
0.8293415217
0.8219054064
0.8121130377
0.8017999141
0.7952648813
0.7892931606
0.7799575527
0.7701163047
0.7649365007
0.7597268353
0.7504833831
0.741471944
0.7372521404
0.7323123688
0.9977568971
0.9953702449
0.9915352447
0.9860091626
0.9790513429
0.9705680578
0.9606656232
0.9506698291
0.9401198913
0.9282666829
0.9173678594
0.9074374528
0.8960628366
0.8844387864
0.8751375229
0.866147472
0.8552497347
0.8445787921
0.8368267494
0.8291445814
0.8187499032
0.8087900556
0.8026345082
0.7960331159
0.7860260817
0.7769721823
0.7720792245
0.7662601154
0.756668397
0.7485804777
0.7446722287
0.9994176334
0.9985000437
0.9967082033
0.99364817
0.9890388903
0.9829511134
0.9752475307
0.9661445197
0.9566696161
0.9463572546
0.9349567329
0.9243765195
0.9143531481
0.9030093693
0.8916415597
0.8824270367
0.8733003261
0.8621945751
0.8517572071
0.8443205658
0.8363315261
0.8254696976
0.8161804194
0.8103905982
0.8032368515
0.7927623895
0.7846903801
0.7799854046
0.7733587141
0.7632496243
0.7561028044
0.9998945146
0.9996484842
0.9990261647
0.9977186602
0.9953409686
0.9915735337
0.9863395857
0.9794665904
0.971185068
0.96224364
0.9523161134
0.9413945264
0.9310836804
0.921073689
0.9098001021
0.8986544167
0.8895670445
0.8802766207
0.8689422494
0.8588844023
0.8516149518
0.8430944502
0.8319555354
0.823378437
0.8174682062
0.8094943933
0.7989568339
0.7916168932
0.7866432626
0.7793880209
0.7694401646
0.9999874558
0.9999435688
0.9997950999
0.9993870883
0.9984616704
0.996664166
0.9936531137
0.989238276
0.9832224315
0.9757576556
0.9674129382
0.9579663685
0.9475367783
0.937512919
0.9275944309
0.916411341
0.9055017797
0.8965544522
0.8870485165
0.8755989895
0.8659999143
0.8587569039
0.849710331
0.8385983214
0.8307022567
0.8246734923
0.8161185358
0.8057432856
0.7991011496
0.7940079965
0.7860794291
0.9999990759
0.9999941485
0.9999709923
0.9998848476
0.999626679
0.9989923965
0.9976723625
0.9953219944
0.9916801166
0.9865067149
0.9798663739
0.9721691245
0.9632844643
0.9533610658
0.9436709747
0.9338910009
0.922834074
0.9122126914
0.9033510261
0.8936017628
0.8821769441
0.87303985
0.8656419117
0.8560676538
0.8451886083
0.8377495464
0.8313266845
0.8221982419
0.8121337061
0.8058164702
0.8002939016
0.9999999598
0.9999996296
0.99999739
0.9999856958
0.99993771
0.9997803029
0.9993600815
0.9984193708
0.9966320418
0.9936960731
0.9893341471
0.9835079017
0.976513241
0.9682359454
0.9588678077
0.9495433836
0.9399394589
0.9290781531
0.9187721589
0.9099473862
0.899963839
0.8887162536
0.8799538178
0.8723286633
0.8623675143
0.8518495888
0.8447350425
0.8380360473
0.8285402014
0.81884227
0.8129277783
0.999999999
0.9999999863
0.9999998587
0.9999988885
0.9999932442
0.9999676193
0.9998752965
0.9996065935
0.9989571495
0.9976349617
0.9953268662
0.9917216114
0.9866990316
0.9804266778
0.9728128643
0.964037199
0.9551224247
0.9457295674
0.9351317557
0.9251617723
0.9163296355
0.9061739752
0.8951871113
0.8867015488
0.8787931969
0.8685599562
0.8584202847
0.8514680732
0.8443776758
0.8345517929
0.8252382053
1
0.9999999997
0.9999999956
0.9999999487
0.9999995487
0.9999969486
0.9999838491
0.9999318394
0.9997662761
0.9993325423
0.9983830902
0.9966148334
0.9937018911
0.9894482343
0.9839162753
0.9769916237
0.9688618077
0.9603860568
0.9512614955
0.940990813
0.9313474609
0.922501844
0.9122536822
0.9015864565
0.893263338
0.8850957469
0.8747160983
0.8649505561
0.8581044953
0.8507224109
0.8406765422
1
1
0.9999999999
0.9999999987
0.9999999823
0.9999998255
0.9999986838
0.9999922822
0.9999641836
0.9998660248
0.9995862997
0.9989253855
0.9976079741
0.9953085794
0.9917807567
0.9869787788
0.980775629
0.9733134023
0.9653285954
0.9565246889
0.946641304
0.9373128814
0.9284591683
0.9182229286
0.9078718043
0.8996430051
0.8912292278
0.8807916082
0.8713685168
0.8645470492
0.8567978739
1
1
1
1
0.9999999996
0.9999999942
0.9999999358
0.9999994585
0.9999964717
0.9999819346
0.9999260225
0.9997520716
0.9993069351
0.9983534965
0.9965845406
0.9937196197
0.9896321811
0.9841518444
0.9773921073
0.9699238103
0.9615168773
0.9520671586
0.9430400592
0.9342118243
0.9240674372
0.9140341328
0.9058417892
0.8972343665
0.8868029419
0.8777037951
0.8708766132
0.8628239464
1
1
1
1
1
0.9999999999
0.9999999982
0.9999999776
0.9999997878
0.999998459
0.9999912667
0.9999607133
0.9998565774
0.9995669048
0.998897986
0.9975728262
0.9953011991
0.9918876064
0.9871326912
0.9810777237
0.9741732318
0.966215396
0.9572502489
0.9485205495
0.9397631707
0.9297871828
0.9200348269
0.9118727532
0.9031051494
0.8927365188
0.8839190025
0.8770388532
1
1
1
1
1
1
1
0.9999999995
0.9999999926
0.9999999209
0.9999993579
0.9999959596
0.9999799657
0.9999200407
0.9997382241
0.999283851
0.9983194589
0.9965616043
0.9937737474
0.9897176961
0.9843793348
0.9780561556
0.9706192932
0.962159295
0.9537472813
0.9451225768
0.9353585968
0.9258749057
0.9177314784
0.9088611074
0.8985827094
0.8900335048
1
1
1
1
1
1
1
1
0.9999999999
0.9999999977
0.999999972
0.9999997451
0.9999982136
0.9999902048
0.9999571099
0.9998472011
0.999548932
0.9988678869
0.997543834
0.9953170751
0.9919286747
0.9872867204
0.9815835511
0.974702139
0.9667837715
0.9587070112
0.9502831315
0.9407753844
0.9315361947
0.9234357762
0.91448323
0.9043348807
1
1
1
1
1
1
1
1
1
1
0.9999999993
0.9999999906
0.9999999037
0.9999992463
0.9999954155
0.9999779006
0.9999140195
0.9997250668
0.999259344
0.9982893647
0.996555432
0.9937807511
0.9898181293
0.9847398952
0.9784663708
0.9710957813
0.9634031561
0.9552319313
0.9460075725
0.9370297916
0.9289789045
0.9199859644
1
1
1
1
1
1
1
1
1
1
1
0.9999999998
0.999999997
0.9999999654
0.999999697
0.9999979492
0.9999890799
0.9999534353
0.9998381289
0.9995301258
0.9988406292
0.9975248804
0.9953057244
0.9919797238
0.987540794
0.9818835748
0.9750996607
0.9678186623
0.9599580178
0.9510469886
0.9423392937
0.9343672475
1
1
1
1
1
1
1
1
1
1
1
1
0.9999999999
0.9999999991
0.9999999882
0.9999998841
0.9999991245
0.9999948337
0.9999757706
0.9999080919
0.9997114868
0.9992364159
0.9982661842
0.9965319336
0.9938002567
0.9899807217
0.9849625689
0.9787694934
0.9719589371
0.9644405793
0.955879606
0.9474641986
1
1
1
1
1
1
1
1
1
1
1
1
1
1
0.9999999997
0.9999999962
0.9999999579
0.9999996438
0.9999976636
0.9999879071
0.9999497668
0.9998288085
0.9995122569
0.9988174179
0.9974975499
0.995299987
0.9920823095
0.9876868094
0.9821174705
0.9757940668
0.9686776043
0.9605008323
1
1
1
1
1
1
1
1
1
1
1
1
1
1
1
0.9999999999
0.9999999988
0.9999999855
0.9999998621
0.9999989917
0.9999942206
0.9999736158
0.9999020235
0.9996983107
0.9992162549
0.9982380555
0.9965140117
0.9938531147
0.990077208
0.9851211726
0.97933189
0.9726420445
1
1
1
1
1
1
1
1
1
1
1
1
1
1
1
1
1
0.9999999997
0.9999999952
0.9999999493
0.9999995853
0.9999973596
0.9999867062
0.9999460038
0.9998196529
0.9994959835
0.9987921955
0.9974721731
0.9953233587
0.9921308295
0.9878004629
0.9825432811
1
1
1
1
1
1
1
1
1
1
1
1
1
1
1
1
1
1
0.9999999999
0.9999999985
0.9999999823
0.9999998378
0.9999988487
0.9999935852
0.9999713971
0.9998959717
0.9996861263
0.9991948707
0.9982121961
0.9965143055
0.993875338
0.9901408246
1
1
1
1
1
1
1
1
1
1
1
1
1
1
1
1
1
1
1
1
0.9999999996
0.9999999942
0.9999999397
0.9999995216
0.9999970405
0.9999854606
0.9999422102
0.9998109855
0.999479261
0.9987677833
0.9974616386
0.9953213649
1
1
1
1
1
1
1
1
1
1
1
1
1
1
1
1
1
1
1
1
1
0.9999999999
0.9999999982
0.9999999787
0.9999998108
0.9999986966
0.99999292
0.9999691319
0.9998901523
0.9996736133
0.9991743714
0.9981947894
1
1
1
1
1
1
1
1
1
1
1
1
1
1
1
1
1
1
1
1
1
1
1
0.9999999995
0.9999999929
0.9999999289
0.9999994528
0.9999967027
0.9999841739
0.9999384889
0.9998021709
0.9994627368
1
1
1
1
1
1
1
1
1
1
1
1
1
1
1
1
1
1
1
1
1
1
1
1
0.9999999998
0.9999999977
0.9999999746
0.9999997813
0.9999985336
0.999992224
0.9999668747
0.9998842076
1
1
1
1
1
1
1
1
1
1
1
1
1
1
1
1
1
1
1
1
1
1
1
1
1
1
0.9999999993
0.9999999914
0.9999999169
0.9999993782
0.9999963449
0.9999828702
1
1
1
1
1
1
1
1
1
1
1
1
1
1
1
1
1
1
1
1
1
1
1
1
1
1
1
0.9999999998
0.9999999973
0.99999997
0.999999749
0.999998359
1
1
1
1
1
1
1
1
1
1
1
1
1
1
1
1
1
1
1
1
1
1
1
1
1
1
1
1
0.9999999999
0.9999999992
0.9999999898
0.9999999036
1
1
1
1
1
1
1
1
1
1
1
1
1
1
1
1
1
1
1
1
1
1
1
1
1
1
1
1
1
1
0.9999999998
0.9999999967
1
1
1
1
1
1
1
1
1
1
1
1
1
1
1
1
1
1
1
1
1
1
1
1
1
1
1
1
1
1
1
0.9999999999
1
1
1
1
1
1
1
1
1
1
1
1
1
1
1
1
1
1
1
1
1
1
1
1
1
1
1
1
1
1
1
1
1
1
1
1
1
1
1
1
1
1
1
1
1
1
1
1
1
1
1
1
1
1
1
1
1
1
1
1
1
1
1
1
1
1
1
1
1
1
1
1
1
1
1
1
1
1
1
1
1
1
1
1
1
1
1
1
1
1
1
1
1
1
1
1
1
1
1
1
1
1
1
1
1
1
1
1
1
1
1
1
1
1
1
1
1
1
1
1
1
1
1
1
1
1
1
1
1
1
1
1
1
1
1
1
1
1
1
1
1
1
1
1
1
1
1
1
1
1
1
1
1
1
1
1
1
1
1
1
1
1
1
1
1
1
1
1
1
1
1
1
1
1
1
1
1
1
1
1
1
1
1
1
1
1
1
1
1
1
1
1
1
1
1
1
1
1
1
1
1
1
1
1
1
1
1
1
1
1
1
1
1
1
1
1
1
1
1
1
1
1
1
1
1
1
1
1
1
1
1
1
1
1
1
1
1
1
1
1
1
1
1
1
1
1
1
1
1
1
1
1
1
1
1
1
1
1
1
1
1
1
1
1
1
1
1
1
1
1
1
1
1
1
1
1
1
1
1
1
1
1
1
1
1
1
1
1
1
1
1
1
1
1
1
1
1
1
1
1
1
1
1
1
1
1
1
1
1
1
1
1
1
1
1
1
1
1
1
1
1
1
1
1
1
1
1
1
1
1
1
1
1
1
1
1
1
1
1
1
1
1
1
1
1
1
1
1
1
1
1
1
)
;

boundaryField
{
    inlet
    {
        type            fixedValue;
        value           nonuniform 0();
    }
    outlet
    {
        type            zeroGradient;
    }
    bottom
    {
        type            slip;
    }
    top
    {
        type            slip;
    }
    obstacle
    {
        type            zeroGradient;
    }
    defaultFaces
    {
        type            empty;
    }
    procBoundary34to27
    {
        type            processor;
        value           nonuniform List<scalar> 9(0.483128448 0.5011790252 0.5169994932 0.5330816376 0.5474191498 0.5610226369 0.579938883 0.5974052661 0.6189391872);
    }
    procBoundary34to28
    {
        type            processor;
        value           nonuniform List<scalar> 
32
(
0.426337604
0.4226437407
0.4220109832
0.4208269501
0.4170721862
0.4140236593
0.4134163511
0.4121243491
0.408478176
0.406171935
0.4058441345
0.4046444224
0.4013136222
0.3994856193
0.3991826493
0.3980061619
0.3948996089
0.3930866833
0.3927619061
0.3917286681
0.3889711004
0.3873096646
0.465308078
0.4638160675
0.4586075705
0.4541663377
0.4535930425
0.4518562138
0.446656466
0.4431764533
0.4421604286
0.4421604286
)
;
    }
    procBoundary34to29
    {
        type            processor;
        value           uniform 0.3948397482;
    }
    procBoundary34to33
    {
        type            processor;
        value           nonuniform List<scalar> 
61
(
0.6352511072
0.6509670937
0.6680194787
0.687328777
0.7102431164
0.7294488857
0.7475655596
0.7644819046
0.7850509478
0.8085473992
0.8300460819
0.8489219566
0.8683150973
0.8906186515
0.9130107262
0.9329706089
0.9514864499
0.968596089
0.9822324345
0.9914661836
0.9967378309
0.9990666668
0.9998102178
0.9999742463
0.9999978019
0.9999998876
0.9999999967
0.9999999999
1
1
1
1
1
1
1
1
1
1
1
1
1
1
1
1
1
1
1
1
1
1
1
1
1
1
1
1
1
1
1
1
1
)
;
    }
    procBoundary34to35
    {
        type            processor;
        value           nonuniform List<scalar> 
71
(
0.4031922782
0.4126327387
0.4230427481
0.4329261545
0.4419890808
0.4503936449
0.4592940128
0.4694264318
0.4810056474
0.4922814457
0.5015113024
0.5108015036
0.5205775081
0.5314538926
0.5451509684
0.5559705123
0.5658933721
0.5762756344
0.586716874
0.6011250864
0.6135356648
0.6245620363
0.6345179548
0.6463803267
0.6605752731
0.6746614255
0.68715241
0.6970982836
0.7097197489
0.7235834682
0.7393789069
0.7520594217
0.7629834128
0.7761900971
0.7918959122
0.8072119533
0.8194489536
0.8318120541
0.8466011288
0.8466011288
0.852570551
0.8686533386
0.8830842997
0.8960246813
0.9099798996
0.9253500475
0.939579467
0.9523859139
0.9649018951
0.9763413239
0.9854488313
0.9921682723
0.9965027148
0.9987496688
0.999661248
0.9999346895
0.9999915092
0.9999992975
0.9999999649
0.999999999
1
1
1
1
1
1
1
1
1
1
1
)
;
    }
}


// ************************************************************************* //
