/*--------------------------------*- C++ -*----------------------------------*\
  =========                 |
  \\      /  F ield         | OpenFOAM: The Open Source CFD Toolbox
   \\    /   O peration     | Website:  https://openfoam.org
    \\  /    A nd           | Version:  7
     \\/     M anipulation  |
\*---------------------------------------------------------------------------*/
FoamFile
{
    version     2.0;
    format      ascii;
    class       volScalarField;
    location    "3.8";
    object      T;
}
// * * * * * * * * * * * * * * * * * * * * * * * * * * * * * * * * * * * * * //

dimensions      [0 0 0 1 0 0 0];

internalField   nonuniform List<scalar> 5(1.017143527 1.016925549 1.027993782 1.017299948 1.052655004);

boundaryField
{
    inlet
    {
        type            fixedValue;
        value           nonuniform 0();
    }
    outlet
    {
        type            inletOutlet;
        inletValue      nonuniform 0();
        value           nonuniform 0();
    }
    bottom
    {
        type            slip;
    }
    top
    {
        type            slip;
    }
    obstacle
    {
        type            zeroGradient;
    }
    defaultFaces
    {
        type            empty;
    }
    procBoundary9to3
    {
        type            processor;
        value           nonuniform List<scalar> 2(1.00424565 1.011882765);
    }
    procBoundary9to4
    {
        type            processor;
        value           nonuniform List<scalar> 2(1.010394025 0.9952845227);
    }
    procBoundary9to8
    {
        type            processor;
        value           uniform 1.001686535;
    }
    procBoundary9to14
    {
        type            processor;
        value           uniform 1.027198912;
    }
    procBoundary9to15
    {
        type            processor;
        value           nonuniform List<scalar> 3(0.9932998187 0.9932998187 0.9577194652);
    }
    procBoundary9to20
    {
        type            processor;
        value           uniform 1.09400649;
    }
}


// ************************************************************************* //
