/*--------------------------------*- C++ -*----------------------------------*\
  =========                 |
  \\      /  F ield         | OpenFOAM: The Open Source CFD Toolbox
   \\    /   O peration     | Website:  https://openfoam.org
    \\  /    A nd           | Version:  7
     \\/     M anipulation  |
\*---------------------------------------------------------------------------*/
FoamFile
{
    version     2.0;
    format      ascii;
    class       volVectorField;
    location    "1";
    object      U;
}
// * * * * * * * * * * * * * * * * * * * * * * * * * * * * * * * * * * * * * //

dimensions      [0 1 -1 0 0 0 0];

internalField   nonuniform List<vector> 
80000
(
(3 4.202164574e-16 0)
(3 -7.418274173e-16 0)
(3 -1.537065973e-15 0)
(3 -4.191280109e-15 0)
(3 -2.144549937e-15 0)
(3 -1.500624759e-15 0)
(3 -9.045471988e-16 0)
(3 -1.315258071e-15 0)
(3 -6.095384097e-16 0)
(3 -5.522020821e-16 0)
(3 -1.763177941e-15 0)
(3 -3.008454557e-15 0)
(3 -2.997123518e-15 0)
(3 -2.947168331e-15 0)
(3 -2.692375734e-15 0)
(3 -9.107297032e-16 0)
(3 1.355062368e-16 0)
(3 8.963750138e-16 0)
(3 4.921321826e-15 0)
(3 6.147909977e-15 0)
(3 5.22368399e-15 0)
(3 4.116435752e-15 0)
(3 3.723336694e-15 0)
(3 3.319002544e-15 0)
(3 1.180291769e-15 0)
(3 -2.411709116e-15 0)
(3 -9.781999062e-16 0)
(3 5.280358675e-17 0)
(3 4.491558711e-16 0)
(3 -7.539950376e-16 0)
(3 -4.555253777e-16 0)
(3 -3.166269939e-17 0)
(3 -6.617670953e-16 0)
(3 -5.659156819e-16 0)
(3 -9.251917321e-17 0)
(3 -1.892532019e-16 0)
(3 -1.11601328e-17 0)
(3 9.703426989e-16 0)
(3 2.342077637e-15 0)
(3 1.345800714e-15 0)
(3 6.590550533e-16 0)
(3 1.242463416e-16 0)
(3 -1.091208971e-15 0)
(3 -6.231959351e-16 0)
(3 -4.004868981e-16 0)
(3 -5.369112562e-16 0)
(3 -1.189590149e-15 0)
(3 -7.140526799e-16 0)
(3 -4.242648959e-16 0)
(3 -2.010371086e-15 0)
(3 -1.593938207e-15 0)
(3 -5.975663595e-16 0)
(3 3.377755948e-16 0)
(3 -1.183761079e-16 0)
(3 1.1712855e-15 0)
(3 2.406792489e-15 0)
(3 2.173945789e-15 0)
(3 1.170336464e-15 0)
(3 -8.33229806e-17 0)
(3 -4.538071524e-16 0)
(3 -1.758668779e-15 0)
(3 -1.651339692e-15 0)
(3 -2.253334096e-15 0)
(3 -2.80924795e-15 0)
(3 -3.865774615e-15 0)
(3 -3.845146944e-15 0)
(3 -2.52964516e-15 0)
(3 -2.129536726e-15 0)
(3 -7.186649175e-16 0)
(3 -4.622971853e-16 0)
(3 1.672629566e-16 0)
(3 9.254388885e-16 0)
(3 1.532919608e-15 0)
(3 1.266795261e-15 0)
(3 9.80439838e-16 0)
(3 1.792211061e-16 0)
(3 2.322715985e-16 0)
(3 -2.065852086e-16 0)
(3 9.687751375e-17 0)
(3 -1.021945644e-15 0)
(3 -2.384083806e-15 0)
(3 -3.085978267e-15 0)
(3 4.146886667e-16 0)
(3 2.029649471e-15 0)
(3 2.387202262e-15 0)
(3 1.680306648e-15 0)
(3 6.836456836e-16 0)
(3 1.244043662e-15 0)
(3 1.135540729e-15 0)
(3 8.382590996e-16 0)
(3 -9.020265753e-19 0)
(3 -1.696325032e-15 0)
(3 -3.447561932e-16 0)
(3 5.875489411e-16 0)
(3 3.484203718e-16 0)
(3 5.991045595e-16 0)
(3 1.989587762e-15 0)
(3 1.429570804e-15 0)
(3 1.118246332e-15 0)
(3 8.090549762e-16 0)
(3 7.269378912e-17 0)
(3 -1.783162258e-15 0)
(3 -5.356597395e-15 0)
(3 -7.270600536e-15 0)
(3 -6.155512295e-15 0)
(3 -3.48462318e-15 0)
(3 -1.160001825e-15 0)
(3 -1.422330395e-15 0)
(3 -1.362938484e-15 0)
(3 -1.909132327e-15 0)
(3 -4.086798331e-15 0)
(3 -3.769218925e-15 0)
(3 -2.828968043e-15 0)
(3 -3.066495351e-15 0)
(3 -1.9284752e-15 0)
(3 -5.81165915e-16 0)
(3 2.71956944e-16 0)
(3 1.079113967e-15 0)
(3 3.258194857e-15 0)
(3 5.261813634e-15 0)
(3 5.768880135e-15 0)
(3 5.145018936e-15 0)
(3 4.023933002e-15 0)
(3 2.165802417e-15 0)
(3 -1.356050288e-15 0)
(3 -3.625472717e-15 0)
(3 -2.438801311e-15 0)
(3 -6.631230991e-16 0)
(3 -3.107369021e-16 0)
(3 -4.474319993e-16 0)
(3 -1.787868468e-15 0)
(3 -6.570331039e-16 0)
(3 -2.13494695e-15 0)
(3 -1.930186895e-15 0)
(3 -6.730797968e-16 0)
(3 2.485738951e-16 0)
(3 -6.085604249e-16 0)
(3 -7.646566446e-17 0)
(3 4.412268254e-16 0)
(3 -5.863516603e-16 0)
(3 -3.912993967e-16 0)
(3 -1.150600339e-15 0)
(3 -1.801261418e-15 0)
(3 -2.283875207e-15 0)
(3 -2.25335577e-15 0)
(3 -1.689718872e-15 0)
(3 -1.731384977e-15 0)
(3 -2.624588536e-15 0)
(3 -2.698893617e-15 0)
(3 -2.095879249e-15 0)
(3 -1.30867957e-16 0)
(3 3.085587836e-15 0)
(3 3.996640824e-15 0)
(3 2.460757774e-15 0)
(3 1.858815233e-15 0)
(3 1.894815676e-15 0)
(3 2.581581827e-15 0)
(3 3.300489078e-15 0)
(3 2.325895821e-15 0)
(3 -1.019035486e-15 0)
(3 -3.1853004e-15 0)
(3 -4.029841331e-15 0)
(3 -4.464944874e-15 0)
(3 -5.404066835e-15 0)
(3 -7.007996499e-15 0)
(3 -7.87033984e-15 0)
(3 -6.302970834e-15 0)
(3 -4.86712027e-15 0)
(3 -3.666520904e-15 0)
(3 -2.827982948e-15 0)
(3 -2.278690671e-15 0)
(3 -2.880014978e-16 0)
(3 9.234827515e-16 0)
(3 1.276084721e-15 0)
(3 6.287484924e-16 0)
(3 -1.240987028e-16 0)
(3 -1.568119818e-18 0)
(3 1.587961044e-16 0)
(3 -2.250221401e-16 0)
(3 -2.203128718e-15 0)
(3 -2.098086979e-15 0)
(3 -6.210734425e-16 0)
(3 2.517712498e-15 0)
(3 3.872177173e-15 0)
(3 2.694488704e-15 0)
(3 6.27061718e-16 0)
(3 5.380609626e-16 0)
(3 1.310184542e-15 0)
(3 2.596062377e-15 0)
(3 2.320377901e-15 0)
(3 1.823297046e-15 0)
(3 -4.337342151e-16 0)
(3 9.905882598e-16 0)
(3 2.568725572e-16 0)
(3 -2.653218354e-16 0)
(3 2.674316542e-15 0)
(3 6.991411203e-15 0)
(3 5.991669787e-15 0)
(3 4.180113593e-15 0)
(3 3.971188632e-15 0)
(3 -6.25387152e-16 0)
(3 -6.221664137e-16 0)
(3 -9.727382682e-16 0)
(3 -2.341215366e-15 0)
(3 -4.918865223e-15 0)
(3 -5.762590749e-15 0)
(3 -4.592144433e-15 0)
(3 -2.60135479e-15 0)
(3 -1.123148287e-15 0)
(3 -7.076655021e-16 0)
(3 -4.637305844e-16 0)
(3 1.411582072e-15 0)
(3 1.625797161e-15 0)
(3 7.951343598e-16 0)
(3 2.101459468e-15 0)
(3 3.775067239e-15 0)
(3 3.310208114e-15 0)
(3 2.869283343e-15 0)
(3 1.550313395e-15 0)
(3 1.959770312e-15 0)
(3 4.037371444e-15 0)
(3 4.466269427e-15 0)
(3 3.430338835e-15 0)
(3 2.3618659e-16 0)
(3 -1.196837926e-15 0)
(3 -1.512617386e-15 0)
(3 -2.492893379e-15 0)
(3 -2.244473281e-15 0)
(3 -1.316092552e-15 0)
(3 -2.391495749e-16 0)
(3 -1.246044295e-15 0)
(3 -2.196760992e-15 0)
(3 -2.438351363e-15 0)
(3 -2.146456787e-15 0)
(3 8.566541988e-16 0)
(3 2.34455892e-15 0)
(3 6.716892505e-16 0)
(3 -8.170704275e-16 0)
(3 -1.376123798e-15 0)
(3 -3.272598917e-16 0)
(3 9.985399049e-16 0)
(3 3.265595617e-17 0)
(3 2.430016686e-16 0)
(3 -1.584490397e-15 0)
(3 -1.504682445e-15 0)
(3 -1.493677375e-15 0)
(3 -2.350196089e-15 0)
(3 -2.471698549e-15 0)
(3 -2.929774812e-15 0)
(3 -1.979128716e-15 0)
(3 -1.805605924e-15 0)
(3 -9.323643711e-16 0)
(3 5.941623352e-16 0)
(3 7.025488441e-16 0)
(3 5.42875696e-16 0)
(3 4.015714833e-16 0)
(3 1.379533123e-15 0)
(3 3.371779763e-16 0)
(3 -5.913684773e-16 0)
(3 -2.421435533e-15 0)
(3 -3.566384237e-15 0)
(3 -4.250069077e-15 0)
(3 -4.281856524e-15 0)
(3 -4.867087147e-15 0)
(3 -6.586718859e-15 0)
(3 -7.141063475e-15 0)
(3 -6.39191682e-15 0)
(3 -3.924886584e-15 0)
(3 -3.875131331e-15 0)
(3 -3.515105166e-15 0)
(3 -3.68269704e-15 0)
(3 -3.415554885e-15 0)
(3 -1.505287867e-15 0)
(3 -4.306295715e-17 0)
(3 -1.540113573e-16 0)
(3 1.144781024e-15 0)
(3 2.071840818e-15 0)
(3 1.974367849e-15 0)
(3 3.291047434e-16 0)
(3 -2.306043545e-15 0)
(3 -1.840453007e-15 0)
(3 -1.038412991e-15 0)
(3 2.073048045e-15 0)
(3 1.477435406e-15 0)
(3 -2.487724977e-17 0)
(3 -5.074488872e-16 0)
(3 7.38001444e-16 0)
(3 2.587222167e-16 0)
(3 7.08249968e-16 0)
(3 1.272598558e-15 0)
(3 2.207093747e-15 0)
(3 2.142239725e-15 0)
(3 1.499754057e-15 0)
(3 1.857200384e-15 0)
(3 1.471189421e-15 0)
(3 4.885499123e-15 0)
(3 8.111504028e-15 0)
(3 1.01064724e-14 0)
(3 9.257295184e-15 0)
(3 7.854037352e-15 0)
(3 2.353310193e-16 0)
(3 1.068133942e-16 0)
(3 2.902521721e-16 0)
(3 -1.082696434e-17 0)
(3 -8.76119078e-16 0)
(3 -1.502768954e-15 0)
(3 -2.16407126e-15 0)
(3 -1.828357286e-15 0)
(3 2.00837162e-16 0)
(3 5.872735795e-16 0)
(3 1.454079228e-15 0)
(3 2.24914525e-15 0)
(3 2.114941228e-15 0)
(3 1.277447867e-15 0)
(3 1.058404438e-15 0)
(3 1.586393546e-15 0)
(3 1.495979198e-15 0)
(3 2.642518581e-15 0)
(3 2.912731903e-15 0)
(3 3.178609552e-15 0)
(3 3.083865643e-15 0)
(3 1.347705012e-15 0)
(3 -6.072696596e-16 0)
(3 -7.652145845e-16 0)
(3 -1.373612008e-15 0)
(3 -2.036085512e-15 0)
(3 -3.427533811e-15 0)
(3 -5.034395125e-15 0)
(3 -4.607363034e-15 0)
(3 -3.672549724e-15 0)
(3 -1.896231429e-15 0)
(3 -2.184818109e-15 0)
(3 8.679237627e-16 0)
(3 2.969956144e-15 0)
(3 4.982159115e-15 0)
(3 3.146663605e-15 0)
(3 2.801243777e-15 0)
(3 1.283743773e-15 0)
(3 5.039111786e-16 0)
(3 9.661513669e-16 0)
(3 -6.192223688e-16 0)
(3 -2.346847664e-15 0)
(3 -2.24752019e-15 0)
(3 -1.668868262e-15 0)
(3 -2.744223934e-15 0)
(3 -4.016984248e-15 0)
(3 -3.588567042e-15 0)
(3 -2.550602671e-15 0)
(3 -3.002211631e-15 0)
(3 -4.151548126e-15 0)
(3 -4.062231749e-15 0)
(3 -2.064477288e-15 0)
(3 -1.533074853e-15 0)
(3 -7.938732738e-16 0)
(3 2.245657842e-16 0)
(3 8.557175331e-16 0)
(3 5.305210915e-16 0)
(3 -2.678853034e-15 0)
(3 -4.127088629e-15 0)
(3 -4.630413341e-15 0)
(3 -4.323184866e-15 0)
(3 -5.079712787e-15 0)
(3 -5.042249126e-15 0)
(3 -4.096327644e-15 0)
(3 -5.133817399e-15 0)
(3 -4.342674266e-15 0)
(3 -3.331383403e-15 0)
(3 -1.521451331e-15 0)
(3 2.366845919e-16 0)
(3 -4.1956443e-16 0)
(3 -2.325261916e-15 0)
(3 -3.32079211e-15 0)
(3 -2.04348071e-15 0)
(3 -1.658134202e-15 0)
(3 -7.653366762e-16 0)
(3 1.583222756e-16 0)
(3 -3.554326722e-16 0)
(3 3.04193798e-16 0)
(3 -1.461801001e-15 0)
(3 -1.884293634e-15 0)
(3 -2.988957372e-15 0)
(3 -1.418488514e-15 0)
(3 -4.433408401e-17 0)
(3 -2.031262563e-15 0)
(3 -1.16079376e-15 0)
(3 -4.321254948e-16 0)
(3 1.75686146e-16 0)
(3 -7.553058292e-16 0)
(3 -1.503254605e-15 0)
(3 -1.463654148e-16 0)
(3 1.712594968e-15 0)
(3 2.263144639e-15 0)
(3 2.416731602e-15 0)
(3 2.233413076e-15 0)
(3 2.669462503e-15 0)
(3 2.504101222e-15 0)
(3 3.910176156e-15 0)
(3 6.038422849e-15 0)
(3 7.482028085e-15 0)
(3 9.155850838e-15 0)
(3 -3.370362555e-16 0)
(3 -1.11979813e-15 0)
(3 -2.179625002e-16 0)
(3 -1.367817564e-15 0)
(3 7.327555182e-17 0)
(3 2.266011518e-15 0)
(3 1.637271257e-15 0)
(3 8.786196798e-16 0)
(3 -6.670686092e-16 0)
(3 -2.813870117e-16 0)
(3 3.624042954e-16 0)
(3 3.536134566e-16 0)
(3 2.978015831e-16 0)
(3 -1.286981077e-16 0)
(3 -1.722752516e-15 0)
(3 -1.448382953e-15 0)
(3 -6.88766595e-16 0)
(3 4.192431856e-16 0)
(3 9.753043365e-16 0)
(3 5.923880856e-16 0)
(3 -2.256619119e-15 0)
(3 -3.17329396e-15 0)
(3 -2.860814408e-15 0)
(3 -1.774061484e-15 0)
(3 -1.632410128e-15 0)
(3 -3.060602466e-15 0)
(3 -3.55369587e-15 0)
(3 -5.024366732e-15 0)
(3 -5.030018172e-15 0)
(3 -5.402271722e-15 0)
(3 -3.656720028e-15 0)
(3 -3.919798721e-16 0)
(3 3.128815032e-15 0)
(3 2.740862458e-15 0)
(3 2.750727651e-15 0)
(3 8.663495692e-16 0)
(3 2.683058101e-15 0)
(3 2.702417858e-15 0)
(3 2.07710273e-15 0)
(3 1.732155843e-15 0)
(3 1.646114272e-16 0)
(3 -1.365120396e-15 0)
(3 -2.851965278e-15 0)
(3 -2.828156011e-15 0)
(3 -3.487596078e-15 0)
(3 -4.008218382e-15 0)
(3 -4.034178243e-15 0)
(3 -4.766994924e-15 0)
(3 -5.238584793e-15 0)
(3 -5.333076618e-15 0)
(3 -2.903386802e-15 0)
(3 -2.368037957e-15 0)
(3 -1.996132462e-15 0)
(3 1.248983724e-15 0)
(3 1.70760052e-15 0)
(3 1.764723785e-15 0)
(3 1.406313907e-15 0)
(3 2.252203778e-16 0)
(3 -1.054892785e-15 0)
(3 -2.017295087e-15 0)
(3 -2.234293188e-15 0)
(3 -3.162140628e-15 0)
(3 -2.049971867e-15 0)
(3 -1.706049141e-15 0)
(3 -3.879362978e-16 0)
(3 1.760380644e-16 0)
(3 -4.208123644e-16 0)
(3 -9.80165305e-16 0)
(3 1.030771493e-15 0)
(3 6.971460533e-16 0)
(3 -1.5776768e-15 0)
(3 -9.788737404e-16 0)
(3 -6.249952803e-16 0)
(3 -2.75334837e-15 0)
(3 -2.6581717e-15 0)
(3 -2.127555954e-15 0)
(3 -1.846577109e-15 0)
(3 -1.117572995e-15 0)
(3 -2.25601591e-15 0)
(3 -3.307871491e-15 0)
(3 -5.303168634e-15 0)
(3 -5.838635275e-15 0)
(3 -3.507559382e-15 0)
(3 -2.423237807e-15 0)
(3 8.236964804e-16 0)
(3 3.056293335e-15 0)
(3 2.972989586e-15 0)
(3 2.37630878e-15 0)
(3 1.786956206e-15 0)
(3 1.495469307e-15 0)
(3 2.999790279e-15 0)
(3 3.764983808e-15 0)
(3 3.359319094e-15 0)
(3 5.989045746e-16 0)
(3 1.490427952e-15 0)
(3 1.116232556e-15 0)
(3 9.623894675e-16 0)
(3 2.58319032e-15 0)
(3 5.823919747e-15 0)
(3 7.776983132e-15 0)
(3 -5.617637206e-16 0)
(3 -2.300822492e-16 0)
(3 3.113471642e-16 0)
(3 4.285530829e-16 0)
(3 1.080705941e-15 0)
(3 5.516599337e-16 0)
(3 -9.218303752e-17 0)
(3 -2.62884905e-16 0)
(3 -1.276166446e-15 0)
(3 -4.030980677e-16 0)
(3 1.576587465e-15 0)
(3 1.69155142e-15 0)
(3 -1.68011426e-16 0)
(3 -6.211357662e-17 0)
(3 1.191240753e-16 0)
(3 1.126969028e-15 0)
(3 2.150055173e-15 0)
(3 2.186316026e-15 0)
(3 1.797880015e-15 0)
(3 -1.850475557e-15 0)
(3 -1.828868489e-15 0)
(3 -2.42847688e-15 0)
(3 -1.613235132e-15 0)
(3 -1.210171997e-15 0)
(3 -1.665229536e-15 0)
(3 -2.821200286e-15 0)
(3 -3.032071746e-15 0)
(3 -2.92265288e-15 0)
(3 -2.774433895e-15 0)
(3 -1.292534474e-15 0)
(3 1.191311825e-15 0)
(3 3.660580156e-15 0)
(3 4.813555116e-15 0)
(3 2.95337402e-15 0)
(3 -2.35320471e-16 0)
(3 5.100404285e-16 0)
(3 9.008506084e-16 0)
(3 4.043046783e-16 0)
(3 9.969260582e-17 0)
(3 3.830615887e-16 0)
(3 9.393315528e-16 0)
(3 1.048592304e-15 0)
(3 -1.421747005e-15 0)
(3 -4.331509047e-15 0)
(3 -3.466274001e-15 0)
(3 -1.713415747e-15 0)
(3 -1.516391311e-15 0)
(3 -3.344412425e-15 0)
(3 -4.210105607e-15 0)
(3 -2.511769891e-15 0)
(3 -1.892368781e-15 0)
(3 -2.386305337e-15 0)
(3 -1.220892755e-15 0)
(3 -3.271443425e-16 0)
(3 1.184725203e-15 0)
(3 2.333263118e-15 0)
(3 4.254397609e-15 0)
(3 2.595794286e-15 0)
(3 9.003064209e-16 0)
(3 1.908492941e-16 0)
(3 -4.914990301e-16 0)
(3 -1.23472528e-15 0)
(3 -4.554929682e-16 0)
(3 -5.569964034e-16 0)
(3 9.945011969e-16 0)
(3 1.776311154e-15 0)
(3 5.317296116e-16 0)
(3 -1.57326939e-15 0)
(3 -1.847039107e-15 0)
(3 -1.034124883e-15 0)
(3 -9.960799763e-16 0)
(3 -8.341054878e-16 0)
(3 -1.691609029e-16 0)
(3 -4.859359425e-16 0)
(3 -1.573254025e-15 0)
(3 -2.523656724e-15 0)
(3 -2.33326948e-15 0)
(3 -1.956603407e-15 0)
(3 -3.907538232e-15 0)
(3 -4.216770325e-15 0)
(3 -5.903391542e-15 0)
(3 -6.342708087e-15 0)
(3 -5.305592643e-15 0)
(3 -1.068514873e-16 0)
(3 3.46264446e-15 0)
(3 2.899595279e-15 0)
(3 2.172310191e-15 0)
(3 1.682562682e-15 0)
(3 7.790879711e-16 0)
(3 -2.001302686e-16 0)
(3 2.864402143e-15 0)
(3 4.188405898e-15 0)
(3 4.189989607e-15 0)
(3 1.255307435e-15 0)
(3 -8.112340851e-16 0)
(3 -3.141356172e-16 0)
(3 2.011399542e-15 0)
(3 6.797257426e-15 0)
(3 7.5095599e-15 0)
(3 7.65405913e-15 0)
(3 6.291915464e-16 0)
(3 1.060513894e-15 0)
(3 -1.175235602e-16 0)
(3 1.880367755e-15 0)
(3 4.468480184e-17 0)
(3 -1.880753409e-15 0)
(3 -1.059269832e-15 0)
(3 -1.472771824e-15 0)
(3 -1.679016629e-15 0)
(3 -8.606594992e-16 0)
(3 1.134850636e-15 0)
(3 1.884834181e-16 0)
(3 -7.960481639e-16 0)
(3 4.606910279e-16 0)
(3 1.612484902e-15 0)
(3 9.516651392e-16 0)
(3 1.283725712e-15 0)
(3 1.440150951e-15 0)
(3 1.421841394e-15 0)
(3 6.330401339e-16 0)
(3 7.114933156e-17 0)
(3 -1.082844546e-15 0)
(3 -3.013220159e-15 0)
(3 -2.223704332e-15 0)
(3 -3.427727468e-15 0)
(3 -3.526865683e-15 0)
(3 -4.495335141e-15 0)
(3 -4.055168382e-15 0)
(3 -4.261308829e-15 0)
(3 -2.049238321e-15 0)
(3 -1.031705356e-15 0)
(3 1.732415444e-15 0)
(3 4.18687645e-15 0)
(3 3.173288468e-15 0)
(3 1.95217212e-15 0)
(3 6.119315776e-16 0)
(3 -1.542386082e-15 0)
(3 5.816311773e-17 0)
(3 -7.378341311e-16 0)
(3 -1.043235692e-15 0)
(3 -1.879293732e-15 0)
(3 -1.917615643e-16 0)
(3 4.055747733e-16 0)
(3 -1.3478186e-15 0)
(3 -1.946768885e-15 0)
(3 -1.760840965e-15 0)
(3 2.834333614e-16 0)
(3 3.717606533e-16 0)
(3 -2.015601126e-16 0)
(3 -9.969639492e-16 0)
(3 -8.486334294e-16 0)
(3 -2.123678507e-15 0)
(3 -2.538571185e-15 0)
(3 -3.221051574e-15 0)
(3 -2.212231632e-15 0)
(3 -1.615029593e-15 0)
(3 -6.296739369e-16 0)
(3 -2.713299953e-17 0)
(3 9.716797928e-16 0)
(3 -8.339858635e-16 0)
(3 -2.066330946e-15 0)
(3 -2.002141856e-15 0)
(3 3.690547851e-16 0)
(3 5.112339538e-17 0)
(3 1.343402496e-15 0)
(3 6.808438423e-16 0)
(3 -1.11525491e-15 0)
(3 -2.009227325e-15 0)
(3 -4.242347808e-15 0)
(3 -4.231285165e-15 0)
(3 -3.818624419e-15 0)
(3 -3.673879442e-15 0)
(3 -3.762770369e-15 0)
(3 -2.468456497e-15 0)
(3 -2.066776885e-15 0)
(3 -2.955343002e-15 0)
(3 -2.946004632e-15 0)
(3 -1.996832079e-15 0)
(3 -2.861256211e-15 0)
(3 -3.645914181e-15 0)
(3 -3.353875265e-15 0)
(3 -5.544480875e-15 0)
(3 -6.670612473e-15 0)
(3 -4.404335725e-15 0)
(3 8.606546333e-16 0)
(3 2.188624789e-15 0)
(3 2.643758606e-17 0)
(3 -4.685883372e-16 0)
(3 5.135399089e-16 0)
(3 2.005550351e-15 0)
(3 2.012733865e-15 0)
(3 4.32937648e-15 0)
(3 4.851147439e-15 0)
(3 2.129514232e-15 0)
(3 -1.207955302e-15 0)
(3 1.420855878e-15 0)
(3 3.179979198e-15 0)
(3 4.145486143e-15 0)
(3 4.505417479e-15 0)
(3 4.800915467e-15 0)
(3 -3.165008812e-16 0)
(3 -9.053969632e-16 0)
(3 -1.444588891e-15 0)
(3 -1.027886143e-15 0)
(3 -6.844936484e-16 0)
(3 -1.499184588e-16 0)
(3 1.637656229e-15 0)
(3 1.976531173e-15 0)
(3 1.426704158e-15 0)
(3 1.457265037e-15 0)
(3 -9.730832408e-16 0)
(3 -1.328399876e-15 0)
(3 1.242001933e-15 0)
(3 4.317821816e-15 0)
(3 3.04348754e-15 0)
(3 2.039954382e-15 0)
(3 3.035011931e-15 0)
(3 1.980307072e-15 0)
(3 -1.357763939e-16 0)
(3 -4.389279718e-16 0)
(3 -7.128035284e-16 0)
(3 -1.501562277e-15 0)
(3 -1.612601477e-15 0)
(3 -1.865059412e-15 0)
(3 -2.801081983e-15 0)
(3 -2.768203787e-15 0)
(3 -3.285651565e-15 0)
(3 -2.292212206e-15 0)
(3 -1.984419776e-15 0)
(3 -4.157257743e-16 0)
(3 2.133353834e-16 0)
(3 8.221438365e-16 0)
(3 1.958354798e-15 0)
(3 2.579941712e-15 0)
(3 2.978966932e-16 0)
(3 -3.346580881e-16 0)
(3 -2.313293614e-16 0)
(3 7.297237135e-16 0)
(3 -2.227409002e-16 0)
(3 -5.58292277e-16 0)
(3 -3.719983871e-16 0)
(3 -3.14696542e-16 0)
(3 1.6428104e-15 0)
(3 2.119508674e-15 0)
(3 9.052905423e-16 0)
(3 -2.807729536e-15 0)
(3 -4.036454363e-15 0)
(3 -2.889040246e-15 0)
(3 -1.871811973e-15 0)
(3 -1.422326195e-15 0)
(3 -2.504321297e-15 0)
(3 -2.03242157e-15 0)
(3 -2.293923001e-15 0)
(3 -2.522076706e-15 0)
(3 -2.965368515e-15 0)
(3 -3.218997201e-15 0)
(3 -3.863954355e-15 0)
(3 -3.394092158e-15 0)
(3 -1.892389244e-15 0)
(3 -1.107922625e-15 0)
(3 -6.199444489e-16 0)
(3 5.041769404e-16 0)
(3 1.278232887e-15 0)
(3 1.274600281e-15 0)
(3 9.556236072e-16 0)
(3 1.162390281e-15 0)
(3 -4.480387507e-18 0)
(3 -1.316467711e-15 0)
(3 -2.473373862e-15 0)
(3 -3.939557889e-15 0)
(3 -4.264904312e-15 0)
(3 -4.515334353e-15 0)
(3 -6.026732618e-15 0)
(3 -7.16078927e-15 0)
(3 -6.058779546e-15 0)
(3 -4.672871721e-15 0)
(3 -3.782605984e-15 0)
(3 -3.25758023e-15 0)
(3 -3.307768793e-15 0)
(3 -2.898970749e-15 0)
(3 -2.832985099e-15 0)
(3 -3.44105708e-15 0)
(3 -4.201315139e-15 0)
(3 -4.469657112e-15 0)
(3 -2.805608818e-15 0)
(3 -1.707726737e-15 0)
(3 -1.594847361e-15 0)
(3 -1.545268682e-15 0)
(3 8.793481232e-17 0)
(3 1.802160383e-15 0)
(3 1.177688337e-15 0)
(3 2.498626376e-15 0)
(3 3.732467715e-15 0)
(3 2.834136634e-15 0)
(3 3.357957401e-15 0)
(3 3.529159676e-15 0)
(3 5.309477605e-17 0)
(3 -2.213542269e-16 0)
(3 1.533305085e-16 0)
(3 1.046973662e-16 0)
(3 2.474155749e-16 0)
(3 8.707793017e-16 0)
(3 9.20611936e-16 0)
(3 7.429904138e-16 0)
(3 8.501507325e-16 0)
(3 -1.235500957e-16 0)
(3 -9.309607793e-16 0)
(3 4.24902014e-16 0)
(3 1.360213367e-16 0)
(3 -1.556087324e-15 0)
(3 -3.707976084e-15 0)
(3 -2.892626568e-15 0)
(3 -9.036100376e-16 0)
(3 1.066122929e-15 0)
(3 1.623666476e-15 0)
(3 2.686144268e-15 0)
(3 2.758021257e-15 0)
(3 2.167415906e-15 0)
(3 4.74229354e-16 0)
(3 -8.526618515e-16 0)
(3 -3.095226114e-15 0)
(3 -4.054028856e-15 0)
(3 -3.406099663e-15 0)
(3 -1.161203031e-15 0)
(3 -1.232093426e-15 0)
(3 -1.644215137e-15 0)
(3 -1.391143219e-15 0)
(3 1.803266026e-15 0)
(3 1.008341735e-15 0)
(3 1.168967233e-15 0)
(3 1.142381678e-15 0)
(3 5.880904346e-16 0)
(3 -5.079457368e-17 0)
(3 -2.832721437e-15 0)
(3 -3.532409996e-15 0)
(3 -2.866780359e-15 0)
(3 8.875666094e-17 0)
(3 2.880627786e-16 0)
(3 6.705873164e-16 0)
(3 1.095921465e-15 0)
(3 3.516496102e-15 0)
(3 3.369195086e-15 0)
(3 2.894407441e-15 0)
(3 1.803009917e-15 0)
(3 3.444321032e-17 0)
(3 -1.079207829e-15 0)
(3 -2.708324852e-15 0)
(3 -3.707242595e-15 0)
(3 -2.999512736e-15 0)
(3 -2.580505687e-15 0)
(3 -2.445288254e-15 0)
(3 1.284270134e-16 0)
(3 2.732905517e-16 0)
(3 1.016041977e-15 0)
(3 1.083619549e-15 0)
(3 7.470569699e-16 0)
(3 -2.042852218e-15 0)
(3 -2.234014794e-15 0)
(3 -2.719112401e-15 0)
(3 -1.151479242e-15 0)
(3 1.123246436e-15 0)
(3 1.769536869e-15 0)
(3 1.478303089e-15 0)
(3 3.135306786e-15 0)
(3 2.377329387e-15 0)
(3 1.832108228e-15 0)
(3 9.195480183e-16 0)
(3 3.353531924e-16 0)
(3 -2.142626089e-16 0)
(3 1.269338236e-16 0)
(3 -2.552522355e-16 0)
(3 -1.951606417e-15 0)
(3 -4.03623464e-15 0)
(3 -6.316341112e-15 0)
(3 -6.546541616e-15 0)
(3 -5.896280054e-15 0)
(3 -5.623218331e-15 0)
(3 -6.385634734e-15 0)
(3 -5.259645734e-15 0)
(3 -4.065371113e-15 0)
(3 -2.003379672e-15 0)
(3 -1.861361472e-15 0)
(3 -1.820328469e-15 0)
(3 -2.820797296e-15 0)
(3 -3.093222499e-15 0)
(3 -6.152590616e-15 0)
(3 -3.716354752e-15 0)
(3 -2.951464443e-15 0)
(3 -1.521894767e-15 0)
(3 -1.464319096e-15 0)
(3 -7.643370499e-16 0)
(3 9.886726414e-16 0)
(3 1.325748059e-15 0)
(3 1.885839655e-15 0)
(3 3.177901033e-15 0)
(3 2.534343542e-15 0)
(3 -3.363233005e-16 0)
(3 -1.27481223e-15 0)
(3 -1.235842373e-15 0)
(3 -1.324380335e-15 0)
(3 -1.486120933e-16 0)
(3 1.031280471e-15 0)
(3 2.19972084e-15 0)
(3 2.177413302e-15 0)
(3 4.371752763e-16 0)
(3 -1.514686823e-15 0)
(3 -8.292920465e-16 0)
(3 -1.650120024e-15 0)
(3 -1.571477181e-15 0)
(3 -1.495804397e-15 0)
(3 -1.346474181e-15 0)
(3 -4.117345095e-16 0)
(3 -1.207323748e-15 0)
(3 -3.929732429e-15 0)
(3 -2.61673862e-15 0)
(3 -5.742025531e-16 0)
(3 -3.96917623e-16 0)
(3 2.511920194e-16 0)
(3 -1.212390722e-16 0)
(3 -1.255803584e-16 0)
(3 -5.85538488e-16 0)
(3 -9.461735825e-16 0)
(3 -1.521952004e-15 0)
(3 3.711944676e-16 0)
(3 2.911484008e-15 0)
(3 9.570967691e-16 0)
(3 -1.188241471e-15 0)
(3 -1.787148251e-15 0)
(3 -1.584918835e-15 0)
(3 -8.204077719e-16 0)
(3 -1.38279331e-15 0)
(3 -2.668273175e-15 0)
(3 -5.809894957e-15 0)
(3 -6.90287398e-15 0)
(3 -4.752650802e-15 0)
(3 -3.990322778e-15 0)
(3 -8.348257964e-16 0)
(3 2.618402926e-16 0)
(3 1.771203714e-15 0)
(3 2.693619817e-15 0)
(3 3.155628972e-15 0)
(3 3.333758578e-15 0)
(3 1.922015266e-15 0)
(3 1.489626334e-15 0)
(3 -4.096333429e-16 0)
(3 -1.654202353e-15 0)
(3 -2.690976753e-15 0)
(3 -1.416213221e-15 0)
(3 -1.131539427e-15 0)
(3 -1.119713232e-15 0)
(3 5.173118008e-16 0)
(3 5.759250528e-16 0)
(3 9.135965684e-16 0)
(3 1.990055917e-15 0)
(3 2.510716497e-15 0)
(3 1.925883542e-15 0)
(3 -1.522819436e-16 0)
(3 2.083350105e-16 0)
(3 -1.141033819e-15 0)
(3 -1.059399024e-15 0)
(3 -1.341342139e-15 0)
(3 -3.196825767e-15 0)
(3 -2.232867221e-15 0)
(3 3.027234621e-16 0)
(3 1.242108712e-15 0)
(3 4.258426538e-16 0)
(3 6.327113759e-16 0)
(3 9.494589905e-16 0)
(3 2.988505465e-16 0)
(3 7.446422248e-16 0)
(3 4.239655071e-16 0)
(3 -1.121710468e-15 0)
(3 -3.936576123e-15 0)
(3 -4.834681312e-15 0)
(3 -4.411888328e-15 0)
(3 -4.597810881e-15 0)
(3 -4.452530255e-15 0)
(3 -3.622446275e-15 0)
(3 -2.967359393e-15 0)
(3 -2.795647575e-15 0)
(3 -1.595747636e-15 0)
(3 -2.637253632e-15 0)
(3 -3.334156435e-15 0)
(3 -3.072537168e-15 0)
(3 -3.124315795e-15 0)
(3 -4.895113569e-15 0)
(3 -4.570561041e-15 0)
(3 -3.023277987e-15 0)
(3 -2.564179911e-15 0)
(3 -2.552281382e-15 0)
(3 -1.833737223e-15 0)
(3 -1.924179951e-15 0)
(3 -1.437758639e-15 0)
(3 1.218610889e-15 0)
(3 2.800363665e-15 0)
(3 2.371528933e-15 0)
(3 1.007731199e-15 0)
(3 -8.498206742e-16 0)
(3 4.589274112e-16 0)
(3 -1.0291901e-15 0)
(3 -3.252594862e-16 0)
(3 -4.401952748e-16 0)
(3 7.330831901e-16 0)
(3 5.082701761e-16 0)
(3 -3.268683645e-16 0)
(3 9.734476239e-16 0)
(3 5.721162552e-16 0)
(3 -6.343642598e-16 0)
(3 8.498209313e-16 0)
(3 1.76792658e-15 0)
(3 1.006065506e-15 0)
(3 -4.951671241e-18 0)
(3 -1.233610678e-15 0)
(3 -3.309280781e-15 0)
(3 -3.166548892e-15 0)
(3 -2.478650365e-15 0)
(3 -2.02758855e-15 0)
(3 -1.028255811e-15 0)
(3 -6.079576477e-16 0)
(3 -7.305466248e-17 0)
(3 3.199707916e-16 0)
(3 1.125185636e-15 0)
(3 4.904868232e-15 0)
(3 4.37753285e-15 0)
(3 5.136674552e-15 0)
(3 5.168325564e-15 0)
(3 3.663836334e-15 0)
(3 2.689598854e-15 0)
(3 1.982368823e-15 0)
(3 6.186632045e-16 0)
(3 -1.186923145e-15 0)
(3 -3.298015963e-15 0)
(3 -6.514219894e-15 0)
(3 -5.492224406e-15 0)
(3 -4.257013592e-15 0)
(3 -4.420211068e-15 0)
(3 -2.656839075e-15 0)
(3 -1.184655162e-15 0)
(3 1.714259885e-15 0)
(3 3.703534772e-15 0)
(3 2.950485771e-15 0)
(3 1.945483819e-15 0)
(3 -1.289588646e-15 0)
(3 -9.769799059e-16 0)
(3 -3.340634683e-16 0)
(3 -3.169783993e-16 0)
(3 1.145740804e-15 0)
(3 8.381662108e-16 0)
(3 1.394549727e-15 0)
(3 1.683484098e-15 0)
(3 1.895738645e-15 0)
(3 1.137689256e-15 0)
(3 1.152491632e-15 0)
(3 1.229319394e-15 0)
(3 1.280292531e-15 0)
(3 1.396793259e-15 0)
(3 1.326056231e-15 0)
(3 1.583506922e-15 0)
(3 2.88061633e-17 0)
(3 -2.594964712e-15 0)
(3 -4.826764237e-15 0)
(3 -4.145771434e-15 0)
(3 -3.641200894e-15 0)
(3 -3.418440157e-15 0)
(3 -1.365295112e-15 0)
(3 -9.12762855e-16 0)
(3 -1.132814262e-15 0)
(3 -1.638539443e-15 0)
(3 -3.057349299e-15 0)
(3 -3.70910278e-15 0)
(3 -3.291449238e-15 0)
(3 -1.244934944e-15 0)
(3 -7.143054757e-17 0)
(3 -4.557008116e-16 0)
(3 -7.169402013e-16 0)
(3 -1.638436445e-15 0)
(3 -1.781083816e-15 0)
(3 -8.502628467e-16 0)
(3 -9.912077923e-16 0)
(3 -1.109233509e-15 0)
(3 -1.981763562e-15 0)
(3 -1.088787586e-15 0)
(3 -9.028375554e-16 0)
(3 -1.374093711e-15 0)
(3 -2.074356619e-15 0)
(3 -8.971442451e-16 0)
(3 -1.405133605e-15 0)
(3 -2.249317716e-15 0)
(3 -2.617731937e-15 0)
(3 -1.082883947e-15 0)
(3 1.524312757e-16 0)
(3 -3.889571631e-16 0)
(3 1.957850635e-16 0)
(3 1.202694713e-15 0)
(3 2.929688415e-15 0)
(3 2.838155193e-15 0)
(3 2.518215211e-15 0)
(3 1.346192781e-15 0)
(3 6.149004381e-17 0)
(3 -9.329023802e-16 0)
(3 6.58570667e-16 0)
(3 1.048489053e-15 0)
(3 4.305297251e-16 0)
(3 1.300471316e-15 0)
(3 2.682874836e-15 0)
(3 2.382961043e-15 0)
(3 1.507844566e-15 0)
(3 9.109439638e-16 0)
(3 1.134223337e-15 0)
(3 9.525462699e-16 0)
(3 1.198688967e-15 0)
(3 1.306139164e-15 0)
(3 2.070618705e-15 0)
(3 2.782378301e-15 0)
(3 1.649545813e-15 0)
(3 3.477752461e-16 0)
(3 -2.0908613e-15 0)
(3 -1.383072579e-15 0)
(3 2.972400772e-16 0)
(3 9.1054289e-16 0)
(3 1.582643811e-15 0)
(3 3.272384709e-15 0)
(3 5.502556016e-15 0)
(3 4.786135233e-15 0)
(3 1.317794775e-15 0)
(3 1.718973437e-15 0)
(3 3.426336337e-15 0)
(3 4.15989792e-15 0)
(3 3.71282e-15 0)
(3 1.69271854e-15 0)
(3 -4.879454654e-16 0)
(3 -2.60466571e-15 0)
(3 -3.16043612e-15 0)
(3 -3.362369073e-15 0)
(3 -3.282138856e-15 0)
(3 -2.094184663e-15 0)
(3 -2.462721369e-15 0)
(3 -6.132475765e-16 0)
(3 1.628806557e-15 0)
(3 4.137448961e-15 0)
(3 2.632518258e-15 0)
(3 1.606515065e-15 0)
(3 -4.29931609e-16 0)
(3 9.349764798e-16 0)
(3 2.460290737e-15 0)
(3 4.438930891e-15 0)
(3 5.261479494e-15 0)
(3 5.006145019e-15 0)
(3 5.097423433e-15 0)
(3 4.438147277e-15 0)
(3 3.589559213e-15 0)
(3 3.414262291e-15 0)
(3 3.282990473e-15 0)
(3 2.019290605e-15 0)
(3 1.123921021e-15 0)
(3 1.613620337e-15 0)
(3 3.051259296e-15 0)
(3 3.361008965e-15 0)
(3 1.164063975e-15 0)
(3 -6.867884692e-16 0)
(3 -1.919600405e-15 0)
(3 -5.157584048e-16 0)
(3 -1.251992022e-15 0)
(3 -4.09203537e-15 0)
(3 -4.723224199e-15 0)
(3 -1.31411227e-15 0)
(3 -4.188341225e-16 0)
(3 -9.525135799e-16 0)
(3 -1.380170252e-15 0)
(3 -9.44578186e-16 0)
(3 -4.951026238e-16 0)
(3 3.467815578e-15 0)
(3 6.817339091e-15 0)
(3 5.517995174e-15 0)
(3 2.344507129e-15 0)
(3 5.015899641e-16 0)
(3 -6.347931221e-16 0)
(3 -1.028721477e-15 0)
(3 -9.619590894e-16 0)
(3 -1.37935536e-15 0)
(3 -1.849208808e-15 0)
(3 -2.145505735e-15 0)
(3 -9.39057238e-16 0)
(3 -1.797303312e-15 0)
(3 -1.79942464e-15 0)
(3 -8.181923564e-17 0)
(3 -4.195766492e-18 0)
(3 3.339548761e-16 0)
(3 9.242305403e-16 0)
(3 2.602438385e-15 0)
(3 4.34977311e-15 0)
(3 3.746924192e-15 0)
(3 3.508306417e-15 0)
(3 4.364822776e-15 0)
(3 4.084174604e-15 0)
(3 3.407858145e-15 0)
(3 2.134982196e-15 0)
(3 2.077964252e-15 0)
(3 1.601329777e-15 0)
(3 -2.35973706e-16 0)
(3 2.773279266e-16 0)
(3 -1.553683098e-16 0)
(3 -2.10184362e-15 0)
(3 -1.6909675e-15 0)
(3 2.098940973e-15 0)
(3 1.824393097e-15 0)
(3 3.408767405e-15 0)
(3 4.127956121e-15 0)
(3 3.04977566e-15 0)
(3 2.703207538e-15 0)
(3 4.933846225e-15 0)
(3 6.501440547e-15 0)
(3 6.687335298e-15 0)
(3 5.964647026e-15 0)
(3 3.644533341e-15 0)
(3 1.765807506e-15 0)
(3 -1.468638046e-15 0)
(3 -1.653000688e-15 0)
(3 -1.048127232e-15 0)
(3 1.585752559e-15 0)
(3 5.235350217e-15 0)
(3 6.842578063e-15 0)
(3 3.016127106e-15 0)
(3 -3.802250858e-16 0)
(3 -8.767758733e-16 0)
(3 -1.598244922e-15 0)
(3 -7.499246916e-16 0)
(3 -1.67752652e-16 0)
(3 1.647568518e-15 0)
(3 1.68180406e-15 0)
(3 -1.77412025e-16 0)
(3 -6.082870474e-16 0)
(3 4.116771032e-17 0)
(3 5.666868342e-16 0)
(3 -6.790422362e-17 0)
(3 4.172008951e-17 0)
(3 2.046662872e-15 0)
(3 2.3129868e-15 0)
(3 2.107832782e-15 0)
(3 2.674927464e-15 0)
(3 4.073603081e-15 0)
(3 4.112516294e-15 0)
(3 1.401810037e-15 0)
(3 1.339691718e-15 0)
(3 1.546105926e-15 0)
(3 2.009609034e-15 0)
(3 2.414236455e-15 0)
(3 4.311778557e-15 0)
(3 4.938701709e-15 0)
(3 5.140755151e-15 0)
(3 5.799402205e-15 0)
(3 3.897830248e-15 0)
(3 2.00013928e-15 0)
(3 7.484681541e-16 0)
(3 -1.328420623e-15 0)
(3 -1.255962957e-15 0)
(3 -5.818359032e-16 0)
(3 2.235686337e-16 0)
(3 1.049363663e-16 0)
(3 4.89127855e-16 0)
(3 -1.171429111e-15 0)
(3 -1.91608215e-15 0)
(3 -3.629725341e-15 0)
(3 -4.393327224e-15 0)
(3 -4.959494309e-15 0)
(3 -2.862688455e-15 0)
(3 -1.441177685e-15 0)
(3 8.104102196e-16 0)
(3 3.872145464e-15 0)
(3 3.009368057e-15 0)
(3 2.825708944e-15 0)
(3 2.735605526e-15 0)
(3 1.988126477e-15 0)
(3 4.161866569e-15 0)
(3 2.742739089e-15 0)
(3 1.430290378e-15 0)
(3 1.896144578e-16 0)
(3 -2.885960667e-15 0)
(3 -2.382198931e-15 0)
(3 -2.411038447e-15 0)
(3 -1.726569161e-15 0)
(3 -1.458718616e-15 0)
(3 -1.021409622e-15 0)
(3 -1.310952563e-15 0)
(3 -2.793722762e-15 0)
(3 -4.234420482e-15 0)
(3 -3.893124214e-15 0)
(3 -1.111258077e-15 0)
(3 2.66998395e-15 0)
(3 2.812701842e-15 0)
(3 3.216609136e-15 0)
(3 3.048528987e-15 0)
(3 3.708562506e-15 0)
(3 4.354279911e-15 0)
(3 2.991075633e-15 0)
(3 2.506365383e-15 0)
(3 6.401518722e-16 0)
(3 9.636432716e-16 0)
(3 1.334701084e-15 0)
(3 -4.959045175e-16 0)
(3 3.950307618e-16 0)
(3 1.035673761e-16 0)
(3 -2.969681775e-16 0)
(3 -5.969806336e-16 0)
(3 -5.760233547e-16 0)
(3 2.690256164e-15 0)