/*--------------------------------*- C++ -*----------------------------------*\
  =========                 |
  \\      /  F ield         | OpenFOAM: The Open Source CFD Toolbox
   \\    /   O peration     | Website:  https://openfoam.org
    \\  /    A nd           | Version:  7
     \\/     M anipulation  |
\*---------------------------------------------------------------------------*/
FoamFile
{
    version     2.0;
    format      ascii;
    class       volScalarField;
    location    "2.8";
    object      rho;
}
// * * * * * * * * * * * * * * * * * * * * * * * * * * * * * * * * * * * * * //

dimensions      [1 -3 0 0 0 0 0];

internalField   nonuniform List<scalar> 
2222
(
1.383174895
1.381468269
1.380477031
1.37956994
1.379157499
1.378074965
1.378081502
1.378439225
1.378951615
1.379025199
1.379189124
1.379526643
1.379959324
1.380310375
1.380347639
1.380111162
1.380259824
1.37876422
1.378168015
1.37732896
1.377418039
1.378463318
1.380406421
1.381780266
1.382317798
1.382475508
1.382529652
1.382733512
1.376378022
1.37982341
1.381871819
1.382481861
1.382844366
1.382981879
1.382941506
1.382169445
1.380066079
1.378662782
1.378013762
1.377346194
1.377155857
1.377620678
1.37830025
1.378417177
1.379004325
1.379981946
1.380819198
1.381139889
1.381390095
1.381427669
1.380677985
1.379418525
1.378813873
1.37908834
1.380073268
1.381635747
1.381984465
1.382335666
1.381576968
1.381660264
1.381621982
1.38164631
1.377557616
1.38070441
1.382265747
1.382236398
1.382472609
1.382529429
1.382228535
1.381480319
1.379747199
1.377863831
1.377312258
1.377900069
1.378179702
1.378535156
1.378857085
1.379487035
1.380619613
1.381614429
1.382051074
1.382113271
1.382358472
1.382169918
1.381638286
1.381234639
1.380992157
1.381514562
1.381635598
1.381385752
1.381606794
1.381549456
1.380771296
1.3808991
1.380831727
1.380248212
1.377671941
1.38008006
1.38160368
1.381502526
1.381319852
1.381513371
1.381162985
1.380161539
1.378339808
1.377435455
1.378307596
1.37886663
1.37950653
1.379747639
1.380145254
1.380980942
1.381919443
1.382285016
1.382327297
1.382368191
1.381898175
1.381445385
1.381689243
1.381430429
1.38149555
1.381322278
1.380877964
1.380394681
1.38073476
1.380151251
1.380432001
1.380259832
1.380388724
1.380035193
1.376510562
1.378964353
1.380484678
1.38056191
1.380026318
1.380193648
1.379702384
1.378770385
1.377492183
1.377967777
1.379297528
1.379399801
1.379699683
1.379786207
1.380228195
1.381146907
1.381607286
1.381665689
1.381679938
1.381380128
1.381072246
1.380618997
1.380929146
1.380575906
1.3806995
1.380227984
1.37958367
1.37929343
1.379277025
1.379088947
1.379204353
1.379137627
1.379414148
1.379252568
1.37496029
1.377609455
1.379617309
1.379734393
1.379353751
1.37857396
1.37772966
1.377484604
1.377761365
1.378750657
1.379046089
1.379303513
1.379210486
1.379251156
1.379655995
1.38049805
1.380586656
1.380611568
1.380543803
1.379948006
1.379923044
1.379966441
1.380155661
1.380073184
1.379653544
1.379081853
1.378166692
1.378127355
1.37790826
1.377985922
1.377884157
1.377820209
1.378128219
1.37795157
1.374406055
1.377039703
1.379220579
1.378995878
1.378609537
1.377815209
1.377063642
1.376754299
1.37806273
1.378761813
1.378429833
1.378689744
1.378220272
1.378368797
1.378841186
1.379294247
1.379175912
1.379143833
1.378991434
1.378454319
1.378566612
1.378670338
1.378990374
1.379169344
1.378523514
1.378526482
1.377955828
1.377130968
1.376920428
1.377209777
1.376889311
1.377131443
1.377348154
1.376990367
1.377478375
1.379429841
1.37882025
1.377999924
1.377289111
1.37697197
1.377151375
1.377972699
1.378045127
1.378088931
1.377476776
1.377387103
1.377678588
1.378332168
1.378786115
1.378622336
1.378022681
1.376763
1.376743704
1.376523393
1.377197609
1.377549805
1.377527291
1.377272255
1.377183227
1.376887477
1.376254747
1.376784007
1.376933962
1.37715891
1.377468527
1.377860476
1.377774467
1.378155003
1.379556136
1.379152775
1.377707258
1.377073779
1.37717222
1.377738343
1.37809256
1.377673202
1.377481086
1.376598916
1.37705428
1.377610762
1.378413168
1.378480406
1.377803096
1.376474469
1.37559623
1.375711165
1.375505035
1.37620795
1.376730201
1.376410948
1.376250592
1.376214253
1.376203962
1.376792884
1.37711912
1.37787855
1.3784128
1.378608223
1.378966832
1.379347694
1.380704209
1.378277031
1.379578171
1.379414944
1.379248565
1.379320239
1.379720404
1.379940438
1.379109529
1.377800054
1.37721721
1.377308763
1.377859308
1.378496335
1.378739971
1.378409272
1.377244649
1.375891767
1.375201528
1.374797641
1.375977437
1.376818455
1.377223479
1.377377758
1.377651686
1.378148682
1.378392979
1.37921931
1.379792728
1.380266503
1.380891448
1.381089052
1.381397959
1.382124617
1.383209335
1.37821749
1.380502932
1.381415816
1.381533158
1.381801844
1.38195624
1.381423994
1.379794092
1.37835954
1.3784382
1.37867785
1.379038777
1.379104741
1.378657392
1.377939611
1.376885457
1.375960122
1.375814268
1.37657186
1.377468759
1.378447304
1.379368164
1.380083503
1.380969555
1.3814801
1.381299597
1.381251919
1.381331254
1.381489253
1.381814184
1.381947903
1.382331736
1.382919142
1.383189451
1.377908875
1.38104095
1.382208558
1.382208914
1.382332879
1.382273721
1.381598038
1.380758596
1.380141232
1.379736659
1.379289901
1.378780534
1.37843096
1.377964275
1.377316285
1.376640143
1.376624775
1.378233383
1.380348519
1.381836788
1.382701283
1.383134279
1.383364179
1.383485668
1.38294017
1.381888761
1.38090347
1.380883935
1.381265756
1.381582046
1.38162495
1.38205459
1.382349731
1.382480256
1.377125524
1.38073928
1.381670868
1.381604914
1.381800118
1.381811677
1.38133693
1.381080377
1.380830543
1.379895402
1.378883822
1.378296211
1.377351703
1.376950817
1.376843094
1.376912586
1.379316575
1.382174311
1.383528253
1.384001523
1.38421382
1.384166754
1.38396962
1.383478877
1.382656683
1.381679119
1.380299751
1.380267653
1.380597421
1.38100043
1.381396755
1.381514009
1.38137527
1.381766114
1.376136011
1.379772709
1.380713256
1.380682683
1.380868193
1.380805325
1.38065935
1.380658565
1.380265858
1.379684878
1.378327281
1.377588035
1.377038787
1.3764803
1.376549986
1.378654029
1.381818047
1.382997734
1.383436086
1.383665845
1.383650061
1.383601185
1.383538773
1.382852477
1.381824643
1.380660265
1.379980771
1.379861342
1.379811998
1.380429064
1.380708245
1.380736738
1.380402111
1.380761753
1.375186875
1.378756725
1.379797823
1.37956248
1.37974903
1.379846547
1.379963587
1.379828282
1.379445153
1.37910542
1.378271065
1.377408625
1.376998724
1.376618157
1.377745469
1.380899003
1.381934768
1.382246156
1.382665198
1.382879745
1.382747616
1.382771266
1.382589009
1.381877848
1.380258301
1.379285272
1.378784521
1.379037273
1.379326649
1.379949853
1.379867643
1.379752813
1.379585334
1.378495905
1.378384086
1.379535311
1.378991663
1.379130349
1.379328731
1.379582841
1.379466203
1.379292502
1.378651401
1.377946186
1.377587741
1.377555942
1.378173162
1.380423694
1.381774212
1.381648991
1.381366173
1.381644957
1.38176718
1.38169052
1.381626465
1.380595947
1.379442361
1.378248141
1.378027739
1.377890922
1.378626271
1.379503058
1.379536927
1.378833209
1.378779679
1.378254731
1.377368478
1.378266179
1.379925253
1.379520063
1.379581161
1.379802172
1.379848193
1.379697775
1.379067786
1.378573795
1.378321962
1.378606466
1.379645096
1.380979248
1.381855106
1.38179975
1.381111242
1.380777466
1.380294801
1.379734387
1.379178351
1.378987567
1.378502954
1.378014892
1.37757869
1.377707964
1.378429801
1.379757822
1.37991712
1.379352977
1.378729999
1.378313819
1.377573049
1.377860327
1.379291307
1.38161994
1.381167942
1.38085148
1.380721021
1.380463344
1.380052848
1.379275297
1.379585513
1.380058264
1.380596161
1.381410177
1.381792353
1.381777079
1.381358385
1.38078758
1.37917218
1.378009938
1.377714324
1.378207279
1.378290274
1.378505548
1.378310354
1.37815313
1.378639348
1.380150993
1.381016775
1.380293472
1.379320201
1.378763097
1.378624301
1.378443396
1.378854068
1.380577043
1.382235753
1.382007616
1.381574476
1.380963054
1.380644101
1.380486641
1.380247488
1.380726606
1.38096254
1.381051552
1.381309852
1.381517567
1.381455345
1.380789454
1.379860357
1.378398537
1.378106351
1.377986911
1.378333089
1.378830397
1.379013294
1.379470868
1.380272486
1.380940322
1.381143345
1.380950051
1.380374057
1.379606523
1.379150082
1.379372341
1.380483135
1.381862153
1.380475962
1.381897359
1.381674921
1.38128634
1.380788635
1.380337131
1.380180602
1.380611947
1.380830348
1.380707932
1.380614121
1.380735725
1.380763419
1.380448723
1.37958778
1.378102677
1.377787119
1.377900625
1.378620945
1.379757755
1.380579376
1.381607655
1.382247582
1.382543499
1.382151343
1.381094092
1.380467331
1.380162383
1.379692651
1.380491939
1.381482604
1.382643237
1.383268931
1.379874811
1.381180482
1.38095408
1.380628371
1.380236504
1.379817475
1.379808267
1.380228652
1.380342343
1.380112643
1.379876042
1.379802788
1.379508247
1.378793252
1.377984104
1.377584539
1.377724076
1.379207972
1.381228378
1.382125106
1.382533892
1.383004316
1.383345073
1.383100117
1.382353775
1.380960666
1.379974697
1.379825214
1.379652466
1.381019686
1.382244681
1.382705651
1.383107481
1.37898903
1.380257573
1.379733527
1.37944263
1.379309142
1.37927678
1.379577946
1.379743534
1.379785405
1.379329132
1.37869876
1.378500151
1.37784795
1.377462366
1.377414693
1.37772361
1.379384432
1.381599177
1.382537916
1.382119069
1.382495208
1.382748501
1.383051447
1.382747267
1.381964365
1.380514551
1.379385358
1.379213145
1.38002485
1.381212837
1.381910679
1.382283804
1.382676609
1.377777072
1.379354015
1.379061115
1.378957903
1.378860091
1.379033062
1.379423924
1.379742399
1.379032726
1.378096446
1.377500477
1.377483904
1.377224829
1.377182175
1.377713927
1.379550595
1.381388388
1.381888449
1.382123427
1.38181329
1.382024164
1.382165425
1.382488179
1.381845831
1.380671819
1.378995366
1.378293748
1.378564161
1.37962116
1.38086766
1.381395758
1.381711786
1.381953354
1.37916114
1.379176511
1.379206895
1.3792585
1.379487517
1.379513914
1.379351246
1.378820149
1.377804572
1.377187595
1.377070196
1.377167121
1.377642252
1.379368438
1.381447273
1.381733325
1.381716627
1.381474767
1.38158082
1.381288336
1.381292655
1.381543163
1.380362653
1.378913071
1.378070586
1.377889568
1.378276785
1.379292438
1.380572583
1.380729863
1.380953894
1.380701769
1.379638067
1.380359505
1.380408533
1.380344012
1.380195923
1.379788586
1.379058814
1.378554614
1.377983236
1.37769643
1.377796644
1.378357618
1.3795447
1.380712167
1.381363085
1.381418845
1.381471389
1.381210587
1.38056544
1.379863149
1.379112135
1.37951103
1.379030068
1.37865157
1.378244363
1.378249183
1.379178647
1.380526702
1.380973068
1.38060912
1.380808977
1.380340507
1.379848878
1.380562466
1.381135886
1.380910702
1.38050231
1.380132591
1.379753203
1.379359408
1.379410719
1.379306764
1.379369198
1.379605176
1.380004616
1.380323483
1.380700314
1.38094137
1.380877077
1.380423695
1.379406009
1.378380274
1.378137476
1.378291995
1.378872052
1.378732068
1.378593318
1.379111182
1.380118445
1.38180527
1.382234049
1.381345303
1.380967525
1.380852064
1.380622756
1.380165562
1.380737791
1.380987441
1.380777171
1.380331618
1.37973049
1.379497314
1.379869977
1.380651827
1.380654897
1.380439305
1.380315163
1.380256578
1.380239513
1.380588234
1.380143014
1.37914801
1.377851392
1.377407385
1.377692047
1.378080297
1.378854057
1.378992563
1.379263833
1.380460229
1.382257667
1.383020362
1.382883777
1.382332735
1.381760755
1.381453736
1.381121562
1.381172422
1.381138675
1.380605048
1.380493933
1.380196047
1.379562547
1.378814948
1.379128031
1.380093368
1.380833866
1.380848012
1.380460182
1.38032628
1.380267072
1.380148928
1.379562804
1.378613473
1.377320752
1.376831147
1.377214209
1.378139457
1.378835855
1.379268524
1.380735655
1.382363466
1.383781291
1.384171075
1.383651095
1.382805985
1.382533782
1.382029909
1.381577305
1.381547031
1.381140033
1.381301216
1.380343197
1.379736208
1.379064811
1.378339964
1.378158561
1.378775212
1.38010443
1.380703174
1.380820698
1.380434196
1.380226765
1.379992614
1.379475723
1.378470086
1.377680586
1.377168056
1.377052594
1.377483157
1.378351597
1.380925628
1.382436875
1.38433219
1.384993308
1.384836041
1.384226359
1.383448129
1.382949371
1.382572788
1.381808401
1.381586936
1.381805003
1.381318371
1.381340142
1.379649988
1.379076274
1.378685558
1.378224703
1.378003992
1.37846132
1.379426372
1.380094282
1.380357202
1.379783458
1.379276667
1.378892467
1.378593096
1.378287569
1.37742729
1.377230702
1.377832316
1.379139497
1.380173219
1.381868989
1.384845158
1.384795331
1.385136951
1.385233841
1.384532579
1.38320787
1.382255753
1.381792384
1.381592616
1.381763374
1.381279762
1.381581391
1.38151037
1.379001184
1.378919797
1.378918548
1.37858303
1.378257468
1.378560743
1.379178747
1.379512174
1.379252324
1.378468377
1.378144144
1.378109783
1.378120981
1.378418706
1.377927939
1.377976914
1.378433833
1.379725757
1.382222294
1.383346747
1.385197535
1.384807354
1.384755381
1.384445512
1.383691145
1.382162297
1.380651755
1.380382333
1.380670133
1.380770776
1.380670839
1.380529029
1.38027008
1.378692998
1.37876544
1.378645927
1.378311695
1.37881905
1.379083092
1.378623029
1.377893841
1.377506548
1.377675698
1.377973996
1.378222207
1.378541613
1.3793684
1.379792489
1.380441081
1.381590031
1.383255961
1.384258134
1.384670771
1.3852069
1.384860174
1.383748306
1.381692624
1.379578536
1.378934921
1.379153807
1.379431612
1.379483983
1.379194416
1.379159527
1.378887555
1.378624
1.378798843
1.37885487
1.378514321
1.378451755
1.378299014
1.377411388
1.376946252
1.377025369
1.377497807
1.377996881
1.378571027
1.379386759
1.380136686
1.380959068
1.381791055
1.382903851
1.38278678
1.383447435
1.384602325
1.383956387
1.382892181
1.38059794
1.378767774
1.378001204
1.378334481
1.378731905
1.378824887
1.378831348
1.378416317
1.378579183
1.378632035
1.378934199
1.378930681
1.378747272
1.378149661
1.377703655
1.377242786
1.376613846
1.376659347
1.376939866
1.377500457
1.378084011
1.378821903
1.379877076
1.380212893
1.380789135
1.381143172
1.381745194
1.382302523
1.381994887
1.381886051
1.380696943
1.379149889
1.37791199
1.377888876
1.378188427
1.378482427
1.378815583
1.379029448
1.37891074
1.378510172
1.378689117
1.378827766
1.378933562
1.378788675
1.378195492
1.377275836
1.376699657
1.376546239
1.376522638
1.377017237
1.377241464
1.37773076
1.378212294
1.37879574
1.379584335
1.380117478
1.380316209
1.379979418
1.379567413
1.379260677
1.378600163
1.378160259
1.377870637
1.377728279
1.377973558
1.378210391
1.378751116
1.379049077
1.379341673
1.379310815
1.37923343
1.378914493
1.379158591
1.379334117
1.378331337
1.378031947
1.377590945
1.376638535
1.376124898
1.376145841
1.376619124
1.37759243
1.377725984
1.377825675
1.377937869
1.378351586
1.378669805
1.378567239
1.377955418
1.376915073
1.376137645
1.376284585
1.376974036
1.377424566
1.378018075
1.378348881
1.37861738
1.378905117
1.379512206
1.380074268
1.380160415
1.379752518
1.379809838
1.379629095
1.379989954
1.380479992
1.377092142
1.377103353
1.377220284
1.376366958
1.376011755
1.376558225
1.377621808
1.378721526
1.37852926
1.378062582
1.377750525
1.377623301
1.377183965
1.37668078
1.376134598
1.375574444
1.375299413
1.376068096
1.377306486
1.378235421
1.378814808
1.37925506
1.379427576
1.380507213
1.381172662
1.381070968
1.380816406
1.380334175
1.380699464
1.380775263
1.381173607
1.381793735
1.375382656
1.376196479
1.377234064
1.377209192
1.377140186
1.37791327
1.378861821
1.379577419
1.379121378
1.378340145
1.377841529
1.377223078
1.376908912
1.37668448
1.376330453
1.375928849
1.375722939
1.376715994
1.378144046
1.37938307
1.379860879
1.380572898
1.381669292
1.382589407
1.382122469
1.381355178
1.381013353
1.380668844
1.3811334
1.381399899
1.381677759
1.382103294
1.375591189
1.377038578
1.378224782
1.378378227
1.378247458
1.378589717
1.379246653
1.379837853
1.379349916
1.37815456
1.377700306
1.377475493
1.377034612
1.376870606
1.376672126
1.376493429
1.376463531
1.378376041
1.379777321
1.381020916
1.382328765
1.383397112
1.38367197
1.383192323
1.382340143
1.381128502
1.380658415
1.380720732
1.381243103
1.381629855
1.381796059
1.38199208
1.376242978
1.378031174
1.379079309
1.378681724
1.378189961
1.378255006
1.378790531
1.379204261
1.378646077
1.378052305
1.377824801
1.377693744
1.377675263
1.377882316
1.378163988
1.378416891
1.378715547
1.380479818
1.382530947
1.383919852
1.384558991
1.38441427
1.383835825
1.382740104
1.381261906
1.380116781
1.38016883
1.380810984
1.381184219
1.381342476
1.381251728
1.381161337
1.378529084
1.379466685
1.379462134
1.379266013
1.3794811
1.379810988
1.379847674
1.379337896
1.378826271
1.3788983
1.379154849
1.379423658
1.379759872
1.380080868
1.380309416
1.380498517
1.380690601
1.38105586
1.381340859
1.381459968
1.381434649
1.381332409
1.381197246
1.381073884
1.380998884
1.381105282
1.3815475
1.381697863
1.381729157
1.381617075
1.381629965
1.378197867
1.379967615
1.38107357
1.381939763
1.383134087
1.383533533
1.38306862
1.382106341
1.381379567
1.38123249
1.381260215
1.381216498
1.381198085
1.381437834
1.381435061
1.381383045
1.381386822
1.381524939
1.381903372
1.382261203
1.382381421
1.382439577
1.382482222
1.382503813
1.382415147
1.382369586
1.382393973
1.382435567
1.382508284
1.382516961
1.382521353
1.381436851
1.383934225
1.384288958
1.384805301
1.386151147
1.386603589
1.386143653
1.38512836
1.384284057
1.383647322
1.383104989
1.382258422
1.381431334
1.381468601
1.381738796
1.38222443
1.382642684
1.383141521
1.383778562
1.384378818
1.384630726
1.384655233
1.384597376
1.38437586
1.38414154
1.383942031
1.383757117
1.383605491
1.383576649
1.383506949
1.383419094
1.383471856
1.383653451
1.383486741
1.383944973
1.385481178
1.386477869
1.386630142
1.386329522
1.386182316
1.385968256
1.385380046
1.384206696
1.382860373
1.382203551
1.382080127
1.38232363
1.382665975
1.383272316
1.38398533
1.384803385
1.385276504
1.385352768
1.385239367
1.384998632
1.384970747
1.384921816
1.384796865
1.384638189
1.384619581
1.384560145
1.384505039
1.377798601
1.376456584
1.378802956
1.377487502
1.379402777
1.384334905
1.38620567
1.386489936
1.386215972
1.385660472
1.385092358
1.384395184
1.384008492
1.383571244
1.383345845
1.383211324
1.383238923
1.383533981
1.384040573
1.3847764
1.385422702
1.385539673
1.385416633
1.38519681
1.385268225
1.385462085
1.385461949
1.385443871
1.38546701
1.385373254
1.385340961
1.318222529
1.352283389
1.376602434
1.372516387
1.375891522
1.382466541
1.38642205
1.386124037
1.385400313
1.384984009
1.385176744
1.385696822
1.386409429
1.386277649
1.385802492
1.385026138
1.383770154
1.38318608
1.383320709
1.383872187
1.38470499
1.385173227
1.385258884
1.385228398
1.385324957
1.38586623
1.386196216
1.38626583
1.386251868
1.386034439
1.385846377
1.201262832
1.312692041
1.362950194
1.367753131
1.383025376
1.386856539
1.386113109
1.383937597
1.384577602
1.385264887
1.386480899
1.387149575
1.387779699
1.387707768
1.38735268
1.386339125
1.384610917
1.383750313
1.383814311
1.384274119
1.384927933
1.385353757
1.385381784
1.385351773
1.385440915
1.385867698
1.386300274
1.386458483
1.386421436
1.386272919
1.386180881
1.005906263
1.118278377
1.242020972
1.315169182
1.374662285
1.378089482
1.373643924
1.378612563
1.383595248
1.386513148
1.386968965
1.386419927
1.385414828
1.38527799
1.386031282
1.386110384
1.385323583
1.38478831
1.385073744
1.38566312
1.386015272
1.386011321
1.385672693
1.385520931
1.385686754
1.386143581
1.386549249
1.386673027
1.386618612
1.386494648
1.386391633
0.9155283301
0.9554751663
1.054008786
1.180416518
1.292606796
1.322505412
1.352197324
1.383701287
1.385054741
1.385576555
1.384260959
1.381076794
1.380572395
1.382228667
1.385420804
1.386220181
1.386416039
1.386442501
1.386845976
1.387006493
1.386939959
1.386665696
1.385859075
1.385690455
1.385936705
1.386423027
1.386752713
1.386878666
1.386833718
1.386697624
1.38656824
0.9044857509
0.9077403002
0.9253572493
0.9907578614
1.095457575
1.225136084
1.320848868
1.375236092
1.372982694
1.375490786
1.377854946
1.376886246
1.377987357
1.383322241
1.38747086
1.38794778
1.387431441
1.386963289
1.386937799
1.386919891
1.387005729
1.386717348
1.386093889
1.385788435
1.385800974
1.386061711
1.386377484
1.38661176
1.386619955
1.386528911
1.386560839
0.9044994661
0.9045603735
0.9054927544
0.9128861848
0.9418875932
1.029733078
1.142679933
1.270194825
1.312684098
1.361376525
1.377195144
1.379157915
1.385595651
1.390797411
1.390377054
1.388910749
1.386729831
1.384149434
1.383647318
1.384708471
1.386314217
1.386409174
1.386287362
1.385845853
1.385288985
1.385132555
1.385178018
1.385347112
1.385577539
1.385904431
1.386338361
0.9073481665
0.9057870608
0.9062902349
0.9066336877
0.9078799355
0.9211482203
0.9710094839
1.070936305
1.212358332
1.328508392
1.358104571
1.3705422
1.385642384
1.389784386
1.389047134
1.386315666
1.382971789
1.381897008
1.381912683
1.384211464
1.386397026
1.386505362
1.386254082
1.385664591
1.384865816
1.384415206
1.384426139
1.384525916
1.384816305
1.385316551
1.385939615
0.9140890096
0.9106689686
0.9108975156
0.9106711853
0.9092054195
0.9087311174
0.9128358404
0.9364623452
1.01557261
1.130154039
1.241613706
1.310838696
1.373192998
1.371352295
1.375895966
1.380570802
1.380275386
1.381221946
1.384475407
1.388016937
1.388165326
1.387310201
1.386418519
1.385549483
1.384902078
1.385130662
1.385419496
1.385476686
1.385292254
1.385050773
1.385372759
0.9182802851
0.9135761215
0.9133699204
0.9137507651
0.911645453
0.9099790385
0.9101099725
0.9110728723
0.9211818781
0.960459199
1.067105396
1.192721143
1.301581385
1.328621166
1.36469802
1.38502728
1.381838969
1.384085086
1.389780058
1.390943176
1.390180571
1.388253526
1.386622954
1.385926572
1.386181314
1.386628616
1.386513946
1.386269364
1.385697798
1.38502282
1.385109819
0.9278180505
0.9171406018
0.9150300718
0.9150355644
0.9125094009
0.9093571816
0.9100112476
0.9102862472
0.909880288
0.9127600206
0.9323388152
0.9978513497
1.105540384
1.235534466
1.3393517
1.36998313
1.370001268
1.379143087
1.388337345
1.388643036
1.387341469
1.387665909
1.387607275
1.387309065
1.387400132
1.387092393
1.386507731
1.385996699
1.385386453
1.384994842
1.385153047
0.9515900508
0.9393984307
0.929767864
0.9262801925
0.9194169566
0.9119080582
0.9118965635
0.9110670515
0.9095811946
0.9098001658
0.9112555349
0.9185270064
0.9495224157
1.03895907
1.159631622
1.265240769
1.315412588
1.362557998
1.372953312
1.376781968
1.382510265
1.387978601
1.387996874
1.387527586
1.386391781
1.38413129
1.383050627
1.383488234
1.384187564
1.384864486
1.385475439
0.9713027736
0.9622811485
0.9482737816
0.9444398588
0.9391646748
0.9280815142
0.9245450486
0.9217756004
0.9139059566
0.9115816973
0.9120904348
0.9120494841
0.9131257001
0.9275091804
0.9784619827
1.090413072
1.222730213
1.327824182
1.341421518
1.365575974
1.38778723
1.387667207
1.38593154
1.384429311
1.383757436
1.38194251
1.382084127
1.383311863
1.384410741
1.385042124
1.385524188
0.9901764741
0.9800081469
0.9603571824
0.956114311
0.9529644106
0.942799897
0.9366986694
0.9351377054
0.928685851
0.9220669448
0.9208640417
0.9172722733
0.9138750194
0.9144823723
0.9191583848
0.9446289014
1.022555915
1.139747038
1.254985479
1.341787983
1.379817411
1.370970752
1.375509448
1.380079382
1.381959549
1.383714419
1.385754649
1.386406234
1.385845201
1.385291263
1.38469621
1.01961606
1.010712961
0.9916744959
0.9789442204
0.9717186408
0.9576284018
0.9456595649
0.9440103552
0.9393362688
0.9297387502
0.9280831474
0.9258666215
0.9201285579
0.9189732933
0.9195035133
0.9195737742
0.9286123366
0.9666938265
1.068731342
1.181932379
1.291630658
1.328341414
1.372245912
1.381266995
1.384670223
1.389452115
1.390268414
1.388957468
1.386551588
1.384354638
1.383785037
1.046441545
1.036967685
1.018294782
1.002422351
0.9965470301
0.9864418004
0.9712069959
0.9631119288
0.9549203975
0.9393129742
0.9343958441
0.9321270844
0.9255633806
0.9216755719
0.9220929484
0.9206081929
0.9193053664
0.921348442
0.9414741033
1.000469346
1.112753516
1.250743152
1.349649073
1.363945779
1.37518841
1.386972723
1.387759298
1.383480009
1.383417177
1.383840577
1.384770958
1.074440824
1.06478565
1.046868495
1.02790355
1.02080953
1.010916044
0.9941381788
0.9855667797
0.9794467732
0.9661190733
0.9556856063
0.9499164118
0.939881353
0.9290207907
0.9263577539
0.9224306869
0.9185093876
0.9195485712
0.9214482758
0.9278666653
0.9606505923
1.051010405
1.177938254
1.263896732
1.324768341
1.370999203
1.367788316
1.37260641
1.379836976
1.383619478
1.386315153
1.10384943
1.093927873
1.077770595
1.056226706
1.044801497
1.033405166
1.01239876
1.00250141
0.9971000747
0.9854091611
0.9738491092
0.9697099125
0.962998181
0.9516506478
0.9448571098
0.9385256295
0.925610678
0.9224486179
0.922365351
0.9222691233
0.9235682131
0.939071012
0.9889902806
1.109987458
1.232048979
1.325548669
1.344357971
1.372734339
1.383818197
1.383191887
1.384952451
1.132486687
1.12004203
1.103838119
1.080286708
1.069723629
1.061376727
1.043829701
1.029536903
1.020622083
1.005773926
0.9891732075
0.9845227367
0.9785573469
0.9663078952
0.960082829
0.9563889022
0.9471279044
0.9393808909
0.9357717274
0.9279858922
0.9241569936
0.9250768647
0.9295723524
0.9595774731
1.03355689
1.153449758
1.273480389
1.35737932
1.371089895
1.369191947
1.376464468
1.165411745
1.152182281
1.137193491
1.112034755
1.097277963
1.086778824
1.067326012
1.050309582
1.042946184
1.032287222
1.01546871
1.006227813
0.998006744
0.9813979745
0.9720820571
0.9684475674
0.9611471341
0.9511367383
0.9487168572
0.9434072011
0.934455204
0.9313327664
0.9311985564
0.9311424824
0.9410298765
0.9863819969
1.087914267
1.215071582
1.2862413
1.331895387
1.371996167
1.19254933
1.178119294
1.164776708
1.14050284
1.12387
1.113808983
1.095395194
1.074509754
1.065940241
1.055649488
1.038437695
1.02876658
1.022194281
1.008492234
0.9952688404
0.9883395651
0.9788449281
0.9642268493
0.9589073949
0.9547056049
0.9452294192
0.9395905256
0.9382572165
0.9343508886
0.9333088553
0.9364971253
0.9605114635
1.022485398
1.144373711
1.267069615
1.351618272
1.225269095
1.206860663
1.193371505
1.168159525
1.14972401
1.140788597
1.125004112
1.102902083
1.091057234
1.079650947
1.058904023
1.04699755
1.04063592
1.028379818
1.014469901
1.00893987
1.002570829
0.9891574795
0.9795360134
0.9729888035
0.9605037053
0.9484692912
0.9459836679
0.9410710521
0.9354779075
0.9367012468
0.9384137941
0.9450070825
0.9836624261
1.067537939
1.188003783
1.260761975
1.23949172
1.225526984
1.200038137
1.175237361
1.163860358
1.148135009
1.124165106
1.113423088
1.105173329
1.087520149
1.072537427
1.064151453
1.050521535
1.032116285
1.026005737
1.020234955
1.007032413
0.9972092471
0.9928598649
0.9846663721
0.9722827823
0.9649566174
0.9583756395
0.9428365204
0.9386051637
0.9386550733
0.9383704138
0.9398160331
0.9571359849
1.014120771
1.291326029
1.266235566
1.253755232
1.232252831
1.205025703
1.192391439
1.178216814
1.152734501
1.138601627
1.12930122
1.110833256
1.09284711
1.085390656
1.075041128
1.056524658
1.04663431
1.039605856
1.024368114
1.011295542
1.007570612
1.001040283
0.9887176391
0.9825701579
0.9783809209
0.9674242017
0.956074647
0.9502845931
0.9420111169
0.9397054446
0.9409041809
0.9474073843
1.328704851
1.296841027
1.281998229
1.261536967
1.231369663
1.217643669
1.205540331
1.180950011
1.163218175
1.153776077
1.136469037
1.114376593
1.106087084
1.097302044
1.078945572
1.067692746
1.061889205
1.049563663
1.033577594
1.026440852
1.01901304
1.003136726
0.9956376428
0.9923163577
0.9845289975
0.972012088
0.9678229109
0.9616578001
0.9498282835
0.9452351658
0.9462040105
1.364788115
1.330712415
1.313497387
1.294419921
1.260944966
)
;

boundaryField
{
    inlet
    {
        type            calculated;
        value           nonuniform 0();
    }
    outlet
    {
        type            calculated;
        value           nonuniform 0();
    }
    bottom
    {
        type            calculated;
        value           nonuniform 0();
    }
    top
    {
        type            calculated;
        value           nonuniform 0();
    }
    obstacle
    {
        type            calculated;
        value           nonuniform 0();
    }
    defaultFaces
    {
        type            empty;
    }
    procBoundary28to21
    {
        type            processor;
        value           nonuniform List<scalar> 
19
(
1.375660897
1.37693768
1.377404826
1.376356054
1.374940862
1.374802003
1.374797871
1.374797871
1.375598813
1.376283604
1.376526946
1.376422431
1.375448233
1.374250284
1.374148561
1.374883037
1.374883037
1.375058781
1.376001885
)
;
    }
    procBoundary28to22
    {
        type            processor;
        value           nonuniform List<scalar> 
36
(
1.382146238
1.379258821
1.380423825
1.380190767
1.379390324
1.379528473
1.379604105
1.379971276
1.380095904
1.380157023
1.379885346
1.379553238
1.379550953
1.379885038
1.380555795
1.380946804
1.380805725
1.379534484
1.378658224
1.37759349
1.376963922
1.376272121
1.377177863
1.379229366
1.381635221
1.382572355
1.38289537
1.38289537
1.375357053
1.377977801
1.37955531
1.38039994
1.381009376
1.381571519
1.381966343
1.381966343
)
;
    }
    procBoundary28to23
    {
        type            processor;
        value           nonuniform List<scalar> 3(1.383100771 1.382311315 1.381677209);
    }
    procBoundary28to27
    {
        type            processor;
        value           nonuniform List<scalar> 
55
(
1.376652406
1.376371956
1.375933245
1.375377833
1.374784426
1.377261731
1.377261731
1.377111126
1.377148136
1.377552986
1.377572481
1.377257249
1.376534777
1.375618705
1.378209775
1.378209775
1.378041397
1.378299505
1.378117289
1.377529843
1.376483135
1.374737734
1.373917348
1.374045702
1.377314742
1.377314742
1.377111131
1.377276059
1.375219095
1.371745032
1.283225471
1.067499273
0.9323553104
0.9062289931
0.9043318914
0.9047417035
0.9104815732
0.9169414588
0.9197497854
0.9321478355
0.9557519489
0.9744804298
0.9985974204
1.030545002
1.060402336
1.091414668
1.123685948
1.157400744
1.19097244
1.222720755
1.25868691
1.291856289
1.324917264
1.360114824
1.391057985
)
;
    }
    procBoundary28to29
    {
        type            processor;
        value           nonuniform List<scalar> 
69
(
1.380807579
1.37923356
1.378037848
1.377810802
1.377511112
1.377519897
1.377519897
1.382007001