/*--------------------------------*- C++ -*----------------------------------*\
  =========                 |
  \\      /  F ield         | OpenFOAM: The Open Source CFD Toolbox
   \\    /   O peration     | Website:  https://openfoam.org
    \\  /    A nd           | Version:  7
     \\/     M anipulation  |
\*---------------------------------------------------------------------------*/
FoamFile
{
    version     2.0;
    format      ascii;
    class       volVectorField;
    location    "2.7";
    object      U;
}
// * * * * * * * * * * * * * * * * * * * * * * * * * * * * * * * * * * * * * //

dimensions      [0 1 -1 0 0 0 0];

internalField   nonuniform List<vector> 
138
(
(3 -4.47962019e-16 0)
(3 -4.365815588e-16 0)
(3 1.538860097e-15 0)
(3 1.491213478e-15 0)
(3 2.248954212e-15 0)
(3 4.791382526e-15 0)
(3 5.696503125e-15 0)
(3 5.884478125e-15 0)
(3 8.610860548e-15 0)
(3 7.830661898e-15 0)
(3 9.040368146e-15 0)
(3 1.061007582e-14 0)
(3 6.785548854e-15 0)
(3 6.415644442e-15 0)
(3 5.279211836e-15 0)
(3 3.922376972e-15 0)
(3 2.782731343e-16 0)
(3 4.887727942e-16 0)
(3 1.644460885e-15 0)
(3 1.281388023e-15 0)
(3 1.955455955e-15 0)
(3 2.514564587e-15 0)
(3 2.338962304e-15 0)
(3 3.252941432e-15 0)
(3 5.916751113e-15 0)
(3 6.643186353e-15 0)
(3 8.760664687e-15 0)
(3 1.224525532e-14 0)
(3 9.68094884e-15 0)
(3 8.906766643e-15 0)
(3 7.121022089e-15 0)
(3 2.364171596e-15 0)
(3 5.110212536e-16 0)
(3 1.429011831e-16 0)
(3 -4.169712108e-16 0)
(3 -1.924176268e-16 0)
(3 4.50432527e-16 0)
(3 -6.677007158e-16 0)
(3 -3.82300829e-15 0)
(3 -4.040009691e-15 0)
(3 -3.113813316e-15 0)
(3 -8.934033973e-16 0)
(3 1.417983914e-15 0)
(3 2.481370117e-15 0)
(3 2.782448039e-15 0)
(3 2.825731037e-15 0)
(3 2.865254513e-15 0)
(3 2.478530927e-15 0)
(3 -6.98913391e-16 0)
(3 -5.296523936e-16 0)
(3 3.946698084e-16 0)
(3 2.100963425e-15 0)
(3 3.168835414e-15 0)
(3 2.613665236e-15 0)
(3 1.974393356e-15 0)
(3 -1.217964935e-15 0)
(3 -1.447390961e-15 0)
(3 -2.801809417e-16 0)
(3 2.244273139e-15 0)
(3 2.426840959e-15 0)
(3 3.193340626e-15 0)
(3 3.17528051e-15 0)
(3 3.441665765e-15 0)
(3 3.29661317e-15 0)
(3 4.645099498e-17 0)
(3 1.922580435e-16 0)
(3 1.385460522e-16 0)
(3 3.621362636e-16 0)
(3 2.876215984e-16 0)
(3 4.593218022e-16 0)
(3 1.417679517e-15 0)
(3 3.490630555e-15 0)
(3 5.387671467e-15 0)
(3 9.324628437e-15 0)
(3 1.035504126e-14 0)
(3 1.164141347e-14 0)
(3 1.048593252e-14 0)
(3 9.101790742e-15 0)
(3 6.99741806e-15 0)
(3 5.122020436e-15 0)
(3 1.191587228e-15 0)
(3 1.208483593e-15 0)
(3 5.831037011e-16 0)
(3 6.655322108e-16 0)
(3 -1.520377967e-15 0)
(3 -1.06863315e-15 0)
(3 9.109841627e-16 0)
(3 4.664292824e-15 0)
(3 5.714764862e-15 0)
(3 7.941213104e-15 0)
(3 7.602471563e-15 0)
(3 1.030285582e-14 0)
(3 1.02913979e-14 0)
(3 8.225994346e-15 0)
(3 5.934531291e-15 0)
(3 5.382420488e-15 0)
(3 -3.687142089e-17 0)
(3 8.321710789e-16 0)
(3 1.887662873e-15 0)
(3 1.271143515e-15 0)
(3 1.250687227e-15 0)
(3 1.845954673e-15 0)
(3 2.309412258e-15 0)
(3 1.646020716e-15 0)
(3 -1.503577373e-15 0)
(3 -1.755680491e-15 0)
(3 -2.361082333e-15 0)
(3 -1.990514107e-15 0)
(3 5.503544536e-17 0)
(3 2.136697574e-16 0)
(3 -5.819688366e-16 0)
(3 7.515990321e-17 0)
(3 -1.760203172e-16 0)
(3 -6.260660383e-17 0)
(3 -1.025682809e-15 0)
(3 -1.369490484e-15 0)
(3 -7.413009189e-16 0)
(3 -4.15217303e-16 0)
(3 -1.366659134e-15 0)
(3 -1.365582191e-15 0)
(3 -3.375559537e-15 0)
(3 -6.004666085e-15 0)
(3 -7.292684342e-15 0)
(3 -8.977727284e-15 0)
(3 -9.932979191e-15 0)
(3 -8.152944151e-15 0)
(3 -6.953099735e-15 0)
(3 -3.900670017e-15 0)
(3 1.889047545e-17 0)
(3 -1.904966448e-17 0)
(3 -6.68175543e-16 0)
(3 -2.239329279e-15 0)
(3 -3.85049174e-15 0)
(3 -3.371197404e-15 0)
(3 -1.527720323e-15 0)
(3 1.386709125e-16 0)
(3 1.765065435e-15 0)
(3 6.591364187e-16 0)
)
;

boundaryField
{
    inlet
    {
        type            fixedValue;
        value           uniform (3 0 0);
    }
    outlet
    {
        type            inletOutlet;
        inletValue      nonuniform 0();
        value           nonuniform 0();
    }
    bottom
    {
        type            slip;
    }
    top
    {
        type            slip;
    }
    obstacle
    {
        type            slip;
    }
    defaultFaces
    {
        type            empty;
    }
    procBoundary0to1
    {
        type            processor;
        value           nonuniform List<vector> 8((3 4.528191203e-15 0) (3 1.513624028e-15 0) (3 1.174362863e-15 0) (3 2.916677961e-15 0) (3 5.021187636e-15 0) (3 6.035762099e-15 0) (3 1.152747124e-15 0) (3 -3.220165932e-15 0));
    }
    procBoundary0to6
    {
        type            processor;
        value           nonuniform List<vector> 
17
(
(3 -8.445733896e-16 0)
(3 -4.471107728e-15 0)
(3 -7.393207496e-15 0)
(3 -8.010411092e-15 0)
(3 -4.630684102e-15 0)
(3 -2.623322382e-15 0)
(3 3.621260799e-16 0)
(3 -2.574124211e-16 0)
(3 1.471081221e-15 0)
(3 8.82242919e-16 0)
(3 2.085843356e-16 0)
(3 -1.092196587e-15 0)
(3 -2.322459977e-16 0)
(3 6.282192355e-16 0)
(3 2.025028199e-15 0)
(3 -8.445733896e-16 0)
(3 1.670442757e-15 0)
)
;
    }
}


// ************************************************************************* //
