/*--------------------------------*- C++ -*----------------------------------*\
  =========                 |
  \\      /  F ield         | OpenFOAM: The Open Source CFD Toolbox
   \\    /   O peration     | Website:  https://openfoam.org
    \\  /    A nd           | Version:  7
     \\/     M anipulation  |
\*---------------------------------------------------------------------------*/
FoamFile
{
    version     2.0;
    format      ascii;
    class       volScalarField;
    location    "1";
    object      p;
}
// * * * * * * * * * * * * * * * * * * * * * * * * * * * * * * * * * * * * * //

dimensions      [1 -1 -2 0 0 0 0];

internalField   nonuniform List<scalar> 
22
(
0.8486302195
0.670008454
0.7206721688
0.8890600252
0.6779495926
0.7484852451
0.9324221145
0.6856145792
0.7858255483
0.9716673767
0.6942782541
0.825517842
1.002844953
0.70460204
0.8680669451
1.025920229
0.7170003693
0.9172356823
0.7309053484
0.964978361
0.7278277733
1.036742442
)
;

boundaryField
{
    inlet
    {
        type            fixedValue;
        value           nonuniform 0();
    }
    outlet
    {
        type            zeroGradient;
    }
    bottom
    {
        type            slip;
    }
    top
    {
        type            slip;
    }
    obstacle
    {
        type            zeroGradient;
    }
    defaultFaces
    {
        type            empty;
    }
    procBoundary15to9
    {
        type            processor;
        value           nonuniform List<scalar> 4(0.7906593008 0.6561967177 0.6972996506 0.6972996506);
    }
    procBoundary15to10
    {
        type            processor;
        value           nonuniform List<scalar> 3(0.9862392455 1.00170647 1.012351738);
    }
    procBoundary15to16
    {
        type            processor;
        value           nonuniform List<scalar> 7(1.0198254 1.018156809 1.020835351 1.035091111 1.035091111 1.042329732 1.050522277);
    }
    procBoundary15to21
    {
        type            processor;
        value           nonuniform List<scalar> 2(0.7311571321 1.017082625);
    }
}


// ************************************************************************* //
