/*--------------------------------*- C++ -*----------------------------------*\
  =========                 |
  \\      /  F ield         | OpenFOAM: The Open Source CFD Toolbox
   \\    /   O peration     | Website:  https://openfoam.org
    \\  /    A nd           | Version:  7
     \\/     M anipulation  |
\*---------------------------------------------------------------------------*/
FoamFile
{
    version     2.0;
    format      ascii;
    class       volVectorField;
    location    "4.1";
    object      U;
}
// * * * * * * * * * * * * * * * * * * * * * * * * * * * * * * * * * * * * * //

dimensions      [0 1 -1 0 0 0 0];

internalField   nonuniform List<vector> 
2222
(
(3 2.086700414e-15 0)
(3 9.648124598e-16 0)
(3 5.535513788e-16 0)
(3 -1.297805805e-15 0)
(3 -2.595430962e-15 0)
(3 -2.38251418e-15 0)
(3 -1.062504125e-15 0)
(3 1.08905634e-15 0)
(3 3.032042142e-15 0)
(3 3.681099243e-15 0)
(3 3.2764708e-15 0)
(3 2.309164594e-15 0)
(3 1.251939031e-15 0)
(3 9.624169875e-16 0)
(3 -1.584832529e-16 0)
(3 -1.862225735e-15 0)
(3 -1.989858415e-15 0)
(3 -1.066755931e-15 0)
(3 -1.21675952e-15 0)
(3 5.992070315e-16 0)
(3 5.057205172e-15 0)
(3 8.776846852e-15 0)
(3 1.140937162e-14 0)
(3 1.293934572e-14 0)
(3 1.833371203e-14 0)
(3 2.256734421e-14 0)
(3 2.423145724e-14 0)
(3 2.551219957e-14 0)
(3 2.255644892e-14 0)
(3 1.924198106e-14 0)
(3 1.851923394e-14 0)
(3 1.613961988e-14 0)
(3 1.182995226e-14 0)
(3 7.444584706e-15 0)
(3 6.081804296e-15 0)
(3 3.788340201e-15 0)
(3 1.386579872e-15 0)
(3 5.160130604e-15 0)
(3 5.874428939e-15 0)
(3 7.265417737e-17 0)
(3 -4.635949303e-15 0)
(3 -6.984524281e-15 0)
(3 -9.062187132e-15 0)
(3 -1.05526215e-14 0)
(3 -1.253036022e-14 0)
(3 -1.402161006e-14 0)
(3 -1.011397419e-15 0)
(3 -3.208624667e-15 0)
(3 -4.220618957e-15 0)
(3 -4.651855098e-15 0)
(3 -5.442824884e-15 0)
(3 -5.653205713e-15 0)
(3 -6.10001631e-15 0)
(3 -7.674973186e-15 0)
(3 -7.557993225e-15 0)
(3 -8.685269323e-15 0)
(3 -9.886596903e-15 0)
(3 -6.602907261e-15 0)
(3 -2.269332253e-16 0)
(3 1.574673031e-15 0)
(3 3.815396374e-15 0)
(3 7.205282948e-15 0)
(3 1.056230819e-14 0)
(3 1.197252251e-14 0)
(3 1.468999308e-14 0)
(3 1.198358101e-14 0)
(3 8.165618353e-15 0)
(3 5.200940058e-15 0)
(3 3.896757693e-15 0)
(3 8.023773237e-16 0)
(3 -2.399869496e-15 0)
(3 -2.727285767e-15 0)
(3 -3.745394034e-15 0)
(3 -4.651231776e-15 0)
(3 -6.162927842e-15 0)
(3 -1.013705692e-14 0)
(3 -1.49352339e-14 0)
(3 -1.731243792e-14 0)
(3 -1.738729581e-14 0)
(3 -1.565230103e-14 0)
(3 -1.286394572e-14 0)
(3 -1.281732397e-14 0)
(3 -1.697647866e-14 0)
(3 -1.944063116e-14 0)
(3 -1.769644051e-14 0)
(3 -1.559836879e-14 0)
(3 -1.335112081e-14 0)
(3 -1.292381809e-14 0)
(3 -1.107256475e-14 0)
(3 -1.16972235e-14 0)
(3 -1.140071359e-14 0)
(3 -1.146889704e-14 0)
(3 -1.116614941e-14 0)
(3 -1.029745504e-14 0)
(3 -8.673557044e-15 0)
(3 -8.060367241e-15 0)
(3 -8.261868653e-15 0)
(3 -8.461926859e-15 0)
(3 -8.369689665e-15 0)
(3 -6.240460927e-15 0)
(3 -3.509558938e-15 0)
(3 -2.83071695e-15 0)
(3 -3.946052049e-15 0)
(3 -4.418168385e-15 0)
(3 -5.365466112e-15 0)
(3 -5.224483216e-15 0)
(3 -3.662700817e-15 0)
(3 5.139544539e-16 0)
(3 3.711173575e-15 0)
(3 3.529322596e-15 0)
(3 2.241611428e-15 0)
(3 -5.5556386e-15 0)
(3 -7.596301706e-15 0)
(3 -9.130588392e-15 0)
(3 -9.48503738e-15 0)
(3 -9.845761814e-15 0)
(3 -1.137516676e-14 0)
(3 -1.251227016e-14 0)
(3 -1.36220311e-14 0)
(3 -1.497358941e-14 0)
(3 -1.701789677e-14 0)
(3 -1.819251768e-14 0)
(3 -1.454188936e-14 0)
(3 -1.24860556e-14 0)
(3 -8.167754657e-15 0)
(3 -5.041282461e-15 0)
(3 -5.301595484e-15 0)
(3 -4.176706804e-15 0)
(3 -2.896885343e-15 0)
(3 -7.925937811e-16 0)
(3 6.709556284e-17 0)
(3 -2.031153942e-15 0)
(3 -4.970313621e-15 0)
(3 -8.697351537e-15 0)
(3 -9.659314858e-15 0)
(3 -1.188374475e-14 0)
(3 -1.227843776e-14 0)
(3 -1.314032114e-14 0)
(3 -1.372649962e-14 0)
(3 -1.646403257e-14 0)
(3 -1.921165357e-14 0)
(3 -2.531189535e-14 0)
(3 -2.660984222e-14 0)
(3 -2.615905171e-14 0)
(3 -2.415316265e-14 0)
(3 -2.082529758e-14 0)
(3 -1.787611467e-14 0)
(3 -1.678199551e-14 0)
(3 -1.676628938e-14 0)
(3 -1.648379658e-14 0)
(3 -1.369809331e-14 0)
(3 -1.232126303e-14 0)
(3 -1.084739872e-14 0)
(3 -1.0015679e-14 0)
(3 -7.346412894e-15 0)
(3 -6.682257537e-15 0)
(3 -6.39623464e-15 0)
(3 -6.471502605e-15 0)
(3 -5.485486289e-15 0)
(3 -5.268254014e-15 0)
(3 -8.421432477e-15 0)
(3 -1.208734231e-14 0)
(3 -1.271335704e-14 0)
(3 -1.267404991e-14 0)
(3 -1.261690914e-14 0)
(3 -1.393634777e-14 0)
(3 -1.135948655e-14 0)
(3 -3.573819566e-15 0)
(3 1.748606499e-15 0)
(3 1.887238228e-15 0)
(3 2.017960296e-15 0)
(3 1.361230989e-15 0)
(3 2.734297911e-15 0)
(3 5.041503546e-15 0)
(3 5.706406621e-15 0)
(3 6.267138694e-15 0)
(3 5.561321705e-15 0)
(3 4.154560385e-15 0)
(3 1.859609418e-15 0)
(3 -1.647694786e-15 0)
(3 -5.299868529e-15 0)
(3 -7.984712317e-15 0)
(3 -8.245263789e-15 0)
(3 -8.636817108e-15 0)
(3 -1.463267072e-14 0)
(3 -1.803093634e-14 0)
(3 -2.001913058e-14 0)
(3 -2.116625468e-14 0)
(3 -2.17082903e-14 0)
(3 -2.15101237e-14 0)
(3 -2.065920277e-14 0)
(3 -1.683216293e-14 0)
(3 -1.434477115e-14 0)
(3 -1.506888723e-14 0)
(3 -1.677582431e-14 0)
(3 -1.603075566e-14 0)
(3 -1.490476683e-14 0)
(3 -1.231082425e-14 0)
(3 -1.234209907e-14 0)
(3 -1.424174445e-14 0)
(3 -1.59768328e-14 0)
(3 -1.574076731e-14 0)
(3 -1.561267143e-14 0)
(3 -1.595555246e-14 0)
(3 -1.779774102e-14 0)
(3 -2.045667436e-14 0)
(3 -2.185271231e-14 0)
(3 -2.512112814e-14 0)
(3 -2.809844125e-14 0)
(3 -2.876174074e-14 0)
(3 -2.841180204e-14 0)
(3 -2.539368748e-14 0)
(3 -2.340805452e-14 0)
(3 -2.143294085e-14 0)
(3 -1.861414989e-14 0)
(3 -1.517778658e-14 0)
(3 -1.512945246e-14 0)
(3 -1.53353583e-14 0)
(3 -1.393552028e-14 0)
(3 -1.162860189e-14 0)
(3 -1.09746086e-14 0)
(3 -8.400271596e-15 0)
(3 -6.13135951e-15 0)
(3 -5.369943764e-15 0)
(3 -4.785465378e-15 0)
(3 -5.132302488e-15 0)
(3 -6.326730667e-15 0)
(3 -8.376246476e-15 0)
(3 -9.136144912e-15 0)
(3 -1.077395897e-14 0)
(3 -1.097974339e-14 0)
(3 -1.178786104e-14 0)
(3 -1.165876895e-14 0)
(3 -1.097329033e-14 0)
(3 -9.071080116e-15 0)
(3 -6.431436625e-15 0)
(3 -3.053904459e-15 0)
(3 -6.284897889e-16 0)
(3 2.673635225e-15 0)
(3 2.912260921e-15 0)
(3 3.252031552e-15 0)
(3 5.113211311e-15 0)
(3 6.677579849e-15 0)
(3 6.12146255e-15 0)
(3 5.305001186e-15 0)
(3 9.370311851e-15 0)
(3 1.243778171e-15 0)
(3 -5.684382639e-15 0)
(3 -1.350523491e-14 0)
(3 -1.815370677e-14 0)
(3 -1.855061218e-14 0)
(3 -2.018727268e-14 0)
(3 -2.2035215e-14 0)
(3 -2.394462357e-14 0)
(3 -2.584023605e-14 0)
(3 -2.557212609e-14 0)
(3 -2.453374893e-14 0)
(3 -2.403828479e-14 0)
(3 -2.397037282e-14 0)
(3 -2.392550051e-14 0)
(3 -2.217779147e-14 0)
(3 -2.081913586e-14 0)
(3 -2.041752021e-14 0)
(3 -1.942443354e-14 0)
(3 -1.90991186e-14 0)
(3 -2.193302386e-14 0)
(3 -2.058029003e-14 0)
(3 -2.004035914e-14 0)
(3 -1.820962179e-14 0)
(3 -1.810920241e-14 0)
(3 -1.812080165e-14 0)
(3 -1.912465697e-14 0)
(3 -2.097842062e-14 0)
(3 -2.414245395e-14 0)
(3 -2.545863126e-14 0)
(3 -2.489258662e-14 0)
(3 -2.55448143e-14 0)
(3 -2.619051635e-14 0)
(3 -2.416133301e-14 0)
(3 -2.087292871e-14 0)
(3 -1.714512872e-14 0)
(3 -1.543777724e-14 0)
(3 -1.686819537e-14 0)
(3 -1.656137669e-14 0)
(3 -1.57151372e-14 0)
(3 -1.340126994e-14 0)
(3 -9.922402689e-15 0)
(3 -6.657661408e-15 0)
(3 -5.644208561e-15 0)
(3 -4.653759941e-15 0)
(3 -4.146053952e-15 0)
(3 -4.038233679e-15 0)
(3 -4.048230155e-15 0)
(3 -4.901743736e-15 0)
(3 -5.045888442e-15 0)
(3 -5.102171015e-15 0)
(3 -4.795072622e-15 0)
(3 -3.91319072e-15 0)
(3 -4.214975457e-15 0)
(3 -6.100116691e-15 0)
(3 -5.705967324e-15 0)
(3 -4.605401638e-15 0)
(3 -3.201049248e-15 0)
(3 -1.875522535e-15 0)
(3 -1.134202648e-15 0)
(3 -7.400129307e-16 0)
(3 -2.215074584e-16 0)
(3 8.420770293e-16 0)
(3 2.291226692e-15 0)
(3 2.717454068e-15 0)
(3 3.40628772e-15 0)
(3 7.825178575e-15 0)
(3 6.42773232e-15 0)
(3 4.771876624e-15 0)
(3 9.310063089e-16 0)
(3 -4.548216448e-15 0)
(3 -6.898070823e-15 0)
(3 -9.792615747e-15 0)
(3 -9.283754022e-15 0)
(3 -1.21710198e-14 0)
(3 -1.702276359e-14 0)
(3 -2.101658768e-14 0)
(3 -2.195509216e-14 0)
(3 -2.144854514e-14 0)
(3 -1.93978667e-14 0)
(3 -1.791077578e-14 0)
(3 -1.800760101e-14 0)
(3 -1.836803902e-14 0)
(3 -1.952570247e-14 0)
(3 -2.068122202e-14 0)
(3 -2.331516189e-14 0)
(3 -2.753791265e-14 0)
(3 -2.534582821e-14 0)
(3 -2.273725718e-14 0)
(3 -2.166825762e-14 0)
(3 -2.219506568e-14 0)
(3 -2.254202227e-14 0)
(3 -2.191180782e-14 0)
(3 -2.093937364e-14 0)
(3 -2.0209456e-14 0)
(3 -2.078684204e-14 0)
(3 -2.076048342e-14 0)
(3 -1.949541983e-14 0)
(3 -1.985340985e-14 0)
(3 -2.155381544e-14 0)
(3 -2.158190071e-14 0)
(3 -2.150681012e-14 0)
(3 -1.75923102e-14 0)
(3 -1.553335196e-14 0)
(3 -1.372311736e-14 0)
(3 -1.310825296e-14 0)
(3 -9.261571368e-15 0)
(3 -5.503856038e-15 0)
(3 -3.542801657e-15 0)
(3 -3.093187172e-15 0)
(3 -1.077537241e-15 0)
(3 -9.4916252e-16 0)
(3 -1.187574081e-15 0)
(3 -1.071605371e-15 0)
(3 -7.724743762e-16 0)
(3 -7.373746873e-16 0)
(3 5.574600118e-17 0)
(3 1.310711342e-15 0)
(3 3.768294687e-15 0)
(3 4.205007253e-15 0)
(3 1.581112232e-15 0)
(3 -2.339129394e-16 0)
(3 -1.677812003e-15 0)
(3 -1.786035416e-15 0)
(3 1.72743273e-16 0)
(3 5.296848185e-16 0)
(3 -6.73122201e-16 0)
(3 -1.183452377e-15 0)
(3 -1.219042744e-15 0)
(3 2.023648613e-15 0)
(3 5.149298422e-15 0)
(3 5.450621492e-15 0)
(3 7.202214326e-15 0)
(3 1.912439751e-12 0)
(3 6.590624865e-15 0)
(3 3.107747453e-15 0)
(3 1.381565842e-15 0)
(3 7.928495499e-16 0)
(3 -1.753710686e-16 0)
(3 -8.817959556e-16 0)
(3 -5.241753909e-16 0)
(3 -3.334248116e-15 0)
(3 -4.834566145e-15 0)
(3 -5.136422624e-15 0)
(3 -9.363189159e-15 0)
(3 -1.071607268e-14 0)
(3 -1.115956753e-14 0)
(3 -1.187895571e-14 0)
(3 -1.261867095e-14 0)
(3 -1.404491871e-14 0)
(3 -1.5410923e-14 0)
(3 -1.805312558e-14 0)
(3 -2.254590643e-14 0)
(3 -2.561699161e-14 0)
(3 -2.531920199e-14 0)
(3 -2.509726678e-14 0)
(3 -2.601857841e-14 0)
(3 -2.654034908e-14 0)
(3 -2.664890588e-14 0)
(3 -2.644982317e-14 0)
(3 -2.41643914e-14 0)
(3 -2.124837004e-14 0)
(3 -1.796869402e-14 0)
(3 -1.432290073e-14 0)
(3 -1.425068272e-14 0)
(3 -1.237186621e-14 0)
(3 -8.858961092e-15 0)
(3 -9.112298575e-15 0)
(3 -9.27435986e-15 0)
(3 -7.72966373e-15 0)
(3 -7.244238453e-15 0)
(3 -5.759969204e-15 0)
(3 -2.961774186e-15 0)
(3 2.358335489e-15 0)
(3 4.399426146e-15 0)
(3 4.786527444e-15 0)
(3 3.882671631e-15 0)
(3 3.08690757e-15 0)
(3 2.28537446e-15 0)
(3 1.387750662e-15 0)
(3 6.759953509e-16 0)
(3 6.819921548e-16 0)
(3 1.843928876e-15 0)
(3 3.997199205e-15 0)
(3 5.742907515e-15 0)
(3 6.157642733e-15 0)
(3 5.244146651e-15 0)
(3 4.106988806e-15 0)
(3 2.429531401e-15 0)
(3 5.473388598e-16 0)
(3 3.887002348e-16 0)
(3 1.239742867e-15 0)
(3 1.094533192e-15 0)
(3 7.31738551e-16 0)
(3 5.096061989e-16 0)
(3 4.277486109e-16 0)
(3 4.599513654e-15 0)
(3 8.486661144e-15 0)
(3 1.214134804e-14 0)
(3 -5.684397419e-14 0)
(3 2.688518206e-10 0)
(3 7.989528497e-15 0)
(3 3.462352931e-15 0)
(3 2.637762203e-15 0)
(3 3.599561125e-15 0)
(3 4.105778052e-15 0)
(3 3.78885494e-15 0)
(3 4.896823951e-15 0)
(3 2.518167585e-15 0)
(3 1.838251108e-15 0)
(3 3.59135076e-15 0)
(3 2.429161631e-15 0)
(3 1.284886385e-15 0)
(3 -1.403424028e-15 0)
(3 -4.165670558e-15 0)
(3 -7.678427712e-15 0)
(3 -1.000229336e-14 0)
(3 -1.031531818e-14 0)
(3 -1.382541735e-14 0)
(3 -1.907416722e-14 0)
(3 -2.213368181e-14 0)
(3 -2.267145248e-14 0)
(3 -2.13061819e-14 0)
(3 -1.900817737e-14 0)
(3 -1.70322791e-14 0)
(3 -1.761812498e-14 0)
(3 -1.551591515e-14 0)
(3 -1.471920959e-14 0)
(3 -1.335077553e-14 0)
(3 -1.255897551e-14 0)
(3 -9.013773998e-15 0)
(3 -3.608116102e-15 0)
(3 1.004225827e-15 0)
(3 3.825998194e-15 0)
(3 1.94154083e-15 0)
(3 -2.795736505e-16 0)
(3 -4.559481185e-15 0)
(3 -7.680035378e-15 0)
(3 -7.37046319e-15 0)
(3 -5.393474596e-15 0)
(3 -3.033679361e-15 0)
(3 4.602999502e-16 0)
(3 1.992765685e-15 0)
(3 2.714966832e-15 0)
(3 1.863967977e-15 0)
(3 2.446976188e-15 0)
(3 3.173502426e-15 0)
(3 3.949303422e-15 0)
(3 6.551990716e-15 0)
(3 8.613171529e-15 0)
(3 8.647119307e-15 0)
(3 8.492108244e-15 0)
(3 8.422509201e-15 0)
(3 7.662447786e-15 0)
(3 6.488875943e-15 0)
(3 6.304592418e-15 0)
(3 4.673934095e-15 0)
(3 3.097497805e-15 0)
(3 1.792425394e-15 0)
(3 5.860898751e-15 0)
(3 5.638548184e-15 0)
(3 5.268661784e-15 0)
(3 4.79699919e-15 0)
(3 1.612456207e-14 0)
(3 -1.754989782e-13 0)
(3 5.335419491e-14 0)
(3 -2.606239685e-10 0)
(3.000000006 7.270016871e-09 0)
(3 1.254516956e-14 0)
(3 1.165757657e-14 0)
(3 1.173346556e-14 0)
(3 1.158223378e-14 0)
(3 1.042895243e-14 0)
(3 1.098914968e-14 0)
(3 1.151472935e-14 0)
(3 1.132968232e-14 0)
(3 1.177805075e-14 0)
(3 8.319894116e-15 0)
(3 7.730196645e-15 0)
(3 6.705077116e-15 0)
(3 3.411139722e-15 0)
(3 -1.488944231e-16 0)
(3 -3.220138419e-15 0)
(3 -6.172243376e-15 0)
(3 -7.984101184e-15 0)
(3 -1.189631661e-14 0)
(3 -1.536666189e-14 0)
(3 -1.757158269e-14 0)
(3 -2.056147711e-14 0)
(3 -2.369780312e-14 0)
(3 -2.156185573e-14 0)
(3 -1.435069097e-14 0)
(3 -1.026416694e-14 0)
(3 -1.055663618e-14 0)
(3 -1.018513125e-14 0)
(3 -6.031933504e-15 0)
(3 -4.152925986e-15 0)
(3 -2.966064857e-15 0)
(3 4.690914246e-16 0)
(3 1.736387849e-15 0)
(3 3.064290641e-15 0)
(3 4.470518325e-15 0)
(3 4.921636749e-15 0)
(3 3.033095396e-15 0)
(3 2.003261084e-15 0)
(3 5.913392144e-16 0)
(3 -1.639928598e-15 0)
(3 -2.399424465e-15 0)
(3 -2.263000654e-15 0)
(3 -2.927465785e-15 0)
(3 -4.449028114e-15 0)
(3 -5.163624186e-15 0)
(3 -2.376092955e-15 0)
(3 8.117170557e-16 0)
(3 4.625575774e-15 0)
(3 6.523660604e-15 0)
(3 7.416124413e-15 0)
(3 8.366131929e-15 0)
(3 1.031960399e-14 0)
(3 1.282773312e-14 0)
(3 1.305428653e-14 0)
(3 1.331345223e-14 0)
(3 1.247500329e-14 0)
(3 9.574152601e-15 0)
(3 7.675678238e-15 0)
(3 3.474256268e-15 0)
(3 5.69442197e-14 0)
(3 -3.602451008e-13 0)
(3 -2.354280362e-13 0)
(3 -1.279965181e-11 0)
(3 -1.072963503e-10 0)
(2.999999999 -1.074481774e-09 0)
(2.999999997 -5.276933106e-09 0)
(2.999999884 -2.166940044e-07 0)
(3.000000053 4.198657786e-08 0)
(3 1.83950739e-14 0)
(3 2.041528863e-14 0)
(3 2.380009729e-14 0)
(3 2.386690067e-14 0)
(3 2.162204919e-14 0)
(3 1.982049359e-14 0)
(3 1.823126011e-14 0)
(3 1.641387415e-14 0)
(3 1.719999063e-14 0)
(3 1.429879067e-14 0)
(3 1.237308223e-14 0)
(3 9.246194498e-15 0)
(3 6.848291708e-15 0)
(3 3.500284224e-15 0)
(3 2.515129757e-15 0)
(3 -5.79168831e-17 0)
(3 -2.109362903e-15 0)
(3 -3.061784119e-15 0)
(3 -4.94476228e-15 0)
(3 -4.700947786e-15 0)
(3 -5.983874038e-15 0)
(3 -6.337279809e-15 0)
(3 -4.231889807e-15 0)
(3 9.44079406e-16 0)
(3 4.630334746e-15 0)
(3 6.021390051e-15 0)
(3 7.358259887e-15 0)
(3 8.934298546e-15 0)
(3 8.844550952e-15 0)
(3 8.730019909e-15 0)
(3 8.732526605e-15 0)
(3 8.089367829e-15 0)
(3 6.024113206e-15 0)
(3 6.59040623e-15 0)
(3 6.92806033e-15 0)
(3 6.726598321e-15 0)
(3 7.427254624e-15 0)
(3 7.230913024e-15 0)
(3 6.620062746e-15 0)
(3 5.643144546e-15 0)
(3 1.824226641e-15 0)
(3 -3.864336281e-15 0)
(3 -6.406320463e-15 0)
(3 -3.936494987e-15 0)
(3 -1.842869018e-15 0)
(3 2.796924481e-15 0)
(3 4.956212741e-15 0)
(3 6.266827685e-15 0)
(3 8.366978497e-15 0)
(3 1.263204742e-14 0)
(3 1.599032868e-14 0)
(3 1.782709193e-14 0)
(3 1.727500205e-14 0)
(3 2.384062624e-14 0)
(3 -6.929724911e-14 0)
(3 3.554616184e-13 0)
(3 -3.151565082e-12 0)
(3 -2.186500947e-11 0)
(3 -2.674819803e-10 0)
(2.999999999 -1.824797626e-09 0)
(2.999999992 -1.24324154e-08 0)
(2.999999958 -6.771562419e-08 0)
(2.999999803 -3.305206567e-07 0)
(2.999999097 -1.521893803e-06 0)
(2.999996961 -5.256398547e-06 0)
(2.99997846 -4.099660037e-05 0)
(2.999990288 -1.251072111e-05 0)
(3 1.73445882e-14 0)
(3 2.114461039e-14 0)
(3 2.469901655e-14 0)
(3 2.496804264e-14 0)
(3 2.500790294e-14 0)
(3 2.499749507e-14 0)
(3 2.172808787e-14 0)
(3 1.949222215e-14 0)
(3 1.293022247e-14 0)
(3 1.005655556e-14 0)
(3 9.105630933e-15 0)
(3 8.951224799e-15 0)
(3 8.353516569e-15 0)
(3 8.324224552e-15 0)
(3 6.218574196e-15 0)
(3 4.936197329e-15 0)
(3 4.696801782e-15 0)
(3 6.24723428e-15 0)
(3 6.857814889e-15 0)
(3 9.630987452e-15 0)
(3 8.971871424e-15 0)
(3 1.071489191e-14 0)
(3 1.100450429e-14 0)
(3 1.140070035e-14 0)
(3 1.394320264e-14 0)
(3 1.965422299e-14 0)
(3 1.949730191e-14 0)
(3 1.774683141e-14 0)
(3 1.610125576e-14 0)
(3 1.639785452e-14 0)
(3 1.789873384e-14 0)
(3 1.832360902e-14 0)
(3 1.802270168e-14 0)
(3 1.718278636e-14 0)
(3 1.634078857e-14 0)
(3 1.655369868e-14 0)
(3 1.68817966e-14 0)
(3 1.712306e-14 0)
(3 1.613407532e-14 0)
(3 1.275945263e-14 0)
(3 5.831061725e-15 0)
(3 1.739565721e-15 0)
(3 3.085969814e-15 0)
(3 3.493430398e-15 0)
(3 6.986959133e-15 0)
(3 7.836258976e-15 0)
(3 8.10338131e-15 0)
(3 8.538653424e-15 0)
(3 1.173683341e-14 0)
(3 -1.341865191e-14 0)
(3 1.990047824e-13 0)
(3 -8.307699321e-13 0)
(3 -3.766027486e-12 0)
(3 -6.804364787e-11 0)
(3 -5.059859379e-10 0)
(2.999999998 -3.92012161e-09 0)
(2.999999986 -2.223656864e-08 0)
(2.999999925 -1.255800868e-07 0)
(2.999999665 -5.522302594e-07 0)
(2.999998542 -2.524562271e-06 0)
(2.999994904 -8.770699443e-06 0)
(2.999981794 -3.255818828e-05 0)
(2.99994906 -9.236421465e-05 0)
(2.999845962 -0.0002886249647 0)
(2.999663915 -0.0006365864078 0)
(2.998993909 -0.002039076891 0)
(2.998685272 -0.002558904011 0)
(3 1.863341476e-14 0)
(3 2.045389005e-14 0)
(3 2.089141044e-14 0)
(3 2.091106167e-14 0)
(3 2.165637341e-14 0)
(3 2.121204495e-14 0)
(3 2.063968594e-14 0)
(3 1.949400039e-14 0)
(3 1.539100103e-14 0)
(3 1.196680477e-14 0)
(3 1.017880967e-14 0)
(3 1.130006816e-14 0)
(3 1.066532882e-14 0)
(3 8.895081085e-15 0)
(3 7.18041118e-15 0)
(3 5.261061943e-15 0)
(3 5.643101874e-15 0)
(3 7.187745822e-15 0)
(3 9.407661808e-15 0)
(3 1.090792541e-14 0)
(3 9.186816788e-15 0)
(3 9.519450433e-15 0)
(3 1.180482779e-14 0)
(3 1.459774672e-14 0)
(3 1.782846692e-14 0)
(3 1.865733874e-14 0)
(3 1.71847292e-14 0)
(3 1.64765204e-14 0)
(3 1.696545875e-14 0)
(3 1.876066104e-14 0)
(3 2.209994283e-14 0)
(3 2.487947974e-14 0)
(3 2.383398533e-14 0)
(3 2.102811533e-14 0)
(3 1.907871526e-14 0)
(3 1.940516328e-14 0)
(3 1.764824104e-14 0)
(3 1.717599106e-14 0)
(3 1.607116257e-14 0)
(3 1.22763245e-14 0)
(3 8.146961955e-15 0)
(3 7.627062763e-15 0)
(3 9.887167135e-15 0)
(3 1.069647463e-14 0)
(3 1.453177075e-14 0)
(3 -3.374586447e-14 0)
(3 9.976881495e-14 0)
(3 -1.07209317e-12 0)
(3 -1.343811923e-11 0)
(3 -1.457158151e-10 0)
(2.999999999 -1.135817563e-09 0)
(2.999999995 -7.596582297e-09 0)
(2.999999973 -4.3711519e-08 0)
(2.999999867 -2.199735831e-07 0)
(2.999999414 -9.888200239e-07 0)
(2.999997651 -4.029103876e-06 0)
(2.999991768 -1.449764548e-05 0)
(2.999973491 -4.721748233e-05 0)
(2.999921979 -0.0001443475297 0)
(2.999792411 -0.0003851648606 0)
(2.99950674 -0.0009540109404 0)
(2.998867812 -0.002212259951 0)
(2.997831702 -0.004386920584 0)
(2.995528012 -0.009266481553 0)
(2.993099002 -0.01473984109 0)
(2.987160851 -0.02845273293 0)
(2.984385426 -0.03451434326 0)
(3 1.576943631e-14 0)
(3 1.670307314e-14 0)
(3 1.702372658e-14 0)
(3 1.770144915e-14 0)
(3 1.843112126e-14 0)
(3 1.899869099e-14 0)
(3 1.90981283e-14 0)
(3 1.83674939e-14 0)
(3 1.794004408e-14 0)
(3 1.7491731e-14 0)
(3 1.551859342e-14 0)
(3 1.411467879e-14 0)
(3 1.439029037e-14 0)
(3 1.762555674e-14 0)
(3 1.996273453e-14 0)
(3 1.923433981e-14 0)
(3 1.83918011e-14 0)
(3 1.78723297e-14 0)
(3 1.743568596e-14 0)
(3 1.732201885e-14 0)
(3 1.862383831e-14 0)
(3 1.938745676e-14 0)
(3 1.969449065e-14 0)
(3 2.179560573e-14 0)
(3 2.506499398e-14 0)
(3 2.548848282e-14 0)
(3 2.500104775e-14 0)
(3 2.552983419e-14 0)
(3 2.526679645e-14 0)
(3 2.413850552e-14 0)
(3 2.314594372e-14 0)
(3 2.188496942e-14 0)
(3 2.034869855e-14 0)
(3 1.859745306e-14 0)
(3 1.910165201e-14 0)
(3 1.773518369e-14 0)
(3 1.342638789e-14 0)
(3 1.433507828e-14 0)
(3 1.082967059e-14 0)
(3 1.028579854e-14 0)
(3 -8.111085996e-15 0)
(3 1.365512681e-13 0)
(3 -5.693323845e-13 0)
(3 -1.965593611e-12 0)
(3 -3.948918888e-11 0)
(3 -3.148766195e-10 0)
(2.999999998 -2.522854602e-09 0)
(2.999999991 -1.483061475e-08 0)
(2.999999949 -8.412219074e-08 0)
(2.99999976 -3.944557903e-07 0)
(2.999998978 -1.755282373e-06 0)
(2.99999618 -6.53039105e-06 0)
(2.999986767 -2.360545593e-05 0)
(2.999959607 -7.253618235e-05 0)
(2.999886233 -0.0002118779082 0)
(2.999708717 -0.000543514684 0)
(2.999321341 -0.001332255985 0)
(2.998506736 -0.002964672273 0)
(2.997188879 -0.005680894036 0)
(2.994567389 -0.01127266009 0)
(2.991425872 -0.01850386757 0)
(2.9852147 -0.03262099332 0)
(2.980256073 -0.04394827359 0)
(2.969170899 -0.0697773073 0)
(2.96506861 -0.0824291786 0)
(2.949798043 -0.1210620389 0)
(2.945639957 -0.1288608694 0)
(3 1.13011203e-14 0)
(3 1.365102526e-14 0)
(3 1.569024636e-14 0)
(3 1.627577704e-14 0)
(3 1.6300882e-14 0)
(3 1.646638642e-14 0)
(3 1.558298364e-14 0)
(3 1.429928984e-14 0)
(3 1.433399595e-14 0)
(3 1.497337613e-14 0)
(3 1.596396946e-14 0)
(3 1.681861458e-14 0)
(3 1.899122162e-14 0)
(3 2.046606358e-14 0)
(3 2.11416964e-14 0)
(3 2.004410336e-14 0)
(3 2.036282917e-14 0)
(3 1.874994909e-14 0)
(3 1.851144238e-14 0)
(3 1.829059749e-14 0)
(3 2.084801778e-14 0)
(3 2.534719829e-14 0)
(3 2.837503702e-14 0)
(3 2.591147858e-14 0)
(3 2.34625841e-14 0)
(3 2.435151425e-14 0)
(3 2.55045033e-14 0)
(3 2.526602593e-14 0)
(3 2.663093833e-14 0)
(3 2.719349904e-14 0)
(3 2.542558681e-14 0)
(3 2.301023611e-14 0)
(3 2.050534646e-14 0)
(3 1.683861151e-14 0)
(3 1.578550352e-14 0)
(3 1.391966939e-14 0)
(3 6.14636596e-14 0)
(3 -2.195742424e-13 0)
(3 -1.943245415e-13 0)
(3 -9.380389437e-12 0)
(3 -8.665130275e-11 0)
(2.999999999 -7.718493485e-10 0)
(2.999999997 -5.143192124e-09 0)
(2.999999981 -3.07907825e-08 0)
(2.999999904 -1.584205095e-07 0)
(2.999999565 -7.283293774e-07 0)
(2.99999825 -2.960077208e-06 0)
(2.99999361 -1.124424136e-05 0)
(2.999979487 -3.613926204e-05 0)
(2.999937081 -0.000115205355 0)
(2.999834212 -0.000304710883 0)
(2.999580967 -0.0008100896017 0)
(2.999091474 -0.001743313379 0)
(2.998025917 -0.003986100397 0)
(2.996370269 -0.007376712594 0)
(2.993223178 -0.01437093793 0)
(2.989723478 -0.02179367535 0)
(2.982981148 -0.03678458662 0)
(2.976436124 -0.05274814515 0)
(2.965902341 -0.07881452513 0)
(2.962123109 -0.08904295452 0)
(2.948618444 -0.1215805079 0)
(2.941862258 -0.1378247982 0)
(2.928469894 -0.1723763188 0)
(2.926981596 -0.1776106427 0)
(2.920521418 -0.1959707155 0)
(2.917520619 -0.2010873636 0)
(3 6.73904746e-15 0)
(3 7.083211208e-15 0)
(3 6.877584512e-15 0)
(3 6.574158868e-15 0)
(3 6.298405571e-15 0)
(3 6.779539832e-15 0)
(3 6.897442879e-15 0)
(3 7.239088468e-15 0)
(3 9.086444239e-15 0)
(3 9.964414618e-15 0)
(3 9.656631967e-15 0)
(3 1.011686553e-14 0)
(3 1.118554333e-14 0)
(3 1.112922761e-14 0)
(3 1.043646788e-14 0)
(3 1.014483093e-14 0)
(3 1.080790115e-14 0)
(3 1.312966859e-14 0)
(3 1.644418219e-14 0)
(3 1.815471563e-14 0)
(3 2.096918636e-14 0)
(3 2.4042423e-14 0)
(3 2.613846974e-14 0)
(3 2.74354913e-14 0)
(3 2.765194917e-14 0)
(3 2.831516111e-14 0)
(3 3.176431037e-14 0)
(3 3.166195649e-14 0)
(3 3.086558907e-14 0)
(3 3.104751745e-14 0)
(3 3.075449384e-14 0)
(3 3.868163892e-14 0)
(3 -4.114350177e-14 0)
(3 1.317144044e-13 0)
(3 -1.73942323e-12 0)
(3 -2.374006537e-11 0)
(3 -2.222078576e-10 0)
(2.999999999 -1.718949968e-09 0)
(2.999999993 -1.100210264e-08 0)
(2.999999963 -5.993666031e-08 0)
(2.999999815 -3.071703511e-07 0)
(2.999999223 -1.308616715e-06 0)
(2.999996982 -5.134337654e-06 0)
(2.999989329 -1.890285237e-05 0)
(2.999967339 -5.805936578e-05 0)
(2.999905897 -0.000173742667 0)
(2.999753578 -0.0004576838928 0)
(2.999419796 -0.001119712033 0)
(2.99871596 -0.002520351156 0)
(2.99747828 -0.005065079309 0)
(2.995210985 -0.009755665279 0)
(2.992001835 -0.01706770813 0)
(2.986690117 -0.02893768745 0)
(2.980575777 -0.04232057399 0)
(2.972737406 -0.06021121276 0)
(2.963545802 -0.08407099742 0)
(2.953328684 -0.1092991698 0)
(2.941003111 -0.1379023449 0)
(2.937507578 -0.1485093857 0)
(2.928810378 -0.1734210282 0)
(2.916633471 -0.2088773686 0)
(2.912525781 -0.2196307475 0)
(2.912522733 -0.2211854715 0)
(2.90239058 -0.2417687731 0)
(2.901150224 -0.2523603597 0)
(2.90226491 -0.2531474669 0)
(2.896778426 -0.2591944791 0)
(3 -3.040295736e-15 0)
(3 -3.686606138e-15 0)
(3 -3.184668033e-15 0)
(3 -2.27376743e-15 0)
(3 -9.303704456e-16 0)
(3 6.659636949e-17 0)
(3 2.069930376e-15 0)
(3 3.712832806e-15 0)
(3 5.96209063e-15 0)
(3 5.742299681e-15 0)
(3 2.682501988e-15 0)
(3 8.12467396e-16 0)
(3 1.08290627e-16 0)
(3 -3.307521882e-16 0)
(3 -2.316110573e-16 0)
(3 2.462313405e-15 0)
(3 5.488581887e-15 0)
(3 9.472300642e-15 0)
(3 1.416281447e-14 0)
(3 1.775134747e-14 0)
(3 1.858260812e-14 0)
(3 1.928885124e-14 0)
(3 2.141366978e-14 0)
(3 2.593123232e-14 0)
(3 2.593663905e-14 0)
(3 2.700258557e-14 0)
(3 2.434877477e-14 0)
(3 5.357946659e-14 0)
(3 9.190031851e-15 0)
(3 -5.947324347e-13 0)
(3 -4.500794109e-12 0)
(3 -6.43593076e-11 0)
(3 -5.414924194e-10 0)
(2.999999998 -3.792872167e-09 0)
(2.999999985 -2.350870844e-08 0)
(2.999999926 -1.211698233e-07 0)
(2.999999656 -5.680511833e-07 0)
(2.999998581 -2.418432097e-06 0)
(2.999994891 -8.787084953e-06 0)
(2.999982567 -3.08724076e-05 0)
(2.999947599 -9.369424679e-05 0)
(2.999858207 -0.0002639466656 0)
(2.999637355 -0.0006827703258 0)
(2.999193989 -0.001540991589 0)
(2.998236841 -0.003521810343 0)
(2.996698601 -0.006684459611 0)
(2.993927036 -0.01262598016 0)
(2.990241037 -0.02050679811 0)
(2.983969171 -0.03438999162 0)
(2.977780171 -0.04952917118 0)
(2.967692176 -0.07333688469 0)
(2.962230063 -0.08699477089 0)
(2.95098988 -0.1145898299 0)
(2.940522612 -0.1397234539 0)
(2.929798828 -0.1688733154 0)
(2.927939075 -0.1748220574 0)
(2.925999934 -0.1828482503 0)
(2.91436591 -0.2085143498 0)
(2.911580798 -0.219140941 0)
(2.911102773 -0.2229896813 0)
(2.908674211 -0.2258197611 0)
(2.907258966 -0.2278917956 0)
(2.903817582 -0.2344142621 0)
(2.900669673 -0.24216552 0)
(2.899574011 -0.2461272644 0)
(2.898366082 -0.2470151378 0)
(2.895839032 -0.2485055972 0)
(3 -5.459823337e-15 0)
(3 -5.331746211e-15 0)
(3 -5.197867655e-15 0)
(3 -4.31316294e-15 0)
(3 -2.183110189e-15 0)
(3 -1.416783338e-15 0)
(3 -1.744906147e-15 0)
(3 -1.290122865e-15 0)
(3 -3.046736019e-15 0)
(3 -4.788986417e-15 0)
(3 -4.781403106e-15 0)
(3 -4.897805953e-15 0)
(3 -6.856524201e-15 0)
(3 -8.349500472e-15 0)
(3 -7.331230285e-15 0)
(3 -4.476355183e-15 0)
(3 1.301566294e-15 0)
(3 6.78768634e-15 0)
(3 1.232367717e-14 0)
(3 1.424981282e-14 0)
(3 1.752707528e-14 0)
(3 1.884485896e-14 0)
(3 1.362747149e-14 0)
(3 -8.068109893e-15 0)
(3 2.137269913e-13 0)
(3 -1.569640969e-12 0)
(3 -1.570341251e-11 0)
(3 -1.626124319e-10 0)
(2.999999999 -1.323879023e-09 0)
(2.999999995 -8.242092655e-09 0)
(2.99999997 -4.875623647e-08 0)
(2.999999852 -2.445292319e-07 0)
(2.999999369 -1.043049261e-06 0)
(2.999997433 -4.418550366e-06 0)
(2.999991155 -1.537086334e-05 0)
(2.999972059 -4.957186507e-05 0)
(2.999916681 -0.0001517676152 0)
(2.999786824 -0.0003968576568 0)
(2.999479261 -0.0009935244466 0)
(2.998851603 -0.002223682449 0)
(2.997645249 -0.004718685999 0)
(2.995725712 -0.008780312978 0)
(2.992315136 -0.01595833294 0)
(2.987538562 -0.02681399158 0)
(2.981416593 -0.0401102291 0)
(2.974212068 -0.05696937086 0)
(2.964068566 -0.08317353104 0)
(2.954700366 -0.1041894815 0)
(2.942455686 -0.1328531391 0)
(2.93961431 -0.1458788134 0)
(2.927963487 -0.1749869769 0)
(2.915926932 -0.2088290195 0)
(2.913884784 -0.2133560974 0)
(2.913975131 -0.2195565962 0)
(2.902520767 -0.2434804634 0)
(2.900470858 -0.2539369562 0)
(2.901254348 -0.2525847358 0)
(2.897281292 -0.2578190528 0)
(2.894490797 -0.2647678509 0)
(2.893295768 -0.265251271 0)
(2.891309899 -0.2619797595 0)
(2.891442402 -0.257147646 0)
(2.892922489 -0.2563323571 0)
(2.89272865 -0.2566231271 0)
(2.890567194 -0.2545762775 0)
(2.889977338 -0.2524020343 0)
(2.890532444 -0.2521198735 0)
(3 -9.28717531e-15 0)
(3 -1.086065059e-14 0)
(3 -1.215862819e-14 0)
(3 -1.173388509e-14 0)
(3 -9.73180937e-15 0)
(3 -7.030093663e-15 0)
(3 -6.84694644e-15 0)
(3 -8.707294492e-15 0)
(3 -7.13212263e-15 0)
(3 -4.368613032e-15 0)
(3 -2.065494502e-15 0)
(3 -2.621047075e-16 0)
(3 -9.011459898e-16 0)
(3 -3.214116974e-15 0)
(3 -4.393935038e-15 0)
(3 -3.835728132e-15 0)
(3 -1.168325907e-16 0)
(3 7.781724183e-15 0)
(3 3.984959959e-14 0)
(3 -1.55099287e-13 0)
(3 -1.121817377e-13 0)
(3 -3.272021896e-12 0)
(3 -4.814719598e-11 0)
(3 -4.06751076e-10 0)
(2.999999998 -3.042944559e-09 0)
(2.999999988 -1.872821724e-08 0)
(2.999999939 -9.842999192e-08 0)
(2.999999709 -4.822064702e-07 0)
(2.999998816 -1.98640442e-06 0)
(2.999995551 -7.649388618e-06 0)
(2.999984702 -2.673287194e-05 0)
(2.999954587 -8.117479748e-05 0)
(2.999870891 -0.0002393955222 0)
(2.999678369 -0.0005940400424 0)
(2.999253372 -0.001438964787 0)
(2.998394586 -0.003199310982 0)
(2.996897942 -0.006161949637 0)
(2.994430947 -0.01163249487 0)
(2.990399756 -0.02011244434 0)
(2.98509116 -0.03154536083 0)
(2.977813973 -0.05011291706 0)
(2.97065377 -0.06554957862 0)
(2.960227865 -0.08961468197 0)
(2.952686773 -0.1105428506 0)
(2.94056482 -0.1398146645 0)
(2.931412223 -0.1652602996 0)
(2.93092056 -0.1683495287 0)
(2.923099142 -0.1857223686 0)
(2.914003938 -0.2151250313 0)
(2.91318237 -0.2145180684 0)
(2.912437732 -0.2173110975 0)
(2.907208941 -0.2274881636 0)
(2.906282402 -0.2309374243 0)
(2.904640923 -0.2364256226 0)
(2.901086731 -0.2412355676 0)
(2.898738522 -0.2458641001 0)
(2.897907826 -0.2465522073 0)
(2.895691861 -0.248404017 0)
(2.894430592 -0.2510192296 0)
(2.892524328 -0.2537771347 0)
(2.891087714 -0.2552657601 0)
(2.891817614 -0.2572372988 0)
(2.891946962 -0.2572799904 0)
(2.891698626 -0.257043352 0)
(2.890824187 -0.2563836068 0)
(2.890244729 -0.2549913772 0)
(2.890617217 -0.2543479026 0)
(3 -1.422997025e-14 0)
(3 -1.347527436e-14 0)
(3 -1.403381837e-14 0)
(3 -1.453076755e-14 0)
(3 -1.555012452e-14 0)
(3 -1.476759842e-14 0)
(3 -1.341933978e-14 0)
(3 -9.602240815e-15 0)
(3 -4.183953168e-15 0)
(3 -3.586296842e-15 0)
(3 -7.486068441e-16 0)
(3 3.527191662e-15 0)
(3 3.480511622e-15 0)
(3 -2.530741466e-15 0)
(3 6.13287954e-14 0)
(3 -1.014476314e-13 0)
(3 -1.175891686e-12 0)
(3 -1.07586611e-11 0)
(3 -1.310374878e-10 0)
(2.999999999 -1.042565517e-09 0)
(2.999999996 -6.785919173e-09 0)
(2.999999974 -4.151412364e-08 0)
(2.999999876 -2.011477445e-07 0)
(2.999999446 -9.178313305e-07 0)
(2.99999776 -3.824706031e-06 0)
(2.999992284 -1.328223825e-05 0)
(2.999974456 -4.520095642e-05 0)