/*--------------------------------*- C++ -*----------------------------------*\
  =========                 |
  \\      /  F ield         | OpenFOAM: The Open Source CFD Toolbox
   \\    /   O peration     | Website:  https://openfoam.org
    \\  /    A nd           | Version:  7
     \\/     M anipulation  |
\*---------------------------------------------------------------------------*/
FoamFile
{
    version     2.0;
    format      ascii;
    class       volVectorField;
    location    "4.9";
    object      U;
}
// * * * * * * * * * * * * * * * * * * * * * * * * * * * * * * * * * * * * * //

dimensions      [0 1 -1 0 0 0 0];

internalField   nonuniform List<vector> 
138
(
(3 1.191589937e-17 0)
(3 1.847425581e-15 0)
(3 3.714986569e-15 0)
(3 2.652737133e-15 0)
(3 3.095636753e-15 0)
(3 3.271027889e-15 0)
(3 3.23947203e-15 0)
(3 1.892274032e-16 0)
(3 2.389784027e-15 0)
(3 1.46022017e-15 0)
(3 5.300439045e-17 0)
(3 -2.014398691e-15 0)
(3 -2.798055097e-15 0)
(3 -6.167367176e-15 0)
(3 -7.332650118e-15 0)
(3 -6.834422152e-15 0)
(3 -1.664592948e-16 0)
(3 2.559243818e-15 0)
(3 4.794001261e-15 0)
(3 3.381607277e-15 0)
(3 2.305625704e-15 0)
(3 1.953420162e-15 0)
(3 -4.742086883e-16 0)
(3 4.92652145e-16 0)
(3 1.907570893e-15 0)
(3 3.240635907e-15 0)
(3 1.927024572e-15 0)
(3 1.630096374e-15 0)
(3 1.119128826e-16 0)
(3 -2.700888287e-15 0)
(3 -3.696923523e-15 0)
(3 -5.343348473e-15 0)
(3 -5.489519145e-16 0)
(3 -1.410534826e-15 0)
(3 -2.710135948e-16 0)
(3 1.850387468e-15 0)
(3 1.816740093e-15 0)
(3 1.15661614e-17 0)
(3 -2.162157343e-16 0)
(3 1.015505326e-15 0)
(3 4.323445589e-16 0)
(3 2.745064377e-15 0)
(3 6.085440493e-15 0)
(3 7.899863839e-15 0)
(3 8.44471031e-15 0)
(3 8.400538365e-15 0)
(3 6.708903406e-15 0)
(3 4.048375973e-15 0)
(3 -2.160247672e-17 0)
(3 -1.143755429e-15 0)
(3 -2.888846359e-15 0)
(3 -2.764493967e-15 0)
(3 -1.334477599e-15 0)
(3 -2.092380468e-15 0)
(3 -1.128653686e-15 0)
(3 -1.849505288e-15 0)
(3 1.336567522e-15 0)
(3 4.616770458e-15 0)
(3 5.836393274e-15 0)
(3 5.820356702e-15 0)
(3 8.41700056e-15 0)
(3 7.058305734e-15 0)
(3 4.389165821e-15 0)
(3 3.859620987e-15 0)
(3 -9.560829661e-17 0)
(3 -8.931242174e-17 0)
(3 -2.991519569e-15 0)
(3 -2.887306076e-15 0)
(3 -2.452469116e-15 0)
(3 -2.962965676e-15 0)
(3 -2.071686653e-15 0)
(3 -2.045647834e-15 0)
(3 -1.354913862e-15 0)
(3 -5.238265869e-16 0)
(3 3.377640691e-16 0)
(3 5.190351705e-16 0)
(3 -3.464765781e-16 0)
(3 -3.977759252e-15 0)
(3 -4.709491894e-15 0)
(3 -3.974209457e-15 0)
(3 -1.294156576e-15 0)
(3 -2.056182599e-15 0)
(3 -2.773326933e-16 0)
(3 -2.238566467e-16 0)
(3 3.831405866e-16 0)
(3 -1.166440658e-15 0)
(3 -1.696232935e-15 0)
(3 -2.785666329e-15 0)
(3 -6.455936664e-15 0)
(3 -8.539272086e-15 0)
(3 -8.140113086e-15 0)
(3 -5.01347907e-15 0)
(3 -6.187907823e-15 0)
(3 -7.325108554e-15 0)
(3 -8.030415559e-15 0)
(3 -8.595721732e-15 0)
(3 -1.237049555e-15 0)
(3 2.552495463e-16 0)
(3 1.275225036e-15 0)
(3 8.482603444e-16 0)
(3 -5.760666338e-17 0)
(3 9.128072115e-16 0)
(3 -1.78972942e-15 0)
(3 -2.143831094e-15 0)
(3 -2.354616674e-15 0)
(3 -3.84638968e-15 0)
(3 -5.151717304e-15 0)
(3 -4.80792853e-15 0)
(3 -2.765224426e-15 0)
(3 -3.294126352e-15 0)
(3 -5.799858321e-15 0)
(3 -1.013230953e-14 0)
(3 6.495297324e-16 0)
(3 3.282664008e-15 0)
(3 1.931806344e-15 0)
(3 1.151407283e-15 0)
(3 6.638098382e-16 0)
(3 2.412621242e-15 0)
(3 1.759251813e-15 0)
(3 2.109920613e-15 0)
(3 3.371401159e-15 0)
(3 4.928298078e-15 0)
(3 3.811939796e-15 0)
(3 -1.003288908e-15 0)
(3 -9.785802117e-16 0)
(3 -1.377616215e-15 0)
(3 -2.956477591e-15 0)
(3 -5.909626672e-15 0)
(3 1.535590892e-15 0)
(3 2.059931853e-15 0)
(3 8.016779577e-16 0)
(3 -6.892986845e-16 0)
(3 2.11504096e-15 0)
(3 1.952074542e-15 0)
(3 2.236336717e-15 0)
(3 2.111192656e-15 0)
(3 -5.604512858e-17 0)
(3 -7.862770937e-16 0)
)
;

boundaryField
{
    inlet
    {
        type            fixedValue;
        value           uniform (3 0 0);
    }
    outlet
    {
        type            inletOutlet;
        inletValue      nonuniform 0();
        value           nonuniform 0();
    }
    bottom
    {
        type            slip;
    }
    top
    {
        type            slip;
    }
    obstacle
    {
        type            slip;
    }
    defaultFaces
    {
        type            empty;
    }
    procBoundary0to1
    {
        type            processor;
        value           nonuniform List<vector> 8((3 -4.614445915e-15 0) (3 -4.560271412e-15 0) (3 -2.312435638e-15 0) (3 1.567732735e-15 0) (3 -3.796474078e-15 0) (3 -8.515214372e-15 0) (3 -1.088371774e-14 0) (3 -9.456179874e-15 0));
    }
    procBoundary0to6
    {
        type            processor;
        value           nonuniform List<vector> 
17
(
(3 -3.616480609e-16 0)
(3 -1.24608261e-15 0)
(3 -3.993278322e-15 0)
(3 -4.667707485e-15 0)
(3 -3.920363588e-15 0)
(3 -2.443067731e-15 0)
(3 -1.032404099e-15 0)
(3 -2.392214422e-15 0)
(3 -9.073977799e-16 0)
(3 -4.387232796e-16 0)
(3 -4.488425639e-16 0)
(3 -9.728503339e-16 0)
(3 -8.65881574e-16 0)
(3 -1.967224169e-15 0)
(3 -5.004963753e-15 0)
(3 -3.616480609e-16 0)
(3 -7.741197152e-15 0)
)
;
    }
}


// ************************************************************************* //
