/*--------------------------------*- C++ -*----------------------------------*\
  =========                 |
  \\      /  F ield         | OpenFOAM: The Open Source CFD Toolbox
   \\    /   O peration     | Website:  https://openfoam.org
    \\  /    A nd           | Version:  7
     \\/     M anipulation  |
\*---------------------------------------------------------------------------*/
FoamFile
{
    version     2.0;
    format      ascii;
    class       volVectorField;
    location    "5";
    object      U;
}
// * * * * * * * * * * * * * * * * * * * * * * * * * * * * * * * * * * * * * //

dimensions      [0 1 -1 0 0 0 0];

internalField   nonuniform List<vector> 
138
(
(2.78414564 -0.001037129159 0)
(2.807489707 0.01110033682 0)
(3.304919734 -0.454776231 0)
(3.465386673 -0.4081299435 0)
(3.499056368 -0.4004307386 0)
(3.272366544 -0.4301633173 0)
(3.036339312 -0.3872519948 0)
(2.840951556 -0.1717152719 0)
(2.756491709 -0.01452474233 0)
(2.775998442 0.01401920178 0)
(2.80782617 0.005498980194 0)
(3.270311348 -0.4548391002 0)
(3.483921694 -0.410656103 0)
(3.516957442 -0.4012171209 0)
(3.264815244 -0.4302261349 0)
(3.027483588 -0.4013786151 0)
(2.856694106 -0.2279872459 0)
(2.76343638 -0.04361307288 0)
(2.766148406 0.006324075314 0)
(2.794522525 -0.0001733703587 0)
(3.230812211 -0.4521877428 0)
(3.513357962 -0.4173324128 0)
(3.532116375 -0.4016476486 0)
(3.258375072 -0.4206417425 0)
(3.018641849 -0.4098980909 0)
(2.875046848 -0.2675378823 0)
(2.796810108 -0.07347420576 0)
(2.775573583 -0.00260524568 0)
(2.774305851 -0.0009041661147 0)
(3.186347464 -0.4511663918 0)
(3.56084858 -0.4213474166 0)
(3.542870088 -0.4000389181 0)
(3.238697961 -0.4168071484 0)
(3.007603494 -0.4155647451 0)
(2.886109339 -0.2950001697 0)
(2.83921969 -0.1093092655 0)
(2.806560877 -0.01691316494 0)
(2.750326346 -0.002608200257 0)
(3.128657535 -0.448758563 0)
(3.626190934 -0.4255238088 0)
(3.546777512 -0.3949380127 0)
(3.220075287 -0.402683992 0)
(2.997853395 -0.4166670755 0)
(2.893228855 -0.3260113264 0)
(2.871356347 -0.1494607306 0)
(2.843716072 -0.02282067731 0)
(2.720895788 -0.004285105092 0)
(3.045399602 -0.4282276102 0)
(3.678481954 -0.4267735095 0)
(3.537687717 -0.3963369756 0)
(3.200583234 -0.4000602301 0)
(2.98977031 -0.4224434205 0)
(2.897664018 -0.3559059427 0)
(2.887932733 -0.2087934284 0)
(2.872940529 -0.04527065747 0)
(2.696276188 -0.005408334917 0)
(2.954518789 -0.03124651127 0)
(2.958260897 -0.04287402818 0)
(2.972335018 -0.2923115794 0)
(2.923770715 -0.3618422155 0)
(2.908867208 -0.4141379939 0)
(2.925181168 -0.389522592 0)
(2.933726039 -0.3315090288 0)
(2.911060473 -0.1548643946 0)
(2.895640392 -0.08046512567 0)
(2.891427829 0.239357215 0)
(2.886360748 0.06503220471 0)
(2.899630801 -0.1805173054 0)
(2.904923781 -0.2456631626 0)
(2.939825203 -0.369980507 0)
(2.960141102 -0.3484126969 0)
(2.99639966 -0.3493593713 0)
(2.995284652 -0.338213774 0)
(3.018148324 -0.2546322651 0)
(2.89583523 0.2678060166 0)
(2.90877124 0.2174881495 0)
(2.932531518 0.1101892522 0)
(2.9590008 -0.01038993736 0)
(3.000238224 -0.1569573076 0)
(3.010191652 -0.183704327 0)
(3.047671727 -0.2955353962 0)
(3.068193499 -0.3450846982 0)
(3.066512809 -0.3378675236 0)
(2.896605679 0.2745591482 0)
(2.901082954 0.2615498274 0)
(2.921093188 0.2117026978 0)
(2.958990408 0.1117022836 0)
(3.007657694 -0.0170980822 0)
(3.034209533 -0.1230469711 0)
(3.065344717 -0.2600382798 0)
(3.095842949 -0.3125783158 0)
(3.104019894 -0.304899739 0)
(2.928921695 0.2206530131 0)
(2.897549971 0.2502298441 0)
(2.898636665 0.250042385 0)
(2.919785244 0.2107716064 0)
(2.958913066 0.1234660794 0)
(2.990138197 0.03498396243 0)
(3.030274829 -0.09342929237 0)
(3.021103777 -0.09315261131 0)
(3.072733102 -0.2198481046 0)
(2.947268143 0.1570662997 0)
(2.90243297 0.2596964829 0)
(2.894467167 0.2608115645 0)
(2.899027505 0.2506610257 0)
(2.915504456 0.2130397731 0)
(2.951723994 0.1253447125 0)
(2.98619351 0.05166793755 0)
(3.009025366 -0.05017224531 0)
(3.044545069 -0.1763328059 0)
(2.974290761 0.06267116835 0)
(2.934754532 0.1610451213 0)
(2.918441544 0.2181334362 0)
(2.903525111 0.2397832927 0)
(2.904607269 0.2354521199 0)
(2.919950997 0.2026626914 0)
(2.948193869 0.1403313708 0)
(2.98446034 0.04801318017 0)
(3.004519771 -0.01091823238 0)
(2.995655567 0.009387428066 0)
(2.973158492 0.06403737634 0)
(2.932536614 0.1750692378 0)
(2.904696022 0.2487365968 0)
(2.901719713 0.2394085708 0)
(2.905815691 0.232302815 0)
(2.920679903 0.2021415052 0)
(2.945110612 0.1487981158 0)
(2.97623407 0.06841538006 0)
(2.999745626 0.0005331685421 0)
(2.99343865 0.0164509134 0)
(2.97347643 0.06673864727 0)
(2.92594265 0.1783054818 0)
(2.918000807 0.2080369708 0)
(2.908596451 0.2259444165 0)
(2.907889173 0.2265901328 0)
(2.91953858 0.1991500373 0)
(2.942939868 0.1429151289 0)
(2.999991694 1.909366335e-05 0)
)
;

boundaryField
{
    inlet
    {
        type            fixedValue;
        value           nonuniform 0();
    }
    outlet
    {
        type            inletOutlet;
        inletValue      nonuniform 0();
        value           nonuniform 0();
    }
    bottom
    {
        type            slip;
    }
    top
    {
        type            slip;
    }
    obstacle
    {
        type            slip;
    }
    defaultFaces
    {
        type            empty;
    }
    procBoundary27to20
    {
        type            processor;
        value           nonuniform List<vector> 7((2.861588873 0.2652872822 0) (2.873973474 0.2727157647 0) (2.89929462 0.2664796586 0) (2.904428122 0.2777331156 0) (2.924893059 0.1967408886 0) (2.961142602 0.0857496887 0) (2.994849906 0.009818033486 0));
    }
    procBoundary27to21
    {
        type            processor;
        value           nonuniform List<vector> 9((2.836868148 0.002327990476 0) (2.856808039 0.004801443211 0) (3.331011379 -0.4519250017 0) (3.453145614 -0.4046271157 0) (3.479845517 -0.4006441207 0) (3.279123706 -0.4280774374 0) (3.039290159 -0.3540860751 0) (2.844849292 -0.1349817989 0) (2.844849292 -0.1349817989 0));
    }
    procBoundary27to26
    {
        type            processor;
        value           nonuniform List<vector> 3((2.999875231 0.0002217185825 0) (3.000000114 -1.71917966e-07 0) (3.000000031 -6.710339518e-08 0));
    }
    procBoundary27to28
    {
        type            processor;
        value           nonuniform List<vector> 
16
(
(2.828150013 0.002605586243 0)
(2.828150013 0.002605586243 0)
(2.826411969 0.01574069351 0)
(2.799214257 0.01674830344 0)
(2.772025837 0.008294766096 0)
(2.750881362 0.005360641481 0)
(2.736168612 0.007816253824 0)
(2.727152274 0.01299492782 0)
(2.85192942 0.01940145016 0)
(3.001144733 -0.1286482496 0)
(3.066346919 -0.2801535734 0)
(3.101027103 -0.3042626247 0)
(3.086746059 -0.2768079893 0)
(3.058247358 -0.1953700528 0)
(3.026534054 -0.08442826561 0)
(3.003145806 -0.01145338677 0)
)
;
    }
    procBoundary27to33
    {
        type            processor;
        value           nonuniform List<vector> 10((2.999305373 0.001728231217 0) (2.992836675 0.01810450973 0) (2.960556418 0.090422861 0) (2.946684104 0.1461041612 0) (2.910651241 0.240593445 0) (2.902363094 0.2319683223 0) (2.905596382 0.2233743066 0) (2.91578131 0.200277914 0) (2.999305373 0.001728231217 0) (2.999999892 2.467805751e-07 0));
    }
    procBoundary27to34
    {
        type            processor;
        value           uniform (2.967754279 0.08172255305 0);
    }
}


// ************************************************************************* //
