/*--------------------------------*- C++ -*----------------------------------*\
  =========                 |
  \\      /  F ield         | OpenFOAM: The Open Source CFD Toolbox
   \\    /   O peration     | Website:  https://openfoam.org
    \\  /    A nd           | Version:  7
     \\/     M anipulation  |
\*---------------------------------------------------------------------------*/
FoamFile
{
    version     2.0;
    format      ascii;
    class       volScalarField;
    location    "1.8";
    object      p;
}
// * * * * * * * * * * * * * * * * * * * * * * * * * * * * * * * * * * * * * //

dimensions      [1 -1 -2 0 0 0 0];

internalField   nonuniform List<scalar> 
22
(
1.177647003
1.22881735
1.211839884
1.15790595
1.176110351
1.139905901
1.115681578
1.095077621
1.054503726
1.06105421
0.985273764
0.9818843912
0.9743057659
0.9155619153
0.9307715752
0.9215530379
0.9113755925
0.9323595684
0.8950884772
0.9247845562
0.9707276272
0.9270361094
)
;

boundaryField
{
    inlet
    {
        type            fixedValue;
        value           nonuniform 0();
    }
    outlet
    {
        type            zeroGradient;
    }
    bottom
    {
        type            slip;
    }
    top
    {
        type            slip;
    }
    obstacle
    {
        type            zeroGradient;
    }
    defaultFaces
    {
        type            empty;
    }
    procBoundary5to4
    {
        type            processor;
        value           nonuniform List<scalar> 6(1.106551008 1.122916541 1.126654464 1.115564206 1.049448539 0.9468861564);
    }
    procBoundary5to10
    {
        type            processor;
        value           nonuniform List<scalar> 2(0.8848085331 0.8915438702);
    }
    procBoundary5to11
    {
        type            processor;
        value           nonuniform List<scalar> 4(0.9651355777 0.9892200784 0.9651355777 0.9866986557);
    }
}


// ************************************************************************* //
