/*--------------------------------*- C++ -*----------------------------------*\
  =========                 |
  \\      /  F ield         | OpenFOAM: The Open Source CFD Toolbox
   \\    /   O peration     | Website:  https://openfoam.org
    \\  /    A nd           | Version:  7
     \\/     M anipulation  |
\*---------------------------------------------------------------------------*/
FoamFile
{
    version     2.0;
    format      ascii;
    class       volScalarField;
    location    "0.3";
    object      p;
}
// * * * * * * * * * * * * * * * * * * * * * * * * * * * * * * * * * * * * * //

dimensions      [1 -1 -2 0 0 0 0];

internalField   nonuniform List<scalar> 
138
(
1
1
1
1
1
1
1
1
1
1
1
1
1
1
1
1
1
1
1
1
1
1
1
1
1
1
1
1
1
1
1
1
1
1
1
1
0.9999999999
1
1
1
1
1
1
1
0.9999999999
0.9999999999
1
1
1
1
1
1
1
1
1.000000008
1
1
1
1
1
1
1.000000001
1.000000058
1.000002214
1
1
1
1
1
1.000000004
1.000000259
1.000008529
1.000153981
1
1
1
1
1.000000012
1.000000705
1.000021709
1.000365039
1.003335786
1
1
1
1.000000019
1.000001153
1.00003682
1.000617204
1.00560278
1.028344861
1
1
1.000000014
1.000001225
1.000042319
1.000765258
1.007265408
1.038141692
1.110188455
1
1.000000005
1.000000791
1.000035322
1.000752431
1.007564724
1.043402252
1.128601628
1.236107683
1
1.000000274
1.000023558
1.000583172
1.007233046
1.042562405
1.140613207
1.261065434
1.310267709
1.000000002
1.000009109
1.000430353
1.005790356
1.04237724
1.138846287
1.268703415
1.345557744
1.342472496
1.000000278
1.00020044
1.004839511
1.035901715
1.140737646
1.290294366
1.358902126
1.35903763
1.345780481
1.000021836
1.002929301
)
;

boundaryField
{
    inlet
    {
        type            fixedValue;
        value           nonuniform 0();
    }
    outlet
    {
        type            zeroGradient;
    }
    bottom
    {
        type            slip;
    }
    top
    {
        type            slip;
    }
    obstacle
    {
        type            zeroGradient;
    }
    defaultFaces
    {
        type            empty;
    }
    procBoundary3to2
    {
        type            processor;
        value           nonuniform List<scalar> 10(1 1 1 1 1 1 1 1 1 1);
    }
    procBoundary3to4
    {
        type            processor;
        value           nonuniform List<scalar> 
15
(
1
1
0.9999999999
0.9999999999
1
1.000000307
1.000043579
1.001513461
1.017198684
1.081192832
1.195945643
1.290326762
1.31340539
1.324008201
1.300922003
)
;
    }
    procBoundary3to8
    {
        type            processor;
        value           nonuniform List<scalar> 7(1 1 1 1 0.9999999999 0.9999999951 0.9999998673);
    }
    procBoundary3to9
    {
        type            processor;
        value           nonuniform List<scalar> 10(1.03140919 1.13956056 1.278407942 1.376868519 1.374305527 1.359614505 1.308524581 1.000811368 1.03140919 1.024518276);
    }
}


// ************************************************************************* //
