/*--------------------------------*- C++ -*----------------------------------*\
  =========                 |
  \\      /  F ield         | OpenFOAM: The Open Source CFD Toolbox
   \\    /   O peration     | Website:  https://openfoam.org
    \\  /    A nd           | Version:  7
     \\/     M anipulation  |
\*---------------------------------------------------------------------------*/
FoamFile
{
    version     2.0;
    format      ascii;
    class       volVectorField;
    location    "4";
    object      U;
}
// * * * * * * * * * * * * * * * * * * * * * * * * * * * * * * * * * * * * * //

dimensions      [0 1 -1 0 0 0 0];

internalField   nonuniform List<vector> 
2222
(
(0.4667638274 -0.2518299403 0)
(0.4740406869 -0.257299192 0)
(0.4572834487 -0.2549781842 0)
(0.4647381608 -0.2603404187 0)
(0.4721344484 -0.2655361741 0)
(0.4794165746 -0.270615352 0)
(0.4484282943 -0.2571863714 0)
(0.4561716898 -0.2626434008 0)
(0.4637693375 -0.2679754672 0)
(0.4712367399 -0.2730810348 0)
(0.4785337848 -0.2779837776 0)
(0.4856338064 -0.2827389471 0)
(0.4925448179 -0.2873993905 0)
(0.4423860405 -0.2645263208 0)
(0.4503852124 -0.2699655874 0)
(0.4581718704 -0.2752109876 0)
(0.465765099 -0.2801904243 0)
(0.4731635217 -0.2849581782 0)
(0.4803780064 -0.2895835059 0)
(0.4874215939 -0.2941243207 0)
(0.4943365635 -0.2986216816 0)
(0.5011944371 -0.3031302497 0)
(0.4452085832 -0.2705040989 0)
(0.4533021132 -0.2756829983 0)
(0.4611123191 -0.2807134273 0)
(0.4686569011 -0.2856555028 0)
(0.4759752768 -0.2904902549 0)
(0.4831043221 -0.2952208861 0)
(0.4900663453 -0.2998835257 0)
(0.4968907446 -0.3045151098 0)
(0.5036132434 -0.3091508887 0)
(0.5102915129 -0.3137404928 0)
(0.5169508574 -0.3182807329 0)
(2.477057584 -0.3668437592 0)
(2.4657512 -0.3351842098 0)
(2.454896304 -0.3200996002 0)
(2.448284252 -0.3128041639 0)
(2.448973022 -0.3129190723 0)
(2.456979864 -0.3175818142 0)
(2.470705683 -0.3058144536 0)
(2.482510524 -0.2854983169 0)
(2.489564661 -0.2780433601 0)
(2.485453877 -0.2799877223 0)
(2.482131441 -0.2856699612 0)
(2.484956891 -0.2877058037 0)
(2.490437173 -0.2861763059 0)
(2.494603602 -0.2815580259 0)
(2.495152521 -0.275371526 0)
(2.491378333 -0.2731207783 0)
(2.483693713 -0.2768451273 0)
(2.476649045 -0.2825889617 0)
(2.473668801 -0.2849993579 0)
(2.47365914 -0.283378407 0)
(2.47337032 -0.280727068 0)
(2.472480627 -0.27856624 0)
(2.472277984 -0.2742294272 0)
(2.471056057 -0.2664947422 0)
(2.46764888 -0.2601574075 0)
(2.462012468 -0.2607286441 0)
(2.456854179 -0.2657982778 0)
(2.455348577 -0.2658453568 0)
(2.454311736 -0.2595995633 0)
(2.45236894 -0.2531169664 0)
(2.449817562 -0.2514674633 0)
(2.450736472 -0.2524748208 0)
(2.454832833 -0.2533203051 0)
(2.458887087 -0.2536706603 0)
(2.460552769 -0.2524155418 0)
(2.459551802 -0.2500207577 0)
(2.456630792 -0.2485076496 0)
(2.452160115 -0.2494328471 0)
(2.448695711 -0.2525689624 0)
(2.448561586 -0.2550268323 0)
(2.451118403 -0.2546553946 0)
(2.454288445 -0.2515083232 0)
(2.456079936 -0.2486225177 0)
(2.455352235 -0.2474785552 0)
(2.45264224 -0.2478628631 0)
(2.449538729 -0.248987164 0)
(2.447389439 -0.2502022764 0)
(2.446483694 -0.2497950517 0)
(2.446103765 -0.2477456223 0)
(2.445953596 -0.2456308577 0)
(2.445762393 -0.2438341391 0)
(2.445403434 -0.2426024677 0)
(2.445507518 -0.2416930529 0)
(2.446387079 -0.2407731833 0)
(2.448123965 -0.2395425797 0)
(2.451060288 -0.2380507733 0)
(2.454376476 -0.2366022257 0)
(2.456056396 -0.2364455928 0)
(2.458356087 -0.2366988046 0)
(2.460211436 -0.236680484 0)
(2.46024399 -0.2367326106 0)
(2.458354558 -0.2377367291 0)
(2.457599773 -0.2382100946 0)
(2.456439785 -0.2390464602 0)
(2.454801617 -0.2401429748 0)
(2.453329082 -0.2420924522 0)
(2.453143246 -0.2436954209 0)
(2.620668989 -0.3840261896 0)
(2.607423826 -0.3410113173 0)
(2.596896181 -0.3193733836 0)
(2.586196882 -0.3068517734 0)
(2.580153185 -0.3036583661 0)
(2.579508112 -0.3022075135 0)
(2.585402009 -0.3027682679 0)
(2.595860795 -0.2870436883 0)
(2.602093035 -0.2655332769 0)
(2.60036149 -0.2617795066 0)
(2.589628933 -0.2717790481 0)
(2.57942067 -0.286119664 0)
(2.573618338 -0.2947919022 0)
(2.570638486 -0.2966640995 0)
(2.568071292 -0.2929244981 0)
(2.565362173 -0.2855170306 0)
(2.559873968 -0.2854439837 0)
(2.549483874 -0.2949061557 0)
(2.544222506 -0.3123614818 0)
(2.546099731 -0.3161268124 0)
(2.54545586 -0.3025235094 0)
(2.546714784 -0.2878051254 0)
(2.545721259 -0.2812831066 0)
(2.543797663 -0.2732622682 0)
(2.539614725 -0.2606589938 0)
(2.539608656 -0.2484124782 0)
(2.534603566 -0.2461138993 0)
(2.523281433 -0.2548210835 0)
(2.518712785 -0.2615578202 0)
(2.517561125 -0.2506904923 0)
(2.518992552 -0.2419779261 0)
(2.51727603 -0.2421818232 0)
(2.515331179 -0.2470501296 0)
(2.514018924 -0.2541136656 0)
(2.514119384 -0.2588675516 0)
(2.513017033 -0.2570903882 0)
(2.511172934 -0.2524732193 0)
(2.508999552 -0.2506319459 0)
(2.504913661 -0.2527259151 0)
(2.50183819 -0.256785896 0)
(2.50088633 -0.2576571709 0)
(2.501490231 -0.2550928809 0)
(2.502606831 -0.2514327177 0)
(2.502825659 -0.2479936377 0)
(2.500416682 -0.2467890209 0)
(2.496363758 -0.2469862579 0)
(2.492590743 -0.2474859892 0)
(2.489735447 -0.2480698587 0)
(2.487594231 -0.2461529487 0)
(2.487067073 -0.2430669297 0)
(2.487278898 -0.2391861648 0)
(2.486966884 -0.2357463694 0)
(2.485954399 -0.2319278176 0)
(2.486072418 -0.2298042794 0)
(2.486198763 -0.2292203785 0)
(2.486885571 -0.2286368935 0)
(2.488303838 -0.2289729098 0)
(2.488925942 -0.2307378997 0)
(2.488646461 -0.2333092628 0)
(2.487060757 -0.2368201537 0)
(2.485681655 -0.241134177 0)
(2.484323967 -0.245025005 0)
(2.482486643 -0.2491732334 0)
(2.482174309 -0.2512561054 0)
(2.481997689 -0.2526524632 0)
(2.482633715 -0.2562102076 0)
(2.48459163 -0.2543227918 0)
(2.895229971 -0.6779581763 0)
(2.876983027 -0.6205289686 0)
(2.862964413 -0.5671333161 0)
(2.857543617 -0.5359308096 0)
(2.837256298 -0.5110025099 0)
(2.806390474 -0.4718963555 0)
(2.777462604 -0.4604657009 0)
(2.75182757 -0.4420213296 0)
(2.732827097 -0.4041273635 0)
(2.7232884 -0.3753175349 0)
(2.710914307 -0.3708704465 0)
(2.697473476 -0.3754181026 0)
(2.686847175 -0.3678265247 0)
(2.67972685 -0.3494435319 0)
(2.677268872 -0.3385256327 0)
(2.673407872 -0.3188670289 0)
(2.672800595 -0.2979555901 0)
(2.668190432 -0.2964632582 0)
(2.662633586 -0.3028023729 0)
(2.664445727 -0.3041214099 0)
(2.664770771 -0.2922114499 0)
(2.665399923 -0.2823969077 0)
(2.663111904 -0.2795292188 0)
(2.65738115 -0.2804881857 0)
(2.65353878 -0.2921968298 0)
(2.650189582 -0.2988839219 0)
(2.646915748 -0.2995671729 0)
(2.637538217 -0.303829512 0)
(2.626897114 -0.3174259854 0)
(2.623923414 -0.3210896754 0)
(2.624043838 -0.3156492137 0)
(2.623162562 -0.3146194724 0)
(2.620459085 -0.3125297771 0)
(2.617864213 -0.3108619106 0)
(2.614695522 -0.309525249 0)
(2.610397466 -0.3081762313 0)
(2.606087516 -0.3053298884 0)
(2.603808282 -0.3000906651 0)
(2.600750553 -0.2983826726 0)
(2.595913763 -0.2988790775 0)
(2.591460566 -0.2954690946 0)
(2.590054766 -0.2897029806 0)
(2.590081445 -0.2875826426 0)
(2.589332093 -0.284315913 0)
(2.586216493 -0.2791942089 0)
(2.583079219 -0.2751395626 0)
(2.579803879 -0.2725326301 0)
(2.576956792 -0.2704199059 0)
(2.573329761 -0.2671104538 0)
(2.571088278 -0.2629006844 0)
(2.570514935 -0.2602052778 0)
(2.568575352 -0.2565468079 0)
(2.567029126 -0.2535816499 0)
(2.565704195 -0.2524312735 0)
(2.564192144 -0.2520084161 0)
(2.563018606 -0.2525496952 0)
(2.562146918 -0.2544383974 0)
(2.560648092 -0.2575758397 0)
(2.557714952 -0.2600956379 0)
(2.555684121 -0.2617052842 0)
(2.553402311 -0.2632126205 0)
(2.551498276 -0.2637256715 0)
(2.550343519 -0.2650979372 0)
(2.550609146 -0.2659169016 0)
(2.551691335 -0.2654143025 0)
(2.554201453 -0.2638161958 0)
(2.553828117 -0.2611347854 0)
(2.929451489 -0.8988060231 0)
(2.922187283 -0.8794035202 0)
(2.925132058 -0.839821885 0)
(2.910105549 -0.82317956 0)
(2.898893832 -0.8060858838 0)
(2.88602779 -0.773107226 0)
(2.869411218 -0.7508630813 0)
(2.848755407 -0.7144995029 0)
(2.832627282 -0.6658474962 0)
(2.826926395 -0.609737913 0)
(2.830064324 -0.5799847893 0)
(2.827970799 -0.5659523102 0)
(2.818881493 -0.5467761918 0)
(2.800501795 -0.5069026665 0)
(2.789652816 -0.4808055334 0)
(2.780541596 -0.456664325 0)
(2.770711882 -0.4244686714 0)
(2.767081863 -0.4005363106 0)
(2.759757549 -0.3975208498 0)
(2.751292096 -0.4009048234 0)
(2.741375864 -0.3865120624 0)
(2.736114644 -0.3562721665 0)
(2.735244537 -0.3391920161 0)
(2.727516816 -0.3427090881 0)
(2.723724611 -0.3458362603 0)
(2.716238992 -0.3314630227 0)
(2.713566605 -0.3112561357 0)
(2.708102287 -0.3067701342 0)
(2.702284639 -0.3138340654 0)
(2.70194029 -0.3099658257 0)
(2.701263969 -0.2935217715 0)
(2.704043348 -0.2865320692 0)
(2.702896061 -0.2789190117 0)
(2.69917705 -0.2732890743 0)
(2.693981038 -0.2735231748 0)
(2.687933906 -0.2758268081 0)
(2.681902048 -0.2784025293 0)
(2.679424825 -0.2790112385 0)
(2.67681464 -0.2794580236 0)
(2.6717463 -0.2815955577 0)
(2.6685089 -0.2888588078 0)
(2.669226445 -0.2919685598 0)
(2.670054284 -0.2917499639 0)
(2.666541796 -0.2903517906 0)
(2.663346181 -0.289594227 0)
(2.661591247 -0.2893310505 0)
(2.658869104 -0.2894640361 0)
(2.656404878 -0.2888457294 0)
(2.653885907 -0.287792621 0)
(2.650538688 -0.2855705741 0)
(2.647564463 -0.2840360511 0)
(2.644297547 -0.2810802192 0)
(2.641551088 -0.2755065243 0)
(2.639794674 -0.2710971315 0)
(2.637790774 -0.2699275694 0)
(2.635613872 -0.2675565561 0)
(2.633772722 -0.2645504795 0)
(2.63291993 -0.262908672 0)
(2.630103584 -0.2595610355 0)
(2.627479086 -0.2583522907 0)
(2.625821234 -0.2565799309 0)
(2.623586309 -0.2548448353 0)
(2.622583659 -0.2534839532 0)
(2.623133192 -0.2516488079 0)
(2.623972151 -0.2507382376 0)
(2.625635844 -0.2508562956 0)
(2.625537314 -0.2523905327 0)
(2.890592413 -0.9123430169 0)
(2.884982958 -0.9200041525 0)
(2.878026414 -0.9286600662 0)
(2.883044929 -0.925629113 0)
(2.887941049 -0.921127516 0)
(2.887951853 -0.9139886713 0)
(2.883036469 -0.9079901718 0)
(2.872918607 -0.8918119247 0)
(2.861600436 -0.866367541 0)
(2.856969787 -0.8290242892 0)
(2.853054107 -0.8075654085 0)
(2.852488954 -0.7821317398 0)
(2.847088756 -0.75649685 0)
(2.836021188 -0.7166283841 0)
(2.8267417 -0.6824572922 0)
(2.818990243 -0.6486652985 0)
(2.812767082 -0.6188746259 0)
(2.810271363 -0.5902440864 0)
(2.806945113 -0.5697251508 0)
(2.796948172 -0.550785798 0)
(2.787611824 -0.5356214863 0)
(2.780988474 -0.5038634192 0)
(2.779978772 -0.467941261 0)
(2.77820516 -0.4563977841 0)
(2.775857063 -0.4563770169 0)
(2.763614249 -0.4366242177 0)
(2.751709305 -0.4024461723 0)
(2.752227212 -0.3813271116 0)
(2.749606538 -0.384061526 0)
(2.745228147 -0.3753289553 0)
(2.738829822 -0.3490288159 0)
(2.737880983 -0.3413457207 0)
(2.736355815 -0.3397844938 0)
(2.731332561 -0.3249113609 0)
(2.726863216 -0.3162725777 0)
(2.7186512 -0.3184817168 0)
(2.712422198 -0.3167342787 0)
(2.707930513 -0.3031970288 0)
(2.706136739 -0.2950306876 0)
(2.701910688 -0.2964506813 0)
(2.701069078 -0.2963431141 0)
(2.703538569 -0.2911959311 0)
(2.701949477 -0.286701732 0)
(2.701042742 -0.2826720062 0)
(2.698830766 -0.2786652494 0)
(2.697029086 -0.2766923101 0)
(2.694183882 -0.2760051913 0)
(2.691626759 -0.2759503349 0)
(2.689094098 -0.2757767147 0)
(2.68636888 -0.27616093 0)
(2.682965336 -0.276854624 0)
(2.680462473 -0.2784033113 0)
(2.678965003 -0.27973897 0)
(2.677196363 -0.2793674599 0)
(2.674907028 -0.2797951413 0)
(2.671851315 -0.2821090453 0)
(2.670532015 -0.2839986768 0)
(2.669826383 -0.2836475456 0)
(2.667801565 -0.2816865291 0)
(2.666676041 -0.2791814815 0)
(2.665541553 -0.276489437 0)
(2.663696014 -0.273032657 0)
(2.663979415 -0.2705370783 0)
(2.663735594 -0.2676690319 0)
(2.663245212 -0.265315032 0)
(2.663996981 -0.2633181256 0)
(2.663689396 -0.2626622268 0)
(2.890422983 -0.8073285822 0)
(2.882202885 -0.8217990018 0)
(2.875557051 -0.8259433665 0)
(2.872154832 -0.8327754583 0)
(2.876864295 -0.8376610014 0)
(2.883039056 -0.8426905987 0)
(2.875609319 -0.8566963733 0)
(2.86842554 -0.8654349522 0)
(2.860905214 -0.8683245327 0)
(2.842603053 -0.8865208355 0)
(2.847722903 -0.8892473902 0)
(2.852568558 -0.8866083827 0)
(2.853414806 -0.8855624176 0)
(2.849876783 -0.8802136663 0)
(2.843507689 -0.8718504651 0)
(2.836552419 -0.8568632547 0)
(2.829897123 -0.8406056401 0)
(2.824628827 -0.8173868384 0)
(2.821291439 -0.7950651311 0)
(2.816930955 -0.7591875418 0)
(2.811608356 -0.7180165414 0)
(2.806248274 -0.6810105247 0)
(2.803732163 -0.6398035712 0)
(2.803553835 -0.5909421581 0)
(2.800447046 -0.5717676926 0)
(2.789767429 -0.5550407858 0)
(2.772544716 -0.5044692949 0)
(2.772106499 -0.4671945137 0)
(2.77120946 -0.4706853408 0)
(2.76442842 -0.4558667924 0)
(2.755806528 -0.4102934807 0)
(2.752313418 -0.3978626486 0)
(2.747050473 -0.4063943072 0)
(2.739004111 -0.3950979943 0)
(2.733214092 -0.3751380688 0)
(2.726816126 -0.3728174352 0)
(2.722747199 -0.3759743324 0)
(2.717337967 -0.3639266327 0)
(2.714152686 -0.3415911245 0)
(2.713583224 -0.3326599054 0)
(2.710747264 -0.3312491657 0)
(2.709182813 -0.3230712079 0)
(2.707250946 -0.313486578 0)
(2.708477764 -0.3078432971 0)
(2.707813772 -0.3041383353 0)
(2.703245556 -0.2990022273 0)
(2.699829043 -0.2960933219 0)
(2.694056547 -0.2962552687 0)
(2.688846523 -0.2925497439 0)
(2.686658138 -0.2886141413 0)
(2.685207324 -0.2894677164 0)
(2.684534152 -0.2893582407 0)
(2.68414615 -0.2849360846 0)
(2.683180732 -0.2831631843 0)
(2.680946411 -0.2831660229 0)
(2.679959177 -0.2839555696 0)
(2.678944364 -0.2834004629 0)
(2.67921014 -0.2814857009 0)
(2.67976769 -0.2786398291 0)
(2.6793251 -0.276393812 0)
(2.678867006 -0.2738701012 0)
(2.677524922 -0.2710408119 0)
(2.677307562 -0.2695906452 0)
(2.67637371 -0.2669734393 0)
(2.675391934 -0.2660893018 0)
(2.67404121 -0.2658457144 0)
(2.672722623 -0.2660745365 0)
(2.856924561 -0.6291695297 0)
(2.859163657 -0.6430460469 0)
(2.860887551 -0.6832382919 0)
(2.858217757 -0.7256361956 0)
(2.850450087 -0.757127446 0)
(2.846049314 -0.7700491406 0)
(2.848239887 -0.7809890989 0)
(2.850499733 -0.8000572035 0)
(2.855049869 -0.826495911 0)
(2.852363276 -0.8407849138 0)
(2.848816789 -0.8473671149 0)
(2.847127444 -0.8539294221 0)
(2.848903654 -0.8627540323 0)
(2.851791299 -0.8697494084 0)
(2.850216848 -0.8746718134 0)
(2.844838708 -0.8790986914 0)
(2.841825436 -0.8771417675 0)
(2.83884948 -0.8749540719 0)
(2.83859842 -0.8739049267 0)
(2.838824854 -0.8711165165 0)
(2.838065641 -0.8665367524 0)
(2.834831884 -0.8586199809 0)
(2.829113242 -0.8472119012 0)
(2.822943846 -0.8287418389 0)
(2.816722718 -0.8136146465 0)
(2.80833543 -0.7921325146 0)
(2.798956719 -0.7652986414 0)
(2.794181973 -0.7248483765 0)
(2.792671492 -0.6854684438 0)
(2.787639286 -0.658479237 0)
(2.777526113 -0.6114999935 0)
(2.771326116 -0.5515653338 0)
(2.76751514 -0.5319578917 0)
(2.760359334 -0.5147224501 0)
(2.74119001 -0.4607440822 0)
(2.737373391 -0.4222784788 0)
(2.731559104 -0.4232182463 0)
(2.72603615 -0.4147868252 0)
(2.715364639 -0.3735103127 0)
(2.719223729 -0.3463070173 0)
(2.71616401 -0.3474241858 0)
(2.710676232 -0.3408433737 0)
(2.707797758 -0.3245099477 0)
(2.704548997 -0.3228115313 0)
(2.699117346 -0.3232272843 0)
(2.694215173 -0.3153028626 0)
(2.691017886 -0.3128408853 0)
(2.685252761 -0.3171305867 0)
(2.681855026 -0.317224054 0)
(2.682775829 -0.3112715558 0)
(2.683971317 -0.3106637187 0)
(2.683240649 -0.3081942492 0)
(2.6812085 -0.3028335938 0)
(2.680625441 -0.3006519518 0)
(2.680070533 -0.2982487794 0)
(2.679009651 -0.2949690347 0)
(2.67705412 -0.2909045472 0)
(2.677614929 -0.2863927014 0)
(2.678669309 -0.2826687584 0)
(2.67810136 -0.2805329407 0)
(2.677212448 -0.2778010633 0)
(2.676356948 -0.2773170345 0)
(2.674332964 -0.2778969452 0)
(2.672525633 -0.2778049033 0)
(2.671171949 -0.2780674802 0)
(2.669895346 -0.2789916037 0)
(2.668925759 -0.2789515507 0)
(2.820407119 -0.5685145156 0)
(2.824269243 -0.5750784757 0)
(2.831620019 -0.5802722852 0)
(2.837397555 -0.6039490527 0)
(2.838148752 -0.6436587324 0)
(2.832303439 -0.6736236275 0)
(2.828031802 -0.6902212671 0)
(2.830113814 -0.6960334479 0)
(2.836723095 -0.692411983 0)
(2.841752644 -0.6999536703 0)
(2.844369592 -0.7256168831 0)
(2.839983075 -0.7454627543 0)
(2.83510852 -0.7609649769 0)
(2.832732594 -0.7724407196 0)
(2.833030658 -0.7783897128 0)
(2.833984841 -0.7826499437 0)
(2.833751752 -0.7898300941 0)
(2.833217663 -0.8065099652 0)
(2.833617194 -0.8197201766 0)
(2.831467263 -0.8360693033 0)
(2.830329213 -0.8398465332 0)
(2.832671918 -0.8386402478 0)
(2.8302856 -0.843927168 0)
(2.827641687 -0.8471255683 0)
(2.824523083 -0.8512406286 0)
(2.823378006 -0.8519068447 0)
(2.822650684 -0.853246069 0)
(2.822452215 -0.8504576696 0)
(2.822409547 -0.8448222325 0)
(2.81975254 -0.8349863378 0)
(2.814689407 -0.8194396379 0)
(2.808485922 -0.7997830975 0)
(2.802480631 -0.7735322433 0)
(2.793635513 -0.7403024 0)
(2.783318679 -0.7105735825 0)
(2.775253464 -0.6691642655 0)
(2.766856585 -0.6103860219 0)
(2.757322826 -0.5808273924 0)
(2.750423947 -0.5528571864 0)
(2.742977027 -0.4865399039 0)
(2.741612686 -0.4597080846 0)
(2.740859647 -0.4577605274 0)
(2.724983895 -0.4159052159 0)
(2.717939641 -0.3929065419 0)
(2.712723746 -0.3969621899 0)
(2.702016232 -0.3783062459 0)
(2.699126426 -0.355423803 0)
(2.696345962 -0.3566356571 0)
(2.698086553 -0.3575551102 0)
(2.691982904 -0.3411163402 0)
(2.692219219 -0.3325704814 0)
(2.690368294 -0.3222440644 0)
(2.686623805 -0.3155037709 0)
(2.683553838 -0.3104438174 0)
(2.681606944 -0.3032000112 0)
(2.675642185 -0.2952317905 0)
(2.673880485 -0.2863751927 0)
(2.672176703 -0.2854946916 0)
(2.670502987 -0.2873057455 0)
(2.67039107 -0.2864625487 0)
(2.670843425 -0.2848095883 0)
(2.668672259 -0.2850564698 0)
(2.664399225 -0.287919284 0)
(2.662754755 -0.2891043303 0)
(2.662391365 -0.2896341341 0)
(2.662874218 -0.2897249456 0)
(2.664194959 -0.2880200295 0)
(2.798202818 -0.4153000193 0)
(2.799407368 -0.4677457065 0)
(2.79470324 -0.4967061203 0)
(2.797584358 -0.5020712474 0)
(2.801533617 -0.4995169033 0)
(2.803105801 -0.5128244404 0)
(2.811085737 -0.5504309707 0)
(2.812537334 -0.5888032296 0)
(2.808875099 -0.609802737 0)
(2.812941029 -0.6123186632 0)
(2.818307901 -0.6148461451 0)
(2.823442866 -0.6382263532 0)
(2.821479829 -0.6647529702 0)
(2.817445296 -0.6879561074 0)
(2.815494988 -0.7094506311 0)
(2.815370748 -0.7262647888 0)
(2.817918986 -0.7360164198 0)
(2.822686335 -0.7387662331 0)
(2.826783953 -0.7476318092 0)
(2.830735986 -0.7722188401 0)
(2.824467393 -0.7939833392 0)
(2.821574145 -0.7962739588 0)
(2.822070817 -0.7984844221 0)
(2.824736789 -0.8164336179 0)
(2.824174631 -0.823856388 0)
(2.823169363 -0.8239058769 0)
(2.824750103 -0.8318599047 0)
(2.823116158 -0.8389928637 0)
(2.824305578 -0.8389754949 0)
(2.826009422 -0.8357854938 0)
(2.826861531 -0.8369631032 0)
(2.824262679 -0.8413000836 0)
(2.820099501 -0.8417082838 0)
(2.818494492 -0.8406384345 0)
(2.815416734 -0.8374668795 0)
(2.811181628 -0.8308522019 0)
(2.806071587 -0.8192467252 0)
(2.802584607 -0.8003351849 0)
(2.797112371 -0.7751108242 0)
(2.789769978 -0.7419939305 0)
(2.783620742 -0.696947871 0)
(2.777138164 -0.6633210603 0)
(2.763096982 -0.6204079758 0)
(2.748748671 -0.5604464559 0)
(2.742576801 -0.5363419457 0)
(2.73049728 -0.4975292362 0)
(2.719165631 -0.4319487527 0)
(2.722912286 -0.4159963659 0)
(2.726272812 -0.3958202087 0)
(2.711749699 -0.3428623338 0)
(2.710280662 -0.3236145712 0)
(2.709476673 -0.3178806661 0)
(2.696694554 -0.3007914409 0)
(2.690891379 -0.2893949521 0)
(2.683007 -0.2901214777 0)
(2.679196288 -0.2894190413 0)
(2.677633796 -0.2853131137 0)
(2.669904772 -0.2905097429 0)
(2.665226118 -0.3037368157 0)
(2.668760255 -0.3054131898 0)
(2.671124002 -0.298941862 0)
(2.667409613 -0.2973797011 0)
(2.666300653 -0.2985874675 0)
(2.665915826 -0.3000516774 0)
(2.667306528 -0.2994307062 0)
(2.668574177 -0.2963104121 0)
(2.670447288 -0.2911142402 0)
(2.758417382 -0.3204644576 0)
(2.760179166 -0.3263007153 0)
(2.767504119 -0.3691323314 0)
(2.773956609 -0.4204498923 0)
(2.771530601 -0.4512890067 0)
(2.775576258 -0.4599166689 0)
(2.782816003 -0.4581226349 0)
(2.789133857 -0.4710228505 0)
(2.79906768 -0.5094092442 0)
(2.797412372 -0.5424386654 0)
(2.795215281 -0.5551969434 0)
(2.797689249 -0.5644893015 0)
(2.801612259 -0.5786816479 0)
(2.803467546 -0.5895366284 0)
(2.802269076 -0.5993217622 0)
(2.803817731 -0.6199681041 0)
(2.805660194 -0.64394804 0)
(2.804047837 -0.6586290137 0)
(2.808022196 -0.6593874625 0)
(2.811374854 -0.6529936815 0)
(2.814468029 -0.6706659617 0)
(2.811931912 -0.7016184745 0)
(2.808009952 -0.708419165 0)
(2.807155203 -0.7161758042 0)
(2.808810039 -0.733726777 0)
(2.810980047 -0.7373734009 0)
(2.811064107 -0.739528147 0)
(2.816824443 -0.7551213571 0)
(2.815557124 -0.7764212367 0)
(2.815306397 -0.7816196579 0)
(2.817011682 -0.783300702 0)
(2.818925331 -0.8000483724 0)
(2.81629008 -0.8079693162 0)
(2.814425324 -0.8097079896 0)
(2.814061662 -0.8180896017 0)
(2.813929455 -0.8209618556 0)
(2.815024101 -0.8236203914 0)
(2.817632632 -0.8216251714 0)
(2.819325454 -0.8196292714 0)
(2.818135664 -0.8193283037 0)
(2.814790251 -0.8180395818 0)
(2.809900193 -0.814250318 0)
(2.803948967 -0.8047436366 0)
(2.79751131 -0.788660155 0)
(2.79123103 -0.7661745657 0)
(2.783007278 -0.739996496 0)
(2.775282116 -0.7009669365 0)
(2.770785793 -0.648755241 0)
(2.766633671 -0.6124553092 0)
(2.759348781 -0.5710908822 0)
(2.751252123 -0.5182479702 0)
(2.744718414 -0.4935179345 0)
(2.733223172 -0.4616554759 0)
(2.724965555 -0.4289367371 0)
(2.721152265 -0.4253435046 0)
(2.71824524 -0.4086330102 0)
(2.712497331 -0.3724366594 0)
(2.712218041 -0.3578536699 0)
(2.712508462 -0.3554210389 0)
(2.704397697 -0.3429261131 0)
(2.696707438 -0.3311110994 0)
(2.693639312 -0.31904566 0)
(2.692425928 -0.3133844215 0)
(2.688732079 -0.3085400853 0)
(2.684370949 -0.30369939 0)
(2.684165913 -0.2927341244 0)
(2.68330368 -0.2806541375 0)
(2.724483467 -0.2614702601 0)
(2.726141627 -0.2889210662 0)
(2.732558649 -0.2896141779 0)
(2.733578573 -0.2874131833 0)
(2.740189233 -0.3160520373 0)
(2.75539553 -0.363224418 0)
(2.756316723 -0.398141882 0)
(2.759843249 -0.4077496709 0)
(2.765846105 -0.4050721534 0)
(2.770272763 -0.4145630477 0)
(2.776499574 -0.4472293093 0)
(2.776699032 -0.47793352 0)
(2.775302931 -0.4971004441 0)
(2.776735178 -0.5121264583 0)
(2.780615931 -0.522671432 0)
(2.785297352 -0.5260672597 0)
(2.786770432 -0.5356971343 0)
(2.792784651 -0.5638174375 0)
(2.791160387 -0.593210063 0)
(2.789806974 -0.6025734 0)
(2.793186266 -0.6011678795 0)
(2.799365438 -0.619572725 0)
(2.799578743 -0.6413702795 0)
(2.796424803 -0.6499282179 0)
(2.798455992 -0.6675823634 0)
(2.798854991 -0.6833786219 0)
(2.801724131 -0.6868875923 0)
(2.806502404 -0.6909703113 0)
(2.811287922 -0.7092713491 0)
(2.809943268 -0.7238647326 0)
(2.809304807 -0.7289083039 0)
(2.809666463 -0.7415397679 0)
(2.806869175 -0.7599777714 0)
(2.805793463 -0.7644306651 0)
(2.807223486 -0.7618641529 0)
(2.811518087 -0.7707742143 0)
(2.815604298 -0.7844241051 0)
(2.812686272 -0.7949859187 0)
(2.815028547 -0.7942712543 0)
(2.817609222 -0.7951195503 0)
(2.816114667 -0.8074223774 0)
(2.810933864 -0.8123917514 0)
(2.809530947 -0.8085224461 0)
(2.809642546 -0.8055439393 0)
(2.809631252 -0.8049705882 0)
(2.809287373 -0.8053968569 0)
(2.809367985 -0.8023865401 0)
(2.80893851 -0.7950531431 0)
(2.805870767 -0.785378299 0)
(2.800807623 -0.7713811224 0)
(2.792507959 -0.745937149 0)
(2.784154615 -0.7139852257 0)
(2.774984196 -0.6844743931 0)
(2.761952418 -0.6324088534 0)
(2.753157966 -0.5873440042 0)
(2.748269483 -0.5524141535 0)
(2.735493278 -0.4772746621 0)
(2.73654703 -0.4228712302 0)
(2.745797866 -0.4156261471 0)
(2.730294738 -0.3731135674 0)
(2.716397882 -0.3231773358 0)
(2.714011239 -0.3124438867 0)
(2.714560955 -0.3129553376 0)
(2.702944291 -0.2928624182 0)
(2.696772446 -0.2799283318 0)
(2.694992319 -0.276265849 0)
(2.692572745 -0.2762605784 0)
(2.668784571 -0.1260837859 0)
(2.686069073 -0.1699058411 0)
(2.70301971 -0.2217979658 0)
(2.706429997 -0.2544982971 0)
(2.713601854 -0.2614066085 0)
(2.718823193 -0.2576038921 0)
(2.722635688 -0.2745356482 0)
(2.737855784 -0.3182939394 0)
(2.74135166 -0.3572314962 0)
(2.742763104 -0.3731130419 0)
(2.747266459 -0.3745811637 0)
(2.750838932 -0.3824478668 0)
(2.755598679 -0.4072844599 0)
(2.759368873 -0.4366761336 0)
(2.761813192 -0.4612006557 0)
(2.76327039 -0.4765233936 0)
(2.768098932 -0.4817547495 0)
(2.773686162 -0.4823788523 0)
(2.778078649 -0.4983256868 0)
(2.780723256 -0.5299011327 0)
(2.777954357 -0.5489194991 0)
(2.778351 -0.5555187847 0)
(2.78099424 -0.5636124895 0)
(2.784436241 -0.5695392801 0)
(2.787293539 -0.5794427234 0)
(2.790968817 -0.6019469608 0)
(2.789963595 -0.6163315541 0)
(2.791543925 -0.618617406 0)
(2.795048966 -0.6261126905 0)
(2.796227067 -0.6414843274 0)
(2.796001819 -0.6468492621 0)
(2.794643728 -0.6467973817 0)
(2.794527394 -0.6627195398 0)
(2.794614347 -0.6857332507 0)
(2.793058436 -0.6954006915 0)
(2.797681727 -0.6932458352 0)
(2.801958056 -0.6970118659 0)
(2.8080924 -0.7160050754 0)
(2.805741831 -0.7305867104 0)
(2.807646775 -0.7302238687 0)
(2.808408994 -0.7373849622 0)
(2.806050158 -0.7599591507 0)
(2.803505172 -0.7668580941 0)
(2.804302736 -0.7678130834 0)
(2.810013312 -0.7749265136 0)
(2.811815292 -0.7790063445 0)
(2.812787969 -0.7857585481 0)
(2.814715206 -0.7857621317 0)
(2.816187641 -0.7856348121 0)
(2.813421156 -0.788271802 0)
(2.807871097 -0.7888228634 0)
(2.805433081 -0.7854168144 0)
(2.804653246 -0.7827852682 0)
(2.801857803 -0.7791648171 0)
(2.799284589 -0.7700731251 0)
(2.794831641 -0.752205831 0)
(2.789064085 -0.7254406644 0)
(2.784225754 -0.6901937611 0)
(2.778258052 -0.6542369388 0)
(2.765798403 -0.6074202278 0)
(2.757542988 -0.5756866572 0)
(2.748718837 -0.5317769621 0)
(2.739381706 -0.4920920588 0)
(2.730412884 -0.4509600481 0)
(2.728999777 -0.433088368 0)
(2.727981153 -0.4071137859 0)
(2.728107243 -0.3854598615 0)
(2.645054425 -0.1034730807 0)
(2.651856533 -0.1080828474 0)
(2.653433143 -0.1071731164 0)
(2.663654137 -0.1353288873 0)
(2.686031855 -0.1826929734 0)
(2.692575812 -0.2209361998 0)
(2.697634115 -0.234769395 0)
(2.703036781 -0.2320185541 0)
(2.703162308 -0.2401332921 0)
(2.715110511 -0.2782895429 0)
(2.72287751 -0.318284867 0)
(2.724487126 -0.3399574723 0)
(2.728961298 -0.3458959859 0)
(2.733666848 -0.346768933 0)
(2.737043804 -0.3571757382 0)
(2.745338691 -0.3863793535 0)
(2.749930345 -0.4175913602 0)
(2.75018189 -0.4348245382 0)
(2.754403494 -0.4378377024 0)
(2.757507109 -0.4383092047 0)
(2.759779159 -0.454104688 0)
(2.763892977 -0.4819726533 0)
(2.764452857 -0.5054774312 0)
(2.765213355 -0.5161813137 0)
(2.769354697 -0.5153397113 0)
(2.773255739 -0.5184993471 0)
(2.780724333 -0.5412260189 0)
(2.781363109 -0.5578294084 0)
(2.780797451 -0.5639565203 0)
(2.782419417 -0.5802238641 0)
(2.782018316 -0.5990464937 0)
(2.782930483 -0.6052863771 0)
(2.78578847 -0.6068575962 0)
(2.789886019 -0.6216471788 0)
(2.790767426 -0.6409557035 0)
(2.78937482 -0.6485778884 0)
(2.793454868 -0.6484329231 0)
(2.799976239 -0.6585680742 0)
(2.800309229 -0.6774235302 0)
(2.798649393 -0.6836864889 0)
(2.799041474 -0.6832069856 0)
(2.800057835 -0.6970856665 0)
(2.797958379 -0.7161530258 0)
(2.79767937 -0.7209300025 0)
(2.801198147 -0.7182174137 0)
(2.807934413 -0.7257786687 0)
(2.811163424 -0.7416337784 0)
(2.809873403 -0.7482973399 0)
(2.811153076 -0.7481088963 0)
(2.81141487 -0.7557523009 0)
(2.806724938 -0.7686693262 0)
(2.803943266 -0.7724481362 0)
(2.805246644 -0.7716916798 0)
(2.809881901 -0.7683439548 0)
(2.809931246 -0.7675376824 0)
(2.809275366 -0.7689922746 0)
(2.81031299 -0.7692140229 0)
(2.808719184 -0.7661847827 0)
(2.806174525 -0.7629438219 0)
(2.800830843 -0.7571683813 0)
(2.794928413 -0.7451095535 0)
(2.788394895 -0.7249513184 0)
(2.782239673 -0.7012210647 0)
(2.773832815 -0.6618124727 0)
(2.767009689 -0.617964029 0)
(2.758134256 -0.5647725148 0)
(2.753571132 -0.5151658573 0)
(2.593034588 0.01032882992 0)
(2.6197442 -0.03783024201 0)
(2.630964806 -0.08010777541 0)
(2.638056498 -0.09386877815 0)
(2.64257696 -0.09178453224 0)
(2.646548505 -0.107884345 0)
(2.667047133 -0.1504218376 0)
(2.677047292 -0.1921234871 0)
(2.680465088 -0.2134313348 0)
(2.685891989 -0.2142212029 0)
(2.686303728 -0.2158825352 0)
(2.69396401 -0.2429396795 0)
(2.707851508 -0.280368385 0)
(2.711573208 -0.3074550846 0)
(2.715737255 -0.3187684422 0)
(2.722069501 -0.3188209205 0)
(2.724460405 -0.3232436531 0)
(2.731062707 -0.3503844658 0)
(2.736767164 -0.3836191328 0)
(2.737031389 -0.4042677886 0)
(2.740248781 -0.4108574704 0)
(2.743854356 -0.4101858747 0)
(2.745899867 -0.418945932 0)
(2.754866577 -0.4457501484 0)
(2.757518497 -0.4697949167 0)
(2.759176487 -0.478041051 0)
(2.762830535 -0.4826996881 0)
(2.766803262 -0.4938367022 0)
(2.769694672 -0.5025715909 0)
(2.770381222 -0.5098335629 0)
(2.770921153 -0.5296628027 0)
(2.769440259 -0.5491277248 0)
(2.770872965 -0.5536865287 0)
(2.775035959 -0.5505024038 0)
(2.780583533 -0.5594860532 0)
(2.783229307 -0.5777580907 0)
(2.78396764 -0.5834225669 0)
(2.78589966 -0.5845114263 0)
(2.787464768 -0.5991083078 0)
(2.784899106 -0.6169378732 0)
(2.784779898 -0.6217525108 0)
(2.786156301 -0.6230754637 0)
(2.789190017 -0.6350436326 0)
(2.791096157 -0.6494394215 0)
(2.790779973 -0.6567537055 0)
(2.79572968 -0.6558874353 0)
(2.800966848 -0.6632183623 0)
(2.801757372 -0.6822120508 0)
(2.799313996 -0.6915440215 0)
(2.799343245 -0.6917922517 0)
(2.797705359 -0.700027482 0)
(2.799311105 -0.7182168562 0)
(2.798887089 -0.7265026674 0)
(2.802301872 -0.7264627896 0)
(2.808485131 -0.7325856286 0)
(2.81239007 -0.7446152626 0)
(2.811133987 -0.7502560911 0)
(2.811029216 -0.7508374762 0)
(2.810702819 -0.7547110292 0)
(2.807223026 -0.7577892817 0)
(2.805805215 -0.7579134265 0)
(2.805548171 -0.7578417369 0)
(2.806196817 -0.7554417313 0)
(2.807502971 -0.7506420652 0)
(2.807012365 -0.7457411029 0)
(2.804405026 -0.7356593639 0)
(2.797715071 -0.7142743443 0)
(2.566030714 0.0411765436 0)
(2.574270092 0.03874570416 0)
(2.580980294 0.0263932454 0)
(2.603859004 -0.01371758706 0)
(2.618728179 -0.05855483017 0)
(2.624878949 -0.08132246974 0)
(2.630418175 -0.08175784816 0)
(2.631826079 -0.08926458729 0)
(2.647845445 -0.1238672259 0)
(2.662185509 -0.1647886924 0)
(2.666163599 -0.1908508482 0)