/*--------------------------------*- C++ -*----------------------------------*\
  =========                 |
  \\      /  F ield         | OpenFOAM: The Open Source CFD Toolbox
   \\    /   O peration     | Website:  https://openfoam.org
    \\  /    A nd           | Version:  7
     \\/     M anipulation  |
\*---------------------------------------------------------------------------*/
FoamFile
{
    version     2.0;
    format      ascii;
    class       volScalarField;
    location    "3.4";
    object      p;
}
// * * * * * * * * * * * * * * * * * * * * * * * * * * * * * * * * * * * * * //

dimensions      [1 -1 -2 0 0 0 0];

internalField   nonuniform List<scalar> 
555
(
0.6284092385
0.7426461681
0.8802667141
0.9609109689
0.9905830514
0.9998806682
0.9923511939
0.985035672
0.5216602526
0.5026452504
0.5219218071
0.5534050482
0.5505712627
0.5358411289
0.5376141049
0.5429814896
0.5587330499
0.6066534853
0.7235878528
0.8647507272
0.958377845
0.990950436
0.9998139439
0.9929315775
0.9840261372
0.5246959113
0.501908216
0.5180202704
0.5515547936
0.5528313143
0.5355042409
0.5359677109
0.5409934559
0.5544484785
0.586509283
0.6875951825
0.8482252661
0.9635507731
0.9900012765
0.9976376671
0.9930731955
0.9813456304
0.5282394416
0.5015520328
0.5140043363
0.5493115626
0.5551304615
0.5349049042
0.5347389568
0.5388543636
0.5504475737
0.5767550052
0.6486175075
0.8147825237
0.956348721
0.9813092275
0.9957649448
0.9930315812
0.9788051404
0.5323082382
0.5022968779
0.5098417533
0.5469368707
0.5576571466
0.5350859374
0.5340526264
0.5368502985
0.5462363449
0.5689123276
0.6268952325
0.7647974755
0.9155955344
0.9711168017
0.9946598432
0.9933418444
0.9783964028
0.9846639982
0.5367389222
0.5035010477
0.5055877712
0.5444065045
0.5601453008
0.5360815533
0.533499846
0.5357882711
0.5436117927
0.5597185358
0.6087805385
0.7219154757
0.8677693645
0.9618409906
0.9962391628
0.994748487
0.9791975955
0.9846563518
0.5415161235
0.5060597928
0.5015564098
0.5418598198
0.5625214176
0.5371771507
0.5327818617
0.5345597977
0.5416932858
0.5546425581
0.5891687618
0.6922583385
0.8330488694
0.9472383777
0.9962047717
0.9965001713
0.9786593621
0.9853368429
0.5462667669
0.5087872156
0.4979020328
0.5393514967
0.564816614
0.5387360602
0.5318023933
0.5328580414
0.5397329154
0.5516080837
0.5770342664
0.6564438495
0.8174371658
0.9403152302
0.9954239569
0.9979782542
0.9783598716
0.9856283002
0.5507733153
0.5121524396
0.4924300085
0.5371112122
0.5670835397
0.540859378
0.5313806652
0.5315273517
0.537839794
0.5476101942
0.5689101864
0.6316671024
0.7876031798
0.9296905727
0.9908349367
0.9981664703
0.9788485034
0.9853215927
0.5546507137
0.5158587192
0.4894005625
0.5371852499
0.5690399673
0.5427490758
0.5312650647
0.530437561
0.5361162953
0.5443543591
0.560978632
0.6135660446
0.7443476472
0.9072692781
0.9863204899
0.9977999899
0.9781384246
0.9837689711
0.5578476075
0.5190982912
0.4892926752
0.5404118355
0.5722685564
0.547429341
0.5308898718
0.5293454925
0.5348504927
0.5428114763
0.5555884191
0.5935353317
0.7124238639
0.8831232213
0.9827061266
0.999159944
0.9780564477
0.9829275763
0.5810223675
0.5261364423
0.4762764383
0.5355095593
0.5736852735
0.5526973204
0.5322303686
0.5285980685
0.5333667752
0.5405705464
0.5503565475
0.5761377022
0.6606794505
0.8227283832
0.9598016242
0.998375996
0.9778377716
0.9828074357
1.091317995
0.6698528997
0.5679085293
0.576694772
0.5833487262
0.5651294408
0.5357140614
0.5293770372
0.5308044685
0.5351031739
0.5380844311
0.5456011102
0.5781368671
0.6816884244
0.8508341614
0.9078266791
0.965209239
0.9822058818
1.383133666
1.153084469
0.9099131989
0.7512742796
0.6359057789
0.5655263894
0.541754219
0.5374590404
0.5423843257
0.5444849456
0.5386345913
0.5334897256
0.5361392326
0.5533936454
0.6094416735
0.7376297252
0.8910783596
0.9405400029
1.442290315
1.360861971
1.170255603
0.9549916821
0.7696460078
0.6628686915
0.6262298793
0.6074481773
0.585911727
0.557924759
0.5379361834
0.5281229829
0.530598456
0.544614851
0.55109092
0.5811973421
0.6641324765
0.7955235411
1.446712813
1.426439223
1.344313753
1.177491653
1.005431251
0.8589927131
0.7450527331
0.6695929637
0.6191762941
0.5848491266
0.5674462125
0.5536050782
0.5499898861
0.5501693181
0.5470102951
0.544947287
0.5551397177
0.6188057339
1.449021492
1.441971517
1.414224689
1.331477351
1.190554812
1.031374465
0.9041297015
0.7833834879
0.6878142349
0.6701313183
0.6475500452
0.6089642895
0.5739459682
0.5552749297
0.5501005483
0.5478562222
0.548432992
0.553907924
1.455756031
1.448542321
1.436972221
1.402745308
1.323717428
1.195779436
1.063178966
0.9518150469
0.8404563761
0.7480701803
0.6978917323
0.6641029565
0.6127305706
0.5820694335
0.5843206014
0.5793295578
0.5641554189
0.5546625287
1.461501753
1.455328735
1.447441195
1.432269063
1.394542842
1.319960872
1.203358513
1.080850143
0.9792933587
0.8667731002
0.7677040007
0.7437240861
0.7117977336
0.6554891928
0.6205866282
0.6082364292
0.5851242706
0.5601226931
1.470331319
1.465378653
1.456359344
1.447624712
1.430081027
1.389640829
1.316754259
1.206498068
1.098035458
1.007680015
0.8973755042
0.8199056514
0.7802999339
0.725739551
0.6585947856
0.6439357758
0.6348618298
0.6073092035
1.467202766
1.459917206
1.460217337
1.459015844
1.45000677
1.426821223
1.38243119
1.310129131
1.209262285
1.113452589
1.023292809
0.9174689427
0.8471525852
0.8088882118
0.7502294106
0.7059308155
0.6875993155
0.6566933487
1.420887201
1.444441294
1.468707354
1.46926097
1.463920256
1.449183456
1.421783474
1.376136016
1.305452615
1.211814955
1.127192454
1.036894703
0.942260854
0.8880588168
0.8349708269
0.7674064378
0.7274031149
0.7049932336
1.343119331
1.441309657
1.473585519
1.468682903
1.458501368
1.455565231
1.444714818
1.417748867
1.370983526
1.300600828
1.217079338
1.135578292
1.044723294
0.9645499025
0.9096271096
0.847884192
0.7918212022
0.7679428994
1.185783745
1.359163574
1.444315691
1.442073449
1.453332526
1.46033623
1.45714955
1.443454277
1.41432815
1.366490744
1.298166977
1.221300366
1.141159244
1.055275689
0.9883394849
0.9307185467
0.8666339995
0.8204753878
1.053906266
1.194247909
1.337817241
1.4135922
1.460586032
1.464948143
1.461546309
1.456492868
1.441554884
1.411215429
1.361812009
1.295887742
1.223760732
1.144004658
1.068269782
1.005066642
0.9401800023
0.8827456838
1.007104444
1.057773606
1.189296294
1.345121585
1.444189564
1.447009497
1.452700642
1.456209752
1.453639799
1.439179297
1.407805776
1.358194311
1.295558448
1.224037401
1.148867614
1.080816633
1.017064636
0.954117982
1.000426764
1.009468067
1.066988661
1.195997724
1.347291423
1.401308271
1.442351267
1.456780761
1.456562242
1.45177035
1.435881531
1.403294717
1.354052272
1.293343814
1.223639509
1.154532208
1.090924483
1.024300298
1.000012285
1.000845299
1.01454034
1.068843372
1.189919064
1.343721844
1.435199354
1.444203537
1.451389974
1.453328505
1.449307943
1.432502635
1.399015971
1.350748361
1.290988959
1.224032905
1.160995468
1.097323067
1.000000157
1.00004521
1.00191562
1.014454608
1.073676052
1.199768275
1.343462574
1.397433933
1.439230193
1.453004694
1.45239397
1.446652796
1.428979131
1.394988243
1.347002735
1.287617342
1.225603012
1.16522343
1.000000001
1.000001483
1.000159667
1.001882347
1.017771526
1.074452938
1.19413853
1.343947049
1.431185825
1.44110035
1.447800334
1.450099483
1.445017396
1.426109259
1.391258341
1.343761109
1.286300164
1.227059819
1
1.000000033
1.000008161
1.000154003
1.002743049
1.017015165
1.078341603
1.202807531
1.341671611
1.393478536
1.435796165
1.450546665
1.449305243
1.442502767
1.423149723
1.388345624
1.340354722
1.284546894
1
1
1.000000258
1.000007837
1.000272835
1.002502322
1.01986333
1.077951832
1.195196986
1.340594921
)
;

boundaryField
{
    inlet
    {
        type            fixedValue;
        value           nonuniform 0();
    }
    outlet
    {
        type            zeroGradient;
    }
    bottom
    {
        type            slip;
    }
    top
    {
        type            slip;
    }
    obstacle
    {
        type            zeroGradient;
    }
    defaultFaces
    {
        type            empty;
    }
    procBoundary27to20
    {
        type            processor;
        value           nonuniform List<scalar> 
16
(
1.456927339
1.450399514
1.447982456
1.44896482
1.452806697
1.465006977
1.46241573
1.467430387
1.466999705
1.403515341
1.247959351
1.066480499
1.004703202
1.00003061
0.9999999373
0.9999999843
)
;
    }
    procBoundary27to21
    {
        type            processor;
        value           nonuniform List<scalar> 
18
(
0.6429854898
0.7808416291
0.9172502457
0.9693153285
0.9876228219
0.998578946
0.9902236075
0.9843660106
0.5190570812
0.503966944
0.5257474953
0.5546903925
0.547559955
0.536169522
0.5391956317
0.5460062595
0.5670097533
0.5670097533
)
;
    }
    procBoundary27to26
    {
        type            processor;
        value           nonuniform List<scalar> 4(0.9999999993 1 1 1);
    }
    procBoundary27to28
    {
        type            processor;
        value           nonuniform List<scalar> 
28
(
0.993342654
0.9924615348
0.9893498337
0.9858432181
0.9858432181
0.9924392089
0.9939331284
0.9950475123
0.9951625767
0.9941891308
0.9922533753
0.9919613645
0.9918529747
0.9906249706
0.9754898196
0.9198892672
0.7276948227
0.5802873687
0.5557105799
0.5598150952
0.5906178522
0.6157031822
0.6637142161
0.735496991
0.7854179054
0.8438034258
0.9065602801
0.9676443371
)
;
    }
    procBoundary27to33
    {
        type            processor;
        value           nonuniform List<scalar> 
19
(
1.428965781
1.440081051
1.444224931
1.44625951
1.440825483
1.420621964
1.38512974
1.337630379
1
1
1.000000005
1.000000258
1.000016786
1.000236441
1.003265115
1.018616676
1.079961827
1.428965781
1.202589883
)
;
    }
    procBoundary27to34
    {
        type            processor;
        value           nonuniform List<scalar> 4(1.033034547 1.102369878 1.168888533 1.22867631);
    }
}


// ************************************************************************* //
