/*--------------------------------*- C++ -*----------------------------------*\
  =========                 |
  \\      /  F ield         | OpenFOAM: The Open Source CFD Toolbox
   \\    /   O peration     | Website:  https://openfoam.org
    \\  /    A nd           | Version:  7
     \\/     M anipulation  |
\*---------------------------------------------------------------------------*/
FoamFile
{
    version     2.0;
    format      ascii;
    class       volVectorField;
    location    "3.9";
    object      U;
}
// * * * * * * * * * * * * * * * * * * * * * * * * * * * * * * * * * * * * * //

dimensions      [0 1 -1 0 0 0 0];

internalField   nonuniform List<vector> 
2222
(
(3 2.10730764e-16 0)
(3 -6.527649368e-17 0)
(3 -1.174163908e-15 0)
(3 1.586820504e-16 0)
(3 3.884545849e-16 0)
(3 2.515700217e-16 0)
(3 9.837966301e-16 0)
(3 1.69218596e-15 0)
(3 3.216674489e-15 0)
(3 3.997784632e-15 0)
(3 4.280999367e-15 0)
(3 2.660687322e-15 0)
(3 2.230429217e-15 0)
(3 3.501220862e-15 0)
(3 4.437223352e-15 0)
(3 3.906073388e-15 0)
(3 1.032805129e-15 0)
(3 -1.509693471e-15 0)
(3 -5.916189999e-15 0)
(3 -6.482018867e-15 0)
(3 -5.718957267e-15 0)
(3 -4.372239605e-15 0)
(3 -3.370582415e-15 0)
(3 -3.530203788e-15 0)
(3 -5.63522029e-15 0)
(3 -5.905921975e-15 0)
(3 -4.799196217e-15 0)
(3 -4.047803505e-15 0)
(3 -3.432337849e-15 0)
(3 -2.924757067e-15 0)
(3 -1.819987812e-15 0)
(3 -8.383979474e-16 0)
(3 -5.88993405e-16 0)
(3 8.043665538e-16 0)
(3 1.203341148e-15 0)
(3 2.481008567e-15 0)
(3 2.095168598e-15 0)
(3 1.905558074e-15 0)
(3 1.783620228e-16 0)
(3 -1.314849831e-16 0)
(3 -1.723730014e-15 0)
(3 -2.295380073e-15 0)
(3 -3.323527655e-15 0)
(3 -1.744111042e-15 0)
(3 -4.085759159e-15 0)
(3 -3.786992889e-15 0)
(3 -3.38280334e-15 0)
(3 -3.316504998e-15 0)
(3 -2.664065086e-15 0)
(3 2.926413855e-17 0)
(3 1.558506148e-15 0)
(3 4.400693315e-15 0)
(3 5.378768382e-15 0)
(3 6.520692616e-15 0)
(3 1.037871779e-14 0)
(3 1.226222313e-14 0)
(3 7.669219465e-15 0)
(3 8.28471019e-15 0)
(3 9.547375903e-15 0)
(3 8.135085848e-15 0)
(3 6.301694142e-15 0)
(3 5.443826878e-15 0)
(3 4.973415946e-15 0)
(3 2.258382833e-15 0)
(3 8.1901884e-16 0)
(3 1.220505662e-15 0)
(3 2.01008638e-15 0)
(3 1.685724951e-15 0)
(3 8.711213126e-16 0)
(3 4.580197832e-15 0)
(3 6.788807152e-15 0)
(3 6.812302698e-15 0)
(3 7.09769685e-15 0)
(3 6.794210611e-15 0)
(3 6.056760427e-15 0)
(3 5.322464002e-15 0)
(3 6.066896507e-15 0)
(3 4.396899384e-15 0)
(3 4.539692254e-15 0)
(3 4.55708129e-15 0)
(3 4.594624456e-15 0)
(3 3.398596395e-15 0)
(3 -1.303350748e-15 0)
(3 -8.569372006e-15 0)
(3 -1.397943501e-14 0)
(3 -1.315528709e-14 0)
(3 -9.496624622e-15 0)
(3 -2.555172249e-15 0)
(3 -1.688062584e-15 0)
(3 -1.761640606e-15 0)
(3 -3.399949608e-15 0)
(3 -3.489805112e-15 0)
(3 -1.790213683e-15 0)
(3 -9.609032873e-16 0)
(3 -3.184939914e-17 0)
(3 1.305787386e-15 0)
(3 2.583981926e-15 0)
(3 3.610764738e-15 0)
(3 4.194270696e-15 0)
(3 6.637785014e-15 0)
(3 6.508911983e-15 0)
(3 6.466675552e-15 0)
(3 2.619078421e-15 0)
(3 7.802213788e-16 0)
(3 -2.274906693e-15 0)
(3 -1.671730668e-15 0)
(3 -5.915574361e-15 0)
(3 -7.701780523e-15 0)
(3 -1.315774845e-14 0)
(3 -1.038651027e-14 0)
(3 -7.827431682e-15 0)
(3 -5.985140874e-15 0)
(3 -4.333142323e-15 0)
(3 -1.749022084e-15 0)
(3 -2.542151854e-16 0)
(3 7.827997676e-15 0)
(3 8.467410686e-15 0)
(3 1.349343032e-14 0)
(3 1.512361927e-14 0)
(3 2.197100116e-14 0)
(3 2.571472905e-14 0)
(3 2.59744707e-14 0)
(3 1.851721653e-14 0)
(3 1.40078993e-14 0)
(3 1.281088581e-14 0)
(3 1.033947483e-14 0)
(3 7.257322819e-15 0)
(3 6.416119972e-15 0)
(3 4.977258873e-15 0)
(3 -1.685824696e-16 0)
(3 -2.46075875e-15 0)
(3 -2.219403625e-15 0)
(3 1.563033458e-15 0)
(3 2.537779723e-15 0)
(3 3.44027124e-15 0)
(3 8.212482162e-15 0)
(3 1.0659866e-14 0)
(3 1.097292717e-14 0)
(3 1.129732126e-14 0)
(3 1.032077917e-14 0)
(3 9.10060461e-15 0)
(3 6.81009874e-15 0)
(3 6.009693587e-15 0)
(3 4.853272293e-15 0)
(3 5.296632586e-15 0)
(3 3.551347366e-15 0)
(3 5.596222464e-16 0)
(3 -2.55627703e-15 0)
(3 -2.300457815e-15 0)
(3 -5.337202805e-15 0)
(3 -5.083819805e-15 0)
(3 -3.838701611e-15 0)
(3 -3.47195268e-15 0)
(3 -5.663100284e-16 0)
(3 1.907102272e-15 0)
(3 3.055748638e-15 0)
(3 5.000163712e-15 0)
(3 5.624866758e-15 0)
(3 6.817268226e-15 0)
(3 9.512441334e-15 0)
(3 9.964970918e-15 0)
(3 8.798929692e-15 0)
(3 1.031521167e-14 0)
(3 8.796739709e-15 0)
(3 1.011793036e-14 0)
(3 1.149575139e-14 0)
(3 1.016606918e-14 0)
(3 4.963985449e-15 0)
(3 1.827261355e-15 0)
(3 -1.591320396e-15 0)
(3 -5.478249276e-15 0)
(3 -6.925800681e-15 0)
(3 -1.246566279e-14 0)
(3 -1.854699521e-14 0)
(3 -2.067845472e-14 0)
(3 -1.87032199e-14 0)
(3 -1.347264359e-14 0)
(3 -9.479369921e-15 0)
(3 -8.985065464e-16 0)
(3 6.405086187e-15 0)
(3 1.256888266e-14 0)
(3 1.772571311e-14 0)
(3 2.085459241e-14 0)
(3 2.200706211e-14 0)
(3 2.432704033e-14 0)
(3 2.86649122e-14 0)
(3 3.245518311e-14 0)
(3 3.244443012e-14 0)
(3 2.972958261e-14 0)
(3 2.48120065e-14 0)
(3 1.77115742e-14 0)
(3 1.150917094e-14 0)
(3 1.116089009e-14 0)
(3 5.71693186e-15 0)
(3 -1.961603968e-16 0)
(3 -2.925375e-15 0)
(3 -3.069944399e-15 0)
(3 -2.585564983e-15 0)
(3 8.844361937e-17 0)
(3 1.662790712e-15 0)
(3 2.278959962e-15 0)
(3 4.349771236e-15 0)
(3 3.38534648e-15 0)
(3 3.366571614e-15 0)
(3 4.845837722e-15 0)
(3 5.40451935e-15 0)
(3 5.534451108e-15 0)
(3 6.274613422e-15 0)
(3 4.186160836e-15 0)
(3 1.609526086e-15 0)
(3 7.880071618e-16 0)
(3 3.210316476e-15 0)
(3 2.307869597e-15 0)
(3 1.963356927e-15 0)
(3 5.082806324e-15 0)
(3 8.424965002e-15 0)
(3 1.007183519e-14 0)
(3 8.925994203e-15 0)
(3 8.263145708e-15 0)
(3 7.744638372e-15 0)
(3 7.641391945e-15 0)
(3 6.681135428e-15 0)
(3 3.960388218e-15 0)
(3 3.053297008e-15 0)
(3 1.480547869e-15 0)
(3 8.054334073e-16 0)
(3 6.456389549e-16 0)
(3 3.893683557e-16 0)
(3 1.33060957e-15 0)
(3 2.925370417e-15 0)
(3 4.532557299e-15 0)
(3 2.861341999e-15 0)
(3 4.612266774e-15 0)
(3 4.343416416e-15 0)
(3 4.725275692e-15 0)
(3 1.901868967e-15 0)
(3 -2.583634645e-15 0)
(3 -9.533167275e-15 0)
(3 -1.516265894e-14 0)
(3 -1.941031054e-14 0)
(3 -2.526001986e-14 0)
(3 -2.339391326e-14 0)
(3 -1.340934637e-14 0)
(3 -1.772660229e-15 0)
(3 4.168570087e-15 0)
(3 6.897972365e-15 0)
(3 9.035304974e-15 0)
(3 1.337214567e-14 0)
(3 1.729823112e-14 0)
(3 1.936758857e-14 0)
(3 2.458642455e-14 0)
(3 2.310670548e-14 0)
(3 2.329068063e-14 0)
(3 2.235058034e-14 0)
(3 1.774679896e-14 0)
(3 1.581823185e-14 0)
(3 9.263511316e-15 0)
(3 2.964385341e-15 0)
(3 4.682005757e-16 0)
(3 -3.927097012e-15 0)
(3 -5.404447102e-15 0)
(3 -5.332839229e-15 0)
(3 -5.291794895e-15 0)
(3 -6.813009184e-15 0)
(3 -1.72450525e-16 0)
(3 2.038579132e-16 0)
(3 -4.964205831e-16 0)
(3 -2.597092824e-15 0)
(3 -5.832770235e-15 0)
(3 -5.794038453e-15 0)
(3 -5.209872489e-15 0)
(3 -3.671018702e-15 0)
(3 -1.044415341e-15 0)
(3 4.506176714e-16 0)
(3 1.163473982e-15 0)
(3 1.699287594e-15 0)
(3 2.17429883e-15 0)
(3 3.725778141e-15 0)
(3 5.061636404e-15 0)
(3 6.850264759e-15 0)
(3 6.374645137e-15 0)
(3 7.921259018e-15 0)
(3 7.936933771e-15 0)
(3 6.904398222e-15 0)
(3 5.34540272e-15 0)
(3 3.347630896e-15 0)
(3 2.354219946e-15 0)
(3 1.705525933e-15 0)
(3 9.764025821e-16 0)
(3 -2.868437174e-15 0)
(3 -5.532674175e-15 0)
(3 -9.662048281e-15 0)
(3 -1.021149785e-14 0)
(3 -7.807136406e-15 0)
(3 -6.392112549e-15 0)
(3 -1.668751663e-15 0)
(3 -7.968734736e-16 0)
(3 1.55468707e-16 0)
(3 3.970330906e-15 0)
(3 6.623780226e-15 0)
(3 8.484696277e-15 0)
(3 7.886807693e-15 0)
(3 4.46767824e-15 0)
(3 -2.395552449e-15 0)
(3 -6.76927618e-15 0)
(3 -3.13206216e-15 0)
(3 -1.622918487e-15 0)
(3 1.907003965e-15 0)
(3 8.232394206e-15 0)
(3 1.509409696e-14 0)
(3 1.467169517e-14 0)
(3 1.326821576e-14 0)
(3 1.188554632e-14 0)
(3 1.126937269e-14 0)
(3 1.28216849e-14 0)
(3 1.207389748e-14 0)
(3 1.290948958e-14 0)
(3 1.393004456e-14 0)
(3 1.093127563e-14 0)
(3 1.346368362e-14 0)
(3 1.351506826e-14 0)
(3 8.567176151e-15 0)
(3 4.305809194e-15 0)
(3 2.39158298e-15 0)
(3 -5.938458155e-15 0)
(3 -1.1165845e-14 0)
(3 -1.185154964e-14 0)
(3 -1.059942408e-14 0)
(3 -1.110299243e-14 0)
(3 -1.25194058e-14 0)
(3 -1.501006562e-15 0)
(3 -7.307032003e-16 0)
(3 -2.386986229e-15 0)
(3 -3.921055136e-15 0)
(3 -4.05022389e-15 0)
(3 -4.136256226e-15 0)
(3 -4.457218605e-15 0)
(3 -4.027763971e-15 0)
(3 -2.723178162e-15 0)
(3 -2.890589102e-15 0)
(3 -8.839223628e-16 0)
(3 1.621229174e-15 0)
(3 1.554915757e-15 0)
(3 9.919773487e-16 0)
(3 1.03287876e-15 0)
(3 3.050737043e-17 0)
(3 -3.711948261e-15 0)
(3 -2.462967954e-15 0)
(3 -2.596875299e-16 0)
(3 7.114179561e-18 0)
(3 -1.323319253e-15 0)
(3 -4.10071246e-15 0)
(3 -4.854588973e-15 0)
(3 -6.427037712e-15 0)
(3 -2.778690841e-15 0)
(3 -2.75173637e-15 0)
(3 -2.439773412e-15 0)
(3 -3.81187022e-15 0)
(3 -5.028798599e-15 0)
(3 -3.766314686e-15 0)
(3 -2.562854863e-15 0)
(3 -1.496805887e-15 0)
(3 1.008628511e-15 0)
(3 3.795035565e-15 0)
(3 4.041671071e-15 0)
(3 6.478930295e-15 0)
(3 7.77186127e-15 0)
(3 9.038241202e-15 0)
(3 9.840078451e-15 0)
(3 9.504632026e-15 0)
(3 9.796086798e-15 0)
(3 1.589551885e-14 0)
(3 2.737653365e-14 0)
(3 2.741048183e-14 0)
(3 2.151258683e-14 0)
(3 2.202872611e-14 0)
(3 1.858040825e-14 0)
(3 1.526639596e-14 0)
(3 1.271462757e-14 0)
(3 1.102200246e-14 0)
(3 1.429148692e-14 0)
(3 1.152328865e-14 0)
(3 8.645258827e-15 0)
(3 7.265198447e-15 0)
(3 2.743350799e-15 0)
(3 1.010810569e-15 0)
(3 -1.822414233e-15 0)
(3 -3.117930062e-15 0)
(3 -2.464328127e-15 0)
(3 -2.150787572e-15 0)
(3 -5.67491782e-15 0)
(3 -7.343237926e-15 0)
(3 -8.687598572e-15 0)
(3 -1.288535733e-14 0)
(3 -1.221626416e-14 0)
(3 -1.144683637e-14 0)
(3 -1.166756738e-15 0)
(3 -2.132341543e-15 0)
(3 -2.069947896e-15 0)
(3 -8.03719504e-16 0)
(3 -4.10252081e-16 0)
(3 2.026898736e-15 0)
(3 2.746353618e-15 0)
(3 2.145523867e-15 0)
(3 3.488714677e-16 0)
(3 -2.283967451e-15 0)
(3 -3.41421213e-15 0)
(3 -3.489311264e-15 0)
(3 -3.490350659e-15 0)
(3 -4.33395764e-15 0)
(3 -4.661070596e-15 0)
(3 -4.910544495e-15 0)
(3 -6.980543471e-15 0)
(3 -6.633322978e-15 0)
(3 -6.970167942e-15 0)
(3 -6.066211687e-15 0)
(3 -6.606554327e-15 0)
(3 -4.567152126e-15 0)
(3 -3.985773429e-15 0)
(3 -2.209929301e-15 0)
(3 -2.453281891e-15 0)
(3 -1.749679164e-15 0)
(3 2.191879501e-15 0)
(3 4.772233403e-15 0)
(3 8.125505987e-15 0)
(3 8.939718293e-15 0)
(3 1.039902575e-14 0)
(3 1.088975138e-14 0)
(3 8.793852541e-15 0)
(3 8.250449082e-15 0)
(3 7.083721674e-15 0)
(3 7.40422603e-15 0)
(3 7.488130432e-15 0)
(3 8.285205508e-15 0)
(3 1.417597143e-14 0)
(3 2.282254074e-14 0)
(3 2.831516108e-14 0)
(3 2.974190532e-14 0)
(3 3.020264137e-14 0)
(3 2.629585344e-14 0)
(3 1.811740024e-14 0)
(3 1.747086484e-14 0)
(3 1.90579833e-14 0)
(3 1.779266094e-14 0)
(3 1.177344262e-14 0)
(3 8.340407571e-15 0)
(3 4.639123772e-15 0)
(3 5.432158054e-15 0)
(3 4.369644575e-15 0)
(3 1.639556364e-16 0)
(3 -4.409729786e-15 0)
(3 -8.033574662e-15 0)
(3 -9.227100882e-15 0)
(3 -8.914020079e-15 0)
(3 -8.273120158e-15 0)
(3 -7.947913197e-15 0)
(3 -6.976681651e-15 0)
(3 -5.487709386e-15 0)
(3 -4.732030867e-15 0)
(3 -6.525768543e-15 0)
(3 -7.64960781e-15 0)
(3 -3.522038264e-15 0)
(3 1.160734296e-15 0)
(3 9.631747213e-16 0)
(3 1.271056618e-15 0)
(3 1.029121385e-15 0)
(3 1.619389954e-15 0)
(3 4.790866264e-15 0)
(3 6.192649472e-15 0)
(3 4.217397335e-15 0)
(3 2.658083056e-15 0)
(3 1.133111077e-15 0)
(3 -1.398422101e-15 0)
(3 -1.961245655e-15 0)
(3 -1.459819622e-15 0)
(3 -1.988981969e-15 0)
(3 -1.446183355e-15 0)
(3 -4.055359753e-16 0)
(3 -8.887079291e-16 0)
(3 -2.105957002e-15 0)
(3 -2.158115614e-15 0)
(3 -1.990078605e-15 0)
(3 -4.162550675e-16 0)
(3 3.138886018e-15 0)
(3 6.628416737e-15 0)
(3 7.860284686e-15 0)
(3 8.353708544e-15 0)
(3 8.52638637e-15 0)
(3 1.087772517e-14 0)
(3 1.909415795e-14 0)
(3 2.240740288e-14 0)
(3 2.035800017e-14 0)
(3 1.91748693e-14 0)
(3 1.743178964e-14 0)
(3 1.042312723e-14 0)
(3 8.536410967e-15 0)
(3 6.98569875e-15 0)
(3 6.429631123e-15 0)
(3 5.612888045e-15 0)
(3 1.20577632e-14 0)
(3 1.47028027e-14 0)
(3 1.896943079e-14 0)
(3 2.599573974e-14 0)
(3 2.637444626e-14 0)
(3 2.601505967e-14 0)
(3 1.991592137e-14 0)
(3 1.877255588e-14 0)
(3 1.70518628e-14 0)
(3 1.685818015e-14 0)
(3 1.413612376e-14 0)
(3 1.060392635e-14 0)
(3 4.089264851e-15 0)
(3 -1.86274418e-15 0)
(3 -2.595475838e-15 0)
(3 1.549027329e-15 0)
(3 3.495469628e-15 0)
(3 -1.507717126e-16 0)
(3 -2.52910947e-15 0)
(3 -3.44447276e-15 0)
(3 -7.319179556e-15 0)
(3 -8.520370768e-15 0)
(3 -8.797757367e-15 0)
(3 -6.978468949e-15 0)
(3 -5.988180841e-15 0)
(3 -1.665850091e-15 0)
(3 3.632826914e-15 0)
(3 5.143401727e-15 0)
(3 6.700342809e-15 0)
(3 9.856633731e-16 0)
(3 1.416757544e-15 0)
(3 2.256212531e-15 0)
(3 9.45867422e-16 0)
(3 1.61647923e-15 0)
(3 1.613653911e-15 0)
(3 1.242738236e-15 0)
(3 1.546349734e-15 0)
(3 8.250014642e-16 0)
(3 -4.895696075e-16 0)
(3 -1.247469468e-15 0)
(3 4.643099464e-16 0)
(3 2.348331905e-16 0)
(3 8.32504621e-16 0)
(3 2.735909615e-15 0)
(3 4.659671567e-15 0)
(3 6.543546369e-15 0)
(3 1.022372635e-14 0)
(3 1.209563483e-14 0)
(3 1.384604608e-14 0)
(3 1.612228309e-14 0)
(3 1.662779644e-14 0)
(3 1.731697605e-14 0)
(3 1.30039708e-14 0)
(3 9.250972636e-15 0)
(3 1.071075142e-14 0)
(3 1.379991276e-14 0)
(3 1.249539294e-14 0)
(3 1.663081963e-14 0)
(3 1.660890688e-14 0)
(3 1.482945394e-14 0)
(3 1.33010145e-14 0)
(3 1.355925566e-14 0)
(3 1.225614475e-14 0)
(3 1.115059962e-14 0)
(3 9.173951214e-15 0)
(3 7.905237668e-15 0)
(3 7.032329144e-15 0)
(3 8.359547753e-15 0)
(3 9.847033472e-15 0)
(3 1.815603834e-14 0)
(3 2.23413466e-14 0)
(3 1.86589023e-14 0)
(3 1.137973178e-14 0)
(3 8.673287799e-15 0)
(3 7.308856699e-15 0)
(3 6.122223511e-15 0)
(3 5.277707411e-15 0)
(3 4.393610589e-15 0)
(3 2.11981506e-15 0)
(3 1.752867054e-15 0)
(3 -1.003623123e-15 0)
(3 2.636525008e-15 0)
(3 9.093283206e-15 0)
(3 8.495817584e-15 0)
(3 8.308743781e-15 0)
(3 3.148867478e-15 0)
(3 -2.34497827e-15 0)
(3 -5.908481491e-15 0)
(3 -6.655061557e-15 0)
(3 -6.25236663e-15 0)
(3 -5.462090823e-15 0)
(3 -4.402884299e-16 0)
(3 7.467102927e-15 0)
(3 1.110709514e-14 0)
(3 9.602972139e-15 0)
(3 1.613801607e-16 0)
(3 1.674677344e-15 0)
(3 9.296339208e-16 0)
(3 7.601174189e-16 0)
(3 2.26005113e-16 0)
(3 -8.854347926e-16 0)
(3 -2.884861142e-15 0)
(3 -2.345123781e-15 0)
(3 -1.068808151e-15 0)
(3 -9.661532271e-16 0)
(3 -1.722346627e-15 0)
(3 -2.112611767e-15 0)
(3 -2.731296672e-15 0)
(3 -1.189437845e-15 0)
(3 -8.131642708e-16 0)
(3 8.014720513e-16 0)
(3 7.892894427e-15 0)
(3 1.034236712e-14 0)
(3 9.709582541e-15 0)
(3 1.066111043e-14 0)
(3 1.12748361e-14 0)
(3 9.660678138e-15 0)
(3 8.661947016e-15 0)
(3 8.684734309e-15 0)
(3 5.809724857e-15 0)
(3 3.811347427e-15 0)
(3 3.946457514e-15 0)
(3 2.459761031e-15 0)
(3 3.066286685e-15 0)
(3 4.490307671e-15 0)
(3 5.611795786e-15 0)
(3 8.207635212e-15 0)
(3 8.995888179e-15 0)
(3 9.156112043e-15 0)
(3 8.351549736e-15 0)
(3 7.7319295e-15 0)
(3 5.430058137e-15 0)
(3 1.18090739e-15 0)
(3 4.248209585e-16 0)
(3 1.775532521e-18 0)
(3 4.365771146e-15 0)
(3 7.309619066e-15 0)
(3 5.370301921e-15 0)
(3 1.960315003e-15 0)
(3 9.035363833e-16 0)
(3 9.402900784e-16 0)
(3 -7.309718009e-16 0)
(3 1.517428379e-15 0)
(3 2.370974208e-15 0)
(3 5.239965711e-15 0)
(3 7.934647862e-15 0)
(3 9.685430338e-15 0)
(3 4.026064282e-15 0)
(3 5.175228849e-15 0)
(3 7.15781283e-15 0)
(3 8.035157895e-15 0)
(3 6.766938324e-15 0)
(3 1.66884647e-15 0)
(3 -8.118230599e-16 0)
(3 -7.997831357e-16 0)
(3 -9.940935929e-16 0)
(3 4.569784201e-15 0)
(3 7.712110336e-15 0)
(3 1.078209233e-14 0)
(3 1.555823131e-14 0)
(3 1.569162349e-14 0)
(3 -2.381730008e-16 0)
(3 -2.343955037e-15 0)
(3 -3.028857838e-15 0)
(3 -2.124812041e-15 0)
(3 -2.512144497e-15 0)
(3 -1.514811278e-15 0)
(3 -6.508982112e-16 0)
(3 3.203940021e-16 0)
(3 9.638972327e-16 0)
(3 5.146118919e-16 0)
(3 9.892581554e-18 0)
(3 -4.137178922e-15 0)
(3 -6.320565144e-15 0)
(3 -4.797262688e-15 0)
(3 -5.731124871e-15 0)
(3 -4.441238538e-15 0)
(3 -3.824674735e-15 0)
(3 -3.668146016e-15 0)
(3 -3.407689783e-15 0)
(3 -4.097028654e-15 0)
(3 -1.458816904e-15 0)
(3 -1.506191198e-15 0)
(3 -1.559677764e-15 0)
(3 -5.644955221e-16 0)
(3 -1.728588875e-16 0)
(3 -2.645806387e-15 0)
(3 -2.553940646e-15 0)
(3 -2.655609622e-15 0)
(3 -3.472005032e-15 0)
(3 -3.253388228e-15 0)
(3 -1.07666291e-15 0)
(3 -3.920139611e-16 0)
(3 -7.541078241e-16 0)
(3 1.192510961e-16 0)
(3 -3.719462343e-16 0)
(3 -1.34632895e-15 0)
(3 -1.731264245e-15 0)
(3 -4.345950088e-16 0)
(3 -2.168339179e-15 0)
(3 -3.417091937e-16 0)
(3 -9.352710735e-17 0)
(3 -2.90552907e-15 0)
(3 2.444700566e-17 0)
(3 1.632444763e-15 0)
(3 1.058337344e-15 0)
(3 -3.846773277e-15 0)
(3 -7.194464331e-15 0)
(3 -2.958359198e-15 0)
(3 -2.698980849e-16 0)
(3 3.184423815e-15 0)
(3 8.397375448e-15 0)
(3 1.191291637e-14 0)
(3 1.169267915e-14 0)
(3 7.328326281e-15 0)
(3 6.987122825e-15 0)
(3 7.215570438e-15 0)
(3 6.844226464e-15 0)
(3 6.013152696e-15 0)
(3 5.449070381e-15 0)
(3 8.055361839e-15 0)
(3 1.297952019e-14 0)
(3 1.532147606e-14 0)
(3 1.581319682e-14 0)
(3 1.4005067e-14 0)
(3 1.159569078e-14 0)
(3 1.171114796e-14 0)
(3 -1.985201556e-15 0)
(3 -4.121636381e-15 0)
(3 -3.951982403e-15 0)
(3 -2.742507918e-15 0)
(3 -1.391244196e-15 0)
(3 -1.242615455e-15 0)
(3 2.036505634e-17 0)
(3 2.95496284e-16 0)
(3 1.997925095e-16 0)
(3 8.584059278e-16 0)
(3 -1.705576666e-16 0)
(3 -8.998306264e-16 0)
(3 -1.008938374e-15 0)
(3 -2.883290974e-15 0)
(3 -3.885973145e-15 0)
(3 -8.312069046e-15 0)
(3 -1.172403382e-14 0)
(3 -1.447229272e-14 0)
(3 -1.675973855e-14 0)
(3 -1.558111419e-14 0)
(3 -1.264744831e-14 0)
(3 -1.197159026e-14 0)
(3 -1.066081027e-14 0)
(3 -9.029892901e-15 0)
(3 -6.486547659e-15 0)
(3 -4.093077734e-15 0)
(3 -3.068729707e-15 0)
(3 -3.806263005e-15 0)
(3 -6.125703583e-15 0)
(3 -5.332563978e-15 0)
(3 -3.712696439e-15 0)
(3 -2.706820852e-15 0)
(3 -2.662150779e-15 0)
(3 -4.023361282e-15 0)
(3 -4.273559721e-15 0)
(3 -3.412372458e-15 0)
(3 2.016117239e-15 0)
(3 3.575049627e-15 0)
(3 4.399264193e-15 0)
(3 2.616174738e-15 0)
(3 -9.705164474e-16 0)
(3 -5.225011316e-15 0)
(3 -8.02398883e-15 0)
(3 -5.131614827e-15 0)
(3 -9.708496389e-16 0)
(3 1.303660608e-15 0)
(3 6.165029166e-15 0)
(3 7.155282446e-15 0)
(3 1.072873189e-14 0)
(3 1.329138029e-14 0)
(3 1.24518303e-14 0)
(3 1.346303963e-14 0)
(3 1.544548986e-14 0)
(3 1.580835243e-14 0)
(3 9.2819e-15 0)
(3 6.451267866e-15 0)
(3 6.188971782e-15 0)
(3 9.165367253e-15 0)
(3 1.209000897e-14 0)
(3 1.596533109e-14 0)
(3 1.728592612e-14 0)
(3 1.562245838e-14 0)
(3 6.940975635e-15 0)
(3 3.237445625e-16 0)
(3 -4.537345787e-15 0)
(3 -2.119820844e-15 0)
(3 -7.962075226e-16 0)
(3 -1.194219758e-15 0)
(3 -1.950633587e-15 0)
(3 -2.766099388e-15 0)
(3 -3.293351104e-15 0)
(3 -4.156858854e-15 0)
(3 -4.087480016e-15 0)
(3 -3.196038469e-15 0)
(3 -1.686605183e-15 0)
(3 3.537728275e-16 0)
(3 -5.455111405e-16 0)
(3 -1.264439041e-15 0)
(3 -1.906207622e-15 0)
(3 -4.405775118e-15 0)
(3 -7.419371328e-15 0)
(3 -9.676381008e-15 0)
(3 -8.722214967e-15 0)
(3 -1.089541261e-14 0)
(3 -1.282990185e-14 0)
(3 -1.191968155e-14 0)
(3 -1.321276151e-14 0)
(3 -1.372374677e-14 0)
(3 -1.320630905e-14 0)
(3 -1.268466528e-14 0)
(3 -9.401408102e-15 0)
(3 -7.814623606e-15 0)
(3 -9.198329135e-15 0)
(3 -7.052624431e-15 0)
(3 -7.822896129e-15 0)
(3 -7.307934693e-15 0)
(3 -5.292956922e-15 0)
(3 -3.212611701e-15 0)
(3 -2.45242125e-15 0)
(3 -1.066923059e-15 0)
(3 5.92442204e-16 0)
(3 2.987110898e-15 0)
(3 8.319133344e-16 0)
(3 -3.787829866e-16 0)
(3 -4.707895929e-15 0)
(3 -9.641663941e-15 0)
(3 -9.878553463e-15 0)
(3 -8.080604604e-15 0)
(3 -6.754183895e-15 0)
(3 -4.097330775e-15 0)
(3 -1.69041143e-15 0)
(3 1.941270966e-15 0)
(3 4.037260505e-15 0)
(3 7.160660042e-15 0)
(3 1.375750835e-14 0)
(3 1.843692673e-14 0)
(3 1.943810346e-14 0)
(3 1.812243379e-14 0)
(3 1.374356926e-14 0)
(3 1.086631416e-14 0)
(3 1.140923945e-14 0)
(3 1.13865846e-14 0)
(3 1.341679566e-14 0)
(3 1.608162515e-14 0)
(3 1.715890991e-14 0)
(3 1.377147394e-14 0)
(3 1.137456285e-14 0)
(3 9.051999994e-15 0)
(3 3.030748848e-15 0)
(3 -4.704547451e-16 0)
(3 -1.315620079e-15 0)
(3 -2.435023286e-15 0)
(3 2.892275622e-16 0)
(3 -6.95505839e-16 0)
(3 -1.693032207e-15 0)
(3 -2.387960158e-15 0)
(3 -3.908572468e-15 0)
(3 -2.148936079e-15 0)
(3 -2.625921226e-15 0)
(3 -8.96917715e-16 0)
(3 -1.431258885e-15 0)
(3 -3.553455349e-15 0)
(3 -4.422184975e-15 0)
(3 -6.042204738e-15 0)
(3 -8.342648626e-15 0)
(3 -7.956047806e-15 0)
(3 -9.447859727e-15 0)
(3 -7.555996577e-15 0)
(3 -6.160427444e-15 0)
(3 -6.005941316e-15 0)
(3 -6.996281508e-15 0)
(3 -8.433523835e-15 0)
(3 -8.95273351e-15 0)
(3 -1.207985182e-14 0)
(3 -1.424525628e-14 0)
(3 -1.55659562e-14 0)
(3 -1.572546136e-14 0)
(3 -1.539850899e-14 0)
(3 -1.785875147e-14 0)
(3 -1.634371748e-14 0)
(3 -1.392776356e-14 0)
(3 -1.255591861e-14 0)
(3 -1.031553095e-14 0)
(3 -6.122439096e-15 0)
(3 -4.171313352e-15 0)
(3 1.899291209e-15 0)
(3 8.134337283e-15 0)
(3 1.030982393e-14 0)
(3 5.668170791e-15 0)
(3 4.481041396e-15 0)
(3 1.747882674e-15 0)
(3 2.90068776e-16 0)
(3 4.447538706e-15 0)
(3 2.910978688e-15 0)
(3 4.454290925e-15 0)
(3 3.414317649e-15 0)
(3 9.411342041e-16 0)
(3 3.817830441e-15 0)
(3 3.69407563e-15 0)
(3 4.538837955e-15 0)
(3 4.903250407e-15 0)
(3 7.300930664e-15 0)
(3 1.030181779e-14 0)
(3 5.486228749e-15 0)
(3 2.059453744e-15 0)
(3 2.14245225e-15 0)
(3 8.96336406e-15 0)
(3 1.609408061e-14 0)
(3 2.0555765e-14 0)
(3 2.007076309e-14 0)
(3 1.920168387e-14 0)
(3 1.229808815e-14 0)
(3 5.373515846e-15 0)
(3 4.151356601e-15 0)
(3 5.223962234e-15 0)
(3 5.381434329e-15 0)
(3 4.601490776e-15 0)
(3 1.179307082e-15 0)
(3 3.001203073e-15 0)
(3 3.145048713e-15 0)
(3 3.406896725e-15 0)
(3 3.009408038e-15 0)
(3 1.765840841e-15 0)
(3 1.506342852e-15 0)
(3 -6.42301306e-16 0)
(3 -1.266016791e-15 0)
(3 -1.838553719e-15 0)
(3 -4.265066363e-15 0)
(3 -4.330883924e-15 0)
(3 -2.754781621e-15 0)
(3 -2.930827681e-15 0)
(3 -3.848671964e-15 0)
(3 -4.297821016e-15 0)
(3 -4.356617764e-15 0)
(3 -5.040314243e-15 0)
(3 -4.011391606e-15 0)
(3 -4.542659697e-15 0)
(3 -8.188773421e-15 0)
(3 -1.124797143e-14 0)
(3 -1.429663703e-14 0)
(3 -1.495523827e-14 0)
(3 -1.14896121e-14 0)
(3 -1.372071719e-14 0)
(3 -1.336573487e-14 0)
(3 -1.198721962e-14 0)
(3 -1.237026673e-14 0)
(3 -1.169357302e-14 0)
(3 -1.163081237e-14 0)
(3 -1.07800274e-14 0)
(3 -4.781856879e-15 0)
(3 1.322016957e-15 0)
(3 3.923618222e-15 0)
(3 8.38251633e-15 0)
(3 1.206562733e-14 0)
(3 1.408445383e-14 0)
(3 1.382305344e-14 0)
(3 1.569978912e-14 0)
(3 1.667178662e-14 0)
(3 1.709010223e-14 0)
(3 1.642296219e-14 0)
(3 1.646483071e-14 0)
(3 1.555182688e-14 0)
(3 1.337309811e-14 0)
(3 1.504538421e-14 0)
(3 1.443805262e-14 0)
(3 1.016758994e-14 0)
(3 8.720459017e-15 0)
(3 7.474631787e-15 0)
(3 6.169091106e-15 0)
(3 2.465106621e-15 0)
(3 -5.442102843e-16 0)
(3 -8.925033038e-18 0)
(3 1.14555161e-15 0)
(3 7.828985813e-15 0)
(3 1.540853838e-14 0)
(3 1.920521845e-14 0)
(3 1.488322804e-14 0)
(3 7.998972683e-15 0)
(3 3.947744575e-15 0)
(3 1.652671974e-15 0)
(3 9.388821101e-16 0)
(3 6.756583345e-15 0)
(3 8.267775779e-15 0)
(3 5.285319858e-15 0)
(3 9.731031071e-16 0)
(3 3.561613552e-15 0)
(3 4.051385917e-15 0)
(3 2.561809797e-15 0)
(3 1.855700872e-15 0)
(3 2.620141232e-16 0)
(3 -7.690844466e-16 0)
(3 -2.288308296e-15 0)
(3 -4.788274573e-16 0)
(3 4.771203357e-16 0)
(3 -3.66712418e-16 0)
(3 -9.630428954e-17 0)
(3 -1.7959518e-16 0)
(3 -4.057543062e-15 0)
(3 -4.591336985e-15 0)
(3 -5.165231717e-15 0)
(3 -6.300853626e-15 0)
(3 -6.306081954e-15 0)
(3 -8.372528188e-15 0)
(3 -1.042157237e-14 0)
(3 -1.319846858e-14 0)
(3 -1.074824057e-14 0)
(3 -9.342186116e-15 0)
(3 -8.842870558e-15 0)
(3 -9.059947805e-15 0)
(3 -8.634731378e-15 0)
(3 -7.475002399e-15 0)
(3 -6.446462404e-15 0)
(3 -6.244576829e-15 0)
(3 -8.15896418e-15 0)
(3 -1.090664503e-14 0)
(3 -8.888867019e-15 0)
(3 -7.118265618e-15 0)
(3 -6.343331031e-15 0)
(3 -2.350518798e-15 0)
(3 3.910761995e-15 0)
(3 9.321834783e-15 0)
(3 1.687575231e-14 0)
(3 1.880078074e-14 0)
(3 1.678496249e-14 0)
(3 1.258353936e-14 0)
(3 1.308934381e-14 0)
(3 1.412149022e-14 0)
(3 1.608356146e-14 0)
(3 2.05240698e-14 0)
(3 2.119915524e-14 0)
(3 2.286337505e-14 0)
(3 1.785370717e-14 0)
(3 1.478440947e-14 0)
(3 1.490461283e-14 0)
(3 1.333647476e-14 0)
(3 9.778509123e-15 0)
(3 7.334594877e-15 0)
(3 5.323339453e-15 0)
(3 4.476003164e-15 0)
(3 6.144080609e-15 0)
(3 9.120736741e-15 0)
(3 1.087036722e-14 0)
(3 1.038412394e-14 0)
(3 9.021710562e-15 0)
(3 7.100268099e-15 0)
(3 4.322117991e-15 0)
(3 2.591655788e-15 0)
(3 3.927139195e-15 0)
(3 7.77440198e-15 0)
(3 1.250162115e-14 0)
(3 -1.951471343e-15 0)
(3 -3.627677111e-16 0)
(3 -1.822658316e-16 0)
(3 -1.800855215e-16 0)
(3 1.381760457e-15 0)
(3 9.703756314e-16 0)
(3 1.037869194e-15 0)
(3 3.438012475e-16 0)
(3 -1.327421003e-15 0)
(3 -3.020765716e-16 0)
(3 4.292778807e-16 0)
(3 9.039355692e-17 0)
(3 -2.801331257e-16 0)
(3 -7.621733536e-16 0)
(3 -1.044527921e-15 0)
(3 -1.737224062e-15 0)
(3 -4.548399471e-15 0)
(3 -5.597614024e-15 0)
(3 -6.538857136e-15 0)
(3 -4.350029937e-15 0)
(3 -4.515542414e-15 0)
(3 -3.573284116e-15 0)
(3 -4.863527811e-15 0)
(3 -7.607409279e-15 0)
(3 -8.085823469e-15 0)
(3 -9.783656319e-15 0)
(3 -1.563646405e-14 0)
(3 -1.869757625e-14 0)
(3 -1.722189483e-14 0)
(3 -1.600504929e-14 0)
(3 -1.442087149e-14 0)
(3 -1.649971145e-14 0)
(3 -1.992753179e-14 0)
(3 -1.974143682e-14 0)
(3 -1.941530885e-14 0)
(3 -1.379564746e-14 0)
(3 -6.919992372e-15 0)
(3 4.576252133e-16 0)
(3 3.341088215e-15 0)
(3 7.248916277e-15 0)
(3 1.26025233e-14 0)
(3 1.699186937e-14 0)
(3 2.157134206e-14 0)
(3 2.371503267e-14 0)
(3 2.454814892e-14 0)
(3 2.727354991e-14 0)
(3 2.745242424e-14 0)
(3 2.862314902e-14 0)
(3 2.246612238e-14 0)
(3 1.90792958e-14 0)
(3 1.971889764e-14 0)
(3 2.085163942e-14 0)
(3 1.879838137e-14 0)
(3 1.518145977e-14 0)
(3 1.098345573e-14 0)
(3 9.163812887e-15 0)
(3 3.613545065e-15 0)
(3 -1.237444125e-15 0)
(3 -1.460082517e-15 0)
(3 -1.552988738e-15 0)
(3 -1.14942867e-16 0)
(3 1.96714533e-17 0)
(3 -1.849798492e-15 0)
(3 -3.250196296e-15 0)
(3 -2.742862125e-15 0)
(3 1.7047281e-15 0)
(3 8.885688548e-17 0)
(3 3.497789435e-16 0)
(3 2.863713398e-15 0)
(3 5.235180105e-15 0)
(3 7.084168618e-15 0)
(3 6.813797931e-15 0)
(3 5.829061152e-15 0)
(3 5.220319119e-15 0)
(3 2.926872295e-15 0)
(3 1.102088787e-15 0)
(3 2.518215924e-15 0)
(3 1.978305371e-15 0)
(3 1.924226091e-15 0)
(3 5.369321457e-15 0)
(3 5.498145204e-15 0)
(3 5.989865997e-15 0)
(3 4.255144827e-15 0)
(3 2.743823385e-15 0)
(3 4.601371643e-15 0)
(3 4.857223174e-15 0)
(3 4.459623357e-15 0)
(3 3.287390577e-15 0)
(3 1.878618412e-15 0)
(3 -8.843377653e-16 0)
(3 -2.980321005e-15 0)
(3 -4.177670154e-15 0)
(3 -6.410606055e-15 0)
(3 -8.935801933e-15 0)
(3 -1.159014166e-14 0)
(3 -1.203667067e-14 0)
(3 -1.336742925e-14 0)
(3 -1.587943759e-14 0)
(3 -2.178016606e-14 0)
(3 -2.136933389e-14 0)
(3 -2.099227877e-14 0)
(3 -2.238459714e-14 0)
(3 -1.737476883e-14 0)
(3 -1.304652769e-14 0)
(3 -9.723907461e-15 0)
(3 -3.988208249e-15 0)
(3 2.793020401e-15 0)
(3 8.265673579e-15 0)
(3 1.179639866e-14 0)
(3 1.292961974e-14 0)
(3 1.275667068e-14 0)
(3 1.457839738e-14 0)
(3 1.717627107e-14 0)
(3 1.654982207e-14 0)
(3 1.396448897e-14 0)
(3 1.346955055e-14 0)
(3 1.342364091e-14 0)
(3 1.359836909e-14 0)
(3 1.39527793e-14 0)
(3 1.009913797e-14 0)
(3 2.619163986e-15 0)
(3 -2.078544481e-15 0)
(3 -5.340519119e-15 0)
(3 -6.543885523e-15 0)
(3 -6.611806764e-15 0)
(3 -4.865713075e-15 0)
(3 -4.796379669e-15 0)
(3 -3.798907555e-15 0)
(3 -4.87424893e-15 0)
(3 -5.510435355e-15 0)
(3 -4.277622006e-15 0)
(3 1.145200757e-15 0)
(3 1.145161491e-15 0)
(3 2.798297694e-15 0)
(3 4.154626042e-15 0)
(3 5.903033993e-15 0)
(3 6.203633299e-15 0)
(3 5.695820181e-15 0)
(3 2.451043286e-15 0)
(3 6.538023996e-16 0)
(3 2.046781397e-16 0)
(3 -2.216070868e-16 0)
(3 8.471530488e-16 0)
(3 2.489115201e-15 0)
(3 4.976398442e-15 0)
(3 6.050711754e-15 0)
(3 7.150142251e-15 0)
(3 7.318856616e-15 0)
(3 1.091110518e-14 0)
(3 9.328004039e-15 0)
(3 1.463639859e-14 0)
(3 1.420951772e-14 0)
(3 1.714803472e-14 0)
(3 1.727139957e-14 0)
(3 1.638670551e-14 0)
(3 1.660312281e-14 0)
(3 1.333740302e-14 0)
(3 9.161343414e-15 0)
(3 1.005922455e-14 0)
(3 9.18876548e-15 0)
(3 2.915320049e-15 0)
(3 -1.432782264e-15 0)
(3 -6.959653383e-15 0)
(3 -1.104846919e-14 0)
(3 -1.250305122e-14 0)
(3 -1.386139619e-14 0)
(3 -1.429510077e-14 0)
(3 -1.320569081e-14 0)
(3 -1.224791934e-14 0)
(3 -1.050663353e-14 0)
(3 -5.442818108e-15 0)
(3 -5.280484029e-15 0)
(3 5.449213581e-16 0)
(3 4.616213469e-15 0)
(3 3.583035079e-15 0)
(3 3.567753361e-15 0)
(3 3.720279752e-15 0)
(3 5.975363079e-15 0)
(3 8.471395726e-15 0)
(3 8.913670963e-15 0)
(3 1.084910968e-14 0)
(3 1.26462476e-14 0)
(3 1.354679982e-14 0)
(3 1.652521454e-14 0)
(3 1.860702691e-14 0)
(3 1.920013699e-14 0)
(3 1.332985778e-14 0)
(3 3.616002411e-15 0)
(3 -9.687845379e-16 0)
(3 -3.005239999e-15 0)
(3 -2.725601628e-15 0)
(3 1.908669224e-16 0)
(3 3.46337791e-15 0)
(3 4.382170854e-15 0)
(3 4.467319198e-15 0)
(3 2.330963027e-15 0)
(3 2.590443273e-15 0)
(3 1.416490332e-15 0)
(3 4.592604813e-16 0)
(3 4.107196009e-16 0)
(3 -9.912111882e-16 0)
(3 -8.369181874e-16 0)
(3 -2.545140221e-15 0)
(3 -4.662776421e-15 0)
(3 -5.02392542e-15 0)
(3 -4.091388138e-15 0)
(3 -1.072611497e-15 0)
(3 -2.517156456e-16 0)
(3 -1.493508447e-15 0)
(3 -2.647939621e-15 0)
(3 -1.071317674e-15 0)
(3 -9.740908087e-16 0)
(3 1.728985549e-17 0)
(3 3.073894929e-15 0)
(3 6.660108654e-15 0)
(3 1.173153594e-14 0)
(3 1.860131001e-14 0)
(3 2.558038568e-14 0)
(3 2.502989241e-14 0)
(3 2.418823975e-14 0)
(3 2.291227716e-14 0)
(3 2.350237031e-14 0)
(3 2.368151625e-14 0)
(3 1.849953687e-14 0)
(3 1.744441471e-14 0)
(3 1.558430841e-14 0)
(3 1.391485612e-14 0)
(3 9.280380876e-15 0)
(3 4.895954541e-15 0)
(3 1.448711206e-15 0)
(3 -1.52656145e-16 0)
(3 -1.67564487e-15 0)
(3 -2.47034818e-15 0)
(3 -3.320511533e-15 0)
(3 -3.481127307e-15 0)
(3 -4.719142497e-15 0)
(3 -3.424165368e-15 0)
(3 -1.621996126e-15 0)
(3 -1.429043483e-15 0)
(3 -2.47891898e-15 0)
(3 -4.673020364e-15 0)
(3 -5.052993577e-15 0)
(3 -6.605145778e-16 0)
(3 9.174327609e-15 0)
(3 1.407629625e-14 0)
(3 1.447295952e-14 0)
(3 1.416853053e-14 0)
(3 1.112251598e-14 0)
(3 1.062087494e-14 0)
(3 1.183433038e-14 0)
(3 1.376007215e-14 0)
(3 1.449850658e-14 0)
(3 1.154343586e-14 0)
(3 8.134817938e-15 0)
(3 5.666343872e-15 0)
(3 6.015706164e-15 0)
(3 6.802870085e-15 0)