/*--------------------------------*- C++ -*----------------------------------*\
  =========                 |
  \\      /  F ield         | OpenFOAM: The Open Source CFD Toolbox
   \\    /   O peration     | Website:  https://openfoam.org
    \\  /    A nd           | Version:  7
     \\/     M anipulation  |
\*---------------------------------------------------------------------------*/
FoamFile
{
    version     2.0;
    format      ascii;
    class       volScalarField;
    location    "1.5";
    object      rho;
}
// * * * * * * * * * * * * * * * * * * * * * * * * * * * * * * * * * * * * * //

dimensions      [1 -3 0 0 0 0 0];

internalField   nonuniform List<scalar> 
2223
(
1.167012969
1.149636143
1.134783628
1.118988757
1.10202905
1.088568212
1.076494853
1.062768762
1.049797729
1.0394755
1.029724656
1.018083574
1.007683485
0.9985559085
0.9895109394
0.9794211696
0.9709816402
0.9634575815
0.9555614165
0.9471600292
0.9396719276
0.9325510659
0.924606837
0.9168351863
0.9105819805
1.323532349
1.301643943
1.275493188
1.251724344
1.232615313
1.214045496
1.192182951
1.174178903
1.158822977
1.142276099
1.124250286
1.110112095
1.097617321
1.083346212
1.069897905
1.059250204
1.04914283
1.037002351
1.026117025
1.016475588
1.006932533
0.9963366756
0.9877061635
0.9798405147
0.9716269369
0.9627965672
0.9551668494
0.9477194215
0.9395334376
0.9315395124
0.9255092257
1.355183344
1.332475544
1.30505047
1.280701964
1.261078973
1.24157832
1.218642004
1.19975825
1.18351872
1.166003187
1.147081312
1.132211012
1.119259198
1.104469016
1.090470339
1.07919654
1.068466749
1.055616174
1.0442179
1.034072565
1.024021057
1.012969156
1.004027084
0.9958901477
0.9871670469
0.9778733886
0.9699772814
0.9624398895
0.9539488796
0.9456213304
0.9390743647
1.385348535
1.362231358
1.333821652
1.308487968
1.28816242
1.267969319
1.244040696
1.22450416
1.207814295
1.189759663
1.17019159
1.154817596
1.141386844
1.125969587
1.111416439
1.099547528
1.088114171
1.074497338
1.062493049
1.051939507
1.04135436
1.029694617
1.020452691
1.012089809
1.002903559
0.9931486439
0.9849948127
0.9774287019
0.9688754721
0.9605083139
0.954248555
1.415396046
1.391537724
1.362176704
1.3366288
1.31642499
1.296168346
1.271901
1.251791426
1.234312588
1.215390949
1.195147092
1.178868581
1.164490205
1.148092983
1.132678986
1.119865042
1.107509185
1.09302324
1.080607096
1.069776413
1.058835268
1.046728304
1.037173556
1.028519989
1.018905219
1.008514668
1.000153225
0.9925253562
0.9839328065
0.9752928444
0.9686312725
1.446572547
1.422033972
1.391309416
1.364366328
1.343052376
1.321560173
1.296105471
1.275537426
1.257871189
1.238616026
1.218141753
1.201725915
1.187091221
1.170157593
1.154235171
1.140859669
1.127874447
1.112541213
1.09961587
1.088488499
1.077197638
1.064572786
1.054677506
1.045700321
1.035678272
1.024771364
1.015938874
1.008091598
0.9992967628
0.9905688669
0.9837439155
1.477480606
1.451888543
1.420153208
1.392731078
1.371109614
1.349189813
1.322868326
1.301702368
1.28345856
1.263202653
1.242159638
1.225304292
1.209975322
1.192113779
1.175549094
1.161607907
1.148098831
1.1322611
1.119032295
1.107760386
1.096262791
1.083374378
1.073009374
1.063574236
1.05308235
1.041787251
1.032490442
1.024286123
1.01508692
1.006069191
0.9987557502
1.510068028
1.483006184
1.4491286
1.420319142
1.397848138
1.374981429
1.347949257
1.32631999
1.307704508
1.286547562
1.264600609
1.247422497
1.231808625
1.213292071
1.196336972
1.1822697
1.168607283
1.152345319
1.138896268
1.12747043
1.115747031
1.102588369
1.091845299
1.081953149
1.071106749
1.059387816
1.049611288
1.040922035
1.031261157
1.02184183
1.014169989
1.542199757
1.514321223
1.479532068
1.449877497
1.426519133
1.40234008
1.37370774
1.351520363
1.332614586
1.310836669
1.288591809
1.271398299
1.255500522
1.236254227
1.218804312
1.204353632
1.190331157
1.173651027
1.159661011
1.147697702
1.135398188
1.121721046
1.110359551
1.099883541
1.088534566
1.076682715
1.066600185
1.05751291
1.04730635
1.037581901
1.029502154
1.574786664
1.545706894
1.509183341
1.47887137
1.455190976
1.430450508
1.401233052
1.378341352
1.358676703
1.335458654
1.311899094
1.293993362
1.277534668
1.257522278
1.239723422
1.22525418
1.211162674
1.194276882
1.180044369
1.167805143
1.155052673
1.140912277
1.129050199
1.118105456
1.106184842
1.093963567
1.083687522
1.074305453
1.063570699
1.053443083
1.045163239
1.607260605
1.577856857
1.540490917
1.509233112
1.484646022
1.458545192
1.428094102
1.405020138
1.38526606
1.361893199
1.338064634
1.319745402
1.30278942
1.28194373
1.263520731
1.248370266
1.233437821
1.21582348
1.20089798
1.187850219
1.174165318
1.159253983
1.146892631
1.135606473
1.123224486
1.11078081
1.10047232
1.090964678
1.07985259
1.069405168
1.060969649
1.640075658
1.609725976
1.571136848
1.539595009
1.514832114
1.48808636
1.456621544
1.432520349
1.411856688
1.38732304
1.363005451
1.344191211
1.326746913
1.305329891
1.286310889
1.270592389
1.254989016
1.236632982
1.221193145
1.207653699
1.193263026
1.177614053
1.164872503
1.153320087
1.140315304
1.127449122
1.117142589
1.107600172
1.096178061
1.085493458
1.076997027
1.673693807
1.642586771
1.60261843
1.569895794
1.544331534
1.516542512
1.484366843
1.459944555
1.438930434
1.413720908
1.388741961
1.36921117
1.351049258
1.328892069
1.309666594
1.293717774
1.277560588
1.258669854
1.242814049
1.228691046
1.21350873
1.19720515
1.184035148
1.17213108
1.158510544
1.14503867
1.134376981
1.124562517
1.112637161
1.101589161
1.092925926
1.707485668
1.675148198
1.63393372
1.600567834
1.574423357
1.545476879
1.511979542
1.486595961
1.464771738
1.438524352
1.413377252
1.393715646
1.375227858
1.352405284
1.332502432
1.315853791
1.298733711
1.278897669
1.26277301
1.248537625
1.233072582
1.216426862
1.203175323
1.191183874
1.177203753
1.163253292
1.152250195
1.142170573
1.129870842
1.118396058
1.109363202
1.741354332
1.707929806
1.66521811
1.630676963
1.603723747
1.573737269
1.539626994
1.513759561
1.491242441
1.463552604
1.43733394
1.41722641
1.398215546
1.374812671
1.355065839
1.338631331
1.32145874
1.301275375
1.28502434
1.270636335
1.25476138
1.237805707
1.224118313
1.211560977
1.196907316
1.1822721
1.170469022
1.159749658
1.146862845
1.135029185
1.125586702
1.774421599
1.740198193
1.696687802
1.661475696
1.633702068
1.60218104
1.566858032
1.540521003
1.517473198
1.488872372
1.462260151
1.441890895
1.422247647
1.397551418
1.377160336
1.36038184
1.342646781
1.322004923
1.305664009
1.291368475
1.27539775
1.258270285
1.244315736
1.231489202
1.2165311
1.201498837
1.189090312
1.177772752
1.164255135
1.151949359
1.142003184
1.807055967
1.772326056
1.728077859
1.692238689
1.663815845
1.631224672
1.595155043
1.568304342
1.544534748
1.514561274
1.487159807
1.466552403
1.446473706
1.421120068
1.400383196
1.38333564
1.365114869
1.343736183
1.327101411
1.312673548
1.296365757
1.279180428
1.264978742
1.251735665
1.236322174
1.220998351
1.207997981
1.196043496
1.181931565
1.169245319
1.158780127
1.839236839
1.804235346
1.759658395
1.723509174
1.694510284
1.660594921
1.623634679
1.596481816
1.572347093
1.541705843
1.513795154
1.492483047
1.47134235
1.444577676
1.423196703
1.40581011
1.387233846
1.365658582
1.348599115
1.333724717
1.316490145
1.298498946
1.283685531
1.26993807
1.253950215
1.238520634
1.225506327
1.213365356
1.198837852
1.185981987
1.175389414
1.871768145
1.836283636
1.791008861
1.754429746
1.72508707
1.690380937
1.652723568
1.624903475
1.600100396
1.568602126
1.54035193
1.518645756
1.496905084
1.469356373
1.447011509
1.428686696
1.409037695
1.386710438
1.369394852
1.354237119
1.336493563
1.318185247
1.303153912
1.289115564
1.272484415
1.256891869
1.243814594
1.231353409
1.216274098
1.203136838
1.192279603
1.9045721
1.86836669
1.822139681
1.784871115
1.75503734
1.719360725
1.681215646
1.653021178
1.627790511
1.595579137
1.566822658
1.544347498
1.52158337
1.4932131
1.470421283
1.451618133
1.431310288
1.408503105
1.390598715
1.374684307
1.355629332
1.336469378
1.321114483
1.306794166
1.289565011
1.273857572
1.261013419
1.248608572
1.233198943
1.219909087
1.209106829
1.937333214
1.900305804
1.852880634
1.814651522
1.784256526
1.747682538
1.708945033
1.680176819
1.654325087
1.621324476
1.592355692
1.569587513
1.546214592
1.517098617
1.493591125
1.474078842
1.452774314
1.429495376
1.411596456
1.395489642
1.375903607
1.356173228
1.340517814
1.325862668
1.307804983
1.291907254
1.279215056
1.26672991
1.250974219
1.237531111
1.226583514
1.969544658
1.9319216
1.883465607
1.844162161
1.81293995
1.775108541
1.735834779
1.706802876
1.680470816
1.646431728
1.617009529
1.593934057
1.569894977
1.540433788
1.516926532
1.497227773
1.475138603
1.451049351
1.432678225
1.416064069
1.395722333
1.375851474
1.360252059
1.345553826
1.326988153
1.310519539
1.297403091
1.284478677
1.268097562
1.25434298
1.243277397
2.000719412
1.96283675
1.913707157
1.87360192
1.841689604
1.802708507
1.762742681
1.733440288
1.706567614
1.671541155
1.641787001
1.618523185
1.593769382
1.5635591
1.539949994
1.520178303
1.497653401
1.473304824
1.454756405
1.437828283
1.41674538
1.396314871
1.380406953
1.365406403
1.346470732
1.329861173
1.316544611
1.303362161
1.286665996
1.272666008
1.261201668
2.030914495
1.993261923
1.943982583
1.903508457
1.87107942
1.83093591
1.790369542
1.760961915
1.733587123
1.697338043
1.667021907
1.64347383
1.617994463
1.587277961
1.563688972
1.543851899
1.520598509
1.49559183
1.47664775
1.45938532
1.437888754
1.417453577
1.401300793
1.385952798
1.366392199
1.349107014
1.334991326
1.321013146
1.303684709
1.289438366
1.277724035
2.060297971
2.022974702
1.97386664
1.933472409
1.900972504
1.860085928
1.818875884
1.789350728
1.761524769
1.724333971
1.693396783
1.669321162
1.642876891
1.611285449
1.587463099
1.567500492
1.543812295
1.518445504
1.498908076
1.481006971
1.458557496
1.437704246
1.421305803
1.405703236
1.385964262
1.368516929
1.353946696
1.339401682
1.321478947
1.307012163
1.295026846
2.08931372
2.052041174
2.003136205
1.963015452
1.930757132
1.889532837
1.848011419
1.818376054
1.790053534
1.751927283
1.720329543
1.695674015
1.668319075
1.635985249
1.611563747
1.590990756
1.56621817
1.540345792
1.520454091
1.502158133
1.479071459
1.457896894
1.441072865
1.424858039
1.404318417
1.386656453
1.371877406
1.356932636
1.338676074
1.324099273
1.311919525
2.118313459
2.080974336
2.032392384
1.992258362
1.960069522
1.918553772
1.876550568
1.846646072
1.817830215
1.779097428
1.747051047
1.721920687
1.693746387
1.660759501
1.635707801
1.61441786
1.588498205
1.561943168
1.54151081
1.522614586
1.498646205
1.477204113
1.460332994
1.443809644
1.422685225
1.404812407
1.389900124
1.374586507
1.355818267
1.341334842
1.329263325
2.146074183
2.108871047
2.060918701
2.020474362
1.988030704
1.946320614
1.903998477
1.873762508
1.844325657
1.804910976
1.772763747
1.747532866
1.718755804
1.685323208
1.659708129
1.637611319
1.610330299
1.583254993
1.562645783
1.543405217
1.518604815
1.496734823
1.479599514
1.462460687
1.44047996
1.422635595
1.407946381
1.392608462
1.373622084
1.359053236
1.346849641
2.17132222
2.135344159
2.088942058
2.04822575
2.015283725
1.973375002
1.930705401
1.899973156
1.86973255
1.829584703
1.797490472
1.77234226
1.743029856
1.70929705
1.683561238
1.660992641
1.632539498
1.604885533
1.584136975
1.564605003
1.539177754
1.517100157
1.499825789
1.482142624
1.459173857
1.440942656
1.426173116
1.410623231
1.391407291
1.376960652
1.364817831
2.194437773
2.160959433
2.116640372
2.075611428
2.042093875
2.000139429
1.957276688
1.925953995
1.894795611
1.853765389
1.821834415
1.796887019
1.766960538
1.732858176
1.707308622
1.68458895
1.655238898
1.627326706
1.606634249
1.586908954
1.560779541
1.538359191
1.520745167
1.502465444
1.478805999
1.460279259
1.44530192
1.429333734
1.409629282
1.394902553
1.382452967
2.215256028
2.18452301
2.142680143
2.101868537
2.06838331
2.026900971
1.984212502
1.952602214
1.920851371
1.879211411
1.847184456
1.822032087
1.791139527
1.756428698
1.73109298
1.708356018
1.678280066
1.650142471
1.629545523
1.609703796
1.583132032
1.560398718
1.54230124
1.523352019
1.49902471
1.480009198
1.464597469
1.448071091
1.427929608
1.412870412
1.400013683
2.235182113
2.206640686
2.167552137
2.128020083
2.09547522
2.054896295
2.012212192
1.980171454
1.948046267
1.906162048
1.873799433
1.848052582
1.815969881
1.780495888
1.755191024
1.732361269
1.701609176
1.673296981
1.6526053
1.63234309
1.604997872
1.581888332
1.563378
1.543918226
1.519324601
1.500021074
1.484131913
1.466787522
1.445932333
1.430435018
1.417137607
2.254617362
2.228366497
2.191436258
2.152939267
2.121623218
2.082517844
2.03997492
2.007759859
1.975705287
1.934018977
1.901070401
1.874439423
1.84119281
1.805066389
1.779494867
1.756309065
1.724792487
1.696185666
1.675217082
1.654323398
1.626071519
1.602482362
1.58360018
1.563576824
1.538691187
1.519373133
1.50330616
1.485420405
1.464021113
1.448053836
1.43428368
2.272573787
2.248702611
2.213518399
2.176242471
2.146461061
2.1091051
2.066863034
2.034617169
2.002783462
1.961525448
1.927972778
1.900497431
1.866312176
1.829733706
1.803658354
1.779840284
1.747416494
1.718479756
1.69712251
1.675384514
1.646046022
1.622177342
1.603227462
1.582706672
1.557425078
1.538200336
1.522082958
1.503663408
1.481854571
1.465765081
1.451849645
2.286344317
2.265477927
2.233414802
2.198677707
2.170660509
2.134850792
2.092634727
2.059996422
2.027990023
1.986877239
1.952987652
1.925271596
1.890860044
1.85432031
1.827813714
1.803277656
1.769889621
1.740584727
1.718772705
1.696118719
1.665626138
1.641560466
1.622705046
1.601674589
1.575893179
1.556884249
1.54091139
1.52211528
1.499922026
1.48376035
1.469792669
2.29592333
2.278268109
2.251856447
2.2197243
2.191995225
2.157223694
2.115872061
2.083810866
2.051808121
2.010431883
1.976444741
1.949085217
1.914835641
1.878576297
1.851780849
1.826562539
1.792267586
1.76272005
1.740583724
1.717192508
1.685773127
1.661745584
1.643044867
1.621401088
1.594846816
1.575866144
1.559922614
1.540661726
1.518213218
1.502157236
1.488272357
2.29148901
2.286226477
2.268364357
2.239718958
2.212143817
2.178523762
2.138502591
2.107414754
2.075526481
2.033593593
1.99951273
1.972707975
1.938588574
1.902483318
1.875598383
1.849992066
1.815090927
1.78545627
1.763118937
1.739217627
1.707190716
1.683172975
1.664379164
1.642021673
1.61471867
1.595551151
1.579436434
1.559506762
1.536586581
1.520465948
1.506537138
2.294440554
2.292703661
2.282393993
2.259061898
2.232530818
2.200713254
2.161991966
2.131263024
2.099346166
2.05690701
2.02292548
1.996694272
1.962434789
1.926120831
1.899346098
1.873699822
1.838531453
1.808870825
1.786318336
1.762055656
1.729802792
1.705704022
1.686470806
1.663224675
1.635222259
1.615756557
1.599318275
1.578621662
1.555248754
1.538849292
1.524591704
2.293444
2.28818393
2.284425751
2.27369383
2.252695281
2.223272696
2.185683516
2.155414051
2.124185279
2.082095596
2.048221182
2.022079636
1.987193633
1.950035947
1.923159348
1.8975021
1.86211003
1.83220638
1.80932307
1.784622565
1.752285154
1.728055359
1.708319191
1.684341851
1.655967391
1.636170993
1.619276382
1.597670928
1.573770629
1.556996885
1.542264733
2.238429018
2.27186488
2.289570724
2.284586389
2.268813788
2.244284452
2.20957768
2.179408104
2.148770344
2.107690843
2.074153097
2.047886952
2.012226071
1.973853526
1.946798179
1.921203619
1.885700558
1.855381959
1.831989308
1.806453575
1.773679812
1.749155853
1.728956379
1.704388655
1.675979678
1.656212477
1.639095456
1.616744084
1.592433376
1.575298732
1.560030868
2.151603265
2.281412709
2.295080009
2.288420762
2.278299821
2.261210897
2.232166988
2.201611795
2.170926799
2.13094056
2.098456037
2.072677689
2.037201716
1.998108626
1.970574869
1.944520851
1.908482134
1.877656293
1.853807048
1.827263755
1.79372864
1.768837344
1.748388983
1.72338287
1.695056234
1.675554871
1.658402059
1.635418182
1.610904968
1.593734906
1.578191378
1.998756952
2.248779273
2.26733162
2.270830286
2.276614531
2.272296029
2.251436612
2.22151793
2.191852164
2.15356258
2.121678789
2.096022858
2.061086588
2.022258627
1.994375515
1.967452084
1.930245074
1.898874362
1.87490014
1.847564198
1.813247606
1.788139422
1.76767587
1.742199532
1.713884425
1.694685745
1.677542134
1.653890469
1.629160542
1.612165273
1.596587525
1.72885757
2.073326715
2.193430197
2.254894668
2.28394305
2.281181244
2.264044949
2.237383541
2.211015204
2.175438544
2.143396764
2.117460288
2.083138581
2.045277702
2.017660836
1.990147272
1.951837489
1.920232066
1.896558697
1.868696919
1.833592709
1.808278377
1.787812079
1.761717831
1.733137804
1.714028418
1.696803538
1.672543747
1.647679598
1.63088388
1.615331761
1.507479817
1.787409013
2.118626322
2.269242361
2.276525143
2.27453512
2.270516732
2.252785958
2.229319865
2.196462568
2.163937318
2.138166952
2.104969639
2.06855414
2.041327989
2.013258049
1.973669748
1.941787663
1.918577693
1.890543676
1.85498167
1.829718768
1.809370281
1.782634268
1.753573418
1.734171429
1.716626602
1.691669111
1.666563713
1.649675922
1.633920889
1.611074631
1.420158524
1.558360929
1.899041032
2.14712873
2.219952357
2.264890402
2.278438812
2.268582471
2.248764406
2.219208606
2.185827278
2.159662123
2.126451436
2.090589203
2.063825402
2.035926059
1.996045297
1.964031872
1.941144519
1.912927821
1.877071196
1.852121804
1.831998253
1.804710288
1.774996788
1.754921433
1.736880902
1.711356767
1.686058026
1.668727301
1.652459519
1.628725433
1.402520509
1.440687977
1.614731764
1.93765887
2.201673337
2.284392777
2.280349887
2.268961618
2.261238152
2.243829461
2.211891728
2.183396932
2.149389476
2.112826846
2.085773424
2.05810779
2.018969817
1.987241564
1.964288319
1.935505352
1.898876464
1.87394983
1.853985304
1.826357559
1.79616928
1.7755329
1.757090718
1.730998027
1.705473084
1.687567916
1.670674885
1.646018942
1.400219621
1.40673115
1.453576186
1.689052852
2.055009383
2.243161125
2.245513978
2.258927167
2.270613263
2.263041732
2.236550552
2.207477079
2.174491571
2.136937233
2.107959193
2.079396834
2.040553344
2.008935735
1.98574412
1.956598098
1.919359015
1.894388719
1.874542496
1.846606689
1.816172214
1.795457045
1.776955237
1.750483398
1.724665914
1.706131356
1.688597494
1.663050051
1.400017632
1.400737919
1.408131229
1.498290909
1.770408468
2.060991787
2.211285933
2.28368292
2.282942855
2.276296436
2.254173678
2.22816969
2.197940172
2.159416631
2.128294404
2.099293041
2.061341016
2.029905883
2.006205908
1.976753573
1.939310734
1.914208785
1.894187921
1.865619156
1.834810279
1.814295279
1.795899285
1.769083764
1.743137234
1.724471098
1.706705045
1.680717917
1.400005547
1.400059486
1.400814959
1.420600552
1.523017355
1.821952773
2.155905856
2.273314135
2.268758698
2.266182835
2.26425816
2.24837782
2.220894464
2.18173623
2.14936663
2.12039287
2.082918541
2.050924732
2.026185844
1.996370193
1.959120572
1.933922388
1.913611818
1.884354679
1.853180552
1.833028831
1.814723936
1.787390982
1.761154766
1.742684932
1.725021414
1.698919074
1.400005055
1.40000781
1.400062647
1.402758472
1.42442206
1.585484776
1.934124918
2.145942452
2.22488096
2.261767104
2.269040039
2.260713478
2.239757785
2.203893897
2.171093864
2.141809992
2.103775544
2.070561692
2.045076691
2.015527292
1.979420949
1.954621451
1.934112644
1.904204834
1.872561985
1.852469195
1.833925957
1.805844653
1.779185839
1.761155291
1.743850352
1.717635157
1.400005041
1.400005132
1.400008044
1.400246809
1.403106739
1.451192406
1.639135644
1.959719059
2.216941451
2.272868744
2.262962093
2.262924767
2.253832408
2.225495005
2.191704071
2.162171446
2.124782749
2.091361291
2.065725218
2.036512851
2.00160939
1.976940204
1.956024088
1.925703802
1.89366008
1.873001375
1.853733693
1.824603839
1.797250851
1.779693796
1.762739395
1.736609421
1.40000504
1.400005042
1.400005149
1.400018644
1.400269967
1.408685529
1.463394855
1.715373433
2.088118004
2.202859177
2.233362048
2.261722289
2.261477912
2.243781195
2.212680634
2.184092764
2.147391373
2.113008169
2.086878363
2.057997683
2.024101044
1.99905625
1.977508043
1.947088943
1.915261792
1.894245009
1.874475391
1.844747244
1.816711446
1.798696553
1.781504281
1.755193789
1.40000504
1.40000504
1.400005043
1.400005504
1.400020313
1.400909571
1.410217221
1.511930404
1.796106321
2.063661377
2.23919223
2.274480679
2.267397226
2.25367352
2.231015995
2.206433323
2.170029713
2.132849086
2.106494506
2.078720722
2.046371584
2.020870508
1.998431637
1.967659884
1.935886253
1.914511247
1.894549959
1.865285829
1.837116377
1.817927917
1.800142007
1.772914067
1.40000504
1.40000504
1.40000504
1.40000505
1.400005647
1.400061886
1.401068631
1.423177898
1.538331901
1.847897512
2.179232599
2.255154332
2.245264113
2.251546564
2.247397937
2.227976162
2.192025319
2.15225282
2.12637681
2.099407937
2.06753805
2.041019141
2.017690681
1.986767126
1.954967718
1.932954475
1.912996929
1.885089362
1.857220423
1.837608443
1.818326904
1.790512479
1.40000504
1.40000504
1.40000504
1.40000504
1.400005059
1.400007255
1.400078908
1.402868933
1.428140869
1.601736175
1.952548677
2.137882283
2.215830508
2.265951623
2.262607957
2.243947883
2.212466698
2.173133584
2.146317862
2.118502249
2.085566206
2.05856159
2.035361957
2.004843243
1.972979353
1.950032785
1.930308406
1.903556653
1.876742772
1.856599083
1.836342016
1.808601895
1.40000504
1.40000504
1.40000504
1.40000504
1.400005041
1.400005096
1.400008674
1.400216316
1.403586863
1.453459174
1.651907053
1.975351987
2.205386611
2.259712302
2.255252202
2.25063298
2.230633048
2.195403482
2.167007383
2.138314272
2.103617856
2.076656018
2.05442569
2.02480228
1.992445007
1.968117786
1.947532215
1.920896939
1.895005438
1.874250629
1.854935772
1.826667872
1.40000504
1.40000504
1.40000504
1.40000504
1.40000504
1.400005041
1.40000518
1.400014777
1.400312391
1.408330732
1.468750373
1.726007511
2.062480832
2.185211692
2.235171623
2.254270116
2.245459361
2.216827031
2.187757935
2.159675299
2.123806451
2.095635132
2.07391327
2.044817391
2.012770458
1.988162311
1.96677575
1.939830976
1.912498879
1.892754294
1.872934628
1.847503071
1.40000504
1.40000504
1.40000504
1.40000504
1.40000504
1.40000504
1.400005045
1.400005346
1.400025236
1.400788272
1.411491101
1.510246783
1.780770466
2.077376816
2.242136672
2.252336698
2.241250594
2.230080271
2.210086637
2.183738614
2.146547501
2.116186836
2.094235648
2.065038118
2.033564981
2.009069523
1.988184402
1.95992694
1.931971638
1.910584082
1.892005141
1.865986249
1.40000504
1.40000504
1.40000504
1.40000504
1.40000504
1.40000504
1.40000504
1.400005049
1.400006144
1.400052101
1.401306825
1.419967891
1.544342381
1.856697191
2.169778272
2.203910006
2.230728494
2.240318907
2.229819121
2.206215115
2.170157636
2.138541743
2.115578899
2.086424815
2.054040589
2.030412625
2.00854179
1.980590848
1.951496703
1.929184362
1.909889349
1.879623331
1.40000504
1.40000504
1.40000504
1.40000504
1.40000504
1.40000504
1.40000504
1.40000504
1.400005093
1.400007121
1.400109371
1.402286696
1.433433375
1.597275674
1.926691409
2.12692575
2.239103912
2.2487661
2.2410034
2.219918045
2.190775328
2.159917868
2.135409975
2.105236107
2.072978275
2.048937155
2.027709795
2.000843153
1.971249611
1.948334693
1.9231824
1.896087123
1.40000504
1.40000504
1.40000504
1.40000504
1.40000504
1.40000504
1.40000504
1.40000504
1.400005042
1.400005113
1.400011902
1.40018477
1.405088306
1.449622223
1.653609351
1.98488887
2.211832792
2.224930918
2.226944202
2.226887413
2.211819441
2.182769772
2.154097388
2.12438445
2.092583772
2.066864064
2.04611833
2.019204793
1.991283167
1.96245235
1.938126975
1.937972157
1.40000504
1.40000504
1.40000504
1.40000504
1.40000504
1.40000504
1.40000504
1.40000504
1.40000504
1.400005042
1.400005414
1.400015857
1.400550594
1.407880552
1.474988806
1.731292771
2.060059198
2.170429907
2.218831769
2.238038126
2.230290814
2.204518993
2.173989812
2.144744395
2.111696658
2.085397609
2.061988264
2.03669929
2.004796662
1.977578459
1.979649596
2.039454763
1.40000504
1.40000504
1.40000504
1.40000504
1.40000504
1.40000504
1.40000504
1.40000504
1.40000504
1.40000504
1.400005056
1.400005548
1.400049074
1.400801904
1.414942991
1.51426514
1.789374592
2.08794521
2.232203474
2.233878329
2.222873446
2.215576864
2.197738381
2.168449517
2.134051054
2.103356465
2.079264092
2.049393804
2.019192051
2.018784985
2.076516289
2.315561772
1.40000504
1.40000504
1.40000504
1.40000504
1.40000504
1.40000504
1.40000504
1.40000504
1.40000504
1.40000504
1.400005041
1.400005059
1.40000758
1.400061792
1.402053854
1.42238645
1.563670666
1.873380137
2.148713404
2.185615108
2.211656695
2.22580091
2.217765201
2.193995016
2.158788553
2.126586496
2.095421373
2.063304115
2.059619198
2.109708174
2.339804465
2.71989956
1.40000504
1.40000504
1.40000504
1.40000504
1.40000504
1.40000504
1.40000504
1.40000504
1.40000504
1.40000504
1.40000504
1.400005041
1.400005145
1.400007934
1.400199214
1.402915722
1.441762217
1.611623198
1.935306665
2.14459602
2.233793694
2.236516718
2.230223788
2.211125115
2.182295013
2.14768293
2.113114311
2.103415737
2.150648417
2.373811545
2.731949363
2.98148419
1.40000504
1.40000504
1.40000504
1.40000504
1.40000504
1.40000504
1.40000504
1.40000504
1.40000504
1.40000504
1.40000504
1.40000504
1.400005043
1.400005148
1.400018136
1.400261398
1.406722089
1.456804181
1.67590172
2.004223082
2.204324823
2.21034686
2.220457586
2.218480497
2.201389652
2.170316973
2.154410625
2.194941961
2.410128021
2.794697283
2.947144296
3.019708097
1.40000504
1.40000504
1.40000504
1.40000504
1.40000504
1.40000504
1.40000504
1.40000504
1.40000504
1.40000504
1.40000504
1.40000504
1.40000504
1.400005043
1.400005646
1.400020968
1.400710211
1.40954832
1.487511453
1.752238804
2.060799807
2.169616253
2.223131267
2.225606599
2.214606262
2.205120361
2.246177297
2.456799901
2.816049807
3.106426265
3.102409042
3.058146113
1.40000504
1.40000504
1.40000504
1.40000504
1.40000504
1.40000504
1.40000504
1.40000504
1.40000504
1.40000504
1.40000504
1.40000504
1.40000504
1.40000504
1.400005058
1.400005718
1.400056673
1.401029523
1.417581543
1.522782807
1.819291947
2.09579364
2.219727342
2.217412848
2.222557133
2.277029955
2.512449828
2.888564911
3.058548313
3.155063302
3.146868958
3.101205743
1.40000504
1.40000504
1.40000504
1.40000504
1.40000504
1.40000504
1.40000504
1.40000504
1.40000504
1.40000504
1.40000504
1.40000504
1.40000504
1.40000504
1.400005041
1.40000506
1.400007587
1.400082036
1.402124145
1.427059618
1.569359888
1.874799904
2.136666466
2.189989377
2.296781941
2.588547195
2.973808212
3.221604368
3.219741418
3.201786715
3.147292398
3.079145923
1.40000504
1.40000504
1.40000504
1.40000504
1.40000504
1.40000504
1.40000504
1.40000504
1.40000504
1.40000504
1.40000504
1.40000504
1.40000504
1.40000504
1.40000504
1.400005041
1.400005125
1.400008875
1.400180058
1.403635868
1.441890484
1.623560454
1.943301774
2.250601658
2.57075367
2.967128359
3.169843343
3.307166463
3.28602432
3.214701527
3.135768647
3.068305563
1.40000504
1.40000504
1.40000504
1.40000504
1.40000504
1.40000504
1.40000504
1.40000504
1.40000504
1.40000504
1.40000504
1.40000504
1.40000504
1.40000504
1.40000504
1.40000504
1.400005042
1.40000516
1.400014189
1.400309683
1.406699123
1.464799134
1.760055577
2.350914205
2.975380573
3.355362855
3.400698889
3.381830804
3.316491176
3.224045326
3.130962102
3.059562208
)
;

boundaryField
{
    inlet
    {
        type            calculated;
        value           nonuniform 0();
    }
    outlet
    {
        type            calculated;
        value           nonuniform 0();
    }
    bottom
    {
        type            calculated;
        value           nonuniform 0();
    }
    top
    {
        type            calculated;
        value           nonuniform List<scalar> 
32
(
1.40000504
1.40000504
1.40000504
1.40000504
1.40000504
1.40000504
1.40000504
1.40000504
1.40000504
1.40000504
1.40000504
1.40000504
1.40000504
1.40000504
1.40000504
1.40000504
1.400005042
1.40000516
1.400014189
1.400309683
1.406699123
1.464799134
1.760055577
2.350914205
2.975380573
3.355362855
3.400698889
3.381830804
3.316491176
3.224045326
3.130962102
3.059562208
)
;
    }
    obstacle
    {
        type            calculated;
        value           nonuniform 0();
    }
    defaultFaces
    {
        type            empty;
    }
    procBoundary34to27
    {
        type            processor;
        value           nonuniform List<scalar> 9(1.348174065 1.380630564 1.411103485 1.442033999 1.473792022 1.50590887 1.5397517 1.572645798 1.606077345);
    }
    procBoundary34to28
    {
        type            processor;
        value           nonuniform List<scalar> 
32
(
1.141253435
1.125023429
1.111173251
1.096546759
1.08069776
1.067869911
1.056144528
1.042826504
1.030194373
1.020087004
1.010613975
0.9993320806
0.9894358439
0.9807713166
0.9721835799
0.9622793103
0.9541717233
0.9469877127
0.9396063943
0.9314561724
0.9245903451
0.9179992222
0.9105845296
0.9033655326
0.8973948742
1.294149006
1.273231732
1.24822474
1.225048434
1.206182664
1.188057588
1.188057588
)
;
    }
    procBoundary34to29
    {
        type            processor;
        value           uniform 0.9049870411;
    }
    procBoundary34to33
    {
        type            processor;
        value           nonuniform List<scalar> 
61
(
1.638711605
1.672271052
1.706485833
1.74139851
1.776093565
1.80973119
1.842591409
1.874885527
1.907818617
1.941310403
1.974805028
2.007332988
2.038378028
2.067960951
2.096900346
2.126077543
2.155442014
2.183367832
2.207816232
2.228357751
2.246293067
2.263938353
2.279226311
2.28924379
2.294991669
2.303296793
2.290895211
2.261862859
2.26662508
2.188711372
1.935742285
1.650038373
1.471365721
1.413460568
1.401784184
1.400173468
1.400016424
1.40000556
1.400005055
1.40000504
1.40000504
1.40000504
1.40000504
1.40000504
1.40000504
1.40000504
1.40000504
1.40000504
1.40000504
1.40000504
1.40000504
1.40000504
1.40000504
1.40000504
1.40000504
1.40000504
1.40000504
1.40000504
1.40000504
1.40000504
1.40000504
)
;
    }
    procBoundary34to35
    {
        type            processor;
        value           nonuniform List<scalar> 
71
(
0.9198845116
0.9333234788
0.9486088952
0.9626234088
0.977568542
0.9919825965
1.006977527
1.02186866
1.037303275
1.052998171
1.069032941
1.084863613
1.100979557
1.11682605
1.132658366
1.148861624
1.165237563
1.18177727
1.198620813