/*--------------------------------*- C++ -*----------------------------------*\
  =========                 |
  \\      /  F ield         | OpenFOAM: The Open Source CFD Toolbox
   \\    /   O peration     | Website:  https://openfoam.org
    \\  /    A nd           | Version:  7
     \\/     M anipulation  |
\*---------------------------------------------------------------------------*/
FoamFile
{
    version     2.0;
    format      ascii;
    class       volVectorField;
    location    "0.3";
    object      U;
}
// * * * * * * * * * * * * * * * * * * * * * * * * * * * * * * * * * * * * * //

dimensions      [0 1 -1 0 0 0 0];

internalField   nonuniform List<vector> 5((3 -2.490520407e-15 0) (3 -2.58951723e-15 0) (3 -5.685078349e-16 0) (3 1.813593527e-11 0) (2.999999988 -2.706202519e-08 0));

boundaryField
{
    inlet
    {
        type            fixedValue;
        value           nonuniform 0();
    }
    outlet
    {
        type            inletOutlet;
        inletValue      nonuniform 0();
        value           nonuniform 0();
    }
    bottom
    {
        type            slip;
    }
    top
    {
        type            slip;
    }
    obstacle
    {
        type            slip;
    }
    defaultFaces
    {
        type            empty;
    }
    procBoundary1to0
    {
        type            processor;
        value           uniform (3 -2.077158628e-15 0);
    }
    procBoundary1to2
    {
        type            processor;
        value           uniform (2.999999999 -4.597551989e-09 0);
    }
    procBoundary1to6
    {
        type            processor;
        value           uniform (3 -5.957567633e-16 0);
    }
    procBoundary1to7
    {
        type            processor;
        value           nonuniform List<vector> 5((3 4.119405836e-17 0) (3 4.119405836e-17 0) (3 1.10103486e-15 0) (3 4.119405836e-17 0) (2.999989505 -1.852597526e-05 0));
    }
    procBoundary1to8
    {
        type            processor;
        value           uniform (2.999999986 -1.109031206e-07 0);
    }
}


// ************************************************************************* //
