/*--------------------------------*- C++ -*----------------------------------*\
  =========                 |
  \\      /  F ield         | OpenFOAM: The Open Source CFD Toolbox
   \\    /   O peration     | Website:  https://openfoam.org
    \\  /    A nd           | Version:  7
     \\/     M anipulation  |
\*---------------------------------------------------------------------------*/
FoamFile
{
    version     2.0;
    format      ascii;
    class       volVectorField;
    location    "2.3";
    object      U;
}
// * * * * * * * * * * * * * * * * * * * * * * * * * * * * * * * * * * * * * //

dimensions      [0 1 -1 0 0 0 0];

internalField   nonuniform List<vector> 
2222
(
(2.948661372 0.001578773738 0)
(2.950633509 0.005115303723 0)
(2.947992684 -0.003878250956 0)
(2.948551014 -0.002353744579 0)
(2.949431888 0.00333251171 0)
(2.94847993 0.002309190431 0)
(2.946769264 -0.0007302091032 0)
(2.947222708 -0.001112244323 0)
(2.947706852 -0.001064174542 0)
(2.948450917 -0.0004593992642 0)
(2.94920626 0.0004150005972 0)
(2.948238597 2.272747454e-05 0)
(2.947168161 -0.0010768983 0)
(2.945219467 -0.002967862552 0)
(2.945365234 -0.004861929677 0)
(2.946511289 -0.005598754536 0)
(2.947177436 -0.005158756345 0)
(2.947421451 -0.005098909669 0)
(2.947509957 -0.005139262391 0)
(2.947560199 -0.004539735789 0)
(2.947547316 -0.003885423827 0)
(2.94753491 -0.003114851649 0)
(2.947349242 -0.003091806412 0)
(2.947211987 -0.004413192859 0)
(2.946976106 -0.005808169408 0)
(2.946753281 -0.005940469708 0)
(2.946584497 -0.005794975971 0)
(2.950529674 0.001561420104 0)
(2.948522776 -0.0002721401644 0)
(2.948506145 -0.002019807383 0)
(2.949030748 -0.0007306037733 0)
(2.949597834 0.001826399058 0)
(2.950079634 0.003629410408 0)
(2.949323913 0.001534449551 0)
(2.949015344 0.001945879051 0)
(2.950525924 0.005307407939 0)
(2.947709213 -0.003893868963 0)
(2.948474125 -0.002382543917 0)
(2.949588406 0.003388142248 0)
(2.948666104 0.002417373434 0)
(2.947146255 -0.0008942241649 0)
(2.947590549 -0.001038110534 0)
(2.947973582 -0.000956618294 0)
(2.948581079 -0.0004552000694 0)
(2.949159714 0.0004544298815 0)
(2.948519579 1.973033966e-05 0)
(2.947415815 -0.001068143969 0)
(2.945347181 -0.003257779544 0)
(2.945511893 -0.004705489947 0)
(2.946753149 -0.004798434422 0)
(2.947231782 -0.004601752838 0)
(2.947545257 -0.004477649549 0)
(2.947823035 -0.004480537973 0)
(2.947732749 -0.003546226688 0)
(2.947718634 -0.002804658777 0)
(2.947641118 -0.002354453728 0)
(2.947523395 -0.00300990924 0)
(2.947375699 -0.004607100813 0)
(2.94707772 -0.006144928558 0)
(2.947008631 -0.006381232401 0)
(2.946782556 -0.006234602907 0)
(2.950490469 0.0013331293 0)
(2.948944341 0.002237186806 0)
(2.948662943 0.0002258061812 0)
(2.949738498 -0.0008980849263 0)
(2.950550917 0.0008854249391 0)
(2.950702278 0.003403130446 0)
(2.949671763 0.002300821209 0)
(2.949255167 0.002384512929 0)
(2.950404819 0.005433733264 0)
(2.947457298 -0.003857189118 0)
(2.948411383 -0.002259318272 0)
(2.949786403 0.00360038421 0)
(2.948862556 0.002512645944 0)
(2.94743051 -0.0008726722996 0)
(2.947816327 -0.001004994704 0)
(2.94816148 -0.0009494812147 0)
(2.948743409 -0.0005442922048 0)
(2.949170545 0.0002714405771 0)
(2.948767233 -0.0003133743978 0)
(2.947666461 -0.001559186901 0)
(2.94538367 -0.00356330911 0)
(2.945633792 -0.004441683499 0)
(2.946821609 -0.004276507346 0)
(2.947590902 -0.003976796482 0)
(2.947821811 -0.004067709143 0)
(2.94803436 -0.003730750079 0)
(2.948030695 -0.002824460692 0)
(2.947903547 -0.002419408435 0)
(2.947798733 -0.002226859935 0)
(2.94766722 -0.002777118933 0)
(2.947459636 -0.004716707819 0)
(2.947292707 -0.00679729697 0)
(2.947175353 -0.007041941118 0)
(2.947143907 -0.007029508279 0)
(2.95073653 -0.004034092663 0)
(2.94953445 0.0007373334558 0)
(2.949528442 0.002157286722 0)
(2.95023902 0.0003575040177 0)
(2.951098048 0.0003631819384 0)
(2.951159911 0.002556293324 0)
(2.949889784 0.003029151375 0)
(2.949223202 0.002581529487 0)
(2.950298574 0.005441829158 0)
(2.947276129 -0.003702489396 0)
(2.948379144 -0.001623339805 0)
(2.950070431 0.00423450702 0)
(2.949128999 0.002691550222 0)
(2.947671831 -0.0007387852287 0)
(2.948048358 -0.0009893769597 0)
(2.948346622 -0.0009847380209 0)
(2.948866917 -0.0006714036649 0)
(2.949279813 -0.0001447218544 0)
(2.948918571 -0.0008908633003 0)
(2.947842835 -0.002295579028 0)
(2.945528086 -0.003945400604 0)
(2.945755468 -0.004222394198 0)
(2.946993947 -0.003972865953 0)
(2.94774109 -0.003658766614 0)
(2.948065544 -0.003621242216 0)
(2.948242994 -0.003378480455 0)
(2.948318578 -0.002500419932 0)
(2.948097386 -0.001947153063 0)
(2.947902273 -0.002032902841 0)
(2.947691958 -0.003263093719 0)
(2.947463158 -0.005189239309 0)
(2.947332817 -0.007179047652 0)
(2.947280216 -0.007687520354 0)
(2.947316641 -0.007526370581 0)
(2.951482632 -0.009048042325 0)
(2.950403436 -0.004286992606 0)
(2.950428372 0.001547235405 0)
(2.950925592 0.00222664334 0)
(2.951479438 0.0005217472213 0)
(2.951551998 0.002030550912 0)
(2.949908721 0.00300460754 0)
(2.949145897 0.002537775 0)
(2.950245233 0.005509275198 0)
(2.947168196 -0.002904997347 0)
(2.948401177 -0.0006527922766 0)
(2.950310402 0.004656353717 0)
(2.949353573 0.002707694559 0)
(2.948004832 -0.0006522506729 0)
(2.948258933 -0.0008411454611 0)
(2.948489252 -0.0009531293441 0)
(2.948932313 -0.0009043891158 0)
(2.9493479 -0.0007242949881 0)
(2.949072519 -0.001440926222 0)
(2.948126907 -0.00295407511 0)
(2.945765651 -0.004178689423 0)
(2.94587255 -0.004113295931 0)
(2.94710489 -0.003919167101 0)
(2.947911072 -0.003649679237 0)
(2.948262496 -0.00349602189 0)
(2.948466177 -0.003234049634 0)
(2.948502242 -0.00266187518 0)
(2.948189812 -0.002619847759 0)
(2.947969752 -0.002885067686 0)
(2.947647766 -0.004094388485 0)
(2.947448207 -0.006190581227 0)
(2.947416053 -0.008109906172 0)
(2.947439887 -0.008247524496 0)
(2.947502539 -0.007736351269 0)
(2.952193646 -0.009375575337 0)
(2.951795381 -0.007145472741 0)
(2.95131413 -0.00221528292 0)
(2.951503935 0.00230203088 0)
(2.951582309 0.001811151616 0)
(2.95152234 0.001678228119 0)
(2.949909119 0.002422556434 0)
(2.949046303 0.00234004558 0)
(2.9501951 0.006319286301 0)
(2.947161437 -0.002257662929 0)
(2.948505497 -0.000181513898 0)
(2.950591634 0.004755762373 0)
(2.949548235 0.002593421977 0)
(2.948179641 -0.0007837231001 0)
(2.948387757 -0.0005752581124 0)
(2.948537983 -0.000647468144 0)
(2.948900382 -0.0009570002679 0)
(2.949380609 -0.001107905458 0)
(2.949264772 -0.001882413901 0)
(2.948480369 -0.003205800243 0)
(2.946134358 -0.004078298224 0)
(2.94591356 -0.004010446804 0)
(2.94717001 -0.003946832454 0)
(2.948045613 -0.003640379056 0)
(2.948439057 -0.003304992746 0)
(2.948569355 -0.002892869533 0)
(2.948532148 -0.00271185105 0)
(2.948218619 -0.003340490254 0)
(2.947980297 -0.003962046839 0)
(2.947644569 -0.005208700402 0)
(2.947454099 -0.007022069713 0)
(2.947542136 -0.008540639276 0)
(2.947621417 -0.008305667603 0)
(2.947704192 -0.007391179233 0)
(2.952361992 -0.005203920342 0)
(2.95251748 -0.007753294349 0)
(2.952565924 -0.005138842232 0)
(2.951926551 0.0001002014817 0)
(2.951568934 0.002921323299 0)
(2.951273332 0.001791180224 0)
(2.949808491 0.001900404891 0)
(2.949058875 0.002217626958 0)
(2.950167491 0.007575760554 0)
(2.947160351 -0.002031974649 0)
(2.948607276 -8.482237467e-05 0)
(2.950846139 0.004714830715 0)
(2.949735366 0.002207582349 0)
(2.948256483 -0.0009828485766 0)
(2.948461459 -0.0004114635824 0)
(2.948553219 -0.0003988192337 0)
(2.948852073 -0.001001836892 0)
(2.949502621 -0.001361239472 0)
(2.949478593 -0.001788632076 0)
(2.948717886 -0.003049432609 0)
(2.946461597 -0.00392298076 0)
(2.945969019 -0.003935993435 0)
(2.947137486 -0.003837049607 0)
(2.948175902 -0.003441912234 0)
(2.948557287 -0.00301293518 0)
(2.948621175 -0.002730536907 0)
(2.948526458 -0.002636613186 0)
(2.948217691 -0.003470162462 0)
(2.947957376 -0.00424849723 0)
(2.947626446 -0.005386066577 0)
(2.947463071 -0.006931873308 0)
(2.947654276 -0.008369108955 0)
(2.947841998 -0.007713402953 0)
(2.947884856 -0.0064430918 0)
(2.952757965 -0.004087614442 0)
(2.952989339 -0.00612259418 0)
(2.952620577 -0.003036355985 0)
(2.951447649 0.001923971324 0)
(2.95090674 0.002818981595 0)
(2.949677631 0.001650218714 0)
(2.949155627 0.002271055427 0)
(2.950426149 0.008223180467 0)
(2.947205288 -0.002230113581 0)
(2.948739138 -0.0002082904086 0)
(2.950974196 0.004630784229 0)
(2.949938927 0.00207889505 0)
(2.948363994 -0.001123920443 0)
(2.948451895 -0.0004386198132 0)
(2.948532386 -0.000300880471 0)
(2.948784742 -0.0009600067884 0)
(2.94959425 -0.001385644194 0)
(2.949650507 -0.001842840889 0)
(2.948935735 -0.00310078621 0)
(2.946742576 -0.003838338842 0)
(2.946084155 -0.003874002542 0)
(2.947121744 -0.003597547349 0)
(2.948206961 -0.003279689105 0)
(2.948607702 -0.002875975341 0)
(2.94877729 -0.002385962821 0)
(2.948591039 -0.002223689501 0)
(2.94824226 -0.003308180302 0)
(2.947978024 -0.004069285045 0)
(2.947646799 -0.005258972421 0)
(2.947530238 -0.006589188962 0)
(2.947836021 -0.007667578015 0)
(2.948036697 -0.006549089369 0)
(2.948089683 -0.005696102681 0)
(2.953012491 0.001653376923 0)
(2.952993799 -0.004058621988 0)
(2.952383703 -0.005154770524 0)
(2.951444494 -0.001200934051 0)
(2.950690739 0.003128004727 0)
(2.94958436 0.001777186745 0)
(2.949326369 0.003258172222 0)
(2.950702405 0.00818709592 0)
(2.947214451 -0.003971050523 0)
(2.948852145 -0.001186978226 0)
(2.951130882 0.004562191939 0)
(2.950073347 0.001883094121 0)
(2.948366432 -0.001343684186 0)
(2.948410983 -0.0006194209999 0)
(2.948466896 -0.0003990429634 0)
(2.948683994 -0.0009979796234 0)
(2.949606198 -0.001505754231 0)
(2.949746656 -0.001994497401 0)
(2.949204212 -0.003117625427 0)
(2.947144751 -0.003701333477 0)
(2.946257888 -0.003850696473 0)
(2.947084867 -0.003562645875 0)
(2.94819346 -0.003093210724 0)
(2.948693297 -0.002708061801 0)
(2.948817667 -0.002326688708 0)
(2.948561407 -0.00232801643 0)
(2.948253227 -0.003062816246 0)
(2.948008035 -0.003741064104 0)
(2.94770729 -0.005099755339 0)
(2.947588344 -0.006112022988 0)
(2.947978712 -0.006360780407 0)
(2.948161509 -0.005655893162 0)
(2.948231271 -0.005326299201 0)
(2.948255272 -0.004706752067 0)
(2.953305864 0.002859031584 0)
(2.952874706 0.0009679366813 0)
(2.952326933 -0.004055653368 0)
(2.951574243 -0.002612127208 0)
(2.950595303 0.002147250783 0)
(2.949565811 0.00278416552 0)
(2.94951338 0.004375738423 0)
(2.950912141 0.007597821457 0)
(2.947191391 -0.005778524743 0)
(2.948981724 -0.002276941938 0)
(2.951303396 0.004690800742 0)
(2.950121119 0.001649646581 0)
(2.948312911 -0.001417408635 0)
(2.948334517 -0.0007181677131 0)
(2.948451131 -0.0005552604293 0)
(2.948603954 -0.001146817655 0)
(2.949559426 -0.001604389475 0)
(2.949896066 -0.002108327833 0)
(2.949487774 -0.00314611204 0)
(2.947405959 -0.003724747763 0)
(2.946430183 -0.003768442175 0)
(2.947068409 -0.003371984639 0)
(2.948181833 -0.002986966434 0)
(2.948748125 -0.002691284183 0)
(2.948867596 -0.002482225916 0)
(2.948524325 -0.002495189063 0)
(2.948242815 -0.002812190933 0)
(2.947930568 -0.003387309463 0)
(2.947657278 -0.004551672484 0)
(2.947627707 -0.005212477915 0)
(2.948019374 -0.005499519957 0)
(2.948261402 -0.005211855936 0)
(2.948350262 -0.005031376873 0)
(2.948339563 -0.004572729779 0)
(2.953637257 -0.002698801234 0)
(2.953310391 0.002983516804 0)
(2.952009455 0.0006925060367 0)
(2.951410065 -0.002857127972 0)
(2.950862363 6.069942543e-05 0)
(2.949831871 0.003183944714 0)
(2.949888181 0.004954942708 0)
(2.951211511 0.006962161188 0)
(2.947231959 -0.006399581871 0)
(2.949191196 -0.00282817056 0)
(2.95144019 0.004987760618 0)
(2.950099075 0.001532066214 0)
(2.948287521 -0.001268223312 0)
(2.948270949 -0.0002750585489 0)
(2.948430771 -0.0004410607621 0)
(2.948538525 -0.001338992697 0)
(2.949616517 -0.001843891656 0)
(2.95005237 -0.002174293843 0)
(2.949732732 -0.003220125024 0)
(2.947566234 -0.003655346531 0)
(2.946639778 -0.003587390326 0)
(2.947038979 -0.003303835324 0)
(2.94817326 -0.003002691468 0)
(2.948715932 -0.002824424523 0)
(2.948824836 -0.002862094521 0)
(2.948501541 -0.002617784989 0)
(2.948284535 -0.002719756471 0)
(2.947924966 -0.003229166767 0)
(2.947560337 -0.003835341038 0)
(2.947589278 -0.004287445074 0)
(2.948007794 -0.005008126219 0)
(2.948287008 -0.005176076154 0)
(2.94841368 -0.004995163545 0)
(2.94841894 -0.004997670786 0)
(2.954134223 -0.01171489726 0)
(2.953484254 -0.0007278879964 0)
(2.952365183 0.003279629826 0)
(2.951066955 -0.001073285443 0)
(2.950957808 -0.0009363260449 0)
(2.950188669 0.002620397125 0)
(2.950084358 0.004108730254 0)
(2.951284989 0.006222879854 0)
(2.947094913 -0.007098942373 0)
(2.949175407 -0.003382562002 0)
(2.951554023 0.005061494537 0)
(2.950053648 0.001251534396 0)
(2.948306597 -0.001091858439 0)
(2.948278022 0.000462126461 0)
(2.948396325 0.0002211091917 0)
(2.94843119 -0.001238526657 0)
(2.949635673 -0.001647291898 0)
(2.950123842 -0.00209093781 0)
(2.949887809 -0.003245204411 0)
(2.947747785 -0.003528934235 0)
(2.946919696 -0.003502388061 0)
(2.946986741 -0.003178097159 0)
(2.948160077 -0.003170276084 0)
(2.948687957 -0.003177831607 0)
(2.948836331 -0.003334798994 0)
(2.948532295 -0.002830978024 0)
(2.94831985 -0.002871265811 0)
(2.947910914 -0.003221018624 0)
(2.947543831 -0.00348324859 0)
(2.947540564 -0.003793890113 0)
(2.947987263 -0.004843119036 0)
(2.948216015 -0.005331231449 0)
(2.948410325 -0.005339537032 0)
(2.948389336 -0.005491219304 0)
(2.95435061 -0.01538680168 0)
(2.954633278 -0.008688854534 0)
(2.95268949 0.001367238552 0)
(2.951102107 0.001918698527 0)
(2.95088089 -0.001191547102 0)
(2.950458659 0.000972006297 0)
(2.950286616 0.002919041358 0)
(2.951319679 0.005976049494 0)
(2.946921713 -0.007207690038 0)
(2.949163789 -0.003662493941 0)
(2.951650918 0.004863082715 0)
(2.950016083 0.0007370370541 0)
(2.948280025 -0.001209034606 0)
(2.948346146 0.0007293331761 0)
(2.948341064 0.0006431722083 0)
(2.948288793 -0.0007845327258 0)
(2.949603915 -0.001119083048 0)
(2.950155194 -0.001932578802 0)
(2.949979749 -0.003257492618 0)
(2.947902413 -0.003495990892 0)
(2.94704923 -0.003074782643 0)
(2.946962722 -0.00271676957 0)
(2.948075062 -0.003155033547 0)
(2.948604036 -0.003532441376 0)
(2.948782308 -0.003548640856 0)
(2.948555885 -0.003084069028 0)
(2.948323288 -0.003003840279 0)
(2.947856559 -0.003219468543 0)
(2.94755397 -0.003512638827 0)
(2.947544554 -0.003584112798 0)
(2.947922592 -0.004992704195 0)
(2.948187249 -0.006144212222 0)
(2.948332676 -0.006291806273 0)
(2.948376446 -0.00624151412 0)
(2.954283615 -0.01394172574 0)
(2.954788551 -0.0138053881 0)
(2.953520508 -0.005428552214 0)
(2.951352665 0.002239642407 0)
(2.950691629 0.0006344759017 0)
(2.950564237 -3.972323251e-05 0)
(2.950556314 0.002368286531 0)
(2.951425498 0.006931701587 0)
(2.946830344 -0.006168291522 0)
(2.949053881 -0.003384592662 0)
(2.951737999 0.00466056075 0)
(2.950033553 8.488332569e-05 0)
(2.94821662 -0.001422713355 0)
(2.948491025 0.0007977326223 0)
(2.948384424 0.001021424307 0)
(2.948154719 -0.0002759740785 0)
(2.949515351 -0.0006787751601 0)
(2.950121797 -0.00186887319 0)
(2.950062065 -0.003292025911 0)
(2.948134018 -0.003361511217 0)
(2.947169341 -0.002458474543 0)
(2.946975189 -0.002367872317 0)
(2.947881371 -0.0029951413 0)
(2.94845132 -0.003701658723 0)
(2.948779429 -0.003771782827 0)
(2.948558905 -0.003407579968 0)
(2.948273568 -0.003328558421 0)
(2.947895987 -0.003513607592 0)
(2.947498703 -0.003736631713 0)
(2.947486354 -0.004197845611 0)
(2.947784209 -0.005903445092 0)
(2.948113758 -0.006969733633 0)
(2.948263383 -0.006683533857 0)
(2.94839479 -0.006330800649 0)
(2.954017972 0.0007002567138 0)
(2.955255003 -0.01107087151 0)
(2.95438627 -0.009431399492 0)
(2.951847461 -0.0005600093512 0)
(2.950556566 0.002571636721 0)
(2.950405881 -0.0002959161828 0)
(2.950679825 0.002259631961 0)
(2.951513486 0.009899164783 0)
(2.946625427 -0.004455956782 0)
(2.948847988 -0.002133975705 0)
(2.951773562 0.004654065547 0)
(2.950120234 -8.323277992e-06 0)
(2.948160981 -0.001606210082 0)
(2.948546715 0.000640324295 0)
(2.948297604 0.0007633919672 0)
(2.947908943 -0.0004476203457 0)
(2.949260557 -0.000719789252 0)
(2.950051469 -0.0018616601 0)
(2.950057594 -0.003126125952 0)
(2.948442434 -0.003040039504 0)
(2.947231488 -0.002232482895 0)
(2.946993552 -0.002399668578 0)
(2.947587892 -0.002929143411 0)
(2.948323879 -0.003649871932 0)
(2.948713366 -0.004304682505 0)
(2.94849081 -0.004303416425 0)
(2.948236304 -0.003953556157 0)
(2.947894143 -0.004269543604 0)
(2.947408833 -0.004455005346 0)
(2.947300227 -0.005358776551 0)
(2.947570786 -0.006909813558 0)
(2.947915226 -0.00737437457 0)
(2.94821257 -0.006549969911 0)
(2.948348279 -0.006076500189 0)
(2.95429036 -0.001440306869 0)
(2.954513547 -0.009040240659 0)
(2.952584569 -0.005414400109 0)
(2.950677173 0.003103868613 0)
(2.950105109 0.0005423717656 0)
(2.950748434 0.003546533196 0)
(2.951736339 0.01168294635 0)
(2.946284617 -0.004077188559 0)
(2.948583847 -0.001284881305 0)
(2.951743086 0.005320965518 0)
(2.950169607 -0.0002178510136 0)
(2.947954685 -0.001737996947 0)
(2.948509283 0.0004896358189 0)
(2.948187237 0.0005671571774 0)
(2.94768542 -0.0005681733694 0)
(2.948984411 -0.000753295154 0)
(2.949953894 -0.001846080084 0)
(2.949961379 -0.002728931668 0)
(2.94860692 -0.002687009209 0)
(2.947276807 -0.002457693884 0)
(2.946928866 -0.002535857562 0)
(2.947360556 -0.002780042936 0)
(2.948198371 -0.00355841655 0)
(2.94860041 -0.004714512551 0)
(2.948403345 -0.00514079817 0)
(2.948098979 -0.005229793112 0)
(2.947676086 -0.005027492422 0)
(2.94723746 -0.005498968504 0)
(2.947109281 -0.006085873753 0)
(2.947305371 -0.006760310056 0)
(2.947658386 -0.007041221604 0)
(2.948024504 -0.006021846018 0)
(2.948173122 -0.005499529466 0)
(2.954076227 0.008282662461 0)
(2.953855043 -0.004020873764 0)
(2.952595595 -0.007284603569 0)
(2.950841328 -0.0006570335854 0)
(2.949872188 0.002029244039 0)
(2.950651522 0.004996674541 0)
(2.951761856 0.01134019936 0)
(2.946007612 -0.004728849594 0)
(2.948308935 -0.001228154728 0)
(2.951615072 0.006726673331 0)
(2.950090051 -0.0002865256432 0)
(2.947759794 -0.00160362998 0)
(2.948434405 0.0007588129514 0)
(2.948065653 0.0007173032809 0)
(2.947512998 -0.0006257912539 0)
(2.948747228 -0.001014360333 0)
(2.949828919 -0.001666183657 0)
(2.949863171 -0.002504842263 0)
(2.948642438 -0.002541042258 0)
(2.947350832 -0.002565819569 0)
(2.946839649 -0.002417215242 0)
(2.947222198 -0.002690374645 0)
(2.947953168 -0.003547888278 0)
(2.948528715 -0.004752510831 0)
(2.948373496 -0.005839710481 0)
(2.948142432 -0.00643086395 0)
(2.947622962 -0.006388779144 0)
(2.94713812 -0.006261613529 0)
(2.946966782 -0.006099653463 0)
(2.947122772 -0.006222126785 0)
(2.947723677 -0.006037135418 0)
(2.948039092 -0.005135406233 0)
(2.948217604 -0.004743603849 0)
(2.954900882 0.003735555041 0)
(2.953691951 0.005178132058 0)
(2.951930478 -0.007343002815 0)
(2.951051357 -0.00506170699 0)
(2.949778436 0.00152207975 0)
(2.95047625 0.004476950503 0)
(2.951697184 0.009085602863 0)
(2.94570508 -0.0077822872 0)
(2.94810828 -0.001864963608 0)
(2.951534497 0.008089974922 0)
(2.949826226 -9.976189028e-05 0)
(2.947669713 -0.001244990125 0)
(2.948340368 0.001583121846 0)
(2.947918159 0.001421430692 0)
(2.947215622 -0.0004545799592 0)
(2.948411644 -0.0009044168187 0)
(2.949671891 -0.001525608273 0)
(2.949741357 -0.002519697313 0)
(2.948612113 -0.002517699154 0)
(2.947502846 -0.002279183651 0)
(2.946799739 -0.002180398435 0)
(2.94707601 -0.002449158643 0)
(2.947734104 -0.003424545532 0)
(2.948453248 -0.005211647267 0)
(2.948130901 -0.006780224094 0)
(2.948060311 -0.007358272181 0)
(2.94744103 -0.007456403785 0)
(2.946965109 -0.00665676324 0)
(2.946754326 -0.005890862333 0)
(2.946913849 -0.005488495633 0)
(2.947353746 -0.004973456594 0)
(2.947823452 -0.004169615872 0)
(2.947999908 -0.003923790697 0)
(2.956198681 -0.01397465948 0)
(2.953478843 0.004487406172 0)
(2.951262796 6.134661273e-05 0)
(2.950588321 -0.006226549 0)
(2.949805682 -0.001006777321 0)
(2.950311418 0.002319498924 0)
(2.951636625 0.006203512418 0)
(2.945550402 -0.009704748077 0)
(2.948168548 -0.002615333009 0)
(2.951447352 0.007845323345 0)
(2.94934495 -0.0002670378644 0)
(2.947604199 -0.001196490001 0)
(2.948229875 0.002170116047 0)
(2.947767416 0.001987259041 0)
(2.946871518 -0.0001112101832 0)
(2.948113943 -0.0006432781704 0)
(2.949447862 -0.001502746157 0)
(2.949578325 -0.002542449711 0)
(2.948559286 -0.002469734999 0)
(2.947528691 -0.001830656957 0)
(2.946686169 -0.001508438882 0)
(2.946881067 -0.001812385327 0)
(2.947398757 -0.003233666339 0)
(2.948061349 -0.005623076754 0)
(2.947928636 -0.007455792511 0)
(2.947664024 -0.008060753981 0)
(2.947261366 -0.008133715134 0)
(2.946751497 -0.00712394754 0)
(2.946572796 -0.005903510393 0)
(2.946830465 -0.005036402242 0)
(2.947292892 -0.004031471074 0)
(2.947714247 -0.003377283634 0)
(2.947882998 -0.003174808163 0)
(2.957461562 -0.0216363943 0)
(2.954521486 -0.003705206705 0)
(2.951355593 0.004503288189 0)
(2.949995594 -0.004225256927 0)
(2.949802711 -0.003383863151 0)
(2.95028202 0.001102099083 0)
(2.951424781 0.004716047849 0)
(2.945028543 -0.01121503695 0)
(2.948070747 -0.003500205325 0)
(2.951547824 0.007892404611 0)
(2.948780247 -0.000671157357 0)
(2.947572188 -0.001326698312 0)
(2.948182907 0.002259003003 0)
(2.947581776 0.002215877924 0)
(2.946545068 0.000171252456 0)
(2.947718865 -0.0004111946651 0)
(2.94916183 -0.001501322407 0)
(2.949337645 -0.002589942431 0)
(2.948500615 -0.002349060411 0)
(2.947500708 -0.00123753849 0)
(2.946541748 -0.0008543805167 0)
(2.946638801 -0.001454421295 0)
(2.946923757 -0.003156882773 0)
(2.947495706 -0.005777857645 0)
(2.947710596 -0.007906448692 0)
(2.94746599 -0.008416559384 0)
(2.94715921 -0.008316321563 0)
(2.946640866 -0.007116045051 0)
(2.946387537 -0.005085631123 0)
(2.946634981 -0.004254118297 0)
(2.947072214 -0.00331235478 0)
(2.947404367 -0.002934365318 0)
(2.947582065 -0.00282178147 0)
(2.959777345 -0.02992481245 0)
(2.957849878 -0.0117359234 0)
(2.952223728 0.005355184254 0)
(2.949415709 0.002264814555 0)
(2.949454492 -0.003876019499 0)
(2.950216627 8.785927686e-05 0)
(2.951399197 0.004390876257 0)
(2.944972247 -0.01118241065 0)
(2.948106083 -0.003600686842 0)
(2.951565213 0.007848807256 0)
(2.948262012 -0.001350645615 0)
(2.947547125 -0.001720388356 0)
(2.948161316 0.002213440715 0)
(2.947321637 0.002213700607 0)
(2.946092852 8.212536186e-05 0)
(2.947193129 -0.0005745480678 0)
(2.948897138 -0.001654474296 0)
(2.949038592 -0.00265611119 0)
(2.948429572 -0.00209848587 0)
(2.947377928 -0.0008907655751 0)
(2.946442845 -0.0006060760528 0)
(2.946378346 -0.001534221848 0)
(2.946491234 -0.003290190211 0)
(2.947110941 -0.006383900749 0)
(2.947444635 -0.008144601234 0)
(2.947254673 -0.008212884317 0)
(2.947000983 -0.007821064899 0)
(2.946593055 -0.006544201982 0)
(2.946329253 -0.004285326045 0)
(2.946437286 -0.003373192559 0)
(2.946862314 -0.003118558459 0)
(2.94716566 -0.003070290715 0)
(2.947425752 -0.003166364939 0)
(2.967721753 -0.03157278062 0)
(2.95923315 -0.01896456092 0)
(2.952913863 -0.005519435553 0)
(2.949536011 0.004758486045 0)
(2.948781578 -0.003569367322 0)
(2.950073968 0.0009390256743 0)
(2.951296711 0.00563759054 0)
(2.944766641 -0.01048118409 0)
(2.948062587 -0.003089790275 0)
(2.951521321 0.007874914363 0)
(2.947790058 -0.00202786214 0)
(2.947514246 -0.002038326335 0)
(2.948124404 0.002076035005 0)
(2.9470784 0.002005492506 0)
(2.945749777 -0.0001525440618 0)
(2.946659105 -0.0008056869303 0)
(2.948487086 -0.001791326256 0)
(2.948656219 -0.002299132963 0)
(2.948241701 -0.001743843308 0)
(2.947224 -0.0007598129758 0)
(2.946281537 -0.0009743528074 0)
(2.946106914 -0.001764736086 0)
(2.946154838 -0.003610550018 0)
(2.946748282 -0.006570234644 0)
(2.947161425 -0.008013358197 0)
(2.947077161 -0.007892644348 0)
(2.946942696 -0.007621822774 0)
(2.94658119 -0.006432886029 0)
(2.946274425 -0.003966268021 0)
(2.946332159 -0.002773794399 0)
(2.946627144 -0.00281855239 0)
(2.947028038 -0.003366552029 0)
(2.94737442 -0.003921090606 0)
(2.975487856 -0.007714818855 0)
(2.958848126 -0.02160456393 0)
(2.955371076 -0.01284236549 0)
(2.950221037 0.002182203425 0)
(2.94838455 0.0002074975995 0)
(2.949884212 0.004687049205 0)
(2.951180235 0.01090650569 0)
(2.944448601 -0.007754706194 0)
(2.94787783 -0.0004436208727 0)
(2.951401898 0.008921151215 0)
(2.947315447 -0.002411929696 0)
(2.94736654 -0.002316151607 0)
(2.948071085 0.00206845445 0)
(2.94680834 0.001902121725 0)
(2.945511819 -0.000331980121 0)
(2.946248421 -0.0010966952 0)
(2.948032512 -0.001427517288 0)
(2.94824155 -0.001835990687 0)
(2.947958482 -0.001528944007 0)
(2.947028271 -0.0008693671487 0)
(2.946072707 -0.001019170891 0)
(2.945875087 -0.001826892906 0)
(2.945829898 -0.003712930949 0)
(2.946446549 -0.006446520237 0)
(2.946983305 -0.007744381969 0)
(2.946949859 -0.007833215679 0)
(2.946821392 -0.007660521997 0)
(2.946544103 -0.006514519004 0)
(2.946283703 -0.003531491886 0)
(2.946297227 -0.00269428935 0)
(2.946535865 -0.003392993366 0)
(2.946914306 -0.003731632228 0)
(2.947298244 -0.003914820791 0)
(2.960263533 -0.008279290433 0)
(2.956613636 -0.01654089211 0)
(2.951608972 -0.007250962132 0)
(2.948462437 0.001300763752 0)
(2.949864458 0.006661195219 0)
(2.951182288 0.01392962429 0)
(2.943812103 -0.007334410997 0)
(2.947372996 0.0002972075995 0)
(2.951123818 0.01045621264 0)
(2.946794916 -0.002503242285 0)
(2.947101412 -0.002338876584 0)
(2.948060926 0.002594807842 0)
(2.946547307 0.002332990956 0)
(2.945143104 -0.0004076969215 0)
(2.945724146 -0.0009456350903 0)
(2.947618437 -0.001079519156 0)
(2.947919303 -0.001555981511 0)
(2.947659238 -0.001381686522 0)
(2.946828579 -0.000744312829 0)
(2.945886969 -0.0008258007569 0)
(2.945658221 -0.001581026114 0)
(2.945533936 -0.003577353704 0)
(2.94613971 -0.006348121202 0)
(2.946862354 -0.007641321107 0)
(2.946822061 -0.007923752745 0)
(2.946671101 -0.007721129351 0)
(2.946539612 -0.00642480785 0)
(2.94639851 -0.004319349454 0)
(2.946323172 -0.003821835222 0)
(2.946455452 -0.004115079389 0)
(2.946777199 -0.003754662328 0)
(2.947125205 -0.003489989969 0)
(2.96802877 0.01118176604 0)
(2.957125301 -0.01231016462 0)
(2.953041353 -0.01143223582 0)
(2.948842265 -0.0007233492025 0)
(2.949611701 0.004056551651 0)
(2.951086791 0.01347609748 0)
(2.943449174 -0.00707202023 0)
(2.947459908 0.001628428809 0)
(2.951030847 0.01206530513 0)
(2.946256585 -0.002119226845 0)
(2.946764418 -0.001949130829 0)
(2.948018641 0.003268678316 0)
(2.946447488 0.002923672406 0)
(2.944752713 -4.561260195e-05 0)
(2.945260703 -0.000668977455 0)
(2.947192544 -0.001005711486 0)
(2.947609293 -0.001654862612 0)
(2.947414395 -0.001353435515 0)
(2.946683443 -0.0003090684268 0)
(2.945708234 -0.000309529439 0)
(2.945436296 -0.001043075906 0)
(2.94524611 -0.00313029358 0)
(2.945784923 -0.006131330156 0)
(2.946749921 -0.007742125947 0)
(2.946777307 -0.008253876829 0)
(2.946754855 -0.00825001241 0)
(2.946588123 -0.007304821181 0)
(2.946458873 -0.005672646566 0)
(2.946284863 -0.004476620096 0)
(2.946306857 -0.004061473086 0)
(2.946677752 -0.003200458043 0)
(2.947060101 -0.002658509097 0)
(2.94717677 -0.002769766572 0)
(2.965234169 -0.03869968355 0)
(2.956790372 0.005414240998 0)
(2.953089858 -0.01216280741 0)
(2.94945492 -0.007803860831 0)
(2.949472389 -0.003237716042 0)
(2.951002197 0.01001963376 0)
(2.943103862 -0.00950055979 0)
(2.947327824 0.0008275901809 0)
(2.950795719 0.01134375797 0)
(2.945852332 -0.002514923433 0)
(2.94646866 -0.002060502574 0)
(2.947941425 0.003444195248 0)
(2.946609756 0.002940348352 0)
(2.944540821 0.0001674194227 0)
(2.944969902 -0.000654706891 0)
(2.946798825 -0.001264684404 0)
(2.947414054 -0.001699449631 0)
(2.947296421 -0.001171052679 0)
(2.946615375 0.0002680616125 0)
(2.945670834 0.0001488704756 0)
(2.945343655 -0.0006897914118 0)
(2.945033319 -0.002675277502 0)
(2.945441613 -0.005685939272 0)
(2.946559692 -0.007919990081 0)
(2.946713112 -0.008764190076 0)
(2.946695599 -0.008868804058 0)
(2.94674087 -0.008294850878 0)
(2.946678297 -0.006620050736 0)
(2.946419483 -0.004530375702 0)
(2.946316584 -0.003558245437 0)
(2.946620069 -0.002651553733 0)
(2.946993275 -0.00195697571 0)
(2.947123949 -0.001902915995 0)
(2.987114995 -0.1392852373 0)
(2.961110328 0.01497737808 0)
(2.95083098 -0.00722473348 0)
(2.94963498 -0.01062206333 0)
(2.949747591 -0.00507940146 0)
(2.95102268 0.005049613667 0)
(2.942804714 -0.01311835287 0)
(2.947257843 -8.573738572e-05 0)
(2.950699857 0.01129730284 0)
(2.945523149 -0.003346165362 0)
(2.946182522 -0.002488787191 0)
(2.94794012 0.003273053744 0)
(2.946851868 0.002801376349 0)
(2.94447542 -1.379160456e-05 0)
(2.944834236 -0.000885073665 0)
(2.946566652 -0.001496080929 0)
(2.947339665 -0.001748024087 0)
(2.947263375 -0.0009504105756 0)
(2.946678226 0.0006961528664 0)
(2.945771112 0.0003072139528 0)
(2.945402272 -0.0006795835989 0)
(2.945002593 -0.002757539129 0)
(2.945296301 -0.005446225225 0)
(2.946382644 -0.008184323832 0)
(2.946630913 -0.009256026881 0)
(2.946593901 -0.009359719551 0)
(2.94656999 -0.008753130192 0)
(2.946619167 -0.007246765009 0)
(2.946534045 -0.004942988331 0)
(2.94650025 -0.003177147119 0)
(2.946668155 -0.002220445483 0)
(2.946939467 -0.001534661075 0)
(2.947026978 -0.001567965587 0)
(3.05387657 -0.2325569424 0)
(2.962661847 -0.02103433397 0)
(2.951865688 0.008731754913 0)
(2.948948233 -0.01253951088 0)
(2.94985954 -0.007018861043 0)
(2.951163507 0.002865262717 0)
(2.942962938 -0.01376026475 0)
(2.947385452 -0.0002635881355 0)
(2.950674443 0.01141765322 0)
(2.945192318 -0.004045255099 0)
(2.946030768 -0.003149523064 0)
(2.94795135 0.002682028598 0)
(2.947106196 0.002276530794 0)
(2.944512633 -0.0003431785695 0)
(2.944796478 -0.001228899398 0)
(2.946490885 -0.001577218828 0)
(2.947311188 -0.001645336014 0)
(2.947337792 -0.0007015652595 0)
(2.946757302 0.0007306939863 0)
(2.945856541 2.165381181e-05 0)
(2.945467493 -0.0009876597173 0)
(2.944981773 -0.003029744208 0)
(2.945104155 -0.005507118354 0)
(2.946191352 -0.008021005308 0)
(2.94646711 -0.008958468617 0)
(2.946361401 -0.009094336903 0)
(2.94637205 -0.008552279846 0)
(2.946302957 -0.00702992206 0)