/*--------------------------------*- C++ -*----------------------------------*\
  =========                 |
  \\      /  F ield         | OpenFOAM: The Open Source CFD Toolbox
   \\    /   O peration     | Website:  https://openfoam.org
    \\  /    A nd           | Version:  7
     \\/     M anipulation  |
\*---------------------------------------------------------------------------*/
FoamFile
{
    version     2.0;
    format      ascii;
    class       volScalarField;
    location    "2";
    object      p;
}
// * * * * * * * * * * * * * * * * * * * * * * * * * * * * * * * * * * * * * //

dimensions      [1 -1 -2 0 0 0 0];

internalField   nonuniform List<scalar> 
2222
(
6.011658359
5.749328729
5.497961792
5.258847237
5.033551342
4.82327769
4.628335998
4.448282796
4.281652194
4.126594087
3.980865033
3.842491263
3.709562436
3.581203847
3.457179496
3.338132916
3.225045783
3.118300546
3.01772194
2.922382803
2.83108179
2.743698716
2.659185435
2.577939176
2.498935985
2.422872737
2.349541251
2.280264442
2.215439929
2.152242287
2.095337248
2.041273814
6.012687329
5.750019141
5.498512437
5.259449962
5.034372206
4.824411524
4.629740172
4.449754829
4.282881885
4.127240694
3.980695584
3.841469625
3.707917268
3.579386486
3.455682219
3.337233444
3.2246426
3.118015108
3.017225417
2.92163612
2.83030901
2.743079934
2.658813844
2.5777649
2.499236766
2.423992498
2.350831186
2.283225258
2.215192428
2.162722634
2.109661316
2.056140443
6.007640953
5.745412177
5.494602446
5.256442175
5.032397997
4.823486124
4.629706694
4.450253134
4.283430543
4.127351191
3.98003948
3.839993489
3.705900549
3.577318211
3.454010516
3.336115197
3.223838939
3.11705362
3.015758224
2.919696127
2.828231449
2.741122584
2.657115892
2.576259309
2.498023218
2.422916786
2.350025561
2.281553219
2.216016311
2.152275378
2.093859027
2.038967359
6.002478494
5.739808721
5.489302444
5.252076355
5.029323473
4.821746985
4.629054651
4.450144581
4.283155086
4.126189495
3.977532782
3.836196391
3.701446662
3.573123147
3.450827003
3.334180175
3.222822207
3.116305529
3.014686538
2.918120304
2.826443608
2.739403379
2.655670335
2.57503189
2.497152542
2.422270105
2.350008428
2.280971366
2.216575615
2.151663821
2.091625162
2.035895094
5.993542601
5.731110803
5.481666648
5.246159837
5.025429806
4.819804003
4.628639919
4.450473491
4.283298319
4.125282114
3.975040381
3.832157276
3.696540084
3.568310792
3.446871278
3.331307488
3.220727827
3.114424272
3.012462928
2.915320413
2.823384033
2.736568167
2.653575669
2.573781297
2.496696753
2.422385438
2.350720941
2.28150992
2.216860768
2.152732198
2.091553701
2.034489911
5.981957027
5.719858899
5.471660012
5.238122008
5.019727629
4.816389859
4.627028405
4.449775001
4.282510882
4.123533267
3.971849577
3.82762755
3.691411063
3.563512054
3.44302307
3.328480431
3.218577096
3.112498121
3.010298787
2.912523576
2.819962397
2.732930628
2.650401281
2.571296818
2.494998356
2.421202672
2.350279617
2.281128239
2.216067062
2.152649437
2.091240462
2.033330767
5.969725559
5.708515097
5.46193934
5.23055837
5.014545441
4.813394655
4.625488818
4.448592102
4.280687661
4.120357326
3.967081181
3.821529136
3.684828664
3.55745337
3.438101061
3.324708005
3.215628398
3.110051052
3.008028205
2.909931138
2.816654265
2.729021772
2.646708996
2.568305602
2.492931902
2.419667046
2.349345765
2.280440784
2.214780293
2.151664257
2.090352091
2.031594421
5.957597689
5.69751658
5.452728827
5.223480992
5.009556958
4.810016599
4.622843766
4.445723827
4.276903154
4.11523857
3.960655215
3.814205914
3.677418604
3.550836545
3.432717981
3.320426631
3.212088265
3.106951758
3.005203047
2.907062181
2.813193554
2.724593224
2.641983401
2.564126233
2.489713002
2.417157363
2.347389414
2.279045019
2.213053338
2.149898147
2.088927188
2.030054209
5.936491202
5.676812603
5.433381343
5.20640733
4.995412288
4.798922103
4.614321401
4.438990394
4.270962127
4.10929053
3.954526358
3.808122289
3.671578262
3.545424112
3.427832579
3.315938973
3.207838831
3.102863386
3.001382098
2.903508687
2.809422202
2.719817403
2.636347427
2.558720728
2.485358059
2.413763567
2.344480682
2.276642138
2.21066099
2.147555666
2.087109312
2.028658909
5.918009218
5.659953202
5.418772524
5.194421766
4.986014508
4.79162098
4.608325335
4.43334626
4.264884634
4.102442616
3.947214794
3.800900138
3.664681463
3.538758698
3.421404046
3.309857049
3.202280067
3.097943608
2.997078611
2.899909231
2.806406214
2.716723624
2.632469328
2.554159762
2.480898729
2.409778343
2.340718606
2.2734226
2.208062663
2.145283171
2.084830798
2.026431279
5.900248287
5.643982935
5.405130047
5.183330281
4.977165702
4.784279901
4.601689686
4.426599505
4.257457065
4.094319823
3.938915731
3.793003155
3.657308521
3.531542195
3.414402309
3.303409632
3.196218653
3.092200067
2.991563233
2.895022446
2.802581595
2.713483466
2.628557829
2.549012064
2.475875051
2.406153617
2.337700442
2.270481291
2.205395012
2.143047239
2.08261878
2.024083841
5.878516738
5.625073307
5.388981368
5.169839295
4.966143182
4.775082011
4.593556858
4.418833116
4.24955021
4.086461054
3.931514237
3.786315349
3.65105927
3.524925319
3.407223207
3.296579267
3.189659039
3.085973078
2.985599434
2.889108812
2.797301928
2.7093738
2.625273535
2.54527399
2.470871968
2.400949424
2.333037757
2.266492959
2.201329577
2.138310926
2.078122592
2.020120648
5.86065756
5.609575481
5.375607288
5.15841734
4.95649589
4.766771635
4.586077637
4.411538728
4.241843
4.078604351
3.923922869
3.7792291
3.644233924
3.517534999
3.398902919
3.28843527
3.182071062
3.078729737
2.979125018
2.882849897
2.791568176
2.704980703
2.622052471
2.541576275
2.465038514
2.394353777
2.327721735
2.262503426
2.198122693
2.134786387
2.074624751
2.017031531
5.832390079
5.585501751
5.355572431
5.141741311
4.941679271
4.752336298
4.571448745
4.397069625
4.228433614
4.067399433
3.914629947
3.770816743
3.635963601
3.509062772
3.389729864
3.278183152
3.172988996
3.070474181
2.971763894
2.876110116
2.784590997
2.699294493
2.618184536
2.538984379
2.46202554
2.389414008
2.322196274
2.255974316
2.19057313
2.128024945
2.068737079
2.013266368
5.810700505
5.566852644
5.339632262
5.127912713
4.928743286
4.739094863
4.55759875
4.383345919
4.215720674
4.056541261
3.905217981
3.761905075
3.626966162
3.499817737
3.380020874
3.267532314
3.164108676
3.064735943
2.967221971
2.873566826
2.781889939
2.695084594
2.612900843
2.535227645
2.459300941
2.385093245
2.315771687
2.251267303
2.186909142
2.125610248
2.066094836
2.00964621
5.783071822
5.544314596
5.320475533
5.109822954
4.910229677
4.720039732
4.538528933
4.365443895
4.200961881
4.045160813
3.89606687
3.753272426
3.617735893
3.49008317
3.370527043
3.257283623
3.154299458
3.064164379
2.975948595
2.884884955
2.791992514
2.695347489
2.609034574
2.530380601
2.455239507
2.381129922
2.308530168
2.245698642
2.191821615
2.133655165
2.072309795
2.009309972
5.761913509
5.526469126
5.304205512
5.092574319
4.891214684
4.700118143
4.519499901
4.349741724
4.1898337
4.037334874
3.890164199
3.748036686
3.612457974
3.484646807
3.364594636
3.250817692
3.145063635
3.042971356
2.944153492
2.853163474
2.768909786
2.687116831
2.605323738
2.527417691
2.452717194
2.379197618
2.307729156
2.241407487
2.174372915
2.110925393
2.055110593
2.004189202
5.726515271
5.495941324
5.277429039
5.069111989
4.870629423
4.68233206
4.504822181
4.339148145
4.184024145
4.036480853
3.894188579
3.7556126
3.620764168
3.491953059
3.369970222
3.253254947
3.138926115
3.03058726
2.931281433
2.839234043
2.75673697
2.685653283
2.613231502
2.536836761
2.462247765
2.39043981
2.318839251
2.241875981
2.168548261
2.104473041
2.04792521
2.002889407
5.699020204
5.471531286
5.254597247
5.046436759
4.847600333
4.659474354
4.482771257
4.316847527
4.159231438
4.007627013
3.861635642
3.720935959
3.586826513
3.459796226
3.339716239
3.227799143
3.119702412
3.01712508
2.921706153
2.831401812
2.746623565
2.664726292
2.584356697
2.507704677
2.434228573
2.364320664
2.296601668
2.227306816
2.161688569
2.10169649
2.04690412
1.993383968
5.674918415
5.450466544
5.233820459
5.024140976
4.824391763
4.637034707
4.462197642
4.297647454
4.140822063
3.989409063
3.843867762
3.704455863
3.572050164
3.446348651
3.327416513
3.216637228
3.111896372
3.011920924
2.917857187
2.827614382
2.739767322
2.65481735
2.573270837
2.495491596
2.423000376
2.354046623
2.286751352
2.222089885
2.159429833
2.10183839
2.046673964
1.990979717
5.646552808
5.4243747
5.207983193
4.998216661
4.799093007
4.613436626
4.440666737
4.277880222
4.122794788
3.973546811
3.830337734
3.693126343
3.562066306
3.436754755
3.317596639
3.206240772
3.108435977
3.019663479
2.927927867
2.836963993
2.745176709
2.653599196
2.569482442
2.491078972
2.416813457
2.344446797
2.27506558
2.217298527
2.166259031
2.112098579
2.056506208
2.000538392
5.6193269
5.396935406
5.180059855
4.97114896
4.774374836
4.591279615
4.420356623
4.258454975
4.104032718
3.955745425
3.813014975
3.675583491
3.54375658
3.418302502
3.301217844
3.191934961
3.08931976
2.990513565
2.897255821
2.807635222
2.720796841
2.637520927
2.557779252
2.481155775
2.406770231
2.336129427
2.269605856
2.207088515
2.147175633
2.092625513
2.038365788
1.982612985
5.58867971
5.366684465
5.149262683
4.941148847
4.746780459
4.566750419
4.398575571
4.238969941
4.086164737
3.938593586
3.795602973
3.657804976
3.526197735
3.402037065
3.286783952
3.178889575
3.076361603
2.9778415
2.884509237
2.794446504
2.708579934
2.626909218
2.547852363
2.470991936
2.396728855
2.32890976
2.26461856
2.201239272
2.140771621
2.084732812
2.031617986
1.977916926
5.555698053
5.33305285
5.117046539
4.911821496
4.719950329
4.541448487
4.374456654
4.21642016
4.065558074
3.919859248
3.778274011
3.641453494
3.510859988
3.388165523
3.274098293
3.167842968
3.06611957
2.96752331
2.87241116
2.780877279
2.693659709
2.611027666
2.532596575
2.458273698
2.388030728
2.325058929
2.270669687
2.208737669
2.140939075
2.078293531
2.023348654
1.976186372
5.522317689
5.297297703
5.081802803
4.879827151
4.69184215
4.516516501
4.351524918
4.194737706
4.044518174
3.899086099
3.757865899
3.622082652
3.493435632
3.37315138
3.261195366
3.156214962
3.055028391
2.956350262
2.860403939
2.767937446
2.679513617
2.596393129
2.519267111
2.448194199
2.381839159
2.318631575
2.255598567
2.195554965
2.135560873
2.074974006
2.019485701
1.964556772
5.486980456
5.26033425
5.046717297
4.847575563
4.661355704
4.487428576
4.324427882
4.170203272
4.022074752
3.877626996
3.737035307
3.602601176
3.476287229
3.358372953
3.247778944
3.142792757
3.041137224
2.941914729
2.845607427
2.753413913
2.666549676
2.586067184
2.512573457
2.445338915
2.381191465
2.314768834
2.247527932
2.18822338
2.136538665
2.080262252
2.017058054
1.955585889
5.450127942
5.222512434
5.012870179
4.817378765
4.633296802
4.46056423
4.29838849
4.144819707
3.997094151
3.853309103
3.714192144
3.582134539
3.458741094
3.343510687
3.234665003
3.130240118
3.028344335
2.928589932
2.831890957
2.739637102
2.65349551
2.574245182
2.500867005
2.432324178
2.366889992
2.302400874
2.238932318
2.176596616
2.114929295
2.056878779
2.000748978
1.947148022
5.411442377
5.183760878
4.976830337
4.783731768
4.602233998
4.431901613
4.271634636
4.119287122
3.971923277
3.828542799
3.691156457
3.561801073
3.440804048
3.326929248
3.218413204
3.113675568
3.011628981
2.912486539
2.817317083
2.727152853
2.642800794
2.564596845
2.491611002
2.422722759
2.356430349
2.29164508
2.228426628
2.166215693
2.105662388
2.047755738
1.99190658
1.940048361
5.363599954
5.146009829
4.943430879
4.751896206
4.571417612
4.402056088
4.24322704
4.091922593
3.94540512
3.803521778
3.66862954
3.541993261
3.423020849
3.310270949
3.202017074
3.096978258
2.994884829
2.896234721
2.802020549
2.713332316
2.630508402
2.553401585
2.481151288
2.412686072
2.346814134
2.283097223
2.22111458
2.160895455
2.102167359
2.04233576
1.984696598
1.931736367
5.316054584
5.1101567
4.907371391
4.716442778
4.538980257
4.372900671
4.215862903
4.064689976
3.918395101
3.778722416
3.646896655
3.522194959
3.4034811
3.290225536
3.181705393
3.077283773
2.976945404
2.880985018
2.789398884
2.702352112
2.620075907
2.542805964
2.470082613
2.400960041
2.334661526
2.271188661
2.208941296
2.14743455
2.087794332
2.029754797
1.973662607
1.920109222
5.257419492
5.073594023
4.869724656
4.679561619
4.504625969
4.341393543
4.1863319
4.036165665
3.89146071
3.754624219
3.62566235
3.502405429
3.38381765
3.270091872
3.16113177
3.056906822
2.957752303
2.863699141
2.774290612
2.68912247
2.608158121
2.531626208
2.459425396
2.390638849
2.324555723
2.260348768
2.197008462
2.135237455
2.076247338
2.020495587
1.967654304
1.917568498
5.196455946
5.032461415
4.831299571
4.643540427
4.470270102
4.308556924
4.15447438
4.006103406
3.8652243
3.732093011
3.604354555
3.480663069
3.36145688
3.247575674
3.139448082
3.037429577
2.941290503
2.849989525
2.762241215
2.677522815
2.596175706
2.51878266
2.445820565
2.376731253
2.311009676
2.247830218
2.186685478
2.12701418
2.068640312
2.012482968
1.959197427
1.908997442
5.073534176
4.970284411
4.79419262
4.608886511
4.436414269
4.27522139
4.121043655
3.974864161
3.838225096
3.708642931
3.582677707
3.459206579
3.339275218
3.224838934
3.117443278
3.017529395
2.924036328
2.834845502
2.748255912
2.663992522
2.582886375
2.505851644
2.433395395
2.364550025
2.298222583
2.23417413
2.17268162
2.112936729
2.054743318
2.000137512
1.950119955
1.902396364
4.884109336
4.915243552
4.763693278
4.573352346
4.399551647
4.237536986
4.084429037
3.943586414
3.812109816
3.683678032
3.55627907
3.431828287
3.313092261
3.201724295
3.097985672
3.001099626
2.909645491
2.82149714
2.735146204
2.650538511
2.568548708
2.490597467
2.417714122
2.349659477
2.285257655
2.223524112
2.163886629
2.105885999
2.049824116
1.996303962
1.944572214
1.89465578
4.301153814
4.79199026
4.698699982
4.531728403
4.359310572
4.19810063
4.049345659
3.913963647
3.785382
3.656298332
3.527495263
3.402911296
3.285996004
3.178160668
3.078588851
2.985018112
2.895262056
2.807714045
2.721232612
2.636148506
2.553991052
2.476451692
2.403912332
2.335720224
2.271067733
2.209825446
2.151025522
2.093667014
2.037463668
1.983086485
1.931350952
1.882435703
3.412964713
4.661079039
4.634429484
4.493680841
4.325504645
4.16646848
4.021718315
3.887525238
3.756140187
3.625465396
3.497427621
3.374917095
3.26092234
3.156534623
3.06061683
2.970198984
2.882007153
2.794423688
2.706825101
2.620322096
2.537574404
2.460285968
2.388394155
2.321574965
2.258852307
2.198749999
2.140336241
2.083724351
2.029143771
1.976973459
1.927229244
1.879361485
2.493120928
4.202242199
4.52982579
4.450613919
4.307421334
4.160503646
4.017085276
3.870000183
3.728018978
3.59387063
3.465301133
3.344800769
3.235185233
3.135655034
3.042897385
2.953209467
2.864389313
2.776188351
2.689181122
2.604339002
2.523013527
2.446358825
2.374797164
2.308633583
2.246853378
2.187725707
2.130511177
2.074796929
2.019965274
1.966560671
1.915640319
1.867582868
1.87978024
3.390238487
4.437032519
4.391707301
4.246441022
4.087111596
3.947907176
3.815019959
3.683039454
3.555011728
3.431971795
3.317516876
3.213173295
3.116509399
3.02437555
2.933888465
2.844244876
2.755599583
2.668703037
2.584927785
2.505398516
2.430641542
2.360348239
2.294203749
2.231930422
2.17271213
2.115564006
2.060276996
2.007277546
1.956481421
1.907221571
1.859525263
1.6510785
2.528887348
4.114219853
4.286568477
4.191886746
4.048603244
3.909616561
3.775720576
3.644864814
3.522145953
3.406265819
3.297259177
3.194828684
3.096853611
3.002908571
2.912136764
2.823286157
2.735926518
2.650462555
2.567941639
2.489472935
2.41599365
2.347577643
2.283679124
2.223346585
2.165523389
2.109103833
2.054095583
2.000498202
1.948307958
1.898012783
1.850341397
1.574316253
1.861631063
3.37715021
4.169648908
4.128400771
4.011750233
3.87115888
3.736843479
3.611012354
3.495572493
3.390608156
3.285934915
3.17901091
3.07667311
2.980779464
2.889282848
2.800345547
2.71404248
2.630614116
2.550262553
2.473543365
2.40126406
2.333377916
2.269431925
2.208822386
2.150878092
2.094264505
2.038558463
1.984301405
1.933166963
1.884839305
1.837862138
1.533788682
1.572276027
2.574334649
3.959317005
4.059943865
3.965218597
3.829176924
3.698850371
3.576435879
3.459875095
3.350120739
3.246549035
3.146506938
3.049592081
2.955872484
2.865405465
2.777343298
2.691879982
2.609637596
2.530952929
2.455895805
2.384976637
2.318682564
2.256666002
2.197327379
2.1396589
2.083591418
2.029432138
1.977160659
1.926569029
1.877524869
1.830898914
1.502382438
1.478668558
1.869726219
3.349792621
3.952169508
3.901627421
3.787368754
3.66350699
3.544951126
3.430347151
3.321888558
3.218988575
3.119634564
3.023180111
2.929769173
2.840272596
2.754063993
2.670838443
2.591374413
2.515838297
2.44289009
2.372683462
2.306508869
2.244378161
2.184779346
2.126947134
2.070657962
2.015675425
1.961996737
1.910354222
1.862214863
1.817852737
1.468323817
1.435858312
1.511663354
2.628021143
3.812910626
3.830136248
3.744508328
3.62661491
3.508229821
3.395315895
3.289093159
3.188233817
3.090761024
2.995502719
2.903162838
2.815262665
2.731501049
2.650669313
2.572615716
2.497340872
2.42469064
2.355856437
2.291546456
2.230274219
2.17019223
2.111745484
2.055828621
2.002541714
1.95144073
1.902453836
1.855110646
1.809852754
1.442208694
1.40275898
1.395141792
1.914200531
3.320001232
3.737362512
3.697097679
3.593439426
3.474084451
3.362007373
3.25652469
3.15609087
3.059322114
2.965520117
2.875397764
2.789925806
2.708839486
2.630680803
2.554420685
2.480454808
2.410366766
2.344180064
2.280016433
2.217710131
2.157946244
2.100927672
2.045626601
1.991563834
1.93916796
1.889287626
1.842483628
1.798798439
1.421014606
1.370480884
1.343960837
1.478153174
2.673049748
3.654998806
3.639896047
3.551607624
3.440441575
3.331356312
3.225703117
3.124117827
3.027705289
2.936399763
2.849298314
2.766088197
2.686941546
2.61084863
2.536310004
2.463526548
2.39291795
2.325143296
2.260734838
2.200029444
2.141586445
2.084207056
2.028008355
1.974801
1.925521602
1.878245522
1.832974012
1.789143343
1.396444046
1.345395794
1.308022019
1.318110947
1.989327084
3.30977661
3.551583948
3.506073956
3.408959474
3.297924178
3.189452942
3.087907719
2.993638976
2.905779307
2.822748441
2.74312528
2.665713721
2.589480875
2.515411449
2.445938486
2.377999826
2.310874465
2.246858499
2.185948414
2.127318515
2.071261986
2.017769823
1.966143338
1.915302741
1.866739788
1.821252437
1.777897419
1.36784586
1.324323527
1.277890494
1.257182503
1.484059179
2.71238463
3.485792897
3.461806952
3.37691501
3.261746264
3.151316684
3.052180195
2.962305659
2.878936445
2.798743379
2.720495098
2.64418813
2.570226454
2.497682696
2.425821622
2.356180716
2.290436977
2.228855583
2.170259309
2.113054836
2.057059868
2.002499363
1.949350585
1.898993725
1.852781166
1.808859854
1.767089608
1.337241515
1.303235582
1.251285073
1.222268256
1.258406804
2.082404866
3.282864967
3.383445383
3.32534169
3.223624208
3.117064074
3.019557861
2.931968638
2.850588527
2.771872447
2.693831264
2.617088192
2.543132747
2.470747178
2.400285221
2.335760939
2.2744938
2.215021534
2.156227125
2.097932101
2.04163188
1.988367873
1.938444635
1.890394363
1.843875853
1.798604745
1.754305812
1.305044233
1.278017313
1.228238705
1.193179318
1.183963032
1.533003407
2.762386416
3.29728094
3.266086762
3.18639876
3.087236339
2.992720208
2.905822369
2.823976977
2.745734101
2.670223608
2.596133693
2.52291017
2.450609247
2.381742202
2.316969465
2.255153062
2.195517032
2.137846286
2.083090886
2.030098767
1.976955751
1.924768606
1.874929382
1.82784969
1.783245943
1.742547254
1.276058964
1.250137739
1.209786443
1.164011504
1.146258846
1.229571278
2.187481473
3.193452011
3.208762778
3.146489632
3.05383425
2.9631432
2.877783749
2.795578338
2.715574463
2.639534809
2.566496398
2.495823569
2.427688702
2.362187289
2.299168165
2.237613044
2.176887967
2.120458626
2.067376032
2.014173878
1.961691389
1.911653217
1.863507643
1.817771948
1.775168772
1.734343583
1.251617072
1.220670559
1.188745605
1.140124059
1.116072686
1.123718285
1.617740898
2.800463474
3.121332677
3.097703135
3.024609269
2.934435067
2.84628943
2.764809413
2.68849297
2.614969889
2.542648633
2.470957523
2.403117809
2.339250375
2.277865812
2.219713633
2.163301474
2.109057857
2.054204069
1.998833267
1.94654504
1.896604458
1.848740825
1.80365984
1.761200756
1.720711878
1.227888734
1.192358738
1.16395233
1.120950158
1.089901826
1.079115016
1.23329627
2.278940856
3.065237134
3.059177536
2.99341314
2.898521984
2.811392923
2.73235142
2.65752463
2.58545991
2.51579108
2.448224224
2.382907529
2.318891012
2.255904726
2.19752167
2.142364258
2.088111205
2.034726843
1.983271176
1.933049073
1.88337458
1.83605656
1.792188966
1.751757593
1.71385964
1.203306048
1.167306023
1.136350636
1.103066645
1.065472415
1.050308874
1.075952545
1.731247471
2.829930132
2.973736669
2.936706601
2.858308699
2.776068304
2.701636065
2.630619897
2.559876105
2.489202134
2.422293381
2.359020924
2.297512245
2.238401296
2.1819181
2.126256337
2.06983812
2.016807363
1.9675972
1.918744854
1.870541938
1.824519175
1.780957002
1.739898743
1.700847101
1.176633143
1.143435304
1.108671168
1.082199765
1.044991151
1.027119025
1.01958746
1.283396474
2.356782086
2.908366444
2.892174215
2.832785506
2.748236004
2.667788014
2.595497492
2.529310692
2.465773227
2.402237653
2.337457614
2.272362188
2.21247638
2.157090036
2.105051583
2.054454484
2.00435181
1.954959963
1.904220566
1.855456024
1.810379902
1.768985869
1.729761403
1.691211996
1.149878586
1.120438065
1.084385649
1.057767415
1.028237236
1.001288815
0.9874929892
1.049249102
1.842311533
2.787179228
2.839715457
2.795384127
2.717596374
2.639134913
2.568050709
2.500400326
2.435859936
2.373974573
2.313669616
2.254190004
2.195671577
2.138836512
2.083735102
2.032616611
1.984243974
1.937254103
1.891857845
1.847123788
1.802743668
1.759871075
1.719114144
1.680966424
1.121499278
1.095968433
1.061241518
1.031359223
1.009552539
0.9798863611
0.963884454
0.9691934929
1.371541102
2.423136917
2.763103492
2.739000969
2.679781737
2.609940655
2.541605617
2.475899778
2.412352502
2.348900366
2.285346657
2.226219655
2.170591157
2.117959869
2.067944029
2.018671391
1.970238229
1.923108789
1.877209638
1.831513719
1.787061907
1.744967653
1.705815678
1.671025795
1.071726247
1.039026998
1.006241138
0.9881564194
0.9618480159
0.9407912529
0.9273924668
1.057147999
1.946212396
2.690483388
2.69928069
2.656768472
2.585190885
2.510594931
2.440905366
2.3787033
2.320862715
2.264573897
2.208597987
2.152986685
2.099369678
2.049186627
2.000224177
1.953782262
1.908452402
1.864831047
1.821822672
1.779322603
1.739239543
1.701305107
1.663902775
1.045540563
1.016854862
0.9828458567
0.9650961998
0.9451538673
0.9188409762
0.9033780155
0.9267057201
1.483706718
2.473177874
2.641387797
2.61035511
2.545721786
2.477733952
2.415553812
2.355536854
2.295279989
2.237827853
2.183077341
2.130878071
2.079424142
2.030469102
1.982414379
1.935180656
1.891727351
1.850298359
1.807800237
1.766004002
1.725884979
1.688058742
1.651459363
1.018779877
0.9946535299
0.9608070125
0.9406162327
0.9252418128
0.8989754472
0.8811297735
0.8741009956
1.109707479
2.060359139
2.572106292
2.56291436
2.516143684
2.449583672
2.386397551
2.328538635
2.273409578
2.218676069
2.164104963
2.112634773
2.065985202
2.019423092
1.972880093
1.926703958
1.881689212
1.838874438
1.797037589
1.757708591
1.718913733
1.681974567
1.646868761
0.993384009
0.9710109608
0.9406821974
0.9174430041
0.9043370885
0.8826512061
0.8590106806
0.847483275
0.9111013605
1.615557724
2.456256276
2.522070786
2.492509501
2.432030281
2.364830185
2.302302727
2.246402513
2.193710157
2.143703096
2.093830403
2.044800951
1.996539974
1.951110229
1.907870596
1.866493387
1.826755485
1.787697515
1.748983463
1.709814899
1.673138297
1.637096532
0.9684090518
0.9449642481
0.9193980715
0.8943329528
0.8818358774
0.8650108744
0.839593466
0.8239746435
0.830893837
1.211836698
2.166162574
2.469279662
2.446031205
2.393366737
2.334766052
2.279449916
2.226682217
2.173395657
2.121511938
2.074348759
2.031173902
1.986958038
1.943341006
1.90011844
1.85735891
1.814317285
1.774096891
1.73675165
1.70175836
1.668089907
1.632239158
0.9459034735
0.9216076672
0.8981532832
0.8744505481
0.8598963193
0.8465475307
0.8219319888
0.8031642654
0.7986365586
0.9372731195
1.756150638
2.399210032
2.41091679
2.376568853
2.317911113
2.260054334
2.206441393
2.154581587
2.106642196
2.060738834
2.016484553
1.972156003
1.929862926
1.888294774
1.848775127
1.808778728
1.770612576
1.73282866
1.697804349
1.662907166
1.62940672
0.9215848928
0.8972875058
0.8742665754
0.8544244529
0.8372312471
0.8265183564
0.8061753588
0.7838468805
0.7746394128
0.8062759982
1.353548057
2.240670678
2.376269332
2.35262162
2.297748098
2.237923761
2.185117955
2.135462694
2.086425686
2.040503884
1.999088972
1.960765174
1.922026082
1.879719965
1.837659927
1.79600573
1.758778736
1.721612498
1.689384704
1.657161266
1.632072781
0.899214135
0.8755841526
0.8517382687
0.8351014419
0.8169652859
0.8066011435
0.7905606541
0.7672054024
0.7567214527
0.7620764116
1.020322671
1.918058273
2.319814344
2.312345697
2.27196175
2.217417688
2.166814522
2.12105383
2.078305345
2.036609334
1.995743181
1.954292393
1.912594495
1.872117679
1.83142466
1.790481433
1.754208988
1.719583094
1.689800931
1.654185781
1.620874498
0.8755023832
0.8535157208
0.8287576832
0.8143035838
0.7984733975
0.7861642844
0.773910387
0.7521601562
0.7402902623
0.7376898982
0.8210715678
1.524999455
2.241149155
2.284170142
2.259808395
2.210499639
2.156488529
2.10891379
2.06361679
2.022075391
1.979032253
1.938220746
1.89649148
1.859467515
1.820754491
1.784319454
1.746889258
1.712661793
1.677189895
1.642892092
1.608404196
0.8533235942
0.832145212
0.8077993397
0.7938358697
0.7810575137
0.7677438757
0.7576268987
0.7397394498
0.7263695992
0.7229272872
0.7424254463
1.159221473
2.035316861
2.255834776
2.238565381
2.193399116
2.139320864
2.095347465
2.052747563
2.014119504
1.972884072
1.934805112
1.893285869
1.85609702
1.815594585
1.781447916
1.742681135
1.709334622
1.670265579
1.639016437
1.603884624
0.8304111236
0.8109979831
0.7873921246
0.7734279543
0.7637020144
0.7514686293
0.7412491578
0.7286275701
0.7155774037
0.7110476974
0.7127500343
0.8839227703
1.694836837
2.210145898
2.214815172
2.183855035
2.132665123
2.085328027
2.038555201
1.998924673
1.95808049
1.921773705
1.882564572
1.849202621
1.810364992
1.775664849
1.732906715
1.700610005
1.663512883
1.641411855
1.606745069
0.8085595707
0.7913995857
0.7680804355
0.7543519671
0.7473405067
0.7375406721
0.7254548941
0.7167609547
0.7059860288
0.7009646896
0.6982499351
0.7463990911
1.327483561
2.092513993
2.197530559
2.179971167
2.133615146
2.079630181
2.027266635
1.986460753
1.947572006
1.914421335
1.877841664
1.845088081
1.805175099
1.768722716
1.728091516
1.70105049
1.667447954
1.654144383
1.689983714
0.7873137123
0.7716882324
0.7495474318
0.73631704
0.7322521256
0.7253742368
0.7133962224
0.706091073
0.6988914391
0.6928433094
0.6880052842
0.6954451372
1.000757419
1.853079187
2.168976568
2.156335621
2.110818206
2.058017774
2.012115097
1.97533531
1.940743318
1.908893923
1.872674407
1.839139452
1.801949365
1.768246004
1.732163819
1.709223893
1.737679604
1.837898197
2.021728195
0.7681894697
0.7536606421
0.7335918343
0.7218567062
0.7187335263
0.7130843695
0.7028543866
0.6940255061
0.6897802082
0.6833794376
0.6789700937
0.6782494852
0.7902784456
1.510749444
2.116210912
2.126718891
2.100293081
2.056831965
2.012456782
1.97473711
1.937453038
1.901732575
1.867256575
1.83551715
1.805401547
1.774183332
1.793091582
)
;

boundaryField
{
    inlet
    {
        type            fixedValue;
        value           nonuniform 0();
    }
    outlet
    {
        type            zeroGradient;
    }
    bottom
    {
        type            slip;
    }
    top
    {
        type            slip;
    }
    obstacle
    {
        type            zeroGradient;
    }
    defaultFaces
    {
        type            empty;
    }
    procBoundary4to3
    {
        type            processor;
        value           nonuniform List<scalar> 
62
(
6.28561118
6.28712137
6.281805153
6.277506406
6.268812112
6.257556807
6.245134928
6.232619628
6.211777237
6.192315445
6.173246393
6.149194012
6.129363574
6.096792208
6.071923744
6.038559382
6.013707287
5.972844175
5.941610384
5.912131297
5.879870372
5.851371735
5.817634193
5.786105055
5.755542586
5.721726827
5.685156872
5.649017214
5.582236178
5.481933805
5.356706537
5.102061646
4.392916478
3.42699972
2.469349191
1.924992177
1.746631983
1.679887938
1.635398248
1.599968497
1.568461024
1.54426506
1.52291
1.495581821
1.462236444
1.427931861
1.394824973
1.366905374
1.343282133
1.318753879
1.291412293
1.261711812
1.232339896
1.202323777
1.17409342
1.147747693
1.093748141
1.093748141
1.067539372
1.042813265
1.018727897
0.9934102739
)
;
    }
    procBoundary4to5
    {
        type            processor;
        value           nonuniform List<scalar> 
69
(
1.98814562
2.003059564
1.985977315
1.982724951
1.980739924
1.978893996
1.976077457
1.973898988
1.972193061
1.970101574
1.967969353
1.964855045
1.961843128
1.959055194
1.956208582
1.954645847
1.952742355
1.958724227
1.941174665
1.937589498
1.943618528
1.929554911
1.925720501
1.930144557
1.909454431
1.901056292
1.89498025
1.88753432
1.882504289
1.877454381
1.867970123
1.860541498
1.855561899
1.8466755
1.835590187
1.832909105
1.821711212
1.813426616
1.805021024
1.792197119
1.786549183
1.775081283
1.76670754
1.757398534
1.745793487
1.737161516
1.726228049
1.711927206
1.704304912
1.694285737
1.682992626
1.676421193
1.662687864
1.654083462
1.644657647
1.637802082
1.62689658
1.616147981
1.612930233
1.604549481
1.601229307
1.596450165
1.599008763
1.582619416
1.575567001
1.579366057
1.608499719
1.804974003
2.201093398
)
;
    }
    procBoundary4to9
    {
        type            processor;
        value           nonuniform List<scalar> 9(0.9694535464 0.9436751648 0.9202262611 0.8951108761 0.8715954554 0.8478237986 0.8256849465 0.8032813731 0.7823489087);
    }
    procBoundary4to10
    {
        type            processor;
        value           nonuniform List<scalar> 
32
(
1.882048408
2.065040568
2.245865956
2.345811224
0.7502689569
0.7368934457
0.7191397961
0.7098023942
0.7069735466
0.7020873342
0.6929851866
0.6829376461
0.6816746017
0.677100422