/*--------------------------------*- C++ -*----------------------------------*\
  =========                 |
  \\      /  F ield         | OpenFOAM: The Open Source CFD Toolbox
   \\    /   O peration     | Website:  https://openfoam.org
    \\  /    A nd           | Version:  7
     \\/     M anipulation  |
\*---------------------------------------------------------------------------*/
FoamFile
{
    version     2.0;
    format      ascii;
    class       volVectorField;
    location    "0.2";
    object      U;
}
// * * * * * * * * * * * * * * * * * * * * * * * * * * * * * * * * * * * * * //

dimensions      [0 1 -1 0 0 0 0];

internalField   nonuniform List<vector> 
138
(
(3 2.432442887e-13 0)
(3 8.840238452e-13 0)
(3 1.710153286e-12 0)
(3 3.326626212e-12 0)
(3 3.672250382e-12 0)
(3 7.609825432e-12 0)
(3 7.569330051e-12 0)
(3 6.608811339e-12 0)
(3 8.001140437e-12 0)
(3 -4.948410231e-12 0)
(3 8.720813589e-11 0)
(3 -3.509248311e-10 0)
(3 2.877610562e-12 0)
(3 3.229329865e-12 0)
(3 4.289461121e-12 0)
(3 5.825341581e-12 0)
(3 4.172901661e-12 0)
(3 5.935201905e-11 0)
(3 -2.705247093e-10 0)
(3 -1.877407794e-10 0)
(2.999999997 -4.633842253e-09 0)
(2.999999982 -2.65095844e-08 0)
(2.999999901 -1.564778688e-07 0)
(2.999999524 -7.572246785e-07 0)
(2.999998012 -3.307094924e-06 0)
(2.999992103 -1.332103772e-05 0)
(2.999975536 -4.224237178e-05 0)
(2.999869653 -0.000248727989 0)
(2.999855242 -0.0002678479772 0)
(3 1.550331399e-11 0)
(3 -8.404988562e-11 0)
(3 2.237587801e-10 0)
(2.999999999 -1.93232484e-09 0)
(2.999999993 -9.53809762e-09 0)
(2.999999953 -7.180436161e-08 0)
(2.999999778 -3.401310582e-07 0)
(2.999999027 -1.576210548e-06 0)
(2.999996512 -5.724482013e-06 0)
(2.999987744 -2.054649006e-05 0)
(2.999961948 -6.473415628e-05 0)
(2.999886374 -0.0001978973651 0)
(2.99970671 -0.0005192789267 0)
(2.999246162 -0.001394162794 0)
(2.998442612 -0.002926615422 0)
(2.996482358 -0.006948586854 0)
(2.994708431 -0.01027375331 0)
(2.999999983 -2.501100524e-08 0)
(2.999999911 -1.26847583e-07 0)
(2.999999532 -7.40201737e-07 0)
(2.999998098 -3.000753516e-06 0)
(2.999993023 -1.163822295e-05 0)
(2.999977764 -3.739184835e-05 0)
(2.999934667 -0.0001141205027 0)
(2.999829279 -0.0003036528154 0)
(2.999585774 -0.0007593577589 0)
(2.999045508 -0.001796112311 0)
(2.998028351 -0.00371966408 0)
(2.995957248 -0.008009347511 0)
(2.992827849 -0.01438264076 0)
(2.987663437 -0.02567452632 0)
(2.981430498 -0.03987327918 0)
(2.971743315 -0.06374757357 0)
(2.963710505 -0.08179469718 0)
(2.99998808 -2.03718048e-05 0)
(2.999961744 -6.904804528e-05 0)
(2.999893758 -0.0001918675893 0)
(2.999726578 -0.0005210951144 0)
(2.999391533 -0.001177439294 0)
(2.998677397 -0.002676712462 0)
(2.997494948 -0.005136816032 0)
(2.995352406 -0.01010399565 0)
(2.992176821 -0.01721880296 0)
(2.987391238 -0.02927497299 0)
(2.980679181 -0.04663164295 0)
(2.973845613 -0.06446504006 0)
(2.964011042 -0.0906696046 0)
(2.954152641 -0.1197498629 0)
(2.943696516 -0.1484217096 0)
(2.939629971 -0.1632481779 0)
(2.927148865 -0.1950987162 0)
(2.999070455 -0.002066897295 0)
(2.998189377 -0.004112831794 0)
(2.996528348 -0.008047604409 0)
(2.994166327 -0.01445749186 0)
(2.990439304 -0.0244982276 0)
(2.98636531 -0.03658724395 0)
(2.979017323 -0.05865239176 0)
(2.974856714 -0.07706967183 0)
(2.962906588 -0.1142044551 0)
(2.958564057 -0.1376263356 0)
(2.950689927 -0.1703250162 0)
(2.941960906 -0.1982551173 0)
(2.931050707 -0.2252043208 0)
(2.931836811 -0.2298743728 0)
(2.915531273 -0.2587343053 0)
(2.910050314 -0.2674983171 0)
(2.904385209 -0.2785841694 0)
(2.989164247 -0.02975490391 0)
(2.985166904 -0.04204668059 0)
(2.9783762 -0.0622896377 0)
(2.974828989 -0.07751413164 0)
(2.968389404 -0.1009301007 0)
(2.96360809 -0.1214687997 0)
(2.957968688 -0.1474133163 0)
(2.955670523 -0.1643288909 0)
(2.946186361 -0.1895946551 0)
(2.938690676 -0.2108990869 0)
(2.931660364 -0.2278791242 0)
(2.928946529 -0.2346243048 0)
(2.913055759 -0.2495168346 0)
(2.903439503 -0.2614350167 0)
(2.901264555 -0.2637990539 0)
(2.899477534 -0.2643270608 0)
(2.897578234 -0.2657884883 0)
(2.93101778 -0.1762989496 0)
(2.929294145 -0.1919137818 0)
(2.907677807 -0.2340809097 0)
(2.902485411 -0.2538604352 0)
(2.891840882 -0.2787922788 0)
(2.882779609 -0.2984038276 0)
(2.875043977 -0.3136198335 0)
(2.8694773 -0.309121359 0)
(2.864613716 -0.3109494969 0)
(2.861498731 -0.3100061374 0)
(2.857381429 -0.2983325045 0)
(2.858945305 -0.2871206795 0)
(2.859635694 -0.2853302892 0)
(2.863686001 -0.2808001609 0)
(2.865616809 -0.2800056368 0)
(2.869884741 -0.2761457681 0)
(2.873378342 -0.2711730996 0)
(2.85251079 -0.256970202 0)
(2.854377634 -0.256296105 0)
(2.860123998 -0.2620018023 0)
(2.86253888 -0.263868938 0)
(2.859688821 -0.2662715766 0)
(2.859100429 -0.2614218548 0)
(2.859857094 -0.2630756001 0)
)
;

boundaryField
{
    inlet
    {
        type            fixedValue;
        value           nonuniform 0();
    }
    outlet
    {
        type            inletOutlet;
        inletValue      nonuniform 0();
        value           nonuniform 0();
    }
    bottom
    {
        type            slip;
    }
    top
    {
        type            slip;
    }
    obstacle
    {
        type            slip;
    }
    defaultFaces
    {
        type            empty;
    }
    procBoundary14to7
    {
        type            processor;
        value           uniform (3 7.703093323e-14 0);
    }
    procBoundary14to8
    {
        type            processor;
        value           nonuniform List<vector> 
18
(
(3 2.89444284e-15 0)
(3 3.028523834e-14 0)
(3 1.456218158e-13 0)
(3 4.515053953e-13 0)
(3 1.068113531e-12 0)
(3 1.679102463e-12 0)
(3 2.881301352e-12 0)
(3 3.277190624e-12 0)
(3 3.884497855e-12 0)
(3 3.361278947e-12 0)
(3 7.872218484e-12 0)
(3 7.161879225e-12 0)
(2.999999999 -1.083213158e-09 0)
(2.999999999 -1.083213158e-09 0)
(2.99999999 -1.578425409e-08 0)
(2.999999956 -6.581310592e-08 0)
(2.999998759 -2.328263742e-06 0)
(3.000000431 9.55173807e-07 0)
)
;
    }
    procBoundary14to9
    {
        type            processor;
        value           nonuniform List<vector> 8((2.996002393 -0.008404429476 0) (2.971445378 -0.06109586813 0) (2.928039051 -0.1700060168 0) (2.914428375 -0.2211315275 0) (2.896861885 -0.2762736691 0) (2.895816647 -0.2685355394 0) (2.88870876 -0.2415204537 0) (2.951779992 0.03918106973 0));
    }
    procBoundary14to13
    {
        type            processor;
        value           nonuniform List<vector> 7((3 8.971139731e-13 0) (3 1.538775372e-12 0) (2.999999999 -1.066309868e-09 0) (2.999996611 -5.663093634e-06 0) (2.999576474 -0.0008583215487 0) (2.991949187 -0.0194336188 0) (2.941341283 -0.1401378345 0));
    }
    procBoundary14to20
    {
        type            processor;
        value           nonuniform List<vector> 
11
(
(2.902770688 -0.1037876827 0)
(2.89736101 -0.1213873318 0)
(2.882388198 -0.149422902 0)
(2.881643904 -0.1607704308 0)
(2.875129634 -0.1768737506 0)
(2.871148651 -0.1965141353 0)
(2.863663048 -0.2075761323 0)
(2.8575906 -0.2189622707 0)
(2.857514037 -0.2381638354 0)
(2.855039059 -0.2526517981 0)
(2.855039059 -0.2526517981 0)
)
;
    }
}


// ************************************************************************* //
