/*--------------------------------*- C++ -*----------------------------------*\
  =========                 |
  \\      /  F ield         | OpenFOAM: The Open Source CFD Toolbox
   \\    /   O peration     | Website:  https://openfoam.org
    \\  /    A nd           | Version:  7
     \\/     M anipulation  |
\*---------------------------------------------------------------------------*/
FoamFile
{
    version     2.0;
    format      ascii;
    class       volScalarField;
    location    "4.3";
    object      p;
}
// * * * * * * * * * * * * * * * * * * * * * * * * * * * * * * * * * * * * * //

dimensions      [1 -1 -2 0 0 0 0];

internalField   nonuniform List<scalar> 8(0.9618576646 0.9581345428 1.033367253 0.9984338142 1.050679004 1.045048855 1.053990366 1.071991698);

boundaryField
{
    inlet
    {
        type            fixedValue;
        value           nonuniform 0();
    }
    outlet
    {
        type            zeroGradient;
    }
    bottom
    {
        type            slip;
    }
    top
    {
        type            slip;
    }
    obstacle
    {
        type            zeroGradient;
    }
    defaultFaces
    {
        type            empty;
    }
    procBoundary34to28
    {
        type            processor;
        value           nonuniform List<scalar> 2(0.9499664763 0.9734504567);
    }
    procBoundary34to33
    {
        type            processor;
        value           nonuniform List<scalar> 4(1.047057915 1.058394622 1.041861293 1.020790061);
    }
    procBoundary34to35
    {
        type            processor;
        value           nonuniform List<scalar> 4(0.9786074384 0.9995924058 1.023405881 1.057679126);
    }
}


// ************************************************************************* //
