/*--------------------------------*- C++ -*----------------------------------*\
  =========                 |
  \\      /  F ield         | OpenFOAM: The Open Source CFD Toolbox
   \\    /   O peration     | Website:  https://openfoam.org
    \\  /    A nd           | Version:  7
     \\/     M anipulation  |
\*---------------------------------------------------------------------------*/
FoamFile
{
    version     2.0;
    format      ascii;
    class       volScalarField;
    location    "0.8";
    object      rho;
}
// * * * * * * * * * * * * * * * * * * * * * * * * * * * * * * * * * * * * * //

dimensions      [1 -3 0 0 0 0 0];

internalField   nonuniform List<scalar> 8(1.402318426 1.405676082 1.400006313 1.40003317 1.400037065 1.400005023 1.400005016 1.400005163);

boundaryField
{
    inlet
    {
        type            calculated;
        value           nonuniform 0();
    }
    outlet
    {
        type            calculated;
        value           nonuniform 0();
    }
    bottom
    {
        type            calculated;
        value           nonuniform 0();
    }
    top
    {
        type            calculated;
        value           nonuniform List<scalar> 3(1.400005023 1.400005016 1.400005163);
    }
    obstacle
    {
        type            calculated;
        value           nonuniform 0();
    }
    defaultFaces
    {
        type            empty;
    }
    procBoundary32to26
    {
        type            processor;
        value           nonuniform List<scalar> 4(1.446758071 1.493310976 1.400790846 1.400790846);
    }
    procBoundary32to31
    {
        type            processor;
        value           nonuniform List<scalar> 2(1.400004963 1.400005023);
    }
    procBoundary32to33
    {
        type            processor;
        value           nonuniform List<scalar> 3(1.458203254 1.415042899 1.401546261);
    }
}


// ************************************************************************* //
