/*--------------------------------*- C++ -*----------------------------------*\
  =========                 |
  \\      /  F ield         | OpenFOAM: The Open Source CFD Toolbox
   \\    /   O peration     | Website:  https://openfoam.org
    \\  /    A nd           | Version:  7
     \\/     M anipulation  |
\*---------------------------------------------------------------------------*/
FoamFile
{
    version     2.0;
    format      ascii;
    class       volVectorField;
    location    "5";
    object      U;
}
// * * * * * * * * * * * * * * * * * * * * * * * * * * * * * * * * * * * * * //

dimensions      [0 1 -1 0 0 0 0];

internalField   nonuniform List<vector> 
2222
(
(3 2.870616033e-15 0)
(3 2.466977585e-15 0)
(3 3.525057999e-15 0)
(3 3.364831834e-15 0)
(3 3.134180141e-15 0)
(3 3.178642703e-15 0)
(3 3.491920739e-15 0)
(3 2.459147941e-15 0)
(3 -6.59804196e-16 0)
(3 -1.795647635e-16 0)
(3 1.895302367e-15 0)
(3 1.55369251e-15 0)
(3 1.13395849e-16 0)
(3 4.40124095e-16 0)
(3 2.231284768e-15 0)
(3 3.059458484e-15 0)
(3 2.638704339e-15 0)
(3 3.738233719e-15 0)
(3 3.769656883e-15 0)
(3 2.502323616e-15 0)
(3 5.717151608e-16 0)
(3 -1.019459329e-15 0)
(3 -1.556567142e-16 0)
(3 -4.307556237e-16 0)
(3 -1.299578058e-15 0)
(3 -5.108224088e-16 0)
(3 -1.689228443e-15 0)
(3 -5.700679173e-16 0)
(3 -5.035398557e-16 0)
(3 5.810962364e-16 0)
(3 3.044111453e-15 0)
(3 2.574144874e-15 0)
(3 1.737711004e-15 0)
(3 -4.527549321e-17 0)
(3 -7.124076283e-16 0)
(3 -2.234781272e-15 0)
(3 -2.91121633e-15 0)
(3 -2.290476946e-15 0)
(3 -4.601634072e-16 0)
(3 4.134737146e-16 0)
(3 5.079466215e-16 0)
(3 5.483282163e-16 0)
(3 5.602057381e-16 0)
(3 3.804879211e-16 0)
(3 1.801359052e-16 0)
(3 7.245281193e-16 0)
(3 -3.037807217e-16 0)
(3 -8.525863691e-16 0)
(3 4.137405902e-16 0)
(3 -1.781489251e-16 0)
(3 -4.096717724e-16 0)
(3 -2.128002139e-15 0)
(3 -1.287111443e-15 0)
(3 -1.343725761e-15 0)
(3 2.104379681e-17 0)
(3 4.300572534e-16 0)
(3 -2.850926128e-16 0)
(3 -1.646200134e-15 0)
(3 -1.508651162e-15 0)
(3 -8.048529617e-16 0)
(3 1.324870707e-15 0)
(3 2.269176545e-15 0)
(3 3.409014043e-15 0)
(3 2.741520627e-15 0)
(3 2.11577388e-15 0)
(3 2.02030271e-15 0)
(3 1.964488607e-15 0)
(3 1.38458769e-15 0)
(3 1.880837995e-15 0)
(3 2.041880358e-15 0)
(3 2.374227039e-15 0)
(3 2.663482125e-15 0)
(3 2.148649113e-15 0)
(3 1.801179912e-15 0)
(3 2.039869039e-16 0)
(3 -6.789858041e-16 0)
(3 -4.800522765e-16 0)
(3 4.257858417e-16 0)
(3 1.850490044e-16 0)
(3 1.141121972e-15 0)
(3 1.403438579e-15 0)
(3 2.396274952e-15 0)
(3 1.614199038e-15 0)
(3 1.377603586e-15 0)
(3 1.33609114e-16 0)
(3 5.927819559e-16 0)
(3 1.446394267e-15 0)
(3 1.838992039e-15 0)
(3 -8.796207189e-16 0)
(3 -8.584218811e-16 0)
(3 -1.540442245e-15 0)
(3 -1.892766405e-15 0)
(3 -4.015088491e-15 0)
(3 -3.974853373e-15 0)
(3 -3.454317793e-15 0)
(3 -1.380557238e-15 0)
(3 -4.81978143e-16 0)
(3 -1.325305306e-15 0)
(3 -3.468900801e-15 0)
(3 -4.039304232e-15 0)
(3 -3.623882212e-15 0)
(3 -2.107741439e-15 0)
(3 -9.369347775e-16 0)
(3 4.284156119e-16 0)
(3 -3.713927536e-16 0)
(3 5.395690351e-16 0)
(3 7.211339475e-16 0)
(3 1.624016552e-15 0)
(3 4.211751701e-16 0)
(3 2.333284158e-15 0)
(3 2.906289833e-15 0)
(3 9.847562382e-16 0)
(3 -1.319146913e-15 0)
(3 -2.173681844e-15 0)
(3 3.197029236e-16 0)
(3 1.319897355e-15 0)
(3 -1.299214835e-15 0)
(3 -1.552629266e-15 0)
(3 -6.825256063e-16 0)
(3 8.958609874e-16 0)
(3 1.299240898e-15 0)
(3 1.90553235e-15 0)
(3 1.117898282e-15 0)
(3 2.362358187e-16 0)
(3 5.313625264e-16 0)
(3 7.475213776e-16 0)
(3 3.154018845e-15 0)
(3 4.465935639e-15 0)
(3 4.879664664e-15 0)
(3 5.454532632e-15 0)
(3 4.65089603e-15 0)
(3 3.257036551e-15 0)
(3 1.498863988e-15 0)
(3 7.907646181e-16 0)
(3 4.142641503e-16 0)
(3 9.213517399e-16 0)
(3 -3.110386687e-17 0)
(3 -1.292705806e-16 0)
(3 -4.774061669e-16 0)
(3 7.748694094e-17 0)
(3 -1.66621515e-16 0)
(3 -7.661768431e-16 0)
(3 2.250881684e-16 0)
(3 2.102102708e-18 0)
(3 1.578427278e-15 0)
(3 2.321869541e-15 0)
(3 1.613583171e-15 0)
(3 4.401053301e-16 0)
(3 -6.068410041e-16 0)
(3 -9.153381364e-16 0)
(3 -1.364296714e-15 0)
(3 -1.308828409e-15 0)
(3 -7.92767822e-16 0)
(3 2.704440959e-16 0)
(3 3.275713124e-17 0)
(3 2.081546322e-16 0)
(3 3.043376683e-16 0)
(3 -1.32339931e-16 0)
(3 -1.603953741e-15 0)
(3 -1.678216972e-15 0)
(3 -8.89097373e-16 0)
(3 -1.648706468e-15 0)
(3 -3.087051128e-15 0)
(3 -5.601477279e-15 0)
(3 -4.52993854e-15 0)
(3 -4.098823567e-15 0)
(3 -3.614714764e-15 0)
(3 -2.487876851e-15 0)
(3 -2.301045384e-15 0)
(3 -2.423373829e-15 0)
(3 -2.013550876e-15 0)
(3 -1.867892549e-15 0)
(3 -1.780700591e-15 0)
(3 -5.327850155e-16 0)
(3 -1.145857359e-15 0)
(3 1.972818606e-15 0)
(3 2.301311354e-15 0)
(3 2.020158429e-15 0)
(3 1.038575883e-15 0)
(3 -3.290741676e-17 0)
(3 3.358012552e-16 0)
(3 1.601758567e-15 0)
(3 1.436609236e-15 0)
(3 1.928051805e-15 0)
(3 1.270371156e-15 0)
(3 1.390047716e-15 0)
(3 2.748319729e-15 0)
(3 4.08183885e-15 0)
(3 4.102376529e-15 0)
(3 2.475828749e-15 0)
(3 1.497741326e-15 0)
(3 2.909431522e-15 0)
(3 3.241288702e-15 0)
(3 3.569170601e-15 0)
(3 4.858569846e-15 0)
(3 6.472657614e-15 0)
(3 5.203201436e-15 0)
(3 5.410670079e-15 0)
(3 4.047295985e-15 0)
(3 2.209674205e-15 0)
(3 1.602526619e-15 0)
(3 2.332628601e-15 0)
(3 2.224534884e-15 0)
(3 1.127382124e-15 0)
(3 1.09400285e-15 0)
(3 1.571375655e-15 0)
(3 2.965614632e-15 0)
(3 3.228913081e-15 0)
(3 2.668211764e-15 0)
(3 1.308822359e-15 0)
(3 9.792552627e-18 0)
(3 3.446065405e-16 0)
(3 2.735578146e-16 0)
(3 -7.329949975e-16 0)
(3 -1.561536452e-15 0)
(3 -2.836367593e-15 0)
(3 -3.06814802e-15 0)
(3 -3.942779747e-15 0)
(3 -3.192905641e-15 0)
(3 -1.663854843e-15 0)
(3 3.863150533e-16 0)
(3 3.228543384e-16 0)
(3 -4.949010487e-16 0)
(3 -1.071613928e-15 0)
(3 -1.79886737e-15 0)
(3 -1.021349433e-15 0)
(3 -2.247117538e-16 0)
(3 -1.034261151e-15 0)
(3 -1.189182751e-15 0)
(3 -2.231512019e-15 0)
(3 -2.312035932e-15 0)
(3 -2.186793091e-15 0)
(3 -2.031562504e-15 0)
(3 -3.904950172e-15 0)
(3 -5.880971854e-15 0)
(3 -5.894213246e-15 0)
(3 -4.601801281e-15 0)
(3 -2.89649763e-15 0)
(3 -7.641135948e-16 0)
(3 4.556411009e-16 0)
(3 1.075578892e-15 0)
(3 9.398153028e-16 0)
(3 1.752634987e-15 0)
(3 2.940277531e-15 0)
(3 3.771150428e-15 0)
(3 3.065940096e-15 0)
(3 1.572818981e-15 0)
(3 8.24691931e-16 0)
(3 1.982738303e-15 0)
(3 2.267349203e-15 0)
(3 3.506862617e-15 0)
(3 2.999588154e-15 0)
(3 3.144882647e-15 0)
(3 2.887351378e-15 0)
(3 3.299644754e-15 0)
(3 2.62450777e-15 0)
(3 1.992091153e-15 0)
(3 3.94124656e-15 0)
(3 3.843682992e-15 0)
(3 3.072968915e-15 0)
(3 2.911388983e-15 0)
(3 3.339019017e-15 0)
(3 3.110810552e-15 0)
(3 3.508761167e-15 0)
(3 3.448677019e-15 0)
(3 2.372059895e-15 0)
(3 1.883060908e-15 0)
(3 1.938047773e-15 0)
(3 2.770749186e-15 0)
(3 1.847477526e-15 0)
(3 1.6329067e-15 0)
(3 3.108651275e-15 0)
(3 3.651474033e-15 0)
(3 5.3096393e-15 0)
(3 4.466709272e-15 0)
(3 3.252903496e-15 0)
(3 1.191374469e-15 0)
(3 -1.337274573e-16 0)
(3 -2.092229054e-15 0)
(3 -2.754965569e-15 0)
(3 -3.649685042e-15 0)
(3 -4.589475894e-15 0)
(3 -2.95179849e-15 0)
(3 -2.312911636e-15 0)
(3 -1.259223589e-16 0)
(3 1.192130854e-15 0)
(3 8.847811234e-16 0)
(3 1.204211854e-15 0)
(3 8.954052399e-16 0)
(3 1.248636491e-16 0)
(3 7.818913746e-16 0)
(3 -4.2716604e-16 0)
(3 -2.01786635e-15 0)
(3 -1.032244336e-15 0)
(3 -4.111639322e-16 0)
(3 -8.132366218e-16 0)
(3 -1.439225922e-15 0)
(3 -1.217543019e-15 0)
(3 -1.638393123e-15 0)
(3 -3.296544313e-15 0)
(3 -3.736092262e-15 0)
(3 -4.536351466e-15 0)
(3 -4.593304884e-15 0)
(3 -4.934217254e-15 0)
(3 -2.46796987e-15 0)
(3 1.793720731e-15 0)
(3 3.576453061e-15 0)
(3 2.146365996e-15 0)
(3 4.175497971e-15 0)
(3 3.703600251e-15 0)
(3 4.369065801e-15 0)
(3 3.641271374e-15 0)
(3 2.685208703e-15 0)
(3 7.010895811e-16 0)
(3 1.33338129e-15 0)
(3 2.352009904e-15 0)
(3 4.193141015e-15 0)
(3 4.453633711e-15 0)
(3 4.203302194e-15 0)
(3 3.047747131e-15 0)
(3 2.734079121e-15 0)
(3 4.646632352e-15 0)
(3 5.316608625e-15 0)
(3 4.251808857e-15 0)
(3 2.068743864e-15 0)
(3 1.963699836e-15 0)
(3 1.900391415e-15 0)
(3 9.693556862e-16 0)
(3 2.221482775e-15 0)
(3 3.742441216e-15 0)
(3 4.314762945e-15 0)
(3 3.299927101e-15 0)
(3 2.402680933e-15 0)
(3 2.660764177e-15 0)
(3 2.644501849e-15 0)
(3 2.293275859e-15 0)
(3 2.376714154e-15 0)
(3 3.061203286e-15 0)
(3 3.926825883e-15 0)
(3 3.884828432e-15 0)
(3 3.376448727e-15 0)
(3 2.588572071e-15 0)
(3 3.258717669e-15 0)
(3 2.318604274e-16 0)
(3 -1.091616257e-15 0)
(3 -2.518512145e-15 0)
(3 -4.054393952e-15 0)
(3 -3.915575213e-15 0)
(3 -1.490335976e-15 0)
(3 2.550076218e-16 0)
(3 2.079564988e-15 0)
(3 3.286496487e-15 0)
(3 4.014947446e-16 0)
(3 6.647202322e-16 0)
(3 2.270476599e-15 0)
(3 2.513501388e-15 0)
(3 3.805373968e-15 0)
(3 2.856824854e-15 0)
(3 4.594348879e-16 0)
(3 7.460330147e-16 0)
(3 7.301066184e-16 0)
(3 1.987041606e-15 0)
(3 1.220420829e-15 0)
(3 6.718136319e-16 0)
(3 -7.696148535e-16 0)
(3 -1.26119548e-15 0)
(3 -1.542735658e-15 0)
(3 -1.262410526e-15 0)
(3 -6.478267506e-16 0)
(3 -3.768095952e-16 0)
(3 -6.789578278e-16 0)
(3 9.762058879e-16 0)
(3 3.057971757e-15 0)
(3 3.87059885e-15 0)
(3 2.895579028e-15 0)
(3 4.263309679e-15 0)
(3 6.060962466e-15 0)
(3 5.681716458e-15 0)
(3 4.660086681e-15 0)
(3 3.779560311e-15 0)
(3 4.218881488e-15 0)
(3 5.701849147e-15 0)
(3 5.376804813e-15 0)
(3 5.023492445e-15 0)
(3 5.493318496e-15 0)
(3 5.189607639e-15 0)
(3 7.605810435e-15 0)
(3 8.470572882e-15 0)
(3 6.761390895e-15 0)
(3 4.594601396e-15 0)
(3 4.305536579e-15 0)
(3 4.708932004e-15 0)
(3 3.715823037e-15 0)
(3 1.87533911e-15 0)
(3 2.807010376e-15 0)
(3 5.380834875e-15 0)
(3 5.286950846e-15 0)
(3 6.61138836e-15 0)
(3 6.360774696e-15 0)
(3 6.046510432e-15 0)
(3 3.721401557e-15 0)
(3 3.087451876e-15 0)
(3 2.290592432e-15 0)
(3 2.127997505e-15 0)
(3 5.556646908e-15 0)
(3 6.186641295e-15 0)
(3 4.79230256e-15 0)
(3 3.028391867e-15 0)
(3 2.087680169e-15 0)
(3 1.185807528e-15 0)
(3 6.818623668e-16 0)
(3 -2.130221133e-15 0)
(3 -3.266281981e-15 0)
(3 -3.483328035e-15 0)
(3 -3.666811407e-15 0)
(3 -2.717262923e-15 0)
(3 -4.035736878e-17 0)
(3 1.774967374e-15 0)
(3 -1.602612772e-16 0)
(3 5.41392436e-16 0)
(3 4.081295729e-16 0)
(3 9.433537893e-16 0)
(3 4.078514771e-16 0)
(3 2.407050159e-15 0)
(3 4.13594235e-15 0)
(3 3.775040598e-15 0)
(3 4.115350918e-15 0)
(3 3.280528575e-15 0)
(3 2.08935863e-15 0)
(3 -6.937515999e-16 0)
(3 -1.391154221e-15 0)
(3 -8.378853188e-16 0)
(3 -5.031657157e-16 0)
(3 -1.749330835e-16 0)
(3 3.158895417e-17 0)
(3 1.342327243e-15 0)
(3 2.197505977e-15 0)
(3 2.373381864e-15 0)
(3 4.25486777e-15 0)
(3 4.013936428e-15 0)
(3 3.539014024e-15 0)
(3 3.782944706e-15 0)
(3 3.689951722e-15 0)
(3 2.64659671e-15 0)
(3 2.205232172e-15 0)
(3 2.80251249e-15 0)
(3 4.330032519e-15 0)
(3 7.518559366e-15 0)
(3 7.121033539e-15 0)
(3 7.123341498e-15 0)
(3 7.817043997e-15 0)
(3 8.713080756e-15 0)
(3 9.369317026e-15 0)
(3 7.666626647e-15 0)
(3 6.898007053e-15 0)
(3 7.041477607e-15 0)
(3 9.13891077e-15 0)
(3 8.073935793e-15 0)
(3 7.030712557e-15 0)
(3 5.016207534e-15 0)
(3 4.704428966e-15 0)
(3 5.015025475e-15 0)
(3 6.739704389e-15 0)
(3 5.393885186e-15 0)
(3 4.741405818e-15 0)
(3 3.879651454e-15 0)
(3 3.249098693e-15 0)
(3 2.037772432e-15 0)
(3 2.471080521e-15 0)
(3 2.69938501e-15 0)
(3 3.564221423e-15 0)
(3 4.479773114e-15 0)
(3 3.955387353e-15 0)
(3 3.518162728e-15 0)
(3 3.191003035e-15 0)
(3 3.479570156e-15 0)
(3 1.580312946e-15 0)
(3 -1.028113005e-15 0)
(3 1.827833312e-15 0)
(3 1.65934834e-15 0)
(3 -3.060554741e-16 0)
(3 -7.160445411e-16 0)
(3 -4.628825982e-16 0)
(3 8.484248969e-16 0)
(3 2.516508301e-16 0)
(3 -9.094284683e-16 0)
(3 -2.003378105e-15 0)
(3 -1.329905006e-15 0)
(3 1.10005112e-16 0)
(3 -5.831685763e-16 0)
(3 9.040017421e-16 0)
(3 1.516210324e-15 0)
(3 1.959044762e-15 0)
(3 2.001614465e-15 0)
(3 2.0816287e-15 0)
(3 -5.766251416e-16 0)
(3 6.057948179e-16 0)
(3 2.40325218e-15 0)
(3 2.070021736e-15 0)
(3 1.354460054e-15 0)
(3 5.140667295e-16 0)
(3 1.056008907e-15 0)
(3 2.260682266e-15 0)
(3 3.852482003e-15 0)
(3 3.727486131e-15 0)
(3 2.89693399e-15 0)
(3 4.135888662e-15 0)
(3 1.718813834e-15 0)
(3 1.533330522e-15 0)
(3 1.570878245e-15 0)
(3 1.38927821e-15 0)
(3 2.050672026e-15 0)
(3 3.179784862e-15 0)
(3 3.320310913e-15 0)
(3 6.398283818e-15 0)
(3 8.504673783e-15 0)
(3 7.836313275e-15 0)
(3 7.433592712e-15 0)
(3 7.59428107e-15 0)
(3 8.093876356e-15 0)
(3 8.810183152e-15 0)
(3 9.305839731e-15 0)
(3 7.71116993e-15 0)
(3 7.700288895e-15 0)
(3 7.681816924e-15 0)
(3 6.903244835e-15 0)
(3 4.708420406e-15 0)
(3 3.684675749e-15 0)
(3 4.84233756e-15 0)
(3 4.454129232e-15 0)
(3 4.400257416e-15 0)
(3 4.200388076e-15 0)
(3 4.85549663e-15 0)
(3 5.413893966e-15 0)
(3 5.12294194e-15 0)
(3 4.117977642e-15 0)
(3 2.686150941e-15 0)
(3 1.186744503e-15 0)
(3 1.394825679e-16 0)
(3 5.897503675e-16 0)
(3 1.38333944e-15 0)
(3 1.786836584e-15 0)
(3 2.269128404e-15 0)
(3 3.933482468e-15 0)
(3 5.719805316e-15 0)
(3 6.451677897e-15 0)
(3 4.76062265e-15 0)
(3 3.347347279e-15 0)
(3 7.759486231e-16 0)
(3 7.277292617e-16 0)
(3 4.155214234e-16 0)
(3 -5.954510688e-16 0)
(3 -3.493784501e-16 0)
(3 3.136282702e-16 0)
(3 -2.53238782e-16 0)
(3 -1.857463118e-15 0)
(3 -2.983676296e-15 0)
(3 -2.759505346e-15 0)
(3 -2.737485448e-15 0)
(3 -1.24381705e-15 0)
(3 6.568264829e-16 0)
(3 1.915124317e-16 0)
(3 1.262197886e-15 0)
(3 1.681536751e-15 0)
(3 1.314931975e-15 0)
(3 2.106326192e-15 0)
(3 2.513045594e-15 0)
(3 2.849878175e-15 0)
(3 3.651743925e-15 0)
(3 4.749039851e-15 0)
(3 4.816036895e-15 0)
(3 3.665795148e-15 0)
(3 3.981205698e-15 0)
(3 3.851815072e-15 0)
(3 3.301732643e-15 0)
(3 4.967842514e-15 0)
(3 5.103757337e-15 0)
(3 4.409757273e-15 0)
(3 1.708296079e-15 0)
(3 8.93506081e-16 0)
(3 1.518177043e-15 0)
(3 4.208388441e-15 0)
(3 4.345265566e-15 0)
(3 5.602773982e-15 0)
(3 6.188671908e-15 0)
(3 7.282215633e-15 0)
(3 7.591012418e-15 0)
(3 6.849721561e-15 0)
(3 6.937756809e-15 0)
(3 8.057444007e-15 0)
(3 6.261101683e-15 0)
(3 6.504283124e-15 0)
(3 4.913349359e-15 0)
(3 2.910097129e-15 0)
(3 2.771273929e-15 0)
(3 4.381158517e-15 0)
(3 5.764355853e-15 0)
(3 5.464885937e-15 0)
(3 5.261791599e-15 0)
(3 6.362817834e-15 0)
(3 5.451380868e-15 0)
(3 2.92705905e-15 0)
(3 1.240073834e-15 0)
(3 1.258413669e-15 0)
(3 2.766328534e-15 0)
(3 3.014972844e-15 0)
(3 2.292512322e-15 0)
(3 2.654300579e-15 0)
(3 2.942133062e-15 0)
(3 5.098213177e-15 0)
(3 4.797310687e-15 0)
(3 2.905587585e-15 0)
(3 1.869881748e-15 0)
(3 2.666986639e-15 0)
(3 4.490391541e-17 0)
(3 -1.735050239e-15 0)
(3 3.638833031e-16 0)
(3 2.047114178e-15 0)
(3 3.132139391e-15 0)
(3 2.648244328e-15 0)
(3 8.884743119e-16 0)
(3 1.20321835e-15 0)
(3 8.499690269e-16 0)
(3 6.115860395e-16 0)
(3 -6.466282765e-16 0)
(3 -6.743779649e-16 0)
(3 -5.628606199e-16 0)
(3 -2.691584466e-16 0)
(3 3.971601294e-16 0)
(3 1.031956811e-15 0)
(3 2.513799002e-15 0)
(3 3.348261281e-15 0)
(3 4.831888627e-15 0)
(3 4.760220752e-15 0)
(3 5.082927852e-15 0)
(3 5.737173839e-15 0)
(3 5.353269861e-15 0)
(3 5.78780319e-15 0)
(3 5.990167521e-15 0)
(3 8.181926695e-15 0)
(3 7.176409209e-15 0)
(3 7.521409552e-15 0)
(3 7.708956327e-15 0)
(3 5.685732114e-15 0)
(3 4.476233812e-15 0)
(3 3.149742107e-15 0)
(3 1.86482677e-15 0)
(3 8.814551151e-16 0)
(3 1.670164329e-15 0)
(3 3.632339872e-15 0)
(3 5.100982839e-15 0)
(3 6.241447406e-15 0)
(3 6.45842846e-15 0)
(3 5.418267628e-15 0)
(3 5.964441606e-15 0)
(3 4.899784796e-15 0)
(3 3.318292055e-15 0)
(3 2.696360551e-15 0)
(3 2.570872041e-15 0)
(3 2.160028462e-15 0)
(3 2.876356955e-15 0)
(3 4.761634772e-15 0)
(3 4.143268177e-15 0)
(3 2.958609678e-15 0)
(3 3.329681286e-15 0)
(3 3.068771611e-15 0)
(3 2.725064069e-15 0)
(3 1.66780923e-15 0)
(3 1.50209173e-15 0)
(3 1.922095146e-15 0)
(3 4.29487976e-15 0)
(3 4.302134348e-15 0)
(3 3.283605107e-15 0)
(3 4.304650225e-15 0)
(3 2.674677074e-15 0)
(3 2.025444606e-15 0)
(3 1.907334591e-15 0)
(3 5.830452173e-16 0)
(3 1.139769729e-15 0)
(3 2.091485745e-15 0)
(3 2.019968719e-15 0)
(3 1.748504503e-15 0)
(3 1.949102029e-16 0)
(3 1.832025666e-15 0)
(3 1.889006991e-15 0)
(3 1.207205767e-15 0)
(3 2.387248247e-15 0)
(3 2.265291141e-15 0)
(3 3.892537317e-15 0)
(3 3.063507909e-15 0)
(3 1.342117329e-15 0)
(3 2.629803603e-16 0)
(3 5.125821107e-16 0)
(3 1.029798378e-15 0)
(3 -1.21940724e-16 0)
(3 8.13641017e-16 0)
(3 4.570135245e-15 0)
(3 6.25956426e-15 0)
(3 5.894144432e-15 0)
(3 5.800791302e-15 0)
(3 3.76117935e-15 0)
(3 3.827477253e-15 0)
(3 4.509761759e-15 0)
(3 8.069690926e-15 0)
(3 9.026965292e-15 0)
(3 8.511667318e-15 0)
(3 8.849144907e-15 0)
(3 7.609325657e-15 0)
(3 7.355645123e-15 0)
(3 7.154592093e-15 0)
(3 6.992756399e-15 0)
(3 3.794058407e-15 0)
(3 2.490260678e-15 0)
(3 1.538530156e-15 0)
(3 1.713255121e-15 0)
(3 1.95579294e-15 0)
(3 3.083932917e-15 0)
(3 4.530996504e-15 0)
(3 5.214538938e-15 0)
(3 5.116944444e-15 0)
(3 3.107803135e-15 0)
(3 1.580661526e-15 0)
(3 1.502128753e-15 0)
(3 7.882923868e-16 0)
(3 8.9499473e-16 0)
(3 5.671866663e-16 0)
(3 3.65833644e-16 0)
(3 5.072137256e-16 0)
(3 2.802087613e-16 0)
(3 1.087519084e-16 0)
(3 -1.240962365e-16 0)
(3 -1.672952353e-15 0)
(3 -1.442759553e-15 0)
(3 4.327607249e-16 0)
(3 1.930760197e-15 0)
(3 1.666729983e-15 0)
(3 1.760005902e-15 0)
(3 2.41591244e-15 0)
(3 2.200284643e-15 0)
(3 2.844497893e-15 0)
(3 1.855316054e-15 0)
(3 -1.083189061e-17 0)
(3 -4.717638295e-16 0)
(3 7.374409227e-17 0)
(3 -8.641740179e-17 0)
(3 1.203998798e-15 0)
(3 2.144713132e-15 0)
(3 1.775334549e-15 0)
(3 -1.100457714e-15 0)
(3 2.54810335e-16 0)
(3 8.766035185e-16 0)
(3 1.597146295e-15 0)
(3 2.31390345e-15 0)
(3 2.317698668e-15 0)
(3 1.151580339e-15 0)
(3 3.024583985e-16 0)
(3 3.945173065e-16 0)
(3 8.349266346e-16 0)
(3 3.543110681e-16 0)
(3 1.08974412e-15 0)
(3 1.798235467e-15 0)
(3 2.457957549e-15 0)
(3 3.261889663e-15 0)
(3 3.827686968e-15 0)
(3 4.260024693e-15 0)
(3 3.575515464e-15 0)
(3 2.081442829e-15 0)
(3 1.709301648e-15 0)
(3 2.497297597e-15 0)
(3 3.896101704e-15 0)
(3 5.826832564e-15 0)
(3 7.066777142e-15 0)
(3 9.064700499e-15 0)
(3 8.420604406e-15 0)
(3 7.318342234e-15 0)
(3 7.95857276e-15 0)
(3 8.233457114e-15 0)
(3 6.331113278e-15 0)
(3 4.389203026e-15 0)
(3 3.779717285e-15 0)
(3 3.734827477e-15 0)
(3 3.133404428e-15 0)
(3 3.207825563e-15 0)
(3 4.050290511e-15 0)
(3 3.53439033e-15 0)
(3 4.267681529e-15 0)
(3 2.867253295e-15 0)
(3 6.483772852e-16 0)
(3 -5.523203234e-16 0)
(3 -1.659399746e-15 0)
(3 -1.679109747e-15 0)
(3 -1.890340351e-15 0)
(3 -2.629413142e-15 0)
(3 -2.894369637e-15 0)
(3 -1.556947684e-15 0)
(3 8.775958212e-17 0)
(3 -1.332643063e-16 0)
(3 -8.843917672e-16 0)
(3 -2.833095353e-16 0)
(3 9.022493774e-16 0)
(3 2.461783153e-15 0)
(3 1.09018031e-15 0)
(3 -4.675841977e-16 0)
(3 -4.727064433e-16 0)
(3 -2.853390704e-16 0)
(3 3.416056582e-16 0)
(3 5.360570467e-16 0)
(3 -9.357470728e-16 0)
(3 -1.708576307e-15 0)
(3 -1.125233396e-15 0)
(3 -1.824268673e-15 0)
(3 -1.114333682e-15 0)
(3 1.269583244e-15 0)
(3 1.438751817e-15 0)
(3 -1.51300863e-15 0)
(3 -1.61468368e-15 0)
(3 6.268898755e-16 0)
(3 2.238921614e-15 0)
(3 1.717996688e-15 0)
(3 1.844348328e-15 0)
(3 1.393526324e-15 0)
(3 2.135290321e-15 0)
(3 3.468134829e-15 0)
(3 2.697915194e-15 0)
(3 7.09002232e-16 0)
(3 1.890789555e-15 0)
(3 2.778613498e-15 0)
(3 3.878108344e-15 0)
(3 2.813007417e-15 0)
(3 2.687561077e-15 0)
(3 2.505462308e-15 0)
(3 2.715827381e-15 0)
(3 1.706070299e-15 0)
(3 -5.52155794e-17 0)
(3 -1.002924452e-15 0)
(3 -3.032984535e-15 0)
(3 -9.005741787e-16 0)
(3 1.370774664e-15 0)
(3 4.983455388e-15 0)
(3 4.669375764e-15 0)
(3 5.07097748e-15 0)
(3 6.665688955e-15 0)
(3 9.850878037e-15 0)
(3 9.490805467e-15 0)
(3 6.521430019e-15 0)
(3 5.056746297e-15 0)
(3 4.748295193e-15 0)
(3 5.149044348e-15 0)
(3 5.749385578e-15 0)
(3 5.982082449e-15 0)
(3 4.57257518e-15 0)
(3 1.602933883e-15 0)
(3 1.214361939e-15 0)
(3 -1.184152585e-16 0)
(3 -3.596510092e-15 0)
(3 -5.659506444e-15 0)
(3 -5.946110514e-15 0)
(3 -4.325237173e-15 0)
(3 -3.519735051e-15 0)
(3 -4.154081532e-15 0)
(3 -3.183650401e-15 0)
(3 -2.120411502e-15 0)
(3 -9.302488509e-16 0)
(3 -3.095413948e-16 0)
(3 5.557834395e-16 0)
(3 4.56931154e-16 0)
(3 1.226318434e-15 0)
(3 2.440577468e-15 0)
(3 1.022359834e-15 0)
(3 1.231534799e-16 0)
(3 3.432290991e-16 0)
(3 2.117605625e-16 0)
(3 4.533244719e-16 0)
(3 -3.31724397e-16 0)
(3 -1.789821429e-15 0)
(3 -1.921298573e-15 0)
(3 -5.162457897e-16 0)
(3 2.618904679e-16 0)
(3 2.861351565e-15 0)
(3 3.118794933e-15 0)
(3 1.080223005e-16 0)
(3 -3.812727405e-16 0)
(3 -8.90573175e-16 0)
(3 -1.987747436e-15 0)
(3 -1.29149589e-15 0)
(3 -8.601358939e-16 0)
(3 1.526884327e-15 0)
(3 2.889087641e-15 0)
(3 2.801179039e-15 0)
(3 1.058882791e-15 0)
(3 3.393755947e-15 0)
(3 5.193601415e-15 0)
(3 4.586456087e-15 0)
(3 4.072025025e-15 0)
(3 2.585212612e-15 0)
(3 2.6985491e-15 0)
(3 1.643001319e-15 0)
(3 1.345468681e-15 0)
(3 8.340409512e-16 0)
(3 -1.319083556e-15 0)
(3 -2.52671139e-15 0)
(3 -2.391734469e-15 0)
(3 -1.380261996e-15 0)
(3 -1.777295437e-15 0)
(3 9.866812979e-17 0)
(3 2.775090559e-15 0)
(3 4.738903126e-15 0)
(3 5.875129212e-15 0)
(3 6.699326709e-15 0)
(3 6.22846649e-15 0)
(3 7.787111224e-15 0)
(3 7.520118068e-15 0)
(3 6.258334399e-15 0)
(3 4.758818657e-15 0)
(3 3.927740866e-15 0)
(3 3.238067104e-15 0)
(3 1.498757946e-15 0)
(3 -1.356683962e-15 0)
(3 -3.660657312e-15 0)
(3 -3.30053368e-15 0)
(3 -4.29888229e-15 0)
(3 -5.328298052e-15 0)
(3 -4.927538934e-15 0)
(3 -3.065834601e-15 0)
(3 -2.831361606e-15 0)
(3 -2.40248055e-15 0)
(3 -2.49109148e-15 0)
(3 -2.312933517e-15 0)
(3 -1.388646025e-15 0)
(3 9.847960209e-16 0)
(3 2.034093049e-15 0)
(3 1.62567329e-15 0)
(3 1.7829423e-15 0)
(3 1.698743617e-15 0)
(3 -2.017193534e-16 0)
(3 2.183677234e-17 0)
(3 1.346357895e-15 0)
(3 2.003520729e-15 0)
(3 2.341478642e-15 0)
(3 2.598103585e-15 0)
(3 1.223681708e-15 0)
(3 -1.03930046e-15 0)
(3 -1.127309059e-16 0)
(3 9.900966221e-16 0)
(3 6.577955231e-16 0)
(3 1.09925171e-15 0)
(3 1.32342281e-15 0)
(3 9.379727397e-16 0)
(3 -1.95053765e-16 0)
(3 -2.159191396e-15 0)
(3 -1.761946886e-15 0)
(3 8.622869613e-17 0)
(3 1.683719044e-15 0)
(3 2.382895697e-15 0)
(3 2.268838452e-15 0)
(3 2.497158091e-15 0)
(3 5.107722139e-15 0)
(3 5.325976686e-15 0)
(3 5.80303665e-15 0)
(3 5.310730467e-15 0)
(3 3.8991638e-15 0)
(3 3.196490105e-15 0)
(3 2.237851639e-15 0)
(3 5.104557527e-16 0)
(3 6.799226146e-16 0)
(3 2.385636609e-16 0)
(3 -7.711575059e-16 0)
(3 5.400790129e-16 0)
(3 4.795604972e-16 0)
(3 7.149518889e-16 0)
(3 1.294885764e-15 0)
(3 9.857999582e-16 0)
(3 6.469157535e-16 0)
(3 3.010189799e-15 0)
(3 3.617684649e-15 0)
(3 4.520000522e-15 0)
(3 5.876850431e-15 0)
(3 7.060663705e-15 0)
(3 6.315024721e-15 0)
(3 5.271137306e-15 0)
(3 4.337608366e-15 0)
(3 2.59247569e-15 0)
(3 1.30464329e-15 0)
(3 1.588921857e-15 0)
(3 6.230935461e-16 0)
(3 -4.627353784e-16 0)
(3 5.143158512e-16 0)
(3 1.537392957e-17 0)
(3 7.688246793e-16 0)
(3 -1.772430062e-15 0)
(3 -2.172480515e-15 0)
(3 -8.304834753e-16 0)
(3 -7.074809362e-16 0)
(3 -2.08583453e-16 0)
(3 6.656712969e-16 0)
(3 1.94317342e-15 0)
(3 2.321964635e-15 0)
(3 2.218002479e-15 0)
(3 1.620902589e-15 0)
(3 1.177312312e-15 0)
(3 -7.857942921e-16 0)
(3 -9.831956009e-16 0)
(3 -3.90866624e-16 0)
(3 1.669496272e-15 0)
(3 2.49712137e-15 0)
(3 2.497308276e-15 0)
(3 2.160837647e-15 0)
(3 1.01400793e-15 0)
(3 -3.402487743e-16 0)
(3 -3.404112101e-17 0)
(3 -2.222016719e-15 0)
(3 -9.03716332e-16 0)
(3 7.862977803e-16 0)
(3 -4.895448734e-16 0)
(3 -1.01212965e-15 0)
(3 -1.255513086e-15 0)
(3 -2.286925205e-15 0)
(3 -1.308619089e-15 0)
(3 -1.762726574e-15 0)
(3 3.037227308e-16 0)
(3 1.733207436e-15 0)
(3 2.177360742e-15 0)
(3 2.7984431e-15 0)
(3 3.211871884e-15 0)
(3 3.29725016e-15 0)
(3 2.335073889e-15 0)
(3 2.454122496e-15 0)
(3 2.081631252e-15 0)
(3 2.032570278e-15 0)
(3 9.35585595e-16 0)
(3 3.882715384e-17 0)
(3 -1.570947098e-15 0)
(3 -1.115174422e-15 0)
(3 -3.507688386e-16 0)
(3 6.359952533e-16 0)
(3 2.270965572e-15 0)
(3 2.149373924e-15 0)
(3 2.098279173e-15 0)
(3 -6.541342641e-17 0)
(3 -7.780360048e-18 0)
(3 1.537061672e-15 0)
(3 3.311287048e-15 0)
(3 1.784203658e-15 0)
(3 2.201263627e-15 0)
(3 1.721276687e-15 0)
(3 2.290883648e-15 0)
(3 2.928140419e-15 0)
(3 -1.395750749e-16 0)
(3 -1.527667014e-15 0)
(3 -1.750368995e-15 0)
(3 -7.522060017e-16 0)
(3 5.391774883e-16 0)
(3 2.539309731e-15 0)
(3 3.382926221e-15 0)
(3 4.640334621e-15 0)
(3 3.44850546e-15 0)
(3 1.252360711e-15 0)
(3 1.722272462e-15 0)
(3 1.623664067e-15 0)
(3 3.027246932e-15 0)
(3 1.873603622e-15 0)
(3 2.513577068e-15 0)
(3 3.524535902e-15 0)
(3 3.870875405e-15 0)
(3 5.271841319e-16 0)
(3 -1.359394603e-15 0)
(3 1.923346987e-17 0)
(3 1.178628429e-15 0)
(3 8.371278417e-16 0)
(3 7.033304974e-16 0)
(3 1.071840375e-15 0)
(3 1.201690861e-15 0)
(3 1.558102635e-15 0)
(3 2.50418888e-15 0)
(3 2.505458902e-15 0)
(3 -3.121338901e-16 0)
(3 -3.338201234e-15 0)
(3 -3.208356161e-15 0)
(3 -8.2651533e-16 0)
(3 -2.012854908e-15 0)
(3 -1.724737623e-15 0)
(3 -8.614176682e-16 0)
(3 -2.189472774e-16 0)
(3 5.457913023e-16 0)
(3 1.476418222e-16 0)
(3 -9.024041032e-16 0)
(3 -4.21827281e-17 0)
(3 2.886048577e-15 0)
(3 3.755080754e-15 0)
(3 3.492358003e-15 0)
(3 1.523887455e-15 0)
(3 1.331048825e-15 0)
(3 1.472035088e-15 0)
(3 1.240912116e-15 0)
(3 1.043238146e-15 0)
(3 1.171236604e-15 0)
(3 -1.361375581e-15 0)
(3 -2.874017561e-15 0)
(3 -1.598281056e-15 0)
(3 4.245008397e-17 0)
(3 2.2283936e-15 0)
(3 3.860729837e-15 0)
(3 1.220465418e-15 0)
(3 2.896879313e-15 0)
(3 3.260520277e-15 0)
(3 9.524428789e-16 0)
(3 2.91192933e-16 0)
(3 4.924490645e-16 0)
(3 -5.804205017e-16 0)
(3 -3.516014086e-16 0)
(3 -7.038283835e-16 0)
(3 -1.172470964e-15 0)
(3 -2.161630806e-15 0)
(3 -1.625744841e-15 0)
(3 -2.312582699e-15 0)
(3 -2.438542155e-15 0)
(3 -1.754703155e-16 0)
(3 2.254508838e-15 0)
(3 3.216957243e-15 0)
(3 3.589288685e-15 0)
(3 3.488917303e-15 0)
(3 3.730217715e-15 0)
(3 2.376019835e-15 0)
(3 2.622710647e-15 0)
(3 3.649830114e-15 0)
(3 3.22444457e-15 0)
(3 3.968842301e-15 0)
(3 2.997649309e-15 0)
(3 1.653095141e-15 0)
(3 5.728195548e-16 0)
(3 -3.873262873e-16 0)
(3 -9.64333173e-16 0)
(3 3.182173471e-16 0)
(3 1.91722636e-15 0)
(3 1.755962264e-15 0)
(3 -3.721883203e-16 0)
(3 -1.841604166e-15 0)
(3 -2.081166856e-15 0)
(3 -8.573864336e-16 0)
(3 1.418224383e-15 0)
(3 6.567091155e-16 0)
(3 -1.923001593e-15 0)
(3 -3.965637333e-15 0)
(3 -3.723490818e-15 0)
(3 -2.881272664e-16 0)
(3 -1.267472892e-16 0)
(3 -4.900737345e-16 0)
(3 -2.870045103e-16 0)
(3 1.367996975e-15 0)
(3 1.965120863e-15 0)
(3 9.717843118e-16 0)
(3 -8.666031656e-16 0)
(3 3.405285988e-16 0)
(3 2.536227471e-15 0)
(3 2.30296711e-15 0)
(3 2.962734681e-15 0)
(3 2.362610303e-15 0)
(3 3.473492403e-15 0)
(3 4.251956511e-15 0)
(3 4.097187138e-15 0)
(3 3.671268355e-15 0)
(3 1.598851878e-15 0)
(3 7.2550518e-16 0)
(3 2.238221545e-15 0)
(3 3.477576822e-15 0)
(3 3.61073972e-15 0)
(3 2.827589758e-15 0)
(3 2.343303698e-15 0)
(3 9.81424415e-16 0)
(3 2.125971797e-15 0)
(3 4.863055119e-15 0)
(3 6.357395801e-15 0)
(3 4.736642685e-15 0)
(3 2.508498713e-15 0)
(3 1.857469877e-15 0)
(3 2.52388184e-16 0)
(3 3.902885089e-16 0)
(3 4.182380873e-16 0)
(3 -5.065205988e-16 0)
(3 3.173574078e-17 0)
(3 4.733790905e-16 0)
(3 2.855487474e-15 0)
(3 3.373427963e-15 0)
(3 4.301704804e-15 0)
(3 5.780947539e-15 0)
(3 6.122145996e-15 0)
(3 4.118154612e-15 0)
(3 3.484604917e-15 0)
(3 4.281751866e-15 0)
(3 3.843150391e-15 0)
(3 2.381685966e-15 0)
(3 1.510838101e-15 0)
(3 1.896493126e-15 0)
(3 1.284373531e-15 0)
(3 4.47250426e-16 0)
(3 -2.24374187e-16 0)
(3 7.782783587e-16 0)
(3 1.259845999e-15 0)
(3 1.77222154e-15 0)
(3 8.475229186e-16 0)
(3 6.513255395e-16 0)
(3 3.914801344e-17 0)
(3 -1.053262969e-15 0)
(3 -6.071330196e-16 0)
(3 2.279596008e-16 0)
(3 -1.738468819e-16 0)
(3 -2.86354161e-15 0)
(3 -5.050582407e-15 0)
(3 -4.310152265e-15 0)
(3 -7.770878742e-16 0)
(3 -3.806529831e-18 0)
(3 -5.597006236e-17 0)
(3 -4.715765538e-16 0)
(3 -7.260216658e-16 0)
(3 -6.855763748e-16 0)
(3 -6.488224e-16 0)
(3 -1.485325035e-16 0)
(3 -2.867872707e-16 0)
(3 -3.325837452e-16 0)
(3 5.815510556e-16 0)
(3 7.535812282e-17 0)
(3 9.382017263e-16 0)
(3 1.046378486e-15 0)
(3 2.519620205e-15 0)
(3 4.4546394e-15 0)
(3 3.697451438e-15 0)
(3 3.240603471e-15 0)
(3 2.605236722e-15 0)
(3 3.64910864e-15 0)
(3 6.09404184e-15 0)
(3 5.075671023e-15 0)
(3 2.900976417e-15 0)
(3 9.789238726e-16 0)
(3 -1.310811565e-15 0)
(3 5.335528665e-16 0)
(3 1.070657828e-15 0)
(3 1.626818941e-15 0)
(3 2.395393798e-15 0)
(3 2.068291368e-15 0)
(3 1.192035274e-15 0)
(3 1.185422768e-15 0)
(3 -7.467259428e-17 0)
(3 1.958932893e-15 0)
(3 3.628390735e-15 0)
(3 3.535888117e-15 0)
(3 2.60286393e-15 0)
(3 3.252668576e-15 0)
(3 3.480649261e-15 0)
(3 3.215636244e-15 0)
(3 4.953435061e-15 0)
(3 6.78307582e-15 0)
(3 7.717537459e-15 0)
(3 6.895800436e-15 0)
(3 5.406984148e-15 0)
(3 6.427492211e-15 0)
(3 6.306455458e-15 0)
(3 5.451289411e-15 0)
(3 4.15919844e-15 0)
(3 2.572215243e-15 0)
(3 3.216474474e-15 0)
(3 2.281260897e-15 0)
(3 2.062078135e-15 0)
(3 1.79213074e-15 0)
(3 2.869101292e-15 0)
(3 9.750540531e-16 0)
(3 -7.960144479e-16 0)
(3 -4.307744639e-16 0)
(3 6.431370928e-16 0)
(3 3.229091428e-15 0)
(3 5.603933363e-15 0)
(3 4.814792617e-15 0)
(3 2.467839789e-15 0)
(3 -1.920938626e-16 0)
(3 -2.085780834e-15 0)
(3 1.35602242e-18 0)
(3 2.968363298e-15 0)
(3 -8.929568271e-17 0)
(3 -1.073239263e-15 0)
(3 -6.898752705e-16 0)
(3 -8.179113748e-16 0)
(3 -2.555344252e-15 0)
(3 -3.874032082e-15 0)
(3 -2.914195541e-15 0)
(3 -2.14471703e-15 0)
(3 -1.529619213e-15 0)
(3 -6.281776438e-16 0)
(3 -7.870347592e-16 0)
(3 3.46747168e-18 0)
(3 9.227521218e-16 0)
(3 2.440733668e-15 0)
(3 3.913476643e-15 0)
(3 3.359539192e-15 0)
(3 3.036223425e-15 0)
(3 4.862339876e-15 0)
(3 4.432981632e-15 0)
(3 3.660553798e-15 0)
(3 7.58227168e-16 0)
(3 -1.083025627e-15 0)
(3 -1.687030758e-15 0)
(3 -2.133632956e-15 0)
(3 -5.251127172e-16 0)
(3 -7.180669347e-16 0)
(3 -2.124562294e-15 0)
(3 -2.24479293e-15 0)
(3 -2.218109913e-15 0)
(3 -7.067722791e-16 0)
(3 -7.67238709e-16 0)
(3 5.977642899e-16 0)
(3 2.1558152e-15 0)
(3 1.763822066e-15 0)
(3 3.847645345e-15 0)
(3 5.080426788e-15 0)
(3 6.043645436e-15 0)
(3 4.76833333e-15 0)
(3 3.553002052e-15 0)
(3 4.543687884e-15 0)
(3 6.193849353e-15 0)
(3 7.042598982e-15 0)
(3 6.185027795e-15 0)
(3 4.66119449e-15 0)
(3 4.995259986e-15 0)
(3 4.92918122e-15 0)
(3 4.496169034e-15 0)
(3 3.279764131e-15 0)