/*--------------------------------*- C++ -*----------------------------------*\
  =========                 |
  \\      /  F ield         | OpenFOAM: The Open Source CFD Toolbox
   \\    /   O peration     | Website:  https://openfoam.org
    \\  /    A nd           | Version:  7
     \\/     M anipulation  |
\*---------------------------------------------------------------------------*/
FoamFile
{
    version     2.0;
    format      ascii;
    class       volVectorField;
    location    "4.8";
    object      U;
}
// * * * * * * * * * * * * * * * * * * * * * * * * * * * * * * * * * * * * * //

dimensions      [0 1 -1 0 0 0 0];

internalField   nonuniform List<vector> 
2222
(
(2.963118002 -3.451088319e-05 0)
(2.963278205 -0.0006762345628 0)
(2.963464898 -0.001371484127 0)
(2.963814691 -0.001594363548 0)
(2.959870542 -0.001750822396 0)
(2.959814945 -0.001604974597 0)
(2.960464729 -0.001459273376 0)
(2.9610028 -0.0009473038471 0)
(2.961413551 -8.959755986e-05 0)
(2.961604851 0.0003779456395 0)
(2.96160116 0.0008155876268 0)
(2.961492448 0.001361970542 0)
(2.961446272 0.0014336013 0)
(2.96134421 0.001020904148 0)
(2.961511759 -0.0001592856694 0)
(2.960968148 -0.001079344098 0)
(2.961045593 -0.0004223768971 0)
(2.96147796 -0.0002719062304 0)
(2.962294491 -3.601303771e-05 0)
(2.962782412 0.0001216303956 0)
(2.962887747 0.0002294318554 0)
(2.962974958 0.0002309505047 0)
(2.962930035 0.0002881223155 0)
(2.962795012 0.0004172144168 0)
(2.962655323 0.0003910242578 0)
(2.962430592 -0.000219240674 0)
(2.961917491 -0.0003709382074 0)
(2.961571335 -6.342300204e-05 0)
(2.961069959 0.0002145502485 0)
(2.961038968 0.0002186313864 0)
(2.96115135 0.0005115962521 0)
(2.961431144 -0.0001234709955 0)
(2.961641427 -0.0009100107868 0)
(2.961865624 -0.001507001983 0)
(2.957584832 -0.001354779806 0)
(2.957554753 -0.0009324055765 0)
(2.957838153 -0.0006931180094 0)
(2.957589929 -0.001034630534 0)
(2.957559494 -0.001565284217 0)
(2.957856276 -0.001692746387 0)
(2.958272146 -0.001997000893 0)
(2.958737679 -0.00180625273 0)
(2.959179007 -0.001100534715 0)
(2.959237475 -0.0005335188463 0)
(2.95932278 0.0001630453481 0)
(2.959144444 0.0006978237602 0)
(2.959170572 0.0009069666359 0)
(2.958928771 0.0007669574476 0)
(2.958746045 0.0004668298257 0)
(2.958715374 -7.156844062e-05 0)
(2.958917778 -0.000694092188 0)
(2.959410938 -0.0007175568497 0)
(2.960068991 -0.0003169851387 0)
(2.960519511 -0.0001902884357 0)
(2.96072664 -0.0002570213975 0)
(2.96070105 -0.0001939874306 0)
(2.960650802 0.0002205851592 0)
(2.960493169 0.000551997271 0)
(2.960303102 0.0005636803021 0)
(2.960106734 0.000209435631 0)
(2.959721421 -0.0004299310588 0)
(2.959387943 -0.0004453820428 0)
(2.959090359 -0.0003141032547 0)
(2.959011476 0.0001775198386 0)
(2.959100644 0.0001813137701 0)
(2.959390384 0.0002729828158 0)
(2.959724205 -0.0001640774817 0)
(2.959943585 -0.0008370644163 0)
(2.955074399 -0.0003339950001 0)
(2.95519992 -0.0007530344891 0)
(2.955398902 -0.0004302681035 0)
(2.955278186 -0.000170335729 0)
(2.955297058 6.901918012e-07 0)
(2.955767998 -0.000617707435 0)
(2.956003069 -0.001629996703 0)
(2.95624887 -0.002060906307 0)
(2.956340655 -0.002007503032 0)
(2.956377303 -0.00124702937 0)
(2.956633633 -0.000593695503 0)
(2.956840532 -0.0003698355186 0)
(2.956951208 0.0001870899046 0)
(2.956533227 0.0009154318952 0)
(2.956286968 0.001625068005 0)
(2.956375123 0.001166703168 0)
(2.956527125 3.181663047e-05 0)
(2.957285267 -0.0002180884562 0)
(2.957744779 -0.0002662258553 0)
(2.958144638 -8.685152722e-05 0)
(2.958337704 4.561706476e-06 0)
(2.958360718 -0.0001518749121 0)
(2.958307144 -8.477326635e-05 0)
(2.957995366 0.0001268090568 0)
(2.957745931 0.0004714842456 0)
(2.957546394 0.0005087627942 0)
(2.957247996 -1.363083441e-05 0)
(2.956930193 -0.0006808445661 0)
(2.956929151 -0.0006933362289 0)
(2.956870114 -0.0002124043382 0)
(2.956976587 0.0002679729863 0)
(2.957193015 0.0002444942615 0)
(2.957468686 0.0003919515454 0)
(2.957689481 0.0003118343673 0)
(2.952438282 0.001482520632 0)
(2.952586574 0.0006062247339 0)
(2.952889106 0.0004833659912 0)
(2.953041869 0.001479524305 0)
(2.95299824 0.001350209361 0)
(2.953098107 0.0008076861832 0)
(2.953595659 0.0001682042544 0)
(2.953885348 -0.0009917528579 0)
(2.953897905 -0.001312764823 0)
(2.953627501 -0.001326549192 0)
(2.953578246 -0.001209066151 0)
(2.95382593 -0.0009630170487 0)
(2.954075326 -0.0003649498545 0)
(2.954071438 0.0003538719122 0)
(2.953824289 0.0006439278168 0)
(2.953583321 0.0007819687525 0)
(2.954006799 0.000811038736 0)
(2.954717466 0.0001619851496 0)
(2.955079525 -8.07506563e-05 0)
(2.955438062 0.0001178397759 0)
(2.955522418 0.0001270257275 0)
(2.95566058 5.013634126e-06 0)
(2.955532293 -8.208005682e-05 0)
(2.955132726 -8.116813216e-05 0)
(2.954912454 0.0002299148324 0)
(2.954661158 0.0003483818571 0)
(2.954490641 8.480134187e-05 0)
(2.954426724 -0.000284441664 0)
(2.954348156 -0.0003229167391 0)
(2.954308553 -0.0002478272745 0)
(2.954634981 -5.892601385e-05 0)
(2.954842398 0.0005154758225 0)
(2.954791414 0.0005514401711 0)
(2.954992347 0.0005025185143 0)
(2.94945311 0.0009948421174 0)
(2.949824826 0.0017428859 0)
(2.950146976 0.001802912385 0)
(2.950199903 0.0009890366962 0)
(2.950003887 0.001517473776 0)
(2.950274646 0.001955953603 0)
(2.950788821 0.001739711773 0)
(2.951127965 0.001111358507 0)
(2.951498998 -5.765524366e-05 0)
(2.950987066 -0.0009547684915 0)
(2.950803902 -0.001357544068 0)
(2.951098463 -0.001121288822 0)
(2.951269039 -0.0009815766006 0)
(2.951225898 -0.0006050391847 0)
(2.951180778 -0.0003421321074 0)
(2.950877895 0.0004739793893 0)
(2.951247764 0.0004515667769 0)
(2.951747295 0.0002233178209 0)
(2.952072415 -6.488318288e-05 0)
(2.952285563 -1.409821561e-05 0)
(2.952342481 9.191707413e-05 0)
(2.952256487 -6.207057546e-05 0)
(2.95213141 -0.0003646898057 0)
(2.95190272 -0.0003860372749 0)
(2.951710064 -6.188437411e-05 0)
(2.951524513 0.0002608140163 0)
(2.951390117 0.0002591991364 0)
(2.951431796 -0.0001838914792 0)
(2.951502689 -0.0005470639369 0)
(2.951551056 -0.0006300720426 0)
(2.951745129 -0.0002743425597 0)
(2.952077156 0.0001128438918 0)
(2.951976241 0.0004205948499 0)
(2.951974799 0.0006945361328 0)
(2.946760805 0.002085533912 0)
(2.946891446 0.001501052339 0)
(2.947130304 0.001244404265 0)
(2.947341357 0.001307952332 0)
(2.947155696 0.001286248036 0)
(2.947306477 0.001157412651 0)
(2.947583522 0.001117897065 0)
(2.947803282 0.0007300209548 0)
(2.947859335 0.0008158019702 0)
(2.947747777 0.0005549583608 0)
(2.948010962 9.943431186e-06 0)
(2.948348751 -0.0007331285604 0)
(2.948244906 -0.001383151985 0)
(2.947993147 -0.001566776673 0)
(2.947933961 -0.001008397978 0)
(2.947944468 -0.0003731779114 0)
(2.948333183 8.082054821e-05 0)
(2.948545974 -0.0001447156748 0)
(2.948704604 -0.0004571552445 0)
(2.948701975 -0.0005222430694 0)
(2.948720995 -0.0003674282331 0)
(2.948594462 -9.61829307e-05 0)
(2.948463557 -0.0001295703852 0)
(2.948235842 -0.0002429835978 0)
(2.948110103 -0.0002450803893 0)
(2.948037228 1.046175116e-05 0)
(2.94796215 0.0002299284335 0)
(2.948051016 0.0001711881181 0)
(2.948237355 -0.0002910677276 0)
(2.948446036 -0.0006465674104 0)
(2.948742576 -0.0006554176984 0)
(2.94876733 -0.0002709990809 0)
(2.948759966 7.598954153e-05 0)
(2.948660711 0.0003811571848 0)
(2.943846655 0.001363832838 0)
(2.944066071 0.00117181078 0)
(2.944239207 0.0008932087624 0)
(2.944289096 0.0005662787687 0)
(2.9440695 0.0005107870895 0)
(2.944159306 0.0004216776106 0)
(2.944281127 0.0008819747054 0)
(2.944449379 0.001250887732 0)
(2.944315591 0.00120282494 0)
(2.944297557 0.001228293474 0)
(2.944403459 0.001042599908 0)
(2.944609521 0.0005163086838 0)
(2.944880088 1.98551455e-06 0)
(2.945029024 -0.0005565507783 0)
(2.944893412 -0.0007360771712 0)
(2.944755671 -0.0008566909062 0)
(2.944981561 -0.0005592588413 0)
(2.945051059 -0.0003254170132 0)
(2.945014631 -0.000541696 0)
(2.944906033 -0.0007280859013 0)
(2.944658346 -0.0006701385763 0)
(2.944484336 -0.0004722230623 0)
(2.944357072 -0.0003592675368 0)
(2.944230957 -0.0003341419801 0)
(2.944179401 -0.0003379925056 0)
(2.944247464 -7.870898175e-05 0)
(2.944280544 0.0002353635179 0)
(2.944312456 0.0001435717737 0)
(2.944630157 -8.684790177e-05 0)
(2.944986225 -0.000269796756 0)
(2.945349887 -0.000513123849 0)
(2.945326525 -0.0006453701442 0)
(2.945115388 -0.0003702891214 0)
(2.944830943 4.017950695e-06 0)
(2.941024904 0.0007410687169 0)
(2.941016707 0.0004836504779 0)
(2.941099961 7.688735093e-05 0)
(2.940710482 -0.0001501086251 0)
(2.940614489 -0.0002512329867 0)
(2.940623132 -0.0001804142114 0)
(2.940687503 5.325661166e-05 0)
(2.940868722 0.0003714906345 0)
(2.940913965 0.0006004216164 0)
(2.940692483 0.0008728601731 0)
(2.940497807 0.00129932806 0)
(2.940799364 0.001597409177 0)
(2.941206551 0.001609035604 0)
(2.94177527 0.001123385889 0)
(2.941930268 -5.371570181e-05 0)
(2.941603294 -0.0006924176787 0)
(2.941591101 -0.0006581354879 0)
(2.941461498 -0.0005031477677 0)
(2.94118284 -0.000318838632 0)
(2.94092785 -0.0004617710345 0)
(2.940533398 -0.0005301659582 0)
(2.940262201 -0.0002861496092 0)
(2.940077673 -2.718912618e-05 0)
(2.940025702 -0.000134723171 0)
(2.940092616 -0.0002641960609 0)
(2.940269198 -0.0002679611709 0)
(2.940463744 1.881206552e-05 0)
(2.940490379 0.0004044470344 0)
(2.940808099 0.0004880236215 0)
(2.941139312 0.0002448183301 0)
(2.941433241 1.943050928e-05 0)
(2.941597316 -0.0001184945883 0)
(2.941278523 -0.0002857888996 0)
(2.940842912 -0.0004258249435 0)
(2.937913309 -0.0001998664472 0)
(2.937783049 -0.0003639662628 0)
(2.937243437 -0.0005578190634 0)
(2.937284445 -0.0013194687 0)
(2.93676975 -0.0008978335768 0)
(2.936746291 -0.000720099218 0)
(2.936613282 -0.0005014030112 0)
(2.936898988 -0.000265329667 0)
(2.937110894 -9.42420634e-05 0)
(2.937122151 0.0001605022372 0)
(2.936833476 0.0003831100063 0)
(2.936915505 0.000842141611 0)
(2.937201189 0.001176737227 0)
(2.937595738 0.00121331073 0)
(2.937832338 0.001142960808 0)
(2.938153608 0.000397067667 0)
(2.938057733 -0.0003062492181 0)
(2.93774335 -0.0002512345556 0)
(2.937158978 9.30483074e-05 0)
(2.936676568 0.0001646129405 0)
(2.936369778 -1.874297721e-05 0)
(2.936064255 -0.0001990126656 0)
(2.935766965 -0.0001481306967 0)
(2.935735522 -2.131811685e-05 0)
(2.935948389 -6.919059181e-05 0)
(2.936253738 -0.0002212915223 0)
(2.936534265 -0.0001652229425 0)
(2.93667611 0.0002022925867 0)
(2.936808933 0.0005283726087 0)
(2.937087433 0.0005690648013 0)
(2.937359403 0.0003762266621 0)
(2.937342905 0.0001166975716 0)
(2.937217709 -0.0001132731791 0)
(2.936739769 -0.0003879164351 0)
(2.933227865 -0.0009499321577 0)
(2.933654955 -0.0009115376362 0)
(2.933888738 -0.00109068561 0)
(2.933867354 -0.001263749774 0)
(2.933489424 -0.00144547827 0)
(2.93306659 -0.001576378784 0)
(2.932952637 -0.001836749675 0)
(2.932847184 -0.001596984712 0)
(2.93321912 -0.001433499837 0)
(2.933330627 -0.001067369244 0)
(2.933332781 -0.0007698419218 0)
(2.933236222 -0.0005174329754 0)
(2.933391621 -0.000101053819 0)
(2.9334972 0.0005676605008 0)
(2.933664911 0.001219871088 0)
(2.933912032 0.001331069862 0)
(2.934127824 0.0009754038963 0)
(2.933990127 0.0004044472892 0)
(2.933666368 0.0001295037952 0)
(2.933066637 0.0003080378165 0)
(2.932447787 0.0004779556858 0)
(2.932096534 0.0004589231772 0)
(2.931779908 0.00027751777 0)
(2.931638688 0.0002581151738 0)
(2.931628014 0.0002963359081 0)
(2.931823204 0.000220106628 0)
(2.932317975 -7.060725677e-05 0)
(2.932700398 -0.000264060431 0)
(2.932864703 -2.207281069e-05 0)
(2.932984335 0.0003425194511 0)
(2.933214782 0.0004035533938 0)
(2.933371837 0.0004410580925 0)
(2.933332508 0.0003911181107 0)
(2.933195894 0.0002933729915 0)
(2.932650072 1.876013427e-05 0)
(2.929610274 -0.001847749775 0)
(2.930095989 -0.0016535892 0)
(2.930224073 -0.001366889016 0)
(2.930206207 -0.0009812158739 0)
(2.929836798 -0.0008874209904 0)
(2.929442436 -0.001387162293 0)
(2.929198733 -0.001680145128 0)
(2.929018541 -0.001585207772 0)
(2.929237176 -0.001424927519 0)
(2.929369327 -0.001551205405 0)
(2.929384212 -0.001439742901 0)
(2.929497205 -0.001298136346 0)
(2.929685095 -0.0006934157149 0)
(2.929893979 -0.000105344085 0)
(2.929993787 0.0004928516505 0)
(2.930281816 0.001041300017 0)
(2.930211757 0.001199188201 0)
(2.930053949 0.000951545434 0)
(2.929772337 0.0005374491956 0)
(2.92923011 0.0004180924205 0)
(2.928574424 0.0005815429216 0)
(2.928175276 0.0006181382214 0)
(2.927910974 0.0004852952658 0)
(2.927892055 0.0002744750243 0)
(2.927947782 0.0003428554635 0)
(2.928134525 0.0003961911617 0)
(2.928607249 0.0002259720579 0)
(2.929080208 -0.0001873603138 0)
(2.92931113 -0.0003393331444 0)
(2.929455465 -0.0001540518147 0)
(2.929602403 7.847005933e-05 0)
(2.929728502 0.0001460654822 0)
(2.929752941 8.256602536e-05 0)
(2.929506143 0.0001823371267 0)
(2.928916588 0.0002157545482 0)
(2.92624785 -0.001396450742 0)
(2.926498576 -0.001250047141 0)
(2.926495884 -0.0007484194233 0)
(2.926256114 -8.646735304e-05 0)
(2.925976452 0.0002537122123 0)
(2.925938835 -6.565029601e-05 0)
(2.925644008 -0.0005900466715 0)
(2.925401937 -0.001030911252 0)
(2.925635421 -0.001106278486 0)
(2.925843536 -0.001202234698 0)
(2.925894174 -0.001389798067 0)
(2.92591957 -0.001200702161 0)
(2.925833213 -0.001091257878 0)
(2.926046963 -0.0007358871841 0)
(2.926531019 -0.000305136756 0)
(2.926578935 0.0002543668485 0)
(2.926627529 0.000711168572 0)
(2.92646364 0.0006673107845 0)
(2.926233225 0.0004462672902 0)
(2.925741251 0.0003391910146 0)
(2.92519598 0.0004234865853 0)
(2.924830973 0.0006050669069 0)
(2.924656836 0.0005573815163 0)
(2.924637582 0.0003888649656 0)
(2.92476297 0.0002403587771 0)
(2.924986567 0.0002666926754 0)
(2.925288161 0.0002872563051 0)
(2.925691579 -4.528905215e-05 0)
(2.925995986 -0.0004108466586 0)
(2.92613258 -0.0004258820826 0)
(2.926277088 -0.0002548537899 0)
(2.926423238 -0.0001083858898 0)
(2.92643735 -6.688739782e-05 0)
(2.926213809 0.00010956075 0)
(2.925734458 0.0002532609526 0)
(2.922939597 8.88511363e-05 0)
(2.922763045 3.773358006e-05 0)
(2.922610212 0.0003319687915 0)
(2.922432389 0.000870179567 0)
(2.922215721 0.001323846065 0)
(2.922303878 0.001245460954 0)
(2.922103511 0.0009509424496 0)
(2.922024977 0.0001339868906 0)
(2.922275069 -0.0002210097753 0)
(2.922541259 -0.0002536751629 0)
(2.922655517 -0.0005195396493 0)
(2.922750904 -0.0008913666253 0)
(2.922524499 -0.001333792347 0)
(2.922504006 -0.001567302619 0)
(2.922733006 -0.0008890872543 0)
(2.922897707 -0.0003681299545 0)
(2.923093859 4.21514819e-05 0)
(2.923140016 0.0001558995817 0)
(2.922963324 6.181901155e-05 0)
(2.922587748 2.03641951e-06 0)
(2.922135219 0.0001217678041 0)
(2.921807087 0.0003455152982 0)
(2.92180109 0.0003539125349 0)
(2.921848395 0.0001804430676 0)
(2.92194858 -4.273010725e-05 0)
(2.922108221 -4.210869224e-06 0)
(2.922359225 0.0001422428105 0)
(2.922620305 0.0001065069252 0)
(2.922935731 -0.0002725595394 0)
(2.923087021 -0.0004581990457 0)
(2.923223591 -0.0003725076039 0)
(2.923376796 -0.0002794291004 0)
(2.923427281 -0.0002620180621 0)
(2.923319966 -0.000206613427 0)
(2.922983334 9.164513976e-06 0)
(2.919184149 0.001285577209 0)
(2.919110782 0.00136537342 0)
(2.918799863 0.001316308394 0)
(2.918685434 0.001564714428 0)
(2.918720926 0.001305294358 0)
(2.918726914 0.001255641795 0)
(2.918496667 0.001158338034 0)
(2.918623783 0.0007820947974 0)
(2.918845611 0.0006375216857 0)
(2.918944352 0.0005829627631 0)
(2.919058362 0.0004280212941 0)
(2.919175665 6.332748339e-05 0)
(2.91936854 -0.000427920232 0)
(2.919337414 -0.0009496399352 0)
(2.919221428 -0.001402483431 0)
(2.919556729 -0.001067583433 0)
(2.919762718 -0.0005474055253 0)
(2.91994799 -0.0003706558881 0)
(2.91988059 -0.0003617231778 0)
(2.919664281 -0.0003066345273 0)
(2.919411074 -0.0001085341831 0)
(2.919244517 0.0001333697633 0)
(2.91925379 0.0002043156358 0)
(2.919258454 0.0001359217632 0)
(2.919340535 -8.067667979e-05 0)
(2.919429118 -0.0002114967526 0)
(2.919598113 -8.589384268e-05 0)
(2.919819232 9.138698656e-05 0)
(2.920096211 -2.305477593e-05 0)
(2.920303686 -0.0003305833237 0)
(2.920415169 -0.00039437952 0)
(2.920534337 -0.0002995898545 0)
(2.9206062 -0.0001970215739 0)
(2.92061196 -0.0002453522957 0)
(2.920476609 -0.000183300111 0)
(2.915161455 0.001954252273 0)
(2.915238985 0.001706363386 0)
(2.915044132 0.001569822414 0)
(2.915253015 0.001568654716 0)
(2.915731448 0.001467562234 0)
(2.915621199 0.00149799883 0)
(2.915407555 0.001410594486 0)
(2.915430038 0.001240561751 0)
(2.915530673 0.001066325094 0)
(2.915506376 0.001094548278 0)
(2.915565169 0.001041334917 0)
(2.915758302 0.000902317131 0)
(2.915954795 0.0006321162672 0)
(2.916240869 8.883544094e-05 0)
(2.916204966 -0.0005969609192 0)
(2.91636415 -0.0008728358066 0)
(2.91660671 -0.0008079446055 0)
(2.916837229 -0.0004979257562 0)
(2.916893485 -0.0004224474796 0)
(2.916904607 -0.0004118363691 0)
(2.916930476 -0.0002984022679 0)
(2.916974215 -0.0001634904288 0)
(2.916902922 7.153076262e-05 0)
(2.916796366 0.000249654807 0)
(2.916755192 0.0002235717196 0)
(2.916821661 -3.879895202e-05 0)
(2.91693019 -0.0001782741934 0)
(2.91712226 3.896734937e-05 0)
(2.917376647 9.871686445e-05 0)
(2.917604005 -0.0002143276025 0)
(2.917727417 -0.0004422781785 0)
(2.917810012 -0.0003559092945 0)
(2.917903119 -0.0001246401692 0)
(2.917997181 -0.0001179430414 0)
(2.918034704 -0.0002575764379 0)
(2.911361934 0.002036681859 0)
(2.911579848 0.001875100384 0)
(2.911769059 0.001448189767 0)
(2.912189546 0.001172948988 0)
(2.912559947 0.0009952367647 0)
(2.912566599 0.001044662151 0)
(2.912755322 0.001146463132 0)
(2.912761867 0.001265262707 0)
(2.912695278 0.001133735017 0)
(2.912613927 0.001038318213 0)
(2.912605291 0.001041432327 0)
(2.912574902 0.001033387003 0)
(2.912591349 0.0009411940319 0)
(2.912703884 0.0007629689259 0)
(2.913026934 0.0003755161616 0)
(2.913348912 -0.0002588109637 0)
(2.91361785 -0.0004250639476 0)
(2.91390448 -0.0002057406851 0)
(2.914045135 -2.264401981e-05 0)
(2.914269016 4.193420208e-05 0)
(2.914537471 -0.000306043485 0)
(2.914660112 -0.0003818492473 0)
(2.914538076 -0.0001247636371 0)
(2.914476854 0.0002051104479 0)
(2.914302134 0.0004288842669 0)
(2.91417564 0.0003418902787 0)
(2.914234069 6.078833929e-05 0)
(2.914466108 -6.620945781e-06 0)
(2.914679188 0.0001280945983 0)
(2.914881071 8.00742124e-05 0)
(2.915016573 -0.00019120532 0)
(2.915070472 -0.0002305073102 0)
(2.915203335 -6.42466785e-05 0)
(2.915386364 2.016793008e-05 0)
(2.915528367 -0.0001342291649 0)
(2.908346238 0.001826100835 0)
(2.908464255 0.001616859171 0)
(2.908734394 0.001021605007 0)
(2.90918047 0.0002781086375 0)
(2.909537145 0.0001291719069 0)
(2.909661071 -7.940257798e-05 0)
(2.909768233 0.0001436511984 0)
(2.909866247 0.0006596439378 0)
(2.910019647 0.0008481554933 0)
(2.910107221 0.0007347313227 0)
(2.910001831 0.000721297251 0)
(2.909835014 0.0007899632059 0)
(2.909702969 0.0009187403508 0)
(2.909606188 0.001097400716 0)
(2.909685696 0.0008659428254 0)
(2.910130068 0.0003481037721 0)
(2.910620057 3.615336183e-05 0)
(2.910893889 7.973030295e-05 0)
(2.911158395 0.0003093215991 0)
(2.911490561 0.0004050092507 0)
(2.911908126 4.340469957e-05 0)
(2.912080834 -0.0004126537011 0)
(2.912080925 -0.0004080580185 0)
(2.912003393 -0.000199581376 0)
(2.91185434 0.0002039675706 0)
(2.911605185 0.0004693689564 0)
(2.911430306 0.0003523784684 0)
(2.911597347 0.0001358589672 0)
(2.911830277 0.0002009020956 0)
(2.912044665 0.0003517273789 0)
(2.912128297 0.0002824793778 0)
(2.912245509 -2.715075995e-05 0)
(2.912401546 -0.0002248989107 0)
(2.912613404 -3.508505459e-05 0)
(2.912834687 2.706427969e-05 0)
(2.905277919 0.0005952556119 0)
(2.905397051 0.0004019578335 0)
(2.905838045 -0.0001343791942 0)
(2.906283953 -0.0003240431471 0)
(2.906585114 -0.0005653247552 0)
(2.90669037 -0.0008113541445 0)
(2.90681054 -0.0005976038703 0)
(2.907072661 -0.0003968095308 0)
(2.907282544 -7.099764464e-05 0)
(2.907301521 7.648342152e-05 0)
(2.907157718 0.0001413277557 0)
(2.907015684 0.0001733034697 0)
(2.906806436 0.000530623919 0)
(2.906752779 0.0009681394592 0)
(2.906759354 0.001006956318 0)
(2.907042579 0.0007323968801 0)
(2.907536321 0.0002625202559 0)
(2.907880432 0.0001414882451 0)
(2.908203366 0.0003303382287 0)
(2.908594066 0.0004843070747 0)
(2.908923139 0.0003303277219 0)
(2.909119957 -0.0002180487562 0)
(2.909151121 -0.0006560429826 0)
(2.909092697 -0.0005422788932 0)
(2.909059042 -0.0003273961681 0)
(2.908887467 7.950117807e-05 0)
(2.908684834 0.0003742656598 0)
(2.908625582 0.000289922564 0)
(2.908799973 0.0003213326543 0)
(2.909022047 0.0005277805442 0)
(2.909029883 0.0005430563205 0)
(2.909118433 0.0002858054709 0)
(2.909318962 -0.0001261952412 0)
(2.90956222 -8.0948056e-05 0)
(2.909804892 6.898550827e-05 0)
(2.90215465 -0.000644007329 0)
(2.902312878 -0.0005764125607 0)
(2.902824799 -0.0009263762726 0)
(2.903186351 -0.0008913191475 0)
(2.903323832 -0.0008991067081 0)
(2.903334878 -0.001042613622 0)
(2.903554195 -0.001046943925 0)
(2.903994519 -0.001024417401 0)
(2.90419116 -0.0006762371272 0)
(2.904076882 -0.0003697052361 0)
(2.903899468 -0.0001438983224 0)
(2.903803845 -0.0001995774128 0)
(2.903721675 -5.510383468e-05 0)
(2.903666396 0.0005110921037 0)
(2.903766698 0.0008830054138 0)
(2.903849478 0.0007576018011 0)
(2.9042742 0.0003199448014 0)
(2.904697247 6.645273743e-05 0)
(2.904991677 0.0001639746048 0)
(2.905442253 0.0002650604698 0)
(2.905632294 0.0003817225455 0)
(2.905772153 8.340127619e-05 0)
(2.905803785 -0.0004626631636 0)
(2.905698902 -0.0007123491299 0)
(2.9057197 -0.0006975094314 0)
(2.905710135 -0.0004279390808 0)
(2.905607484 -1.360706252e-05 0)
(2.905532337 0.000238262814 0)
(2.90564844 0.0003536090957 0)
(2.905862321 0.0003936295111 0)
(2.905989013 0.0004083112633 0)
(2.90594381 0.0004058539441 0)
(2.905981995 0.0003449200481 0)
(2.906215886 0.0001477506948 0)
(2.906456549 -5.180380614e-06 0)
(2.898720034 -0.0012619104 0)
(2.898905992 -0.001213086433 0)
(2.899285595 -0.001260695767 0)
(2.899730132 -0.001158516822 0)
(2.899825767 -0.0009221868149 0)
(2.899932347 -0.000908890189 0)
(2.900107154 -0.001150911323 0)
(2.900356927 -0.00120821374 0)
(2.900512413 -0.0009013790634 0)
(2.900500454 -0.0004784956554 0)
(2.900333078 -0.0002679382212 0)
(2.90026404 -0.0003741062078 0)
(2.900250252 -0.0004500166857 0)
(2.900306457 -0.0001372067888 0)
(2.900386324 0.0003976967195 0)
(2.900534952 0.0006719812803 0)
(2.900712406 0.0003595952274 0)
(2.901139872 6.15426181e-05 0)
(2.901510046 -4.798481998e-05 0)
(2.901944818 -1.139535004e-06 0)
(2.902123795 0.000229614975 0)
(2.902160371 0.0002812620217 0)
(2.902140402 8.130135464e-05 0)
(2.902052783 -0.0003708036734 0)
(2.90195141 -0.0007054505786 0)
(2.902025111 -0.000672714856 0)
(2.902099178 -0.0004224173976 0)
(2.902102142 -9.682715704e-05 0)
(2.902191966 -2.798349738e-05 0)
(2.902399544 -8.081100056e-05 0)
(2.902519738 5.021343655e-05 0)
(2.902550087 0.0004191659289 0)
(2.902456427 0.0006393294606 0)
(2.902544562 0.0004099452474 0)
(2.902748326 -3.49822451e-05 0)
(2.895003751 -0.001292437078 0)
(2.895316361 -0.001269095763 0)
(2.895606284 -0.001214662476 0)
(2.895981298 -0.0009285004429 0)
(2.896149958 -0.0004628523093 0)
(2.896296358 -0.0003511730845 0)
(2.896448444 -0.0005417039657 0)
(2.896608472 -0.0009364320471 0)
(2.896627395 -0.0008677098144 0)
(2.896673155 -0.0005291563693 0)
(2.896632182 -0.0002800329994 0)
(2.896549869 -0.0003703409672 0)
(2.896529847 -0.0005742658039 0)
(2.896597544 -0.0006051948832 0)
(2.896752334 -0.0003620537531 0)
(2.896896902 0.0001487507529 0)
(2.897101287 0.0004020579185 0)
(2.897336337 0.0001604878266 0)
(2.89779674 -0.0001646638553 0)
(2.898134791 -0.0001444399894 0)
(2.898416386 6.42997658e-05 0)
(2.898414465 0.0003502595578 0)
(2.898266228 0.0004685192924 0)
(2.898170811 0.0002674405091 0)
(2.898115066 -0.0002077680824 0)
(2.898057228 -0.0006103935378 0)
(2.898193021 -0.0005912299077 0)
(2.898342845 -0.0004095297357 0)
(2.898448924 -0.0004213778636 0)
(2.898535827 -0.0005229000707 0)
(2.898635179 -0.0003400172895 0)
(2.898749111 7.176511612e-05 0)
(2.898845162 0.0004822884016 0)
(2.898936258 0.0003828412279 0)
(2.89891246 0.0001619659585 0)
(2.891357153 -0.0007271342517 0)
(2.891628726 -0.0006200808588 0)
(2.891876802 -0.0005199438283 0)
(2.892138467 -0.000409042713 0)
(2.892277305 4.826266893e-06 0)
(2.892344937 0.0001240358565 0)
(2.892444074 4.08039873e-05 0)
(2.892634094 -0.0002515030916 0)
(2.892708725 -0.000487849561 0)
(2.892804317 -0.0004410423164 0)
(2.892783385 -0.0001794907602 0)
(2.892663237 -0.0001633993478 0)
(2.892671926 -0.0004283060381 0)
(2.892720922 -0.000714068718 0)
(2.892885449 -0.0008047942765 0)
(2.893075487 -0.0005149169987 0)
(2.893330445 7.011286162e-05 0)
(2.893595556 0.0002130031429 0)
(2.893837234 -3.55619261e-06 0)
(2.89410366 -0.0001006172288 0)
(2.894361473 8.624122267e-07 0)
(2.894513628 0.0004309660317 0)
(2.894417754 0.0007055485443 0)
(2.894215867 0.0006704124749 0)
(2.894155917 0.0004137931658 0)
(2.89418488 -0.0001086194761 0)
(2.894219266 -0.0005081936004 0)
(2.894362942 -0.0005711753118 0)
(2.894446672 -0.0006472366067 0)
(2.894478101 -0.0005931996758 0)
(2.894596299 -0.0005008980937 0)
(2.894868506 -0.0003662236912 0)
(2.895107213 -0.0001685612964 0)
(2.895185441 0.0001474439808 0)
(2.895053793 0.0003343735688 0)
(2.887739024 -0.0001355632412 0)
(2.887897783 -3.482451889e-05 0)
(2.888041105 0.000168544613 0)
(2.888215777 1.202295112e-05 0)
(2.888264927 0.0002026696583 0)
(2.88834806 0.0003422860637 0)
(2.888507837 0.0002165224028 0)
(2.888579893 0.0003522308013 0)
(2.888876297 7.260014178e-05 0)
(2.8889207 -0.0002845941536 0)
(2.888970347 -0.0002523214938 0)
(2.888905204 -0.0001026876555 0)
(2.888830886 -0.0002621512023 0)
(2.888839481 -0.0005086824922 0)
(2.888978012 -0.0008334457917 0)
(2.889255427 -0.0007852059055 0)
(2.889549476 -0.0004556539719 0)
(2.889886345 4.682692196e-05 0)
(2.890016077 0.0001290505782 0)
(2.890196072 4.684241633e-05 0)
(2.890354896 2.794886373e-05 0)
(2.890537293 0.0003298394812 0)
(2.890578895 0.0007503985688 0)
(2.890507793 0.0008987320816 0)
(2.890297066 0.0007599473177 0)
(2.890295054 0.0004125818767 0)
(2.890467526 -0.0001016405016 0)
(2.890570675 -0.0004900354924 0)
(2.890610968 -0.0005037474132 0)
(2.890601525 -0.0004122785423 0)
(2.890734707 -0.0004637955194 0)
(2.890969926 -0.0006223638745 0)
(2.891245119 -0.0006336229914 0)
(2.891361575 -0.0001950560524 0)
(2.891295595 0.0003052155994 0)
(2.884197578 0.0001154900519 0)
(2.884414293 0.000255013115 0)
(2.884539238 0.00036376569 0)
(2.88453716 0.0005532007025 0)
(2.88460691 0.0002869902257 0)
(2.884644109 0.0002714245245 0)
(2.884741573 0.000441625886 0)
(2.884896649 0.0005373881788 0)
(2.884946794 0.0007259065145 0)
(2.885149331 0.0005037422558 0)
(2.885199829 -0.0001412410205 0)
(2.885306292 -0.0005188814179 0)
(2.88537303 -0.0003075851352 0)
(2.885372795 -0.0002239288069 0)
(2.885256193 -0.0003747102283 0)
(2.885343397 -0.000618469223 0)
(2.885534607 -0.0008268380257 0)
(2.885940426 -0.0007608643596 0)
(2.886245029 -0.0003616068952 0)
(2.886448511 4.18380624e-05 0)
(2.886590834 0.0001377799228 0)
(2.886698276 3.38795046e-05 0)
(2.886809394 -3.733195003e-05 0)
(2.886874149 0.0002505200395 0)
(2.886918782 0.0006890162109 0)
(2.886899741 0.0008081522358 0)
(2.886782727 0.0005974163915 0)
(2.886879893 0.0002567678239 0)
(2.887072413 -9.974673539e-05 0)
(2.887141488 -0.0001333186864 0)
(2.887239807 -6.53739889e-05 0)
(2.88733396 -0.0001921938101 0)
(2.887413292 -0.0004661715178 0)
(2.887570226 -0.0005396505638 0)
(2.887750042 -0.0002760158054 0)
(2.887885192 -6.727879459e-06 0)
(2.881334059 0.0004459484077 0)
(2.881639925 0.0005871035951 0)
(2.881722542 0.0007184172403 0)
(2.881681007 0.0009441622324 0)
(2.881706395 0.0005798997714 0)
(2.881704841 0.0003758595669 0)
(2.881636869 0.0004083379521 0)
(2.881726433 0.0007691548136 0)
(2.88195444 0.0009831073581 0)
(2.881864191 0.0007229098564 0)
(2.881936074 0.0001123587441 0)
(2.881888229 -0.0005682874477 0)
(2.882070118 -0.0005499833537 0)
(2.882205627 -0.0003755378674 0)
(2.882264894 -0.0001843461433 0)
(2.882255734 -0.0003453076168 0)
(2.882428371 -0.000470153623 0)
(2.882610448 -0.0007356889879 0)
(2.882915638 -0.0006232383849 0)
(2.883170647 -0.0002903881761 0)
(2.883354651 -7.100125184e-05 0)
(2.88344104 -0.0001264135398 0)
(2.88354469 -0.0002974270621 0)
(2.883648906 -0.0002818170547 0)
(2.883721619 3.132203758e-06 0)
(2.883865592 0.000501407605 0)
(2.883943243 0.0006949105338 0)
(2.883946324 0.000430795133 0)
(2.884054355 0.000212960777 0)
(2.884197919 0.0002333058066 0)
(2.884316312 0.0001987041536 0)
(2.884426619 4.551075206e-05 0)
(2.884528424 -7.193910206e-05 0)
(2.884622408 -8.824308909e-05 0)
(2.884721555 -0.0001800445332 0)
(2.884892742 -0.00030434289 0)
(2.879047405 0.0005406926025 0)
(2.879312093 0.0003432989965 0)
(2.87934115 0.000385421561 0)
(2.879325055 0.000739141794 0)
(2.879337657 0.0004634536655 0)
(2.879184443 0.0001767350901 0)
(2.878984298 -1.310208414e-05 0)
(2.879251791 0.0004417355661 0)
(2.879551573 0.00083048939 0)
(2.879603673 0.0007661289779 0)
(2.879442409 0.000363654678 0)
(2.879336999 -0.0001480724575 0)
(2.879345779 -0.0006051521402 0)
(2.879523468 -0.000601591783 0)
(2.879812979 -0.0001722060835 0)
(2.879969675 -3.225993104e-05 0)
(2.880013793 -0.0001320693321 0)
(2.880053398 -0.0003661500787 0)
(2.880146437 -0.0005842557847 0)
(2.880398233 -0.0004761222181 0)
(2.880643072 -0.0002785029799 0)
(2.880802984 -0.000296242641 0)
(2.880883283 -0.0003836898458 0)
(2.881002482 -0.0004297228884 0)
(2.881159855 -0.000442843605 0)
(2.881279249 -0.0001750931438 0)
(2.881534277 0.0003904680762 0)
(2.881739375 0.0005608754348 0)
(2.881916743 0.0004605191952 0)
(2.882121896 0.0003533950495 0)
(2.882269134 0.0003203858395 0)
(2.882406383 0.0002937340093 0)
(2.882534145 0.000304613352 0)
(2.882599141 0.0002458284942 0)
(2.882640689 1.271017653e-05 0)
(2.882607868 -0.0003412744439 0)
(2.877242773 7.049661887e-05 0)
(2.877445293 -0.0006378794238 0)
(2.877490332 -0.0007073710955 0)
(2.877491851 -0.0004144770346 0)
(2.877478927 -0.0005269284252 0)
(2.877319508 -0.0004779414683 0)
(2.87723087 -0.0004949732812 0)
(2.877617795 -0.0001108139054 0)