/*--------------------------------*- C++ -*----------------------------------*\
  =========                 |
  \\      /  F ield         | OpenFOAM: The Open Source CFD Toolbox
   \\    /   O peration     | Website:  https://openfoam.org
    \\  /    A nd           | Version:  7
     \\/     M anipulation  |
\*---------------------------------------------------------------------------*/
FoamFile
{
    version     2.0;
    format      ascii;
    class       volVectorField;
    location    "4.4";
    object      U;
}
// * * * * * * * * * * * * * * * * * * * * * * * * * * * * * * * * * * * * * //

dimensions      [0 1 -1 0 0 0 0];

internalField   nonuniform List<vector> 
2222
(
(3 4.352378282e-16 0)
(3 -1.544212871e-15 0)
(3 -4.739251058e-15 0)
(3 -5.668261391e-15 0)
(3 -7.463699019e-15 0)
(3 -6.5996627e-15 0)
(3 -8.333043528e-15 0)
(3 -9.129633627e-15 0)
(3 -8.950611402e-15 0)
(3 -7.684068262e-15 0)
(3 -4.845445819e-15 0)
(3 -3.18725696e-15 0)
(3 -9.342972188e-16 0)
(3 -1.304097112e-16 0)
(3 8.896609222e-16 0)
(3 2.257684936e-15 0)
(3 2.879635069e-15 0)
(3 5.306700286e-15 0)
(3 5.580522038e-15 0)
(3 5.902966783e-15 0)
(3 4.082326673e-15 0)
(3 1.642646078e-15 0)
(3 -1.350244449e-15 0)
(3 -2.267310793e-15 0)
(3 -1.924468136e-15 0)
(3 -7.19995051e-16 0)
(3 1.62089062e-15 0)
(3 1.750614523e-15 0)
(3 2.064960945e-15 0)
(3 -1.125496558e-15 0)
(3 -4.370781044e-15 0)
(3 -4.104207863e-15 0)
(3 -2.655301961e-15 0)
(3 -1.168121081e-15 0)
(3 -1.964215345e-15 0)
(3 -1.991989345e-15 0)
(3 -3.192325919e-15 0)
(3 -4.500694857e-15 0)
(3 -1.958508179e-15 0)
(3 -2.234089219e-15 0)
(3 -3.371461265e-15 0)
(3 -2.978956817e-15 0)
(3 -1.271054935e-15 0)
(3 -2.559319457e-15 0)
(3 -3.947512415e-15 0)
(3 -4.97394849e-15 0)
(3 -6.740103908e-15 0)
(3 -7.818454279e-15 0)
(3 -6.324620924e-15 0)
(3 -5.392837358e-15 0)
(3 -3.527388839e-15 0)
(3 -2.441000447e-15 0)
(3 -1.13112949e-15 0)
(3 5.815778319e-16 0)
(3 2.633824873e-15 0)
(3 5.860751624e-16 0)
(3 -1.709615563e-15 0)
(3 -4.628339106e-15 0)
(3 -4.333688028e-15 0)
(3 -2.89115019e-15 0)
(3 -2.383773062e-15 0)
(3 -1.916227356e-15 0)
(3 9.740328725e-16 0)
(3 -1.762116931e-15 0)
(3 -8.151602593e-15 0)
(3 -1.155544112e-14 0)
(3 -7.751055906e-16 0)
(3 -2.933887085e-15 0)
(3 -3.986032668e-15 0)
(3 -5.388911745e-15 0)
(3 -8.125414407e-15 0)
(3 -8.09640941e-15 0)
(3 -7.833903024e-15 0)
(3 -6.994960187e-15 0)
(3 -5.19656429e-15 0)
(3 -5.414278143e-15 0)
(3 -6.191998334e-15 0)
(3 -5.725678912e-15 0)
(3 -5.751426416e-15 0)
(3 -4.61484844e-15 0)
(3 -2.599500253e-15 0)
(3 -2.244066126e-16 0)
(3 2.39354845e-15 0)
(3 5.038003803e-15 0)
(3 6.553362697e-15 0)
(3 5.311085489e-15 0)
(3 1.644602584e-15 0)
(3 -5.950401315e-15 0)
(3 -8.361357666e-15 0)
(3 -9.316997184e-15 0)
(3 -6.909406563e-15 0)
(3 -5.033684709e-15 0)
(3 -1.913429731e-15 0)
(3 1.178410646e-15 0)
(3 2.253648751e-15 0)
(3 1.325864587e-15 0)
(3 -3.549284327e-15 0)
(3 -3.394900775e-15 0)
(3 -3.390551369e-15 0)
(3 -3.75220388e-15 0)
(3 -6.871428641e-15 0)
(3 -8.676851622e-15 0)
(3 -8.553741074e-15 0)
(3 -8.413970228e-15 0)
(3 -6.366864871e-15 0)
(3 -6.44500561e-15 0)
(3 -9.475287865e-15 0)
(3 -1.18027305e-14 0)
(3 -1.24891656e-14 0)
(3 -1.354704195e-14 0)
(3 -1.492555135e-14 0)
(3 -1.789265778e-14 0)
(3 -1.877642937e-14 0)
(3 -1.676586065e-14 0)
(3 -1.287081046e-14 0)
(3 -1.077735534e-14 0)
(3 -1.054518826e-14 0)
(3 -9.323832954e-15 0)
(3 -6.682891642e-15 0)
(3 -2.218343583e-15 0)
(3 -2.252943935e-16 0)
(3 -3.872226192e-15 0)
(3 -9.059028589e-15 0)
(3 -8.278884886e-15 0)
(3 -5.546876353e-15 0)
(3 -2.173859128e-15 0)
(3 -1.105174968e-15 0)
(3 -5.103579973e-16 0)
(3 -4.617459766e-17 0)
(3 -1.155323582e-15 0)
(3 -8.782209796e-15 0)
(3 -1.533130629e-14 0)
(3 4.646952048e-16 0)
(3 6.891224775e-16 0)
(3 6.348531154e-16 0)
(3 4.123030981e-16 0)
(3 -1.667497937e-15 0)
(3 -2.713306506e-15 0)
(3 -1.124532721e-15 0)
(3 -9.828055677e-16 0)
(3 -1.144035498e-15 0)
(3 -2.136091134e-16 0)
(3 -1.700581153e-15 0)
(3 -1.196973798e-15 0)
(3 -3.904438826e-15 0)
(3 -6.97248777e-15 0)
(3 -5.772302899e-15 0)
(3 -5.355485484e-15 0)
(3 -4.064661144e-15 0)
(3 -2.652652612e-15 0)
(3 2.419313588e-15 0)
(3 3.010510169e-15 0)
(3 2.439019586e-15 0)
(3 2.112877931e-15 0)
(3 6.357259012e-15 0)
(3 6.966716945e-15 0)
(3 8.592407041e-15 0)
(3 8.27893987e-15 0)
(3 8.837195873e-15 0)
(3 8.718053338e-15 0)
(3 6.495601422e-15 0)
(3 4.216829743e-15 0)
(3 -4.823763094e-16 0)
(3 -3.80088458e-16 0)
(3 -2.130341685e-15 0)
(3 -5.856567635e-15 0)
(3 -5.883250595e-15 0)
(3 -5.73105896e-15 0)
(3 -6.132232102e-15 0)
(3 -6.867789288e-15 0)
(3 -7.929420894e-15 0)
(3 -8.522042711e-15 0)
(3 -9.6805409e-15 0)
(3 -1.356815009e-14 0)
(3 -1.983360803e-14 0)
(3 -2.282780976e-14 0)
(3 -2.327128769e-14 0)
(3 -2.213387777e-14 0)
(3 -2.134745602e-14 0)
(3 -1.891533842e-14 0)
(3 -1.996281917e-14 0)
(3 -1.87059556e-14 0)
(3 -1.95735237e-14 0)
(3 -1.739514078e-14 0)
(3 -1.344411274e-14 0)
(3 -1.176524519e-14 0)
(3 -9.276724596e-15 0)
(3 -3.382010981e-15 0)
(3 -3.247328993e-16 0)
(3 1.647844951e-15 0)
(3 1.478308807e-15 0)
(3 -8.552782479e-16 0)
(3 -3.173018646e-15 0)
(3 -5.9303557e-15 0)
(3 -7.783138963e-15 0)
(3 -9.624547171e-15 0)
(3 -1.664847784e-14 0)
(3 -2.168924116e-14 0)
(3 1.405609492e-15 0)
(3 3.277593545e-15 0)
(3 2.621930359e-15 0)
(3 1.298003322e-15 0)
(3 2.132338292e-15 0)
(3 2.949565392e-16 0)
(3 2.071716566e-16 0)
(3 -8.774411857e-16 0)
(3 -1.056870788e-15 0)
(3 8.929892238e-16 0)
(3 3.801953221e-15 0)
(3 3.430719731e-15 0)
(3 2.290540678e-15 0)
(3 -8.362390005e-16 0)
(3 -2.804759593e-15 0)
(3 -4.142033671e-15 0)
(3 -6.338393584e-15 0)
(3 -5.771562232e-15 0)
(3 -4.919186664e-15 0)
(3 -1.608413906e-15 0)
(3 1.653101632e-15 0)
(3 3.928904641e-15 0)
(3 5.335896614e-15 0)
(3 5.976297687e-15 0)
(3 3.973941953e-15 0)
(3 1.220116132e-15 0)
(3 -2.872518828e-15 0)
(3 -4.264613303e-15 0)
(3 -4.803214453e-15 0)
(3 -5.753371497e-15 0)
(3 -1.602513088e-15 0)
(3 -9.733471786e-16 0)
(3 1.468970609e-15 0)
(3 2.172430018e-15 0)
(3 1.94862281e-15 0)
(3 2.650308854e-15 0)
(3 1.473855061e-15 0)
(3 2.064563608e-15 0)
(3 2.392169097e-15 0)
(3 5.588922387e-15 0)
(3 6.691823724e-15 0)
(3 5.691362187e-15 0)
(3 1.722210188e-15 0)
(3 -3.809167806e-15 0)
(3 -1.092082256e-14 0)
(3 -1.333687218e-14 0)
(3 -1.644877246e-14 0)
(3 -2.031343134e-14 0)
(3 -2.396007555e-14 0)
(3 -2.53029574e-14 0)
(3 -2.463697441e-14 0)
(3 -2.180749902e-14 0)
(3 -1.929886267e-14 0)
(3 -1.83874581e-14 0)
(3 -1.552526729e-14 0)
(3 -1.145151826e-14 0)
(3 -2.255627802e-15 0)
(3 -2.419552886e-17 0)
(3 -1.895243586e-15 0)
(3 -4.838658627e-15 0)
(3 -7.506512483e-15 0)
(3 -1.037436455e-14 0)
(3 -1.445061395e-14 0)
(3 -1.87556972e-14 0)
(3 -1.772879624e-14 0)
(3 -1.660845106e-14 0)
(3 -1.324967153e-15 0)
(3 -2.530200274e-16 0)
(3 4.749330043e-16 0)
(3 6.10399307e-16 0)
(3 1.124091907e-15 0)
(3 3.075287981e-15 0)
(3 3.24086125e-15 0)
(3 2.655265398e-15 0)
(3 2.416184444e-15 0)
(3 -2.105581387e-16 0)
(3 7.68622109e-16 0)
(3 2.035244101e-15 0)
(3 3.420124492e-15 0)
(3 4.100647294e-15 0)
(3 1.507592534e-15 0)
(3 1.604985381e-15 0)
(3 -7.386131045e-16 0)
(3 -3.335364048e-15 0)
(3 -5.398500101e-15 0)
(3 -4.994603546e-15 0)
(3 -5.488018262e-15 0)
(3 -4.132608191e-15 0)
(3 -5.025687285e-15 0)
(3 -5.708086513e-15 0)
(3 -7.330528112e-15 0)
(3 -1.028468213e-14 0)
(3 -1.406733879e-14 0)
(3 -1.548405777e-14 0)
(3 -1.334473192e-14 0)
(3 -1.051762899e-14 0)
(3 -7.016377333e-15 0)
(3 -3.299286979e-15 0)
(3 -1.190322846e-15 0)
(3 1.28965125e-15 0)
(3 5.055473572e-15 0)
(3 7.097672349e-15 0)
(3 1.064090848e-14 0)
(3 1.179025783e-14 0)
(3 1.56831353e-14 0)
(3 1.871152957e-14 0)
(3 1.925815501e-14 0)
(3 1.702636529e-14 0)
(3 1.427001963e-14 0)
(3 8.949992533e-15 0)
(3 4.161394697e-15 0)
(3 -2.290910648e-15 0)
(3 -8.529128091e-15 0)
(3 -1.263197361e-14 0)
(3 -1.465242738e-14 0)
(3 -1.666454919e-14 0)
(3 -1.697589228e-14 0)
(3 -1.761180516e-14 0)
(3 -1.745814704e-14 0)
(3 -1.538251731e-14 0)
(3 -1.522435869e-14 0)
(3 -1.434583662e-14 0)
(3 -1.067368815e-14 0)
(3 -4.481492304e-15 0)
(3 -4.452304663e-15 0)
(3 -8.718464902e-15 0)
(3 -1.139382289e-14 0)
(3 -1.177059302e-14 0)
(3 -1.417139609e-14 0)
(3 -1.671594323e-14 0)
(3 -1.147137672e-14 0)
(3 -2.706034567e-15 0)
(3 -7.646456887e-17 0)
(3 -1.404827707e-15 0)
(3 -1.047305301e-15 0)
(3 -2.633473144e-16 0)
(3 -1.987991349e-15 0)
(3 -3.361014078e-16 0)
(3 5.222835291e-16 0)
(3 -5.276314328e-16 0)
(3 -1.320504956e-15 0)
(3 -2.034280754e-15 0)
(3 -8.759175693e-16 0)
(3 4.531489455e-15 0)
(3 6.561132246e-15 0)
(3 3.799972976e-15 0)
(3 4.69414287e-15 0)
(3 3.064384125e-15 0)
(3 -2.255157602e-16 0)
(3 -2.899464649e-15 0)
(3 -7.40119952e-15 0)
(3 -1.268778442e-14 0)
(3 -1.254687344e-14 0)
(3 -1.342886891e-14 0)
(3 -1.498262961e-14 0)
(3 -1.509550542e-14 0)
(3 -1.180499504e-14 0)
(3 -7.811167438e-15 0)
(3 -5.947853744e-15 0)
(3 -8.289896971e-15 0)
(3 -9.042284545e-15 0)
(3 -7.467424591e-15 0)
(3 -6.656731501e-15 0)
(3 -2.634424027e-15 0)
(3 1.762398341e-15 0)
(3 2.911750982e-15 0)
(3 8.482428456e-15 0)
(3 1.010942494e-14 0)
(3 1.229285833e-14 0)
(3 1.169177916e-14 0)
(3 9.206829355e-15 0)
(3 7.994009791e-15 0)
(3 1.031955141e-14 0)
(3 8.812228171e-15 0)
(3 6.236677289e-15 0)
(3 3.836623249e-15 0)
(3 1.43163411e-15 0)
(3 4.104435596e-18 0)
(3 -5.356309221e-15 0)
(3 -8.252799826e-15 0)
(3 -9.784911859e-15 0)
(3 -1.186281344e-14 0)
(3 -1.200635029e-14 0)
(3 -1.117395262e-14 0)
(3 -1.120927899e-14 0)
(3 -7.509429308e-15 0)
(3 -8.953300708e-15 0)
(3 -9.047415307e-15 0)
(3 -7.64345284e-15 0)
(3 -6.936872444e-15 0)
(3 -9.350377255e-15 0)
(3 -1.634252576e-14 0)
(3 -1.617369229e-14 0)
(3 -1.522479741e-14 0)
(3 -1.023100845e-14 0)
(3 1.223982055e-16 0)
(3 5.045117016e-15 0)
(3 7.074090705e-15 0)
(3 5.542265322e-16 0)
(3 -2.970917582e-16 0)
(3 5.912369939e-16 0)
(3 1.391416529e-15 0)
(3 1.564444457e-15 0)
(3 -4.082272328e-15 0)
(3 -6.247155945e-15 0)
(3 -3.260170556e-15 0)
(3 -2.014160314e-15 0)
(3 3.582761174e-15 0)
(3 6.973608932e-15 0)
(3 9.060718279e-15 0)
(3 8.962450754e-15 0)
(3 7.824606598e-15 0)
(3 1.01590976e-14 0)
(3 8.877490306e-15 0)
(3 8.415739413e-15 0)
(3 7.552510058e-15 0)
(3 4.923426549e-15 0)
(3 1.632396842e-15 0)
(3 9.905740732e-18 0)
(3 -2.582345391e-15 0)
(3 -9.938952416e-15 0)
(3 -1.488691757e-14 0)
(3 -1.381733154e-14 0)
(3 -8.43019009e-15 0)
(3 -2.773324441e-15 0)
(3 -2.910324832e-15 0)
(3 -3.209905099e-15 0)
(3 -1.341684132e-15 0)
(3 4.527024834e-15 0)
(3 5.572310941e-15 0)
(3 7.592383899e-15 0)
(3 9.496848578e-15 0)
(3 6.939552234e-15 0)
(3 5.323815608e-15 0)
(3 4.122928622e-15 0)
(3 4.721570681e-15 0)
(3 -1.510746825e-15 0)
(3 -3.516386056e-15 0)
(3 -4.729609552e-15 0)
(3 -7.553344883e-15 0)
(3 -8.608940209e-15 0)
(3 -7.4565078e-15 0)
(3 -5.854605069e-15 0)
(3 -4.650956616e-15 0)
(3 -5.713513402e-15 0)
(3 -7.405660234e-15 0)
(3 -1.062957748e-14 0)
(3 -1.006807697e-14 0)
(3 -8.135299369e-15 0)
(3 -1.060567067e-15 0)
(3 8.499280169e-17 0)
(3 1.579161394e-16 0)
(3 3.095620221e-15 0)
(3 3.135609324e-15 0)
(3 -2.553016106e-15 0)
(3 -5.678073779e-15 0)
(3 -9.533670326e-15 0)
(3 -1.47199794e-14 0)
(3 -1.418156034e-14 0)
(3 -1.244154971e-14 0)
(3 -6.419694533e-15 0)
(3 -3.035718353e-15 0)
(3 -3.087241834e-15 0)
(3 1.2728959e-15 0)
(3 -6.569304049e-16 0)
(3 1.241754008e-16 0)
(3 1.643283458e-15 0)
(3 1.5169345e-15 0)
(3 2.954440917e-15 0)
(3 2.394797013e-15 0)
(3 1.465434635e-15 0)
(3 1.70709743e-15 0)
(3 3.100585809e-15 0)
(3 7.343908309e-15 0)
(3 7.888110894e-15 0)
(3 1.001792777e-14 0)
(3 1.220871068e-14 0)
(3 1.73603496e-14 0)
(3 1.995558549e-14 0)
(3 2.060829001e-14 0)
(3 1.942385921e-14 0)
(3 1.767285163e-14 0)
(3 1.371033472e-14 0)
(3 9.124853724e-15 0)
(3 8.366166258e-15 0)
(3 6.760520129e-15 0)
(3 1.73991745e-15 0)
(3 -2.431421249e-15 0)
(3 -3.114708261e-15 0)
(3 -2.385405478e-15 0)
(3 -5.073951008e-16 0)
(3 1.962604615e-16 0)
(3 5.237904839e-16 0)
(3 1.491365023e-15 0)
(3 1.311647479e-15 0)
(3 1.996762179e-16 0)
(3 -1.372920049e-15 0)
(3 1.594329783e-17 0)
(3 -2.976746559e-15 0)
(3 -4.847184995e-15 0)
(3 -9.914647779e-15 0)
(3 -1.278416823e-14 0)
(3 -1.609249305e-14 0)
(3 -1.986703554e-14 0)
(3 -2.18494239e-14 0)
(3 -2.098456401e-14 0)
(3 -1.843762357e-14 0)
(3 -1.246270207e-14 0)
(3 -8.489132381e-15 0)
(3 -6.811110809e-15 0)
(3 -6.360016529e-15 0)
(3 -9.252842044e-15 0)
(3 -1.191332454e-14 0)
(3 -1.219215935e-14 0)
(3 -5.365267903e-15 0)
(3 9.327092361e-16 0)
(3 7.582357147e-15 0)
(3 7.50706382e-15 0)
(3 8.433897853e-15 0)
(3 8.198595118e-15 0)
(3 5.507460853e-15 0)
(3 1.836417185e-15 0)
(3 -1.572997359e-15 0)
(3 -4.718176802e-15 0)
(3 -9.177616194e-15 0)
(3 -1.118833323e-14 0)
(3 -1.125330137e-14 0)
(3 -1.482222164e-14 0)
(3 -1.945704756e-14 0)
(3 -1.80739994e-14 0)
(3 4.918306468e-16 0)
(3 1.937414057e-15 0)
(3 1.592157711e-15 0)
(3 9.658113368e-16 0)
(3 8.061587397e-16 0)
(3 1.829706474e-15 0)
(3 1.724078667e-15 0)
(3 1.926045973e-15 0)
(3 3.449698001e-15 0)
(3 4.770154327e-15 0)
(3 6.584721581e-15 0)
(3 1.150277932e-14 0)
(3 1.168464662e-14 0)
(3 1.405368476e-14 0)
(3 1.117241813e-14 0)
(3 1.010617061e-14 0)
(3 8.726793168e-15 0)
(3 5.658903598e-15 0)
(3 3.395245899e-15 0)
(3 4.174860271e-15 0)
(3 4.467888229e-15 0)
(3 4.94398e-15 0)
(3 1.06217198e-14 0)
(3 8.181817975e-15 0)
(3 4.520467081e-15 0)
(3 -4.048807532e-16 0)
(3 2.997771353e-16 0)
(3 1.172489658e-15 0)
(3 5.855220107e-16 0)
(3 -2.073859481e-15 0)
(3 -7.47844068e-15 0)
(3 -8.703049476e-15 0)
(3 -1.136702426e-14 0)
(3 -1.542963469e-14 0)
(3 -1.483626874e-14 0)
(3 -1.836442742e-14 0)
(3 -2.061491428e-14 0)
(3 -2.301846554e-14 0)
(3 -2.657981017e-14 0)
(3 -2.469766408e-14 0)
(3 -2.14973697e-14 0)
(3 -1.358981242e-14 0)
(3 -1.046923304e-14 0)
(3 -5.837664552e-15 0)
(3 -9.898753595e-16 0)
(3 -7.313848536e-17 0)
(3 1.432914874e-15 0)
(3 -3.209454729e-15 0)
(3 -2.155866342e-15 0)
(3 -1.174876677e-15 0)
(3 5.298294868e-15 0)
(3 6.113088426e-15 0)
(3 9.956684618e-15 0)
(3 1.452131318e-14 0)
(3 1.442608674e-14 0)
(3 1.420629724e-14 0)
(3 1.386256647e-14 0)
(3 1.183663205e-14 0)
(3 7.663601644e-15 0)
(3 1.223062199e-15 0)
(3 -5.129161953e-15 0)
(3 -1.20961689e-14 0)
(3 -1.513312605e-14 0)
(3 -1.844224204e-14 0)
(3 -2.513554503e-14 0)
(3 -2.934796544e-14 0)
(3 4.924778126e-17 0)
(3 7.610003381e-16 0)
(3 7.662928186e-16 0)
(3 1.859872121e-15 0)
(3 1.803556076e-15 0)
(3 1.141124274e-15 0)
(3 8.999589897e-16 0)
(3 9.385015803e-16 0)
(3 1.959407739e-15 0)
(3 7.018550678e-16 0)
(3 1.794130899e-15 0)
(3 3.451524544e-15 0)
(3 1.002377368e-16 0)
(3 -2.218923979e-15 0)
(3 -5.996167221e-15 0)
(3 -6.981329197e-15 0)
(3 -6.094330246e-15 0)
(3 -5.575712905e-15 0)
(3 -3.052857697e-15 0)
(3 -1.527172733e-16 0)
(3 -1.925757753e-17 0)
(3 3.635023489e-15 0)
(3 6.809610607e-15 0)
(3 8.557693441e-15 0)
(3 7.342951661e-15 0)
(3 2.263812023e-15 0)
(3 1.311625284e-15 0)
(3 3.394291277e-15 0)
(3 1.62700791e-15 0)
(3 -9.627394284e-16 0)
(3 -3.96269296e-15 0)
(3 -7.57730615e-15 0)
(3 -1.330751264e-14 0)
(3 -1.753567939e-14 0)
(3 -1.839077663e-14 0)
(3 -1.658584254e-14 0)
(3 -1.710993445e-14 0)
(3 -1.86635465e-14 0)
(3 -1.848879342e-14 0)
(3 -1.510441183e-14 0)
(3 -1.022264698e-14 0)
(3 -4.693362844e-15 0)
(3 -3.260539729e-15 0)
(3 -3.467502488e-16 0)
(3 7.934235922e-16 0)
(3 6.713287588e-15 0)
(3 8.998783089e-15 0)
(3 9.167388084e-15 0)
(3 1.47462816e-14 0)
(3 1.835925578e-14 0)
(3 1.41723521e-14 0)
(3 1.108818962e-14 0)
(3 1.024025599e-14 0)
(3 1.037577322e-14 0)
(3 1.093041627e-14 0)
(3 1.008661899e-14 0)
(3 1.115897613e-14 0)
(3 9.164016882e-15 0)
(3 6.674918011e-15 0)
(3 7.245901212e-15 0)
(3 5.308282849e-15 0)
(3 -4.897104914e-16 0)
(3 -6.831878786e-15 0)
(3 -1.141259672e-14 0)
(3 -1.42106963e-14 0)
(3 -1.875532058e-14 0)
(3 -6.389393487e-16 0)
(3 -1.465045622e-15 0)
(3 -1.267161489e-15 0)
(3 -2.137134662e-16 0)
(3 2.494434829e-15 0)
(3 3.936535193e-15 0)
(3 4.042903524e-15 0)
(3 4.092111326e-15 0)
(3 4.201909136e-15 0)
(3 -4.637464006e-16 0)
(3 -2.754138448e-15 0)
(3 -7.677622072e-15 0)
(3 -1.056459683e-14 0)
(3 -1.230074837e-14 0)
(3 -1.358012272e-14 0)
(3 -1.361928214e-14 0)
(3 -1.175827494e-14 0)
(3 -7.930413972e-15 0)
(3 -2.976327728e-15 0)
(3 -5.194157539e-16 0)
(3 4.928753325e-16 0)
(3 2.002552367e-15 0)
(3 6.276520374e-15 0)
(3 1.0028219e-14 0)
(3 1.207560814e-14 0)
(3 1.032365674e-14 0)
(3 6.252822836e-15 0)
(3 1.690164424e-15 0)
(3 4.957224877e-16 0)
(3 3.291848503e-16 0)
(3 -1.143289149e-15 0)
(3 -1.155700609e-15 0)
(3 -3.326688407e-15 0)
(3 -9.601224595e-15 0)
(3 -1.339670701e-14 0)
(3 -1.318870378e-14 0)
(3 -1.083046247e-14 0)
(3 -1.067759704e-14 0)
(3 -5.333927514e-15 0)
(3 -1.47613913e-15 0)
(3 1.527474191e-15 0)
(3 2.136727882e-15 0)
(3 1.454823613e-15 0)
(3 2.351322e-15 0)
(3 4.088587524e-15 0)
(3 7.610852023e-15 0)
(3 1.24300047e-14 0)
(3 2.178476057e-14 0)
(3 2.769669328e-14 0)
(3 2.697719339e-14 0)
(3 1.744152676e-14 0)
(3 1.14533341e-14 0)
(3 1.000532405e-14 0)
(3 1.199573882e-14 0)
(3 1.569809425e-14 0)
(3 1.61135088e-14 0)
(3 1.434669108e-14 0)
(3 1.321881135e-14 0)
(3 1.452869466e-14 0)
(3 1.561343178e-14 0)
(3 1.144491157e-14 0)
(3 7.374673495e-15 0)
(3 9.449741208e-16 0)
(3 -1.361493467e-15 0)
(3 -3.141446945e-15 0)
(3 -6.65500305e-15 0)
(3 -4.2207362e-17 0)
(3 -1.69856027e-15 0)
(3 -2.595655486e-15 0)
(3 -4.126936116e-15 0)
(3 -2.276833676e-15 0)
(3 -1.884514611e-15 0)
(3 -8.135542955e-16 0)
(3 1.655692042e-15 0)
(3 1.711999313e-15 0)
(3 -1.736542263e-17 0)
(3 -4.068112821e-15 0)
(3 -5.924957705e-15 0)
(3 -6.648040554e-15 0)
(3 -7.387305839e-15 0)
(3 -4.317970775e-15 0)
(3 -3.444163532e-15 0)
(3 -2.956737527e-15 0)
(3 -1.697693375e-15 0)
(3 -2.149058704e-17 0)
(3 2.94673436e-15 0)
(3 7.313907854e-15 0)
(3 8.578889477e-15 0)
(3 1.080318223e-14 0)
(3 1.392158528e-14 0)
(3 1.165497629e-14 0)
(3 4.781434695e-15 0)
(3 1.906707361e-15 0)
(3 -6.493225534e-16 0)
(3 -2.306010151e-15 0)
(3 9.961791289e-16 0)
(3 3.476576246e-15 0)
(3 4.906374551e-15 0)
(3 4.92340928e-15 0)
(3 -1.473373565e-15 0)
(3 -7.510579202e-15 0)
(3 -1.037776056e-14 0)
(3 -7.054371083e-15 0)
(3 -3.738184718e-15 0)
(3 -3.214601871e-17 0)
(3 1.761907388e-15 0)
(3 8.879651691e-16 0)
(3 -1.217192549e-15 0)
(3 -1.412432704e-15 0)
(3 3.34235756e-15 0)
(3 8.619147374e-15 0)
(3 1.356513648e-14 0)
(3 1.513711972e-14 0)
(3 1.952815917e-14 0)
(3 2.514335021e-14 0)
(3 2.423483e-14 0)
(3 2.056006046e-14 0)
(3 1.659662739e-14 0)
(3 1.216773712e-14 0)
(3 1.127602457e-14 0)
(3 1.167130429e-14 0)
(3 1.524844384e-14 0)
(3 1.56696114e-14 0)
(3 1.575113986e-14 0)
(3 1.454542481e-14 0)
(3 1.388466397e-14 0)
(3 1.043791837e-14 0)
(3 7.824082059e-15 0)
(3 3.213446433e-15 0)
(3 1.201420878e-15 0)
(3 -3.912612214e-15 0)
(3 -4.776661832e-15 0)
(3 1.935255531e-15 0)
(3 1.682941299e-15 0)
(3 3.025690543e-16 0)
(3 -2.69631989e-15 0)
(3 -7.070950084e-15 0)
(3 -7.430382016e-15 0)
(3 -5.907182867e-15 0)
(3 -3.80609741e-15 0)
(3 -3.07815864e-15 0)
(3 -1.410982643e-16 0)
(3 -1.278681322e-15 0)
(3 -2.016388334e-15 0)
(3 -2.52537111e-15 0)
(3 -2.306492346e-15 0)
(3 4.960979591e-16 0)
(3 2.510051204e-15 0)
(3 2.146152556e-15 0)
(3 4.634518658e-15 0)
(3 6.102451815e-15 0)
(3 9.511982414e-15 0)
(3 1.333308984e-14 0)
(3 1.423424043e-14 0)
(3 1.165629278e-14 0)
(3 9.049530988e-15 0)
(3 4.196028818e-15 0)
(3 1.765646024e-15 0)
(3 -9.495748879e-16 0)
(3 2.863733223e-16 0)
(3 8.110539579e-16 0)
(3 2.33942311e-15 0)
(3 6.057955831e-15 0)
(3 7.223816421e-15 0)
(3 4.989914835e-15 0)
(3 3.173404608e-15 0)
(3 -3.800395408e-16 0)
(3 -4.259920525e-15 0)
(3 -7.752887048e-15 0)
(3 -9.318635861e-15 0)
(3 -8.712938974e-15 0)
(3 -7.947603745e-15 0)
(3 -8.541801811e-15 0)
(3 -5.456676505e-15 0)
(3 -8.424635641e-16 0)
(3 2.23488413e-15 0)
(3 6.352166153e-15 0)
(3 7.20115736e-15 0)
(3 8.935063826e-15 0)
(3 1.02360102e-14 0)
(3 1.244140981e-14 0)
(3 1.747066777e-14 0)
(3 1.786064216e-14 0)
(3 1.761106975e-14 0)
(3 1.488425672e-14 0)
(3 1.068566855e-14 0)
(3 6.186192936e-15 0)
(3 3.840258481e-15 0)
(3 3.59715497e-15 0)
(3 5.321749395e-15 0)
(3 6.238654062e-15 0)
(3 6.332146823e-15 0)
(3 5.719785226e-15 0)
(3 4.187838762e-15 0)
(3 5.979277813e-15 0)
(3 3.558666781e-15 0)
(3 -9.551522279e-16 0)
(3 1.169711764e-15 0)
(3 1.029828413e-15 0)
(3 2.091534459e-15 0)
(3 1.192348424e-15 0)
(3 -7.364122889e-16 0)
(3 -2.760171332e-15 0)
(3 -2.589266284e-15 0)
(3 -1.947316511e-15 0)
(3 -2.046012159e-15 0)
(3 -3.043807189e-15 0)
(3 -4.874471154e-15 0)
(3 -3.781821634e-15 0)
(3 -4.783799125e-15 0)
(3 -4.875080546e-15 0)
(3 -2.934050057e-15 0)
(3 -1.293224635e-15 0)
(3 -1.606327226e-15 0)
(3 3.524539748e-16 0)
(3 2.443629349e-15 0)
(3 3.829349199e-15 0)
(3 4.932819621e-15 0)
(3 5.736384035e-15 0)
(3 5.778271957e-15 0)
(3 3.988781078e-15 0)
(3 -7.405744449e-16 0)
(3 -3.428224712e-16 0)
(3 3.581667568e-15 0)
(3 5.090503227e-15 0)
(3 6.208268194e-15 0)
(3 8.921215721e-15 0)
(3 7.253620261e-15 0)
(3 5.911152257e-15 0)
(3 5.682013062e-15 0)
(3 4.29761453e-15 0)
(3 5.450385362e-15 0)
(3 5.185708915e-15 0)
(3 1.931282341e-15 0)
(3 8.85746884e-16 0)
(3 -1.704439063e-15 0)
(3 -5.225539667e-15 0)
(3 -5.518165785e-15 0)
(3 -5.012611278e-15 0)
(3 -3.903750752e-15 0)
(3 -3.426705744e-15 0)
(3 -8.679019655e-16 0)
(3 3.854596337e-15 0)
(3 2.964643256e-15 0)
(3 1.99240043e-15 0)
(3 5.679312279e-15 0)
(3 6.318403086e-15 0)
(3 5.349606389e-15 0)
(3 5.52158988e-15 0)
(3 6.171626938e-15 0)
(3 5.113559673e-15 0)
(3 3.881225205e-15 0)
(3 2.326697886e-15 0)
(3 -2.094727519e-15 0)
(3 -3.81587211e-15 0)
(3 -4.018446507e-15 0)
(3 -2.650099288e-15 0)
(3 -2.577938616e-15 0)
(3 -4.789624865e-17 0)
(3 7.084653155e-16 0)
(3 2.468350787e-15 0)
(3 6.159708874e-15 0)
(3 7.997187242e-15 0)
(3 1.10711421e-14 0)
(3 -9.414872031e-16 0)
(3 -1.148859031e-15 0)
(3 1.038975227e-15 0)
(3 1.261879887e-15 0)
(3 5.441458402e-15 0)
(3 5.3370315e-15 0)
(3 4.551450637e-15 0)
(3 1.562887472e-15 0)
(3 -1.959633124e-15 0)
(3 -3.473283656e-15 0)
(3 -4.071942541e-15 0)
(3 -4.726756944e-15 0)
(3 -3.453335381e-15 0)
(3 -3.216162739e-15 0)
(3 -3.095048271e-15 0)
(3 -5.220553559e-15 0)
(3 -8.636021665e-15 0)
(3 -1.073222261e-14 0)
(3 -9.228920272e-15 0)
(3 -5.702174515e-15 0)
(3 -1.878998441e-15 0)
(3 -1.708042804e-15 0)
(3 -6.94481751e-16 0)
(3 1.455783267e-15 0)
(3 1.871135599e-15 0)
(3 3.74526836e-15 0)
(3 7.147105351e-15 0)
(3 8.265626435e-15 0)
(3 7.874600147e-15 0)
(3 7.810288191e-15 0)
(3 4.638410509e-15 0)
(3 3.536162255e-15 0)
(3 4.579568503e-15 0)
(3 2.403012114e-15 0)
(3 2.452720829e-15 0)
(3 4.881941514e-15 0)
(3 5.881251934e-15 0)
(3 5.973928684e-15 0)
(3 2.791047336e-15 0)
(3 -3.062918091e-15 0)
(3 -1.879902984e-15 0)
(3 1.335300695e-15 0)
(3 2.180041524e-15 0)
(3 4.813424934e-16 0)
(3 5.325044867e-16 0)
(3 -2.003580307e-15 0)
(3 -1.404549929e-15 0)
(3 2.067338145e-15 0)
(3 2.45335969e-15 0)
(3 -6.826786095e-16 0)
(3 -6.679206508e-16 0)
(3 8.208765839e-16 0)
(3 -1.217750739e-15 0)
(3 -3.953041657e-16 0)
(3 -2.839671433e-15 0)
(3 -4.245897798e-15 0)
(3 -3.433322868e-15 0)
(3 -2.124785908e-15 0)
(3 1.064632125e-15 0)
(3 2.006370968e-15 0)
(3 8.531333827e-15 0)
(3 9.978313187e-15 0)
(3 1.383778843e-14 0)
(3 1.623557461e-14 0)
(3 2.496708962e-14 0)
(3 2.687957285e-14 0)
(3 -6.491576047e-16 0)
(3 -3.254467169e-16 0)
(3 1.425759589e-15 0)
(3 3.316237608e-15 0)
(3 5.164990234e-15 0)
(3 5.298617392e-15 0)
(3 3.700417992e-15 0)
(3 5.54130808e-16 0)
(3 6.119439781e-16 0)
(3 1.624808762e-15 0)
(3 1.435877672e-15 0)
(3 1.958726509e-15 0)
(3 2.880725005e-15 0)
(3 2.712003638e-15 0)
(3 1.743787359e-15 0)
(3 7.806195891e-16 0)
(3 -3.094652248e-15 0)
(3 -3.64172427e-15 0)
(3 -2.736852556e-15 0)
(3 -8.488943573e-16 0)
(3 -2.24758541e-16 0)
(3 -4.439698403e-16 0)
(3 2.783391338e-15 0)
(3 4.596606009e-15 0)
(3 5.427429971e-15 0)
(3 6.318055783e-15 0)
(3 8.951868936e-15 0)
(3 8.745539646e-15 0)
(3 6.150139548e-15 0)
(3 1.411901096e-15 0)
(3 1.472800188e-15 0)
(3 1.250091331e-15 0)
(3 2.28822569e-15 0)
(3 1.024545254e-15 0)
(3 1.01788836e-15 0)
(3 2.973165253e-15 0)
(3 6.221103701e-15 0)
(3 8.434745847e-15 0)
(3 9.651715729e-15 0)
(3 7.684410887e-15 0)
(3 6.033969317e-15 0)
(3 5.007857569e-15 0)
(3 2.411591576e-15 0)
(3 -7.226307977e-16 0)
(3 -7.424674033e-15 0)
(3 -1.268584915e-14 0)
(3 -1.066593218e-14 0)
(3 -1.127874965e-14 0)
(3 -1.197856789e-14 0)
(3 -8.97155278e-15 0)
(3 -6.644118901e-15 0)
(3 -6.754673422e-15 0)
(3 -6.948550624e-15 0)
(3 -1.350817793e-15 0)
(3 -1.362378457e-15 0)
(3 -3.214037283e-16 0)
(3 1.304990124e-15 0)
(3 4.079954e-15 0)
(3 8.306299282e-15 0)
(3 1.181350698e-14 0)
(3 1.394371946e-14 0)
(3 1.607546435e-14 0)
(3 1.975453259e-14 0)
(3 2.525199433e-14 0)
(3 2.533826159e-14 0)
(3 2.519339272e-14 0)
(3 -2.771883114e-16 0)
(3 -2.557205466e-16 0)
(3 -7.484003993e-16 0)
(3 7.68120725e-17 0)
(3 -4.98042686e-16 0)
(3 -1.169626628e-15 0)
(3 -1.632795851e-15 0)
(3 2.367194939e-16 0)
(3 -4.405664704e-16 0)
(3 -5.005004495e-16 0)
(3 1.026494245e-15 0)
(3 5.657136714e-15 0)
(3 6.232718241e-15 0)
(3 7.639739993e-15 0)
(3 9.211061615e-15 0)
(3 8.751212178e-15 0)
(3 1.165952298e-14 0)
(3 1.377880073e-14 0)
(3 1.382433133e-14 0)
(3 1.049421643e-14 0)
(3 8.514090301e-15 0)
(3 5.727247034e-15 0)
(3 4.158564532e-15 0)
(3 2.765869897e-15 0)
(3 1.720895101e-15 0)
(3 3.953017519e-15 0)
(3 5.985753011e-15 0)
(3 2.904600412e-15 0)
(3 2.081614019e-15 0)
(3 3.924405194e-16 0)
(3 -2.262813948e-15 0)
(3 -2.413516699e-15 0)
(3 -2.587052676e-15 0)
(3 -1.586868034e-15 0)
(3 -1.174216707e-15 0)
(3 -3.129567812e-15 0)
(3 -2.991701328e-15 0)
(3 1.90096641e-15 0)
(3 4.040509134e-15 0)
(3 6.595086882e-15 0)
(3 4.743005748e-15 0)
(3 1.61760029e-15 0)
(3 -5.136649203e-15 0)
(3 -1.092456551e-14 0)
(3 -1.446677624e-14 0)
(3 -1.638639862e-14 0)
(3 -1.882095024e-14 0)
(3 -2.332921662e-14 0)
(3 -2.350155127e-14 0)
(3 -1.983895018e-14 0)
(3 -1.337638612e-14 0)
(3 -8.170920016e-15 0)
(3 -6.780836726e-15 0)
(3 -4.400906104e-15 0)
(3 1.042298256e-15 0)
(3 4.492573064e-15 0)
(3 7.16513512e-15 0)
(3 1.075414892e-14 0)
(3 1.207219771e-14 0)
(3 1.601381339e-14 0)
(3 1.656012977e-14 0)
(3 1.988209111e-14 0)
(3 2.339091819e-14 0)
(3 2.462775032e-14 0)
(3 2.140957986e-14 0)
(3 1.3867852e-14 0)
(3 -1.648884149e-15 0)
(3 -4.451662514e-15 0)
(3 -3.314839296e-15 0)
(3 -2.927753483e-15 0)
(3 -2.299561103e-15 0)
(3 -1.026053425e-15 0)
(3 -4.095615554e-15 0)
(3 -4.636829421e-15 0)
(3 -3.709746745e-15 0)
(3 -2.837718376e-15 0)
(3 -2.467762071e-15 0)
(3 7.88793806e-16 0)
(3 4.313446365e-15 0)
(3 8.721244163e-15 0)
(3 1.15477592e-14 0)
(3 1.744060344e-14 0)
(3 1.956141382e-14 0)
(3 2.150595023e-14 0)
(3 1.946625697e-14 0)
(3 1.597683553e-14 0)
(3 1.258985776e-14 0)
(3 5.601286707e-15 0)
(3 -3.840458464e-15 0)
(3 -4.416019214e-15 0)
(3 -3.922841395e-15 0)
(3 -2.160796461e-15 0)
(3 -6.087494494e-15 0)
(3 -6.650424212e-15 0)
(3 -6.340186493e-15 0)
(3 -6.58184618e-15 0)
(3 -6.889469314e-15 0)
(3 -6.345553013e-15 0)
(3 -4.4684587e-15 0)
(3 -5.750620233e-15 0)
(3 -5.868506826e-15 0)
(3 -6.806568235e-15 0)
(3 -6.140210893e-15 0)
(3 -4.559160052e-15 0)
(3 -5.011601505e-15 0)
(3 -4.006926554e-15 0)
(3 -2.07053256e-15 0)
(3 -4.270216178e-15 0)
(3 -6.115038653e-15 0)
(3 -7.476726955e-15 0)
(3 -1.022369764e-14 0)
(3 -1.932891889e-14 0)
(3 -2.22061082e-14 0)
(3 -1.897154108e-14 0)
(3 -1.670552816e-14 0)
(3 -1.129242588e-14 0)
(3 -6.148952564e-15 0)
(3 -1.345565905e-15 0)
(3 7.374648617e-15 0)
(3 6.124813218e-15 0)
(3 6.718368607e-15 0)
(3 5.640337167e-15 0)
(3 5.49889847e-15 0)
(3 7.432560582e-15 0)
(3 1.022020319e-14 0)
(3 1.1845093e-14 0)
(3 1.590053107e-14 0)
(3 2.002712798e-14 0)
(3 1.992672167e-14 0)
(3 1.740550469e-14 0)
(3 1.195102835e-14 0)
(3 4.38628489e-15 0)
(3 1.639864719e-16 0)
(3 3.996318787e-16 0)
(3 5.348445494e-16 0)
(3 1.268606503e-15 0)
(3 2.607646562e-16 0)
(3 -1.973396523e-15 0)
(3 -2.363111751e-15 0)
(3 -3.751281305e-15 0)
(3 -2.263397958e-15 0)
(3 -2.33539204e-16 0)
(3 -5.36541393e-16 0)
(3 9.279813573e-16 0)
(3 7.134293409e-16 0)
(3 3.491940058e-15 0)
(3 2.244639518e-15 0)
(3 7.670481577e-15 0)
(3 9.204060339e-15 0)
(3 1.018253559e-14 0)
(3 9.635100482e-15 0)
(3 8.603858218e-15 0)
(3 3.926443782e-15 0)
(3 1.947252671e-15 0)
(3 -1.210868631e-15 0)
(3 -3.580213335e-15 0)
(3 -7.280428937e-15 0)
(3 -1.488453542e-14 0)
(3 -1.610652445e-14 0)
(3 -1.496872764e-14 0)
(3 -1.424923328e-14 0)
(3 -1.41445495e-14 0)
(3 -1.358832266e-14 0)
(3 -1.03336947e-14 0)
(3 -7.686288393e-15 0)
(3 -8.978029101e-15 0)
(3 -1.126276584e-14 0)
(3 -8.788407161e-15 0)
(3 -8.382768671e-15 0)
(3 -8.136167121e-15 0)
(3 -7.831256745e-15 0)
(3 -6.252755563e-15 0)
(3 -5.663638193e-15 0)
(3 -5.826810387e-15 0)
(3 -5.005322239e-15 0)
(3 -4.419286479e-15 0)
(3 -6.984404708e-15 0)
(3 -9.048224479e-15 0)
(3 -1.411332225e-14 0)
(3 -1.793103416e-14 0)
(3 -1.807363147e-14 0)
(3 -1.659511725e-14 0)
(3 -1.52627321e-14 0)
(3 -1.23966576e-14 0)
(3 -6.22814297e-15 0)
(3 3.249346687e-15 0)
(3 5.508129944e-15 0)
(3 3.486356586e-15 0)
(3 1.413282389e-17 0)
(3 4.491801089e-16 0)
(3 4.246284676e-15 0)
(3 6.096404963e-15 0)
(3 1.005127473e-14 0)
(3 1.252880065e-14 0)
(3 1.063956536e-14 0)
(3 8.331514171e-15 0)
(3 2.998500294e-15 0)
(3 -2.35820082e-16 0)
(3 8.642343613e-16 0)
(3 4.186513536e-15 0)
(3 3.675264277e-15 0)
(3 3.038743555e-15 0)
(3 2.510452054e-15 0)
(3 -2.847960807e-16 0)
(3 3.973640041e-16 0)
(3 2.522976426e-15 0)
(3 4.198485483e-15 0)
(3 4.391765859e-15 0)
(3 2.974817406e-15 0)
(3 2.086694526e-15 0)
(3 -6.91091111e-16 0)
(3 -3.110619654e-15 0)
(3 -3.758104138e-15 0)
(3 -1.341490009e-16 0)
(3 1.333046497e-15 0)
(3 -4.396495609e-15 0)
(3 -9.416880624e-15 0)
(3 -1.46388014e-14 0)
(3 -1.25609414e-14 0)
(3 -8.57577392e-15 0)
(3 -6.04011933e-15 0)
(3 -5.292309536e-15 0)
(3 -5.024420759e-15 0)
(3 -9.156028474e-15 0)
(3 -7.254822272e-15 0)
(3 -1.131643831e-14 0)
(3 -1.380469475e-14 0)
(3 -1.292727001e-14 0)
(3 -1.101312463e-14 0)
(3 -8.647184074e-15 0)
(3 -8.935404551e-15 0)
(3 -7.020341997e-15 0)
(3 -5.046961066e-15 0)
(3 -5.126014426e-15 0)
(3 -5.019331849e-15 0)
(3 -4.489680683e-15 0)
(3 -2.130128689e-15 0)
(3 -1.328462964e-15 0)
(3 -2.062635467e-15 0)
(3 -1.466862615e-15 0)
(3 2.518973254e-16 0)
(3 5.09439167e-15 0)
(3 6.096228892e-15 0)
(3 5.301263634e-15 0)
(3 1.228917016e-15 0)
(3 -1.982749425e-15 0)
(3 -6.236162619e-15 0)
(3 -8.879025178e-15 0)
(3 -1.079437481e-14 0)
(3 -9.46729057e-15 0)
(3 -6.766518914e-15 0)