/*--------------------------------*- C++ -*----------------------------------*\
  =========                 |
  \\      /  F ield         | OpenFOAM: The Open Source CFD Toolbox
   \\    /   O peration     | Website:  https://openfoam.org
    \\  /    A nd           | Version:  7
     \\/     M anipulation  |
\*---------------------------------------------------------------------------*/
FoamFile
{
    version     2.0;
    format      ascii;
    class       volScalarField;
    location    "0.5";
    object      T;
}
// * * * * * * * * * * * * * * * * * * * * * * * * * * * * * * * * * * * * * //

dimensions      [0 0 0 1 0 0 0];

internalField   nonuniform List<scalar> 10(1.024163684 1.028504688 1.021536491 1.024944998 1.019369469 1.008965263 0.9941809054 0.9943450197 0.9964163258 1.002547024);

boundaryField
{
    inlet
    {
        type            fixedValue;
        value           nonuniform 0();
    }
    outlet
    {
        type            inletOutlet;
        inletValue      uniform 1;
        value           nonuniform List<scalar> 8(1.008988478 0.9941857817 0.9943272621 0.9963713312 1.002461528 1.024167679 1.021541372 1.019381421);
    }
    bottom
    {
        type            slip;
    }
    top
    {
        type            slip;
    }
    obstacle
    {
        type            zeroGradient;
    }
    defaultFaces
    {
        type            empty;
    }
    procBoundary35to28
    {
        type            processor;
        value           nonuniform List<scalar> 4(1.029421556 1.021616387 1.001461413 1.001461413);
    }
    procBoundary35to29
    {
        type            processor;
        value           nonuniform List<scalar> 3(1.025950167 1.031739528 1.031739528);
    }
    procBoundary35to34
    {
        type            processor;
        value           nonuniform List<scalar> 4(0.9889754016 0.996283671 1.006180993 1.011582176);
    }
}


// ************************************************************************* //
