/*--------------------------------*- C++ -*----------------------------------*\
  =========                 |
  \\      /  F ield         | OpenFOAM: The Open Source CFD Toolbox
   \\    /   O peration     | Website:  https://openfoam.org
    \\  /    A nd           | Version:  7
     \\/     M anipulation  |
\*---------------------------------------------------------------------------*/
FoamFile
{
    version     2.0;
    format      ascii;
    class       volScalarField;
    location    "3.9";
    object      T;
}
// * * * * * * * * * * * * * * * * * * * * * * * * * * * * * * * * * * * * * //

dimensions      [0 0 0 1 0 0 0];

internalField   nonuniform List<scalar> 
2222
(
0.8846829294
0.8886008386
0.9066007973
0.9457031355
0.9834131926
0.9767677882
0.969788623
0.9635323752
0.9575743562
0.9510446565
0.9453725047
0.9406692416
0.9361163318
0.9311657578
0.9268697319
0.9230711485
0.9191636315
0.9150492071
0.9111493662
0.9074621878
0.9035905722
0.9001185822
0.8979810019
0.8957504324
0.8927266335
0.889673219
0.8882604249
0.8867881845
0.8845178984
0.8843487899
0.8850912189
0.8929211651
0.9194399106
0.9620035746
1.002942472
0.9749781192
0.9686021444
0.9617322959
0.9556785855
0.9499814081
0.9437850766
0.9383854828
0.9340863688
0.9299216599
0.9251984889
0.9209671106
0.9172941291
0.9135130642
0.9095399781
0.9058214419
0.9024508024
0.8986788347
0.8954519022
0.8936466203
0.8916335054
0.8878951112
0.8850835458
0.8849518788
0.8842565312
0.8837312908
0.8858450357
0.8980548626
0.9358866178
0.9773858421
1.010847503
1.022285735
0.9659399249
0.9599246196
0.9535362532
0.9476752948
0.9419596703
0.9358499546
0.9304744493
0.926142361
0.9218781565
0.9171042873
0.9128738519
0.9091306419
0.9054186558
0.9016329962
0.8983418118
0.8954175956
0.8918123275
0.8889961612
0.8877596536
0.8860565907
0.8828419053
0.8820607639
0.8826187865
0.8834563152
0.8875059156
0.9085781198
0.9487115192
0.995683963
1.022612842
1.034255449
1.033125278
0.9566713798
0.9507510827
0.9443373389
0.9386096425
0.9331791369
0.9274270473
0.9223521198
0.9183349623
0.9143017464
0.9098817018
0.9059111926
0.9025258731
0.8994895546
0.8962967801
0.8937761812
0.8915941241
0.8879593106
0.8861201548
0.8857189022
0.8843509574
0.8823011311
0.882047926
0.8834681216
0.8929449518
0.9205563617
0.9641662257
1.008461688
1.019162907
1.028521742
1.036781796
1.036503146
0.9483714022
0.9427943897
0.9366298329
0.9313067825
0.9263339024
0.9211013975
0.9161565774
0.9124101517
0.9087537273
0.9047084465
0.9008469335
0.8977375766
0.8950279474
0.8921520426
0.8900927435
0.8881397497
0.884433312
0.8834722387
0.8836706371
0.883147405
0.8823934338
0.8847293285
0.9004185099
0.9368673772
0.9835608623
1.015544887
1.03438352
1.034661495
1.033578536
1.035327799
1.036843355
0.939739656
0.9343971833
0.9285680606
0.9232816039
0.9182836651
0.9129013745
0.9078657669
0.9042327449
0.9008028116
0.8968814659
0.8931567178
0.8906858637
0.8884275602
0.8858967187
0.8843241025
0.8825623277
0.8804425176
0.8803758783
0.8811504238
0.8821100446
0.8880744293
0.9098200742
0.9591804638
0.9990206204
1.021989596
1.027090849
1.03522852
1.037391143
1.037340371
1.036929997
1.037536457
0.9300509602
0.9247890809
0.9189878263
0.9140392472
0.909400974
0.9043107093
0.899821062
0.8973240501
0.8948785557
0.8915917658
0.888933406
0.8875044178
0.8856980482
0.8834100207
0.8821415315
0.8807405782
0.8798042012
0.8800257041
0.8821930205
0.8930231614
0.9261715216
0.9705430486
1.003921727
1.023031011
1.03300138
1.032050802
1.033822742
1.036182394
1.037648181
1.037823256
1.037912378
0.9227552984
0.9180825964
0.9127592922
0.9081944283
0.9041616676
0.8989169824
0.8949144545
0.8934342409
0.8916263236
0.8882839924
0.8865509427
0.8857151045
0.8839815812
0.88198398
0.8810733347
0.8803654998
0.8801973313
0.8834287696
0.9018418583
0.9399162054
0.9890232781
1.02490546
1.031211585
1.034871379
1.037217788
1.037067133
1.036072868
1.036655977
1.037556736
1.037911236
1.037918721
0.9142350186
0.9096007038
0.904269019
0.8999170706
0.8963165582
0.8907658278
0.8873828232
0.8871416782
0.8860099781
0.882912615
0.8820797413
0.881932968
0.8807580146
0.8797717142
0.879648816
0.8801701077
0.8864441079
0.9131352015
0.9566991908
1.001906293
1.016425116
1.032401496
1.035243288
1.036773111
1.037912404
1.037899611
1.037503347
1.037236238
1.037433896
1.037858162
1.037919516
0.9047687338
0.9008945947
0.8960710174
0.8931435799
0.8905147358
0.8863229925
0.8838153346
0.8837294002
0.8828056347
0.8803366182
0.8798273475
0.8801076929
0.8800756638
0.8797303461
0.8812374949
0.894234077
0.925108806
0.9759024426
1.014699181
1.034570049
1.033472653
1.035585566
1.03633926
1.03627321
1.036631784
1.037331255
1.037652028
1.03768531
1.037765907
1.037959081
1.037985035
0.8996141575
0.8965013391
0.8923787593
0.890339325
0.8883299305
0.8851063736
0.8830861332
0.8828209953
0.8818595504
0.8799432826
0.8797193408
0.8802940582
0.8805651348
0.8849480866
0.9018689992
0.9485828363
0.9935548242
1.017733741
1.028061994
1.037686058
1.037563077
1.037780821
1.037689375
1.037190014
1.03682805
1.037032391
1.037513837
1.037888131
1.038138935
1.038280022
1.03827671
0.8928333469
0.8898984751
0.8862520867
0.885488357
0.8842362187
0.8819947767
0.8807339725
0.8806868346
0.8799545551
0.8789449615
0.8790998454
0.8804730686
0.8884509173
0.918696397
0.9621307782
0.9962613283
1.022638307
1.032097031
1.033046324
1.035926483
1.037602366
1.038859536
1.038811177
1.038505175
1.037902057
1.037653797
1.037912625
1.03818951
1.038399291
1.038543342
1.038574717
0.8875779366
0.885141578
0.8825865047
0.8823585536
0.8816387823
0.8799645907
0.8790074683
0.8792136752
0.879169799
0.8789762766
0.8813839222
0.8962767769
0.9306367568
0.9819891278
1.022832457
1.029511369
1.035234086
1.03887253
1.039130346
1.038567801
1.038795692
1.03921043
1.039389582
1.039247965
1.039016288
1.038732789
1.03845636
1.038463726
1.0385589
1.03870191
1.038852832
0.8866891627
0.8844529378
0.8824318247
0.8821172342
0.881440787
0.8800251446
0.8792896921
0.8794427149
0.8799691515
0.884462713
0.9066495559
0.9486911881
0.9961635417
1.013465203
1.032684037
1.034916236
1.037794294
1.04011303
1.040799374
1.040591695
1.040045785
1.039609436
1.039651454
1.039569603
1.039364531
1.039140821
1.03886952
1.038720373
1.038752009
1.038930356
1.039224129
0.8843000523
0.8826134679
0.8811210994
0.8810973344
0.8807502184
0.879886346
0.8797461073
0.8808892717
0.8913459582
0.9184411884
0.9680854301
1.010977957
1.035033282
1.034794718
1.037781873
1.037553569
1.03769908
1.038975452
1.040225806
1.040868206
1.040582732
1.040346177
1.040101681
1.039761289
1.039421781
1.039225801
1.039062961
1.038973872
1.039002028
1.039229609
1.039625545
0.881907516
0.8806428169
0.8795148341
0.8794962175
0.8796463151
0.8798237675
0.8828890761
0.8975477518
0.9396564125
0.9845098211
1.012412703
1.026149262
1.039447249
1.039949409
1.040435517
1.040094904
1.039015564
1.038873372
1.039370068
1.040548157
1.041221055
1.041177407
1.040884307
1.040335375
1.039741763
1.039524293
1.039516346
1.039547761
1.039670705
1.039917035
1.040216609
0.8819441969
0.8807168392
0.8797328232
0.8796831789
0.8802260162
0.8856760174
0.910329953
0.9547077915
0.9992157862
1.029823238
1.037293788
1.035719215
1.038445783
1.040447299
1.041425369
1.041284095
1.040526068
1.039971042
1.040227059
1.040950122
1.041819332
1.041928548
1.041712797
1.041172615
1.040636115
1.04042075
1.040426588
1.040513424
1.040688489
1.040919351
1.041040722
0.8821248067
0.8812882203
0.8803891411
0.8816768329
0.8918420252
0.9240424264
0.9698086406
1.01452099
1.023635957
1.035883494
1.041222466
1.041124721
1.041460019
1.042022878
1.041907528
1.041993137
1.041837379
1.041720493
1.041842161
1.042121725
1.042411052
1.042469993
1.042335241
1.041959241
1.041650907
1.041526533
1.04152706
1.041585764
1.041760177
1.041971113
1.042026208
0.8817942388
0.8815968692
0.8840533531
0.9016613043
0.9390542439
0.9911426922
1.023544916
1.040740728
1.040486267
1.040528038
1.041710725
1.042745324
1.043173826
1.043172841
1.042887368
1.0426567
1.042711879
1.042764195
1.042940932
1.043058755
1.043070679
1.04299721
1.042873621
1.0426112
1.042514525
1.042525019
1.042566778
1.042641573
1.042812435
1.042988221
1.043074006
0.8823909259
0.8889015713
0.9122574848
0.9610291916
1.003063788
1.023857241
1.033763831
1.04333787
1.044296042
1.043649497
1.043168848
1.043540712
1.043961311
1.044136501
1.043997023
1.043715447
1.043498682
1.043635482
1.043792606
1.043831789
1.043745819
1.043576991
1.043483632
1.043328687
1.043319739
1.043387514
1.043487967
1.043626421
1.04383676
1.043951593
1.044036135
0.8947163761
0.9306508358
0.9784723734
1.016039551
1.037229502
1.041695849
1.04025463
1.042068489
1.043735339
1.044424833
1.044128456
1.044163428
1.044462078
1.045070512
1.045173406
1.044946409
1.044584203
1.044363313
1.044409715
1.044404369
1.04437514
1.044353642
1.044330288
1.044246842
1.044257417
1.044324874
1.044421926
1.044552254
1.044741364
1.044782328
1.044815667
0.9484877922
0.993083632
1.028092138
1.033031147
1.041231689
1.04466378
1.04456955
1.044156029
1.044563333
1.044741069
1.044720197
1.04468734
1.04482547
1.045439815
1.045956987
1.04590892
1.045674912
1.045391623
1.045251049
1.04519211
1.045174442
1.045185095
1.045179653
1.045084041
1.045066268
1.045133498
1.045211003
1.045314749
1.045419415
1.045412915
1.045386361
1.008529945
1.032221603
1.043839532
1.042696843
1.043360469
1.044976126
1.045875553
1.045804625
1.045539433
1.045371749
1.045230936
1.045117069
1.045201909
1.045579632
1.046106669
1.046356621
1.04626828
1.046138534
1.046026186
1.045943088
1.045870407
1.045813727
1.045790496
1.045682614
1.045686372
1.045799696
1.045896019
1.045894472
1.045933006
1.045913902
1.045852009
1.039947865
1.041567877
1.045288364
1.045753255
1.045334167
1.04541539
1.046213103
1.046286957
1.046286851
1.046124805
1.045845182
1.045609309
1.045627342
1.045847853
1.046227916
1.046380656
1.046362212
1.04637086
1.046361346
1.046312848
1.046239232
1.046163911
1.046065337
1.045982463
1.04603801
1.046167978
1.046286128
1.046320327
1.046357208
1.046338233
1.046266586
1.045295327
1.04423751
1.044965809
1.045711931
1.045761123
1.045727372
1.04591754
1.046362927
1.046579787
1.046533807
1.046372126
1.046071967
1.045996759
1.04603809
1.046227286
1.046252717
1.046245552
1.046248695
1.046243157
1.0462338
1.046220441
1.046202101
1.04616642
1.046178456
1.046257934
1.046366496
1.046477501
1.046600425
1.046683523
1.046682073
1.046612364
1.045499988
1.045711145
1.045388282
1.045576857
1.045711048
1.045732793
1.045869906
1.046217397
1.046512176
1.04661332
1.046474592
1.046323252
1.046325814
1.046385377
1.046290373
1.046235989
1.04623818
1.046187084
1.046102854
1.046103229
1.046142618
1.046217948
1.04628566
1.046352447
1.046423503
1.046492934
1.046567873
1.046709159
1.046833882
1.04682556
1.046811865
1.044642755
1.045207687
1.045687566
1.045700642
1.045829999
1.045971334
1.046079366
1.046134887
1.04624942
1.046405229
1.046380794
1.046301973
1.04629896
1.046343881
1.04643283
1.046434161
1.046414101
1.0463492
1.046297377
1.046333211
1.046394925
1.046435864
1.046472576
1.046507946
1.046541946
1.0465993
1.046702366
1.04686607
1.046944856
1.046916713
1.046867002
1.044169567
1.044456802
1.045236865
1.045666041
1.045967189
1.046143085
1.046280008
1.046127374
1.046011723
1.046006619
1.046010243
1.046049019
1.046151576
1.046304885
1.046478075
1.046640028
1.046779361
1.046780048
1.046777945
1.046818307
1.046888769
1.046919916
1.046899032
1.04688659
1.046887538
1.046929551
1.047006586
1.04711107
1.047107565
1.047060199
1.046974549
1.045308726
1.045617944
1.046167011
1.046675161
1.047045648
1.047076494
1.046969637
1.046579753
1.04609278
1.04589797
1.045905163
1.046004965
1.046109998
1.046227077
1.046514803
1.046824936
1.047146067
1.047354413
1.047370427
1.047387324
1.047383571
1.047349501
1.047306641
1.047272555
1.04725197
1.047281619
1.047323512
1.047368014
1.047360269
1.047291942
1.047189661
1.047130027
1.047430139
1.047846304
1.048182915
1.04837692
1.048340811
1.048061208
1.047494713
1.046719313
1.046180427
1.045827822
1.045739886
1.045852037
1.046243492
1.04672045
1.047118147
1.04749911
1.047647491
1.047626774
1.04758164
1.047518517
1.047430535
1.047377185
1.047359725
1.047374332
1.047454017
1.047510169
1.04755915
1.047583208
1.047577128
1.047517014
1.04793553
1.048082593
1.048399246
1.04887293
1.049171682
1.049287823
1.049196193
1.048726954
1.047902857
1.046934507
1.046250994
1.045920067
1.045960614
1.046035559
1.046368186
1.046884186
1.047369552
1.047794294
1.04784575
1.047751949
1.047637134
1.047521943
1.047406668
1.047389453
1.047427515
1.04753845
1.047613089
1.047640569
1.047644018
1.047687124
1.047748038
1.047685646
1.048271154
1.048363202
1.04860675
1.04903687
1.049327903
1.049443366
1.049312252
1.048866711
1.048074772
1.047040681
1.046230659
1.045986183
1.04607528
1.046239413
1.04654573
1.046997693
1.047480456
1.047910102
1.047944853
1.047877458
1.047791141
1.04765838
1.047508145
1.047414666
1.047421386
1.047569153
1.047707083
1.047747248
1.047730992
1.047704975
1.047776521
1.047744851
1.048522533
1.048715718
1.04900956
1.049265578
1.049488245
1.049527451
1.049252419
1.048752216
1.048123895
1.047160119
1.046357224
1.046208912
1.046148606
1.046339592
1.046816186
1.047304501
1.047689298
1.048036215
1.047994653
1.047920121
1.047880249
1.047810502
1.047669351
1.047541823
1.047504165
1.047574741
1.047744539
1.047852956
1.047858793
1.047799106
1.047823638
1.047816774
1.048517521
1.048784862
1.049202259
1.049567587
1.049653448
1.049579209
1.049247426
1.048665356
1.047963856
1.047256531
1.046591757
1.046476397
1.046355728
1.046457819
1.047042552
1.047634576
1.047994612
1.048210134
1.048135712
1.048007255
1.047894573
1.047862006
1.047822663
1.047752446
1.047660472
1.04772482
1.047813225
1.047902562
1.047992267
1.047972016
1.047950793
1.047907784
1.048499079
1.048749624
1.049177851
1.04964387
1.049767229
1.049718798
1.049363793
1.04865479
1.047878448
1.047214668
1.046814972
1.046744688
1.046590168
1.046674471
1.047165698
1.047784875
1.048169117
1.048399775
1.048304232
1.048167991
1.048025365
1.047934186
1.047918008
1.04792696
1.047904671
1.047925432
1.0479678
1.048004354
1.048082833
1.048159529
1.048131788
1.048057056
1.048523555
1.048770808
1.049169785
1.049610285
1.049756769
1.049751435
1.04941324
1.048752207
1.047863909
1.047192362
1.046898519
1.046989671
1.046861719
1.04688577
1.047290982
1.047794741
1.048212433
1.048506375
1.04849382
1.048403768
1.04821564
1.048104676
1.048049972
1.048058417
1.048124076
1.048154441
1.048144887
1.048167929
1.048216215
1.048289936
1.048323585
1.048232521
1.048580818
1.048845511
1.049176462
1.049552449
1.049692277
1.049735953
1.049381251
1.04877498
1.048008612
1.047187586
1.046909429
1.047083402
1.047118406
1.047260268
1.047476818
1.047845083
1.048250804
1.048491461
1.048533848
1.048581309
1.048477483
1.048311915
1.04820545
1.048208152
1.048272241
1.048369564
1.048370681
1.048344577
1.04835672
1.048403237
1.04845903
1.048424754
1.048639213
1.048981121
1.049284662
1.049576815
1.049659745
1.049661892
1.049288616
1.048701773
1.048024111
1.047368715
1.046988551
1.047121139
1.047234014
1.047543571
1.04785099
1.048027899
1.048303982
1.048558131
1.048537007
1.04860516
1.04864057
1.048557745
1.048434537
1.04834842
1.048395583
1.048529211
1.048575064
1.048593095
1.048531507
1.04852071
1.048555833
1.048572331
1.048603719
1.049079906
1.049494403
1.049702817
1.049698772
1.04959003
1.049180389
1.048574383
1.047911047
1.047428802
1.047141041
1.047259606
1.047333078
1.047688397
1.048132185
1.048382398
1.048538286
1.048642409
1.048612493
1.048625067
1.048664407
1.048689854
1.048660877
1.048598091
1.048560411
1.048667195
1.048731625
1.048783159
1.048761867
1.048668896
1.048665251
1.048684361
1.048414972
1.048699811
1.049185938
1.049692487
1.049852223
1.049795995
1.049628639
1.049165941
1.04851198
1.047858915
1.047382638
1.047239139
1.047457773
1.047521066
1.047867052
1.048345107
1.048673571
1.048857602
1.048918519
1.048819475
1.048721356
1.048707525
1.048718902
1.048775359
1.048827864
1.048857614
1.0488833
1.048888163
1.048913005
1.048930814
1.048889763
1.048798917
1.048794121
1.048487648
1.048741604
1.049145446
1.04969791
1.049964518
1.049892049
1.049686549
1.049211907
1.048529739
1.047826297
1.047432533
1.047298948
1.047585275
1.047766601
1.048131036
1.04854191
1.048882878
1.049109295
1.049188638
1.049119267
1.048959109
1.048804972
1.048804593
1.048840097
1.048965721
1.049112504
1.049169229
1.049104864
1.049042273
1.049054854
1.049066475
1.049013932
1.04891309
1.048650265
1.048920833
1.049184615
1.049616189
1.049999019
1.049950971
1.049719724
1.049240739
1.048607478
1.047941508
1.047480414
1.047437857
1.047715769
1.047987108
1.048429511
1.048792716
1.049097134
1.049327506
1.049389514
1.049331749
1.049222596
1.049055956
1.048939651
1.04896022
1.049047715
1.049254284
1.04938639
1.049339145
1.049240827
1.04918466
1.049202175
1.049212118
1.049090222
1.048851752
1.04915306
1.049392022
1.049692246
1.049922773
1.049894589
1.049690146
1.049264539
1.048691124
1.048082125
1.047631204
1.047567458
1.047802511
1.048134328
1.048677944
1.049128708
1.049330731
1.049504237
1.049539364
1.049478301
1.049406768
1.049299583
1.049206317
1.049150175
1.049167245
1.049294203
1.049499363
1.049528761
1.049487873
1.049365244
1.049340126
1.049357978
1.049306945
1.048929398
1.049412096
1.049723783
1.049883976
1.04996862
1.049859736
1.049534841
1.049045355
1.048551639
1.048166824
1.047808388
1.047793294
1.047981526
1.048233491
1.048885751
1.049419333
1.049554858
1.049675263
1.049668016
1.049601922
1.049574026
1.04948701
1.049425412
1.049413429
1.049367426
1.049422985
1.049555324
1.049692196
1.049708655
1.049620929
1.049524968
1.049498867
1.049498296
1.04888619
1.049467582
1.050039449
1.050201174
1.05016204
1.050019487
1.049623833
1.049037703
1.048406165
1.047986991
1.047934609
1.048039658
1.048236326
1.048433882
1.049008325
1.049640811
1.049792442
1.049858581
1.049794464
1.049659805
1.049632279
1.049645132
1.049621449
1.049606852
1.049610677
1.049604048
1.049656215
1.049760078
1.049908491
1.049897375
1.049778189
1.049650856
1.049678875
1.049113804
1.049559549
1.050139508
1.050493108
1.05044548
1.050296514
1.04985796
1.049244563
1.048551203
1.048002721
1.047907648
1.048141343
1.048478347
1.048745608
1.049154185
1.049681278
1.049987128
1.050079368
1.049996579
1.04981949
1.049677971
1.049645703
1.049676872
1.049754837
1.04980506
1.049845089
1.049802087
1.049834023
1.049995948
1.050129679
1.050033512
1.049845355
1.04986684
1.049498095
1.049875348
1.05016213
1.050523396
1.050547004
1.050424167
1.050057066
1.049528838
1.048855477
1.048230208
1.048004654
1.048172789
1.048675346
1.049051371
1.049370884
1.049703137
1.049978431
1.050195627
1.050192044
1.050066301
1.049850668
1.049732463
1.049666126
1.04971408
1.049898477
1.050075728
1.050034128
1.05001579
1.050029927
1.050229027
1.050248763
1.050085957
1.049709823
1.050006542
1.050316161
1.050432209
1.05057236
1.05047815
1.05029145
1.049976598
1.049593698
1.049089934
1.048577546
1.048259023
1.048390144
1.048748618
1.04934229
1.049714693
1.049892977
1.049962253
1.05008247
1.050195047
1.050263294
1.050134802
1.049934521
1.04980873
1.049760357
1.049833806
1.050204289
1.050321923
1.050298348
1.050196183
1.050213773
1.050368805
1.050310148
1.050016141
1.050410065
1.050776351
1.050845376
1.050868055
1.050708012
1.050398426
1.049915483
1.049361597
1.048970545
1.0488
1.048630937
1.048736093
1.048921348
1.049448354
1.050010552
1.050206507
1.050156115
1.05011998
1.050043064
1.050210609
1.050311221
1.050214475
1.050059274
1.049935701
1.049953029
1.0501717
1.05047313
1.050546849
1.050434372
1.05030848
1.050327351
1.050474066
1.049999654
1.050461017
1.051176317
1.051341202
1.051331669
1.051131034
1.050754598
1.05019434
1.049477691
1.048856508
1.048724195
1.048870463
1.049128182
1.049232781
1.049555866
1.050200556
1.050524045
1.050487781
1.050340085
1.050152633
1.050104127
1.050195736
1.05034527
1.050328229
1.050251749
1.050212759
1.050301161
1.050429732
1.050659941
1.050680141
1.050484587
1.050381443
1.050437218
1.050071322
1.050478412
1.051246566
1.05169946
1.05175292
1.05158105
1.051228101
1.050617592
1.049806469
1.049090509
1.048726267
1.048818082
1.049363246
1.049636187
1.049855125
1.050243763
1.050751029
1.050769723
1.05068191
1.05043701
1.050249963
1.05014812
1.050200445
1.050422983
1.050542458
1.050560133
1.050550551
1.050544573
1.050579862
1.050787208
1.050738238
1.050548548
1.050482634
1.050337723
1.050762755
1.05129318
1.051701408
1.051842454
1.051697744
1.05143397
1.050947943
1.050256398
1.049504008
1.048973057
1.048904888
1.049308478
1.04996932
1.050295611
1.050471941
1.05073611
1.050862649
1.050944707
1.050797917
1.050577274
1.050348117
1.050244712
1.050305414
1.050568851
1.050840728
1.050923316
1.05080236
1.050684364
1.05070404
1.050894609
1.05081065
1.050627568
1.050770917
1.051192403
1.051574094
1.051769514
1.051747133
1.051527441
1.051286563
1.050970346
1.050500549
1.049915556
1.049395692
1.049206631
1.04944843
1.050051113
1.05071838
1.050861324
1.050904578
1.050852845
1.050965355
1.051030868
1.051002552
1.050728434
1.05050098
1.050430749
1.050479207
1.050811201
1.051165773
1.05115097
1.050937642
1.050806361
1.050850621
1.051001804
1.050897365
1.05119434
1.051685076
1.052020046
1.052050273
1.051934834
1.051623101
1.05120964
1.050722912
1.050322231
1.05011915
1.049849632
1.049654112
1.049792628
1.050133187
1.050935809
1.051351006
1.051273501
1.051082999
1.050983845
1.050998449
1.051207707
1.05111933
1.050947247
1.050738055
1.050654289
1.050719879
1.051079352
1.05135012
1.051318723
1.051062047
1.050906256
1.051002853
1.051157874
1.051401507
1.052069256
1.05253146
1.052534647
1.052348042
1.051957517
1.051471907
1.050801016
1.050159333
1.049940229
1.050030277
1.050082082
1.050271393
1.050452582
1.05092966
1.051617699
1.051743172
1.051493301
1.051233102
1.051004393
1.051090778
1.051248023
1.051278092
1.051204512
1.050998709
1.050904428
1.050999406
1.051241935
1.051528467
1.051445871
1.051159963
1.051070936
1.051190393
1.051268636
1.051527133
1.052287461
1.052889811
1.053010959
1.052795211
1.052409361
1.05187172
1.051116802
1.050368827
1.049915258
1.049895569
1.050208273
1.050704338
1.050923944
1.051141885
1.051547701
1.051928802
1.051929223
1.051674994
1.051290428
1.051158968
1.051135656
1.05128388
1.051442545
1.051419688
1.051252714
1.051182029
1.051180608
1.051400319
1.051692429
1.051570172
1.051271437
1.051211347
1.051320581
1.051756012
1.052481256
1.052904617
1.053063679
1.052849794
1.052563628
1.052100034
1.051508738
1.050762373
1.050162862
1.050006706
1.050167641
1.050916482
1.051423407
1.051553067
1.051682694
1.051801931
1.052056279
1.052116734
1.051788513
1.05143749
1.051269899
1.05119545
1.051309688
1.051563466
1.051650406
1.051554534
1.05140771
1.051394929
1.051604049
1.051821588
1.051647686
1.051447777
1.051546719
1.052122266
1.052760327
1.052910922
1.052827183
1.052503942
1.052200563
1.051851218
1.051576901
1.051135912
1.050597181
1.050344116
1.050466483
1.050941831
1.051752872
1.052110122
1.052050207
1.051956566
1.051971952
1.052164012
1.052155472
1.051873887
1.051598625
1.051389906
1.051284431
1.051382381
1.051793611
1.051970383
1.051810267
1.051589063
1.051557137
1.051761165
1.051957511
1.051778066
1.051963747
1.052499858
1.053006026
1.05299361
1.052756304
1.05235036
1.052044172
1.051628093
1.051223414
1.051099511
1.050992104
1.050863265
1.050966309
1.051204583
1.051744765
1.052458512
1.052569692
1.052352682
1.052161134
1.052033888
1.052054375
1.052114069
1.052001701
1.051762935
1.051516559
1.051452526
1.051670042
1.052073144
1.052179803
1.05200016
1.051818241
1.051770476
1.051922336
1.052028054
1.052343279
1.052860726
1.053197097
1.053171512
1.05289977
1.052470852
1.052185213
1.051777918
1.05120333
1.050884585
1.050944134
1.051189863
1.051525749
1.051673029
1.051899856
1.052431788
1.052888975
1.052878372
1.05260912
1.052229956
1.051934598
1.051875579
1.052061658
1.052094447
1.051939011
1.051748512
1.051771234
1.051937241
1.052244359
1.052416373
1.052197338
1.051882149
1.051861919
1.05207644
1.052541248
1.053145054
1.053435251
1.053372232
1.053095851
1.052585952
1.052293792
1.052013989
1.051462831
1.050992906
1.050862219
1.051053094
1.051794524
1.052257408
1.052304384
1.052479919
1.052806728
1.0531358
1.053160857
1.052685382
1.052124979
1.051798553
1.051784184
1.052024583
1.052227334
1.052213572
1.052122842
1.052098326
1.052168728
1.052456979
1.052516098
1.052247533
1.052098565
1.052074388
1.05252117
1.053213858
1.053695069
1.053673026
1.053431589
1.052843442
1.05242054
1.0521927
1.051797438
1.051319521
1.05104925
1.051093755
1.051651783
1.052567604
1.052884806
1.052821252
1.052847004
1.052989823
1.053347644
1.053171478
1.052590973
1.052057623
1.051836594
1.051816343
1.052063498
1.052492828
1.052609684
1.05244892
1.052289762
1.052347453
1.052618878
1.052680697
1.052423579
1.052190606
1.052600756
1.053236859
1.05385795
1.054025763
1.053868629
1.053310983
1.05271906
1.052261658
1.051997501
1.051765214
1.051497523
1.051459072
1.051750984
1.052417223
1.053251448
1.053351603
1.053170793
1.05301086
1.053120023
1.053209655
1.052994668
1.052494615
1.052142778
1.051962778
1.051972684
1.052320978
1.052848442
1.052889908
1.052679248
1.052565632
1.052572764
1.052754475
1.052750678
1.052671995
1.052979543
1.053414337
1.053849051
1.054104975
1.054058995
1.053751704
1.053170983
1.052450267
1.052023278
1.052018488
1.05205947
1.052063681
1.052152944
1.052440142
1.053148297
1.053715199
1.053645681
1.053330788
1.053151623
1.052915461
1.052883806
1.05279178
1.052626389
1.052367413
1.052223157
1.052318744
1.052721237
1.053101819
1.053153463
1.052895845
1.052640973
1.052669372
1.052925583
1.053148057
1.053585347
1.053821514
1.053936254
1.053978977
1.0538036
1.053832337
1.05355501
1.052857653
1.052211114
1.05203439
1.05227585
1.052608478
1.05277743
1.052793661
1.053094441
1.053588724
1.053902276
1.053765082
1.053360388
1.052860356
1.05266322
1.052694718
1.052926743
1.052908404
1.052720695
1.052665519
1.052789492
1.05298075
1.053263351
1.05324822
1.052963161
1.052830165
1.052857141
1.053433472
1.054165231
1.054409267
1.054325112
1.054103755
1.053673593
1.053435082
1.053443391
1.05318496
1.052594422
1.052175054
1.052188052
1.052705159
1.053291948
1.053371429
1.05339785
1.053506759
1.053686665
1.053915129
1.053707299
1.053144366
1.052753494
1.052625876
1.052769392
1.053109912
1.053262366
1.05321735
1.053095846
1.053011408
1.053135076
1.053403094
1.053348968
1.053049968
1.052871474
1.053480204
1.054343053
1.054908413
1.054840425
1.054442389
1.053876202
1.053365687
1.053100841
1.053018135
1.05282308
1.052453267
1.05226885
1.05252743
1.053387865
1.053932258
1.053932562
1.053774471
1.05358663
1.053665125
1.053908167
1.053604026
1.053106925
1.052824769
1.052750841
1.052931
1.053384834
1.053670031
1.053612476
1.053368649
1.053268114
1.053316191
1.053429428
1.053355756
1.05313225
1.053498837
1.054173341
1.054909573
1.055087063
1.054889442
1.054382784
1.05378797
1.053233207
1.052765615
1.052624506
1.052641662
1.052533543
1.052668013
1.05318161
1.054076363
1.054459768
1.054270811
1.05386721
1.053634259
1.053634134
1.053739033
1.053571478
1.053306212
1.053077564
1.05301738
1.053202308
1.053690582
1.054007274
1.053886385
1.053535136
1.053338499
1.053374471
1.053543808
1.053441963
1.053663982
1.054174813
1.054626614
1.054950738
1.054999804
1.054769303
1.054291417
1.053583554
1.052914733
1.052565451
1.052624527
1.052867445
1.053045552
1.053297606
1.053834971
1.054536831
1.054666523
1.054337262
1.053802971
1.053519265
1.053506704
1.053716866
1.053795335
1.053597502
1.053342759
1.053307981
1.053538011
1.053916576
1.054117543
1.054063285
1.054491721
1.054727019
)
;

boundaryField
{
    inlet
    {
        type            fixedValue;
        value           nonuniform 0();
    }
    outlet
    {
        type            inletOutlet;
        inletValue      nonuniform 0();
        value           nonuniform 0();
    }
    bottom
    {
        type            slip;
    }
    top
    {
        type            slip;
    }
    obstacle
    {
        type            zeroGradient;
    }
    defaultFaces
    {
        type            empty;
    }
    procBoundary10to4
    {
        type            processor;
        value           nonuniform List<scalar> 
32
(
0.8851688759
0.8852502179
0.8869351152
0.8995027311
0.9925684064
0.9856797775
0.9785945419
0.9721548736
0.9659074404
0.9591250855
0.9534292448
0.9485966203
0.9438265456
0.9386421112
0.9342498454
0.9302226479
0.9259211883
0.9214694532
0.9172639142
0.9131906552
0.9087173504
0.9049428764
0.9022818086
0.8996507733
0.8965176346
0.8934310887
0.8911827613
0.88920792
0.8858457983
0.8845944066
0.8844757964
0.8844757964
)
;
    }
    procBoundary10to5
    {
        type            processor;
        value           uniform 0.9954155992;
    }
    procBoundary10to9
    {
        type            processor;
        value           nonuniform List<scalar> 
55
(
0.989517437
0.9806803116
0.971534862
0.9622769459
0.9535113555
0.9447818389
0.9351766986
0.9272410151
0.9187848253
0.9086656877
0.9024449166
0.8947605165
0.8882592496
0.8873138093
0.8847412233
0.8823082349
0.8823625535
0.8823271373
0.8819072993
0.8817474246
0.8841595109
0.9058261577
0.9634110471
1.024756867
1.039793942
1.044576066
1.044509143
1.044350309
1.045135913
1.046966902
1.046966902
1.047923286
1.048336121
1.048472798
1.04836947
1.048327251
1.048346297
1.048357899
1.048373
1.048327251
1.048327251
1.048157642
1.048295795
1.048433188
1.048673138
1.048793815
1.048743632
1.048873268
1.049213435
1.049213435
1.049606001
1.049866744
1.049947206
1.050108184
1.050315939
)
;
    }
    procBoundary10to11
    {
        type            processor;
        value           nonuniform List<scalar> 
70
(
1.030650581
1.03175571
1.034106579
1.036096486
1.037138915
1.037724002
1.037919182
1.037914162
1.037882535
1.037887016
1.038117917
1.038455625
1.038851385
1.039347553
1.039854292
1.040435744
1.04115707
1.042120423
1.043167171
1.044108211
1.044859523
1.045412475
1.045792294
1.046170615
1.046489771
1.046742064
1.046776624
1.046872647
1.047059219
1.047406801
1.047592768
1.047659184
1.047779525
1.047907043
1.048025196
1.048176008
1.04839308
1.04861058
1.048772434