/*--------------------------------*- C++ -*----------------------------------*\
  =========                 |
  \\      /  F ield         | OpenFOAM: The Open Source CFD Toolbox
   \\    /   O peration     | Website:  https://openfoam.org
    \\  /    A nd           | Version:  7
     \\/     M anipulation  |
\*---------------------------------------------------------------------------*/
FoamFile
{
    version     2.0;
    format      ascii;
    class       volScalarField;
    location    "2.2";
    object      p;
}
// * * * * * * * * * * * * * * * * * * * * * * * * * * * * * * * * * * * * * //

dimensions      [1 -1 -2 0 0 0 0];

internalField   nonuniform List<scalar> 10(1.010006189 1.029147569 1.010617911 1.023891751 1.012203602 0.9979275751 0.9785800186 0.9995775266 1.023398658 1.057674594);

boundaryField
{
    inlet
    {
        type            fixedValue;
        value           nonuniform 0();
    }
    outlet
    {
        type            zeroGradient;
    }
    bottom
    {
        type            slip;
    }
    top
    {
        type            slip;
    }
    obstacle
    {
        type            zeroGradient;
    }
    defaultFaces
    {
        type            empty;
    }
    procBoundary35to28
    {
        type            processor;
        value           nonuniform List<scalar> 4(1.034291494 1.018009003 0.9734282219 0.9734282219);
    }
    procBoundary35to29
    {
        type            processor;
        value           nonuniform List<scalar> 3(1.010181882 1.027482109 1.027482109);
    }
    procBoundary35to34
    {
        type            processor;
        value           nonuniform List<scalar> 4(0.9581223419 0.9984342088 1.045055909 1.071995501);
    }
}


// ************************************************************************* //
