/*--------------------------------*- C++ -*----------------------------------*\
  =========                 |
  \\      /  F ield         | OpenFOAM: The Open Source CFD Toolbox
   \\    /   O peration     | Website:  https://openfoam.org
    \\  /    A nd           | Version:  7
     \\/     M anipulation  |
\*---------------------------------------------------------------------------*/
FoamFile
{
    version     2.0;
    format      ascii;
    class       volScalarField;
    location    "3.4";
    object      T;
}
// * * * * * * * * * * * * * * * * * * * * * * * * * * * * * * * * * * * * * //

dimensions      [0 0 0 1 0 0 0];

internalField   nonuniform List<scalar> 
558
(
1.109316293
1.112016289
1.112989749
1.113461076
1.112288822
1.107877683
1.099992533
1.089159695
1
1
1.000000001
1.000000074
1.000004793
1.000067532
1.000934227
1.00530805
1.022509469
1.055179833
1.089266722
1.100921557
1.109825241
1.113488066
1.113215862
1.111585166
1.107091763
1.099236784
1
1
1
1.000000002
1.000000182
1.000003981
1.000099404
1.000822121
1.005935376
1.02232841
1.053311783
1.0879873
1.108823508
1.111620715
1.112070044
1.112279729
1.110940746
1.106349809
1
1
1
1
1.000000004
1.00000015
1.000006563
1.000082093
1.001009735
1.005539272
1.022656643
1.05474979
1.089490476
1.100990225
1.109049323
1.112568797
1.112074926
1.110164144
1
1
1
1
1
1.000000004
1.000000273
1.000005238
1.000112464
1.000895124
1.006030442
1.022654473
1.05366067
1.08720975
1.108004085
1.111189143
1.11098178
1.111156056
1
1
1
1
1
1
1.000000007
1.000000225
1.00000807
1.000094563
1.001066044
1.005738754
1.023015064
1.054888974
1.089421184
1.100690599
1.108189202
1.11195114
1
1
1
1
1
1
1
1.000000007
1.00000038
1.000006577
1.000124704
1.00097051
1.006176919
1.023157259
1.054255017
1.086257239
1.107029957
1.110750468
1
1
1
1
1
1
1
1
1.000000012
1.000000311
1.000009634
1.000107754
1.001123007
1.005988783
1.02349806
1.0553039
1.089433322
1.100310728
1
1
1
1
1
1
1
1
1
1.00000001
1.000000491
1.000007974
1.000135687
1.001052263
1.006367184
1.023872444
1.055085571
1.085364803
1
1
1
1
1
1
1
1
1
1
1.000000016
1.000000396
1.00001108
1.00012073
1.001180596
1.006293409
1.02396718
1.055847973
1
1
1
1
1
1
1
1
1
1
1
1.000000013
1.000000591
1.000009314
1.000143942
1.001131364
1.006517142
1.024466124
1
1
1
1
1
1
1
1
1
1
1
1
1.00000002
1.00000047
1.000012077
1.000131968
1.001205814
1.006583028
1
1
1
1
1
1
1
1
1
1
1
1
1
1.000000016
1.000000658
1.000010429
1.000146307
1.001194483
1
1
1
1
1
1
1
1
1
1
1
1
1
1
1.000000023
1.000000527
1.000012472
1.000140515
1
1
1
1
1
1
1
1
1
1
1
1
1
1
1.000000001
1.000000018
1.000000691
1.000011321
1
1
1
1
1
1
1
1
1
1
1
1
1
1
1
1
1.000000025
1.000000572
1
1
1
1
1
1
1
1
1
1
1
1
1
1
1
1
1.000000001
1.000000019
1
1
1
1
1
1
1
1
1
1
1
1
1
1
1
1
1
1
1
1
1
1
1
1
1
1
1
1
1
1
1
1
1
1
1
1
1
1
1
1
1
1
1
1
1
1
1
1
1
1
1
1
1
1
1
1
1
1
1
1
1
1
1
1
1
1
1
1
1
1
1
1
1
1
1
1
1
1
1
1
1
1
1
1
1
1
1
1
1
1
1
1
1
1
1
1
1
1
1
1
1
1
1
1
1
1
1
1
1
1
1
1
1
1
1
1
1
1
1
1
1
1
1
1
1
1
1
1
1
1
1
1
1
1
1
1
1
1
1
1
1
1
1
1
1
1
1
1
1
1
1
1
1
1
1
1
1
1
1
1
1
1
1
1
1
1
1
1
1
1
1
1
1
1
1
1
1
1
1
1
1
1
1
1
1
1
1
1
1
1
1
1
1
1
1
1
1
1
1
1
1
1
1
1
1
1
1
1
1
1
1
1
1
1
1
1
1
1
1
1
1
1
1
1
1
1
1
1
1
1
1
1
1
1
1
1
1
1
1
1
1
1
1
1
1
1
1
1
1
1
1
1
1
1
1
1
1
1
1
1
1
1
)
;

boundaryField
{
    inlet
    {
        type            fixedValue;
        value           nonuniform 0();
    }
    outlet
    {
        type            inletOutlet;
        inletValue      nonuniform 0();
        value           nonuniform 0();
    }
    bottom
    {
        type            slip;
    }
    top
    {
        type            slip;
    }
    obstacle
    {
        type            zeroGradient;
    }
    defaultFaces
    {
        type            empty;
    }
    procBoundary33to26
    {
        type            processor;
        value           nonuniform List<scalar> 
13
(
1
1
1
1
1
1
1
1
1
1
1
1
1
)
;
    }
    procBoundary33to27
    {
        type            processor;
        value           nonuniform List<scalar> 
19
(
1.110869069
1.114464567
1.1142395
1.112823414
1.108616578
1.100879785
1.089944709
1.076821405
1
1
1.000000074
1.000002238
1.000077927
1.000714871
1.005678717
1.021929022
1.053189626
1.089108279
1.089108279
)
;
    }
    procBoundary33to32
    {
        type            processor;
        value           nonuniform List<scalar> 
17
(
1
1
1
1
1
1
1
1
1
1
1
1
1
1
1
1
1
)
;
    }
    procBoundary33to34
    {
        type            processor;
        value           nonuniform List<scalar> 
32
(
1.07656038
1.088376515
1.098262531
1.10552846
1.109654065
1.111188058
1.110237127
1.107479362
1.105594647
1.089207606
1.055684319
1.023980134
1.006532767
1.001206311
1.000145598
1.000012338
1.000000688
1.000000026
1.000000001
1
1
1
1
1
1
1
1
1
1
1
1
1
)
;
    }
}


// ************************************************************************* //
