/*--------------------------------*- C++ -*----------------------------------*\
  =========                 |
  \\      /  F ield         | OpenFOAM: The Open Source CFD Toolbox
   \\    /   O peration     | Website:  https://openfoam.org
    \\  /    A nd           | Version:  7
     \\/     M anipulation  |
\*---------------------------------------------------------------------------*/
FoamFile
{
    version     2.0;
    format      ascii;
    class       volScalarField;
    location    "0.4";
    object      T;
}
// * * * * * * * * * * * * * * * * * * * * * * * * * * * * * * * * * * * * * //

dimensions      [0 0 0 1 0 0 0];

internalField   nonuniform List<scalar> 
555
(
1
1
1
1
1
1
1
1
1
1
1
1
1
1
1
1
1
1
1
1
1
1
1
1
1
1
1
1
1
1
1
1
1
1
1
1
1
1
1
1
1
1
1
1
1
1
1.000000002
1.00000006
1
1
1
1
1
1
1
1
1
1
1
1
1
1.000000022
1.000000596
1.000009451
1
1
1
1
1
1
1
1
1
1
1
1.000000004
1.000000162
1.000003624
1.000046503
1.000365486
1
1
1
1
1
1
1
1
1
1
1.000000027
1.000000792
1.000014287
1.0001579
1.001043457
1.004462823
1
1
1
1
1
1
1
1
1.000000003
1.000000118
1.000003014
1.000044083
1.000400857
1.002280655
1.008528876
1.02112786
1
1
1
1
1
1
1
1.000000011
1.000000383
1.000008284
1.000106716
1.000862158
1.004204379
1.013687265
1.030100295
1.050624638
1
1
1
1
1
1.000000001
1.000000033
1.000000978
1.000018244
1.00021
1.001488878
1.006797791
1.020148605
1.039348344
1.058408935
1.070961535
1
1
1
1
1.000000002
1.000000073
1.000001958
1.000033833
1.000349048
1.002325299
1.009483124
1.02640774
1.047658704
1.065893039
1.080137553
1.082184174
1
1
1
1.000000004
1.000000133
1.000003407
1.000050783
1.000527607
1.003153664
1.012875962
1.030712455
1.05624364
1.075948927
1.082664183
1.083505026
1.083087753
1
1
1.000000007
1.000000235
1.000004915
1.00007605
1.000668679
1.004207863
1.015087538
1.038023246
1.062896718
1.075543479
1.084172942
1.087118815
1.086238604
1.084263199
1
1.000000011
1.000000321
1.000007291
1.000092304
1.000903369
1.004803671
1.018908801
1.041390402
1.065229125
1.085881262
1.089920342
1.090007712
1.089283943
1.087563024
1.084625383
1.000000014
1.000000439
1.000008047
1.000118972
1.000955437
1.006049326
1.019862076
1.046803203
1.074977578
1.088241977
1.091455498
1.092389814
1.091184648
1.089228668
1.085849429
1.080381054
1.000000484
1.000009834
1.000118825
1.00112791
1.005895516
1.022565082
1.052078834
1.073954204
1.089416559
1.095153742
1.094607803
1.093461482
1.091236887
1.087064704
1.08083643
1.073164122
1.000009803
1.000134636
1.001091061
1.006552698
1.023091216
1.050614416
1.081593377
1.095971188
1.098565555
1.097830311
1.095973115
1.093417001
1.088911524
1.082083872
1.073605767
1.064844899
1.000126415
1.001167922
1.006468627
1.023752744
1.054524303
1.082540296
1.093278409
1.099098064
1.099754449
1.09811418
1.094894077
1.089807759
1.082815618
1.074292323
1.065172857
1.056269575
1.001129869
1.006409455
1.024495864
1.05428085
1.083604385
1.101115825
1.101800822
1.101310584
1.099619757
1.096405062
1.090750183
1.083282441
1.074628353
1.065200691
1.055775151
1.047116607
1.00648118
1.02352036
1.055605519
1.089316183
1.097523638
1.102368418
1.103151713
1.101583708
1.098087592
1.091931052
1.083670223
1.074589255
1.06537822
1.055803974
1.046692189
1.03793701
1.024466448
1.054964463
1.083426159
1.10504107
1.106163355
1.105678069
1.103732162
1.099804556
1.093154589
1.084445208
1.074904105
1.065669221
1.056014851
1.046323988
1.037166303
1.027911654
1.056163961
1.089543758
1.100554814
1.105861413
1.107784999
1.106551519
1.102532226
1.095250637
1.086209768
1.075992678
1.065970412
1.056109602
1.045981581
1.036551191
1.026956242
1.018374554
1.082854354
1.105425956
1.109141459
1.108599325
1.107965953
1.104807613
1.097524177
1.087876239
1.077069602
1.066242726
1.055938152
1.045677003
1.036254602
1.026085966
1.017108129
1.007857855
1.102238267
1.107085858
1.109790554
1.109219338
1.106390345
1.099713145
1.090041984
1.078791033
1.067206197
1.056092615
1.045319163
1.035772462
1.025107969
1.015212423
1.006504683
0.9971952873
1.110426483
1.110148782
1.10963386
1.107081664
1.101047036
1.091848823
1.08071055
1.0687273
1.057153783
1.045161609
1.034883595
1.02451944
1.014084404
1.00507807
0.9957727068
0.9864567736
1.110580666
1.11028462
1.107905414
1.102093349
1.093272143
1.08245238
1.070169617
1.058402541
1.04563465
1.034184158
1.023791494
1.013153036
1.003167343
0.9934557462
0.9843365094
0.9750708936
1.111007874
1.108734793
1.103150798
1.094507239
1.083861925
1.071413181
1.059333801
1.046729477
1.034060093
1.022454782
1.011679638
1.001334946
0.9909984266
0.9822453581
0.9728054346
0.9643527604
1.109613183
1.104279554
1.095742011
1.08519861
1.072740846
1.060018363
1.047498571
1.034695201
1.021568265
1.010051318
0.9997688668
0.9888704544
0.9798327611
0.9706910138
0.9614775514
0.9534075945
1.105150256
1.096788073
1.086261085
1.073874391
1.060828817
1.047670132
1.035097808
1.02156409
1.008598816
0.9981416405
0.9869309734
0.9767536021
0.9679652138
0.9585770887
0.9500928347
0.9425846405
1.097704951
1.087167056
1.074893971
1.061814726
1.04786197
1.034729342
1.02172669
1.007668941
0.9963584824
0.9850017535
0.974022493
0.9651158634
0.9560191199
0.9467483957
0.9386102526
0.9312841087
1.088051948
1.075565932
1.062431808
1.048450128
1.034001976
1.021285696
1.007304126
0.9945492706
0.9830492371
0.9711001207
0.9617426347
0.9531324217
0.9435534498
0.9346696304
0.9275923813
0.9199091492
1.076189704
1.062628635
1.048831003
1.03345939
1.020214623
1.006677347
0.9928138939
0.9810787331
0.9690402193
0.9587380338
0.9494933708
0.9399661469
0.93025629
0.9227445246
0.9166142858
0.9090070194
1.062603964
1.048519514
1.033416493
1.018689402
1.005235186
0.9910099296
0.9785494107
0.9669511055
0.9551615024
0.9454252109
0.9363085635
0.9272839301
0.9190292027
0.9118314578
0.9044088679
0.89654863
1.047709451
1.033025109
1.017064597
1.003486051
0.9892370641
0.9758732405
0.9647241399
0.9517416327
0.9408224356
0.9313064831
0.9227003926
0.9152000022
0.9074418319
0.9005482597
0.8923794732
0.8843309724
1.03176834
1.015176532
1.000773783
0.9866586176
0.9723768669
0.9607102774
0.9488806293
0.9378153805
0.9277972989
0.91910505
0.9100701296
0.9015453533
0.893742189
0.8858058499
0.8792817438
0.8714700368
1.013452423
0.9975918804
0.9839674101
0.96976467
0.9565007617
0.9456702752
0.9331193172
0.9221176476
0.9133687055
0.9046422254
0.8970185796
)
;

boundaryField
{
    inlet
    {
        type            fixedValue;
        value           nonuniform 0();
    }
    outlet
    {
        type            inletOutlet;
        inletValue      nonuniform 0();
        value           nonuniform 0();
    }
    bottom
    {
        type            slip;
    }
    top
    {
        type            slip;
    }
    obstacle
    {
        type            zeroGradient;
    }
    defaultFaces
    {
        type            empty;
    }
    procBoundary4to3
    {
        type            processor;
        value           nonuniform List<scalar> 
30
(
1
1
1
1
1
1
1
1
1
1
1
1
1
1
1.000000018
1.000000536
1.000010103
1.000124639
1.001084135
1.006127819
1.022626716
1.055251498
1.090564999
1.105299129
1.108357332
1.1115419
1.111780798
1.110190313
1.105883666
1.098641989
)
;
    }
    procBoundary4to5
    {
        type            processor;
        value           nonuniform List<scalar> 
34
(
1
1.000000003
1.000001207
1.000092119
1.001857415
1.012666534
1.038114501
1.063299175
1.076678311
1.081435261
1.081523395
1.082072312
1.079955099
1.073207757
1.064793778
1.056484093
1.047496138
1.038382807
1.028941756
1.019137279
1.009364586
0.9981644203
0.9885614883
0.9775183161
0.9671943587
0.9565253589
0.9455243342
0.9345603223
0.9226808909
0.9116916701
0.9016712694
0.8894146953
0.8779788816
0.8648556791
)
;
    }
    procBoundary4to9
    {
        type            processor;
        value           nonuniform List<scalar> 5(1.089135117 1.076997484 1.062786564 1.046974966 1.029660946);
    }
    procBoundary4to10
    {
        type            processor;
        value           nonuniform List<scalar> 
17
(
0.8877954337
0.8802512157
0.8738586316
0.8674666233
0.8631801229
0.9934265405
0.9798361601
0.9655839112
0.9517629341
0.9411716524
0.9295086853
0.918852469
0.9075201373
0.8981836593
0.8888958877
0.8877954337
0.8821831484
)
;
    }
}


// ************************************************************************* //
