/*--------------------------------*- C++ -*----------------------------------*\
  =========                 |
  \\      /  F ield         | OpenFOAM: The Open Source CFD Toolbox
   \\    /   O peration     | Website:  https://openfoam.org
    \\  /    A nd           | Version:  7
     \\/     M anipulation  |
\*---------------------------------------------------------------------------*/
FoamFile
{
    version     2.0;
    format      ascii;
    class       volScalarField;
    location    "4";
    object      rho;
}
// * * * * * * * * * * * * * * * * * * * * * * * * * * * * * * * * * * * * * //

dimensions      [1 -3 0 0 0 0 0];

internalField   nonuniform List<scalar> 
2222
(
1.40000504
1.40000504
1.40000504
1.400005041
1.400005105
1.400017611
1.400490429
1.427781442
1.720672132
2.67346068
3.950651555
4.552015059
4.504570562
4.358976822
4.240077958
4.14413991
4.047593612
3.943582892
3.839438333
3.738535359
3.640749053
3.549001105
3.465260982
3.388050807
3.317533625
3.25209984
3.187021229
3.118233687
3.045611087
2.972963125
2.90394224
2.839541401
1.40000504
1.40000504
1.40000504
1.400005052
1.40000606
1.400158393
1.404076451
1.525798526
2.02787338
2.496236378
3.14721797
3.89900287
4.283614601
4.317729527
4.230698312
4.143926305
4.057294066
3.957059321
3.84977865
3.749014953
3.655825855
3.567116721
3.485634717
3.41064861
3.341513164
3.276036153
3.209489277
3.139403834
3.06626619
2.993267784
2.924077615
2.859941199
1.40000504
1.40000504
1.400005041
1.400005182
1.400018425
1.401454252
1.427665877
1.764207502
2.406898471
2.523921765
2.67380636
3.300334013
4.014289799
4.212847779
4.218255839
4.146277979
4.042892071
3.933876025
3.832073677
3.733969867
3.640318276
3.551543122
3.469353642
3.394594848
3.325308628
3.258307483
3.190226513
3.119654684
3.04635065
2.971968928
2.900887826
2.838457175
1.40000504
1.40000504
1.400005052
1.400007369
1.400219251
1.41132502
1.552700879
2.098840837
2.577800041
2.606233756
2.618318032
2.748214118
3.319366593
3.884733722
4.163346465
4.136520367
4.053535807
3.948113419
3.84724484
3.749362001
3.653359946
3.559852888
3.473166049
3.398994001
3.327721574
3.254067397
3.182388887
3.111608072
3.039529307
2.966289376
2.894363428
2.830378881
1.40000504
1.400005042
1.400005452
1.400062225
1.403378504
1.470909511
1.874139036
2.445885734
2.570302516
2.623382689
2.610318772
2.597882909
2.733117306
3.378929689
3.993010702
4.087519717
4.01543456
3.923873982
3.828449033
3.725548077
3.621844247
3.525606125
3.444128868
3.372810512
3.307515542
3.242945514
3.176355613
3.10807676
3.037488998
2.965487439
2.894934549
2.830549756
1.400005041
1.400005161
1.400021163
1.401165646
1.434698904
1.69006352
2.274696857
2.625447525
2.626690608
2.614658226
2.587030124
2.534540349
2.519522114
2.739688513
3.394028216
3.925239955
3.984479392
3.936131919
3.838106511
3.726268905
3.61237833
3.514118796
3.432434551
3.36052704
3.297118978
3.24059911
3.183481495
3.11846236
3.048976607
2.978489607
2.909145291
2.839731392
1.400005069
1.400009123
1.400327515
1.413038598
1.594587545
2.060886998
2.560603005
2.650574003
2.639834006
2.598163057
2.559389603
2.504232963
2.443617023
2.458608719
2.778681062
3.506636946
3.903043863
3.894427076
3.812837667
3.70626231
3.600554863
3.508985297
3.427441631
3.355088286
3.288471082
3.222566654
3.155922025
3.09036701
3.02331643
2.954618653
2.886346914
2.820385726
1.400005738
1.40007173
1.40340874
1.482864594
1.938911128
2.410083094
2.646378989
2.647537828
2.620582669
2.575426945
2.533913206
2.484232673
2.423466563
2.39189061
2.435335038
2.826634735
3.483924153
3.803486814
3.783452807
3.698220436
3.596629819
3.506813691
3.423679696
3.34860919
3.278752152
3.210966722
3.14489787
3.079917208
3.014281385
2.946712038
2.87804178
2.812448116
1.400014678
1.400714522
1.422196114
1.717828156
2.279420525
2.592798963
2.657508876
2.643625569
2.599950303
2.551360468
2.511834438
2.46134323
2.417377569
2.366673514
2.350292916
2.415907206
2.901882343
3.57895447
3.722793267
3.676019622
3.593276474
3.506241979
3.419360073
3.34167003
3.270626641
3.202815823
3.137207098
3.072176647
3.006268452
2.938689831
2.870322331
2.804764417
1.400110837
1.405752586
1.509494328
2.095100347
2.50202377
2.648473111
2.660102454
2.633211222
2.575532721
2.522833284
2.487662358
2.437452246
2.395692886
2.351798284
2.308356009
2.300063182
2.422890441
2.94894753
3.464012281
3.626479419
3.585474675
3.501740683
3.414128448
3.335275092
3.26287773
3.19490901
3.129639016
3.06436819
2.9978546
2.930160308
2.862749564
2.79922106
1.401215089
1.4365287
1.77995405
2.41894566
2.597326769
2.661578569
2.661954137
2.620204427
2.550685205
2.495452168
2.46142406
2.417224683
2.36785197
2.334520329
2.290950504
2.250104375
2.254458864
2.423760072
3.032003374
3.512788185
3.557876252
3.494784067
3.416861928
3.335278533
3.259052523
3.189200346
3.12334948
3.058185765
2.991629891
2.923004485
2.855750103
2.793893372
1.412714846
1.570923401
2.214701636
2.57976907
2.622341488
2.651066738
2.653079945
2.603439865
2.52818626
2.469676783
2.434695297
2.396202081
2.346059195
2.307950479
2.275771051
2.232008819
2.196188627
2.207759068
2.457704998
3.045161967
3.45503633
3.469649911
3.42478371
3.338665703
3.256443533
3.18414218
3.116537869
3.052241092
2.987628887
2.918811954
2.850937946
2.788520383
1.492271701
1.895137102
2.555678778
2.652050229
2.639008542
2.635288904
2.625206071
2.574158135
2.504276135
2.446461503
2.409331476
2.373852267
2.324951853
2.284350144
2.251225561
2.216925535
2.173253649
2.146430058
2.177600127
2.539234732
3.191428492
3.416750683
3.390520884
3.328195245
3.259257824
3.185038039
3.110559698
3.039141174
2.974297093
2.911308225
2.846923367
2.785962643
1.757520762
2.319147619
2.673707415
2.676280639
2.651367162
2.613945654
2.588243407
2.540994
2.480690694
2.425483577
2.383763073
2.349911406
2.30332267
2.262063802
2.226083741
2.19643244
2.156595253
2.114588106
2.098668513
2.183402359
2.62428762
3.151318065
3.336294166
3.325961196
3.275660728
3.193278235
3.106178473
3.028734784
2.962419244
2.904714909
2.850812814
2.794415285
2.139822392
2.604612331
2.688640158
2.676834025
2.648227938
2.594950714
2.553559972
2.508974522
2.457256951
2.405724778
2.360867971
2.326400713
2.283912059
2.23814885
2.205519119
2.171984361
2.138914117
2.094384708
2.05683208
2.060292037
2.192022571
2.738245112
3.219664586
3.291878489
3.241908026
3.170202598
3.093994069
3.020483415
2.952743878
2.888032432
2.826870348
2.771408729
2.458962559
2.684566871
2.688853563
2.665073478
2.624005968
2.569868427
2.523409988
2.479714356
2.43404921
2.386059279
2.339903173
2.302643762
2.262493719
2.215856033
2.182951168
2.151480933
2.114867064
2.078014693
2.036500701
2.011783882
2.022562875
2.239996383
2.774506318
3.175054102
3.203703316
3.162534457
3.08930226
3.013307702
2.941097795
2.875783985
2.818361981
2.765478226
2.614806121
2.696615524
2.684473897
2.644333544
2.595182001
2.542901644
2.495806415
2.452556905
2.409057079
2.363848905
2.317933521
2.280135714
2.24034006
2.195510914
2.159922075
2.130888394
2.092725001
2.053649925
2.022030248
1.990347339
1.969620235
1.993642154
2.295375525
2.906549217
3.14668423
3.138297322
3.082645778
3.010583721
2.935827886
2.872551378
2.817818907
2.765144814
2.667567277
2.70194888
2.679194517
2.623362619
2.567341133
2.516297393
2.468660745
2.425802175
2.383241899
2.340015263
2.295218969
2.25702599
2.216909444
2.172737189
2.138828287
2.108399389
2.072479743
2.028984733
2.001038264
1.972800428
1.942631992
1.922866117
1.989479141
2.372310315
2.864251311
3.074882681
3.066108472
3.018063486
2.944408079
2.882437446
2.827827596
2.774152866
2.683949498
2.698419898
2.668018834
2.599691991
2.538669676
2.489561622
2.442298931
2.400373692
2.358163452
2.31450479
2.270971423
2.232523277
2.193538226
2.150145309
2.117627985
2.087502724
2.051040804
2.009396255
1.976414378
1.955815177
1.923867908
1.885706545
1.883117631
1.984644571
2.470969597
2.978114442
3.024795498
2.979641573
2.917283478
2.861225398
2.80162848
2.744508659
2.669176263
2.676479598
2.644932164
2.576375873
2.513326114
2.46228598
2.4152159
2.375102171
2.333734826
2.288792168
2.24667873
2.209251075
2.171079336
2.12866347
2.09580344
2.066999409
2.029840297
1.988639817
1.956176601
1.932275169
1.908661512
1.867377062
1.838862143
1.847013607
2.048495405
2.588078549
2.86906863
2.944144923
2.914388104
2.854669334
2.78871615
2.732214615
2.661470145
2.64517384
2.610806855
2.550603628
2.489826443
2.437186156
2.389271306
2.349933485
2.309942068
2.263908417
2.221944605
2.185253164
2.147566981
2.106287544
2.074087062
2.045003662
2.009117484
1.966021514
1.936607136
1.91006913
1.888388071
1.853680693
1.814901583
1.801055985
1.836408003
2.126456925
2.656797723
2.908251297
2.902956543
2.84473778
2.7809429
2.726241709
2.662215757
2.616219667
2.575755641
2.524965559
2.468874226
2.414194475
2.363457505
2.323530799
2.285264359
2.239076277
2.197560721
2.161856763
2.124791552
2.08336132
2.051822389
2.022227569
1.988378454
1.945432688
1.914811304
1.891182592
1.865122152
1.835785183
1.798904835
1.773374303
1.770477328
1.843267471
2.223783661
2.704649065
2.828115072
2.823014316
2.78166232
2.725671079
2.645025075
2.589247381
2.544611416
2.499558945
2.447146219
2.390587073
2.337586637
2.297481958
2.260924795
2.214464191
2.172875154
2.137919545
2.10203543
2.061252838
2.029834938
2.000195297
1.966453387
1.924382686
1.89264899
1.870658681
1.845245168
1.812963229
1.784554244
1.75531096
1.736747271
1.741127919
1.869816364
2.328639379
2.728012333
2.805668943
2.783381706
2.736242263
2.617102859
2.562758943
2.515716386
2.473343584
2.424610828
2.367588852
2.31328566
2.272287886
2.236136542
2.189930609
2.148547945
2.114007746
2.079040467
2.038699531
2.006704095
1.977729293
1.944620989
1.903149073
1.872945638
1.849566149
1.826804699
1.793004328
1.763652803
1.742040828
1.717385241
1.700643105
1.716111827
1.932525676
2.402126579
2.732142447
2.738914034
2.708165502
2.592424282
2.538648629
2.487465786
2.445807076
2.400240904
2.344290509
2.28954967
2.247813209
2.211805067
2.165756251
2.123653261
2.089476898
2.055476965
2.015642444
1.983483649
1.954876314
1.922762764
1.881334534
1.852018135
1.828677992
1.806241339
1.775062323
1.741678113
1.724637228
1.701872597
1.674991437
1.663033937
1.704340828
2.013171042
2.524476113
2.697491013
2.68746349
2.563439301
2.513166955
2.459915071
2.418304589
2.375348815
2.320361305
2.264550772
2.222200533
2.186121785
2.140446016
2.098188425
2.064467207
2.031949588
1.992875013
1.960751245
1.932464957
1.901211744
1.860555357
1.830911063
1.808692809
1.78552692
1.756044631
1.724211022
1.702568401
1.686857396
1.658062481
1.631196986
1.631253067
1.725595654
2.119666599
2.529429231
2.632229147
2.533225564
2.486166671
2.432544949
2.390608434
2.349057058
2.29452768
2.23816497
2.196482608
2.161355721
2.117367927
2.074882943
2.04089699
2.008945662
1.970063474
1.937770477
1.910294859
1.879983762
1.840376177
1.810343039
1.788229892
1.76563245
1.735888486
1.707095889
1.683400944
1.667282348
1.644638521
1.610872027
1.596698527
1.610070331
1.763909942
2.223778527
2.56907391
2.50511603
2.458668794
2.405099478
2.362917894
2.322244073
2.269392121
2.213328695
2.171917045
2.136625334
2.09260527
2.049408408
2.015540843
1.984556123
1.94668323
1.914694023
1.888002535
1.858488149
1.819340219
1.789455198
1.766647327
1.745294469
1.715963181
1.686962523
1.666281872
1.646411001
1.627172314
1.597331921
1.573684408
1.568514798
1.597159658
1.854414963
2.30226686
2.477839134
2.430049665
2.376087135
2.334088948
2.294862146
2.243163304
2.186458478
2.145801528
2.111286841
2.068766802
2.025506419
1.991348214
1.960744343
1.9237106
1.892002219
1.866133543
1.837829075
1.799310977
1.769095774
1.745923238
1.724602553
1.696850311
1.667120637
1.648561262
1.628915892
1.6059635
1.583079438
1.557060503
1.542523517
1.542525502
1.605587828
1.941601601
2.452048658
2.402541504
2.347605221
2.305087249
2.266155082
2.216050818
2.16060175
2.121484316
2.087863911
2.045932533
2.00093796
1.966227408
1.936004199
1.89974064
1.868933555
1.843889113
1.816901642
1.779420619
1.748569808
1.725604242
1.703642354
1.677398594
1.64818872
1.629075471
1.612204617
1.587141943
1.563316001
1.544525278
1.525103172
1.51236293
1.517539629
1.642645236
2.426546871
2.374986529
2.317979677
2.27504831
2.237341334
2.189450241
2.135080709
2.096783143
2.06344652
2.022270871
1.976374024
1.94118373
1.911124849
1.875670173
1.845905889
1.821810701
1.796238028
1.760433014
1.72865977
1.705442144
1.683036346
1.657099638
1.629355604
1.610335161
1.594324043
1.570890201
1.543708744
1.528699896
1.511373124
1.493005034
1.481024454
1.502513187
2.400843651
2.348461939
2.289635029
2.245330908
2.207788362
2.161252445
2.108138364
2.071422174
2.039211141
1.99979476
1.952789596
1.91700347
1.887031161
1.851813691
1.822832377
1.799497169
1.775177398
1.741424726
1.7092337
1.685728746
1.663275485
1.637247578
1.610099534
1.592081033
1.575664508
1.554028087
1.528050244
1.509163069
1.496906999
1.476982406
1.456177919
1.452923125
2.375191287
2.322955339
2.262453871
2.216423149
2.178667096
2.133284643
2.081001681
2.045537605
2.014284904
1.97634444
1.929198292
1.892970634
1.862802643
1.827673335
1.799332444
1.776810314
1.753705188
1.722616893
1.690299011
1.666457182
1.643867081
1.617509871
1.590444087
1.573647367
1.557627845
1.536458398
1.51319815
1.492269669
1.479736356
1.464428743
1.439593826
1.424361694
2.347730896
2.295931892
2.234779986
2.187409441
2.149706672
2.105427829
2.053832825
2.019746359
1.989750643
1.953946569
1.907170342
1.87046434
1.840116785
1.804856704
1.776560528
1.754362601
1.732024996
1.703347983
1.671449285
1.647679037
1.6249122
1.598332217
1.57143143
1.554467959
1.539261197
1.518459224
1.496333479
1.477529577
1.460533346
1.448402984
1.425574787
1.403353304
2.320055053
2.269288417
2.207920281
2.159440437
2.121499399
2.078413075
2.026962053
1.993346574
1.964339708
1.929892651
1.884273808
1.84779552
1.817450587
1.782188556
1.753644131
1.731683172
1.709797804
1.683647374
1.652477813
1.628944899
1.606270972
1.579334813
1.552715933
1.535176921
1.520567361
1.501147616
1.478768442
1.462078133
1.443820092
1.429874477
1.412871053
1.38867917
2.290354609
2.240663903
2.18038121
2.132120158
2.094649573
2.052831867
2.000830675
1.96677745
1.938320044
1.905298438
1.861529873
1.825649837
1.795681741
1.760719867
1.731283937
1.709054093
1.687165482
1.662671254
1.632683359
1.609823709
1.587699481
1.560693406
1.534051291
1.515989996
1.501143248
1.483438102
1.46181259
1.445562841
1.429171322
1.412137842
1.3957441
1.376420278
2.259229132
2.211260012
2.153208195
2.106124955
2.068746149
2.028119879
1.975360518
1.939903953
1.911877309
1.879885626
1.838407555
1.803682837
1.774140542
1.739525283
1.708962978
1.686414774
1.664374601
1.641416003
1.612961364
1.590781978
1.569359494
1.54266631
1.515984517
1.497564512
1.48201152
1.465171121
1.445206108
1.428072701
1.413187273
1.395550264
1.376397766
1.36218587
2.228366579
2.182107705
2.126419936
2.080737414
2.043320307
2.003812553
1.950902706
1.913532583
1.885427924
1.854185683
1.814743836
1.780979554
1.752014717
1.718782018
1.687344403
1.664253369
1.64197564
1.619524625
1.592165609
1.57088556
1.550277241
1.524497929
1.497451055
1.478488229
1.462548169
1.446416904
1.428409277
1.41200114
1.397129077
1.381268796
1.360240975
1.344338019
2.197492649
2.152118379
2.097628287
2.053565256
2.016678094
1.978772682
1.927121414
1.887277666
1.85885324
1.827916969
1.79020687
1.757842733
1.729648391
1.698000372
1.665849218
1.642174775
1.619608504
1.597473343
1.571401758
1.551118346
1.53136899
1.506687179
1.479894059
1.460473858
1.444237963
1.428461558
1.410809853
1.395427438
1.379754671
1.364583078
1.344365884
1.325393448
2.165931544
2.120771062
2.06737528
2.025282477
1.98962851
1.953282072
1.90370635
1.861445469
1.832116635
1.801175089
1.764611678
1.733264363
1.705848453
1.676610515
1.644635239
1.620317245
1.597546285
1.575196394
1.549658728
1.530252726
1.511455969
1.488356479
1.462283752
1.442162078
1.425337272
1.409610979
1.392315539
1.378259222
1.363460885
1.348455792
1.32976277
1.310946625
2.134729453
2.08998396
2.03793487
1.997417374
1.962827756
1.927392007
1.88030512
1.836065947
1.805871689
1.774866167
1.739467574
1.709346806
1.682570765
1.655050002
1.623288247
1.598438479
1.575590478
1.553066626
1.528015949
1.509254366
1.49128543
1.469520917
1.444301524
1.423853623
1.406637998
1.391327268
1.37441685
1.360348694
1.346753543
1.331599877
1.312631558
1.295857446
2.104564242
2.060534918
2.009281249
1.968882303
1.934981461
1.899976845
1.855390617
1.810600867
1.779727876
1.748956905
1.71420365
1.684091758
1.657317505
1.631479912
1.601147602
1.576257136
1.55362204
1.531006467
1.506181717
1.487916255
1.470791384
1.450675723
1.426526163
1.405934243
1.388210763
1.372589535
1.355589844
1.341627294
1.329289038
1.315131293
1.296164229
1.280658787
2.075187877
2.031442549
1.979523479
1.937638257
1.904502784
1.870316578
1.828865045
1.785133125
1.754240854
1.723743117
1.689350273
1.659288788
1.632713236
1.608187482
1.579140603
1.554367243
1.532256407
1.509830454
1.485134461
1.466531584
1.449334563
1.429998019
1.406831194
1.386596429
1.369005095
1.353663653
1.337408447
1.323976016
1.312252923
1.299240835
1.280488017
1.264344398
2.046254941
2.001740851
1.949144793
1.905398925
1.873114511
1.840192093
1.801562014
1.759614589
1.72871394
1.698555593
1.664188439
1.633408189
1.606703505
1.58316496
1.555984955
1.531965961
1.510574914
1.488375549
1.463444668
1.44464397
1.427838541
1.410078728
1.388842902
1.368950851
1.351562894
1.336063317
1.319261695
1.305724213
1.294004932
1.281682716
1.264084427
1.247550365
2.015713143
1.971122698
1.919953394
1.874387635
1.842499787
1.810556866
1.773652592
1.733310068
1.702704791
1.673046574
1.639215688
1.608267411
1.581736633
1.558942589
1.532910373
1.509384177
1.488799214
1.467279673
1.4428106
1.423725086
1.406804305
1.389637121
1.369189301
1.349604476
1.332814117
1.317558683
1.300855616
1.288045954
1.277005292
1.265581607
1.249361392
1.233076427
1.984482037
1.940593828
1.89187267
1.844126156
1.811420292
1.779847966
1.74421525
1.706131319
1.676575525
1.648039371
1.61532367
1.583875857
1.557070707
1.53425105
1.508941916
1.486340746
1.466730383
1.446062644
1.422038907
1.402679794
1.385718989
1.369166725
1.350378078
1.331728186
1.315519595
1.300522358
1.283631361
1.270457727
1.259319777
1.247902642
1.232362476
1.217008922
1.95328724
1.910670506
1.864904893
1.815441409
1.781499343
1.750222507
1.71568542
1.678917873
1.649878238
1.622286853
1.59121844
1.559910819
1.532799909
1.509690715
1.484429999
1.462353551
1.443784812
1.424447792
1.401977513
1.382658233
1.365849454
1.349828065
1.331506769
1.312884803
1.2971555
1.282475886
1.265583528
1.252532363
1.241901896
1.231039113
1.21680792
1.202485011
1.921602905
1.879169938
1.835157531
1.784642841
1.749786158
1.719141509
1.685872268
1.650990734
1.623548392
1.597612925
1.568232554
1.536484256
1.50905963
1.485785134
1.461206859
1.440420749
1.422919961
1.404593908
1.382797281
1.362847554
1.345654497
1.329416598
1.311295284
1.293508107
1.278736012
1.264841454
1.248608974
1.235632018
1.22515756
1.214715704
1.201062946
1.187019658
1.889407092
1.846691088
1.804485143
1.755261232
1.720167934
1.690170205
1.658340645
1.624550583
1.597365399
1.571954701
1.543657095
1.512662428
1.485876883
1.462803321
1.438440108
1.417580922
1.400344035
1.382689374
1.362243589
1.342747443
1.326150808
1.310647328
1.293442901
1.276164311
1.261618871
1.247893942
1.231791629
1.218776338
1.208051429
1.197591799
1.184452356
1.170829136
1.855673249
1.813980094
1.774064175
1.726549087
1.691102776
1.661627087
1.630689644
1.597445805
1.570774763
1.546323257
1.519755074
1.489648993
1.463414006
1.440442547
1.416319207
1.396018986
1.379621531
1.363059018
1.343749245
1.323764826
1.306994495
1.291453712
1.274009608
1.256766036
1.242851115
1.229858914
1.214642656
1.202060216
1.191668309
1.181617764
1.16947344
1.15624044
1.822717409
1.781894053
1.743293237
1.698054164
1.663219602
1.634246512
1.604385544
1.571365673
1.544624767
1.520764338
1.49525357
1.466629759
1.441607601
1.419188694
1.395378388
1.374634122
1.358132322
1.341698641
1.322982877
1.303677365
1.287895753
1.273158722
1.256631036
1.240359913
1.227058161
1.214477626
1.19944863
1.186591267
1.17591154
1.165474174
1.153538136
1.14065627
1.790073844
1.75136205
1.714911262
1.671915287
1.636917966
1.607835808
1.578450869
1.545748753
1.519511556
1.496578243
1.472562113
1.444986307
1.420224584
1.397751041
1.373811152
1.352951478
1.336907389
1.321335448
1.304413658
1.285797403
1.270175881
1.255589661
1.239246929
1.22292994
1.209574741
1.197182917
1.182643878
1.170296595
1.160022502
1.149803936
1.138497919
1.126254426
1.759935665
1.721744031
1.685567181
1.643163165
1.608963168
1.580861238
1.55294075
1.521180135
1.494840513
1.472227395
1.448533082
1.421853768
1.398351397
1.376961472
1.354277171
1.333597938
1.317814986
1.302586706
1.28591932
1.267110954
1.251872254
1.237606711
1.221417758
1.205382394
1.192602577
1.180980188
1.167606328
1.155511276
1.14529139
1.135036053
1.123848057
1.111696655
1.729080046
1.691523137
1.656296896
1.615989834
1.58271282
1.555325387
1.528261174
1.497138573
1.471028904
1.449071631
1.426517381
1.401062604
1.377784702
1.356305272
1.333807964
1.31313074
1.297482475
1.282483584
1.266491211
1.248644888
1.234178734
1.220570232
1.205031421
1.189517299
1.177156774
1.165881043
1.15296949
1.141074693
1.131025379
1.120661684
1.109515824
1.097671796
1.699532302
1.662440005
1.62793942
1.588637538
1.556033936
1.529588753
1.503808079
1.473876679
1.447525435
1.425698361
1.403297109
1.378135856
1.355770196
1.335408161
1.314854225
1.295036083
1.279745224
1.265170894
1.249646894
1.231713835
1.217032557
1.203299002
1.187860495
1.172742083
1.160467361
1.149410165
1.137274079
1.126123855
1.116322291
1.106264949
1.09546989
1.083692914
1.669599269
1.633558589
1.600216275
1.563162686
1.531214331
1.505130311
1.479662177
1.450027388
1.42383273
1.402471513
1.381003552
1.35754994
1.33627954
1.316380091
1.296021035
1.27558102
1.260086408
1.245527605
1.230050131
1.212327203
1.198674473
1.186050153
1.171888338
1.157352919
1.145436439
1.134701103
1.123352798
1.112221512
1.102445883
1.092360181
1.081457512
1.069368232
1.605922603
1.573779314
1.537563213
1.505365327
1.479764083
1.455253925
1.427440136
1.401726619
1.380675435
1.359737685
1.336805708
1.315727193
1.295927835
1.276101971
1.256362939
1.241502705
1.227523194
1.21273951
1.196018787
1.182851801
1.17054536
1.156579945
1.142013975
1.130147538
1.119581748
1.108399398
1.097576878
1.088370725
1.07865473
1.068298691
1.056782016
1.578500858
1.547236798
1.512657416
1.480701944
1.455399299
1.431306019
1.403886388
1.37839075
1.357757864
1.337552222
1.315758404
1.295524059
1.276466909
1.257565672
1.2380122
1.223458286
1.209916797
1.195629604
1.17951381
1.166566812
1.154262151
1.140573579
1.126916408
1.115267524
1.104697144
1.093786105
1.083578345
1.074643175
1.065158303
1.054965301
1.043861321
1.550985227
1.520274562
1.486206896
1.454063629
1.42952385
1.406326387
1.380945311
1.356800703
1.336785459
1.317178204
1.295784319
1.275550181
1.256488775
1.237820396
1.218660485
1.204698783
1.191650143
1.177957633
1.162315943
1.149654485
1.137754063
1.124999458
1.111294797
1.099399799
1.088791051
1.078532562
1.068624204
1.060036617
1.050860256
1.040967426
1.029915094
1.522262103
1.49193893
1.459824326
1.428897191
1.405121988
1.382617766
1.357833766
1.333540202
1.313555888
1.294145345
1.273297082
1.253790542
1.235748746
1.218540173
1.200688288
1.187358416
1.174887956
1.161665978
1.14619024
1.133650774
1.122161831
1.109507654
1.095737689
1.084340516
1.074512055
1.064921975
1.055146568
1.047115404
1.038520799
1.0294892
1.01872214
1.494091096
1.464739307
1.433783724
1.402872697
1.379506554
1.357402922
1.33360843
1.310512437
1.291559845
1.273330368
1.253611843
1.234724675
1.217029636
1.200184333
1.182523215
1.169346886
1.156978251
1.143807055
1.128995317
1.116938975
1.10567139
1.093369222
1.080784474
1.070060098
1.060440448
1.050779709
1.041504577
1.033579964
1.025306734
1.016078354
1.006055528
1.464679602
1.435797422
1.406522386
1.377127558
1.354696998
1.333470548
1.310597113
1.287562615
1.268758579
1.251058954
1.232088803
1.21390882
1.196890324
1.180727521
1.163608571
1.150735444
1.138627501
1.126019603
1.111645223
1.099827918
1.088708244
1.077274141
1.065263956
1.0544192
1.044366816
1.034962177
1.025874038
1.018161071
1.010018431
1.001445219
0.9911934585
1.436511564
1.409015963
1.381051686
1.351553987
1.329174962
1.308199874
1.285888847
1.263722584
1.245942269
1.229259983
1.211309569
1.193734917
1.177257057
1.16157974
1.144643825
1.131816244
1.12023574
1.108126236
1.094087192
1.082784727
1.072791091
1.062374325
1.050694681
1.04021504
1.030864424
1.022353717
1.01320897
1.006103323
0.9986453975
0.9909294212
0.9814076293
1.407549457
1.380268619
1.352836409
1.324161214
1.30286443
1.283049546
1.262428382
1.241491961
1.224349055
1.208387069
1.191226467
1.174361133
1.158272309
1.142763582
1.126066974
1.11389795
1.102881179
1.09134556
1.07838125
1.067719608
1.058013449
1.04764761
1.036301588
1.026089111
1.017189007
1.008391526
0.9998705935
0.9928125016
0.9861220518
0.9779571404
0.9686786052
1.378674326
1.352858144
1.327167166
1.299325109
1.278455612
1.259245989
1.239375766
1.218792814
1.201720516
1.18595843
1.169578231
1.153369723
1.137666371
1.12257501
1.106546688
1.094855987
1.084026992
1.072872137
1.060383439
1.049840703
1.039870095
1.02971473
1.018765603
1.008898942
0.9998343425
0.9916653585
0.9831023252
0.9768050475
0.9700140167
0.961605527
0.9513380417
1.350138311
1.324240617
1.298750043
1.271377104
1.251504902
1.233590118
1.215228159
1.195639436
1.179306412
1.164319013
1.148417286
1.13228917
1.117146917
1.102907819
1.087936667
1.076666491
1.066477951
1.055848447
1.043917834
1.033446444
1.024119391
1.014781866
1.004414144
0.9952877302
0.9872616663
0.9801344926
0.9720957612
0.9661855814
0.9598885201
0.9509520627
0.9415292832
1.320097621
1.295679153
1.272188085
1.246791629
1.227700772
1.210303398
1.192511096
1.173327884
1.157359554
1.142938068
1.127467962
1.112275373
1.098298863
1.085197427
1.071063164
1.060306907
1.050571231
1.040449428
1.02893207
1.018678348
1.009677384
1.000582584
0.9908386423
0.9820908179
0.9751006619
0.9674850983
0.9595111781
0.9528327472
0.9467683229
0.9379027105
0.9357888002
1.292184966
1.268421871
1.245921049
1.221472752
1.203248438
1.18665708
1.169566593
1.151077663
1.135286188
1.12085768
1.106116326
1.091888504
1.078410727
1.065507014
1.051725966
1.041129055
1.031203043
1.020928554
1.009310343
0.9993487491
0.9904353405
0.9821199102
0.9726051527
0.964916108
0.9579848921
0.9505386424
0.9414161819
0.9386716667
0.9360759585
0.9340022977
0.9350383651
1.26333692
1.240300682
1.218733211
1.19539934
1.177742093
1.161972317
1.145807227
1.127744743
1.112302027
1.098625013
1.084709642
1.070913904
1.057934268
1.045597782
1.03291298
1.022698304
1.013714565
1.004336377
0.9938941467
0.9844666938
0.9767719683
0.9692127874
0.960488016
0.9537529275
0.9480485154
0.9405531247
0.9342048766
0.9348643545
0.9353457452
0.9382069619
0.9674001137
1.234799265
1.21357187
1.193717372
1.171512142
1.154352672
1.139273266
1.123846565
1.106509999
1.092273493
1.07991739
1.066882046
1.053726468
1.0415568
1.030202176
1.017880362
1.007868196
0.9993117745
0.9906436409
0.9808454103
0.9720798361
0.9649960492
0.9575109544
0.9487758821
0.9423033963
0.9376241673
0.9305930817
0.9295456873
)
;

boundaryField
{
    inlet
    {
        type            calculated;
        value           nonuniform 0();
    }
    outlet
    {
        type            calculated;
        value           nonuniform 0();
    }
    bottom
    {
        type            calculated;
        value           nonuniform List<scalar> 
32
(
1.40000504
1.40000504
1.40000504
1.400005041
1.400005105
1.400017611
1.400490429
1.427781442
1.720672132
2.67346068
3.950651555
4.552015059
4.504570562
4.358976822
4.240077958
4.14413991
4.047593612
3.943582892
3.839438333
3.738535359
3.640749053
3.549001105
3.465260982
3.388050807
3.317533625
3.25209984
3.187021229
3.118233687
3.045611087
2.972963125
2.90394224
2.839541401
)
;
    }
    top
    {
        type            calculated;
        value           nonuniform 0();
    }
    obstacle
    {
        type            calculated;
        value           nonuniform 0();
    }
    defaultFaces
    {
        type            empty;
    }
    procBoundary4to3
    {
        type            processor;
        value           nonuniform List<scalar> 
62
(
1.40000504
1.40000504
1.40000504
1.40000504
1.40000504
1.40000504
1.40000504
1.400005046
1.400005134
1.400006208
1.400020749
1.400291033
1.404734375
1.445286624
1.629672891
1.987748319
2.326249042
2.534369748
2.630445688
2.662944342
2.689325587
2.709430508
2.690032449
2.663589396
2.640120978
2.613769608
2.586508628
2.560820657
2.536140189
2.510943012
2.485430019
2.458487475
2.430725649
2.401625679
2.371783885
2.340951819
2.308635982
2.27679056
2.245840075
2.215414169
2.185405389
2.155559427
2.126027008
2.097541257
2.067261364
2.035109416
2.001262501
1.967585137
1.934523029
1.900302246
1.866886879
1.833163201
1.802570203
1.771947419
1.742294101
1.712336113
1.640588917
1.640588917
1.612290804
1.583905665
1.555223224
1.526018705
)
;
    }
    procBoundary4to5
    {
        type            processor;
        value           nonuniform List<scalar> 
69
(
2.780830506
2.800544876
2.783947322
2.778543417
2.773830849
2.770561634
2.759294265
2.753157431
2.747647217
2.74217284
2.736743016
2.731668351
2.730496219
2.740935338
2.71975303
2.713369553
2.711821209
2.719742597
2.692403993
2.683014033
2.675936093
2.671956353
2.680431453
2.652209644
2.643197769
2.625319845
2.604368366
2.519282301
2.376704804
2.05387492
1.710647476
1.499962572
1.428360223
1.394956615
1.374221283
1.358183018
1.34530755
1.333136931
1.317221071
1.299615605
1.282333288
1.267646738
1.252770466
1.236838997
1.221415095
1.205009512
1.190621716
1.175864382
1.160491965
1.146307274
1.130931719
1.11665551
1.102318354
1.088724171
1.07474856
1.060569624
1.048424121
1.035024603
1.021335072
1.010789242
0.9976918254
0.9836263135
0.9741793391
0.9597622938
0.9457277678
0.9413436257
0.9371266738
0.9501778511
1.048053951
)
;
    }
    procBoundary4to9
    {