/*--------------------------------*- C++ -*----------------------------------*\
  =========                 |
  \\      /  F ield         | OpenFOAM: The Open Source CFD Toolbox
   \\    /   O peration     | Website:  https://openfoam.org
    \\  /    A nd           | Version:  7
     \\/     M anipulation  |
\*---------------------------------------------------------------------------*/
FoamFile
{
    version     2.0;
    format      ascii;
    class       volScalarField;
    location    "4";
    object      T;
}
// * * * * * * * * * * * * * * * * * * * * * * * * * * * * * * * * * * * * * //

dimensions      [0 0 0 1 0 0 0];

internalField   nonuniform List<scalar> 
2222
(
1.006320765
1.006358383
1.00638782
1.006321617
1.006190423
1.006156996
1.006254804
1.006354463
1.006505346
1.006582991
1.006549893
1.006527344
1.006546516
1.006542476
1.006587286
1.006667781
1.006719606
1.006695116
0.8578436685
0.8583794125
0.8598925631
0.8701953778
0.8948705326
0.9341149117
0.9728937785
0.9992760192
1.001998236
1.00298605
1.004406361
1.004123956
1.004111907
1.005177108
1.006086924
1.006445638
1.006586754
1.00672369
1.006870891
1.006851559
1.006798718
1.006709757
1.00668852
1.006742247
1.006766659
1.00679736
1.006875124
1.006858102
1.006864364
1.006877407
1.006864592
1.006808745
0.8572914029
0.8627996845
0.8809553417
0.9212251716
0.9560123184
0.9842600233
0.9922956484
1.003296242
1.005982177
1.006237057
1.0066223
1.007102143
1.007006802
1.006779141
1.006538425
1.006384093
1.006494953
1.006671891
1.006876262
1.006967193
1.00693843
1.006941676
1.00692002
1.006916873
1.006922719
1.006947534
1.007023325
1.007062527
1.007056451
1.007055875
1.0070413
1.006975719
0.8699075518
0.901589151
0.9408670534
0.9701966639
0.9951615241
1.006352416
1.003211797
1.00403121
1.005357305
1.006631652
1.007188182
1.007421784
1.007538481
1.007442027
1.007082272
1.006726734
1.006605051
1.006620287
1.006686161
1.006785192
1.00687246
1.006988744
1.007137352
1.007166422
1.007177849
1.007197657
1.007205861
1.007212022
1.007214636
1.007228431
1.007229199
1.007195469
0.9226322949
0.967867709
0.994897951
0.9993528752
1.004504325
1.008054733
1.007890482
1.006760096
1.006600213
1.006566493
1.006609549
1.006728497
1.007045859
1.007250145
1.007171583
1.00708492
1.006988347
1.006943018
1.006922343
1.00692514
1.006979643
1.007135588
1.007327185
1.007404698
1.0074138
1.007430508
1.007436136
1.00741928
1.007396476
1.007364502
1.007366744
1.007362515
0.9780619111
0.9894598889
1.001655909
1.002716076
1.004267199
1.006344469
1.00810719
1.007870834
1.00749869
1.006961071
1.006577164
1.006418414
1.006513353
1.006780027
1.007078522
1.007300713
1.007366753
1.007367938
1.007350374
1.007294541
1.007293496
1.007373397
1.007489982
1.007584005
1.007603406
1.00761046
1.007603608
1.007575668
1.007533456
1.007472591
1.007426749
1.007426854
1.005573445
1.002754969
1.00424653
1.004022936
1.0042448
1.005605814
1.007303413
1.007556031
1.007515612
1.007324878
1.007091685
1.006886773
1.006826052
1.006960277
1.007228908
1.007431737
1.007510865
1.007568491
1.007584721
1.007557058
1.007538919
1.007555618
1.007593001
1.007631282
1.007654477
1.00767508
1.007672438
1.007645005
1.007587192
1.007524264
1.007466905
1.007442793
1.007893322
1.007670046
1.007275658
1.007022771
1.006657965
1.006713551
1.007154839
1.007234973
1.007260064
1.007320509
1.007363539
1.007463712
1.007537817
1.007560681
1.00757585
1.007558327
1.007544618
1.007573693
1.007610158
1.007627224
1.007614767
1.007610301
1.007619339
1.007636913
1.007645085
1.007648206
1.007640678
1.007616787
1.007574178
1.007547151
1.007538336
1.007520278
1.006526507
1.007547363
1.007481893
1.007604421
1.007766079
1.007705288
1.007502769
1.007319896
1.007187208
1.007245029
1.007350866
1.007573474
1.007781002
1.007779217
1.007706123
1.007609493
1.007539191
1.007543129
1.007571277
1.007591419
1.007603938
1.007598487
1.007598079
1.007619484
1.007637562
1.007631062
1.007619171
1.007607763
1.007590744
1.007591291
1.007595449
1.007584002
1.007542536
1.007427869
1.007193981
1.007350774
1.007437294
1.007522561
1.00743554
1.007337487
1.007200479
1.007184823
1.007233442
1.007416702
1.007646109
1.007662789
1.00760802
1.007551675
1.007552349
1.007570066
1.007583103
1.00759736
1.007596204
1.007581359
1.007585518
1.007614572
1.007646429
1.00764552
1.007646286
1.007642997
1.007630746
1.007633031
1.007637285
1.007623514
1.008263536
1.007724385
1.007169525
1.006688987
1.006587879
1.006710954
1.006958715
1.007200716
1.007217283
1.007215564
1.007272656
1.007413221
1.007483956
1.007478826
1.007483249
1.007542585
1.007597464
1.007629481
1.007647654
1.007642789
1.007615122
1.007590228
1.007592506
1.00760855
1.007630364
1.007650342
1.0076755
1.00767507
1.007663397
1.00766001
1.007654614
1.007632968
1.007820617
1.0076458
1.007312438
1.006744255
1.006490457
1.006568563
1.006831488
1.00709751
1.007255061
1.007325172
1.007402872
1.007569917
1.007606284
1.007579872
1.007583038
1.007609919
1.00762704
1.007645024
1.007647465
1.007643172
1.007627626
1.007612672
1.007603996
1.007598012
1.007596873
1.007628949
1.007677258
1.007688065
1.00767834
1.00765981
1.007650749
1.007629818
1.0070697
1.00738544
1.007330262
1.00716509
1.006926265
1.006920062
1.007045234
1.007224354
1.007337251
1.007409072
1.00750882
1.007715377
1.007809014
1.007778459
1.007748277
1.007685946
1.00764566
1.007649442
1.007648715
1.007641202
1.007632588
1.007617145
1.007600359
1.007585344
1.007595242
1.007641947
1.007697768
1.007693326
1.007669992
1.007660117
1.007661323
1.007643943
1.006935291
1.007178813
1.007335957
1.007322345
1.00731485
1.00731576
1.007347573
1.007416983
1.007428675
1.007444895
1.007518576
1.007722984
1.007881767
1.007866015
1.007826641
1.007737895
1.007685331
1.007656657
1.007634769
1.007620315
1.007623485
1.007621756
1.00760556
1.007616203
1.007639911
1.007687295
1.007728042
1.007722235
1.007686794
1.007685429
1.007690383
1.007673855
1.00720469
1.007290613
1.007294412
1.007328739
1.007380394
1.007417275
1.007416384
1.007457325
1.00745737
1.007462156
1.007520531
1.007705319
1.00788683
1.007885524
1.00786121
1.007778465
1.007717099
1.007672797
1.007641095
1.007632093
1.007639995
1.00764583
1.007644565
1.007670744
1.007718479
1.007759751
1.007774938
1.007770553
1.007732812
1.007730059
1.007740016
1.007724517
1.007503219
1.007472567
1.00734254
1.007319253
1.007344963
1.007385355
1.007409357
1.007461356
1.007511156
1.007547354
1.007597411
1.007727331
1.007901531
1.007909934
1.007879786
1.00779519
1.007741553
1.007707353
1.007678168
1.007673821
1.007677295
1.00768847
1.007706668
1.007737648
1.007786428
1.007836847
1.007849505
1.007846409
1.007818093
1.007801083
1.007816198
1.007808849
1.007572683
1.007597864
1.00754995
1.007551049
1.007562635
1.007561265
1.007561792
1.00759888
1.007627781
1.007665754
1.007711762
1.007799633
1.007938579
1.007940045
1.007915376
1.007828715
1.007771673
1.007750736
1.007722777
1.007711968
1.007711924
1.007724983
1.007756622
1.007797725
1.007845135
1.007894131
1.007901494
1.007896237
1.007871019
1.007833148
1.007841615
1.007859093
1.007416824
1.007585855
1.007754239
1.007850252
1.007848157
1.00781516
1.007758476
1.007748352
1.007710637
1.007721393
1.007773741
1.00780791
1.007922909
1.007943212
1.007931292
1.007876345
1.007803531
1.007783024
1.007754149
1.007733039
1.007730871
1.007743091
1.00777738
1.007829735
1.007881569
1.007934028
1.007947109
1.007943583
1.007924916
1.007894949
1.007901109
1.007929556
1.007591781
1.007759335
1.007916937
1.00798973
1.007985625
1.007943868
1.007869813
1.007847379
1.007765577
1.007751728
1.007795602
1.007840711
1.007933151
1.007979509
1.00797111
1.007928457
1.007849561
1.007812705
1.007782506
1.007755879
1.007739931
1.007750337
1.007786102
1.007855032
1.007911963
1.007962504
1.007978242
1.007976324
1.007965955
1.007956302
1.007965108
1.007996793
1.007913987
1.007980441
1.008014605
1.008039937
1.008035228
1.007987923
1.00791194
1.007869344
1.007778492
1.00775716
1.007791394
1.00785597
1.007912622
1.007979805
1.007979843
1.007943921
1.007883111
1.007854461
1.007837751
1.007811225
1.007785775
1.007792012
1.007824135
1.007893759
1.007941962
1.007981924
1.008004774
1.008004132
1.008001746
1.008004718
1.008016226
1.008049937
1.008060227
1.008070328
1.008065892
1.008052417
1.008026468
1.007977803
1.007917608
1.007878119
1.00778424
1.007761349
1.007796528
1.007863939
1.00789847
1.007963901
1.007984761
1.007959748
1.007914052
1.007902437
1.00790413
1.007882916
1.00785426
1.00785673
1.007879889
1.007941176
1.007972906
1.007997955
1.008027349
1.008035398
1.008031305
1.008036031
1.008049072
1.008080505
1.00807951
1.008054615
1.008034207
1.008027131
1.008016072
1.007990841
1.007955049
1.007914802
1.007825691
1.00778045
1.007807706
1.007859137
1.007879831
1.007934014
1.00798806
1.00798178
1.007958594
1.007966195
1.007969181
1.007944115
1.007907287
1.007904126
1.007921925
1.007976499
1.008001577
1.008019961
1.008051078
1.008071527
1.008061917
1.008055401
1.008068737
1.008093988
1.008020787
1.007998928
1.008005101
1.008030102
1.008051758
1.008048091
1.008039168
1.008004159
1.007912049
1.007823884
1.007831825
1.007861359
1.007894341
1.00797731
1.008063316
1.008067781
1.008050357
1.008048757
1.008043155
1.008013277
1.007978542
1.007959538
1.0079672
1.008012302
1.008041178
1.008058725
1.008089328
1.00811199
1.008105143
1.008084762
1.008091007
1.008103423
1.008048791
1.00801373
1.008021227
1.008063075
1.0081045
1.008123397
1.008119455
1.008078093
1.00798609
1.007895678
1.007895671
1.00790995
1.007948027
1.00804534
1.008154893
1.008174638
1.008162743
1.008157563
1.008145427
1.008106464
1.008065478
1.008037866
1.008040957
1.008075597
1.008108068
1.008125177
1.008151829
1.008171071
1.00816873
1.008157526
1.008146938
1.008144889
1.008141744
1.008106996
1.008111502
1.008132753
1.008178646
1.008211301
1.008211172
1.008175772
1.008101171
1.008018766
1.008000481
1.007999813
1.0080379
1.008150717
1.008277909
1.008315709
1.008306844
1.00830661
1.008287346
1.008237966
1.008193637
1.008161803
1.008161392
1.008187075
1.008220203
1.008235693
1.008256563
1.008277674
1.008279387
1.008276686
1.00826589
1.008255791
1.008374047
1.008328373
1.008302278
1.008303901
1.008332254
1.008361695
1.008367751
1.008344085
1.008283157
1.008205242
1.008187773
1.008190032
1.00823549
1.008350297
1.008482439
1.008533198
1.008536491
1.008522195
1.008489085
1.008436782
1.008401586
1.008384756
1.008380572
1.008396386
1.00842291
1.008435202
1.008450268
1.008475018
1.008483392
1.00848118
1.008474409
1.008469653
1.008729368
1.008700773
1.008675643
1.008654846
1.008646639
1.008639278
1.008621523
1.008594154
1.008546483
1.008492609
1.008468006
1.0084648
1.008505421
1.008608839
1.008734871
1.008814762
1.00886426
1.00888455
1.008868109
1.00883552
1.008803686
1.008791162
1.00877892
1.008775279
1.008782047
1.008785604
1.008791182
1.00880293
1.00880965
1.008808853
1.008804434
1.008805099
1.009279706
1.009301903
1.00929709
1.009268164
1.009231489
1.009191571
1.00914994
1.009106858
1.00904857
1.009023386
1.00902098
1.009023156
1.009070677
1.009166915
1.009276992
1.009371799
1.009433818
1.009451548
1.00944363
1.009419733
1.009402906
1.009391763
1.009374294
1.009339933
1.009315813
1.00930267
1.009289883
1.009289904
1.009295628
1.009310035
1.009318844
1.009323737
1.009983277
1.010010356
1.010010819
1.009997914
1.009959714
1.009908268
1.009872274
1.009818579
1.009753211
1.009740762
1.009744151
1.009753721
1.009801007
1.009887314
1.009988007
1.01008363
1.010145371
1.010154476
1.010147159
1.010125524
1.010096935
1.010068457
1.010030316
1.009980461
1.009942313
1.009920973
1.009901915
1.009899631
1.009906017
1.009936604
1.009958152
1.009955947
1.010837579
1.010838623
1.010804442
1.010744627
1.010665011
1.010595636
1.010552222
1.010493977
1.010464283
1.01047387
1.01050507
1.010545397
1.010591639
1.010657565
1.01074209
1.010826114
1.010877199
1.010884638
1.010876582
1.01084967
1.01081144
1.010761291
1.01069118
1.010614583
1.010564251
1.010552288
1.010555883
1.010562288
1.010576141
1.01060708
1.010621874
1.010611596
1.011358704
1.01133396
1.011299783
1.011252597
1.0111817
1.011127172
1.011080141
1.011030844
1.011003653
1.011005554
1.011025253
1.011071631
1.011126339
1.011208113
1.011313313
1.011407444
1.011457366
1.011467435
1.011463155
1.011437856
1.011385033
1.011295553
1.011182982
1.011081673
1.011047684
1.011046511
1.011070311
1.011117431
1.011164061
1.011207121
1.011198481
1.011160767
1.011972023
1.011685608
1.011209499
1.010903484
1.01078062
1.010737932
1.010795433
1.010966656
1.011227101
1.011477983
1.011579402
1.01153709
1.011498395
1.01148541
1.0114221
1.011485401
1.011568547
1.01164953
1.011739329
1.011854945
1.01197091
1.01196862
1.011849976
1.011696228
1.011542604
1.011387816
1.011337178
1.011326917
1.011417173
1.011520875
1.011568714
1.011508965
1.012206719
1.012062096
1.011766107
1.011222682
1.010909656
1.010857137
1.010863502
1.010933528
1.011108117
1.011360509
1.011552885
1.011575062
1.011623214
1.011577843
1.011499298
1.011503592
1.011501758
1.011499929
1.011486211
1.011504347
1.011552143
1.011637933
1.01169863
1.011707323
1.011633307
1.011563557
1.011533041
1.011491982
1.011471714
1.011552941
1.011677647
1.011682137
1.01224273
1.012241416
1.012103685
1.011832879
1.01142527
1.01113449
1.010995741
1.011034565
1.011211933
1.011496979
1.011701019
1.011740654
1.011766356
1.011717314
1.011648935
1.011608762
1.011593906
1.011590172
1.011587273
1.011568559
1.011507434
1.011466323
1.011470971
1.011530375
1.011612194
1.011681201
1.011649377
1.011638523
1.011613112
1.01162081
1.011766766
1.011818679
1.01212877
1.012256783
1.012246101
1.012105276
1.011965152
1.011677171
1.011410438
1.01131101
1.011382784
1.01165801
1.011921432
1.011972496
1.011960633
1.01197341
1.011940986
1.011858484
1.011796156
1.011745691
1.011713714
1.011677724
1.011611516
1.011537966
1.011487273
1.011522797
1.01158833
1.011674111
1.011747117
1.011755
1.011726581
1.01172638
1.011807756
1.011917288
1.012086274
1.012171719
1.012254611
1.012248334
1.012104542
1.012032598
1.011928433
1.01181201
1.011784392
1.011902163
1.012134132
1.012245131
1.012246113
1.012292558
1.01231832
1.012294161
1.012229862
1.012130581
1.011993221
1.011874473
1.011742311
1.011655408
1.011611316
1.011619466
1.01164993
1.011706653
1.011762293
1.011820394
1.011837246
1.011836148
1.01181482
1.011853166
1.012105798
1.012175434
1.012258183
1.012234497
1.012171152
1.012230474
1.012123622
1.012119437
1.012128092
1.012120261
1.012246456
1.012405201
1.012464715
1.012525526
1.012599063
1.012654242
1.012650603
1.012589414
1.012474534
1.012320505
1.012070585
1.011824205
1.011725461
1.011721977
1.011741498
1.011752868
1.011806598
1.011865745
1.011902052
1.011905903
1.011854329
1.011790622
1.012166772
1.012170937
1.01224046
1.012205329
1.012247555
1.012224079
1.012208233
1.012237167
1.012186441
1.012175362
1.012274663
1.012407506
1.012533502
1.012604484
1.012660796
1.012708523
1.012729757
1.012754046
1.012805149
1.012745202
1.012559094
1.012209161
1.011915316
1.011853503
1.011832587
1.011822575
1.011873422
1.011939607
1.011969263
1.011961589
1.011926827
1.011853053
1.012542234
1.012282346
1.012202275
1.012171555
1.012202003
1.012158804
1.012242522
1.012186635
1.012130253
1.012136013
1.012133517
1.012187129
1.012403542
1.012582116
1.012630151
1.012685115
1.012783575
1.012856227
1.012826112
1.012809863
1.012752532
1.012593752
1.012309729
1.01208905
1.011973078
1.01194161
1.011981902
1.012014618
1.012037659
1.012030504
1.012004218
1.011921578
1.012931523
1.012687863
1.012372498
1.012284915
1.01214817
1.01213928
1.012146046
1.012069839
1.012067008
1.012029557
1.0120204
1.012055348
1.012139188
1.012339202
1.0125288
1.012600532
1.012649106
1.012768269
1.012844751
1.012861574
1.012856729
1.012774661
1.012608007
1.012360429
1.012123933
1.012082709
1.01214977
1.012208978
1.012197749
1.012154921
1.01213864
1.012040832
1.013091939
1.012990839
1.012776124
1.012488997
1.012271189
1.012208309
1.012062733
1.01199906
1.012010099
1.011940946
1.011917673
1.011943672
1.012033985
1.012180936
1.012338788
1.012389848
1.012400447
1.012434056
1.01259896
1.012749512
1.012818442
1.012750089
1.012618005
1.012498255
1.012249023
1.012199838
1.012285959
1.012406802
1.012470476
1.01246028
1.012430551
1.012344349
1.013006142
1.013082364
1.012975282
1.012716112
1.012528807
1.012351092
1.012176521
1.012081877
1.011998734
1.011964401
1.01193625
1.011905834
1.011962856
1.012093788
1.012247469
1.012297138
1.012309636
1.012307939
1.012316551
1.012356961
1.012488988
1.012616292
1.012652665
1.012586817
1.012371001
1.012270393
1.012346703
1.012489773
1.012616411
1.012674543
1.012687522
1.012636212
1.012931105
1.01297574
1.012900825
1.012902666
1.012705862
1.012583479
1.012478836
1.012337261
1.012213383
1.012220281
1.012187483
1.012101133
1.012065896
1.012116572
1.012238671
1.012296906
1.012289328
1.01226269
1.012223577
1.012190756
1.012167022
1.01232308
1.012576246
1.012581888
1.012459977
1.012323539
1.012339093
1.012529512
1.012696525
1.012778037
1.01279171
1.012732122
1.012507636
1.012806493
1.012900192
1.01281574
1.012831738
1.012696846
1.01263378
1.012540183
1.012533715
1.01252544
1.012482759
1.012420276
1.012378065
1.012380222
1.01241822
1.012464954
1.012437226
1.012327819
1.01220191
1.012182446
1.012160021
1.012091201
1.012195112
1.012476149
1.01250307
1.01239906
1.012327191
1.012398404
1.012670629
1.012818582
1.01285201
1.012815525
1.012181693
1.012239459
1.012614733
1.012764914
1.012763235
1.012749922
1.012715314
1.012659071
1.012626947
1.012605253
1.012566149
1.012509158
1.012586796
1.012614595
1.012626305
1.012643634
1.012646742
1.01258902
1.012470085
1.012299494
1.012132079
1.012035938
1.012042444
1.012195705
1.012470756
1.012456475
1.01238931
1.012332
1.012414914
1.012674451
1.012859727
1.012847786
1.01206842
1.011997952
1.012012007
1.012293746
1.012596985
1.012732774
1.012710114
1.012682979
1.012661498
1.01264093
1.012582589
1.012573128
1.012584144
1.01264825
1.012681695
1.012722596
1.012773716
1.012801986
1.012761403
1.012610642
1.012350178
1.012087776
1.012040246
1.012108909
1.012273661
1.012480432
1.012463166
1.012331365
1.012258339
1.012355219
1.012549599
1.012588952
1.01219543
1.011978318
1.01178756
1.011788656
1.011970384
1.012361946
1.012575646
1.012648064
1.012651542
1.012637552
1.012590809
1.012600015
1.012609532
1.012673405
1.012716041
1.012771109
1.012821733
1.012854825
1.012860137
1.01282321
1.012714447
1.012477844
1.012223091
1.012153794
1.012185184
1.01238208
1.012495701
1.012423159
1.012343834
1.012306878
1.012305195
1.012235429
1.012811903
1.012648815
1.012255885
1.011899402
1.011648777
1.011658305
1.011709254
1.011919558
1.01212719
1.012245447
1.012277589
1.012294018
1.012343744
1.012431133
1.012539017
1.012635496
1.012727228
1.012802786
1.012892424
1.012950737
1.012978287
1.012934079
1.012825795
1.012645332
1.012369416
1.012249436
1.012305976
1.012458553
1.012514805
1.01242328
1.012305363
1.012244708
1.012120311
1.01297044
1.012910925
1.012734599
1.012326051
1.011789968
1.011548951
1.011465589
1.011549977
1.011680529
1.011827975
1.01192582
1.01198173
1.012004048
1.012063543
1.012135817
1.012258187
1.012352762
1.012468474
1.012736021
1.0129996
1.013070686
1.013053837
1.01294834
1.012806675
1.012678456
1.012428431
1.012361763
1.01243799
1.012589272
1.012560403
1.012506928
1.01238703
1.012224243
1.013088312
1.01307613
1.012958098
1.012668698
1.012359801
1.011821512
1.011613357
1.011667858
1.011756068
1.011884122
1.011875103
1.011919029
1.011977918
1.011929703
1.011971819
1.012076938
1.012113881
1.012172269
1.012303144
1.012636427
1.012973543
1.013066331
1.013026016
1.012948104
1.012831091
1.012674874
1.012471073
1.012470513
1.012572031
1.012697538
1.012756421
1.012721037
1.012496224
1.013022986
1.013176669
1.013098124
1.012895679
1.012697813
1.012518864
1.012061764
1.011776098
1.011803093
1.011941914
1.012075656
1.012115562
1.012098534
1.012032437
1.012059447
1.012129454
1.012166646
1.012135772
1.012173401
1.012238387
1.012459975
1.012836734
1.01306619
1.013067605
1.012965447
1.012837176
1.012691736
1.012555367
1.01264715
1.012838728
1.012914737
1.012867819
1.012685007
1.012379789
1.012867827
1.01308365
1.013060314
1.012908556
1.012770559
1.012496703
1.012217776
1.012106434
1.012202574
1.01239088
1.012432691
1.012351387
1.012298408
1.012241357
1.012292462
1.012291495
1.012252629
1.012193455
1.012136011
1.012149425
1.012298581
1.012644139
1.012930818
1.012990053
1.012957195
1.012850293
1.012738022
1.012757373
1.012909905
1.01299775
1.012988878
1.01284872
1.011989481
1.012112047
1.012647073
1.01298116
1.013085751
1.012979144
1.012817436
1.012608135
1.012442033
1.012473615
1.0125937
1.012609491
1.012567819
1.012564
1.012545514
1.012526286
1.012545563
1.012503265
1.012410103
1.012367888
1.012312749
1.012198461
1.012168084
1.012357888
1.0126176
1.012856775
1.012927557
1.012864055
1.012759944
1.012821631
1.012957063
1.013069137
1.013016426
1.011839349
1.01188208
1.011972668
1.012381127
1.012996816
1.013139058
1.013064682
1.012888596
1.012724139
1.01270941
1.012702424
1.012724377
1.012780222
1.012786325
1.012798035
1.012727522
1.012734792
1.012751471
1.012732358
1.012660135
1.012515248
1.012189887
1.012041634
1.012113698
1.012190405
1.012428518
1.012699555
1.012748955
1.0126343
1.012590978
1.012669565
1.012916304
1.013102873
1.012096898
1.011962869
1.011845293
1.011832626
1.01225063
1.012822754
1.013064274
1.013036495
1.012918429
1.01277647
1.012740618
1.012776723
1.012872931
1.01299158
1.012981625
1.012952164
1.012909288
1.012963483
1.01294811
1.012813365
1.012526019
1.012356902
1.012282677
1.012201065
1.012093839
1.012214375
1.012345694
1.012532269
1.01257675
1.012550347
1.012481831
1.012514858
1.012807796
1.012600585
1.012144232
1.011854481
1.011753499
1.011774324
1.011977112
1.012470854
1.012808794
1.01284565
1.012650774
1.012575042
1.012572511
1.012702164
1.013008827
1.013140617
1.013152256
1.01306719
1.013059973
1.013012357
1.012896182
1.012797257
1.012651199
1.012569649
1.012380923
1.012297263
1.012151135
1.012337258
1.012542681
1.012554433
1.012548366
1.012460446
1.012389072
1.012402798
1.012897124
1.012634704
1.01219942
1.011923831
1.011601022
1.01164957
1.01184973
1.012146345
1.012325104
1.012356318
1.012241895
1.012172984
1.012229505
1.012554897
1.012990128
1.013197403
1.013093072
1.013035579
1.013044831
1.01310112
1.013097609
1.012955562
1.012691537
1.012648093
1.012570052
1.012340346
1.012362973
1.012555386
1.012682206
1.012647971
1.012575854
1.012469007
1.012343904
1.013108938
1.012974861
1.012746446
1.012272153
1.011872094
1.011863832
1.011917598
1.012001328
1.012112097
1.012191998
1.011996497
1.011935687
1.011946952
1.012097375
1.012365103
1.012714993
1.012919381
1.012898758
1.013005918
1.013222776
1.013292891
1.013139761
1.012967668
1.012864348
1.012687169
1.012597596
1.01247458
1.012618794
1.01286571
1.012898836
1.012869091
1.012630258
1.012479818
1.013325766
1.013252849
1.013030223
1.012807465
1.01248212
1.011972322
1.011957344
1.012007614
1.012064141
1.012174682
1.012228492
1.012230662
1.012172387
1.011973761
1.011958958
1.012149731
1.012573224
1.012668695
1.012745237
1.012948827
1.013175007
1.013199113
1.013189187
1.013038974
1.012851791
1.012767812
1.01266868
1.012719907
1.01287488
1.013068089
1.013055752
1.012946356
1.012712729
1.013239161
1.013383543
1.013247324
1.013112129
1.012855808
1.012511626
1.012195071
1.012133467
1.012194966
1.012309704
1.012545526
1.012545264
1.012467146
1.012201788
1.01224793
1.012286806
1.012421986
1.012488874
1.012444647
1.012489408
1.0127813
1.01318031
1.013307123
1.013191474
1.013058895
1.012913496
1.012842347
1.012717909
1.012753027
1.012958133
1.01312448
1.013169723
1.012927871
1.012477536
1.013169144
1.013403879
1.013353364
1.013163581
1.013005574
1.012675127
1.012520597
1.012570791
1.012678245
1.012575515
1.01251754
1.012444518
1.012554041
1.012558393
1.012422036
1.012270261
1.012526484
1.012560468
1.012523838
1.012523631
1.012695224
1.012966845
1.013113173
1.013140313
1.01308562
1.012997229
1.012721128
1.012660838
1.012727755
1.012952744
1.013125307
1.013044881
1.011916722
1.012386035
1.013188252
1.013465984
1.013461593
1.013358553
1.013125312
1.012937846
1.012918193
1.012986705
1.012887589
1.01283684
1.012754565
1.012761459
1.012580995
1.012405746
1.012443809
1.012558805
1.012680794
1.0125746
1.012323595
1.012233045
1.012442192
1.012630987
1.012850155
1.013091865
1.013063018
1.012848688
1.012708956
1.012626169
1.012666992
1.01284116
1.013040831
1.012139882
1.012039362
1.012305373
1.013135949
1.013577375
1.013547026
1.0133971
1.013195988
1.013142519
1.013182062
1.013183214
1.013194461
1.013114359
1.012897772
1.012676723
1.012655331
1.012689398
1.012621598
1.012646327
1.012595194
1.012539607
1.012387989
1.012224807
1.012177158
1.012310547
1.012713812
1.013009903
1.013001516
1.01283806
1.012719413
1.012634805
1.012613796
1.0127735
1.012638277
1.01227762
1.011927786
1.011848572
1.012189183
1.012967036
1.013452939
1.013421098
1.013272175
1.013190819
1.013175812
1.013375143
1.013415811
1.013342546
1.013095895
1.012921215
1.01287478
1.012782979
1.012719735
1.012724215
1.012773299
1.012789415
1.012603582
1.012485553
1.012433006
1.012398534
1.012369489
1.012663304
1.01296169
1.012944068
1.012837805
1.012646576
1.01241364
1.012401641
1.013022561
1.012586382
1.012300902
1.011894214
1.011629264
1.011879288
1.012628429
1.013152479
1.013290931
1.013230131
1.013159333
1.013229882
1.013268427
1.013190479
1.013173462
1.013066919
1.012848852
1.012748192
1.012759258
1.012786064
1.012892945
1.012899376
1.012590083
1.012762825
1.012721155
1.0125336
1.012276474
1.012374191
1.012676474
1.012906878
1.012848901
1.012659585
1.012569959
1.012538258
1.013347518
1.013021046
1.012668525
1.012147799
1.011805794
1.011547014
1.011729301
1.012099123
1.012572278
1.012728106
1.012734852
1.012708988
1.01277736
1.01287899
1.012984453
1.012918821
1.012804508
1.012772622
1.012766575
1.012795057
1.012849812
1.012824554
1.01285816
1.012843366
1.012688458
1.012470399
1.012437423
1.012355391
1.012415215
1.012691852
1.012869606
1.012841531
1.012795776
1.012709729
1.013625719
1.013392145
1.012961877
1.012561811
1.011865574
1.011606574
1.011283096
1.011302357
1.011616984
1.011913207
1.012054371
1.012201883
1.012425922
1.012715035
1.012713809
1.012752279
1.012817432
1.012809082
1.012750857
1.012795289
1.012893488
1.012959709
1.013096637
1.012846423
1.012700056
1.012679401
1.012689864
1.012453206
1.012400064
1.0125229
1.012831941
1.012973266
1.012909541
1.012691398
1.013756439
1.013575682
1.013137723
1.012697485
1.012194925
1.011767015
1.011592921
1.011601384
1.011657869
1.011825448
1.011991624
1.012092978
1.012103832
1.012420068
1.012676096
1.012719519
1.012716984
1.012677814
1.01270383
1.012810209
1.013004696
1.013119526
1.013177235
1.013004292
1.012895344
1.01289655
1.012795332
1.012594861
1.012464743
1.012424868
1.012664281
1.012836056
1.012781395
1.012720535
1.013287353
1.013396044
1.013297964
1.013007867
1.012640566
1.011970522
1.012006083
1.011922601
1.011789694
1.011825254
1.012020963
1.011943428
1.012117739
1.012344516
1.012647994
1.012685679
1.012613798
1.012558655
1.012582315
1.01267298
1.012882399
1.012969563
1.012964399
1.013086105
1.01301015
1.012849979
1.012746456
1.01273745
1.012545882
1.012478945
1.0123402
1.012802482
1.013241475
1.013192321
)
;

boundaryField
{
    inlet
    {
        type            fixedValue;
        value           nonuniform 0();
    }
    outlet
    {
        type            inletOutlet;
        inletValue      uniform 1;
        value           nonuniform List<scalar> 
68
(
1.011483225
1.01166764
1.011811527
1.01193172
1.011910885
1.011826017
1.011858346
1.011927125
1.012014327
1.012278152
1.012594968
1.012716433
1.012813665
1.012861324
1.01268821
1.012287467
1.012121483
1.012231547
1.012408251
1.012612264
1.012809212
1.012994459
1.013102321
1.012902788
1.012479609
1.012350895
1.012449721
1.012646124
1.012868558
1.013025752
1.013099007
1.012839849
1.012449594
1.012535402
1.012648374
1.012639177
1.012721703
1.006694235
1.006806652
1.006974628
1.007195335
1.00736226
1.007425595
1.007442571
1.007520834
1.007584787
1.007623464
1.007632549
1.007629411
1.007643637
1.007673609
1.007724301
1.007808719
1.007859246
1.007929791
1.007996922
1.008049954
1.008080377
1.008093704
1.008102871
1.008144017
1.008254815
1.008469051
1.008804967
1.009323677
1.009955786
1.010611828
1.011160236
)
;
    }
    bottom
    {
        type            slip;
    }
    top
    {
        type            slip;
    }
    obstacle
    {
        type            zeroGradient;
    }
    defaultFaces
    {
        type            empty;
    }
    procBoundary11to5
    {
        type            processor;
        value           nonuniform List<scalar> 
33
(
1.005941455
1.005793327
1.005570216
1.00499514
1.004933569
1.005242568
1.005702009
1.00609308
1.006297296
1.006291694
1.006096425
1.00591227
1.005921208
1.006028338
1.006242871
1.006450763
1.006543562
1.006522962
0.8616826066
0.8610859755
0.8608969253
0.8604031155
0.8633775934
0.878958608
0.9144764726
0.9556589554
0.9758906821
0.9910343536
1.001703742
1.000768259
1.002103039
1.004444157
1.004444157
)
;
    }
    procBoundary11to10
    {
        type            processor;
        value           nonuniform List<scalar> 
70
(
0.8596905945
0.8566681948
0.8583659802
0.8836990377
0.9446605294
0.9945656621
1.001407862
1.003679018
1.00734364
1.008427213
1.007759555
1.006505233
1.00647176
1.007055429
1.007491752
1.007548525
1.007316296
1.007508601
1.007873146
1.008054661
1.008085536
1.008035888
1.00807532
1.008175062
1.008404022
1.008742473
1.009209629
1.009922435
1.010806818
1.011386271
1.012199188
1.012238118
1.012052113
1.011983691
1.012059626
1.012094647
1.012248149
1.012720751
1.012972542
1.013117079
1.012980703
1.012605082
1.012279817
1.012228017
1.012178293
1.012459192
1.012459192
1.012707042
1.012883798
1.012986199
1.012650759
1.012048061
1.012013528
1.012026824
1.012256447
1.012757794
1.013069641
1.013233336
1.013223056
1.012637121
1.012009166
1.011793784
1.012071788
1.012071788
1.012803379
1.013326753
1.013723613
1.013926641
1.013772732
1.012947618
)
;
    }
    procBoundary11to16
    {
        type            processor;