/*--------------------------------*- C++ -*----------------------------------*\
  =========                 |
  \\      /  F ield         | OpenFOAM: The Open Source CFD Toolbox
   \\    /   O peration     | Website:  https://openfoam.org
    \\  /    A nd           | Version:  7
     \\/     M anipulation  |
\*---------------------------------------------------------------------------*/
FoamFile
{
    version     2.0;
    format      ascii;
    class       volVectorField;
    location    "4";
    object      U;
}
// * * * * * * * * * * * * * * * * * * * * * * * * * * * * * * * * * * * * * //

dimensions      [0 1 -1 0 0 0 0];

internalField   nonuniform List<vector> 
2222
(
(2.726253688 -0.4668232376 0)
(2.744612649 -0.4447214014 0)
(2.777950953 -0.3885765003 0)
(2.792491247 -0.3575345007 0)
(2.79923445 -0.3462665864 0)
(2.826272017 -0.3057457345 0)
(2.849966012 -0.2560677838 0)
(2.860877422 -0.2465609803 0)
(2.865934428 -0.2386985788 0)
(2.889325369 -0.1918698012 0)
(2.899975111 -0.1485491301 0)
(2.903942096 -0.1467899177 0)
(2.907368506 -0.140905508 0)
(2.930393862 -0.09854438468 0)
(2.940251619 -0.06512706629 0)
(3 4.923210805e-15 0)
(3 -1.044308572e-10 0)
(2.999999978 -5.645376117e-08 0)
(2.999994374 -1.446257276e-05 0)
(2.999528845 -0.001174406463 0)
(2.984739539 -0.03624543161 0)
(2.878353252 -0.2705768632 0)
(2.617112187 -0.6315533698 0)
(2.544071758 -0.7345943653 0)
(2.531829474 -0.7006358037 0)
(2.567601176 -0.6688612909 0)
(2.57956036 -0.6608973896 0)
(2.589418855 -0.6644201238 0)
(2.586351591 -0.6735864014 0)
(2.576520262 -0.6752377726 0)
(2.575107535 -0.6612549915 0)
(2.585567108 -0.6399715539 0)
(2.611576467 -0.6068219176 0)
(2.636581796 -0.5801356215 0)
(2.657842586 -0.5608380888 0)
(2.697846552 -0.5123270344 0)
(2.729539875 -0.4566626651 0)
(2.744355816 -0.4423350312 0)
(2.761666523 -0.4223115637 0)
(2.793459809 -0.3679228534 0)
(2.807466578 -0.3366090507 0)
(2.813442105 -0.3260003938 0)
(2.839384739 -0.2852960287 0)
(2.861693844 -0.2352704916 0)
(2.871379895 -0.2260346358 0)
(2.874679374 -0.2208045876 0)
(2.897834628 -0.1755750638 0)
(2.910149946 -0.1285524539 0)
(2.915198912 -0.123486924 0)
(2.917025976 -0.120767641 0)
(2.938072713 -0.08165461442 0)
(2.94779247 -0.04750077068 0)
(3 1.299897493e-15 0)
(2.999999998 -4.170927221e-09 0)
(2.99999939 -1.572570969e-06 0)
(2.99990689 -0.0002497231579 0)
(2.995487559 -0.0118582455 0)
(2.939251451 -0.1410671099 0)
(2.765648018 -0.4571449543 0)
(2.570202702 -0.7064762318 0)
(2.535951177 -0.7257772605 0)
(2.51885458 -0.7045770296 0)
(2.540554772 -0.6816443491 0)
(2.55923305 -0.6641678585 0)
(2.571247156 -0.663647375 0)
(2.578194037 -0.6665904573 0)
(2.580339264 -0.6639895515 0)
(2.586990479 -0.6498446302 0)
(2.601398682 -0.628644135 0)
(2.630778219 -0.5913874745 0)
(2.655200669 -0.5618437815 0)
(2.672377677 -0.5448726277 0)
(2.710827306 -0.4962194615 0)
(2.742911168 -0.437588013 0)
(2.756880697 -0.4227994037 0)
(2.773708317 -0.4029189915 0)
(2.807731356 -0.3463927996 0)
(2.823562096 -0.3112941805 0)
(2.828486438 -0.3032895656 0)
(2.85034501 -0.2675631654 0)
(2.873188317 -0.2155519249 0)
(2.883613244 -0.2017145375 0)
(2.886440469 -0.1971057914 0)
(2.907773789 -0.1544086226 0)
(2.919511832 -0.1084272044 0)
(2.924160264 -0.1037251116 0)
(2.925456572 -0.1014724369 0)
(2.946461753 -0.06228528633 0)
(2.956509373 -0.02583384622 0)
(3 -5.152298874e-15 0)
(2.999999947 -1.391684187e-07 0)
(2.999986794 -3.376081036e-05 0)
(2.998769343 -0.003483791025 0)
(2.971864549 -0.06920520705 0)
(2.836527389 -0.3543377083 0)
(2.681793215 -0.5869123476 0)
(2.577455199 -0.7010733182 0)
(2.531128524 -0.7171444104 0)
(2.519479223 -0.707190131 0)
(2.528281855 -0.6906201096 0)
(2.54896704 -0.6717932534 0)
(2.560135132 -0.6657450193 0)
(2.572726524 -0.6638051433 0)
(2.586612243 -0.6550273929 0)
(2.600759334 -0.6379318512 0)
(2.618897869 -0.6153936733 0)
(2.650175607 -0.5750765873 0)
(2.674973276 -0.5417296307 0)
(2.690300096 -0.5253284333 0)
(2.724884258 -0.4791304322 0)
(2.757694233 -0.4171303004 0)
(2.772350524 -0.3983967784 0)
(2.786457278 -0.3818203256 0)
(2.819189835 -0.3277007629 0)
(2.835811931 -0.2905218896 0)
(2.841553357 -0.281313291 0)
(2.86294373 -0.2454400029 0)
(2.884691947 -0.1938395912 0)
(2.894010999 -0.1803534354 0)
(2.895181541 -0.1781077865 0)
(2.91567284 -0.1369337162 0)
(2.928866163 -0.08740207664 0)
(2.934469326 -0.07884055298 0)
(2.935227022 -0.07876974377 0)
(2.953981108 -0.04315680787 0)
(2.963793693 -0.006905245039 0)
(3 -1.694546761e-12 0)
(2.999998621 -3.601033489e-06 0)
(2.99978098 -0.0005749688293 0)
(2.99067508 -0.02752823326 0)
(2.880920986 -0.2557576316 0)
(2.738474715 -0.5045700444 0)
(2.618261359 -0.6528625653 0)
(2.579538457 -0.6976880582 0)
(2.542865738 -0.7080410376 0)
(2.528512907 -0.7033962066 0)
(2.529473596 -0.6924753112 0)
(2.546691571 -0.6788428576 0)
(2.557919214 -0.6674240579 0)
(2.572534176 -0.6611459025 0)
(2.592271442 -0.6470892694 0)
(2.612313713 -0.6256264254 0)
(2.634049106 -0.6011768594 0)
(2.668749808 -0.556653602 0)
(2.694066806 -0.5198220806 0)
(2.707146028 -0.5054573628 0)
(2.740263641 -0.4597346195 0)
(2.772899238 -0.3955576788 0)
(2.786204606 -0.3765503796 0)
(2.799378545 -0.3596103822 0)
(2.833067236 -0.3035955725 0)
(2.850420031 -0.2636893542 0)
(2.855426853 -0.2567950743 0)
(2.873213878 -0.226021223 0)
(2.895590993 -0.1732122238 0)
(2.905634814 -0.1551567657 0)
(2.906718888 -0.1530586526 0)
(2.925086189 -0.1145522086 0)
(2.937372081 -0.06656604818 0)
(2.942474984 -0.05846308317 0)
(2.942824422 -0.05922025733 0)
(2.961281044 -0.02412471336 0)
(2.971589966 0.01372032837 0)
(3 -4.085464897e-10 0)
(2.999972467 -6.989579118e-05 0)
(2.997734669 -0.006777748318 0)
(2.949568956 -0.1234312507 0)
(2.736415529 -0.5051644085 0)
(2.636939137 -0.6110631728 0)
(2.598437484 -0.6636520652 0)
(2.5827566 -0.6880487421 0)
(2.558753621 -0.7013855344 0)
(2.54197214 -0.6999085043 0)
(2.538719373 -0.6932201129 0)
(2.54874401 -0.6828568135 0)
(2.561792298 -0.6696219566 0)
(2.576940621 -0.6586095548 0)
(2.599680887 -0.6383812201 0)
(2.621890492 -0.6137931188 0)
(2.645500777 -0.5878573649 0)
(2.683488994 -0.5392238653 0)
(2.711105501 -0.4971060112 0)
(2.7242599 -0.4828923729 0)
(2.754134273 -0.4405590332 0)
(2.787719368 -0.3736143706 0)
(2.801971419 -0.3500309442 0)
(2.812178517 -0.3369886208 0)
(2.843532926 -0.2844731515 0)
(2.861740375 -0.2419221534 0)
(2.867713676 -0.2330651198 0)
(2.885032618 -0.2022597615 0)
(2.906457733 -0.1501743608 0)
(2.915653438 -0.1324459837 0)
(2.915542775 -0.132779708 0)
(2.932617197 -0.09628317771 0)
(2.946193118 -0.0453920002 0)
(2.951959989 -0.03336252969 0)
(2.952275274 -0.0352837399 0)
(2.968756848 -0.00327789999 0)
(2.97897546 0.03435742374 0)
(2.999999972 -6.710776487e-08 0)
(2.999599893 -0.001006763679 0)
(2.987670782 -0.04246091974 0)
(2.815935411 -0.359516339 0)
(2.636961189 -0.6311601974 0)
(2.588960706 -0.6324981392 0)
(2.584162118 -0.6645805442 0)
(2.578476255 -0.6807935621 0)
(2.566769144 -0.6912015643 0)
(2.556400806 -0.6953741164 0)
(2.552793285 -0.6931470708 0)
(2.557175383 -0.6847083556 0)
(2.568399482 -0.6696372173 0)
(2.585090471 -0.6530325917 0)
(2.610978946 -0.6261707688 0)
(2.635452785 -0.5972402564 0)
(2.659199247 -0.5707817913 0)
(2.698975774 -0.5192828719 0)
(2.727794536 -0.4727665927 0)
(2.740367004 -0.4591756725 0)
(2.769131862 -0.4177125251 0)
(2.802285126 -0.3500769432 0)
(2.815430769 -0.3268917424 0)
(2.825055665 -0.3133688237 0)
(2.856890551 -0.2592937925 0)
(2.875173175 -0.2149035462 0)
(2.880485668 -0.2079857407 0)
(2.894552513 -0.1819876319 0)
(2.916408419 -0.1292651818 0)
(2.926344111 -0.106974863 0)
(2.926946148 -0.1063794048 0)
(2.94216487 -0.07219109845 0)
(2.954688207 -0.02338695996 0)
(2.959914441 -0.01196725871 0)
(2.959701298 -0.01551352543 0)
(2.97510308 0.01456563248 0)
(2.985471508 0.05243222152 0)
(2.999997553 -6.264964146e-06 0)
(2.996297647 -0.009966854518 0)
(2.941204287 -0.1564385893 0)
(2.687296611 -0.5593883003 0)
(2.546911391 -0.7151337552 0)
(2.541570898 -0.6641278473 0)
(2.565348813 -0.6617374457 0)
(2.57153543 -0.6773840237 0)
(2.569307038 -0.6871175652 0)
(2.564632264 -0.6905707462 0)
(2.562473829 -0.688478746 0)
(2.565466156 -0.68086523 0)
(2.577041105 -0.6651984753 0)
(2.595348263 -0.6448313526 0)
(2.624333726 -0.6113583397 0)
(2.649225857 -0.5801695862 0)
(2.672587882 -0.5538582893 0)
(2.7143461 -0.4989886025 0)
(2.744248984 -0.447888558 0)
(2.756372826 -0.434625041 0)
(2.78207061 -0.3964838181 0)
(2.816492491 -0.3263470856 0)
(2.831080158 -0.2979573439 0)
(2.838357227 -0.2884202465 0)
(2.867161909 -0.2390047807 0)
(2.88635982 -0.1919235385 0)
(2.892693343 -0.1822948027 0)
(2.906351095 -0.1560701733 0)
(2.92713069 -0.1042108347 0)
(2.936246256 -0.08226653751 0)
(2.935886343 -0.08471076757 0)
(2.949176485 -0.05372390754 0)
(2.962841374 -0.003078757126 0)
(2.968476861 0.0119192881 0)
(2.968519864 0.008775711586 0)
(2.982909211 0.03764968325 0)
(2.99366018 0.07671805814 0)
(2.999887175 -0.0003189746318 0)
(2.979823285 -0.05645415101 0)
(2.813369635 -0.3793868656 0)
(2.595087685 -0.6747801967 0)
(2.530813453 -0.6894298947 0)
(2.533037935 -0.6678650937 0)
(2.553554488 -0.6641950549 0)
(2.568271052 -0.675079043 0)
(2.570013594 -0.6835175315 0)
(2.56910045 -0.6863875381 0)
(2.568792331 -0.6864074548 0)
(2.574683512 -0.6765723299 0)
(2.587005297 -0.6581501239 0)
(2.606048636 -0.6349091605 0)
(2.638086108 -0.5954247798 0)
(2.665384835 -0.5591597711 0)
(2.688090482 -0.5330518423 0)
(2.730093147 -0.4769817494 0)
(2.761519673 -0.4207364024 0)
(2.773817348 -0.4068829736 0)
(2.797235592 -0.3710392834 0)
(2.830416053 -0.3017547996 0)
(2.843912968 -0.2738204648 0)
(2.850889647 -0.2634726177 0)
(2.879953991 -0.2126619971 0)
(2.898876381 -0.1643696854 0)
(2.90465125 -0.1563956581 0)
(2.915429346 -0.1348170269 0)
(2.936232152 -0.08335138594 0)
(2.94588478 -0.05755949208 0)
(2.946524445 -0.05814564839 0)
(2.958511981 -0.02874606368 0)
(2.97123696 0.01980555026 0)
(2.97638356 0.0345989366 0)
(2.976190245 0.02944120034 0)
(2.988527602 0.05466088481 0)
(2.998796162 0.09248788426 0)
(2.997636598 -0.007393156868 0)
(2.908112042 -0.2173505637 0)
(2.712526038 -0.5300152992 0)
(2.557094511 -0.7043921484 0)
(2.514811717 -0.6965971514 0)
(2.526721478 -0.6818528769 0)
(2.549386475 -0.67644385 0)
(2.566998396 -0.6810562741 0)
(2.571332146 -0.6849567458 0)
(2.572272311 -0.6844520616 0)
(2.574372737 -0.6810174773 0)
(2.583339845 -0.6684241322 0)
(2.598031415 -0.6476380441 0)
(2.618738256 -0.6222626522 0)
(2.65365109 -0.5768683724 0)
(2.680718849 -0.5381340707 0)
(2.70244545 -0.5121322061 0)
(2.745792165 -0.4531866906 0)
(2.777499828 -0.3938526749 0)
(2.789290316 -0.3808787685 0)
(2.810275194 -0.3480362538 0)
(2.844679393 -0.2766723447 0)
(2.859395423 -0.2434536846 0)
(2.864522788 -0.2368709129 0)
(2.890000939 -0.1914926729 0)
(2.909641941 -0.1409021717 0)
(2.916298334 -0.1298618493 0)
(2.926870579 -0.107682716 0)
(2.94685906 -0.05679683688 0)
(2.955811044 -0.03093070824 0)
(2.95578416 -0.0344018646 0)
(2.965478328 -0.00881834595 0)
(2.979055597 0.0408459103 0)
(2.984447929 0.05876259248 0)
(2.984774175 0.05549816764 0)
(2.996976015 0.08136109638 0)
(3.007947306 0.1209093459 0)
(2.976050995 -0.05321251864 0)
(2.76465045 -0.4514912259 0)
(2.578956206 -0.6761530824 0)
(2.550617525 -0.7040719208 0)
(2.533179495 -0.68879809 0)
(2.541234325 -0.6816026872 0)
(2.554741199 -0.6804746854 0)
(2.567075604 -0.6838957963 0)
(2.572189677 -0.6840468321 0)
(2.573649856 -0.6824111078 0)
(2.580431965 -0.674969829 0)
(2.593883395 -0.6580523725 0)
(2.610332467 -0.6349965566 0)
(2.632139835 -0.6078902201 0)
(2.6699182 -0.5567480247 0)
(2.698476474 -0.5132714759 0)
(2.718496727 -0.4887794867 0)
(2.760482561 -0.430470564 0)
(2.793842103 -0.36556724 0)
(2.806569903 -0.3504429834 0)
(2.825125768 -0.3209226297 0)
(2.858201541 -0.2514947489 0)
(2.872211459 -0.2180717623 0)
(2.877617642 -0.2098517991 0)
(2.903141402 -0.163107365 0)
(2.922080339 -0.1118263807 0)
(2.928164869 -0.1021844155 0)
(2.935913141 -0.08490920344 0)
(2.955271375 -0.0358131829 0)
(2.964404958 -0.007244326128 0)
(2.965262148 -0.008731622513 0)
(2.974061351 0.01547283315 0)
(2.986537178 0.06265201503 0)
(2.991333469 0.08052676256 0)
(2.991451088 0.0752531834 0)
(3.001437555 0.09687175521 0)
(3.012211058 0.1354454472 0)
(2.823959334 -0.3115735193 0)
(2.640399152 -0.57965256 0)
(2.574534187 -0.6695028802 0)
(2.555716329 -0.6921280043 0)
(2.548139161 -0.6915805057 0)
(2.547095327 -0.6885183777 0)
(2.555069812 -0.6875067459 0)
(2.566079189 -0.6868189773 0)
(2.572370455 -0.683251461 0)
(2.57660304 -0.6795707492 0)
(2.58600064 -0.6704607802 0)
(2.603355903 -0.6485253645 0)
(2.623007844 -0.6202096977 0)
(2.646779544 -0.5900266646 0)
(2.687408108 -0.5335028636 0)
(2.716499311 -0.48730168 0)
(2.735702648 -0.4632871886 0)
(2.777544735 -0.4034030899 0)
(2.809807748 -0.3367905616 0)
(2.821429353 -0.3226197751 0)
(2.838205725 -0.29504652 0)
(2.872522513 -0.2236225686 0)
(2.887606226 -0.1853401599 0)
(2.891673321 -0.1807332214 0)
(2.913234446 -0.1401190868 0)
(2.932476229 -0.08766834473 0)
(2.939076323 -0.07547826649 0)
(2.946508585 -0.0575616784 0)
(2.965541895 -0.008205529637 0)
(2.974282167 0.02161451148 0)
(2.975052254 0.01933204941 0)
(2.982131706 0.04135740076 0)
(2.995236454 0.08964583178 0)
(3.000296678 0.1106002886 0)
(3.001176665 0.1071852805 0)
(3.010760504 0.1289190363 0)
(3.021432974 0.1674325507 0)
(2.67912273 -0.5176729308 0)
(2.580715358 -0.6485937742 0)
(2.571055271 -0.6831918869 0)
(2.561116297 -0.6970352401 0)
(2.553489921 -0.7012276343 0)
(2.552146782 -0.6984191207 0)
(2.556827846 -0.6934633671 0)
(2.567524331 -0.687136603 0)
(2.572425099 -0.6824329173 0)
(2.579899653 -0.6765198629 0)
(2.593187555 -0.6630603024 0)
(2.614740172 -0.6342401267 0)
(2.636086599 -0.6023881525 0)
(2.661647854 -0.5697309191 0)
(2.706043086 -0.5072673443 0)
(2.736212714 -0.4576210773 0)
(2.75332758 -0.4364175231 0)
(2.792840209 -0.3781943706 0)
(2.826507086 -0.305886353 0)
(2.839074594 -0.2886265655 0)
(2.852902768 -0.2653543662 0)
(2.885159476 -0.197257249 0)
(2.899704449 -0.1589661345 0)
(2.904241811 -0.1524629628 0)
(2.926000492 -0.1103479351 0)
(2.944589722 -0.05742837159 0)
(2.950886037 -0.04586621536 0)
(2.955979964 -0.03249778154 0)
(2.973447228 0.01360970571 0)
(2.981696945 0.04418403244 0)
(2.982673689 0.04179851292 0)
(2.987944418 0.0602817072 0)
(3.000324923 0.1062730954 0)
(3.004894344 0.1274772113 0)
(3.00561482 0.1228701333 0)
(3.013915703 0.1416842328 0)
(3.0254119 0.1808410323 0)
(2.606117379 -0.6271603036 0)
(2.575463623 -0.6732814558 0)
(2.572580062 -0.6824392682 0)
(2.566298127 -0.699224493 0)
(2.561279156 -0.7011324538 0)
(2.560009709 -0.6972018308 0)
(2.562203653 -0.6900100224 0)
(2.568620106 -0.682499008 0)
(2.574184075 -0.6785971937 0)
(2.584849254 -0.6695644846 0)
(2.600327082 -0.6532787842 0)
(2.625901215 -0.6186695481 0)
(2.650852459 -0.5817373729 0)
(2.677528522 -0.5481845646 0)
(2.723698154 -0.4824161615 0)
(2.755039537 -0.4283665275 0)
(2.771906467 -0.4066147485 0)
(2.810250793 -0.3480904602 0)
(2.842175457 -0.2755017365 0)
(2.853637996 -0.2594272396 0)
(2.865890847 -0.2377646727 0)
(2.898939342 -0.167929371 0)
(2.91410213 -0.1253196053 0)
(2.9178139 -0.1219243458 0)
(2.935880283 -0.08617375617 0)
(2.954437097 -0.03316511247 0)
(2.960991969 -0.01971619564 0)
(2.965641132 -0.005701009311 0)
(2.983333038 0.04196958608 0)
(2.991631571 0.0756592091 0)
(2.99323653 0.07558890893 0)
(2.998048416 0.09430280396 0)
(3.010521062 0.1405289704 0)
(3.015339015 0.1634405868 0)
(3.01680439 0.1594575759 0)
(3.024188951 0.1763005438 0)
(3.033818938 0.2122456602 0)
(2.566161855 -0.6889934651 0)
(2.570134184 -0.6851009962 0)
(2.568785103 -0.688305074 0)
(2.56496921 -0.6933425938 0)
(2.562800865 -0.6929784547 0)
(2.562322324 -0.688476273 0)
(2.565909167 -0.6818427676 0)
(2.569100185 -0.6785075388 0)
(2.57753028 -0.6729918889 0)
(2.590131382 -0.6617295598 0)
(2.609122971 -0.641578108 0)
(2.639969326 -0.6001010022 0)
(2.666492973 -0.5614122171 0)
(2.694480273 -0.526074521 0)
(2.743854686 -0.4538763668 0)
(2.774847357 -0.3966630531 0)
(2.789387666 -0.3773594287 0)
(2.825499068 -0.3203149399 0)
(2.858793189 -0.2424794005 0)
(2.871357978 -0.2227882907 0)
(2.880764413 -0.2061302026 0)
(2.911016513 -0.1410511937 0)
(2.92548388 -0.09874176317 0)
(2.929596861 -0.09317100598 0)
(2.947907964 -0.05603830015 0)
(2.966096026 -0.002276281714 0)
(2.972657975 0.0117909213 0)
(2.975698334 0.0215150572 0)
(2.990473112 0.06396803983 0)
(2.997693284 0.09616932063 0)
(2.998890183 0.09434182757 0)
(3.001761311 0.1085301051 0)
(3.014457057 0.1531471511 0)
(3.019197288 0.1773663219 0)
(3.020614148 0.1737193432 0)
(3.027667511 0.1906507104 0)
(3.038538887 0.22893232 0)
(2.570361282 -0.6859345219 0)
(2.567746898 -0.6886267084 0)
(2.566086552 -0.6907983258 0)
(2.565170105 -0.6900318987 0)
(2.563476197 -0.6867106292 0)
(2.563700035 -0.682239901 0)
(2.566922326 -0.6783458443 0)
(2.57157813 -0.6751789633 0)
(2.581637126 -0.6671157204 0)
(2.59706957 -0.6527064222 0)
(2.619516 -0.6290479732 0)
(2.655300637 -0.5804182896 0)
(2.685669681 -0.5351073048 0)
(2.713261226 -0.500412493 0)
(2.762158913 -0.4268524564 0)
(2.794628032 -0.363196205 0)
(2.809283774 -0.3423271113 0)
(2.843010343 -0.2866758284 0)
(2.874088647 -0.2098089441 0)
(2.885471142 -0.1915158524 0)
(2.89365021 -0.1760617025 0)
(2.924780396 -0.1091468243 0)
(2.939675349 -0.06269809544 0)
(2.94338865 -0.05915558484 0)
(2.958392717 -0.02736929923 0)
(2.976122463 0.02603603033 0)
(2.982762056 0.04186014229 0)
(2.98559663 0.05318198879 0)
(3.000623892 0.09760663703 0)
(3.008295596 0.1330807809 0)
(3.010546299 0.1336936569 0)
(3.013452167 0.1476308702 0)
(3.025329487 0.1901154257 0)
(3.029456881 0.212811299 0)
(3.031124602 0.2068605835 0)
(3.035704345 0.2186023682 0)
(3.044426663 0.2531284279 0)
(2.56847524 -0.6856826393 0)
(2.565871372 -0.689408708 0)
(2.566005441 -0.6896298976 0)
(2.565874769 -0.688748912 0)
(2.565266426 -0.6864715648 0)
(2.56620869 -0.6821880963 0)
(2.568221811 -0.6790641287 0)
(2.57398783 -0.6744655213 0)
(2.587009587 -0.6621670168 0)
(2.605668701 -0.6422961954 0)
(2.633000185 -0.6111378212 0)
(2.674122773 -0.553123691 0)
(2.704322013 -0.5064481871 0)
(2.733600445 -0.4687831014 0)
(2.78476123 -0.3891611414 0)
(2.8149486 -0.3258784306 0)
(2.826707342 -0.3096321763 0)
(2.858379021 -0.2554846476 0)
(2.890500776 -0.1739832115 0)
(2.902614258 -0.1520533352 0)
(2.90860891 -0.1407794267 0)
(2.936565317 -0.07928906065 0)
(2.950562896 -0.03380675941 0)
(2.954504422 -0.02918035816 0)
(2.96876698 0.001920679369 0)
(2.985279317 0.05403678669 0)
(2.991554384 0.06952599676 0)
(2.99269602 0.07569038391 0)
(3.005671783 0.1154928332 0)
(3.012691774 0.1505312239 0)
(3.014793055 0.1508040261 0)
(3.016559233 0.1622752576 0)
(3.029964355 0.2052565103 0)
(3.034218057 0.2312498046 0)
(3.036295258 0.2289139655 0)
(3.041529995 0.2427850967 0)
(3.050486196 0.2780049446 0)
(2.565496924 -0.6877537609 0)
(2.565623568 -0.688399476 0)
(2.566394678 -0.6882221622 0)
(2.566372143 -0.6881523531 0)
(2.566252538 -0.6871710139 0)
(2.567217003 -0.6845113246 0)
(2.569793537 -0.6815463679 0)
(2.577400169 -0.6738970827 0)
(2.59418428 -0.654823367 0)
(2.617520154 -0.6262884006 0)
(2.648001454 -0.5890009231 0)
(2.693857088 -0.5217043084 0)
(2.727469728 -0.4678924415 0)
(2.754176059 -0.4331599884 0)
(2.802705125 -0.3545938354 0)
(2.834938552 -0.2857125647 0)
(2.847268937 -0.2702949607 0)
(2.875375584 -0.2203920061 0)
(2.905267952 -0.1407304826 0)
(2.916182491 -0.1200003644 0)
(2.92077808 -0.1099225798 0)
(2.949603501 -0.04653068899 0)
(2.964029341 0.003237180741 0)
(2.968021845 0.008144511113 0)
(2.980279237 0.03730224953 0)
(2.996620101 0.09066941329 0)
(3.003175889 0.1095687721 0)
(3.00459015 0.1175411397 0)
(3.017074337 0.1574184166 0)
(3.02395768 0.1930415493 0)
(3.026588678 0.1926945571 0)
(3.027537128 0.2000097596 0)
(3.038235356 0.2377942663 0)
(3.041182559 0.2590747269 0)
(3.042350766 0.2536747413 0)
(3.046067827 0.2646767141 0)
(3.054698226 0.2985957285 0)
(2.564428178 -0.6892723902 0)
(2.566382964 -0.6873631287 0)
(2.566589666 -0.6875218188 0)
(2.56637779 -0.6878032798 0)
(2.566594913 -0.6875165895 0)
(2.567706168 -0.686190685 0)
(2.571810461 -0.6814591868 0)
(2.582524109 -0.6693377531 0)
(2.604486368 -0.6420699632 0)
(2.631475438 -0.6064492044 0)
(2.666753051 -0.561227101 0)
(2.71591593 -0.4854836957 0)
(2.747672328 -0.4319166808 0)
(2.775475054 -0.3944093045 0)
(2.824684536 -0.3116101968 0)
(2.853827113 -0.2462888382 0)
(2.864302868 -0.2367453303 0)
(2.890385951 -0.1892662425 0)
(2.92108487 -0.1056947918 0)
(2.932491745 -0.08033562025 0)
(2.936002779 -0.07259390762 0)
(2.961863325 -0.01459278607 0)
(2.974692049 0.03240045427 0)
(2.978248761 0.03545008628 0)
(2.987857485 0.05966799887 0)
(3.002641932 0.1102174205 0)
(3.008534721 0.1279468099 0)
(3.008565672 0.1319397423 0)
(3.020874145 0.1701126832 0)
(3.028243642 0.2084253927 0)
(3.030733848 0.2106555552 0)
(3.0320082 0.2211828585 0)
(3.044147055 0.2603364402 0)
(3.047651907 0.2851699459 0)
(3.049974389 0.2824518272 0)
(3.053225198 0.2923744762 0)
(3.060834156 0.3249360032 0)
(2.565940124 -0.6883077353 0)
(2.5670749 -0.6870578366 0)
(2.5665274 -0.6876193519 0)
(2.566316939 -0.6877289196 0)
(2.566610808 -0.6872617629 0)
(2.568558256 -0.6848391819 0)
(2.574872809 -0.677334864 0)
(2.589674681 -0.6601516342 0)
(2.617971893 -0.6238565718 0)
(2.649201303 -0.5812789019 0)
(2.686138077 -0.5327656358 0)
(2.739145952 -0.4484203857 0)
(2.772285576 -0.3900014702 0)
(2.795721907 -0.3583757766 0)
(2.842521286 -0.2771373531 0)
(2.873385929 -0.2046080645 0)
(2.884944264 -0.1943430131 0)
(2.90724661 -0.1524940003 0)
(2.935728738 -0.07170742105 0)
(2.946182623 -0.04780701197 0)
(2.948221946 -0.04207617836 0)
(2.974719388 0.01785995964 0)
(2.988325418 0.07132043536 0)
(2.992507526 0.07947084374 0)
(3.002198814 0.1054772621 0)
(3.017071668 0.1567872721 0)
(3.023729764 0.1768560773 0)
(3.02450524 0.1807370997 0)
(3.034241107 0.2151171434 0)
(3.038929003 0.2480423167 0)
(3.040421902 0.2457604602 0)
(3.038996084 0.2501921546 0)
(3.049849998 0.2855943494 0)
(3.052632589 0.3088049867 0)
(3.054911016 0.3055524758 0)
(3.057744165 0.3143758624 0)
(3.065392751 0.3464507071 0)
(2.567679932 -0.6865108164 0)
(2.567032691 -0.6872808974 0)
(2.566119563 -0.6877737733 0)
(2.56607252 -0.6875618391 0)
(2.566539226 -0.6865960775 0)
(2.569698344 -0.6823325024 0)
(2.579084508 -0.6708346416 0)
(2.599178739 -0.6471535148 0)
(2.634083522 -0.6012983347 0)
(2.669221688 -0.552723746 0)
(2.709363967 -0.4996606511 0)
(2.763299924 -0.4104797484 0)
(2.794969793 -0.3526910113 0)
(2.818454841 -0.3184931646 0)
(2.864735244 -0.2340671846 0)
(2.891860565 -0.1649603105 0)
(2.901394758 -0.1581563321 0)
(2.921929344 -0.1182023592 0)
(2.95088857 -0.0355414471 0)
(2.961978765 -0.007256502742 0)
(2.964396553 -0.003260741206 0)
(2.986054127 0.0493044015 0)
(2.99708836 0.09807975114 0)
(2.999786459 0.1028159286 0)
(3.006937244 0.1236548254 0)
(3.021439896 0.1736884299 0)
(3.028077956 0.1947086422 0)
(3.028445314 0.1974325539 0)
(3.03912397 0.2328042608 0)
(3.044563183 0.2712060233 0)
(3.046923705 0.274365321 0)
(3.04627888 0.2798308067 0)
(3.056755964 0.3144432472 0)
(3.05941144 0.3379301618 0)
(3.061896641 0.3348583654 0)
(3.063709923 0.3412616779 0)
(3.070406831 0.3713983927 0)
(2.567989655 -0.686090217 0)
(2.566054192 -0.6877641184 0)
(2.565702421 -0.6876831689 0)
(2.565654605 -0.6872849515 0)
(2.566612217 -0.6853640409 0)
(2.571966644 -0.6781935926 0)
(2.585598899 -0.6614516658 0)
(2.611910873 -0.630208132 0)
(2.654184228 -0.5732936017 0)
(2.692028048 -0.520093972 0)
(2.732934595 -0.4653630006 0)
(2.789721865 -0.3680688751 0)
(2.821255519 -0.3077033531 0)
(2.839452071 -0.2818003212 0)
(2.883536348 -0.1988950042 0)
(2.911895737 -0.1206762422 0)
(2.921893105 -0.1105710072 0)
(2.93965366 -0.07373628464 0)
(2.966355887 0.006902457579 0)
(2.976586323 0.0344100207 0)
(2.978438866 0.0404679698 0)
(3.000763471 0.09639327754 0)
(3.012804632 0.1495866972 0)
(3.016765677 0.1577192584 0)
(3.023616902 0.1779784117 0)
(3.035897815 0.2250523518 0)
(3.041434203 0.2427399689 0)
(3.040870582 0.2391438771 0)
(3.047907963 0.2679840616 0)
(3.051062499 0.3010080577 0)
(3.052355954 0.3012622496 0)
(3.050799755 0.3049770508 0)
(3.06154612 0.3377293913 0)
(3.064262468 0.3608749607 0)
(3.066967861 0.3585807363 0)
(3.068701122 0.3649415175 0)
(3.075026387 0.3945687269 0)
(2.56640538 -0.6871600963 0)
(2.56533235 -0.6876560431 0)
(2.565099577 -0.687365513 0)
(2.565124056 -0.6867141964 0)
(2.567181815 -0.6833830689 0)
(2.576003172 -0.6721340301 0)
(2.595360857 -0.6484923579 0)
(2.628400906 -0.6089412998 0)
(2.677218891 -0.5411001483 0)
(2.717976189 -0.4820848111 0)
(2.759624968 -0.424981345 0)
(2.815107664 -0.325022794 0)
(2.845537672 -0.2643259818 0)
(2.864129604 -0.2352112665 0)
(2.906627663 -0.150665924 0)
(2.930790716 -0.07667589923 0)
(2.938135028 -0.06952552867 0)
(2.953862819 -0.03487108684 0)
(2.978109975 0.04246285986 0)
(2.987541662 0.06970985343 0)
(2.987492618 0.06962460849 0)
(3.005981206 0.1185299112 0)
(3.017458781 0.1713147089 0)
(3.02172056 0.1786275351 0)
(3.028150281 0.1967800719 0)
(3.041923793 0.2463424272 0)
(3.047299418 0.2678552709 0)
(3.047476875 0.2681349896 0)
(3.054828349 0.2979331091 0)
(3.058666333 0.3330479247 0)
(3.06036307 0.335269544 0)
(3.058237419 0.337562528 0)
(3.067934116 0.3682550498 0)
(3.07028352 0.3904309151 0)
(3.072909354 0.3881814876 0)
(3.074277792 0.3933924686 0)
(3.079600019 0.420677048 0)
(2.564767028 -0.6877518444 0)
(2.564570076 -0.6872014867 0)
(2.564360389 -0.6869293903 0)
(2.564697256 -0.6857161699 0)
(2.568807944 -0.6802117269 0)
(2.582766222 -0.663139651 0)
(2.608747113 -0.6314348046 0)
(2.649143863 -0.5823447011 0)
(2.704311674 -0.5024415696 0)
(2.745253536 -0.4410467948 0)
(2.786661083 -0.3817785324 0)
(2.843484864 -0.2736587536 0)
(2.8723436 -0.2121571639 0)
(2.885202049 -0.193219078 0)
(2.924918819 -0.1115580672 0)
(2.950192949 -0.02977845157 0)
(2.957519625 -0.01909340027 0)
(2.972001839 0.01787548124 0)
(2.996427689 0.09828042624 0)
(3.006288644 0.1305146921 0)
(3.008629038 0.13483085 0)
(3.025411858 0.1831570119 0)
(3.034617324 0.233768856 0)
(3.03885674 0.2367873178 0)
(3.043042384 0.2475153165 0)
(3.05265211 0.2895861455 0)
(3.056196098 0.304950825 0)
(3.054501824 0.3003790659 0)
(3.060254634 0.3262992194 0)
(3.063776969 0.3594923064 0)
(3.065473252 0.3614930508 0)
(3.063264296 0.3642111704 0)
(3.073058003 0.3936248434 0)
(3.075146472 0.4157886197 0)
(3.077824352 0.4140798286 0)
(3.078766526 0.4183253261 0)
(3.083835389 0.4450353602 0)
(2.56383001 -0.6875034251 0)
(2.563825907 -0.6866717124 0)
(2.563504294 -0.6864609524 0)
(2.564910241 -0.6840898004 0)
(2.572332634 -0.6752359846 0)
(2.593200835 -0.6501854277 0)
(2.627023706 -0.6084663158 0)
(2.673916253 -0.5500789249 0)
(2.734062148 -0.4586211159 0)
(2.776149676 -0.3924264799 0)
(2.815395854 -0.3337591649 0)
(2.868902497 -0.2251033713 0)
(2.896789992 -0.161639822 0)
(2.9105566 -0.1385237146 0)
(2.948385498 -0.05612182391 0)
(2.968693235 0.01932819406 0)
(2.973953221 0.02348462172 0)
(2.982915599 0.05002878119 0)
(3.004042697 0.1246013037 0)
(3.012319514 0.1551353332 0)
(3.012940275 0.1548522425 0)
(3.029325153 0.201020021 0)
(3.039566087 0.2543238035 0)
(3.044428262 0.2597382297 0)
(3.049661924 0.274353844 0)
(3.060418247 0.3182567792 0)
(3.064525396 0.3373782054 0)
(3.063135882 0.3338320122 0)
(3.067860359 0.3585752444 0)
(3.070732337 0.3915126218 0)
(3.072307365 0.393927457 0)
(3.069395093 0.3945055658 0)
(3.078618579 0.4218151896 0)
(3.080280412 0.4438660679 0)
(3.082898261 0.44289615 0)
(3.083650903 0.4462255723 0)
(3.088020529 0.4709840379 0)
(2.563424366 -0.6866156601 0)
(2.563074925 -0.6865660894 0)
(2.563006889 -0.6858587978 0)
(2.566283813 -0.6817152661 0)
(2.578657167 -0.6677289682 0)
(2.608482696 -0.6316918008 0)
(2.650060641 -0.5791997016 0)
(2.703095512 -0.5108502057 0)
(2.766663472 -0.4080511263 0)
(2.806872679 -0.3416245141 0)
(2.845010902 -0.2807736967 0)
(2.898423097 -0.1642979959 0)
(2.923267018 -0.1024692247 0)
(2.93152795 -0.09122710275 0)
(2.966429289 -0.01122180471 0)
(2.987696545 0.07293388342 0)
(2.993643629 0.08602592695 0)
(3.003939737 0.1186323634 0)
(3.024707593 0.1939893842 0)
(3.033304228 0.2260375477 0)
(3.035425052 0.2250517349 0)
(3.047575006 0.2651613656 0)
(3.052823511 0.3085408487 0)
(3.05659841 0.3059622309 0)
(3.058505509 0.3116835709 0)
(3.06773742 0.3512627043 0)
(3.070842331 0.368108392 0)
(3.06878532 0.3630709594 0)
(3.073346699 0.3859423558 0)
(3.07632261 0.4184424297 0)
(3.078040853 0.4221389702 0)
(3.075459882 0.4232062861 0)
(3.084026321 0.4492211256 0)
(3.085157617 0.470314093 0)
(3.087642207 0.4689572245 0)
(3.087963222 0.4710245771 0)
(3.092019505 0.4950395852 0)
(2.56308058 -0.6861019443 0)
(2.562384877 -0.6865248523 0)
(2.563312871 -0.6850568119 0)
(2.569627043 -0.6779441675 0)
(2.589148536 -0.6560343029 0)
(2.6291542 -0.6065763006 0)
(2.678234574 -0.5424087523 0)
(2.736057397 -0.4640712156 0)
(2.801701192 -0.3501265655 0)
(2.84058483 -0.2817178331 0)
(2.873867722 -0.2259206023 0)
(2.922921448 -0.1110450448 0)
(2.94611418 -0.04791891184 0)
(2.955498867 -0.03394777127 0)
(2.984548563 0.04000341686 0)
(2.999801558 0.1130742134 0)
(3.003392665 0.1169261006 0)
(3.009772855 0.1402203258 0)
(3.031425837 0.2147558427 0)
(3.039817543 0.2488455418 0)
(3.041101422 0.2481523322 0)
(3.054335602 0.2899195794 0)
(3.060124068 0.3386839429 0)
(3.065140747 0.3418487478 0)
(3.067244779 0.3466937771 0)
(3.075804986 0.3858275278 0)
(3.078043205 0.4037576175 0)
(3.075765586 0.3988144977 0)
(3.079536853 0.4194493106 0)
(3.082164639 0.4507428638 0)
(3.083958529 0.4544134669 0)
(3.081316846 0.4540855831 0)
(3.0891961 0.4780273551 0)
(3.089959944 0.4985629696 0)
(3.092285313 0.4976906518 0)
(3.092600306 0.5001325011 0)
(3.095939103 0.5223371222 0)
(2.562569504 -0.6862476042 0)
(2.56214362 -0.6865657066 0)
(2.564952976 -0.6834767526 0)
(2.576028097 -0.6714294726 0)
(2.604593438 -0.6389671399 0)
(2.656583172 -0.5720692027 0)
(2.712007221 -0.4958375345 0)
(2.771544849 -0.4104778639 0)
(2.836840748 -0.2872971667 0)
(2.872470215 -0.2202977409 0)