/*--------------------------------*- C++ -*----------------------------------*\
  =========                 |
  \\      /  F ield         | OpenFOAM: The Open Source CFD Toolbox
   \\    /   O peration     | Website:  https://openfoam.org
    \\  /    A nd           | Version:  7
     \\/     M anipulation  |
\*---------------------------------------------------------------------------*/
FoamFile
{
    version     2.0;
    format      ascii;
    class       volScalarField;
    location    "1.1";
    object      T;
}
// * * * * * * * * * * * * * * * * * * * * * * * * * * * * * * * * * * * * * //

dimensions      [0 0 0 1 0 0 0];

internalField   nonuniform List<scalar> 
138
(
1
1
1
1
1
1
1
1
1
1
1
1
1
1
1
1
1
1
1
1
1
1
1
1
1
1
1
1
1
1
1
1
1
1
1
1
1
1
1
1
1
1
1
1
1
1
1
1
1
1
1
1
1
1
1
1
1
1
1
1
1
1
1
1
1
1
1
1
1
1
1
1
1
1
1
1
1
1
1
1
1
1
1
1
1
1
1
1
1
1
1
1
1
1
1
1
1
1
1
1
1
1
1
1
1
1
1
1
1
1
1
1
1
1
1
0.9999999975
1
1
1
1
1
1
1
1
1
1
1
1
1
1
1
1.000000002
0.9999999204
1.000000001
1.000000006
1.000000035
1.000000776
0.9999995242
)
;

boundaryField
{
    inlet
    {
        type            fixedValue;
        value           nonuniform 0();
    }
    outlet
    {
        type            inletOutlet;
        inletValue      nonuniform 0();
        value           nonuniform 0();
    }
    bottom
    {
        type            slip;
    }
    top
    {
        type            slip;
    }
    obstacle
    {
        type            zeroGradient;
    }
    defaultFaces
    {
        type            empty;
    }
    procBoundary8to1
    {
        type            processor;
        value           uniform 1;
    }
    procBoundary8to2
    {
        type            processor;
        value           nonuniform List<scalar> 
18
(
1
1
1
1
1
1
1
1
1
1
1
1
1
1
1
1
1
1
)
;
    }
    procBoundary8to3
    {
        type            processor;
        value           nonuniform List<scalar> 7(1 1 1 1 1.000000001 1.000000089 1.00000614);
    }
    procBoundary8to7
    {
        type            processor;
        value           nonuniform List<scalar> 7(1 1 1 1 1 1 1);
    }
    procBoundary8to9
    {
        type            processor;
        value           uniform 1.000214854;
    }
    procBoundary8to14
    {
        type            processor;
        value           nonuniform List<scalar> 
18
(
1
1
1
1
1
1
1
1
1
1
1
1
1
1.000001594
1.000005805
1.000020857
1.000093742
1.00010513
)
;
    }
}


// ************************************************************************* //
