/*--------------------------------*- C++ -*----------------------------------*\
  =========                 |
  \\      /  F ield         | OpenFOAM: The Open Source CFD Toolbox
   \\    /   O peration     | Website:  https://openfoam.org
    \\  /    A nd           | Version:  7
     \\/     M anipulation  |
\*---------------------------------------------------------------------------*/
FoamFile
{
    version     2.0;
    format      ascii;
    class       volScalarField;
    location    "1.5";
    object      rho;
}
// * * * * * * * * * * * * * * * * * * * * * * * * * * * * * * * * * * * * * //

dimensions      [1 -3 0 0 0 0 0];

internalField   nonuniform List<scalar> 5(1.40000504 1.40000504 1.40000504 1.40000504 1.40000504);

boundaryField
{
    inlet
    {
        type            calculated;
        value           uniform 1.40000504;
    }
    outlet
    {
        type            calculated;
        value           nonuniform 0();
    }
    bottom
    {
        type            calculated;
        value           nonuniform 0();
    }
    top
    {
        type            calculated;
        value           nonuniform 0();
    }
    obstacle
    {
        type            calculated;
        value           nonuniform 0();
    }
    defaultFaces
    {
        type            empty;
    }
    procBoundary24to18
    {
        type            processor;
        value           uniform 1.40000504;
    }
    procBoundary24to25
    {
        type            processor;
        value           nonuniform List<scalar> 3(1.40000504 1.40000504 1.40000504);
    }
    procBoundary24to30
    {
        type            processor;
        value           nonuniform List<scalar> 4(1.40000504 1.40000504 1.40000504 1.40000504);
    }
}


// ************************************************************************* //
