/*--------------------------------*- C++ -*----------------------------------*\
  =========                 |
  \\      /  F ield         | OpenFOAM: The Open Source CFD Toolbox
   \\    /   O peration     | Website:  https://openfoam.org
    \\  /    A nd           | Version:  7
     \\/     M anipulation  |
\*---------------------------------------------------------------------------*/
FoamFile
{
    version     2.0;
    format      ascii;
    class       volVectorField;
    location    "0.3";
    object      U;
}
// * * * * * * * * * * * * * * * * * * * * * * * * * * * * * * * * * * * * * //

dimensions      [0 1 -1 0 0 0 0];

internalField   nonuniform List<vector> 
2222
(
(3.012781372 0.00796590668 0)
(3.014927357 0.008982875343 0)
(3.017555501 0.004801637504 0)
(3.019874968 0.003680647759 0)
(3.020468383 0.004500784469 0)
(3.02214134 0.004978410904 0)
(3.023529712 0.003607706854 0)
(3.025865757 -0.001291078611 0)
(3.374877213 0.4569259668 0)
(3.298661405 0.4565782093 0)
(3.198720857 0.4263028034 0)
(3.106620718 0.3946880504 0)
(3.026164173 0.385497341 0)
(2.985215538 0.3785101521 0)
(2.974093892 0.3851239955 0)
(2.972954226 0.388109662 0)
(2.982825024 0.3843346732 0)
(2.995857697 0.3849280059 0)
(3.007492366 0.3878653154 0)
(3.016396411 0.3897051948 0)
(3.026087602 0.3920115322 0)
(3.040567447 0.3961430028 0)
(3.057414095 0.399379544 0)
(3.070891298 0.4002590459 0)
(3.080055873 0.3999204776 0)
(3.086214074 0.3970908443 0)
(3.087179784 0.3760671483 0)
(3.070568943 0.2907953721 0)
(3.031315154 0.1258974816 0)
(3.007371908 0.03342606554 0)
(3.003447653 0.009498367201 0)
(3.007945592 0.003970182844 0)
(3.009869258 0.004452611765 0)
(3.011805544 0.007436412116 0)
(3.013809741 0.008876313001 0)
(3.016480875 0.003900548906 0)
(3.018785437 0.003736484865 0)
(3.019350625 0.004549937635 0)
(3.020820217 0.005536426852 0)
(3.02238475 0.003784360127 0)
(3.024503264 -0.001146528747 0)
(3.396145869 0.4384737112 0)
(3.371263946 0.4588157539 0)
(3.295346579 0.4534321633 0)
(3.194356072 0.4236983112 0)
(3.101840941 0.3942353516 0)
(3.02301042 0.3857218857 0)
(2.984292568 0.3786924645 0)
(2.973939549 0.3856597043 0)
(2.972296255 0.3878952877 0)
(2.982145889 0.3840907576 0)
(2.995485972 0.3856200492 0)
(3.006858647 0.3884123278 0)
(3.015331061 0.3898438373 0)
(3.025691941 0.392271247 0)
(3.040882598 0.3966458784 0)
(3.057601336 0.3996086853 0)
(3.070567854 0.400113682 0)
(3.079499838 0.3994825676 0)
(3.085369118 0.394735223 0)
(3.083694626 0.3571601415 0)
(3.060352856 0.2482266135 0)
(3.024287532 0.108140618 0)
(3.002223665 0.03646220556 0)
(3.002085548 0.01033265337 0)
(3.006055866 0.00555336546 0)
(3.008956136 0.005404052193 0)
(3.010945908 0.007711938627 0)
(3.012948354 0.008723018835 0)
(3.015262446 0.003676946206 0)
(3.017281048 0.003391824469 0)
(3.017974064 0.004166815551 0)
(3.019525316 0.005568433899 0)
(3.020921455 0.003896071003 0)
(3.023079117 -0.000305741812 0)
(3.39581611 0.4384095839 0)
(3.36681151 0.4600128005 0)
(3.292244785 0.4498985158 0)
(3.191538917 0.4209057104 0)
(3.096451089 0.3944577023 0)
(3.019467501 0.3867911489 0)
(2.983065337 0.3793997179 0)
(2.973623342 0.3864205774 0)
(2.971733931 0.3873918844 0)
(2.981441815 0.3839416302 0)
(2.995142037 0.3865478883 0)
(3.006217239 0.3889074297 0)
(3.014427903 0.3900190077 0)
(3.025527613 0.3926043685 0)
(3.041373492 0.3969839875 0)
(3.057746121 0.3996153092 0)
(3.070126935 0.3999117531 0)
(3.078732159 0.398598949 0)
(3.083744329 0.3900676219 0)
(3.080129893 0.3493283832 0)
(3.052682687 0.2231925325 0)
(3.015982623 0.1086343572 0)
(2.998496778 0.02643778759 0)
(3.001039342 0.008201835787 0)
(3.004478327 0.006389759126 0)
(3.007951593 0.006112811852 0)
(3.010000379 0.008442039132 0)
(3.011867963 0.009123539611 0)
(3.014287801 0.003570104221 0)
(3.016112385 0.003123061357 0)
(3.016498982 0.00410941942 0)
(3.017999163 0.005229408656 0)
(3.019655374 0.004007153221 0)
(3.3949912 0.4375989389 0)
(3.361460243 0.4604975259 0)
(3.288092325 0.4464407161 0)
(3.189378978 0.4192415795 0)
(3.092315948 0.3942607026 0)
(3.017180268 0.3874653301 0)
(2.982121389 0.3810371025 0)
(2.973291078 0.3876354085 0)
(2.971064015 0.3872886303 0)
(2.980622147 0.3839512714 0)
(2.994839062 0.3871494239 0)
(3.005780951 0.3892011915 0)
(3.013856604 0.3900938455 0)
(3.025707449 0.3929994726 0)
(3.041858196 0.3972860161 0)
(3.057765609 0.3994886336 0)
(3.069806181 0.3995667116 0)
(3.077968241 0.3973740578 0)
(3.081758511 0.3846507102 0)
(3.070655798 0.324186167 0)
(3.045975485 0.2120934297 0)
(3.004775026 0.07852044548 0)
(2.995268284 0.01786547125 0)
(2.999726187 0.007079578997 0)
(3.003248573 0.005868004639 0)
(3.006331042 0.005927614803 0)
(3.008695771 0.00831824753 0)
(3.010385335 0.009343826362 0)
(3.013262876 0.004788096353 0)
(3.014855127 0.002783213296 0)
(3.015209798 0.003767489052 0)
(3.016727353 0.004938929242 0)
(3.018253213 0.003586433508 0)
(3.393551775 0.4363906376 0)
(3.355829798 0.4594621907 0)
(3.283865655 0.4436591568 0)
(3.18872011 0.4168551875 0)
(3.090759433 0.3932158931 0)
(3.016203187 0.3874642417 0)
(2.981976407 0.3821504864 0)
(2.972901898 0.3891613662 0)
(2.970380637 0.3869299519 0)
(2.979728904 0.3833876582 0)
(2.994725129 0.3869895814 0)
(3.005800347 0.3891222971 0)
(3.013839488 0.390086531 0)
(3.026122489 0.3933918419 0)
(3.042338026 0.3974776537 0)
(3.057669491 0.3992890633 0)
(3.069058884 0.3990195638 0)
(3.07693675 0.3952655376 0)
(3.079015238 0.3758116185 0)
(3.063609348 0.2972004417 0)
(3.026479996 0.1551964641 0)
(2.999222822 0.04171281215 0)
(2.994761437 0.008187834825 0)
(2.998177225 0.004190957175 0)
(3.001826908 0.004830620998 0)
(3.004805193 0.00584022451 0)
(3.007097308 0.008208259576 0)
(3.008771857 0.007879478557 0)
(3.011392539 0.004928435103 0)
(3.013212527 0.003144694947 0)
(3.013686811 0.003632188441 0)
(3.015208771 0.004587636016 0)
(3.016890602 0.00285799814 0)
(3.391744876 0.4356297932 0)
(3.350318259 0.4589856013 0)
(3.278694377 0.4421002928 0)
(3.188164973 0.4144424259 0)
(3.091032962 0.3929048065 0)
(3.016336943 0.3876049982 0)
(2.982359743 0.382814189 0)
(2.972600009 0.389910597 0)
(2.969638566 0.386721814 0)
(2.978889448 0.382482406 0)
(2.994638753 0.3863597928 0)
(3.00607095 0.3888448141 0)
(3.014163518 0.3902514259 0)
(3.02665369 0.3937913576 0)
(3.042819347 0.3975498157 0)
(3.057567743 0.3989709907 0)
(3.068278357 0.3980357587 0)
(3.075697975 0.39231631 0)
(3.075105109 0.3633093286 0)
(3.056630172 0.2627889165 0)
(3.016171203 0.09829605498 0)
(2.997028827 0.01796420667 0)
(2.993185119 0.004407627858 0)
(2.996786766 0.002689004171 0)
(3.000262191 0.003140700161 0)
(3.003690801 0.005239997168 0)
(3.005562599 0.007654905589 0)
(3.007546224 0.006844380135 0)
(3.009990584 0.003902173247 0)
(3.011421755 0.003615070613 0)
(3.01200653 0.004451020193 0)
(3.013553338 0.004474433333 0)
(3.015247039 0.002417276455 0)
(3.389914972 0.435149072 0)
(3.346027971 0.4572887489 0)
(3.274137965 0.4403885157 0)
(3.187978767 0.4128151208 0)
(3.0914477 0.3927011818 0)
(3.017787817 0.3878938097 0)
(2.983971643 0.3835322581 0)
(2.972675936 0.3905730209 0)
(2.969181157 0.3860052275 0)
(2.978259895 0.3824122763 0)
(2.994546495 0.3864780482 0)
(3.006326782 0.3888337671 0)
(3.01466769 0.3904896711 0)
(3.027379961 0.394098107 0)
(3.043262042 0.3974944873 0)
(3.057038482 0.3984408253 0)
(3.067411277 0.3969382728 0)
(3.07433522 0.3896055061 0)
(3.070255124 0.3431975294 0)
(3.044525332 0.2175699259 0)
(3.00985461 0.07432404174 0)
(2.991969724 0.024088216 0)
(2.991501807 0.007251729679 0)
(2.995470818 0.003625745834 0)
(2.998853942 0.004007154707 0)
(3.002109484 0.005045428587 0)
(3.004129292 0.007247677291 0)
(3.006152286 0.005968503955 0)
(3.008653194 0.002901254558 0)
(3.009647802 0.003679543303 0)
(3.009948928 0.004914433323 0)
(3.011947287 0.00485182282 0)
(3.013693629 0.001906665797 0)
(3.387140534 0.4343793317 0)
(3.343929343 0.4551787791 0)
(3.270230786 0.4407148237 0)
(3.186594941 0.410795462 0)
(3.092302699 0.3927893533 0)
(3.020616737 0.3884142461 0)
(2.986425499 0.3843183756 0)
(2.973069367 0.3910654649 0)
(2.968811518 0.3854069474 0)
(2.977925324 0.3830437073 0)
(2.994546558 0.386820834 0)
(3.006487972 0.3888832109 0)
(3.015321655 0.3906232271 0)
(3.028097927 0.3945781136 0)
(3.043545968 0.3975120825 0)
(3.056528518 0.3980306061 0)
(3.066383764 0.3954183547 0)
(3.071520681 0.3813060834 0)
(3.066692064 0.3289455046 0)
(3.037750898 0.180265267 0)
(2.999808153 0.07611709158 0)
(2.988297349 0.02074311372 0)
(2.990542265 0.007661649938 0)
(2.993900154 0.005132983454 0)
(2.997390325 0.004806108115 0)
(3.000615772 0.006223737621 0)
(3.002722737 0.007361791332 0)
(3.004294063 0.006057394345 0)
(3.006414499 0.00245094407 0)
(3.007864883 0.003383132589 0)
(3.008361038 0.004484990833 0)
(3.010145353 0.004661093928 0)
(3.011970855 0.001979387299 0)
(3.382888743 0.4350262346 0)
(3.342664191 0.4550604582 0)
(3.269109256 0.4384925389 0)
(3.185348146 0.4097456273 0)
(3.093993977 0.3932770398 0)
(3.024251212 0.388893563 0)
(2.989670884 0.3851509388 0)
(2.973757866 0.3915894015 0)
(2.968475114 0.3849336045 0)
(2.977773595 0.3835903976 0)
(2.994616511 0.387071889 0)
(3.00667542 0.3889164279 0)
(3.016008154 0.3909055415 0)
(3.028928316 0.3948926062 0)
(3.043637608 0.3975202909 0)
(3.055794044 0.397255519 0)
(3.065187271 0.3928926885 0)
(3.06940924 0.3734565841 0)
(3.05656774 0.2888156092 0)
(3.02959226 0.1781546948 0)
(2.992392239 0.06272562482 0)
(2.985435552 0.014504163 0)
(2.98940026 0.007122201413 0)
(2.991934227 0.005841162793 0)
(2.995768972 0.005131216789 0)
(2.998902376 0.006832724381 0)
(3.000870178 0.008079065396 0)
(3.002618185 0.006461438603 0)
(3.004827905 0.002599379316 0)
(3.005626004 0.003176210502 0)
(3.006626424 0.003904226312 0)
(3.008245162 0.004392349924 0)
(3.009949347 0.002005718439 0)
(3.377730291 0.4366238026 0)
(3.340786946 0.4540978944 0)
(3.268932726 0.4362403381 0)
(3.184885114 0.4089753365 0)
(3.096207966 0.3936782354 0)
(3.028283358 0.3896828396 0)
(2.993486252 0.3857953373 0)
(2.974720984 0.3919298067 0)
(2.968202192 0.3843387776 0)
(2.977883649 0.3838266702 0)
(2.994782887 0.3871568781 0)
(3.006938589 0.3889872831 0)
(3.016780418 0.3910844055 0)
(3.029656536 0.3951349949 0)
(3.043473494 0.3974981564 0)
(3.054991635 0.3966328805 0)
(3.063720307 0.389661445 0)
(3.065340013 0.3567680988 0)
(3.050446977 0.2746689928 0)
(3.007604328 0.136557817 0)
(2.985252384 0.04173805174 0)
(2.982957297 0.01021935105 0)
(2.987460489 0.005900369616 0)
(2.990524927 0.004637701868 0)
(2.994225712 0.004951497179 0)
(2.996903529 0.007034186242 0)
(2.998810325 0.008975379796 0)
(3.000731347 0.008325471611 0)
(3.00301577 0.002963153976 0)
(3.003887427 0.002965531573 0)
(3.004527324 0.003779229898 0)
(3.006244613 0.003755513622 0)
(3.008018955 0.001218450771 0)
(3.372246921 0.4379862345 0)
(3.3387716 0.4521487087 0)
(3.270021115 0.4336397007 0)
(3.186490226 0.4084914304 0)
(3.09935286 0.3943413915 0)
(3.032377083 0.3905663644 0)
(2.996943228 0.386642824 0)
(2.975704823 0.3922903767 0)
(2.967913324 0.3835451586 0)
(2.978167034 0.3838872325 0)
(2.994916486 0.3871709118 0)
(3.007180113 0.3890412474 0)
(3.017564675 0.3915091996 0)
(3.030123927 0.3953893505 0)
(3.043006191 0.3971964101 0)
(3.053895284 0.3958291146 0)
(3.061742895 0.3866105686 0)
(3.060763398 0.3473112053 0)
(3.038205928 0.237572208 0)
(2.996859943 0.08599198311 0)
(2.98280572 0.0163616729 0)
(2.982583835 0.004552628375 0)
(2.98536702 0.003274250428 0)
(2.988822035 0.003388842178 0)
(2.992734757 0.004027087722 0)
(2.995137173 0.006095121066 0)
(2.996690665 0.007999293068 0)
(2.99872925 0.007087036092 0)
(3.000437885 0.004045850869 0)
(3.001966249 0.003321508945 0)
(3.002736989 0.003878086264 0)
(3.004430156 0.003497051741 0)
(3.366737909 0.438118735 0)
(3.337116882 0.4500092931 0)
(3.273794289 0.4302585325 0)
(3.191527904 0.4071887808 0)
(3.103363174 0.3952436943 0)
(3.036317034 0.3917131438 0)
(2.999935451 0.3876521056 0)
(2.976613017 0.3923522027 0)
(2.967540989 0.3825180704 0)
(2.978497012 0.3839506886 0)
(2.995244859 0.3871075707 0)
(3.007456556 0.3891510384 0)
(3.018218026 0.391834055 0)
(3.030302298 0.3955739888 0)
(3.042167122 0.3966774589 0)
(3.052169935 0.3940926794 0)
(3.058869035 0.3814500708 0)
(3.053471863 0.3258626749 0)
(3.025284799 0.1842025147 0)
(2.993288533 0.04401949406 0)
(2.980139194 0.01132728797 0)
(2.981418078 0.003726950057 0)
(2.983596386 0.003067652791 0)
(2.986865833 0.002798262273 0)
(2.990903129 0.003376324393 0)
(2.993257447 0.005272580159 0)
(2.994657498 0.006418696521 0)
(2.996693717 0.004322639076 0)
(2.998166822 0.003414324062 0)
(2.999635425 0.003384073724 0)
(3.000809699 0.004441807692 0)
(3.002691746 0.003395689084 0)
(3.361274082 0.4379018391 0)
(3.335364308 0.4481587183 0)
(3.277898748 0.4282773947 0)
(3.197333046 0.4074581474 0)
(3.10782307 0.3963872638 0)
(3.040250699 0.3931963022 0)
(3.00272309 0.3891813387 0)
(2.977344769 0.3924022959 0)
(2.967276996 0.3817537147 0)
(2.978857654 0.3839362288 0)
(2.995648255 0.3869954806 0)
(3.007735225 0.3893689632 0)
(3.018611674 0.3920749037 0)
(3.030206765 0.3954269859 0)
(3.041275999 0.3960372373 0)
(3.050271115 0.391307613 0)
(3.054532925 0.3691825803 0)
(3.046667305 0.2949475595 0)
(3.017516268 0.129559393 0)
(2.985119254 0.04832398542 0)
(2.977379302 0.01342275872 0)
(2.979506226 0.00569711136 0)
(2.981964378 0.003018034693 0)
(2.985194685 0.003060398763 0)
(2.989043728 0.003700477365 0)
(2.991456372 0.004641273545 0)
(2.992726289 0.00531694556 0)
(2.994916512 0.002556033993 0)
(2.996433735 0.002064047295 0)
(2.997532151 0.002845127062 0)
(2.998720964 0.004744477753 0)
(3.000755769 0.00439380228 0)
(3.35607418 0.4382736389 0)
(3.333595858 0.4471439939 0)
(3.283231266 0.4273643753 0)
(3.203998941 0.4082545255 0)
(3.112982138 0.397633715 0)
(3.044064695 0.3950317439 0)
(3.005416757 0.3901631807 0)
(2.978152347 0.3923065067 0)
(2.967488423 0.3814018133 0)
(2.979262087 0.3841783971 0)
(2.995800874 0.3870081007 0)
(3.007985762 0.3896310565 0)
(3.018770956 0.392391743 0)
(3.02971194 0.3954112504 0)
(3.039946345 0.3948389645 0)
(3.048204071 0.3874489204 0)
(3.051341189 0.3572557219 0)
(3.038732299 0.2427106671 0)
(3.006881046 0.1315059513 0)
(2.976685838 0.03901286199 0)
(2.974993587 0.009878841039 0)
(2.977694971 0.006397271947 0)
(2.97960142 0.003445093232 0)
(2.983419177 0.003091077373 0)
(2.987108181 0.004270569688 0)
(2.989477254 0.005248133428 0)
(2.990965471 0.005322801007 0)
(2.992862843 0.002151606881 0)
(2.994575892 0.001249551774 0)
(2.995620283 0.00294171622 0)
(2.996834054 0.004142457391 0)
(2.998907357 0.004572538125 0)
(3.351709535 0.4391472729 0)
(3.332262212 0.446331645 0)
(3.287695011 0.4264639373 0)
(3.210927767 0.4086074109 0)
(3.118192943 0.3988460425 0)
(3.047787247 0.3959217275 0)
(3.007796543 0.3907855365 0)
(2.979190608 0.3920324158 0)
(2.968352367 0.38133637 0)
(2.979616314 0.3843891907 0)
(2.995667786 0.3872230297 0)
(3.008042323 0.3900676445 0)
(3.018672398 0.3928441199 0)
(3.028958513 0.3953796119 0)
(3.038503638 0.3938080294 0)
(3.045838158 0.3839729867 0)
(3.046122573 0.3332400189 0)
(3.030799144 0.2391154528 0)
(2.990087324 0.1094282537 0)
(2.971742576 0.02651931928 0)
(2.972881947 0.008342775303 0)
(2.975918011 0.005811467864 0)
(2.977793283 0.003591878913 0)
(2.981124052 0.002886188513 0)
(2.98497065 0.004486761732 0)
(2.987181494 0.005850754349 0)
(2.988822826 0.006025157451 0)
(2.990816272 0.002891432618 0)
(2.992570383 0.001514535424 0)
(2.993382043 0.002650553838 0)
(2.995020877 0.003755259472 0)
(2.996810067 0.003396611524 0)
(3.348375011 0.440050019 0)
(3.331254109 0.4457911074 0)
(3.291668835 0.425336247 0)
(3.217138423 0.4086724159 0)
(3.123104989 0.3996125627 0)
(3.051183615 0.3964634101 0)
(3.009643033 0.3912774291 0)
(2.980460713 0.3917072367 0)
(2.969645443 0.3814414622 0)
(2.980023785 0.3845516386 0)
(2.995533878 0.387417213 0)
(3.0077516 0.3906432349 0)
(3.018235974 0.3933612162 0)
(3.028041828 0.3955691655 0)
(3.036962362 0.3926950264 0)
(3.04277138 0.3775073464 0)
(3.041171378 0.3272879274 0)
(3.013724242 0.20720167 0)
(2.975423062 0.07040266724 0)
(2.969156893 0.01493766087 0)
(2.970709879 0.004178909886 0)
(2.973018873 0.004452038576 0)
(2.975879192 0.003028339332 0)
(2.97945118 0.00228483911 0)
(2.982713606 0.003860403724 0)
(2.984565865 0.006017303568 0)
(2.986309245 0.007232885657 0)
(2.989036966 0.00423284497 0)
(2.990620208 0.001928838122 0)
(2.991580067 0.002465292937 0)
(2.993058573 0.003465989988 0)
(2.994768551 0.002595704375 0)
(3.346749683 0.4405917433 0)
(3.330961143 0.4443999169 0)
(3.294872279 0.4237171965 0)
(3.222234066 0.408728972 0)
(3.127147932 0.4006020428 0)
(3.054073264 0.3971183907 0)
(3.011455825 0.3916226444 0)
(2.981844755 0.3914600156 0)
(2.971168725 0.3815885612 0)
(2.980774659 0.3846572536 0)
(2.995384437 0.3876557154 0)
(3.007271814 0.3910501069 0)
(3.017252605 0.3937595592 0)
(3.026726128 0.3950930212 0)
(3.034779878 0.3896458457 0)
(3.039446441 0.3688424545 0)
(3.031172225 0.2981265397 0)
(2.997989331 0.1511546874 0)
(2.973130567 0.03917543519 0)
(2.965576276 0.00726022367 0)
(2.968381257 0.003158246147 0)
(2.970245371 0.002543164523 0)
(2.97365822 0.002221438869 0)
(2.977638537 0.001896030823 0)
(2.980560005 0.002975403037 0)
(2.982176886 0.005021842796 0)
(2.983836468 0.006026728537 0)
(2.986556525 0.004526829634 0)
(2.988276598 0.002830663625 0)
(2.989550924 0.002516457478 0)
(2.991341752 0.003367537269 0)
(2.992846798 0.002414482794 0)
(3.34684164 0.4412648987 0)
(3.331122038 0.4428281164 0)
(3.297475492 0.4209680544 0)
(3.225777875 0.4085707939 0)
(3.1303851 0.4016448461 0)
(3.056748143 0.3977591547 0)
(3.013237381 0.3918443878 0)
(2.983241829 0.3912084178 0)
(2.972898481 0.38173342 0)
(2.981615404 0.3846446626 0)
(2.995213413 0.3879858167 0)
(3.006739806 0.3911605957 0)
(3.01616327 0.393592168 0)
(3.0252615 0.3940130782 0)
(3.032917298 0.3860695167 0)
(3.035528119 0.3536603777 0)
(3.021668333 0.2520340945 0)
(2.990985293 0.0964035172 0)
(2.967004753 0.03122564464 0)
(2.961269154 0.009507825263 0)
(2.966245569 0.004760943002 0)
(2.968029762 0.003522382155 0)
(2.971505256 0.00316863315 0)
(2.97541576 0.002569794982 0)
(2.978219966 0.002590259033 0)
(2.979912666 0.003918840585 0)
(2.98163886 0.004136852056 0)
(2.98382634 0.002299497511 0)
(2.985977337 0.002257743017 0)
(2.987154131 0.002956708877 0)
(2.989530911 0.003339191733 0)
(3.348175115 0.4422737722 0)
(3.331730371 0.4420354144 0)
(3.298872017 0.419252591 0)
(3.227817828 0.409027421 0)
(3.132924558 0.4027736034 0)
(3.059182438 0.3983504322 0)
(3.014763699 0.3918850187 0)
(2.984478383 0.390695888 0)
(2.974416936 0.3819645468 0)
(2.982181926 0.3851294678 0)
(2.994787652 0.3885825874 0)
(3.00604918 0.3912008371 0)
(3.014929468 0.3933151535 0)
(3.023736522 0.3929268153 0)
(3.030777132 0.3807976381 0)
(3.031966338 0.3368805264 0)
(3.017327043 0.1973559411 0)
(2.97954888 0.08732780729 0)
(2.959476381 0.02676353261 0)
(2.958449773 0.009132585385 0)
(2.962969067 0.006823733666 0)
(2.965872007 0.004753852384 0)
(2.969291234 0.003730469717 0)
(2.973072076 0.003939741011 0)
(2.975806363 0.004163780756 0)
(2.977628248 0.003971939649 0)
(2.979534338 0.002641372414 0)
(2.981464433 0.0003221301387 0)
(2.984118855 0.001108017815 0)
(2.985010867 0.002501867277 0)
(2.987433168 0.004057132624 0)
(3.350732177 0.4424634929 0)
(3.333346758 0.4414202063 0)
(3.29962342 0.4191003339 0)
(3.228637118 0.4099861321 0)
(3.134952536 0.4040675031 0)
(3.061076519 0.3990316345 0)
(3.015962444 0.3916630522 0)
(2.985517038 0.38943755 0)
(2.975483673 0.3821971287 0)
(2.982253793 0.3858829171 0)
(2.994402075 0.3891365352 0)
(3.004979378 0.3915487473 0)
(3.013490621 0.3932177328 0)
(3.022113568 0.391812334 0)
(3.028732298 0.3758909256 0)
(3.026517227 0.3038363465 0)
(3.007449991 0.1993446796 0)
(2.966041984 0.07107081806 0)
(2.954027987 0.01642124221 0)
(2.956377155 0.007543100803 0)
(2.95969142 0.007237316744 0)
(2.962902793 0.004968974156 0)
(2.96682303 0.00398918644 0)
(2.970740144 0.004745696457 0)
(2.973195838 0.005082218924 0)
(2.975374345 0.005411277471 0)
(2.977278361 0.003485001012 0)
(2.979610128 -0.0006144322714 0)
(2.982023911 0.0003972517852 0)
(2.982948359 0.002104024035 0)
(2.98495789 0.003820549582 0)
(3.353822046 0.4421615275 0)
(3.335720245 0.440595883 0)
(3.300583986 0.4195132976 0)
(3.229355335 0.411921786 0)
(3.136937225 0.405985459 0)
(3.062394154 0.3998923627 0)
(3.016916285 0.3917894336 0)
(2.986361449 0.3884527387 0)
(2.976206633 0.3824385311 0)
(2.982480296 0.3862785539 0)
(2.993874749 0.3895069587 0)
(3.003688386 0.3920274845 0)
(3.011936601 0.3929173697 0)
(3.020323723 0.3895172689 0)
(3.025233362 0.3619794798 0)
(3.022095119 0.2983017087 0)
(2.982661422 0.1634237639 0)
(2.957789511 0.0538243046 0)
(2.94979571 0.01053914112 0)
(2.953905449 0.006190001474 0)
(2.956809293 0.006289721282 0)
(2.960123163 0.004743144201 0)
(2.964233396 0.003846604834 0)
(2.968065848 0.004369288931 0)
(2.97055764 0.005966757773 0)
(2.972585855 0.00633142065 0)
(2.974435066 0.004869389555 0)
(2.977286656 0.000295182544 0)
(2.979253235 0.0003304572638 0)
(2.980594496 0.001349335623 0)
(2.982871125 0.003062440792 0)
(3.356612682 0.4421392723 0)
(3.33840434 0.4398463208 0)
(3.301901128 0.4195968526 0)
(3.229946848 0.4124726788 0)
(3.137679305 0.4076968324 0)
(3.06338716 0.4014077328 0)
(3.017315786 0.3920430721 0)
(2.986781658 0.3883735383 0)
(2.976623652 0.3826893815 0)
(2.982487163 0.3865994406 0)
(2.993331473 0.3896963842 0)
(3.002419563 0.3921466175 0)
(3.010271376 0.3921234053 0)
(3.018214714 0.3848382253 0)
(3.02267786 0.3542766115 0)
(3.007653012 0.2602073749 0)
(2.969650071 0.1163939186 0)
(2.951454419 0.03188824503 0)
(2.946753232 0.005933870162 0)
(2.950767342 0.003071380805 0)
(2.953993547 0.003928848237 0)
(2.957654152 0.003764936897 0)
(2.961879674 0.00296611046 0)
(2.96549827 0.003608370146 0)
(2.967875649 0.005186158187 0)
(2.969668837 0.006991409021 0)
(2.971694822 0.006534076602 0)
(2.974629994 0.001740363264 0)
(2.976953541 0.0005735981434 0)
(2.97827919 0.001256915669 0)
(2.980621978 0.002385048273 0)
(3.359078697 0.4423927116 0)
(3.34108744 0.438403223 0)
(3.302904895 0.4190612444 0)
(3.229187662 0.4139268502 0)
(3.137843374 0.4083907254 0)
(3.063657778 0.4023280661 0)
(3.017236752 0.3922199437 0)
(2.98717706 0.3883946579 0)
(2.976915357 0.3830569587 0)
(2.982312111 0.3869976122 0)
(2.992571118 0.3898398488 0)
(3.001064388 0.391728808 0)
(3.008629638 0.3906898992 0)
(3.01615585 0.3796787245 0)
(3.016791551 0.3331915041 0)
(2.996212899 0.2092694015 0)
(2.963391812 0.07425639939 0)
(2.943776255 0.01931440965 0)
(2.944053741 0.004874978056 0)
(2.948048283 0.002606581118 0)
(2.951260414 0.002056550297 0)
(2.9550715 0.001566912296 0)
(2.959021184 0.001648177936 0)
(2.962947084 0.002488886603 0)
(2.965147989 0.004046093032 0)
(2.966932141 0.005331745149 0)
(2.968784027 0.004735112511 0)
(2.971652266 0.00318048697 0)
(2.974432136 0.001907850527 0)
(2.975911373 0.001691751339 0)
(2.977664222 0.002464211404 0)
(3.360830105 0.4424607575 0)
(3.34320374 0.4358927163 0)
(3.302723068 0.4194779149 0)
(3.226932199 0.4149906865 0)
(3.13664085 0.4084684097 0)
(3.063310821 0.4022886386 0)
(3.016580071 0.3922555019 0)
(2.987383032 0.3885624081 0)
(2.976870929 0.3836533262 0)
(2.982029324 0.3875631921 0)
(2.991481389 0.3896793536 0)
(2.99953698 0.3909933911 0)
(3.007166889 0.3891603667 0)
(3.013616242 0.372542058 0)
(3.010243005 0.3044811586 0)
(2.990674818 0.1584571855 0)
(2.953164569 0.05753420448 0)
(2.93855549 0.01875205185 0)
(2.941169281 0.007073459059 0)
(2.945587659 0.003437154294 0)
(2.948807081 0.003084436214 0)
(2.95237846 0.00170188481 0)
(2.956206011 0.001034591147 0)
(2.959834159 0.001090262337 0)
(2.962523535 0.001950996536 0)
(2.964090326 0.003384255985 0)
(2.965646884 0.002568931966 0)
(2.968430513 0.001385297284 0)
(2.97096154 0.001272410402 0)
(2.972757838 0.00250442761 0)
(2.97486812 0.00261539888 0)
(3.361205205 0.4427611257 0)
(3.342882756 0.4337991547 0)
(3.301853464 0.4205798324 0)
(3.224829857 0.41579433 0)
(3.134631994 0.409109033 0)
(3.061414546 0.4021022422 0)
(3.015394781 0.3919238629 0)
(2.987262384 0.3888277782 0)
(2.976894998 0.3845442094 0)
(2.981853434 0.3881350253 0)
(2.990262873 0.3895076363 0)
(2.998109175 0.3906587801 0)
(3.005892154 0.387797775 0)
(3.010954264 0.3635346074 0)
(3.005793454 0.2645393835 0)
(2.979272654 0.1557140707 0)
(2.944684567 0.04694157408 0)
(2.935656551 0.01267357409 0)
(2.939205415 0.007132295212 0)
(2.942771173 0.005864914119 0)
(2.946010877 0.004573061852 0)
(2.949859704 0.002943716513 0)
(2.953805887 0.0024645367 0)
(2.956927314 0.001914171223 0)
(2.959288411 0.001547783196 0)
(2.961726633 0.0004224549293 0)
(2.963235874 -0.001124760452 0)
(2.965144267 -0.001034905231 0)
(2.967435201 -0.0004437365042 0)
(2.969589971 0.002171558465 0)
(2.971443233 0.002497079518 0)
(3.360010971 0.442996217 0)
(3.340354541 0.4334804408 0)
(3.300207338 0.4208877701 0)
(3.225389948 0.4173948584 0)
(3.132571199 0.4096046012 0)
(3.059194468 0.402299153 0)
(3.014050612 0.3904745332 0)
(2.987028369 0.3890327347 0)
(2.97703948 0.3857058855 0)
(2.981673662 0.3883627712 0)
(2.989121457 0.3891277901 0)
(2.996329353 0.3891712174 0)
(3.004158029 0.3833649189 0)
(3.00709723 0.3432453111 0)
(3.001626907 0.2630859268 0)
(2.951073751 0.1151453359 0)
(2.935251867 0.03048571464 0)
(2.931941383 0.00757033974 0)
(2.936925728 0.007019648901 0)
(2.939495501 0.007375277706 0)
(2.943066416 0.006181649061 0)
(2.947156205 0.004177542481 0)
(2.951180102 0.003560584678 0)
(2.95413191 0.003119249158 0)
(2.95624854 0.002767798531 0)
(2.958343651 0.0003678595965 0)
(2.960725963 -0.003305953271 0)
(2.962570501 -0.002641832182 0)
(2.964251591 -0.001423324471 0)
(2.966093643 0.0015168673 0)
(3.356730098 0.4423427711 0)
(3.3376571 0.4340567615 0)
(3.298112175 0.4214693985 0)
(3.22483719 0.4182366874 0)
(3.131494356 0.4102005143 0)
(3.057782399 0.4023351026 0)
(3.012886001 0.3894821821 0)
(2.986824555 0.3888069075 0)
(2.976983733 0.3869434514 0)
(2.981366296 0.38880009 0)
(2.987967461 0.3889226427 0)
(2.995091017 0.3876315361 0)
(3.002746118 0.3755391249 0)
(3.005038622 0.3333833219 0)
(2.976910539 0.2131517095 0)
(2.944133301 0.08099123804 0)
(2.929030323 0.01776261961 0)
(2.928687089 0.00497641625 0)
(2.933284981 0.004831155415 0)
(2.936560267 0.005707277587 0)
(2.939854055 0.005570465035 0)
(2.944104214 0.004586180275 0)
(2.948202409 0.004424636199 0)
(2.951133131 0.004202088137 0)
(2.953009255 0.00390005354 0)
(2.954672064 0.001515697341 0)
(2.957188794 -0.002390999222 0)
(2.959509192 -0.003562555827 0)
(2.960818492 -0.002212316949 0)
(2.962180096 0.0005526788816 0)
(3.352269749 0.4387613564 0)
(3.334320678 0.4341071568 0)
(3.296560266 0.4227749188 0)
(3.224057797 0.4196055073 0)
(3.131703597 0.4110772438 0)
(3.057406434 0.4022387039 0)
(3.012445086 0.3891282041 0)
(2.986774448 0.3889677585 0)
(2.977302948 0.3873659142 0)
(2.980940734 0.3891016383 0)
(2.986873475 0.388798154 0)
(2.993954394 0.3859305038 0)
(3.00137215 0.3696103899 0)
(2.996185837 0.3014254358 0)
(2.966821611 0.1640200969 0)
(2.938437416 0.05296147465 0)
(2.923155021 0.01172736897 0)
(2.92656537 0.003160390759 0)
(2.930054391 0.002820660878 0)
(2.933380964 0.003523396478 0)
(2.937001622 0.004268492438 0)
(2.94117387 0.003643430912 0)
(2.945012799 0.003617298377 0)
(2.947699013 0.003848142384 0)
(2.949861991 0.004014965411 0)
(2.951513042 0.002216138541 0)
(2.953285957 -0.001214796544 0)
(2.955396592 -0.00257669769 0)
(2.957067372 -0.002124974667 0)
(2.958083635 4.543554305e-05 0)
(3.347876761 0.437021826 0)
(3.330746925 0.4325008737 0)
(3.295045132 0.4245224323 0)
(3.224040723 0.4209570765 0)
(3.132565349 0.4118499022 0)
(3.057829387 0.4019406976 0)
(3.012441504 0.38933761 0)
(2.986904458 0.3895610088 0)
(2.977915344 0.3875154385 0)
(2.980406832 0.3889534931 0)
(2.985909978 0.3880452183 0)
(2.992951219 0.3845504806 0)
(2.998432782 0.3594383065 0)
(2.987554255 0.2640436814 0)
(2.958015635 0.1202199723 0)
(2.928318273 0.04079434513 0)
(2.919291409 0.01183427871 0)
(2.923635955 0.004211357819 0)
(2.926738964 0.002715292032 0)
(2.930384066 0.002255089268 0)
(2.934232122 0.002163462037 0)
(2.938073477 0.002202678064 0)
(2.94203275 0.002877205847 0)
(2.944628563 0.00330809538 0)
(2.946965926 0.003964820502 0)
(2.948677169 0.002867121365 0)
(2.949729847 -0.0004461526363 0)
(2.951426625 -0.001407313083 0)
(2.95317934 -0.001237402362 0)
(2.95438869 0.0004442127527 0)
(3.343675908 0.4373267354 0)
(3.327927954 0.4313810267 0)
(3.293877799 0.4256902553 0)
(3.224778775 0.4219592079 0)
(3.133898325 0.4125290092 0)
(3.059013482 0.4016969026 0)
(3.0130677 0.3893773285 0)
(2.987276579 0.389849691 0)
(2.978111579 0.3874768932 0)
(2.980032805 0.3883151591 0)
(2.985099646 0.38672542 0)
(2.99179762 0.3807939137 0)
(2.994115394 0.3420424878 0)
(2.98178537 0.2247405953 0)
(2.945734404 0.1098535545 0)
(2.92037784 0.0306012622 0)
(2.916520242 0.008745327781 0)
(2.92067911 0.005728347524 0)
(2.923604406 0.00368694202 0)
(2.927278053 0.003064554679 0)
(2.93101374 0.001945575434 0)
(2.935148488 0.001193880624 0)
(2.939310721 0.0018155319 0)
(2.941729203 0.002591869128 0)
(2.943697276 0.003769673854 0)
(2.945341017 0.003435048915 0)
(2.946584196 0.000693958081 0)
(2.947990914 -0.0006731656797 0)
(2.949408586 -0.0004139498974 0)
(2.950714213 0.001328519353 0)
(3.338422395 0.4379429392 0)
(3.324857311 0.4315733752 0)
(3.29236645 0.4268953037 0)
(3.225433556 0.4231024216 0)
(3.135348237 0.4132589986 0)
(3.060504024 0.4013772451 0)
(3.014228533 0.3894789179 0)
(2.988583709 0.390435096 0)
(2.978638049 0.3871455237 0)
(2.979826975 0.3874783421 0)
(2.984360504 0.3844673777 0)
(2.990096394 0.3720656073 0)
(2.990666739 0.3152283224 0)
(2.977099163 0.2160683149 0)
(2.928340954 0.07100735387 0)
(2.913391534 0.01540643605 0)
(2.913751523 0.005579003318 0)
(2.917401789 0.005866267975 0)
(2.920496621 0.005275818302 0)
(2.923930256 0.004423130232 0)
(2.927831882 0.002933545656 0)
(2.932101074 0.00181067614 0)
(2.936129754 0.002062883688 0)
(2.938313699 0.002624488523 0)
(2.94007998 0.00394124481 0)
(2.941648042 0.00388896409 0)
(2.943424503 0.001171678143 0)
(2.944714608 -0.0001328715751 0)