/*--------------------------------*- C++ -*----------------------------------*\
  =========                 |
  \\      /  F ield         | OpenFOAM: The Open Source CFD Toolbox
   \\    /   O peration     | Website:  https://openfoam.org
    \\  /    A nd           | Version:  7
     \\/     M anipulation  |
\*---------------------------------------------------------------------------*/
FoamFile
{
    version     2.0;
    format      ascii;
    class       volScalarField;
    location    "2.4";
    object      p;
}
// * * * * * * * * * * * * * * * * * * * * * * * * * * * * * * * * * * * * * //

dimensions      [1 -1 -2 0 0 0 0];

internalField   nonuniform List<scalar> 
2222
(
2.143908352
2.103670292
2.087242424
2.094927531
2.088215757
2.070585161
2.065157411
2.070837696
2.053942048
2.037737342
2.033265305
2.024795025
2.00768321
2.430727309
2.444979544
2.466944519
2.467999233
2.43823385
2.426606297
2.421790097
2.41171788
2.409352658
2.416553999
2.433061509
2.42719691
2.378348727
2.366855753
2.371611342
2.332793821
2.29431948
2.288030685
2.285509331
2.278550887
2.263443618
2.228632428
2.20931317
2.199134281
2.1878785
2.175789142
2.157736257
2.116389902
2.091745897
2.098836592
2.091642214
2.075180328
2.069846018
2.07945977
2.065254639
2.045635307
2.039347947
2.029479253
2.012068346
2.43633114
2.460678381
2.474968135
2.463631682
2.445278602
2.435253794
2.432896348
2.422684772
2.409692842
2.416149424
2.423014278
2.387765866
2.358736199
2.360265502
2.352304091
2.318404668
2.290385445
2.274849478
2.266774918
2.263285434
2.252618321
2.233204319
2.208950949
2.187242913
2.171828709
2.162225706
2.132770981
2.104724027
2.106978732
2.101547693
2.084019276
2.076449489
2.087183618
2.078332407
2.055858794
2.047787822
2.03746189
2.019100601
1.998101719
2.435776078
2.453619817
2.473124075
2.483800138
2.47390816
2.459868673
2.459840596
2.452733489
2.421836616
2.409623008
2.411509178
2.397830127
2.361631894
2.352456566
2.349334261
2.340880743
2.310310104
2.275967954
2.258354529
2.252991641
2.252494621
2.253102801
2.232422186
2.197138502
2.1713431
2.159422257
2.141204237
2.117397136
2.120390825
2.116856704
2.097732057
2.08941109
2.096434524
2.087998209
2.062118474
2.05521441
2.044689306
2.025651002
2.002175808
2.442739321
2.451787232
2.467538603
2.485323311
2.494940624
2.49074849
2.484905968
2.481153486
2.452703652
2.417119034
2.408319538
2.403258319
2.373919675
2.354220923
2.345285636
2.341227442
2.333848313
2.294012077
2.259396918
2.248296601
2.245409226
2.250919796
2.249903032
2.217973641
2.180067943
2.161811235
2.14747714
2.12321477
2.130860972
2.132801365
2.11393303
2.105077054
2.107147246
2.096203861
2.0659703
2.059479615
2.050311002
2.031817609
2.007013022
2.465074386
2.461280368
2.468518743
2.481795645
2.49578056
2.505302483
2.502124415
2.495595355
2.481320754
2.443494554
2.420876337
2.410377664
2.388632173
2.36637305
2.34912734
2.336998793
2.336500521
2.317936757
2.27642922
2.253966455
2.243801522
2.243639614
2.247211162
2.230144599
2.195363109
2.171202783
2.155762139
2.13002768
2.134193324
2.140801985
2.12490573
2.116280924
2.115383066
2.102542446
2.0696456
2.061844584
2.053663076
2.036399894
2.01195777
2.489487006
2.483625701
2.477319663
2.476256594
2.490444528
2.503971262
2.5038813
2.496421859
2.48915144
2.470176984
2.449481294
2.428418259
2.403028179
2.383079207
2.362169727
2.338922975
2.329939233
2.324832525
2.299820159
2.274247306
2.253421271
2.24252574
2.240461921
2.227096224
2.20215177
2.184861818
2.169040772
2.140586919
2.135407498
2.143509573
2.130126716
2.120987472
2.11954638
2.107201423
2.074546387
2.064415998
2.057235508
2.041163963
2.016994185
2.506904398
2.495269894
2.480320135
2.486864125
2.498321009
2.499569542
2.492619848
2.486959372
2.477856278
2.474021743
2.455031026
2.419867157
2.394614123
2.378819479
2.349261972
2.328394477
2.320860996
2.306161701
2.296131218
2.276775281
2.253449057
2.240221096
2.222727502
2.198292852
2.189946056
2.182570792
2.155158691
2.139498031
2.146206856
2.134423471
2.123581117
2.120863516
2.110332833
2.08072857
2.068959048
2.062108449
2.046888779
2.022762792
2.515937544
2.514736655
2.495892333
2.491330586
2.496840755
2.495164465
2.48685847
2.482190598
2.477674338
2.480862377
2.473018012
2.436428635
2.401001285
2.389863489
2.365263412
2.335286387
2.319645851
2.302827511
2.299096723
2.295034276
2.274695811
2.251300573
2.224957766
2.194681768
2.185974997
2.188234629
2.168558691
2.147183155
2.152174404
2.142454699
2.12827379
2.123219261
2.114001846
2.087577753
2.07489516
2.068575419
2.054023589
2.029519536
2.517493828
2.522606912
2.51758212
2.507101643
2.503356075
2.495808277
2.484119151
2.479704378
2.476511879
2.477801666
2.47523633
2.445867268
2.40677884
2.39448414
2.379053556
2.349482385
2.325339498
2.302434421
2.294622589
2.296203891
2.284688066
2.267474208
2.236032142
2.197198863
2.181973471
2.186794935
2.175274797
2.155110538
2.161599856
2.155639907
2.137650153
2.129522031
2.120035823
2.095095315
2.08061899
2.074412079
2.060865661
2.036459894
2.511965327
2.523113585
2.530978551
2.528452973
2.517144638
2.50257749
2.485744703
2.480296364
2.477359815
2.474811465
2.469902628
2.447441528
2.413112069
2.398670344
2.387184129
2.36367417
2.337864387
2.308977942
2.294569215
2.294516384
2.282772727
2.269470275
2.248255474
2.207077822
2.183237952
2.185800222
2.177322356
2.159292022
2.169426595
2.169288827
2.149929195
2.140127115
2.129042299
2.102732807
2.084373217
2.077729285
2.065390591
2.04188941
2.499389473
2.516212764
2.532772799
2.540945272
2.534917678
2.515575491
2.493535166
2.485231992
2.481019461
2.474816049
2.466533935
2.447217626
2.420169637
2.405172416
2.393500561
2.371499261
2.350223035
2.322801789
2.302844637
2.297907802
2.281692672
2.263260095
2.249365212
2.21777445
2.190708518
2.18980125
2.180631575
2.161612687
2.171325245
2.175815182
2.157807442
2.149489579
2.137208913
2.108676261
2.086267345
2.0793885
2.068078044
2.045553772
2.494122833
2.510820891
2.529183497
2.540832675
2.544072485
2.532689132
2.508010055
2.496010676
2.489892085
2.479621354
2.468015478
2.450976054
2.428814069
2.413944176
2.400867949
2.375562379
2.354972904
2.338132493
2.319928889
2.309444907
2.286069506
2.259194383
2.244289425
2.221217417
2.198142227
2.198351307
2.188223311
2.16593903
2.170692318
2.175647607
2.158888814
2.151435032
2.139043481
2.111118934
2.087362953
2.081464334
2.071130081
2.049176207
2.51093353
2.527553446
2.538589954
2.543346776
2.539962349
2.523683996
2.510967683
2.503571414
2.490737886
2.477695593
2.462781067
2.441760201
2.425034533
2.409656067
2.379827068
2.355579955
2.348298026
2.339442268
2.328975668
2.298695057
2.261071623
2.241146272
2.22032493
2.198997516
2.20294374
2.197156218
2.173298374
2.171646975
2.175006978
2.158537101
2.149488097
2.137092051
2.111509037
2.088709311
2.085158341
2.07611391
2.054182567
2.518819528
2.529804356
2.537057269
2.541378335
2.539355244
2.529663781
2.523199673
2.516530297
2.505259954
2.494709714
2.483279722
2.461203585
2.43887702
2.419105639
2.385576696
2.35757809
2.354536335
2.352222809
2.347213787
2.318567727
2.272663477
2.244529811
2.221798675
2.196819519
2.199289415
2.200437589
2.180522373
2.175337504
2.177476189
2.160985075
2.148756399
2.135677423
2.112276013
2.09118445
2.090889744
2.083421667
2.061057361
2.037663924
2.540830028
2.543431239
2.540843745
2.541124771
2.538142128
2.529491248
2.52635319
2.523695392
2.515527681
2.507704168
2.502368922
2.482848492
2.454142004
2.427382894
2.392128202
2.36393919
2.361450333
2.358963969
2.353439732
2.332614496
2.289519709
2.257640801
2.229927905
2.197216383
2.193882522
2.198151221
2.183764938
2.18004459
2.184374223
2.168865787
2.152006783
2.137510389
2.116099127
2.096092834
2.097697891
2.090714164
2.067819009
2.042371251
2.563910772
2.565296762
2.555438604
2.547188962
2.540356732
2.531161426
2.526128734
2.523711418
2.514424458
2.506353909
2.505951366
2.492560247
2.463662938
2.432167904
2.398282445
2.374710082
2.371459302
2.365267742
2.352978297
2.333034424
2.296173559
2.268998305
2.242266206
2.202652285
2.19138355
2.195692916
2.18427484
2.182862136
2.192226487
2.180395546
2.159876085
2.144655634
2.125349416
2.104769522
2.103814997
2.094836991
2.071945456
2.046378666
2.578130643
2.582625662
2.574287716
2.561021087
2.549561012
2.53834886
2.530990102
2.527412707
2.514403369
2.502206368
2.501539504
2.490636881
2.46391612
2.432953825
2.403518381
2.386880499
2.384092906
2.373964599
2.353122331
2.3291072
2.292181751
2.264476599
2.246182287
2.210411692
2.194060675
2.197064405
2.186088735
2.183721935
2.194531052
2.18656947
2.167160193
2.155243863
2.13844887
2.115153078
2.10758659
2.095869752
2.073680579
2.049064051
2.584741343
2.59106766
2.587863615
2.578076096
2.565234195
2.551987469
2.541983327
2.53549444
2.519443053
2.501330964
2.495735239
2.485559913
2.460923221
2.432007415
2.407907995
2.397355433
2.396227467
2.384517148
2.356429102
2.327366883
2.287397817
2.255922144
2.241885065
2.21496501
2.200797614
2.204181308
2.192386359
2.18511693
2.192301954
2.184756558
2.168012027
2.160953382
2.146461186
2.120852124
2.108569019
2.096060989
2.075239876
2.051567044
2.584541777
2.593261955
2.59205987
2.588507035
2.582438103
2.570139929
2.556351849
2.545433099
2.525989194
2.50305336
2.493590118
2.482759743
2.458888524
2.431317316
2.412002554
2.405548811
2.404882224
2.393671617
2.362648162
2.330297314
2.286702007
2.250053452
2.237279806
2.216301969
2.206128295
2.212935907
2.202012104
2.188588575
2.190178719
2.181137015
2.164906896
2.159716012
2.146282037
2.120396787
2.107944003
2.097178469
2.078448279
2.055290072
2.587719853
2.59119087
2.591052473
2.58970661
2.58444721
2.571454169
2.555685039
2.533166452
2.507289682
2.495169633
2.483241358
2.459580412
2.432683795
2.416830679
2.412788607
2.410225237
2.399066547
2.369112769
2.337592742
2.292690301
2.249498275
2.236342326
2.218809545
2.20797717
2.215182307
2.20780122
2.192494841
2.190559373
2.180164924
2.162661511
2.15696929
2.143953183
2.11825433
2.107480106
2.100317128
2.084325631
2.061338114
2.575029438
2.583351183
2.588690143
2.590531457
2.587586852
2.580722513
2.565954039
2.542235486
2.515256703
2.501895999
2.489160724
2.465880291
2.438876944
2.424587464
2.420869381
2.414874776
2.401691223
2.372988047
2.345002952
2.30441347
2.257391898
2.24283982
2.226907893
2.210678258
2.21309045
2.207360789
2.1942321
2.193637252
2.184259176
2.164689322
2.1566872
2.143475777
2.117817383
2.109089002
2.105991363
2.092327138
2.068666241
2.569129076
2.575800566
2.582285439
2.586707839
2.586940201
2.581500635
2.573482897
2.554586602
2.529196061
2.515535362
2.503088902
2.480776553
2.452496164
2.437271804
2.431433142
2.421146109
2.404387936
2.374793081
2.348326625
2.316661872
2.273700478
2.259344736
2.243549412
2.218200441
2.212623328
2.205984392
2.194520736
2.197676341
2.192754652
2.171981158
2.160771561
2.147418412
2.122304341
2.114985882
2.113656802
2.099407683
2.073787456
2.569739974
2.575425055
2.581830397
2.58405199
2.583452114
2.579921126
2.576444501
2.567140566
2.548947337
2.536292179
2.523814427
2.501659582
2.472140968
2.454565548
2.444534127
2.429956083
2.409226958
2.377084069
2.349316376
2.325053775
2.289658125
2.277023333
2.262943341
2.23059534
2.217028023
2.208361437
2.196621393
2.201063125
2.199742111
2.179372615
2.167490101
2.157114232
2.134307037
2.125575193
2.120670582
2.102429419
2.075155561
2.579160261
2.582660849
2.586257665
2.586146029
2.584155622
2.580375021
2.577030907
2.573665332
2.565842655
2.553995514
2.536690942
2.512066741
2.484346346
2.468751934
2.456851743
2.440249961
2.416490459
2.381864396
2.351730896
2.331622188
2.300524721
2.285036434
2.272182027
2.241196302
2.226539265
2.217621036
2.203922954
2.204787729
2.201398331
2.180616746
2.171528253
2.167756132
2.148333976
2.134744337
2.123171703
2.102269869
2.07506989
2.599829624
2.600322747
2.598533329
2.594400214
2.589986115
2.584042249
2.578765275
2.575741286
2.570808365
2.558638402
2.53780135
2.512240512
2.486121656
2.474261764
2.463850374
2.447931231
2.423700585
2.389208298
2.35745121
2.33988897
2.309527833
2.287825987
2.272488562
2.244157739
2.235989491
2.232808428
2.21765547
2.21081746
2.201223552
2.178118031
2.171185242
2.171517023
2.153262587
2.135243843
2.121475205
2.101573992
2.075788536
2.623427405
2.619895277
2.612212879
2.60410409
2.593423041
2.58355374
2.577494567
2.571192022
2.558392868
2.536242598
2.509810012
2.484885379
2.475004511
2.464419822
2.449548008
2.427350811
2.396697248
2.366102659
2.351230647
2.320585827
2.291861722
2.271552764
2.243893064
2.240665498
2.245751211
2.232672023
2.219018822
2.203120777
2.177006352
2.169849253
2.170597432
2.151536493
2.131202192
2.118917332
2.10225442
2.07902877
2.060475714
2.63249713
2.634707959
2.63218394
2.62302148
2.606939237
2.590570753
2.58040675
2.572161669
2.557774719
2.53390796
2.507615759
2.483686378
2.474520698
2.463456225
2.44812325
2.42753037
2.40203338
2.374932921
2.364426124
2.335220128
2.299614734
2.274552173
2.246323066
2.24380229
2.2526332
2.242194907
2.22659179
2.208794861
2.18067096
2.17117319
2.170427842
2.150009135
2.128019905
2.118228776
2.106375898
2.086239595
2.066928453
2.634273068
2.639118298
2.638927603
2.632387241
2.617710602
2.598651216
2.585349576
2.575151036
2.558183343
2.532651729
2.506681359
2.483940343
2.47522276
2.464172801
2.447051674
2.427341996
2.40570086
2.381247788
2.374839559
2.350293225
2.311778957
2.284615728
2.255848594
2.250633256
2.257988129
2.247647612
2.231676481
2.217284081
2.190026626
2.176947735
2.173600807
2.152198754
2.129066715
2.122688715
2.115780274
2.097032216
2.075167043
2.630885927
2.637135169
2.6398722
2.634965724
2.621496795
2.605888337
2.592415638
2.58218574
2.561396214
2.533178729
2.507357532
2.486665403
2.478692494
2.468002182
2.448827223
2.429930148
2.410609978
2.38558739
2.378311254
2.360021814
2.324946364
2.302085623
2.275235586
2.264669873
2.266625605
2.253671809
2.235841869
2.224733532
2.200240764
2.18454634
2.18026162
2.160492148
2.13808569
2.135184333
2.128497354
2.105790359
2.080480683
2.620706252
2.62866137
2.633541391
2.630697954
2.62016046
2.607263942
2.601368002
2.593482806
2.568952821
2.537559188
2.512228894
2.494228516
2.487637544
2.477661304
2.457285354
2.438330964
2.41943054
2.390523064
2.378038069
2.363970163
2.333748248
2.319009644
2.298719719
2.285204421
2.281248558
2.264006124
2.242024056
2.229197766
2.205095167
2.188633685
2.187481476
2.173798402
2.15442032
2.14967242
2.135360021
2.107426787
2.081141191
2.610153382
2.614608098
2.619754237
2.621380959
2.615946392
2.607552246
2.609627252
2.606246332
2.581525837
2.548486468
2.525260454
2.511494875
2.507837334
2.497927582
2.475630652
2.454491722
2.432649127
2.397649025
2.377806667
2.366240568
2.338167214
2.325713263
2.311928207
2.301576013
2.298425551
2.279089715
2.251544482
2.232663902
2.206436964
2.189275214
2.191949828
2.184271033
2.16500885
2.153017302
2.133792643
2.105320723
2.079909388
2.608224362
2.610176457
2.614201873
2.61575093
2.61234201
2.607872137
2.615013468
2.613786959
2.594575651
2.56439717
2.545042198
2.535753944
2.531840372
2.519537356
2.494356921
2.468859386
2.443708706
2.405296679
2.379563774
2.369772055
2.342048085
2.326329508
2.31300471
2.30327195
2.304832521
2.289946769
2.260761182
2.236934866
2.208969521
2.190551397
2.194602529
2.1880897
2.164854248
2.148786338
2.129827756
2.103501819
2.079514352
2.612067354
2.615997249
2.617170302
2.61462379
2.612048521
2.620207194
2.615435274
2.597309251
2.573261585
2.558107132
2.552828715
2.545878833
2.529834969
2.501335654
2.472239074
2.447554932
2.411411322
2.384363723
2.375915934
2.348305847
2.327303479
2.311327709
2.298779498
2.300176426
2.289247892
2.263732782
2.241972545
2.215811118
2.196100501
2.198643024
2.189714958
2.16233123
2.144297308
2.127756467
2.104480222
2.082488965
2.620826149
2.624531824
2.623959633
2.620532954
2.618381524
2.625445128
2.615040382
2.596422731
2.574865029
2.562325875
2.56145183
2.549889265
2.530604445
2.5013938
2.471334527
2.448579095
2.416399688
2.391419031
2.384405209
2.357994755
2.330727335
2.311823134
2.295737696
2.294475546
2.284090512
2.261644262
2.246720958
2.227467238
2.207410863
2.205631848
2.192531711
2.161983309
2.143019578
2.130471506
2.11159333
2.091934235
2.638789133
2.641194417
2.635785356
2.629305368
2.625887121
2.63058954
2.616097345
2.594635102
2.575133516
2.565289611
2.565642361
2.551614103
2.529683916
2.499897636
2.468956982
2.449101976
2.421197748
2.398605254
2.392501849
2.368763548
2.337106192
2.316289149
2.29702077
2.292355775
2.280873069
2.259700523
2.250831283
2.239417109
2.218906592
2.211932687
2.196951657
2.166047497
2.148457371
2.141995042
2.127578089
2.10741542
2.660107756
2.66217314
2.651608127
2.640613225
2.635353613
2.636689469
2.619677242
2.594487155
2.575163712
2.567636286
2.568379859
2.551716302
2.527023281
2.497955151
2.467903679
2.450278853
2.426138599
2.404753045
2.397332585
2.375988131
2.343972551
2.324610434
2.304595983
2.296848596
2.283982591
2.262762686
2.256340486
2.246853192
2.222420348
2.212519622
2.201631297
2.175554526
2.163491522
2.160471744
2.143002277
2.116767682
2.668359323
2.671622886
2.6626519
2.652247166
2.64742697
2.644602857
2.624490731
2.597237377
2.578365665
2.573629654
2.571544484
2.552881306
2.526385775
2.49736888
2.467766124
2.452624373
2.432457716
2.410815315
2.399413152
2.377942592
2.348481472
2.333586775
2.317293442
2.31064933
2.298798416
2.276197708
2.266217161
2.251339487
2.221273036
2.209993957
2.205160106
2.186234644
2.177618296
2.168086485
2.143954685
2.114403029
2.670096294
2.673939334
2.66480035
2.656161081
2.654466302
2.650654236
2.629055337
2.601227903
2.584176101
2.582518972
2.577317933
2.556501028
2.527706452
2.498843647
2.470298938
2.458247378
2.442371457
2.41817512
2.40089553
2.378297457
2.35071485
2.339625737
2.329005839
2.327779995
2.32060854
2.296893351
2.278721888
2.256059552
2.221384058
2.208827897
2.208068552
2.191756132
2.178289993
2.163595757
2.138034345
2.10882238
2.67477774
2.667209858
2.658078903
2.659052639
2.652031307
2.632863799
2.60627941
2.592488566
2.595035422
2.58686784
2.564313902
2.533474503
2.50568292
2.479680014
2.47169526
2.458272857
2.427455425
2.402847677
2.379623397
2.353564452
2.343459358
2.334975313
2.334253834
2.328175946
2.303361333
2.28454253
2.262193525
2.22625397
2.212484297
2.212535209
2.193517203
2.17359233
2.156884842
2.13201625
2.104635867
2.672657184
2.668365696
2.664788146
2.66509201
2.651246889
2.632608099
2.613503932
2.605219627
2.611801295
2.601713209
2.579462339
2.548303165
2.522442089
2.499276637
2.490410744
2.473810659
2.435221746
2.405586477
2.383318604
2.35955848
2.34858508
2.338129875
2.332833088
2.324337012
2.298408016
2.282230652
2.268946439
2.237507255
2.223004259
2.219668373
2.195038444
2.169931643
2.152467913
2.129302927
2.104416174
2.084979254
2.664416692
2.671249248
2.670356908
2.66622132
2.648124398
2.630661376
2.617117778
2.619173639
2.630797359
2.619939345
2.598242112
2.568330266
2.54242114
2.516739624
2.499513731
2.478513965
2.439617304
2.409388965
2.389852128
2.368971451
2.357046784
2.342559714
2.332008104
2.319994693
2.293421058
2.278136816
2.274132625
2.250645292
2.234535957
2.225707288
2.197425667
2.169623819
2.152620115
2.132772927
2.112445341
2.09785704
2.658400363
2.670001695
2.670903851
2.66401122
2.645321978
2.628485761
2.619367868
2.627132131
2.641120038
2.629824246
2.606847989
2.578651772
2.552000241
2.523513195
2.502273568
2.479994796
2.442645109
2.414017182
2.398355091
2.381131211
2.368643503
2.350028169
2.334204963
2.319177025
2.292092821
2.2766003
2.278077708
2.258791279
2.237102287
2.226183023
2.200826116
2.174783263
2.161273615
2.147346608
2.132597954
2.119567929
2.654392177
2.668065978
2.670006939
2.662413342
2.645966441
2.630100395
2.623894762
2.634696154
2.645580923
2.632205231
2.610190114
2.583247223
2.558489469
2.53038276
2.506000677
2.482526483
2.44634427
2.418689918
2.406032891
2.392200306
2.381038439
2.359991477
2.340140743
2.32367892
2.297146157
2.281590333
2.284593669
2.263694481
2.234233967
2.223643092
2.205119219
2.185515976
2.177853873
2.166546662
2.149074345
2.128508687
2.651399324
2.664665295
2.67080952
2.664474454
2.649724566
2.635465452
2.63273514
2.642183836
2.647050114
2.630461577
2.610430132
2.586788317
2.5636406
2.53780526
2.511960785
2.486646602
2.451285572
2.423315945
2.41160979
2.399338832
2.389890838
2.369417906
2.349088284
2.33553846
2.312872305
2.297682897
2.297364416
2.270194891
2.232554996
2.222266574
2.210238407
2.195283443
2.186448524
2.169501829
2.147189001
2.123938547
2.653229149
2.665475672
2.676572589
2.671255193
2.65664058
2.643313985
2.642367281
2.648999319
2.645426109
2.626708333
2.607093007
2.587529024
2.567126643
2.544004684
2.518222771
2.492136861
2.458186675
2.429261304
2.416730751
2.404112564
2.395202033
2.375926906
2.357755189
2.35103287
2.335129209
2.319150384
2.313141718
2.280193147
2.235779748
2.225832955
2.216964119
2.199189876
2.183507242
2.163395024
2.140295841
2.117043481
2.677997791
2.692721196
2.685764709
2.668280388
2.653633239
2.652450735
2.655435166
2.642875983
2.622351851
2.60181647
2.586036848
2.568966767
2.549008356
2.525046206
2.500129165
2.468679271
2.438546083
2.42329757
2.408851893
2.399283688
2.380854355
2.363581816
2.359106253
2.345732093
2.326641769
2.318222589
2.290781201
2.246884624
2.236735388
2.225877858
2.200507073
2.179216975
2.157992886
2.135066321
2.11273072
2.694213813
2.708328318
2.699802937
2.680739064
2.665942975
2.664518794
2.662222408
2.643035318
2.621562156
2.600145403
2.585940397
2.572533458
2.555461202
2.534330705
2.512777132
2.485310198
2.452318036
2.432043664
2.415346238
2.404374262
2.386256329
2.366749933
2.36031563
2.346641072
2.324558427
2.314500907
2.295759346
2.258883322
2.248195324
2.234063797
2.202516707
2.17755913
2.155867174
2.133568547
2.113114015
2.709691352
2.717576059
2.702391192
2.682928512
2.673864195
2.67595011
2.671139564
2.64738754
2.623736909
2.60204685
2.588054388
2.57652724
2.563984225
2.549065515
2.532740527
2.506418114
2.467609613
2.443378526
2.425525006
2.412539289
2.393664166
2.370049388
2.361198995
2.346697479
2.322005398
2.309992052
2.295144338
2.262004092
2.249395328
2.237124419
2.20604873
2.180352684
2.159205861
2.138942164
2.12358978
2.716858185
2.717492175
2.697742113
2.67970228
2.676839082
2.684086268
2.67886742
2.655353978
2.629683845
2.607193605
2.592431854
2.583271088
2.578456387
2.569412016
2.549157643
2.516338179
2.479430495
2.457468409
2.440663156
2.424951476
2.404081444
2.375403016
2.364378099
2.349745311
2.322496328
2.308168205
2.294306796
2.261494693
2.246197678
2.236534046
2.210215066
2.187745481
2.170086213
2.155269888
2.147259249
2.715983744
2.711683374
2.687631799
2.675227244
2.680603325
2.700760111
2.688775228
2.663545852
2.638077373
2.616594509
2.602525004
2.597956579
2.597312863
2.583244177
2.554831218
2.520139047
2.485316561
2.469614601
2.454861609
2.436254721
2.414706547
2.382938154
2.370819463
2.357312149
2.328109677
2.31097784
2.29736676
2.263698992
2.244842007
2.236282056
2.214078954
2.19538378
2.18266059
2.172313034
2.162806177
2.707575792
2.6991344
2.673825238
2.669780152
2.69350552
2.717158471
2.701763673
2.672425299
2.643261347
2.627192523
2.617225557
2.612261977
2.60331257
2.585150724
2.556427755
2.522010528
2.488709773
2.475402801
2.460988798
2.44064332
2.420758085
2.390584964
2.379908119
2.369971655
2.341016641
2.321648741
2.307961698
2.272471258
2.248489842
2.239569211
2.218450576
2.199320149
2.186985058
2.174646486
2.16060089
2.693428583
2.680554669
2.657813082
2.663754044
2.705743877
2.728509346
2.712851764
2.680425186
2.647698747
2.63172265
2.62454857
2.617612621
2.605419553
2.585039322
2.555518785
2.521651572
2.490636341
2.478485654
2.464098756
2.442328362
2.422967789
2.39592135
2.387301832
2.381020607
2.356250787
2.336639047
2.324095425
2.288776921
2.260529381
2.249128103
2.225208508
2.201596318
2.186235512
2.170974187
2.154195236
2.666372194
2.653387634
2.66706152
2.718698353
2.731541682
2.71671074
2.685698097
2.653220847
2.637329614
2.628705043
2.621912227
2.606811835
2.583108559
2.552214188
2.520104124
2.492838504
2.481784658
2.467426875
2.444052617
2.424540729
2.39944079
2.390553164
2.384257337
2.361632748
2.342067994
2.33126363
2.303007056
2.275926479
2.262280866
2.234494506
2.205048266
2.186331313
2.168499854
2.150162437
2.671156078
2.655837007
2.673368298
2.729131935
2.73473497
2.71896883
2.687900719
2.658690325
2.64281789
2.635380673
2.625248983
2.606320013
2.578744691
2.547897699
2.520691832
2.496256896
2.486124492
2.471939387
2.447236039
2.427108968
2.40282004
2.39216026
2.384635958
2.361414414
2.339150853
2.32934989
2.305653514
2.279639126
2.267300422
2.241831499
2.210275396
2.189108821
2.169183123
2.15064557
2.134512644
2.676475351
2.659335012
2.683405657
2.740034661
2.740196134
2.720754124
2.690211636
2.663935115
2.649087892
2.639902039
2.627066162
2.604496756
2.574818304
2.547041905
2.523659092
2.501465706
2.493356115
2.479739003
2.454151112
2.43241809
2.407892591
2.394013116
2.385295724
2.361628989
2.335511461
2.32491918
2.30334534
2.276656007
2.26447616
2.242993451
2.214234139
2.193629616
2.174191379
2.159094617
2.150615999
2.682768922
2.669147538
2.701100703
2.755037775
2.747864843
2.7225392
2.692665719
2.669660696
2.655342886
2.644998371
2.629514418
2.60535304
2.575210271
2.549317403
2.52830492
2.511826919
2.506881996
2.493846098
2.467421183
2.443117554
2.416198702
2.39753698
2.387514412
2.363960617
2.333176538
2.321646463
2.301790806
2.274218138
2.26095184
2.24131756
2.214956046
2.197432473
2.183085245
2.176822853
2.172232225
2.676215156
2.669333911
2.722406258
2.771110699
2.758472384
2.726110945
2.699787883
2.678163547
2.662500822
2.649326479
2.632712496
2.60754258
2.577635024
2.553368475
2.538169775
2.529758452
2.523703128
2.508518777
2.481356489
2.455556748
2.426441935
2.403788341
2.392821712
2.369660214
2.333933948
2.321210004
2.303729095
2.27495845
2.259910656
2.240884261
2.215041492
2.200408299
2.192203431
2.190402226
2.177924491
2.677630382
2.675344346
2.737599911
2.775511817
2.761738997
2.725367122
2.698741357
2.68621104
2.671250009
2.652217098
2.634789283
2.610053074
2.581421586
2.561012834
2.555144218
2.545492867
2.531357025
2.512720829
2.485448256
2.460239001
2.434127445
2.412065736
2.401663258
2.379552633
2.339907451
2.325554907
2.311168058
2.281893022
2.264190853
2.244868575
2.218442116
2.205281495
2.198876559
2.191664418
2.173638893
2.684509008
2.685979727
2.751542569
2.777859073
2.76092996
2.723554513
2.696523504
2.682528212
2.670332112
2.653616285
2.637200297
2.613763661
2.587866968
2.575804851
2.570416679
2.55211581
2.533800139
2.513896303
2.486630141
2.461791841
2.439018049
2.419477202
2.409306061
2.389230068
2.349963317
2.33644036
2.326470292
2.297604288
2.276824114
2.256626749
2.228961249
2.214896925
2.204442265
2.189437426
2.167627781
2.694320991
2.702969881
2.766242969
2.780703793
2.75822848
2.719141868
2.69272323
2.679084838
2.668220428
2.654741724
2.640804795
2.620395844
2.601553552
2.591858155
2.577984315
2.556223759
2.534172953
2.512741708
2.486359143
2.463322927
2.443112538
2.424254804
2.412583055
2.392760981
2.358622038
2.347502517
2.340218923
2.313649019
2.290762095
2.27115618
2.244004495
2.226804593
2.209191124
2.18826577
2.164981749
2.719736268
2.777529858
2.777771578
2.750212846
2.711290787
2.686070572
2.672843514
2.663203386
2.654171982
2.647399521
)
;

boundaryField
{
    inlet
    {
        type            fixedValue;
        value           nonuniform 0();
    }
    outlet
    {
        type            zeroGradient;
    }
    bottom
    {
        type            slip;
    }
    top
    {
        type            slip;
    }
    obstacle
    {
        type            zeroGradient;
    }
    defaultFaces
    {
        type            empty;
    }
    procBoundary22to15
    {
        type            processor;
        value           uniform 2.423542228;
    }
    procBoundary22to16
    {
        type            processor;
        value           nonuniform List<scalar> 
40
(
2.139353898
2.109002324
2.092194938
2.096958101
2.090719027
2.071885738
2.064450015
2.063838814
2.049017249
2.03455142
2.030739596
2.022995545
2.00661157
2.443680545
2.455427041
2.466427225
2.439290032
2.4199958
2.418237298
2.412288107
2.400512404
2.411479213
2.439466175
2.442391761
2.411950116
2.377350062
2.378745876
2.36557809
2.302483606
2.288761952
2.30135434
2.295567163
2.281205828
2.240259952
2.203700377
2.200712009
2.201829922
2.192882173
2.177382015
2.177382015
)
;
    }
    procBoundary22to17
    {
        type            processor;
        value           uniform 1.991700989;
    }
    procBoundary22to21
    {
        type            processor;
        value           nonuniform List<scalar> 
70
(
2.425504155
2.425504155
2.428699619
2.445874125
2.471021025
2.48608894
2.504343062
2.504343062
2.509771347
2.508538305
2.497786298
2.484940455
2.482643317
2.494594447
2.494594447
2.504919647
2.528932214
2.546050631
2.55459165
2.558381428
2.553856915
2.574936839
2.574936839
2.563811002
2.561836333
2.563081216
2.573290295
2.588012783
2.617831637
2.617831637
2.623442352
2.622466887
2.615403246
2.605825069
2.603175089
2.603797604
2.611029778
2.611029778
2.622560505
2.642457565
2.658260382
2.66111319
2.659037198
2.664618918
2.664618918
2.651819052
2.636610707
2.626943004
2.62521831
2.635565412
2.647328879
2.664413963
2.664413963
2.675962018
2.67728939
2.676655037
2.675813075
2.671743688
2.660369264
2.679970358
2.679970358
2.668747616
2.661898566
2.660746683
2.667009309
2.670494182
2.672470599
2.678136719
2.705810001
2.705810001
)
;
    }
    procBoundary22to23
    {
        type            processor;
        value           nonuniform List<scalar> 
65
(
1.994473969
1.994473969
1.994026641
1.99683681
2.000124865
2.003971199
2.008193987
2.012412794
2.016834208
2.021154111
2.02494089
2.027743935
2.030379209
2.033410137
2.033410137
2.02565717
2.029267597
2.032897893
2.035856829
2.038427711
2.041370881
2.045535021
2.050435288
2.054253064
2.055912505
2.056371411
2.057313666
2.057313666
2.044520405
2.049868534
2.056808213
2.061670228
2.062592707
2.061601271
2.061429318
2.064628219
2.073357896
2.085416276
2.091239771
2.089011621
2.084849882
2.082431856
2.082431856
2.075429021
2.091868185
2.10874718
2.109825761
2.104030773