/*--------------------------------*- C++ -*----------------------------------*\
  =========                 |
  \\      /  F ield         | OpenFOAM: The Open Source CFD Toolbox
   \\    /   O peration     | Website:  https://openfoam.org
    \\  /    A nd           | Version:  7
     \\/     M anipulation  |
\*---------------------------------------------------------------------------*/
FoamFile
{
    version     2.0;
    format      ascii;
    class       volVectorField;
    location    "2.6";
    object      U;
}
// * * * * * * * * * * * * * * * * * * * * * * * * * * * * * * * * * * * * * //

dimensions      [0 1 -1 0 0 0 0];

internalField   nonuniform List<vector> 
138
(
(3 -5.371497093e-16 0)
(3 -9.395302514e-16 0)
(3 6.794555266e-16 0)
(3 5.387834954e-16 0)
(3 -1.222900911e-15 0)
(3 -3.390863798e-16 0)
(3 -2.334898827e-16 0)
(3 -3.385976903e-16 0)
(3 -1.994211609e-16 0)
(3 -2.252022081e-15 0)
(3 -4.182611442e-15 0)
(3 -5.351959534e-15 0)
(3 -5.502105765e-15 0)
(3 -4.227162023e-15 0)
(3 -4.158068536e-15 0)
(3 -3.381726503e-15 0)
(3 -3.510550077e-15 0)
(3 -5.282680426e-15 0)
(3 -5.151239337e-15 0)
(3 -5.511755314e-15 0)
(3 -6.190405633e-15 0)
(3 -5.189044746e-15 0)
(3 -1.09658496e-16 0)
(3 -1.856401938e-15 0)
(3 -1.365680602e-15 0)
(3 -5.941221879e-16 0)
(3 1.148373293e-15 0)
(3 5.958787915e-16 0)
(3 -2.588457455e-16 0)
(3 -8.618294744e-16 0)
(3 -1.052573644e-15 0)
(3 3.378941223e-16 0)
(3 2.841120501e-17 0)
(3 4.213418364e-16 0)
(3 -5.817069467e-16 0)
(3 -1.466867104e-15 0)
(3 -1.623346436e-15 0)
(3 -2.53921822e-15 0)
(3 1.035005136e-15 0)
(3 4.41627934e-16 0)
(3 5.089695813e-16 0)
(3 2.46279298e-15 0)
(3 6.552967296e-15 0)
(3 8.242625055e-15 0)
(3 7.918385742e-15 0)
(3 4.466621219e-15 0)
(3 3.598316877e-15 0)
(3 3.805660176e-15 0)
(3 5.440582704e-15 0)
(3 8.241694235e-15 0)
(3 1.036810931e-14 0)
(3 1.065819773e-14 0)
(3 1.04676713e-14 0)
(3 9.228177652e-15 0)
(3 7.367106096e-16 0)
(3 1.430108982e-15 0)
(3 2.473359422e-15 0)
(3 4.023783268e-15 0)
(3 5.053566999e-15 0)
(3 5.665023157e-15 0)
(3 6.526160677e-15 0)
(3 6.367190454e-15 0)
(3 4.586500652e-15 0)
(3 4.395392414e-15 0)
(3 5.478837788e-15 0)
(3 6.878795508e-15 0)
(3 7.710307133e-15 0)
(3 8.663727251e-15 0)
(3 8.643842956e-15 0)
(3 8.481144183e-15 0)
(3 -1.003869353e-16 0)
(3 -7.410922692e-16 0)
(3 -1.768896933e-17 0)
(3 -1.590002488e-15 0)
(3 -2.07352666e-15 0)
(3 -2.045843783e-15 0)
(3 -2.728332842e-16 0)
(3 2.735161682e-15 0)
(3 3.611822674e-15 0)
(3 3.414111677e-15 0)
(3 2.484931999e-15 0)
(3 2.521974555e-15 0)
(3 3.154458195e-15 0)
(3 2.224177214e-15 0)
(3 1.113812239e-15 0)
(3 1.157089316e-15 0)
(3 -8.762615054e-16 0)
(3 -7.620130593e-16 0)
(3 -3.349301791e-15 0)
(3 -7.785224834e-15 0)
(3 -1.039223874e-14 0)
(3 -1.1036053e-14 0)
(3 -1.022432317e-14 0)
(3 -5.754782768e-15 0)
(3 -3.435228927e-15 0)
(3 -3.163018542e-15 0)
(3 -6.839590126e-15 0)
(3 -6.201212809e-15 0)
(3 -6.554108316e-15 0)
(3 -7.451424516e-15 0)
(3 -6.737587956e-15 0)
(3 -6.712151727e-15 0)
(3 -2.117714112e-15 0)
(3 -2.194842066e-15 0)
(3 -4.907745212e-15 0)
(3 -4.395149219e-15 0)
(3 -6.229606655e-15 0)
(3 -7.951458606e-15 0)
(3 -1.191062672e-14 0)
(3 -1.096331689e-14 0)
(3 -9.373649106e-15 0)
(3 -8.022436207e-15 0)
(3 -8.253215039e-15 0)
(3 -9.581611544e-15 0)
(3 -9.643334778e-15 0)
(3 -7.462357481e-15 0)
(3 -6.983699222e-15 0)
(3 -6.955547125e-15 0)
(3 -2.135519588e-16 0)
(3 -3.86410188e-16 0)
(3 -1.426162041e-15 0)
(3 -6.26128683e-16 0)
(3 -2.454252783e-15 0)
(3 -1.606878356e-15 0)
(3 -3.896973275e-15 0)
(3 -7.173025396e-15 0)
(3 -6.093803214e-15 0)
(3 -4.79131227e-15 0)
(3 -6.345967101e-15 0)
(3 -6.840890212e-15 0)
(3 -4.578817727e-15 0)
(3 -2.118444261e-15 0)
(3 -7.779872555e-16 0)
(3 -1.960672406e-16 0)
(3 1.297307823e-15 0)
(3 1.371405805e-15 0)
(3 3.018097841e-15 0)
(3 2.479387031e-15 0)
)
;

boundaryField
{
    inlet
    {
        type            fixedValue;
        value           uniform (3 0 0);
    }
    outlet
    {
        type            inletOutlet;
        inletValue      nonuniform 0();
        value           nonuniform 0();
    }
    bottom
    {
        type            slip;
    }
    top
    {
        type            slip;
    }
    obstacle
    {
        type            slip;
    }
    defaultFaces
    {
        type            empty;
    }
    procBoundary6to0
    {
        type            processor;
        value           nonuniform List<vector> 
17
(
(3 2.883558728e-15 0)
(3 3.746377565e-15 0)
(3 1.901001357e-15 0)
(3 2.24613178e-15 0)
(3 2.499075102e-15 0)
(3 6.533810126e-16 0)
(3 -6.24093357e-16 0)
(3 -2.678224555e-16 0)
(3 -6.95638493e-16 0)
(3 -1.979501586e-15 0)
(3 -3.815414914e-15 0)
(3 -4.136947904e-15 0)
(3 -5.251187169e-15 0)
(3 -4.588998329e-15 0)
(3 -2.493233374e-15 0)
(3 -1.941295113e-15 0)
(3 -1.941295113e-15 0)
)
;
    }
    procBoundary6to7
    {
        type            processor;
        value           nonuniform List<vector> 8((3 4.978325435e-16 0) (3 -3.508713886e-15 0) (3 -1.328412141e-15 0) (3 7.834832228e-15 0) (3 7.411281681e-15 0) (3 1.367157588e-15 0) (3 -6.762374533e-15 0) (3 -7.454815771e-15 0));
    }
    procBoundary6to12
    {
        type            processor;
        value           nonuniform List<vector> 
17
(
(3 2.739598896e-15 0)
(3 5.242119188e-15 0)
(3 5.712869578e-15 0)
(3 3.719725057e-15 0)
(3 5.289538082e-16 0)
(3 2.36264887e-16 0)
(3 7.674874034e-17 0)
(3 1.04985697e-15 0)
(3 3.828484083e-15 0)
(3 3.345655611e-15 0)
(3 3.791321257e-15 0)
(3 4.733036671e-15 0)
(3 6.969002962e-16 0)
(3 2.282995322e-15 0)
(3 4.806589012e-15 0)
(3 2.739598896e-15 0)
(3 7.282160235e-15 0)
)
;
    }
    procBoundary6to13
    {
        type            processor;
        value           uniform (3 5.870399863e-16 0);
    }
}


// ************************************************************************* //
