/*--------------------------------*- C++ -*----------------------------------*\
  =========                 |
  \\      /  F ield         | OpenFOAM: The Open Source CFD Toolbox
   \\    /   O peration     | Website:  https://openfoam.org
    \\  /    A nd           | Version:  7
     \\/     M anipulation  |
\*---------------------------------------------------------------------------*/
FoamFile
{
    version     2.0;
    format      ascii;
    class       volScalarField;
    location    "3";
    object      p;
}
// * * * * * * * * * * * * * * * * * * * * * * * * * * * * * * * * * * * * * //

dimensions      [1 -1 -2 0 0 0 0];

internalField   nonuniform List<scalar> 
560
(
0.6202695441
0.6337506888
0.6829838877
0.7670557875
0.8668508737
0.9580032663
0.9802086152
0.9827410563
0.989417818
0.9868842617
0.9876666755
0.9928594616
0.9959419273
0.9977213466
0.9985336346
0.9991143146
0.6227465495
0.6257380309
0.6309117462
0.6529548742
0.7228210487
0.8232675481
0.8954029287
0.9405330173
0.980412703
0.9801348217
0.9849120367
0.9917143538
0.9968932305
0.9978181049
0.9981631236
0.9973896239
0.6457974199
0.6383482718
0.6320083425
0.629936578
0.6402558202
0.6797378476
0.7728142917
0.8713380064
0.9541399628
0.9717198039
0.992820461
0.9978563882
0.9960732493
0.9959995907
0.9964848594
0.995296631
0.6727997609
0.6555892841
0.6439433103
0.6330611169
0.6343896621
0.6383136911
0.6645239659
0.7221434808
0.8103355427
0.89675288
0.9747358063
0.9872398539
0.9821026368
0.9874318959
0.9924264828
0.9948859633
0.711198943
0.6893830009
0.6753837462
0.659971448
0.6467607747
0.6393032809
0.6399624982
0.6485754433
0.6861305658
0.7741235145
0.8666560245
0.9182790681
0.954872147
0.9835721805
0.9951426446
0.997479405
0.745718408
0.7203958293
0.7014116944
0.6877671335
0.6685335921
0.6505319027
0.6421151941
0.6448024967
0.648735134
0.6733321892
0.7271522096
0.8185575109
0.9190134053
0.9656340695
0.9817006631
0.9934313405
0.7791987229
0.7574115471
0.7356510464
0.7187554347
0.7041848503
0.6842088452
0.6659530957
0.6567689672
0.6492742623
0.6494853448
0.6580705413
0.6995629551
0.7727628594
0.852171798
0.9139031005
0.9672970384
0.8087990529
0.7915823692
0.7657419505
0.7444144625
0.7305088634
0.7137037595
0.694531559
0.6760869375
0.6600823096
0.6512051864
0.6538417285
0.6600980774
0.6790421199
0.7327230193
0.8160362055
0.9250131981
0.8372218164
0.820106547
0.8009138171
0.7764077334
0.7577078088
0.7457735628
0.7273413579
0.709133222
0.6928290914
0.6730549269
0.6628856515
0.6599380057
0.6597193363
0.6672882944
0.6967949614
0.8110616407
0.8699594815
0.8486556233
0.8328301585
0.8111560057
0.7860721101
0.7689692936
0.7551354688
0.7371891792
0.7202808685
0.7033452115
0.6797685744
0.6659660561
0.6616719535
0.6641763417
0.6666722759
0.7137018914
0.9078872717
0.8792589297
0.8579832645
0.8428231518
0.818176701
0.7950167276
0.7816107943
0.7663793019
0.7506374274
0.7352962531
0.7161626262
0.6940113519
0.6815569683
0.6752470033
0.6682673793
0.6731088038
0.946317741
0.914571682
0.8864936833
0.8704781882
0.8520863
0.8272413607
0.8058877057
0.7906912572
0.7734290019
0.7594697508
0.7453585752
0.7242930942
0.7046419606
0.6907005741
0.6768395661
0.6737958701
0.9822374382
0.9538265833
0.9202619648
0.8970393249
0.8803613118
0.8594976419
0.8352144046
0.8164419038
0.799082525
0.7832002599
0.7714119973
0.7571916332
0.734901645
0.7179740354
0.7057749762
0.6883898873
1.015497618
0.989323066
0.95898986
0.9271959164
0.9054017066
0.8901075777
0.865917156
0.8452043183
0.8265162962
0.8062873763
0.7927429129
0.7808797296
0.7640557832
0.7439709996
0.7290911374
0.7069257256
1.047710546
1.020654332
0.9978893011
0.964176375
0.934144734
0.9162078767
0.8965326899
0.8743156912
0.8524883187
0.8333051449
0.8139735388
0.8021318986
0.7910994551
0.773487592
0.7567510673
0.7333731589
1.085787964
1.051142048
1.028206857
1.002831468
0.9701508566
0.9406565219
0.9239193596
0.9049547137
0.8812302892
0.8621767151
0.8402182408
0.8223682616
0.8107609624
0.796901554
0.7817215723
0.7574529349
1.12677658
1.088311962
1.055583877
1.03331986
1.010103788
0.9743351381
0.9480494481
0.9314588161
0.9106329859
0.8902280751
0.8688933619
0.8483695627
0.8312955957
0.817675041
0.804966924
0.7818166865
1.161350075
1.13019013
1.091585232
1.058828047
1.039933201
1.013528709
0.9811384568
0.9543921523
0.9370607231
0.9179558877
0.8958678532
0.8771069444
0.8560916472
0.8400125332
0.8273528797
0.8037217484
1.193919067
1.164503251
1.132311066
1.094410524
1.063512688
1.043519406
1.019590725
0.9847221901
0.9621959795
0.9432962731
0.9231323505
0.9043034237
0.881350726
0.8632815686
0.8496998055
0.82614393
1.232649589
1.195742285
1.166518231
1.136101163
1.097041481
1.068131933
1.048115808
1.021577201
0.9930601512
0.9663885946
0.9490559848
0.9304059696
0.908536256
0.8896547273
0.8719414667
0.8470911791
1.273279206
1.232867939
1.197001037
1.16908521
1.137686713
1.101525942
1.071793643
1.051486845
1.027474784
0.9959588778
0.9749222002
0.9536091724
0.9352919594
0.9173118566
0.8957604376
0.8694238965
1.308921446
1.271541028
1.233056738
1.19796346
1.17109529
1.140895512
1.104238056
1.077569484
1.055098685
1.030567441
1.005015433
0.9775785829
0.9607810895
0.940192856
0.9197927117
0.8973923484
1.343621774
1.30804484
1.271991668
1.232836342
1.199945624
1.172084668
1.142449328
1.109301363
1.080250459
1.059917276
1.035220893
1.008010709
0.9883568784
0.9599916474
0.942805553
0.9353043629
1.374788349
1.34276097
1.306305912
1.270451942
1.232994923
1.199940255
1.173969503
1.143842703
1.112606986
1.086666633
1.061322491
1.04047221
1.01324194
0.9831903031
0.974093092
0.9897461977
1.395378578
1.373394344
1.3401978
1.305511579
1.269533367
1.234104016
1.201759945
1.173628904
1.146468992
1.115176567
1.090301404
1.064442167
1.036289431
1.020532943
1.021583739
1.070400397
1.404626385
1.393419939
1.371266909
1.339153246
1.303995276
1.26941038
1.233202799
1.203608228
1.174074718
1.147341438
1.118516211
1.087024589
1.071526423
1.073644756
1.090707824
1.184114509
1.399061455
1.399464728
1.391531182
1.369487809
1.338024865
1.302463388
1.26942479
1.234777515
1.204262507
1.174717289
1.143601272
1.12331636
1.124848133
1.150686188
1.209002
1.313649977
1.384614527
1.401330375
1.400017215
1.389841437
1.367538892
1.337625022
1.30183669
1.267426288
1.234240539
1.199700119
1.178590369
1.18178347
1.205067299
1.26880331
1.378326391
1.41475888
1.377872475
1.396629397
1.395782014
1.395401754
1.386939259
1.365942947
1.333502896
1.299367818
1.262554302
1.238606455
1.241113177
1.270521503
1.342438911
1.424768351
1.503236986
1.489060994
1.317712837
1.359577312
1.38246797
1.395057615
1.394313624
1.383583638
1.360888639
1.330539725
1.304486468
1.307856789
1.339842069
1.409223206
1.50980314
1.554464179
1.549927627
1.520582067
1.190345712
1.299804539
1.370684323
1.393033828
1.391615221
1.387496712
1.378233305
1.370057686
1.379383915
1.422703173
1.503862538
1.590924641
1.654394248
1.643076597
1.600520182
1.528942078
1.080432484
1.196608932
1.296635208
1.365578441
1.379506315
1.385832269
1.40372308
1.43991419
1.503733778
1.58833672
1.673164845
1.70451438
1.698446574
1.682495783
1.652457894
1.572101059
1.02300625
1.08293632
1.18468471
1.298824509
1.364112125
1.408751318
1.475463027
1.558524213
1.675985443
1.78619463
1.816171854
1.793810757
1.739034594
1.689780448
1.647355468
1.557813013
1.004409027
1.023142049
1.08437278
1.193320152
1.317854331
1.444257807
1.589557565
1.693608838
1.789231351
1.851742236
1.852098339
1.831090565
1.77899819
1.71110836
1.651945609
1.553903454
1.000548283
1.004560056
1.026404869
1.098023223
1.263906256
1.490823171
1.675200216
1.866259917
1.930330742
1.921577686
1.886943959
1.844026627
1.796589055
1.730357247
1.658722252
1.551777699
)
;

boundaryField
{
    inlet
    {
        type            fixedValue;
        value           nonuniform 0();
    }
    outlet
    {
        type            zeroGradient;
    }
    bottom
    {
        type            slip;
    }
    top
    {
        type            slip;
    }
    obstacle
    {
        type            zeroGradient;
    }
    defaultFaces
    {
        type            empty;
    }
    procBoundary35to29
    {
        type            processor;
        value           nonuniform List<scalar> 
16
(
0.650217079
0.7279456805
0.8302246394
0.9292300999
0.951035066
0.9789796292
0.9944810378
0.9953833829
0.9967708682
0.9972922169
0.9967903013
0.9975506642
0.9976546778
0.997358437
0.9980268696
0.999146379
)
;
    }
    procBoundary35to34
    {
        type            processor;
        value           nonuniform List<scalar> 
35
(
0.61852929
0.6276629348
0.6625808937
0.6952424865
0.7362316738
0.7660877578
0.7944336071
0.8273413165
0.8617981662
0.9004293566
0.9378347822
0.9734717289
1.007925287
1.041663802
1.08208294
1.124336527
1.159568379
1.193675497
1.23227076
1.272140931
1.310072113
1.345690944
1.377768706
1.397469873
1.403608758
1.407428949
1.401534572
1.357415957
1.297686161
1.196897089
1.087021716
1.023994002
1.004298552
1.000525476
1.000044625
)
;
    }
}


// ************************************************************************* //
