/*--------------------------------*- C++ -*----------------------------------*\
  =========                 |
  \\      /  F ield         | OpenFOAM: The Open Source CFD Toolbox
   \\    /   O peration     | Website:  https://openfoam.org
    \\  /    A nd           | Version:  7
     \\/     M anipulation  |
\*---------------------------------------------------------------------------*/
FoamFile
{
    version     2.0;
    format      ascii;
    class       volScalarField;
    location    "3.2";
    object      p;
}
// * * * * * * * * * * * * * * * * * * * * * * * * * * * * * * * * * * * * * //

dimensions      [1 -1 -2 0 0 0 0];

internalField   nonuniform List<scalar> 
2222
(
2.395564649
2.339053144
2.278943762
2.213136271
2.143680608
2.074370034
2.009902317
1.953008264
1.90493465
1.863158165
1.823613932
1.784565083
1.74620496
1.706128104
1.662284357
1.616875155
1.572806925
1.532063892
1.496444754
1.46559237
1.437397193
1.41086557
1.384108024
1.355093771
1.324395515
1.292432701
1.260096635
1.22954361
1.202235549
1.177680982
1.159390557
1.130087378
2.417776067
2.359930922
2.299550122
2.233319715
2.163297562
2.09361457
2.02889002
1.971830439
1.923181233
1.880679196
1.840819339
1.801343233
1.761843279
1.72139031
1.676943012
1.631009365
1.586629287
1.545776169
1.509862233
1.478614144
1.450118095
1.422992358
1.396150578
1.367260731
1.336228057
1.303999218
1.271359646
1.240356285
1.212870114
1.188195544
1.169514678
1.139848588
2.400553042
2.33982103
2.279223382
2.215179281
2.145702045
2.076658493
2.013185103
1.957601629
1.909529614
1.86683398
1.827012205
1.78759359
1.746638437
1.705614427
1.662537889
1.616748677
1.573323291
1.533793497
1.49877281
1.467775367
1.439422508
1.41158679
1.384175404
1.356850849
1.326518351
1.294993822
1.263090504
1.232423172
1.205237689
1.180511795
1.16110914
1.13104777
2.397537165
2.335826166
2.272786693
2.209616263
2.141150234
2.072280258
2.009366603
1.954481846
1.906663512
1.864067197
1.824658583
1.785763622
1.744774476
1.701723395
1.660503997
1.615313093
1.571902336
1.532656604
1.498086599
1.467212252
1.438691113
1.410407375
1.381845275
1.354794274
1.326322709
1.294756376
1.262872839
1.232206578
1.204950869
1.180029197
1.160234816
1.129671298
2.39817036
2.342857943
2.274564816
2.207850452
2.142017327
2.073233156
2.01081144
1.956872805
1.909459059
1.866993628
1.828187346
1.789362521
1.748006491
1.7026908
1.659287791
1.621923997
1.580706398
1.541826897
1.507647933
1.476659108
1.44554646
1.412231584
1.382805136
1.35405945
1.330292318
1.302922268
1.271812983
1.241101086
1.21206276
1.18241271
1.161535255
1.130281673
2.391149095
2.335840746
2.274257793
2.205164335
2.143089014
2.08451246
2.024989857
1.972409612
1.925437786
1.882428739
1.843444753
1.803923228
1.761019868
1.713986239
1.663053246
1.611471253
1.565758763
1.526705756
1.493562301
1.463431024
1.435688675
1.416212331
1.391912152
1.363389249
1.327888433
1.294175304
1.262448231
1.231665382
1.20351525
1.184861482
1.169168075
1.138459051
2.386350323
2.331790929
2.281905673
2.216194665
2.137127848
2.06561619
2.004835348
1.954007161
1.90946078
1.866766581
1.826736994
1.788426249
1.745689919
1.700130848
1.653678804
1.609310272
1.565301429
1.526171572
1.492562329
1.462328697
1.436691069
1.410094075
1.380682373
1.352283849
1.325547134
1.294086063
1.262437833
1.231147963
1.204412403
1.182114128
1.16177534
1.129806578
2.393659705
2.329254822
2.261676762
2.197654251
2.131578225
2.064128552
2.003368444
1.950877528
1.905836714
1.86380683
1.822277369
1.783860258
1.743880241
1.700072496
1.652480194
1.608000461
1.571819246
1.53426328
1.499973627
1.470733485
1.442007599
1.409742443
1.380888741
1.351672571
1.325353085
1.30004077
1.270046697
1.23927081
1.211482594
1.182771915
1.161811235
1.129847772
2.381766977
2.320391664
2.254992455
2.190392224
2.133452974
2.074312718
2.014740426
1.95874358
1.908381601
1.865501323
1.823333139
1.780762334
1.746267713
1.708660314
1.661869037
1.608689079
1.561918416
1.522594425
1.487665132
1.456909221
1.430810259
1.411390988
1.388575989
1.359734482
1.325970421
1.2912096
1.259401249
1.228941004
1.200988673
1.182291417
1.167652511
1.136709257
2.376658459
2.316079699
2.254667784
2.189419731
2.120430736
2.054675499
1.996715453
1.946436465
1.902221198
1.862442572
1.825689193
1.784821202
1.738091896
1.690989025
1.648652698
1.605182542
1.560928963
1.522079067
1.487826331
1.456363112
1.430810952
1.4057135
1.377336036
1.348457751
1.319978245
1.290508852
1.259447704
1.229022562
1.201507091
1.179868306
1.1606626
1.128329764
2.373083435
2.311663896
2.247923583
2.181320972
2.11368452
2.050282681
1.993489413
1.9436942
1.900485246
1.860321873
1.819328817
1.777903229
1.734076094
1.688038497
1.64435144
1.607851109
1.568890903
1.531529011
1.497605992
1.466128794
1.434356993
1.404663911
1.377005904
1.348805561
1.317863756
1.29222624
1.265298014
1.236209981
1.208727403
1.179797782
1.159946322
1.128622873
2.369184767
2.304781982
2.23977523
2.174775933
2.110069788
2.048820487
1.992551038
1.941798146
1.896375855
1.854564644
1.814592421
1.773911007
1.731120267
1.688727612
1.644353261
1.597025948
1.553733819
1.516536426
1.48318923
1.45390175
1.426691456
1.402802121
1.382250593
1.355935011
1.324220256
1.287666988
1.254389255
1.224998734
1.198953018
1.173769172
1.158670017
1.134066341
2.364632949
2.301840409
2.237198162
2.171350112
2.105315711
2.043827788
1.989284512
1.939658299
1.894046947
1.852123143
1.811977806
1.771579938
1.72980577
1.685777282
1.639490107
1.593527436
1.550915273
1.51364418
1.480936045
1.451354867
1.425496839
1.400418413
1.372242773
1.343809557
1.314878246
1.283199306
1.252328332
1.224440133
1.199176629
1.175039726
1.157730601
1.126916923
2.361802328
2.298986204
2.231535063
2.164802384
2.102902188
2.043785175
1.987785665
1.93723285
1.891332788
1.848060194
1.806740954
1.766932963
1.72653842
1.682861907
1.63631041
1.590832364
1.548694056
1.510549881
1.480129693
1.452991924
1.427759035
1.400864734
1.372511835
1.343116993
1.31218329
1.280031693
1.251449814
1.228815234
1.205305548
1.181668319
1.15917013
1.124436096
2.35214339
2.293970626
2.231847145
2.164685884
2.098038564
2.036284275
1.981560574
1.932973292
1.888204165
1.845503857
1.804365388
1.764167646
1.723545779
1.680484495
1.634518307
1.588848297
1.546675664
1.50779845
1.478311121
1.458594446
1.435012002
1.407967726
1.379269747
1.347867897
1.313473639
1.279504746
1.248287716
1.219166715
1.194293228
1.171276756
1.152365339
1.122423724
2.348914469
2.284913944
2.221057399
2.155698126
2.091138235
2.03049737
1.977138755
1.930242553
1.886413636
1.843804934
1.801233786
1.759875473
1.720000256
1.677503263
1.631139382
1.585357471
1.543058804
1.50680194
1.476458821
1.447586092
1.421422253
1.395009125
1.367711708
1.339033261
1.307908477
1.275849121
1.244815176
1.216423038
1.19157889
1.168512143
1.150118735
1.119938849
2.340233925
2.272834984
2.210550246
2.149777333
2.088413203
2.027138181
1.970725498
1.923976721
1.882980311
1.842356453
1.800695802
1.758260782
1.715549617
1.672324887
1.627095097
1.581913284
1.540379673
1.505171511
1.473852656
1.444534376
1.417643679
1.391482791
1.364740171
1.33670283
1.305346903
1.273916213
1.242594896
1.21476118
1.18974509
1.166624202
1.14794229
1.11750176
2.337146545
2.270540599
2.20325566
2.137375388
2.076356418
2.023159925
1.971811874
1.922107525
1.877839499
1.837754557
1.797556787
1.753907968
1.709322984
1.667453512
1.6254915
1.581703696
1.541355992
1.506316963
1.474076488
1.443996114
1.416184841
1.390151613
1.363340404
1.334798404
1.304572764
1.274143756
1.243211836
1.21478939
1.189301032
1.166147852
1.14753518
1.116195211
2.331208319
2.261947605
2.19185787
2.128130139
2.070029584
2.015367631
1.966181135
1.919000481
1.87432988
1.832234022
1.792364457
1.751845146
1.707230271
1.661816242
1.62270911
1.587037189
1.549473293
1.513999766
1.478793281
1.445307656
1.415350069
1.387498711
1.359630466
1.331490181
1.307039998
1.279079772
1.248761692
1.217763156
1.190027572
1.167318356
1.149071395
1.116973131
2.323151577
2.257139431
2.190128888
2.124295908
2.062132397
2.005717763
1.959456354
1.918558469
1.875290674
1.831545857
1.789836005
1.748048857
1.702655127
1.657426891
1.616129509
1.574085379
1.534718834
1.500015463
1.469985265
1.441616237
1.413211296
1.386873345
1.359866889
1.330186827
1.299318385
1.268528309
1.238557222
1.211040925
1.191260519
1.172489475
1.154866509
1.121902048
2.310023737
2.246054746
2.181044415
2.115406633
2.05564796
2.003860961
1.954249879
1.908377338
1.867056098
1.825593007
1.78197025
1.739669191
1.699966357
1.657251646
1.612222359
1.571471722
1.533124375
1.497433601
1.466970113
1.439959065
1.412638564
1.384376754
1.356640529
1.3287292
1.298848556
1.268253026
1.237914456
1.211482481
1.187534194
1.163607573
1.14549994
1.114090505
2.294826081
2.232808266
2.173096893
2.113803744
2.055756338
2.000096399
1.947777672
1.900188048
1.858945013
1.821454992
1.781102951
1.736823064
1.692893433
1.649886421
1.605766091
1.566164072
1.532503494
1.49716076
1.464061966
1.438642339
1.413915866
1.38330349
1.354412972
1.330743336
1.303694349
1.273527459
1.243182108
1.214396589
1.187231616
1.163216451
1.145267129
1.114107147
2.29126569
2.22592107
2.16314957
2.103349978
2.045689564
1.991257915
1.941954228
1.897647118
1.855858017
1.815286942
1.774838418
1.731425957
1.686096337
1.642650066
1.603195634
1.56416881
1.525589567
1.491285392
1.45992238
1.430975184
1.404623168
1.378726943
1.351869691
1.322221644
1.292502224
1.262283913
1.232530998
1.205768084
1.185810982
1.16723169
1.149616403
1.11871525
2.28457146
2.218091628
2.152926624
2.093244361
2.038196777
1.9861365
1.93862513
1.893898035
1.849149532
1.805435248
1.766613099
1.729218601
1.686905649
1.641782025
1.598413436
1.557376408
1.519029339
1.485940387
1.45633243
1.426652134
1.399230453
1.375002399
1.348678214
1.31827282
1.288684877
1.260101542
1.231942731
1.206002641
1.182736363
1.158288445
1.139015061
1.108075173
2.276307226
2.214594311
2.151038299
2.089090598
2.031324786
1.97740772
1.92897662
1.886461851
1.84502856
1.803077135
1.760945569
1.720330726
1.679856713
1.636775186
1.592652524
1.551342984
1.515958572
1.484419598
1.45476554
1.425257431
1.397503128
1.370641016
1.342074686
1.312173637
1.282711609
1.2580544
1.235996853
1.21048125
1.181635665
1.15582652
1.136665736
1.105400058
2.262004084
2.202000079
2.142068411
2.079505738
2.021322277
1.971979719
1.925729801
1.88062325
1.838731871
1.79723558
1.753456206
1.710504662
1.672153029
1.634041552
1.592456172
1.550863182
1.512699914
1.478223601
1.448798434
1.42457967
1.397681186
1.368262988
1.338456227
1.308025995
1.279830725
1.252290718
1.224615828
1.199312241
1.17564521
1.152639294
1.134631529
1.10471846
2.249035916
2.187635985
2.1318277
2.076359858
2.019573838
1.967005082
1.919240936
1.873480845
1.830131075
1.78930206
1.749639138
1.708465108
1.665545435
1.62434046
1.584111217
1.544309304
1.507287743
1.475257972
1.446557925
1.417703197
1.389290339
1.361219213
1.333887521
1.307496587
1.279393549
1.250021006
1.222122269
1.19574218
1.172736792
1.151784225
1.133094539
1.101741143
2.240857619
2.183784331
2.122820125
2.063288814
2.006984781
1.954605226
1.911178104
1.871608978
1.829242505
1.785092001
1.742353737
1.700353183
1.656756612
1.615208783
1.577511296
1.540678794
1.505267081
1.472499876
1.442153692
1.412873131
1.384559653
1.357293155
1.329661008
1.301585809
1.273302819
1.246469652
1.220892159
1.195541457
1.17296718
1.151128894
1.131287494
1.099136739
2.232102024
2.17079426
2.109981634
2.051955347
1.999531556
1.950286962
1.902900778
1.860379221
1.820846299
1.778967975
1.734404665
1.690898397
1.650409668
1.610885772
1.573175588
1.536256899
1.501100572
1.468643105
1.43861088
1.411394971
1.383643841
1.354293686
1.325107379
1.297594173
1.270988717
1.244550381
1.218009358
1.19233041
1.168966622
1.148466331
1.131740923
1.09933846
2.214383543
2.153780856
2.100172557
2.048585159
1.996288241
1.945537749
1.896821967
1.851265779
1.810736488
1.773623525
1.733445037
1.688964266
1.644361927
1.602944828
1.565983644
1.532887315
1.499923609
1.468560801
1.437727483
1.408561619
1.379260414
1.350464065
1.322102907
1.293375312
1.264591371
1.237493506
1.213684256
1.191000063
1.168931109
1.146472097
1.126846882
1.094552872
2.20624675
2.146815768
2.089294256
2.036076934
1.986111173
1.939183506
1.893862693
1.850042415
1.807329591
1.764652888
1.723404948
1.681356025
1.63780152
1.59640475
1.558111948
1.528344851
1.503771776
1.474423824
1.44201322
1.406758939
1.374670221
1.345008081
1.316098443
1.288055701
1.260930615
1.235166059
1.210077167
1.185673313
1.16282993
1.140234359
1.122540703
1.093139865
2.192951544
2.133954538
2.077024746
2.024707376
1.977068404
1.930382413
1.884353639
1.841204587
1.799077484
1.755569227
1.712874901
1.67343607
1.634141154
1.59358767
1.556013864
1.521347844
1.488009504
1.457390774
1.427485456
1.39852269
1.369908142
1.34089739
1.312334297
1.284932376
1.25756871
1.230247755
1.204133584
1.180642246
1.159900572
1.13943508
1.121155535
1.088734785
2.175794513
2.122440008
2.070782365
2.019002116
1.968368082
1.920118344
1.87447127
1.83053974
1.789147451
1.750040104
1.709909977
1.668735539
1.627947556
1.587788289
1.549438364
1.512883327
1.480237598
1.451292931
1.423001099
1.394975173
1.366416722
1.33672548
1.306842317
1.278352923
1.252328614
1.227574603
1.203434126
1.180202494
1.157642105
1.13455964
1.115276547
1.084838775
2.166853928
2.111951498
2.058867909
2.007694837
1.957299033
1.91003786
1.867555657
1.827030212
1.7852733
1.741944814
1.698859746
1.656515197
1.618136826
1.58311388
1.547511768
1.512216957
1.478947135
1.446915674
1.41584923
1.386515215
1.359865579
1.333280402
1.305427556
1.277624538
1.250027781
1.223618952
1.198680746
1.174942264
1.15306177
1.131091963
1.11294194
1.083081427
2.153872648
2.09781622
2.046470881
1.997909235
1.950809915
1.904860122
1.859808696
1.816171463
1.772537957
1.729855951
1.69058192
1.652262158
1.613142763
1.574686444
1.538765149
1.504411629
1.471414225
1.440740797
1.411992421
1.383673678
1.35519174
1.326977541
1.299543253
1.272075183
1.244632162
1.219256414
1.19572665
1.173337869
1.152520024
1.13128799
1.111680738
1.078450562
2.1391029
2.085244399
2.035830142
1.988917646
1.943068014
1.89731018
1.851108437
1.805363927
1.762260488
1.722588596
1.682333175
1.641697807
1.601699806
1.564577494
1.531984705
1.500842009
1.470059428
1.439951112
1.409247643
1.378461598
1.347955034
1.319136725
1.29390301
1.269243757
1.243668387
1.218177585
1.193185401
1.169240806
1.146820769
1.127460293
1.110562454
1.07694676
2.127856348
2.07406822
2.023741363
1.976620337
1.933251295
1.891389663
1.847543999
1.801657511
1.756578098
1.712768232
1.671737889
1.633644894
1.597304951
1.562747036
1.528642481
1.494902944
1.462189103
1.430708497
1.402026901
1.374555769
1.346034545
1.317717016
1.28982245
1.262222098
1.235570033
1.211120241
1.189148512
1.167164839
1.145639772
1.123694378
1.10434223
1.071857684
2.115711302
2.062394264
2.012772514
1.966615849
1.921835001
1.876895586
1.832228551
1.78925009
1.74796864
1.706190669
1.665040584
1.625636346
1.588403711
1.552986376
1.519016833
1.487769908
1.458122124
1.428121615
1.397781
1.368250045
1.3400793
1.311755054
1.283319964
1.256661691
1.23238394
1.208870391
1.185477211
1.163272242
1.141765163
1.118940249
1.099004996
1.067541903
2.098495713
2.047449823
2.000541899
1.955656969
1.911209182
1.866956893
1.823018899
1.780156588
1.737370846
1.694140526
1.652199117
1.614176818
1.580424266
1.548115675
1.516707247
1.485350796
1.453295448
1.421294413
1.389162656
1.35900023
1.333421758
1.309072786
1.283304735
1.256842984
1.230081531
1.204069257
1.17964873
1.158337071
1.13885684
1.117915989
1.098693662
1.065188294
2.086520034
2.036392204
1.989774985
1.945306714
1.901428471
1.857090252
1.8117192
1.766880459
1.726078776
1.687940845
1.64936927
1.61127836
1.574209895
1.539272385
1.506500495
1.474612134
1.445134243
1.416571109
1.38652294
1.357204772
1.328459559
1.300289126
1.273861688
1.248496407
1.225241958
1.202377924
1.179300982
1.156939531
1.135020224
1.112861051
1.093179868
1.059619898
2.073106283
2.023524706
1.976940366
1.932511561
1.888567701
1.844371528
1.801364346
1.760562466
1.719412708
1.67719799
1.636512209
1.597859874
1.561594111
1.52975541
1.500870773
1.471616887
1.441119826
1.409426911
1.37827399
1.348049695
1.318018255
1.290238951
1.267514243
1.245734628
1.221538531
1.196841878
1.17335031
1.150370118
1.128591945
1.108285476
1.090069385
1.057838407
2.05928382
2.01033054
1.964705099
1.921704911
1.879453101
1.836786859
1.793210567
1.748321758
1.703186962
1.66174281
1.625965896
1.592012898
1.558595336
1.526321823
1.494030415
1.461858519
1.429787008
1.399010651
1.369801792
1.340274703
1.312208328
1.286975341
1.261536269
1.23607749
1.212668014
1.191654819
1.170427747
1.148622698
1.127528202
1.105724105
1.086101525
1.053326196
2.044124019
1.997477801
1.953296829
1.910472372
1.867352089
1.82313623
1.777663676
1.73267502
1.69188401
1.655295785
1.618747669
1.582316355
1.547628072
1.514395635
1.483277169
1.454712064
1.426034003
1.396200686
1.364818361
1.335244864
1.307889965
1.280419083
1.254032583
1.23037271
1.208665334
1.186736347
1.164434653
1.142537591
1.120928471
1.098578332
1.080039182
1.050611391
2.029981662
1.984215036
1.939699512
1.896268386
1.853188237
1.810038215
1.767221275
1.725497492
1.684280021
1.643104425
1.603880247
1.570381659
1.540837087
1.511144909
1.481420147
1.450131719
1.417904717
1.386200545
1.357465346
1.330238314
1.301635953
1.273493774
1.247908121
1.224612478
1.201950332
1.179575998
1.158255704
1.138069905
1.117946941
1.097171991
1.079006308
1.047056212
2.016464486
1.971168347
1.927305603
1.885009567
1.843223638
1.800766655
1.757373074
1.713291817
1.669407452
1.628954018
1.595549947
1.564538003
1.532474373
1.500508437
1.469018449
1.438762814
1.41148347
1.383034755
1.351654472
1.320222516
1.293197509
1.269450344
1.245902342
1.222259453
1.199085054
1.176914363
1.155446357
1.134116713
1.113008742
1.091448922
1.072280274
1.040909961
2.000796307
1.956433952
1.913687817
1.872297013
1.830714387
1.787595884
1.743236321
1.700338346
1.660543122
1.622697659
1.585712405
1.550964453
1.5204659
1.493441887
1.465548488
1.436501921
1.405367261
1.373459486
1.34369056
1.315944578
1.288763326
1.262136183
1.237745979
1.214727727
1.192386078
1.170470226
1.148590714
1.126956486
1.10701307
1.087708496
1.070159155
1.039589559
1.985421332
1.941813425
1.899660831
1.858674965
1.817472322
1.775571079
1.733489734
1.69121149
1.648811931
1.608351486
1.574074799
1.545691378
1.517080425
1.486425804
1.455106369
1.423637383
1.392845672
1.365021803
1.336621168
1.307203222
1.278966213
1.253403086
1.230974825
1.20961261
1.188442088
1.167488847
1.146625426
1.126043102
1.105416711
1.083492126
1.064318925
1.032678561
1.971805119
1.928017705
1.88544871
1.844509195
1.804366071
1.762889724
1.718663125
1.673896604
1.634140636
1.59992156
1.56706014
1.533956599
1.502430382
1.472959239
1.446574968
1.418878851
1.389290877
1.3595156
1.330355994
1.30266119
1.27660994
1.252322555
1.228695173
1.205474953
1.183270768
1.161791648
1.140536674
1.119084662
1.097449175
1.076208128
1.059319882
1.029977823
1.95791902
1.914292056
1.872048243
1.831283382
1.790684588
1.748996651
1.70705974
1.666627319
1.627787372
1.58868363
1.552523609
1.523896502
1.498138103
1.4712616
1.441698293
1.410303884
1.380066932
1.350552501
1.321490814
1.293416537
1.267103196
1.242698101
1.219372888
1.196805433
1.175006258
1.154414208
1.135459765
1.115912403
1.095510291
1.07512508
1.056759142
1.025203756
1.94232526
1.899086365
1.857947967
1.817544916
1.776786668
1.735703905
1.693516582
1.650605949
1.609626901
1.576071728
1.547328966
1.517998665
1.487123796
1.457192401
1.42769075
1.399388305
1.372009916
1.343373077
1.314560987
1.287463849
1.262386473
1.238754164
1.216134741
1.194530013
1.173806445
1.153489921
1.132410678
1.110208752
1.088775784
1.067613198
1.049534143
1.020612561
1.92823396
1.884542153
1.843396826
1.80327987
1.762955995
1.721096324
1.678461306
1.638587682
1.603165603
1.568898247
1.534040449
1.502338875
1.476738178
1.451991742
1.424903761
1.396441953
1.366464836
1.336030735
1.306518787
1.27908794
1.253999583
1.23081213
1.208798052
1.187321972
1.166013349
1.144327826
1.122794316
1.102641814
1.084665913
1.065456668
1.048364876
1.018870314
1.91401519
1.870631862
1.829136075
1.788214675
1.747382523
1.706327804
1.665832142
1.625718684
1.587444424
1.553785637
1.526116419
1.499432719
1.471192846
1.440864869
1.411093901
1.381566208
1.352642339
1.325143132
1.298072132
1.272091251
1.247405012
1.223854604
1.201682463
1.180885436
1.161003136
1.140757795
1.120957585
1.10090011
1.079771318
1.058551867
1.039973362
1.010882723
1.900616127
1.855499048
1.813193897
1.772289619
1.731908237
1.691327528
1.650370489
1.612224415
1.579220757
1.548271923
1.516124509
1.484770075
1.456116409
1.431285165
1.405726387
1.378115307
1.349829308
1.32044355
1.291036066
1.264342625
1.240811961
1.219691611
1.19886689
1.177887351
1.156545582
1.134840165
1.113881693
1.0926282
1.07171309
1.052965574
1.036306629
1.008187655
1.886729042
1.84122726
1.796870111
1.755997885
1.716939476
1.676685211
1.636979317
1.600034214
1.565128449
1.532207099
1.503622155
1.478738073
1.453010968
1.424562559
1.394968916
1.364708748
1.334804505
1.307141749
1.28178409
1.257109455
1.233464958
1.210871102
1.189342069
1.168056108
1.147136606
1.127893418
1.110083665
1.090750188
1.070888029
1.050614729
1.032117047
1.001814254
1.873897353
1.829341688
1.782506901
1.740535608
1.702182105
1.663179974
1.623090576
1.585084384
1.553982465
1.526429257
1.498789753
1.468891764
1.439225991
1.412523419
1.386596278
1.35899655
1.331230003
1.303779383
1.275778212
1.248871524
1.224375336
1.203611867
1.184784536
1.165254586
1.145644364
1.126566209
1.105955267
1.084456575
1.063479761
1.042757877
1.025290592
0.997126958
1.848712985
1.809251338
1.76434804
1.72276497
1.684421375
1.647701852
1.612850596
1.579522424
1.545731937
1.513560314
1.482865421
1.454459463
1.429943701
1.404479964
1.376726446
1.347031587
1.317118836
1.2890987
1.263501494
1.240502636
1.220010641
1.199654767
1.178556942
1.156587418
1.135184166
1.114866292
1.095024638
1.077868135
1.060445379
1.041338676
1.024620637
0.9953601518
1.830435633
1.798288475
1.751670026
1.708254359
1.670136452
1.632753188
1.595365953
1.560870665
1.532810076
1.505184032
1.475406508
1.447174742
1.420662222
1.394845659
1.368643251
1.341192969
1.313720922
1.287712675
1.261369429
1.234527346
1.210460407
1.188059197
1.16709329
1.147692443
1.129290949
1.110482882
1.091867682
1.073225923
1.053402091
1.033378579
1.017410156
0.9901166572
1.792384565
1.77353378
1.734175396
1.690086732
1.651490361
1.618015653
1.586160974
1.554555426
1.522338876
1.491482382
1.462821649
1.436287256
1.410369278
1.384074944
1.356997696
1.329404596
1.301463692
1.274761605
1.248905202
1.225725091
1.205210755
1.18491808
1.165556101
1.145776921
1.123865126
1.102533534
1.081690243
1.060777489
1.042004
1.025131855
1.012953794
0.9887265536
1.764438155
1.754514091
1.721442427
1.677497154
1.637512425
1.6025569
1.569635867
1.53799894
1.507910635
1.479747781
1.452401984
1.425320999
1.397944633
1.371189914
1.345733706
1.321200595
1.295443172
1.271357849
1.247702276
1.223006843
1.199369725
1.178115743
1.15761839
1.137108909
1.115903899
1.097044704
1.076995335
1.056933204
1.039957923
1.022810428
1.009714967
0.984614247
1.700440541
1.718170578
1.700424168
1.664576707
1.625465112
1.59076677
1.55844263
1.527867019
1.497725572
1.469428493
1.442669187
1.41786649
1.392079712
1.365847361
1.338166827
1.309422607
1.279951215
1.254084606
1.230175548
1.210247703
1.192356198
1.174705125
1.155974772
1.137168013
1.115775137
1.092749532
1.069346753
1.048846377
1.030472063
1.013448359
0.998988378
0.9745727558
1.548785462
1.686699828
1.674856916
1.645976596
1.613519731
1.58227529
1.548108839
1.515554774
1.487352938
1.46161447
1.435477071
1.409114221
1.382977084
1.356294551
1.326882504
1.297292092
1.27012791
1.246623898
1.224090027
1.202604679
1.182345094
1.164656866
1.145944658
1.12692949
1.104987665
1.084473912
1.064459952
1.046427075
1.027187585
1.010268917
0.9932610987
0.9687710437
1.29617373
1.637547193
1.648570837
1.631063367
1.601521854
1.567609747
1.527162571
1.492719153
1.467164222
1.442936855
1.420185389
1.401754361
1.380210321
1.353853976
1.323334304
1.293530464
1.264040155
1.237415975
1.211353416
1.18930905
1.171894701
1.157354979
1.141295198
1.124217196
1.104163717
1.082958118
1.060609132
1.039226122
1.018987084
0.9990114633
0.9836755422
0.9693658025
1.026124604
1.495808149
1.625743842
1.62226493
1.600195522
1.563532656
1.520300923
1.483046097
1.45292952
1.42859812
1.40509387
1.383023254
1.362027769
1.339253408
1.313181791
1.286075857
1.257905711
1.230732761
1.206423927
1.185251294
1.164447204
1.147437557
1.130602386
1.112332287
1.092162034
1.071948494
1.05404281
1.033155513
1.011254499
0.9955148766
0.9839291144
0.9920382721
0.7869236932
1.278486334
1.561996595
1.589151073
1.576610244
1.550110725
1.520036838
1.484134487
1.44991135
1.418170229
1.388900452
1.363150909
1.341923588
1.324138639
1.307382914
1.284303627
1.254916175
1.224585985
1.198466055
1.174723052
1.155121558
1.139541252
1.124459749
1.107564516
1.090041221
1.07136647
1.048498224
1.028714958
1.012046099
0.9989270542
1.008528335
1.165791291
0.6426038625
1.026140948
1.445959184
1.562146621
1.557593143
1.536338576
1.505064224
1.468239475
1.434036802
1.40593651
1.380769024
1.35801304
1.337655336
1.317299133
1.293848257
1.266939659
1.240199211
1.217507744
1.19624837
1.173072923
1.150710645
1.131470699
1.114135392
1.095754816
1.077208029
1.060488491
1.045886895
1.029861687
1.037614203
1.102971175
1.235350085
1.472282344
0.586067537
0.7820361828
1.259766049
1.515139335
1.54048643
1.527645047
1.499441865
1.46322361
1.427895103
1.394606668
1.364121074
1.33799397
1.318093288
1.298240249
1.277383178
1.253650279
1.231491386
1.207188507
1.183845269
1.160202549
1.142981621
1.124637181
1.106440267
1.088048833
1.077640004
1.060957266
1.066255265
1.125713097
1.268954008
1.473062346
1.638818774
1.678224273
0.5620398412
0.6289933666
1.02402457
1.408771382
1.512442102
1.506212201
1.480905427
1.447416152
1.415721537
1.385790456
1.357610847
1.329208991
1.308056253
1.288786068
1.26962068
1.246381597
1.224924521
1.200538936
1.177833991
1.150604465
1.131985479
1.111868755
1.103996991
1.088927688
1.091505177
1.14629149
1.297339056
1.512849546
1.687349202
1.734006586
1.751039794
1.732047748
0.5477321735
0.5643054337
0.7842789056
1.243235357
1.46059825
1.490696647
1.476571334
1.44552944
1.411173316
1.374614378
1.340775363
1.30659994
1.288925137
1.273170333
1.259417944
1.241504866
1.223536476
1.200347931
1.175127871
1.14719957
1.129672801
1.11125055
1.114049676
1.168782232
1.307937815
1.515517355
1.69652722
1.731656361
1.766290298
1.746891045
1.74832589
1.733314332
0.5363214466
0.5398778744
0.6207617289
1.018644655
1.363984266
1.460316225
1.456661777
1.434001322
1.40446999
1.372428241
1.336471981
1.299209179
1.275943832
1.25957021
1.243743882
1.224362796
1.203746276
1.18509264
1.170045545
1.147528582
1.150876291
1.208912878
1.345581081
1.549107052
1.720923444
1.776457305
1.806586738
1.794041647
1.782517015
1.753532373
1.742903655
1.728910424
0.5247882409
0.524908851
0.5451843743
0.7830433017
1.21638825
1.431665669
1.437308442
1.418555346
1.384123473
1.350737707
1.316826416
1.294692469
1.271785182
1.255651304
)
;

boundaryField
{
    inlet
    {
        type            fixedValue;
        value           nonuniform 0();
    }
    outlet
    {
        type            zeroGradient;
    }
    bottom
    {
        type            slip;
    }
    top
    {
        type            slip;
    }
    obstacle
    {
        type            zeroGradient;
    }
    defaultFaces
    {
        type            empty;
    }
    procBoundary5to4
    {
        type            processor;
        value           nonuniform List<scalar> 
69
(
2.452594859
2.476236035
2.459316899
2.453640003
2.448733105
2.452260921
2.450059623
2.45192553
2.441003674
2.436842426
2.434063202
2.432268722
2.426095066
2.421098924
2.414123086
2.412921226
2.408149243
2.40244238
2.397568642
2.386509147
2.374614195
2.361797066
2.358166162
2.349097609
2.336250434
2.325580289
2.312397496
2.298102153
2.295571139
2.279782902
2.264902899
2.253580956
2.235814069
2.22305064
2.213993112
2.197670916
2.185685126
2.171940129
2.153574056
2.140182388
2.125454405
2.110919635
2.093262188
2.076489202
2.062307068
2.046240528
2.030052973
2.016810433
2.003557028
1.988662421
1.976632375
1.961258732
1.948189216
1.928209188
1.906790474
1.869808311
1.840166471
1.771381671
1.608006802
1.334175434
1.042974266
0.7984379329
0.6624954476
0.6087756478
0.5864737301
0.5721746592
0.5592966897
0.5475533873
0.5377708915
)
;
    }
    procBoundary5to10
    {
        type            processor;
        value           uniform 0.5281701018;
    }
    procBoundary5to11
    {
        type            processor;
        value           nonuniform List<scalar> 
33
(
1.231242447
1.212708669
1.19709903
1.183052932
1.19450429
1.28136536
1.451169943
1.65791498
1.814076981
1.889091333
1.91021947
1.898356762
1.866713964
1.844143189
1.816120866
1.777051421
1.754300996
1.732318599
0.5143486572
0.5130579564
0.5172196178
0.6136012274
1.00018607
1.355735893
1.413126756
1.404757977
1.371992585
1.34188929
1.309446343
1.278616731
1.24799286
1.231242447
1.237149687
)
;
    }
}


// ************************************************************************* //
