/*--------------------------------*- C++ -*----------------------------------*\
  =========                 |
  \\      /  F ield         | OpenFOAM: The Open Source CFD Toolbox
   \\    /   O peration     | Website:  https://openfoam.org
    \\  /    A nd           | Version:  7
     \\/     M anipulation  |
\*---------------------------------------------------------------------------*/
FoamFile
{
    version     2.0;
    format      ascii;
    class       volScalarField;
    location    "3.4";
    object      p;
}
// * * * * * * * * * * * * * * * * * * * * * * * * * * * * * * * * * * * * * //

dimensions      [1 -1 -2 0 0 0 0];

internalField   nonuniform List<scalar> 
2222
(
1.020006599
1.026135328
1.031841896
1.03540582
1.036545302
1.041312465
1.047769218
1.051692965
1.053651638
1.052384091
1.044762223
1.037193996
1.033193578
1.030215561
1.028432519
1.028525792
1.029798708
1.032255542
0.6742676037
0.9514812517
0.9876916528
1.016913374
1.027543398
1.031566707
1.036297668
1.039434352
1.041587404
1.042146451
1.045103648
1.051592683
1.055633969
1.059510919
1.060515377
1.055257279
1.047729982
1.040792546
1.036230871
1.034174736
1.033465711
1.033907574
1.035886261
0.6556943763
0.9066275989
0.9660950301
1.004832811
1.019767716
1.02509586
1.030933743
1.034246851
1.036886315
1.039109099
1.042220464
1.047331911
1.05121709
1.055363398
1.056569387
1.053241138
1.048443582
1.042198782
1.037857511
1.035690069
1.035265643
1.036424141
1.038233714
0.6356102472
0.8654111777
0.9326807905
0.998231685
1.020011144
1.025026636
1.02697476
1.030660297
1.036734697
1.041930443
1.046007303
1.049428476
1.050445388
1.050378609
1.048630728
1.046480637
1.042690273
1.038528117
1.035626856
1.033718914
1.033552478
1.034546762
1.035619496
0.622201311
0.8261624718
0.9076600483
0.9915567223
1.025544819
1.031614628
1.028535063
1.029721036
1.036647923
1.042563147
1.047411672
1.052581529
1.055254032
1.055154049
1.054145467
1.050822761
1.044416019
1.039512473
1.036731334
1.034778444
1.034211123
1.033808821
1.032843811
0.6075844328
0.7719543145
0.8919120162
0.9766185602
1.021032502
1.031898411
1.031538211
1.031339402
1.034208744
1.036275356
1.038688717
1.044420362
1.050755544
1.054512976
1.056252416
1.054542016
1.048192207
1.041899681
1.038814801
1.038252371
1.038648975
1.038469122
1.03774658
1.036373744
0.5917803452
0.7148524736
0.8603621059
0.961011133
1.010079008
1.020748551
1.025274785
1.030315302
1.035053343
1.035190426
1.034696924
1.038479443
1.045268599
1.051022202
1.054241577
1.053386303
1.046629999
1.039079447
1.03465573
1.033700525
1.034487712
1.036365942
1.038683854
1.040009109
0.5773047887
0.66788862
0.7995762
0.9244671928
0.9935718718
1.015215357
1.020466757
1.027247131
1.037101509
1.043448137
1.046710149
1.050621252
1.054094738
1.055868225
1.056057934
1.053659761
1.047640023
1.04029463
1.033526178
1.029892556
1.02928975
1.030937704
1.033391941
1.035348784
0.5682562326
0.6375124475
0.7522063809
0.8791057786
0.9694352818
1.009645599
1.022201901
1.026674343
1.031372138
1.037349663
1.043510606
1.050632456
1.054289901
1.055667054
1.055882876
1.054029957
1.049502311
1.044094144
1.037899228
1.033911877
1.032062104
1.03156884
1.031825736
1.032219499
0.5600400632
0.615975985
0.7229222845
0.8539990708
0.9553046016
1.006219999
1.025774237
1.027824793
1.028222298
1.030881008
1.034903671
1.040729324
1.044598849
1.048125734
1.050380681
1.050352436
1.04791678
1.043856744
1.040035056
1.036866166
1.034727909
1.033180424
1.032608004
1.032731762
0.5542479584
0.5947878918
0.6807214418
0.8278963827
0.9482590904
1.008323688
1.024731264
1.028708394
1.028886768
1.030238329
1.032770923
1.036968333
1.041766244
1.047648312
1.05148972
1.051668576
1.04823892
1.04124499
1.036829124
1.036366857
1.03820892
1.038070978
1.03591109
1.034134004
0.5483582086
0.5799036409
0.6422092782
0.7731811473
0.9200463325
1.001405311
1.022175992
1.026644699
1.031493823
1.034812433
1.037409469
1.041995682
1.048072708
1.054289623
1.057675445
1.057998521
1.05356343
1.044501487
1.038716397
1.03641079
1.03639011
1.038193336
1.040372676
1.040904439
1.039074201
0.5438333664
0.5698881274
0.6202180788
0.7187588268
0.8647651394
0.9731852531
1.013666217
1.02454436
1.032543777
1.037419236
1.040542229
1.045406757
1.050456654
1.055066897
1.056916514
1.057272646
1.054005581
1.048876847
1.043244264
1.035624069
1.031002151
1.03153652
1.035504975
1.039676037
1.041421096
0.5379302689
0.5602252713
0.6007272243
0.6877931111
0.8198543099
0.9406156713
1.0012676
1.023235355
1.031647716
1.035792461
1.037647879
1.042280384
1.048510746
1.052880195
1.054248118
1.05350915
1.05033489
1.046627016
1.040401838
1.034344935
1.03047785
1.029901391
1.03141702
1.033134314
1.034423644
0.5341833996
0.5522872755
0.5808553541
0.6571091597
0.788744997
0.9187313888
0.9927937106
1.021437076
1.027958796
1.031466967
1.033281056
1.037569854
1.045806323
1.04919708
1.050521302
1.051317194
1.047872167
1.04337873
1.037667685
1.036274518
1.037051357
1.036930441
1.035212842
1.032550576
1.030668797
0.5319827197
0.5476503497
0.5695144617
0.6224126184
0.7464491
0.8970814538
0.9894943414
1.018292712
1.023111332
1.026936763
1.029434063
1.03781067
1.043263106
1.046567915
1.049102704
1.051343044
1.048587059
1.043340486
1.038715784
1.039806194
1.040238589
1.040722498
1.04114626
1.039233784
1.036308699
0.5301357334
0.5437343134
0.5621970366
0.600713833
0.6952985439
0.8512602062
0.9724415999
1.012879352
1.02081829
1.027287558
1.031836242
1.037584139
1.041235942
1.046048544
1.051644682
1.054478727
1.05294082
1.047734501
1.043377743
1.039916146
1.037407918
1.037230747
1.038383589
1.040703154
1.04212524
0.5278505096
0.5398884411
0.5548172738
0.5864332441
0.6613198434
0.7939574119
0.9339538912
1.001503654
1.020936435
1.030618289
1.03424694
1.037335828
1.04263206
1.049584479
1.054346963
1.056046271
1.056753419
1.051593211
1.044403815
1.03816178
1.033355932
1.032681566
1.034827263
1.037480353
1.039050472
0.5258653156
0.5363664479
0.5486335788
0.5717069225
0.635118577
0.7549890476
0.893828107
0.9837292157
1.020965001
1.033020239
1.036160136
1.038708543
1.041591463
1.04930421
1.054090027
1.056483737
1.056070732
1.050382584
1.043128299
1.035820598
1.031130403
1.029105025
1.030228483
1.032817785
1.034850186
1.036429395
0.523670731
0.5334789513
0.5439523772
0.5609542586
0.6062782416
0.7200063884
0.8641890549
0.9672206362
1.018046539
1.034290574
1.032643383
1.034737942
1.038443379
1.048537133
1.05356212
1.055656854
1.053825687
1.04763619
1.04029721
1.035031979
1.031024051
1.02885469
1.029201043
1.031366704
1.032658525
1.032815352
0.5223782703
0.5311642756
0.5402151284
0.5541626702
0.5856407805
0.6739341053
0.8260882063
0.9524829614
1.01264882
1.030218055
1.027696051
1.030442223
1.03913695
1.04877478
1.051281842
1.053304848
1.051911982
1.046217826
1.040005952
1.036614094
1.034997706
1.033241139
1.032290521
1.032534792
1.032673762
1.032064014
0.5215770961
0.5295691942
0.5377218571
0.5486200583
0.5744789425
0.6377816089
0.7716720727
0.9255430262
1.003677724
1.024306045
1.025178334
1.032023183
1.039674623
1.046452925
1.04885176
1.051497925
1.050940787
1.04651069
1.042255789
1.040683818
1.039721186
1.038866264
1.038331603
1.038270543
1.037657268
1.036194009
0.5208012649
0.528067664
0.5360157107
0.5446554824
0.5647612323
0.617119011
0.7262689327
0.8813579529
0.9863146678
1.016945571
1.027659955
1.034304966
1.038710101
1.043322185
1.047562697
1.051593058
1.052940319
1.050333332
1.046149552
1.04237035
1.038792823
1.037868092
1.039312556
1.041466798
1.042324465
1.041826301
0.5198467895
0.5263479745
0.5344091618
0.5419121758
0.555456433
0.5968768446
0.6933100268
0.8372090346
0.959737163
1.014375241
1.028838209
1.034648209
1.038136672
1.042918182
1.049320867
1.053348649
1.055460637
1.053584052
1.047221974
1.041322532
1.036295401
1.035748712
1.037249867
1.039535766
1.040871148
1.040888831
0.5190767058
0.524508468
0.5323433946
0.5391553791
0.5494697538
0.5769760798
0.657474192
0.7988783207
0.9291308194
1.006392567
1.028269048
1.034546128
1.03602408
1.042063926
1.050336275
1.054148321
1.055621137
1.053436329
1.045933476
1.039453359
1.035115347
1.033325483
1.033518873
1.036200734
1.038193302
1.038641686
1.038181562
0.5184298499
0.5228757652
0.5304224378
0.5364578322
0.5444411059
0.5656341154
0.6225417102
0.7493045418
0.897763278
0.9952988757
1.026599708
1.03038248
1.031465993
1.041315885
1.050192775
1.053691728
1.054485195
1.051623496
1.044136246
1.037904952
1.03356726
1.031719221
1.031848618
1.033895204
1.03587895
1.036526738
1.036693402
0.5180410502
0.5214590811
0.5289863963
0.5345959997
0.5406073936
0.55815555
0.6008396534
0.6989023962
0.856222732
0.9786036008
1.019717033
1.026610458
1.031225149
1.041408476
1.048611769
1.052002722
1.052912389
1.049966996
1.043177626
1.037865058
1.034307141
1.03230576
1.0312829
1.032680833
1.034998218
1.035870108
1.036132915
0.5178003794
0.5202316406
0.5278604538
0.5336108318
0.5382734612
0.550886868
0.5861218965
0.6680639519
0.8112290781
0.9543970747
1.010975569
1.026685829
1.032456234
1.040480348
1.046358595
1.050135304
1.051899513
1.050257758
1.04485886
1.040670865
1.037464397
1.035273265
1.033593841
1.034235463
1.037061706
1.038272783
1.038930772
0.5176869703
0.5191169326
0.5267620184
0.5327157589
0.5365180232
0.5456076467
0.5713527553
0.642307468
0.7779461239
0.9265272542
1.001973111
1.026657581
1.033007831
1.039202799
1.04551894
1.050742822
1.053904847
1.05362684
1.049080183
1.043780737
1.039388346
1.037072818
1.036237038
1.037473968
1.040435911
1.041649029
1.041833537
0.5175712775
0.5181459118
0.5256080353
0.5316334879
0.5352018204
0.5417940859
0.5602618859
0.6108681342
0.7385608855
0.8916706378
0.987205073
1.022810514
1.033359406
1.037456148
1.044938688
1.051940944
1.055653913
1.05555854
1.050415783
1.043185078
1.037877048
1.035792169
1.035733536
1.037725082
1.040097508
1.040882585
1.040276233
0.5173300731
0.517280614
0.5245220351
0.5306627565
0.5340963743
0.538472297
0.553382896
0.5882730875
0.6842879318
0.8438727358
0.9654058216
1.01963203
1.029228653
1.034286519
1.043980101
1.051383283
1.054703018
1.054147333
1.048690634
1.0408068
1.035414955
1.033456985
1.033335134
1.035000976
1.036865066
1.037532912
1.036903418
0.5177905664
0.5164438129
0.5233544525
0.5295990804
0.5331148663
0.5362967464
0.5478768766
0.5749266921
0.6447973073
0.7841420809
0.9335447607
1.012205714
1.023711136
1.031678102
1.042285819
1.049813884
1.052798694
1.052023497
1.046610176
1.03919279
1.034428958
1.032391255
1.031597946
1.032418816
1.033812211
1.034713321
1.034647613
1.034972701
0.5180831401
0.5158968005
0.5221077857
0.5286156159
0.5324260187
0.5347628975
0.543008811
0.5640328883
0.6235539673
0.7420761492
0.8960577316
0.9993579432
1.022480656
1.032625244
1.040927761
1.047845285
1.0513339
1.051220453
1.046554875
1.040623911
1.036725572
1.0343194
1.032578903
1.032523457
1.033583771
1.035199511
1.036015854
1.03741359
0.5185818813
0.5154532542
0.5209046532
0.527528065
0.5316809625
0.5334089012
0.5395607124
0.554114162
0.6008359229
0.7157020648
0.8664935901
0.9842807254
1.025268539
1.034422964
1.041449258
1.047398157
1.051730025
1.052872185
1.049652338
1.044644492
1.040041265
1.036854452
1.035014969
1.034974198
1.036417039
1.038621733
1.039630322
1.040783995
0.5190899593
0.5152028105
0.5197222709
0.5264841503
0.5308394493
0.5323846793
0.5369594517
0.5480215366
0.5776018199
0.6725002813
0.8367015791
0.9685972714
1.022000636
1.035350429
1.040508205
1.047249551
1.053110845
1.055226373
1.052923088
1.046954347
1.040741
1.037204954
1.035875132
1.036482538
1.038271046
1.040174654
1.040588511
1.041251368
0.5198273039
0.5151355163
0.5186025951
0.5255337755
0.5301363761
0.5316874825
0.5351931199
0.5439905768
0.5646529656
0.6276703208
0.7767124843
0.9373179337
1.013000592
1.033726877
1.038658935
1.047418038
1.054056844
1.0557391
1.053238341
1.046021194
1.03880558
1.034998648
1.033879267
1.034935547
1.036820068
1.038528153
1.03881793
1.039697589
0.5206615778
0.5152516355
0.517524932
0.5248026618
0.5296894453
0.5313761302
0.5338646862
0.54037576
0.5568163164
0.6032693829
0.7138342979
0.880947934
0.9949689916
1.025835119
1.036298418
1.046823868
1.052753532
1.053942018
1.051395636
1.043692794
1.036149092
1.032267799
1.031336704
1.032704077
1.034733916
1.036564104
1.036805205
1.037825113
0.5216117703
0.515843608
0.5163776379
0.5240577233
0.5293600101
0.5312946716
0.5328846095
0.5372768666
0.5486064668
0.5867404214
0.6810583003
0.8329859846
0.9664721231
1.017844839
1.03495306
1.044946443
1.050664914
1.05197427
1.049280582
1.041974023
1.034750987
1.031318963
1.03086627
1.032401904
1.034530026
1.036262784
1.036145671
1.036598723
1.03817398
0.5225247887
0.5163276255
0.5156119336
0.5230586519
0.5287429503
0.531005644
0.5321372109
0.5352998743
0.5429221711
0.568435561
0.6533866317
0.8044483837
0.9463074226
1.016223418
1.035829807
1.043335306
1.049063304
1.05179777
1.04930777
1.04307395
1.036892307
1.03460683
1.03398383
1.034719674
1.036093926
1.036958992
1.03617147
1.03586425
1.036636854
0.5235630424
0.5170473811
0.5153116573
0.5219361884
0.5278407968
0.5303119578
0.5314910774
0.534142601
0.5399508398
0.5565327471
0.6139605896
0.7615161947
0.9290148464
1.011836126
1.035063456
1.042549131
1.048710419
1.053624235
1.052439094
1.047663732
1.042681156
1.039554034
1.037230136
1.036852405
1.036949547
1.036645552
1.035624948
1.035104009
1.03579
0.5245967526
0.5177083287
0.5152914443
0.5208467594
0.5269662448
0.5296232228
0.5311705649
0.5332609906
0.5376080334
0.5497187546
0.5886466455
0.6982245554
0.8796742174
0.9968991283
1.031591619
1.043821922
1.050769209
1.055848948
1.055438832
1.050568354
1.044380133
1.038581975
1.034756076
1.034423333
1.034861781
1.035268414
1.034888143
1.035538851
1.037858535
0.52563165
0.5183420026
0.5154395394
0.5199222191
0.5263198539
0.5293081578
0.5311085539
0.5324845107
0.5356849953
0.5437379711
0.5740492549
0.658841556
0.8110302858
0.9590266126
1.022097672
1.039288527
1.051064684
1.055052779
1.054653212
1.049472897
1.042506021
1.035997094
1.031294188
1.030992266
1.032785154
1.034958961
1.036364583
1.039186924
1.043660678
0.5266648413
0.5190788101
0.5157437256
0.518997899
0.5257348666
0.5291334042
0.5310720207
0.5318456956
0.5338153473
0.5385977608
0.5591472483
0.633412088
0.7727849772
0.9233914466
1.009430423
1.036810307
1.049847844
1.053766219
1.053426118
1.047794916
1.039905176
1.031904405
1.029255281
1.029932345
1.032713884
1.036865943
1.040066994
1.042304145
1.045523041
0.5277006218
0.5198143214
0.5163144045
0.5181986456
0.5251683543
0.5288478455
0.5308932598
0.5311827036
0.5325475546
0.5356455918
0.5490509632
0.6010698174
0.7432546583
0.9063596903
1.00367912
1.037601353
1.048020327
1.051770319
1.051057415
1.045373177
1.037256582
1.030929069
1.029823092
1.031231891
1.034754933
1.039459159
1.040722586
1.040890213
1.04306985
0.5287762446
0.5205846869
0.5172645221
0.5172971004
0.5246349222
0.5282526089
0.5304435554
0.5307748855
0.5318386786
0.5345017874
0.5436536981
0.5763771795
0.6891655662
0.8832198472
1.003825324
1.037486908
1.046851326
1.051509308
1.050905903
1.045467091
1.038228816
1.033274745
1.032570937
1.033620053
1.036353837
1.038913416
1.039183784
1.038757287
1.040008954
1.041271974
0.5299707109
0.5212443927
0.5180541367
0.5166750167
0.5239684458
0.5275880728
0.5298311209
0.5305884445
0.5313240678
0.5328415825
0.5381864347
0.5630624457
0.6417507616
0.8173613321
0.9804569162
1.033893136
1.044954706
1.051921638
1.052702206
1.047541072
1.041963499
1.037624635
1.034624556
1.03356272
1.03508351
1.03755988
1.037490931
1.036046188
1.037717
1.040295887
0.5312453462
0.5219989057
0.5189734292
0.5165550853
0.5232814186
0.5270158659
0.5294532033
0.5306430435
0.5317427376
0.532336864
0.534763166
0.5512230269
0.6143506393
0.7515359549
0.9195487134
1.011035302
1.037926491
1.049663434
1.052723944
1.050741499
1.045336196
1.039071897
1.034340723
1.032161462
1.032573037
1.035794514
1.035976744
1.035778968
1.037857665
1.041796287
0.532602244
0.522716845
0.5197130077
0.5167097017
0.5227516359
0.5265688353
0.5292660904
0.5307500583
0.5316493696
0.5315922613
0.5329767601
0.542985933
0.5886027957
0.7139239235
0.8711192539
0.9845719508
1.033628276
1.050614452
1.053779979
1.052067693
1.045922035
1.038987783
1.032962117
1.030193224
1.030720827
1.035010672
1.03636316
1.037425878
1.040230682
1.0451523
0.5339464534
0.5235225624
0.5204556523
0.5170648714
0.5223715704
0.5261760303
0.5291103341
0.5307118021
0.531391616
0.530816972
0.5314767308
0.5383260484
0.5669412486
0.6733243046
0.8486155198
0.9722333999
1.033880265
1.052455095
1.055252589
1.052969935
1.046061418
1.037382189
1.030800507
1.029757501
1.030968544
1.035677814
1.038594004
1.040072305
1.042366626
1.046804639
0.5352923865
0.5243932206
0.5211728859
0.5174142198
0.5221458801
0.5258055974
0.5288627081
0.5305715457
0.5310094917
0.5303518273
0.5308582075
0.5345269843
0.5548850596
0.6292609844
0.8109459131
0.9736469495
1.039525398
1.053990055
1.055915323
1.052870182
1.04530018
1.036107101
1.03115608
1.03056485
1.032497269
1.037909395
1.040338932
1.040477379
1.042025901
1.046208041
0.5366198503
0.5253023082
0.5218740848
0.5179302558
0.5221224623
0.5254623122
0.5283799081
0.5301902483
0.5306309664
0.5301841062
0.5298911635
0.5321029016
0.5452707849
0.601841502
0.7465890352
0.948403698
1.035807882
1.053016064
1.056280092
1.052532374
1.045521788
1.037361431
1.032871015
1.032337529
1.032582697
1.037565081
1.040090645
1.039840768
1.040408353
1.044479661
0.5379890832
0.526277984
0.5226742616
0.5185935642
0.522648552
0.5252250071
0.5278534339
0.5298093275
0.5303065023
0.5304543436
0.5296827753
0.5307662806
0.5384593864
0.578860488
0.6993585052
0.8822056357
1.008066642
1.04606978
1.054760774
1.05178791
1.046662227
1.039404174
1.034632593
1.032510773
1.031860037
1.036125213
1.03837619
1.037734868
1.037896494
1.042743973
1.044460387
0.5393870982
0.5272992799
0.5234442141
0.518945788
0.5221704475
0.525106847
0.5274858781
0.5296073215
0.530212037
0.5306879462
0.5294419717
0.5294776038
0.5350618037
0.5600980701
0.6600438235
0.8327632585
0.9740011171
1.032841707
1.051307276
1.051596309
1.047761742
1.040782354
1.03505009
1.031767334
1.029682944
1.033437679
1.036482212
1.036846287
1.037839667
1.043262794
1.044916801
0.5408346937
0.5284140996
0.5242786271
0.519682324
0.5222609191
0.5252199333
0.5272853971
0.5294854963
0.5305251506
0.5305763899
0.5293428515
0.5287507923
0.532189301
0.5494170478
0.619290007
0.793773007
0.9492008908
1.026911075
1.050337947
1.052061363
1.048541816
1.041447763
1.033547864
1.029335648
1.027978659
1.032604006
1.036602313
1.037521879
1.038479147
1.044527935
1.04633582
0.5422697406
0.5296682782
0.5251772497
0.5203591836
0.5227269323
0.525667714
0.527233685
0.5295770402
0.5308610795
0.5303646953
0.5293544769
0.5283016801
0.530092585
0.5415197139
0.5917893356
0.7369524076
0.9298899018
1.026318776
1.052175798
1.052424042
1.04791543
1.039719344
1.030955753
1.028074173
1.028448284
1.033668779
1.037448591
1.038991786
1.040036054
1.044617531
1.047315731
0.5436619167
0.5311536
0.5259574642
0.5209011797
0.5220581069
0.5252929864
0.5272053523
0.5296780474
0.5308905883
0.5301546572
0.5295003832
0.5277373473
0.5291714671
0.5356889055
0.5724707292
0.6853189114
0.8865612884
1.019814288
1.054094695
1.052604463
1.046872361
1.037283822
1.030640877
1.028683413
1.029781749
1.034551877
1.038467342
1.039741515
1.040249975
1.044351943
1.047104862
0.5449449191
0.5328936804
0.5268175787
0.5217667363
0.522068293
0.525556884
0.5272745853
0.5295516252
0.5306738538
0.5300074277
0.5296367615
0.527548354
0.5280762392
0.5329234916
0.5559021186
0.6510979564
0.8284539384
0.9964349703
1.049902714
1.052425792
1.046512913
1.037874596
1.031864814
1.029900224
1.030564325
1.033956296
1.038521552
1.039718901
1.039232787
1.042469002
1.045608915
0.5461042997
0.5348508373
0.5276384518
0.522324591
0.5222974084
0.5262148058
0.5277704209
0.5292878607
0.5303824122
0.5301116656
0.5294630879
0.5272982607
0.5270103212
0.5307321193
0.5462497331
0.6144794095
0.787185039
0.9552577701
1.033209361
1.050094161
1.047158107
1.040436949
1.033208107
1.030502674
1.02983611
1.032093522
1.036826096
1.03798149
1.037452675
1.040677843
1.044566927
0.547111059
0.53690968
0.528534039
0.5232299499
0.5213004622
0.5258150023
0.5274614219
0.5291650985
0.5303914439
0.5306382259
0.5293323325
0.527522023
0.5264877869
0.528449786
0.5395137724
0.5861205377
0.737418228
0.9178026041
1.013220837
1.045693866
1.04779011
1.042521539
1.033854826
1.029595842
1.027678926
1.029696817
1.034734803
1.036494576
1.036941934
1.040614077
1.044974917
0.5479875399
0.5390036453
0.529442317
0.5242697331
0.5212699767
0.5258529701
0.5276447924
0.5292143711
0.5309798393
0.5310550239
0.5292624662
0.5279977353
0.5260690698
0.5275615103
0.5341396234
0.5683112592
0.680895981
0.8818254114
1.001196373
1.043987449
1.047661203
1.043539251
1.033373101
1.02801726
1.026404377
1.029400181
1.035127581
1.037246177
1.037938977
1.041314481
1.045830684
1.045648427
0.5487852579
0.5410668894
0.5303689372
0.5251591206
0.5213535747
0.5261994285
0.528318706
0.5294903402
0.5315379292
0.5311368243
0.5296719495
0.5286075956
0.5256596095
0.5268610309
0.5312943203
0.5537160871
0.6431119241
0.8290359586
0.9959142459
1.046854337
1.047792926
1.042669181
1.032305824
1.027670837
1.02692093
1.030813226
1.036544724
1.038787174
1.039299411
1.041761688
1.046506045
1.04613701
0.5495566421
0.5430820385
0.5314229113
0.5261213781
0.5215785074
0.5256172144
0.5281306528
0.529608111
0.5316320156
0.5311131351
0.5301635941
0.5289777306
0.5251473346
0.5257226729
0.5294174016
0.5440992655
0.6130738801
0.7771096299
0.9727717703
1.044852627
1.047965267
1.041751695
1.032286439
1.028905137
1.028788133
1.032231675
1.037340803
1.039569271
1.03987876
1.041180606
1.0460342
1.046253208
0.5501979819
0.5450173672
0.5326090151
0.527081004
0.5219476081
0.5255089971
0.5283519498
0.5296078431
0.5313960059
0.5313267564
0.5306105965
0.5292239393
0.5247916049
0.5248687316
0.5275793459
0.5379409179
0.5851261054
0.7367766734
0.9228065288
1.032327979
1.048335006
1.042129748
1.0340362
1.030461277
1.03007421
1.032565932
1.036991599
1.038839117
1.039055979
1.039691895
1.044979259
1.046327429
0.5505877322
0.5468644259
0.5339742291
0.5280666843
0.5225389788
0.5257803891
0.5288884991
0.5295508495
0.5312573913
0.5320917385
0.5308678644
0.5294360275
0.5249012251
0.5241985825
0.526459546
0.5330697994
0.5670211949
0.6863343597
0.8805550285
1.006372416
1.045708672
1.044428736
1.036164519
1.031096154
1.029854375
1.031131841
1.035444104
1.037184712
1.037639451
1.039095261
1.045505516
1.047604694
0.5507564947
0.5485045279
0.5354921997
0.5290889699
0.5231549588
0.5250625775
0.5285276972
0.5293580276
0.5314643672
0.532802583
0.5310352194
0.5298129084
0.5253334383
0.5236489847
0.5255460141
0.5302413117
0.5529799128
0.6428695706
0.8364328541
0.9841857521
1.039437223
1.046001665
1.036912858
1.030496285
1.028081761
1.028873725
1.034240914
1.036800839
1.037871984
1.040096847
1.046978938
1.049159724
0.5508798638
0.5498958905
0.5371495862
0.5301334497
0.5237898847
0.5249712514
0.5287361724
0.5294878361
0.5320813224
0.5329948482
0.531311132
0.5306577095
0.5263304236
0.5232601675
0.5245840307
0.5283139265
0.5435140545
0.6125984956
0.7771968213
0.9650583798
1.036153886
1.046345961
1.036383499
1.028858521
1.026411594
1.027874382
1.03474742
1.037795238
1.039113464
1.041172325
1.048021983
1.04990296
0.5508696901
0.5509382952
0.538867523
0.5312959168
0.5246322116
0.5252910545
0.5293035094
0.5299793259
0.5325555557
0.5329340676
0.5319343352
0.5313954803
0.5270038798
0.5229190568
0.5237298925
0.5267085322
0.5374611159
0.5867704231
0.7295104327
0.9266999795
1.03343952
1.042459161
1.035819145
1.027757196
1.025957357
1.028219054
1.035373703
1.03861664
1.040012073
1.041571665
1.047959877
1.049562228
1.047131792
0.550961827
0.5517552763
0.5405742123
0.5324764532
0.5254332315
0.5246005908
0.5291433933
0.530459541
0.5325545114
0.5329297351
0.5326704249
0.5318317833
0.5275311714
0.5231266741
0.5230008715
0.5255201429
0.5328089759
0.5682428323
0.6899668389
0.877445648
1.0176335
1.039741983
1.035498232
1.027768325
1.026735223
1.028901756
1.035337709
1.038570042
1.04011421
1.041111064
1.046801457
1.047730415
1.045761542
0.5511210785
0.5524606708
0.5421903602
0.5336368582
0.526376627
0.5245409089
0.5291765884
0.5305108505
0.5322302215
0.5332595815
0.5331213851
0.5321402755
0.5281155917
0.5233163292
0.5223958004
0.5244927046
0.5297624749
0.5549369108
0.6469724548
0.8416174035
0.9912663897
1.039558101
1.038321633
1.028855433
1.027702946
1.029178833
1.034489632
1.037463509
1.03914414
1.03968264
1.045432176
1.04655666
1.044597139
0.551094664
0.5531389794
0.5438794109
0.5347146376
0.5273474304
0.5248378542
0.5292502897
0.5301435933
0.5323140811
0.5340169377
0.5333653789
0.5325023761
0.529094776
0.5238243092
0.5217994969
0.5235663438
0.5276497962
0.5447843868
0.6153882768
0.7910160439
0.9690920143
1.039972542
1.039563791
1.029696976
1.027940895
1.028026911
1.032901329
1.036187128
1.038172764
1.039450511
1.045484341
1.046919796
1.045015376
0.5508386931
0.5539205841
0.5456150344
0.535726715
0.5282770195
0.5241581235
0.5289355429
0.5301644678
0.5330035263
0.5345005775
0.5335869564
0.5331443399
0.5300994442
0.5244891561
0.5214748536
0.522837062
0.5258778957
0.5385060532
0.5902674107
0.7292179519
0.9339323215
1.031259153
1.039915824
1.029499653
1.026561354
1.026292693
1.03221684
1.036389387
1.038592523
1.04038117
1.046028552
1.047954093
1.046151204
0.550464447
0.5545162753
0.5474512278
0.5366160137
0.529292143
0.5240645024
0.5288145027
0.530580714
0.5337125349
0.5345741762
0.5340210227
0.5339212027
0.5308585789
0.5252682684
0.5212274875
0.5221217459
0.5247258758
0.5336580893
0.5708974405
0.6877860801
0.8760409977
1.010209897
1.03561805
1.028200714
1.024701505
1.025162955
1.032751377
1.037614179
1.03971376
1.041395644
1.046450729
1.04864516
1.04717619
0.5499113372
0.5549261773
0.5493091001
0.5372466849
0.5301620614
0.5241402273
0.5289652208
0.5309115635
0.5337953435
0.5345497341
0.5347012812
0.5344157241
0.5314851218
0.5264058219
0.5216253796
0.5215454281
0.5237685171
0.5303264326
0.5581999186
0.6538599395
0.8332398287
0.9899316661
1.031737449
1.027493083
1.024209575
1.02534134
1.033642735
1.038466435
1.040524094
1.041721809
1.046056076
1.048541009
1.047718922
0.5493376369
0.555179956
0.5510416869
0.53945497
0.5310383444
0.5243134281
0.5289466207
0.5307186628
0.5334774529
0.5348449222
0.5351705646
0.5347043333
0.5321820967
0.5275393303
0.5221027659
0.5210192784
0.5228802683
0.5280898586
0.5473867442
0.6191052597
0.8016870693
0.9751042271
1.031366646
1.02684491
1.024764824
1.026146363
1.034132505
1.038323404
1.040240434
1.040810385
1.045047375
1.048011872
1.047548754
0.5478404785
0.5551364857
0.5524149174
0.5408331304
0.5323228321
0.5247022059
0.5286389314
0.5303510519
0.5335302584
0.535641546
0.5353977954
0.5349782564
0.5329842305
0.5283168397
0.52259384
0.5205914324
0.5221267286
0.5261996557
0.5406353149
0.5934106483
0.7448067798
0.9498485637
1.034207619
1.028626487
1.025792285
1.026773326
1.033555703
1.036830889
1.038477769
1.038894003
1.044400018
1.047829416
1.047258556
1.04135514
0.5464728128
0.5549357066
0.5536365238
0.542336512
0.5333579187
0.5250659486
0.5283255573
0.5302835587
0.5339605806
0.5361105542
0.5356668526
0.5354845706
0.5337653927
0.5289598223
0.523361094
0.5202887597
0.5215011237
0.5248391694
0.5360895853
0.5736506532
0.6911733216
0.9011824178
1.025090049
1.029619414
1.026181414
1.026411772
1.031684197
1.035049862
1.036840016
1.038472485
1.044710931
1.04800787
1.047320894
1.041217209
0.545144551
0.5543761367
0.5547496834
0.5439317091
0.5344898216
0.5255946746
0.5281961699
0.5304285398
0.5342634929
0.5362108127
0.5363212622
0.5362004696
0.5343813397
0.5297739797
0.5243921583
0.5201035906
0.5209528884
0.5236816856
0.5324078125
0.5604165883
0.6570596092
0.8399016252
0.9949406797
1.029128887
1.024669921
1.024662862
1.029777019
1.035063296
1.037192159
1.039168691
1.045346007
1.048262138
1.047723676
1.041482924
0.5439372108
0.5535737455
0.5557399586
0.5455438912
0.5357144268
0.5262902425
0.5282552797
0.5304060938
0.5341797727
0.5364543328
0.5371023705
0.5367070105
0.5349624456
0.530772916
0.5255300656
0.5203364184
0.5206302717
0.5227248151
0.5299390438
0.5504480661
0.6241469061
0.7958046721
0.9686860397
1.022082681
1.020342085
1.021822691
1.029078393
0.5428099318
0.5525581429
)
;

boundaryField
{
    inlet
    {
        type            fixedValue;
        value           nonuniform 0();
    }
    outlet
    {
        type            zeroGradient;
    }
    bottom
    {
        type            slip;
    }
    top
    {
        type            slip;
    }
    obstacle
    {
        type            zeroGradient;
    }
    defaultFaces
    {
        type            empty;
    }
    procBoundary21to15
    {
        type            processor;
        value           nonuniform List<scalar> 
23
(
1.017125581
1.018632292
1.025541605
1.03175451
1.033158077
1.038099853
1.045409021
1.049909049
1.051988361
1.048607809
1.041496885
1.034196671
1.030439532
1.029223785
1.028634925
1.029487208
1.031099872
0.7043353256
0.986930107
1.018220819
1.020628454
1.016976841
1.016976841
)
;
    }
    procBoundary21to22
    {
        type            processor;
        value           nonuniform List<scalar> 
70
(
1.033318282
1.035100747
1.037948251
1.039888108
1.036834566
1.031796113
1.031796113
1.034570206
1.040204564
1.036734472
1.033517726
1.034254382
1.034392932
1.034392932
1.037395802
1.041352277
1.036747284
1.031674027
1.035252317
1.042440568
1.039944791
1.039944791
1.038065893
1.033853537
1.033249013
1.037902693
1.042407393
1.04080466
1.04080466
1.038103418
1.036910696
1.037950808
1.041624343
1.042145519
1.039576398
1.036488653
1.036488653
1.036692032
1.039886067
1.042714535
1.042908036
1.041916551
1.040220982
1.040220982
1.039024822
1.037032562
1.036655031
1.040738322
1.047769911
1.047903647
1.045049733
1.045049733
1.040229164
1.039791584
1.042278953
1.046251579
1.04760443
1.047209606
1.045786834
1.045786834
1.043192418
1.043955177
1.045968896
1.046929664
1.046865375
1.045481617
1.044625259
1.044981453
1.044981453
1.039927919
)
;
    }
    procBoundary21to27
    {
        type            processor;
        value           nonuniform List<scalar> 
36