/*--------------------------------*- C++ -*----------------------------------*\
  =========                 |
  \\      /  F ield         | OpenFOAM: The Open Source CFD Toolbox
   \\    /   O peration     | Website:  https://openfoam.org
    \\  /    A nd           | Version:  7
     \\/     M anipulation  |
\*---------------------------------------------------------------------------*/
FoamFile
{
    version     2.0;
    format      ascii;
    class       volScalarField;
    location    "1.9";
    object      rho;
}
// * * * * * * * * * * * * * * * * * * * * * * * * * * * * * * * * * * * * * //

dimensions      [1 -3 0 0 0 0 0];

internalField   nonuniform List<scalar> 
22
(
1.275879381
1.28363782
1.267405432
1.277615526
1.212739849
1.256826917
1.329787873
1.273927268
1.339026455
1.353010003
1.308867467
1.370558439
1.376699432
1.347592535
1.34181887
1.370122839
1.373019011
1.340811357
1.353757938
1.36533054
1.363964975
1.358659836
)
;

boundaryField
{
    inlet
    {
        type            calculated;
        value           nonuniform 0();
    }
    outlet
    {
        type            calculated;
        value           nonuniform 0();
    }
    bottom
    {
        type            calculated;
        value           nonuniform 0();
    }
    top
    {
        type            calculated;
        value           nonuniform 0();
    }
    obstacle
    {
        type            calculated;
        value           nonuniform 0();
    }
    defaultFaces
    {
        type            empty;
    }
    procBoundary10to4
    {
        type            processor;
        value           nonuniform List<scalar> 4(1.342443531 1.402202138 1.303065748 1.303065748);
    }
    procBoundary10to5
    {
        type            processor;
        value           nonuniform List<scalar> 2(1.286391988 1.314229956);
    }
    procBoundary10to9
    {
        type            processor;
        value           nonuniform List<scalar> 5(1.360751737 1.196666721 1.187727632 1.187727632 1.154187562);
    }
    procBoundary10to11
    {
        type            processor;
        value           nonuniform List<scalar> 6(1.362932889 1.362354767 1.356715359 1.349260911 1.332649441 1.332649441);
    }
    procBoundary10to15
    {
        type            processor;
        value           nonuniform List<scalar> 3(1.209155967 1.245559793 1.286582811);
    }
    procBoundary10to16
    {
        type            processor;
        value           nonuniform List<scalar> 4(1.359552837 1.358225142 1.359552837 1.36024411);
    }
}


// ************************************************************************* //
