/*--------------------------------*- C++ -*----------------------------------*\
  =========                 |
  \\      /  F ield         | OpenFOAM: The Open Source CFD Toolbox
   \\    /   O peration     | Website:  https://openfoam.org
    \\  /    A nd           | Version:  7
     \\/     M anipulation  |
\*---------------------------------------------------------------------------*/
FoamFile
{
    version     2.0;
    format      ascii;
    class       volVectorField;
    location    "1.9";
    object      U;
}
// * * * * * * * * * * * * * * * * * * * * * * * * * * * * * * * * * * * * * //

dimensions      [0 1 -1 0 0 0 0];

internalField   nonuniform List<vector> 
22
(
(3.011771092 0.06215021491 0)
(3.006295561 0.1303579434 0)
(3.017700717 0.1084676726 0)
(3.010552162 0.08114352012 0)
(3.009554278 0.09925202312 0)
(3.008590921 0.0817231047 0)
(2.99846191 0.04329508753 0)
(3.024332209 0.07326401653 0)
(3.001207031 -0.01150879002 0)
(2.999735478 -0.01885833547 0)
(3.049386778 0.04916787695 0)
(3.029383538 0.0009218625159 0)
(3.008030675 -0.002701118351 0)
(3.00301223 -0.01565208245 0)
(3.042382239 0.02518775805 0)
(3.029833853 -0.002900503039 0)
(3.014381257 -0.0006550440076 0)
(3.008546362 -0.01162400871 0)
(3.028553993 0.01363711696 0)
(3.026984248 -0.001708575196 0)
(3.020445462 0.003369765721 0)
(3.018951178 0.003975723699 0)
)
;

boundaryField
{
    inlet
    {
        type            fixedValue;
        value           nonuniform 0();
    }
    outlet
    {
        type            inletOutlet;
        inletValue      nonuniform 0();
        value           nonuniform 0();
    }
    bottom
    {
        type            slip;
    }
    top
    {
        type            slip;
    }
    obstacle
    {
        type            slip;
    }
    defaultFaces
    {
        type            empty;
    }
    procBoundary10to4
    {
        type            processor;
        value           nonuniform List<vector> 4((3.009771448 0.03571272653 0) (2.989782981 -0.004144346679 0) (2.994243159 0.02418652085 0) (2.994243159 0.02418652085 0));
    }
    procBoundary10to5
    {
        type            processor;
        value           nonuniform List<vector> 2((3.009602875 0.06595098878 0) (3.002042912 0.04365979361 0));
    }
    procBoundary10to9
    {
        type            processor;
        value           nonuniform List<vector> 5((2.989405538 0.006586717759 0) (3.01011026 0.08892407569 0) (3.040798477 0.148912549 0) (3.040798477 0.148912549 0) (3.070250682 0.2104366916 0));
    }
    procBoundary10to11
    {
        type            processor;
        value           nonuniform List<vector> 6((2.998756939 0.01824978907 0) (2.996812028 -0.005180986049 0) (2.999264148 -0.002171894532 0) (3.004314211 0.0004069997362 0) (3.013965242 -0.007565953586 0) (3.013965242 -0.007565953586 0));
    }
    procBoundary10to15
    {
        type            processor;
        value           nonuniform List<vector> 3((3.07214644 0.1649736281 0) (3.063145608 0.1293012297 0) (3.044305188 0.09457836462 0));
    }
    procBoundary10to16
    {
        type            processor;
        value           nonuniform List<vector> 4((3.016296202 0.0005484413064 0) (3.013711216 0.002571118063 0) (3.016296202 0.0005484413064 0) (3.000119257 -0.002137495347 0));
    }
}


// ************************************************************************* //
