/*--------------------------------*- C++ -*----------------------------------*\
  =========                 |
  \\      /  F ield         | OpenFOAM: The Open Source CFD Toolbox
   \\    /   O peration     | Website:  https://openfoam.org
    \\  /    A nd           | Version:  7
     \\/     M anipulation  |
\*---------------------------------------------------------------------------*/
FoamFile
{
    version     2.0;
    format      ascii;
    class       volScalarField;
    location    "2";
    object      p;
}
// * * * * * * * * * * * * * * * * * * * * * * * * * * * * * * * * * * * * * //

dimensions      [1 -1 -2 0 0 0 0];

internalField   nonuniform List<scalar> 
2222
(
1
1
1
1
1
1
1
1
1
1
1
1
1
1
1
1
1
1
1
1
1
1
1
1
1
1
1
1
1
1
1
1
1
1
1
1
1
1
1
1
1
1
1
1
1
1
1
1
1
1
1
1
1
1
1
1
1
1
1
1
1
1
1
1
1
1
1
1
1
1
1
1
1
1
1
1
1
1
1
1
1
1
1
1
1
1
1
1
1
1
1
1
1
1
1
1
1
1
1
1
1
1
1
1
1
1
1
1
1
1
1
1
1
1
1
1
1
1
1
1
1
1
1
1
1
1
1
1
1
1
1
1
1
1
1
1
1
1
1
1
1
1
1
1
1
1
1
1
1
1
1
1
1
1
1
1
1
1
1
1
1
1
1
1
1
1
1
1
1
1
1
1
1
1
1
1
1
1
1
1
1
1
1
1
1
1
1
1
1
1
1
1
1
1
1
1
1
1
1
1
1
1
1
1
1
1
1
1
1
1
1
1
1
1
1
1
1
1
1
1
1
1
1
1
1
1
1
1
1
1
1
1
1
1
1
1
1
1
1
1
1
1
1
1
1
1
1
1
1
1
1
1
1
1
1
0.9999999999
1
1
1
1
1
1
1
1
1
1
1
1
1
1
1
1
1
1
1
1
1
1
1
1
1
1
1
1
1
1
1
1
1
1
1
1
1
1
1
1
1
1
1
1
1
1
1
1
1
1
0.9999999999
0.9999999985
0.9999999986
0.999999981
0.9999999714
1.000000077
0.9999998429
1.000032432
1.000870658
1
1
1
1
1
1
1
1
1
1
1
1
1
1
1
1
1
1
1
1
1
1
1
1
1
1
1
1
1
1
1
1
1
1
1
1
1
1
1
1
1
1
1
1
1
1
1
0.9999999999
0.9999999994
0.9999999996
0.9999999866
0.9999999838
1.000000016
0.9999996757
1.000008087
1.000378001
1.003339868
1.025849472
1.14822759
1.400664054
1.942599234
2.509583297
3.001611887
3.477916319
1
1
1
1
1
1
1
1
1
1
1
1
1
1
1
1
1
1
1
1
1
1
1
1
1
1
1
1
1
1
1
1
1
1
1
1
1
1
1
1
1
1
1
1
0.9999999998
0.9999999998
0.999999999
0.9999999968
0.9999999921
1.000000003
0.999999809
1.000001567
1.000165254
1.001853647
1.01393613
1.097510079
1.297890064
1.746620975
2.331291931
2.828434572
3.374629812
3.552054579
3.572118823
3.606830275
3.600917613
3.600232032
3.618259412
1
1
1
1
1
1
1
1
1
1
1
1
1
1
1
1
1
1
1
1
1
1
1
1
1
1
1
1
1
1
1
1
1
1
1
1
1
1
1
1
1
0.9999999999
0.9999999998
0.9999999973
0.9999999974
0.9999999799
0.9999999711
1.000000089
0.999999903
1.000073883
1.001098266
1.008087243
1.064179181
1.228460759
1.588751999
2.170702715
2.672630002
3.248802345
3.518432991
3.545741615
3.583872985
3.588972477
3.595212775
3.621661543
3.644996708
3.664602646
3.680269828
1
1
1
1
1
1
1
1
1
1
1
1
1
1
1
1
1
1
1
1
1
1
1
1
1
1
1
1
1
1
1
1
1
1
1
1
1
1
0.9999999999
0.9999999998
0.9999999977
0.9999999978
0.9999999754
0.9999999616
1.00000008
0.9999995445
1.000035472
1.000690938
1.005156347
1.043304826
1.180295617
1.471978525
2.027874707
2.540638024
3.114229271
3.479866264
3.522205333
3.567837705
3.58026988
3.587445729
3.621060408
3.648825332
3.67200295
3.684706535
3.685960358
3.682173381
3.674708035
1
1
1
1
1
1
1
1
1
1
1
1
1
1
1
1
1
1
1
1
1
1
1
1
1
1
1
1
1
1
1
1
1
1
1
0.9999999999
0.9999999999
0.9999999981
0.9999999982
0.9999999744
0.9999999663
1.000000034
0.9999994457
1.000018634
1.000464779
1.003596009
1.030843775
1.146651356
1.389945334
1.907968069
2.430896526
2.988272116
3.432625789
3.49410558
3.552777249
3.571745517
3.583943999
3.626039735
3.652964667
3.673487162
3.685032654
3.686376059
3.682867411
3.676383892
3.667664889
3.655463479
3.640624106
1
1
1
1
1
1
1
1
1
1
1
1
1
1
1
1
1
1
1
1
1
1
1
1
1
1
1
1
1
1
1
1
0.9999999999
0.9999999999
0.9999999984
0.9999999984
0.9999999746
0.9999999703
1.000000017
0.9999994483
1.000011113
1.00033944
1.002725021
1.023520944
1.123526928
1.334791944
1.814185926
2.342916717
2.8790644
3.383613283
3.465936336
3.537089547
3.564769543
3.580825625
3.629966393
3.657549454
3.677333489
3.686683606
3.686207895
3.681376802
3.674497631
3.665843953
3.653821159
3.642022203
3.636605012
3.63590298
3.636724384
1
1
1
1
1
1
1
1
1
1
1
1
1
1
1
1
1
1
1
1
1
1
1
1
1
1
1
1
1
0.9999999999
0.9999999999
0.9999999985
0.9999999985
0.9999999742
0.9999999723
1.000000011
0.9999994555
1.000007968
1.000275315
1.002266753
1.019505194
1.10876564
1.299154074
1.745890389
2.276206526
2.795662788
3.337776955
3.440889237
3.521385367
3.557496916
3.578754212
3.633727214
3.663149263
3.681505848
3.688211919
3.686778576
3.680828923
3.672883596
3.662769658
3.650344444
3.639665434
3.635841093
3.635671441
3.637834634
3.641914624
3.647789016
3.656847533
1
1
1
1
1
1
1
1
1
1
1
1
1
1
1
1
1
1
1
1
1
1
1
1
1
1
0.9999999999
0.9999999999
0.9999999984
0.9999999984
0.9999999729
0.9999999717
1.00000001
0.9999994334
1.000007162
1.000249619
1.002078544
1.017817769
1.101167288
1.279597977
1.703234019
2.231391786
2.738574942
3.300006605
3.420111868
3.507530943
3.551464639
3.578318529
3.639724853
3.668436184
3.68397437
3.68923111
3.687494302
3.681296789
3.67232854
3.660387378
3.647091375
3.637222022
3.634270154
3.63474015
3.637840993
3.642510207
3.649101812
3.656340235
3.661464865
3.663051949
3.663575167
1
1
1
1
1
1
1
1
1
1
1
1
1
1
1
1
1
1
1
1
1
1
1
0.9999999999
0.9999999999
0.9999999983
0.9999999983
0.9999999712
0.9999999683
1.000000013
0.9999993669
1.000008187
1.000253848
1.002103497
1.017999463
1.099724849
1.274084669
1.686577713
2.209618086
2.706964281
3.273331592
3.402926745
3.498008437
3.548133711
3.580379645
3.645994487
3.672791293
3.685465445
3.689147101
3.686949739
3.680923641
3.671694492
3.65899286
3.645469984
3.635887246
3.633051623
3.633718536
3.637035451
3.642424083
3.649924399
3.65771822
3.662390507
3.663519033
3.66306806
3.661133584
3.658197456
3.653228344
1
1
1
1
1
1
1
1
1
1
1
1
1
1
1
1
1
1
1
1
0.9999999999
0.9999999999
0.9999999985
0.9999999983
0.9999999716
0.999999964
1.000000027
0.9999992462
1.000011828
1.000290002
1.002346318
1.019990193
1.104061561
1.281905367
1.695463252
2.211494423
2.70348091
3.262377825
3.389115851
3.490347149
3.544979221
3.58319648
3.652289145
3.677567488
3.687848964
3.689769952
3.686487373
3.67994361
3.669622413
3.65609532
3.64321349
3.635037204
3.632849192
3.633851827
3.637282121
3.642856861
3.650470092
3.658249333
3.66268784
3.663839285
3.663423773
3.661521704
3.657997494
3.653330238
3.648985236
3.647156087
3.64649475
1
1
1
1
1
1
1
1
1
1
1
1
1
1
1
1
1
0.9999999999
0.9999999997
0.9999999979
0.9999999978
0.9999999797
0.999999964
1.000000071
0.9999990954
1.000020914
1.00037987
1.002951613
1.024550952
1.114636113
1.303219438
1.727458965
2.235485872
2.728154315
3.267725193
3.381263793
3.48829281
3.543786658
3.586408089
3.657395754
3.680311044
3.688922543
3.689955877
3.686639925
3.680481751
3.668928434
3.653683955
3.640581929
3.633323583
3.631838108
3.633512091
3.637712201
3.644071053
3.652097518
3.659499905
3.66298467
3.663699356
3.663062505
3.660993434
3.657518374
3.65313997
3.649152712
3.647187993
3.646758223
3.647105046
3.648152209
3.650803809
1
1
1
1
1
1
1
1
1
1
1
1
1
0.9999999999
0.9999999999
0.9999999996
0.999999999
0.9999999814
0.9999999849
0.9999999516
1.000000169
0.9999990788
1.000040504
1.000549004
1.004137563
1.033128233
1.134340196
1.344293457
1.78691323
2.280867523
2.778674236
3.282027258
3.378227795
3.491634689
3.54505047
3.5921149
3.662104813
3.681609838
3.688514576
3.688985625
3.686003606
3.680249445
3.667831682
3.652008744
3.639706929
3.632891109
3.631312165
3.63300033
3.637390097
3.644391972
3.653075345
3.660613222
3.663814254
3.664281364
3.663287788
3.660672212
3.65658927
3.651926243
3.648328085
3.646965145
3.646878632
3.647565741
3.648975058
3.651225923
3.653831706
3.65567255
3.656737402
1
1
1
1
1
1
1
1
1
1
0.9999999999
0.9999999999
0.9999999987
0.9999999988
0.9999999677
0.9999999792
0.999999967
0.9999999518
0.9999997497
1.000085788
1.000894621
1.006547474
1.047624353
1.163882074
1.407141194
1.874271986
2.351221103
2.86015409
3.303025331
3.384191546
3.498922955
3.54748397
3.598406037
3.665336739
3.683019667
3.688733918
3.68827556
3.685096956
3.679171037
3.665869918
3.650173265
3.639062702
3.632896274
3.631534401
3.633353698
3.637990393
3.645190053
3.653887716
3.660956083
3.663854382
3.664354473
3.663405705
3.660810639
3.65665362
3.65186753
3.648054314
3.64647142
3.646388591
3.647090473
3.64878018
3.651520453
3.654612853
3.656652291
3.657290057
3.657205239
3.656542299
3.654966623
1
1
1
1
1
1
1
0.9999999999
0.9999999998
0.999999998
0.9999999979
0.9999999583
0.9999999562
1.00000002
0.9999991995
1.00000473
1.000187059
1.001586584
1.011459688
1.071570908
1.209848096
1.500738363
1.989536482
2.442987716
2.968432091
3.323807662
3.395747109
3.5042254
3.548748061
3.60734938
3.668673056
3.682106171
3.686331027
3.685650974
3.68339235
3.678064151
3.663962366
3.648560261
3.638639167
3.633185293
3.632207066
3.634087479
3.638713093
3.646052094
3.65479591
3.661369375
3.66387992
3.664282532
3.663236453
3.660517703
3.656190996
3.651525977
3.64814639
3.646915948
3.646864388
3.64765876
3.649383368
3.651960753
3.654630842
3.656346988
3.65708824
3.657186248
3.656829247
3.655970593
3.654498483
3.652846349
3.650882924
1
1
1
0.9999999999
0.9999999999
0.9999999994
0.9999999986
0.9999999819
0.9999999737
0.9999999439
1.000000135
0.9999986389
1.000025996
1.000433908
1.003189673
1.02231316
1.108776851
1.276311794
1.626804652
2.128158084
2.559828858
3.092849934
3.349600644
3.421764321
3.512342414
3.553530207
3.614022518
3.666990121
3.680882018
3.684879619
3.684241717
3.68233007
3.676359645
3.661172233
3.646627632
3.637833418
3.633091669
3.632627788
3.635243434
3.640475103
3.648012241
3.656139575
3.661535218
3.663349243
3.663448899
3.662416749
3.659954505
3.655934121
3.651481469
3.648265844
3.647137394
3.647158491
3.647965828
3.649981335
3.653254175
3.655928452
3.657181466
3.657540028
3.65724328
3.656498224
3.655544571
3.654251639
3.65282296
3.651763154
3.651413544
3.65161526
3.651603009
0.9999999999
0.9999999999
0.9999999986
0.9999999986
0.9999999526
0.9999999648
0.9999999451
0.9999999744
0.9999993595
1.00009367
1.000977237
1.00667329
1.044689883
1.16521146
1.380505948
1.800165922
2.285598352
2.701207767
3.21248257
3.368493459
3.443506392
3.51972807
3.557641691
3.621070219
3.664416682
3.674493728
3.677734429
3.678191647
3.679532247
3.675459628
3.660553162
3.646816895
3.638243409
3.633794171
3.633307187
3.63574695
3.641365704
3.650025189
3.658718584
3.663106764
3.6641212
3.663386556
3.661031189
3.657634812
3.653703085
3.650138122
3.647835918
3.64724854
3.647786129
3.649115226
3.651546884
3.653943256
3.655690255
3.656940538
3.657384479
3.657481728
3.657213223
3.655945814
3.653710902
3.651670813
3.650850279
3.650886054
3.651191957
3.651940307
3.652948865
3.653446366
3.653305172
0.9999999972
0.999999959
0.9999999424
1.000000051
0.9999985707
1.000010274
1.000289782
1.002380127
1.015596387
1.086265576
1.241702701
1.522908877
2.002699016
2.453109883
2.881119305
3.322728756
3.3892452
3.473677115
3.53094447
3.562382865
3.628038189
3.664569765
3.673111389
3.675293395
3.675453009
3.675272566
3.668796916
3.654615136
3.644377696
3.638594114
3.635331797
3.635423575
3.638151455
3.643180334
3.651327962
3.658355061
3.662401317
3.663706818
3.663774069
3.663136852
3.659839936
3.654487227
3.648936663
3.645771167
3.645424538
3.646641001
3.649671964
3.653146107
3.655510754
3.656726247
3.656661595
3.656613449
3.656515895
3.65589647
3.655069019
3.6542291
3.65326284
3.652122429
3.651118543
3.650618096
3.650787736
3.65145316
3.652603832
3.654136209
3.655545539
3.655934585
3.655772881
1.000000282
0.9999980406
1.000058205
1.000768791
1.005512677
1.03602388
1.151878313
1.353487898
1.728158072
2.230866325
2.628863234
3.085614774
3.380847371
3.409072337
3.492997685
3.527590223
3.562297649
3.625670801
3.653738257
3.661845944
3.66682192
3.671072165
3.673727844
3.668234595
3.653620795
3.643022151
3.636409266
3.634017833
3.635155584
3.640130993
3.648491703
3.656607972
3.661623826
3.663136328
3.661504581
3.66010669
3.658452106
3.655147149
3.65140889
3.648813636
3.647587697
3.647571042
3.648153503
3.648948506
3.650299973
3.652288431
3.654612942
3.656907015
3.658456391
3.658979417
3.658247728
3.655833672
3.65282349
3.65066005
3.649873386
3.650182194
3.651186971
3.652727978
3.65394474
3.654632208
3.65482564
3.654509375
3.654107957
3.654019874
3.654243223
3.654113821
3.65398127
1.001916061
1.013326283
1.079115912
1.241543284
1.506006921
1.970033289
2.441401297
2.816872658
3.280201189
3.428830863
3.460389595
3.521780913
3.545178511
3.586196888
3.635986818
3.649831143
3.655985876
3.657459362
3.661069595
3.664042615
3.657536546
3.647223153
3.642572532
3.637519568
3.63446361
3.635672852
3.640811754
3.648329409
3.655071912
3.659373131
3.66177609
3.663663381
3.66422856
3.662423815
3.656317026
3.648110101
3.642511192
3.640619923
3.641212335
3.643965846
3.648860874
3.653260628
3.656067629
3.657671733
3.658319128
3.658148151
3.657173772
3.655724139
3.65423476
3.652930488
3.651649355
3.650603468
3.650280569
3.650552805
3.651279958
3.652400764
3.653774841
3.655147377
3.656017328
3.656369149
3.655922604
3.654681842
3.653143283
3.652020377
3.651725962
3.652197516
3.652614655
1.350887392
1.714460553
2.245272269
2.6549031
3.052136038
3.412144036
3.437535341
3.482114678
3.524081874
3.535314236
3.573892947
3.620110143
3.63536595
3.643130802
3.650640844
3.658036074
3.660586859
3.655767403
3.645062534
3.63740045
3.633029291
3.633815036
3.638694559
3.645354247
3.651642107
3.656444866
3.658806192
3.660253134
3.661160164
3.661371968
3.659409345
3.654958891
3.649959484
3.645518493
3.642637943
3.642042772
3.643483742
3.647173819
3.651507471
3.655332345
3.658245777
3.659630991
3.659804999
3.658592863
3.655645886
3.651748649
3.648849688
3.647993484
3.648460741
3.650335236
3.653051201
3.654820284
3.655627733
3.655947955
3.655665076
3.654788761
3.653984391
3.653558123
3.653381039
3.653305975
3.653283712
3.653266341
3.653137647
3.653082301
3.65337585
3.653780454
3.654483124
2.842700724
3.291675149
3.494369773
3.504283313
3.549206175
3.566862446
3.58383197
3.620346806
3.629742601
3.630586293
3.631248465
3.634678599
3.641913635
3.643305048
3.637202728
3.63614048
3.635772328
3.633440494
3.633706439
3.636923457
3.642123421
3.648173225
3.654700236
3.660265563
3.663533287
3.664519732
3.663925776
3.660271494
3.652876419
3.645475797
3.641035788
3.639919199
3.64103188
3.644486204
3.64979561
3.654203044
3.65672672
3.65824046
3.659056016
3.659062408
3.657699392
3.655317819
3.652587145
3.65007819
3.648678816
3.648523591
3.649128258
3.650999169
3.653907728
3.656328693
3.657605032
3.657858552
3.657296105
3.655649295
3.653103048
3.650977521
3.6503729
3.650603044
3.651640298
3.653406196
3.654767447
3.655132214
3.655151442
3.654754887
3.653978492
3.653138022
3.653551865
3.527212634
3.562940292
3.558053112
3.548566192
3.575621723
3.603246372
3.617363891
3.628215604
3.637567687
3.643500297
3.644166735
3.640165813
3.632578419
3.625451987
3.624599021
3.629868378
3.637967571
3.644911543
3.650600403
3.65673505
3.66075009
3.662360216
3.662552455
3.661690601
3.659279145
3.655350684
3.650803395
3.646772447
3.644922536
3.644731064
3.645508028
3.64781716
3.651310762
3.655728619
3.65884779
3.659706364
3.659406886
3.657436994
3.653668406
3.650385981
3.64934003
3.6495749
3.651048224
3.653033504
3.65418544
3.654781179
3.655678192
3.656252228
3.656293479
3.655710898
3.654622869
3.653945048
3.653462937
3.653043197
3.652624391
3.652382464
3.652627784
3.653513835
3.654890271
3.655662585
3.655711599
3.655370204
3.654537474
3.65346635
3.652680495
3.652388071
3.652942903
3.647325944
3.640221721
3.61966268
3.60307182
3.604101622
3.607120908
3.60795268
3.606308579
3.612053215
3.623146937
3.627375122
3.628165872
3.629777502
3.632392896
3.636881553
3.645058339
3.654832691
3.661949753
3.66537753
3.665857727
3.664059307
3.657884637
3.64999781
3.646270446
3.6452205
3.645143795
3.646685918
3.648534906
3.649579513
3.65114574
3.65323738
3.655556448
3.657560132
3.658208441
3.657161682
3.655003663
3.653118334
3.651235775
3.649861723
3.649483841
3.649789542
3.650842237
3.653160953
3.656303922
3.657725857
3.657624142
3.656656777
3.654707642
3.652872824
3.652189592
3.652149622
3.652711473
3.653370247
3.653494548
3.653625943
3.653973292
3.654434912
3.654742789
3.654628408
3.654441092
3.654267799
3.654041373
3.653685817
3.653070944
3.652532245
3.652453438
3.653435272
3.632059322
3.636804709
3.634309102
3.626396335
3.615542518
3.606177662
3.606993834
3.612372886
3.619832167
3.631272473
3.640486292
3.646252952
3.650290851
3.651623088
3.652087602
3.653769439
3.656940394
3.660773947
3.661754601
3.66008182
3.65588358
3.649748112
3.643877039
3.641698436
3.641894934
3.6442319
3.649134548
3.654472796
3.657429046
3.658239727
3.658309477
3.65694425
3.654630945
3.653568393
3.653426225
3.653536875
3.653177044
3.652693296
3.652219142
3.651900176
3.652194964
3.653129084
3.655065696
3.656826319
3.657150832
3.656653285
3.655373902
3.653490002
3.652394144
3.652243293
3.652707907
3.653896683
3.655313557
3.656023741
3.656050126
3.655686415
3.655014944
3.65407611
3.653523081
3.653461502
3.653891581
3.654578564
3.654951487
3.654754675
3.654188193
3.653513607
3.654467401
3.581383187
3.592023899
3.605514599
3.621953649
3.626234958
3.626321937
3.627209107
3.629240548
3.635120706
3.645972269
3.655778941
3.660684198
3.661837264
3.660635098
3.656841341
3.652427712
3.650962031
3.650410128
3.651011294
3.652061427
3.651655311
3.650552107
3.648404303
3.647523873
3.648188441
3.650219822
3.653681691
3.656627326
3.657434552
3.657413252
3.65619136
3.653565076
3.651430227
3.650479069
3.650247205
3.651271944
3.652988194
3.654190603
3.654836806
3.655151843
3.655368808
3.655390576
3.654973425
3.6541493
3.653638437
3.653021759
3.652077645
3.651119211
3.650800572
3.651030203
3.65210699
3.654105837
3.656492576
3.657838202
3.657783865
3.656864892
3.654788813
3.652139029
3.650817039
3.650683726
3.651357696
3.653088954
3.655102561
3.656095086
3.656229636
3.6556452
3.656555911
3.605797009
3.617055125
3.62828412
3.635833975
3.641825209
3.646697747
3.65025368
3.654840144
3.657902494
3.659232091
3.658861916
3.655645235
3.651077211
3.647229814
3.644736378
3.644493155
3.64536859
3.647559165
3.650536508
3.652235523
3.65309034
3.653610395
3.654100443
3.654768805
3.65524184
3.655154109
3.654785658
3.65361371
3.651542286
3.65020828
3.650112975
3.650646745
3.652146795
3.654832552
3.657033798
3.657599113
3.657510775
3.656556676
3.654519376
3.652694319
3.651668514
3.651278634
3.651563169
3.652615549
3.653825636
3.654328435
3.654387226
3.654447209
3.654740564
3.655311612
3.656005497
3.656396358
3.656185852
3.655373067
3.654117421
3.652865335
3.652468098
3.652741791
3.653465676
3.654823975
3.656230826
3.656630751
3.656462515
3.655558905
3.656593058
3.648525464
3.64787684
3.646996164
3.649411295
3.650916472
3.651764536
3.653767185
3.655076474
3.654400019
3.654025495
3.653261012
3.652257137
3.651346105
3.650784919
3.650632448
3.650877157
3.651078151
3.651272721
3.651886808
3.65315632
3.654945776
3.655931793
3.655829984
3.6549236
3.652998937
3.651386153
3.651356781
3.652149698
3.654387812
3.657652663
3.659409944
3.659109931
3.657595981
3.654337063
3.650266745
3.648515331
3.648666115
3.649736673
3.652399124
3.656166619
3.658717551
3.658954289
3.658116553
3.655843897
3.653192264
3.652030641
3.651843529
3.652013729
3.652833097
3.654246598
3.655634375
3.656351631
3.656409521
3.656115801
3.655369132
3.654628466
3.654176158
3.653769807
3.653362875
3.653136291
3.65556612
3.644891919
3.648961534
3.654023992
3.654685844
3.653852459
3.651620591
3.649177395
3.648747117
3.649008412
3.650178045
3.652467908
3.654091587
3.654424191
3.654332069
3.65358897
3.652650612
3.651854527
3.651980142
3.653163616
3.653779944
3.654478262
3.655372798
3.655207021
3.654441385
3.654090029
3.65411171
3.65388683
3.653314421
3.652617769
3.651935273
3.651411815
3.6520207
3.653573294
3.655076495
3.655946332
3.656166522
3.655695281
3.654382985
3.652772313
3.651771563
3.651522119
3.652020184
3.653442205
3.655448828
3.657010099
3.657379906
3.657061312
3.656055123
3.654369073
3.653278931
3.653101196
3.653163457
3.653631907
3.654681915
3.655452191
3.655605075
3.656804346
3.641266421
3.641055121
3.642377502
3.646663165
3.653747731
3.658481857
3.659270791
3.658934032
3.656360815
3.651509774
3.64883998
3.648643747
3.649755001
3.653762642
3.658101527
3.659533411
3.659395795
3.657620019
3.653511977
3.650269575
3.649379406
3.649523868
3.651124619
3.654477943
3.656688692
3.657223384
3.65709847
3.655964678
3.654120392
3.652829031
3.651854758
3.651048381
3.650951146
3.651711793
3.653424728
3.655065922
3.656193247
3.65687339
3.657075047
3.656741632
3.655634037
3.653957137
3.652376949
3.652043411
3.65247804
3.653706956
3.655484219
3.656892501
3.657266391
3.657070567
3.655948806
3.654441248
)
;

boundaryField
{
    inlet
    {
        type            fixedValue;
        value           nonuniform 0();
    }
    outlet
    {
        type            zeroGradient;
    }
    bottom
    {
        type            slip;
    }
    top
    {
        type            slip;
    }
    obstacle
    {
        type            zeroGradient;
    }
    defaultFaces
    {
        type            empty;
    }
    procBoundary14to7
    {
        type            processor;
        value           nonuniform List<scalar> 9(1 1 1 1 1 1 1 1 1);
    }
    procBoundary14to8
    {
        type            processor;
        value           nonuniform List<scalar> 
78
(
1
1
1
1
1
1
1
1
1
1
1
1
1
1
1
1
1
1
1
1
1
1
1
1
1
1
1
1
1
1
1
1
1
1
1
1
1
1
1
1
1
1
1
1
1
1
1
1
1
1
1
1
1
1
1
1
1
1
1
1
1
0.9999999999
0.9999999999
0.9999999972
0.9999999973
0.9999999871
0.9999999926
0.9999998894
1.006474679
1.006474679
1.049586212
1.22313071
1.550450304
2.169041614
3.589449557
3.589449557
3.596779705
3.606101654
)
;
    }
    procBoundary14to9
    {
        type            processor;
        value           nonuniform List<scalar> 
28
(
3.659367102
3.663872409
3.648627002
3.645389218
3.654803592
3.658566194
3.653925014
3.650693746
3.652785527
3.655213524
3.654833286
3.653633447
3.653825201
3.655209029
3.656589531
3.65706812
3.656643687
3.654609806
3.651594205
3.647197155
3.641240442
3.627102868
3.597999341
3.540903275
3.425574161
3.19650528
2.689715166
1.760229481
)
;
    }
    procBoundary14to13
    {
        type            processor;
        value           nonuniform List<scalar> 
26
(
1
1
1
1
1
1
1
1
1
1
1
1
1
1
1
1
1
0.999999997
0.9999998957
1.000191251
1.143072192
2.468640661
3.52044987
3.650382069
3.617296097
3.573659238
)
;
    }
    procBoundary14to20
    {
        type            processor;
        value           nonuniform List<scalar> 
19
(
3.580997301
3.592408663
3.592408663
3.626902362
3.634385617
3.64107934
3.645974692
3.645974692
3.642770551
3.64023243
3.641384309
3.642993707
3.642993707
3.656677681
3.654700044
3.651747678
3.647680845
3.64362344
3.64362344
)
;
    }
}


// ************************************************************************* //
