/*--------------------------------*- C++ -*----------------------------------*\
  =========                 |
  \\      /  F ield         | OpenFOAM: The Open Source CFD Toolbox
   \\    /   O peration     | Website:  https://openfoam.org
    \\  /    A nd           | Version:  7
     \\/     M anipulation  |
\*---------------------------------------------------------------------------*/
FoamFile
{
    version     2.0;
    format      ascii;
    class       volVectorField;
    location    "0.4";
    object      U;
}
// * * * * * * * * * * * * * * * * * * * * * * * * * * * * * * * * * * * * * //

dimensions      [0 1 -1 0 0 0 0];

internalField   nonuniform List<vector> 
139
(
(3.099637714 -0.01880433651 0)
(3.109982556 -0.02241498506 0)
(3.091805094 -0.01544506396 0)
(3.046040376 0.003681625048 0)
(3.036312795 0.004288710282 0)
(3.025994305 0.002363881101 0)
(3.029416264 0.003256354906 0)
(3.071868317 -0.006998355729 0)
(3.095137862 -0.01291185021 0)
(3.128389891 -0.0205892261 0)
(3.129179829 -0.02249241377 0)
(3.105906829 -0.01464006824 0)
(3.092504067 0.005064766185 0)
(3.082030645 0.004858681843 0)
(3.069902687 0.002274366648 0)
(3.072273165 0.00357179083 0)
(3.107146967 -0.005818831508 0)
(3.128621239 -0.01253333893 0)
(3.153705191 -0.02038800659 0)
(3.146113313 -0.0213491468 0)
(3.116498384 -0.0137401567 0)
(3.136490658 0.006475743632 0)
(3.125156108 0.005267730411 0)
(3.112658547 0.0003352024024 0)
(3.114570135 0.001607189833 0)
(3.143658509 -0.004124932544 0)
(3.162678318 -0.01127266418 0)
(3.176916393 -0.01843943358 0)
(3.158819594 -0.01992784727 0)
(3.122550913 -0.01299075491 0)
(3.177973093 0.007578052859 0)
(3.165483622 0.005627666172 0)
(3.152516764 -0.002210688417 0)
(3.155138437 -0.001320416546 0)
(3.179951626 -0.004624608031 0)
(3.194366075 -0.01099077781 0)
(3.195632068 -0.01675324997 0)
(3.163207807 -0.01880869273 0)
(3.12194615 -0.01169179432 0)
(3.217882358 0.00677032357 0)
(3.203934672 0.005338320379 0)
(3.189508817 -0.002597766644 0)
(3.193082877 -0.003793457526 0)
(3.212078072 -0.007154521415 0)
(3.218644545 -0.01294303527 0)
(3.205513286 -0.016777044 0)
(3.157692276 -0.01742275664 0)
(3.112019328 -0.01098545372 0)
(3.253802411 0.003936223691 0)
(3.239535073 0.004451739091 0)
(3.225093188 -0.0006720014096 0)
(3.230275642 -0.004221852016 0)
(3.238148808 -0.00909226351 0)
(3.232853301 -0.01516339084 0)
(3.202458559 -0.01784677158 0)
(3.142136702 -0.01677430752 0)
(3.091558489 -0.009772457595 0)
(3.284416855 0.0005942329178 0)
(3.271405843 0.002887774592 0)
(3.259362002 0.001232148807 0)
(3.260421914 -0.002031778992 0)
(3.252809179 -0.006468870182 0)
(3.231847532 -0.01332195607 0)
(3.184244863 -0.01638867783 0)
(3.117647559 -0.01472536869 0)
(3.063241983 -0.008386363979 0)
(3.309371763 0.0004457232635 0)
(3.295982683 0.001499468769 0)
(3.284403627 0.000319940158 0)
(3.272985062 -0.001404986955 0)
(3.251146733 -0.004680783744 0)
(3.214505357 -0.01097393517 0)
(3.15377596 -0.01427165499 0)
(3.086860281 -0.01260643974 0)
(3.031673335 -0.006630863295 0)
(3.321685741 0.003700839777 0)
(3.306033397 0.001378327645 0)
(3.294230218 -0.002227757147 0)
(3.268068842 -0.003896707939 0)
(3.234240561 -0.004755041797 0)
(3.18499748 -0.01077262303 0)
(3.117008162 -0.01209844663 0)
(3.053931494 -0.01121049724 0)
(3.000267418 -0.005910628313 0)
(3.315634135 0.003257722953 0)
(3.300244487 0.0004859174803 0)
(3.286255096 -0.004483767745 0)
(3.250044301 -0.009487347993 0)
(3.207497245 -0.009674580424 0)
(3.150912734 -0.0111832708 0)
(3.081305702 -0.00799923603 0)
(3.024250234 -0.008669990846 0)
(2.972687512 -0.004458275595 0)
(3.297219534 0.003647709814 0)
(3.283989877 0.000773794105 0)
(3.268369981 -0.004202060955 0)
(3.228085315 -0.007318432794 0)
(3.182805449 -0.005748272241 0)
(3.123490223 -0.005860105755 0)
(3.05248282 -0.004510656226 0)
(3.001393981 -0.006694254599 0)
(2.950797145 -0.003863973105 0)
(3.277448418 0.005210290575 0)
(3.266083471 0.002562965377 0)
(3.250919028 0.0003273294526 0)
(3.21087946 -0.002811753244 0)
(3.165131999 -0.003040864767 0)
(3.104330958 -0.005744603725 0)
(3.033564267 -0.005741201106 0)
(2.98610712 -0.006452463344 0)
(2.936042775 -0.003809624115 0)
(3.263973626 0.00322045631 0)
(3.25317909 0.006255966075 0)
(3.23803989 0.004606689201 0)
(3.199241386 -4.909377313e-05 0)
(3.154044997 -0.002597953971 0)
(3.094031329 -0.00738182523 0)
(3.024543212 -0.006265306388 0)
(2.977709937 -0.005741646271 0)
(2.92785098 -0.003013384549 0)
(3.264670319 -0.0006919173297 0)
(3.258591902 0.0001308060274 0)
(3.246863276 0.002641132981 0)
(3.232024329 0.0008092893498 0)
(3.193988203 -0.002101651965 0)
(3.148573763 -0.003849902967 0)
(3.089234792 -0.006468521997 0)
(3.019057235 -0.00423434923 0)
(2.973435211 -0.00357393914 0)
(2.924062061 -0.001649789469 0)
(3.262319722 -0.001965747965 0)
(3.256162537 -0.001569659805 0)
(3.244910265 0.0005406257875 0)
(3.230221202 0.001045419747 0)
(3.192300723 -0.000411934353 0)
(3.146555036 -0.00116248547 0)
(3.087632522 -0.001458279498 0)
(3.016409878 -0.000826416868 0)
(2.97146676 -0.001161365714 0)
)
;

boundaryField
{
    inlet
    {
        type            fixedValue;
        value           nonuniform 0();
    }
    outlet
    {
        type            inletOutlet;
        inletValue      uniform (3 0 0);
        value           nonuniform List<vector> 
15
(
(3.091805094 -0.01544506396 0)
(3.105906829 -0.01464006824 0)
(3.116498384 -0.0137401567 0)
(3.122550913 -0.01299075491 0)
(3.12194615 -0.01169179432 0)
(3.112019328 -0.01098545372 0)
(3.091558489 -0.009772457595 0)
(3.063241983 -0.008386363979 0)
(3.031673335 -0.006630863295 0)
(3.000267418 -0.005910628313 0)
(2.972687512 -0.004458275595 0)
(2.950797145 -0.003863973105 0)
(2.936042775 -0.003809624115 0)
(2.92785098 -0.003013384549 0)
(2.924062061 -0.001649789469 0)
)
;
    }
    bottom
    {
        type            slip;
    }
    top
    {
        type            slip;
    }
    obstacle
    {
        type            slip;
    }
    defaultFaces
    {
        type            empty;
    }
    procBoundary17to11
    {
        type            processor;
        value           nonuniform List<vector> 10((3.064962189 -0.01678244572 0) (3.087319687 -0.02121527791 0) (3.074972484 -0.01659426328 0) (3.000450546 0.002182997968 0) (2.991552475 0.004095377038 0) (2.983607865 0.001378892013 0) (2.987611185 -1.881319629e-05 0) (3.033632338 -0.006986560662 0) (3.0597839 -0.01208145132 0) (3.0597839 -0.01208145132 0));
    }
    procBoundary17to16
    {
        type            processor;
        value           nonuniform List<vector> 
15
(
(3.050992975 0.003751564857 0)
(3.098353228 0.004716491459 0)
(3.143128589 0.00522029829 0)
(3.185204552 0.005747527286 0)
(3.22556671 0.00507577558 0)
(3.262140222 0.002521191808 0)
(3.294943583 9.293018775e-06 0)
(3.321363643 0.0016487005 0)
(3.333050123 0.004935772044 0)
(3.327237909 0.003606042905 0)
(3.308503556 0.003313105913 0)
(3.287895268 0.004144266392 0)
(3.272620886 0.002758370461 0)
(3.272620886 0.002758370461 0)
(3.266880923 -0.0001749520093 0)
)
;
    }
    procBoundary17to22
    {
        type            processor;
        value           uniform (3.264039073 -0.001674062578 0);
    }
    procBoundary17to23
    {
        type            processor;
        value           nonuniform List<vector> 
11
(
(2.92283016 -0.0009154784165 0)
(3.262189413 -0.0009763145702 0)
(3.25521036 -0.003841445275 0)
(3.243895314 -0.003916716975 0)
(3.229682477 -0.001808414322 0)
(3.192026006 0.0007178246528 0)
(3.146324889 0.002070273997 0)
(3.086750115 0.003024700173 0)
(3.01613718 0.002940425386 0)
(2.92283016 -0.0009154784165 0)
(2.971438272 0.001353967377 0)
)
;
    }
}


// ************************************************************************* //
