/*--------------------------------*- C++ -*----------------------------------*\
  =========                 |
  \\      /  F ield         | OpenFOAM: The Open Source CFD Toolbox
   \\    /   O peration     | Website:  https://openfoam.org
    \\  /    A nd           | Version:  7
     \\/     M anipulation  |
\*---------------------------------------------------------------------------*/
FoamFile
{
    version     2.0;
    format      ascii;
    class       volVectorField;
    location    "3.2";
    object      U;
}
// * * * * * * * * * * * * * * * * * * * * * * * * * * * * * * * * * * * * * //

dimensions      [0 1 -1 0 0 0 0];

internalField   nonuniform List<vector> 
138
(
(3 -3.84993451e-15 0)
(3 -5.430127428e-15 0)
(3 -6.227356243e-15 0)
(3 -7.021999496e-15 0)
(3 -3.108494701e-15 0)
(3 3.97042491e-15 0)
(3 5.279890726e-15 0)
(3 4.580541715e-15 0)
(3 5.695399485e-15 0)
(3 -9.202484897e-16 0)
(3 -1.387330237e-15 0)
(3 -3.063812041e-15 0)
(3 -4.392348867e-15 0)
(3 -5.568075838e-15 0)
(3 -4.091219764e-15 0)
(3 -4.368407932e-15 0)
(3 -2.349440012e-15 0)
(3 -3.79554928e-17 0)
(3 1.807901846e-16 0)
(3 -5.636037022e-16 0)
(3 -3.953097578e-15 0)
(3 -3.366282178e-15 0)
(3 -2.313063417e-15 0)
(3 -7.860061567e-16 0)
(3 -1.673884767e-15 0)
(3 -1.018211546e-15 0)
(3 -1.095906571e-15 0)
(3 -3.33978964e-15 0)
(3 -3.212989467e-15 0)
(3 -3.419821994e-15 0)
(3 -2.714415882e-15 0)
(3 -1.956688999e-15 0)
(3 -3.438988997e-15 0)
(3 -1.915889201e-15 0)
(3 -1.846943543e-15 0)
(3 -1.524963346e-15 0)
(3 5.428104283e-16 0)
(3 2.88798847e-16 0)
(3 -4.235660528e-15 0)
(3 -9.206451773e-15 0)
(3 -9.599388771e-15 0)
(3 -7.580367089e-15 0)
(3 -6.254728652e-15 0)
(3 3.810170437e-16 0)
(3 -1.672303443e-16 0)
(3 9.260195028e-16 0)
(3 2.189316727e-15 0)
(3 2.296282212e-15 0)
(3 1.942481049e-15 0)
(3 2.191655629e-15 0)
(3 -3.828388842e-16 0)
(3 -5.463268211e-16 0)
(3 1.134039975e-15 0)
(3 3.514392134e-15 0)
(3 3.778607777e-15 0)
(3 4.083934322e-15 0)
(3 5.159460986e-15 0)
(3 2.035604717e-15 0)
(3 -4.576192762e-16 0)
(3 -2.840010875e-15 0)
(3 -9.982388311e-17 0)
(3 4.704754053e-16 0)
(3 -7.772752066e-16 0)
(3 3.20214515e-16 0)
(3 3.243237693e-15 0)
(3 2.349910577e-15 0)
(3 3.163232311e-15 0)
(3 1.59688287e-15 0)
(3 1.659067886e-15 0)
(3 3.185757359e-15 0)
(3 1.711993594e-15 0)
(3 2.787228878e-15 0)
(3 4.474310327e-15 0)
(3 5.479048347e-15 0)
(3 3.895660237e-15 0)
(3 2.987802342e-15 0)
(3 1.587254753e-15 0)
(3 -4.344803079e-16 0)
(3 -2.721646509e-16 0)
(3 -1.454132493e-15 0)
(3 -1.145994224e-15 0)
(3 1.471093461e-15 0)
(3 2.527962344e-15 0)
(3 5.664027243e-15 0)
(3 6.515897693e-15 0)
(3 6.907883114e-15 0)
(3 7.101462778e-15 0)
(3 5.147418703e-15 0)
(3 5.119220266e-15 0)
(3 4.663672198e-15 0)
(3 3.36545804e-15 0)
(3 6.395352928e-15 0)
(3 5.730512645e-15 0)
(3 3.825044098e-15 0)
(3 3.480467136e-16 0)
(3 7.929935349e-16 0)
(3 4.647562944e-16 0)
(3 -2.127988336e-17 0)
(3 -1.01918596e-15 0)
(3 1.954739788e-15 0)
(3 3.446610481e-15 0)
(3 4.893730089e-15 0)
(3 7.268568127e-15 0)
(3 5.108184273e-15 0)
(3 6.402983771e-15 0)
(3 6.390355556e-15 0)
(3 8.082264334e-15 0)
(3 9.150191043e-15 0)
(3 1.074476819e-14 0)
(3 1.011191462e-14 0)
(3 8.158151484e-15 0)
(3 4.360804879e-16 0)
(3 1.501366283e-15 0)
(3 1.80682428e-15 0)
(3 1.66464969e-15 0)
(3 1.723097006e-15 0)
(3 2.117955602e-15 0)
(3 1.107735962e-15 0)
(3 5.07619006e-16 0)
(3 1.07426306e-15 0)
(3 -7.385352046e-16 0)
(3 1.977345311e-15 0)
(3 7.545446016e-15 0)
(3 1.169727417e-14 0)
(3 1.153224962e-14 0)
(3 9.410072122e-15 0)
(3 1.158583825e-14 0)
(3 1.258105072e-14 0)
(3 5.727816508e-16 0)
(3 1.97670072e-15 0)
(3 1.828512855e-15 0)
(3 2.380258369e-15 0)
(3 3.186490214e-15 0)
(3 3.426872027e-15 0)
(3 4.258383213e-15 0)
(3 3.555420975e-15 0)
(3 1.148484313e-15 0)
(3 7.325876882e-16 0)
)
;

boundaryField
{
    inlet
    {
        type            fixedValue;
        value           uniform (3 0 0);
    }
    outlet
    {
        type            inletOutlet;
        inletValue      nonuniform 0();
        value           nonuniform 0();
    }
    bottom
    {
        type            slip;
    }
    top
    {
        type            slip;
    }
    obstacle
    {
        type            slip;
    }
    defaultFaces
    {
        type            empty;
    }
    procBoundary24to18
    {
        type            processor;
        value           nonuniform List<vector> 
18
(
(3 -1.837228747e-15 0)
(3 -3.872083567e-15 0)
(3 -5.056247807e-15 0)
(3 -4.956879567e-15 0)
(3 -2.908499013e-15 0)
(3 1.318971787e-15 0)
(3 2.916633205e-15 0)
(3 7.647028203e-15 0)
(3 7.418433279e-15 0)
(3 3.451451036e-16 0)
(3 1.240967309e-15 0)
(3 1.210850427e-15 0)
(3 4.710713945e-16 0)
(3 -2.324305392e-15 0)
(3 -2.949430825e-15 0)
(3 -2.969870967e-15 0)
(3 -3.789996353e-15 0)
(3 -3.789996353e-15 0)
)
;
    }
    procBoundary24to19
    {
        type            processor;
        value           uniform (3 5.694710698e-15 0);
    }
    procBoundary24to25
    {
        type            processor;
        value           nonuniform List<vector> 7((3 4.720396535e-16 0) (3 -5.41232254e-15 0) (3 -2.348146494e-15 0) (3 -6.99316261e-16 0) (3 1.511038518e-15 0) (3 7.722955286e-15 0) (3 1.227393311e-14 0));
    }
    procBoundary24to30
    {
        type            processor;
        value           nonuniform List<vector> 
18
(
(3 4.450187874e-16 0)
(3 3.624183678e-15 0)
(3 4.301207466e-15 0)
(3 7.072140981e-15 0)
(3 6.080434314e-15 0)
(3 5.725812647e-15 0)
(3 5.252769461e-15 0)
(3 -4.560936282e-16 0)
(3 5.411429052e-16 0)
(3 9.438990869e-16 0)
(3 4.295305083e-16 0)
(3 -1.332660706e-15 0)
(3 -2.984492833e-16 0)
(3 -2.028340196e-16 0)
(3 -2.853805673e-16 0)
(3 -1.319121359e-15 0)
(3 4.450187874e-16 0)
(3 -3.891135845e-15 0)
)
;
    }
}


// ************************************************************************* //
