/*--------------------------------*- C++ -*----------------------------------*\
  =========                 |
  \\      /  F ield         | OpenFOAM: The Open Source CFD Toolbox
   \\    /   O peration     | Website:  https://openfoam.org
    \\  /    A nd           | Version:  7
     \\/     M anipulation  |
\*---------------------------------------------------------------------------*/
FoamFile
{
    version     2.0;
    format      ascii;
    class       volScalarField;
    location    "0.5";
    object      p;
}
// * * * * * * * * * * * * * * * * * * * * * * * * * * * * * * * * * * * * * //

dimensions      [1 -1 -2 0 0 0 0];

internalField   nonuniform List<scalar> 5(1.195623764 1.261270124 1.362530447 1.195623777 1.26127006);

boundaryField
{
    inlet
    {
        type            fixedValue;
        value           nonuniform 0();
    }
    outlet
    {
        type            zeroGradient;
    }
    bottom
    {
        type            slip;
    }
    top
    {
        type            slip;
    }
    obstacle
    {
        type            zeroGradient;
    }
    defaultFaces
    {
        type            empty;
    }
    procBoundary20to9
    {
        type            processor;
        value           uniform 1.158419245;
    }
    procBoundary20to13
    {
        type            processor;
        value           uniform 1.122347406;
    }
    procBoundary20to14
    {
        type            processor;
        value           nonuniform List<scalar> 3(1.0279937 1.047662076 1.095764237);
    }
    procBoundary20to19
    {
        type            processor;
        value           uniform 1.122347404;
    }
    procBoundary20to26
    {
        type            processor;
        value           nonuniform List<scalar> 3(1.027993707 1.362530958 1.047661917);
    }
}


// ************************************************************************* //
