/*--------------------------------*- C++ -*----------------------------------*\
  =========                 |
  \\      /  F ield         | OpenFOAM: The Open Source CFD Toolbox
   \\    /   O peration     | Website:  https://openfoam.org
    \\  /    A nd           | Version:  7
     \\/     M anipulation  |
\*---------------------------------------------------------------------------*/
FoamFile
{
    version     2.0;
    format      ascii;
    class       volScalarField;
    location    "0.6";
    object      p;
}
// * * * * * * * * * * * * * * * * * * * * * * * * * * * * * * * * * * * * * //

dimensions      [1 -1 -2 0 0 0 0];

internalField   nonuniform List<scalar> 
2222
(
1
1
1
1
1
1
1
1
1
1
1
1
1
1
1
1
1
1
1
1
1
1
1
1
1
1
1
1
1
1
1
1
1
1
1
1
1
1
1
1
1
1
1
1
1
1
1
1
1
1
1
1
1
1
1
1
1
1
1
1
1
1
1
1
1
1
1
1
1
1
1
1
1
1
1
1
1
1
1
1
1
1
1
1
1
1
1
1
1
1
1
1
1
1
1
1
1
1
1
1
1
1
1
1
1
1
1
1
1
1
1
1
1
1
1
1
1
1
1
1
1
1
1
1
1
1
1
1.00000001
1
1
1
1
1
1
1
1
1
1
1
1
1
1
1
1
1
1
1
1
1
1
1
1
1
1
1
1
1
1
1.000000011
1.000000334
1
1
1
1
1
1
1
1
1
1
1
1
1
1
1
1
1
1
1
1
1
1
1
1
1
1
1
1
1
1.00000001
1.000000342
1.000008263
1
1
1
1
1
1
1
1
1
1
1
1
1
1
1
1
1
1
1
1
1
1
1
1
1
1
1
1
1.000000011
1.000000375
1.000007776
1.000135159
1
1
1
1
1
1
1
1
1
1
1
1
1
1
1
1
1
1
1
1
1
1
1
1
1
1
1
1.000000011
1.000000355
1.000009224
1.000120041
1.001449737
1
1
1
1
1
1
1
1
1
1
1
1
1
1
1
1
1
1
1
1
1
1
1
1
1
1
1.000000012
1.000000418
1.000008093
1.000145885
1.001239494
1.009977194
1
1
1
1
1
1
1
1
1
1
1
1
1
1
1
1
1
1
1
1
1
1
1
1
1
1.000000014
1.000000393
1.00000997
1.000124864
1.001487807
1.008611882
1.043342441
1
1
1
1
1
1
1
1
1
1
1
1
1
1
1
1
1
1
1
1
1
1
1
1
1.000000014
1.000000486
1.000008629
1.000154738
1.001272569
1.010050366
1.0394668
1.124508397
1
1
1
1
1
1
1
1
1
1
1
1
1
1
1
1
1
1
1
1
1
1
1
1.000000018
1.000000442
1.000010787
1.000128225
1.001533143
1.008837525
1.043398825
1.124069606
1.238221105
1
1
1
1
1
1
1
1
1
1
1
1
1
1
1
1
1
1
1
1
1
1
1.000000015
1.00000054
1.000009047
1.000155338
1.001274315
1.010075653
1.04059256
1.123863762
1.255584496
1.360886743
1
1
1
1
1
1
1
1
1
1
1
1
1
1
1
1
1
1
1
1
1
1.000000016
1.000000422
1.000010474
1.000128597
1.00147368
1.008782645
1.042866368
1.127811255
1.237774673
1.355606692
1.428258223
1
1
1
1
1
1
1
1
1
1
1
1
1
1
1
1
1
1
1
1
1.000000015
1.00000052
1.000008839
1.000147165
1.001287959
1.009738361
1.041111318
1.122589472
1.257220871
1.361471334
1.403827546
1.436079715
1
1
1
1
1
1
1
1
1
1
1
1
1
1
1
1
1
1
1
1.000000022
1.000000502
1.000011119
1.00013749
1.001446154
1.009239714
1.043159308
1.130069835
1.243689211
1.348641228
1.420600521
1.439036508
1.44600428
1
1
1
1
1
1
1
1
1
1
1
1
1
1
1
1
1
1
1.000000015
1.000000591
1.000010541
1.000157356
1.001458932
1.009680536
1.045036341
1.125840701
1.260960555
1.373319855
1.402814403
1.425486537
1.443934612
1.446951017
1
1
1
1
1
1
1
1
1
1
1
1
1
1
1
1
1
1.000000016
1.00000042
1.000010542
1.000148552
1.001475055
1.010274575
1.043474977
1.136376205
1.257906428
1.349766567
1.420458094
1.436260673
1.439994236
1.444293671
1.446183807
1
1
1
1
1
1
1
1
1
1
1
1
1
1
1
1.000000001
1.000000015
1.000000519
1.000009552
1.000141983
1.001491281
1.00950274
1.047888588
1.127873844
1.258811202
1.384100403
1.415796015
1.428175812
1.440143065
1.444717185
1.445407325
1.44476015
1
1
1
1
1
1
1
1
1
1
1
1
1
1
1
1.000000022
1.000000533
1.000011791
1.00015688
1.001453057
1.010280959
1.043533489
1.139538299
1.264556329
1.341366289
1.4134378
1.440762714
1.441086584
1.442822793
1.444926347
1.444211638
1.441125311
1
1
1
1
1
1
1
1
1
1
1
1
1
1
1.000000015
1.000000563
1.000011364
1.000165987
1.001700705
1.009960612
1.047680312
1.132068896
1.260186157
1.379038947
1.415988425
1.433379187
1.444073189
1.445390992
1.445311925
1.444485348
1.441343246
1.434789666
1
1
1
1
1
1
1
1
1
1
1
1
1
1.000000017
1.00000044
1.000010395
1.000159178
1.001529454
1.01155591
1.044978257
1.136714708
1.275946215
1.349794164
1.407349865
1.436315234
1.440923225
1.443876283
1.445104039
1.444812741
1.442221378
1.436109389
1.426289867
1
1
1
1
1
1
1
1
1
1
1
1
1.000000018
1.000000545
1.000010676
1.000144591
1.001603146
1.009544322
1.05109827
1.131641612
1.253364727
1.384174066
1.422935317
1.43522908
1.440588733
1.443632823
1.443662681
1.443810379
1.442168942
1.436627599
1.427428846
1.415426764
1
1
1
1
1
1
1
1
1
1
1.000000001
1.000000021
1.000000597
1.00001214
1.0001775
1.00150305
1.011011635
1.04235188
1.141291953
1.269276344
1.352017367
1.410588964
1.440580159
1.440232292
1.440893716
1.443653975
1.44358592
1.441595205
1.43628544
1.427207327
1.415855663
1.402200001
1
1
1
1
1
1
1
1
1
1
1.000000019
1.000000588
1.000012261
1.000169393
1.001881786
1.010387999
1.04912898
1.131047621
1.259580497
1.372265039
1.427105707
1.444866477
1.447470697
1.444831887
1.444327097
1.444834416
1.443415758
1.437973996
1.427913864
1.415379583
1.402110233
1.386987439
1
1
1
1
1
1
1
1
1
1.000000017
1.000000528
1.000011331
1.000166728
1.001561797
1.012420873
1.046553933
1.138360024
1.274013149
1.35655764
1.414116237
1.446867509
1.448546517
1.447153004
1.444809417
1.444905864
1.444167228
1.440156445
1.431243112
1.417599842
1.402219508
1.386252431
1.370150367
1
1
1
1
1
1
1
1
1.00000002
1.000000561
1.000011474
1.000162725
1.001631421
1.009924386
1.052693891
1.139011452
1.253750883
1.386288878
1.417073305
1.433931669
1.447455489
1.44864068
1.446736695
1.44428927
1.442286337
1.439087627
1.432593545
1.421027829
1.405118494
1.387038442
1.369289183
1.352702886
1
1
1
1
1
1
1.000000001
1.000000023
1.000000677
1.000012986
1.000178351
1.001700837
1.011112268
1.044311699
1.145908962
1.271057398
1.357772769
1.429660086
1.44537299
1.442557486
1.444162527
1.44728479
1.446224499
1.44330362
1.438228752
1.430726107
1.420601824
1.407099476
1.389897823
1.370297783
1.352242915
1.334826279
1
1
1
1
1
1
1.000000023
1.000000662
1.000013821
1.000192631
1.001782459
1.012063146
1.048440117
1.135805708
1.26886171
1.383745697
1.411897867
1.43463464
1.444403177
1.445486643
1.445808996
1.446945612
1.446182101
1.440835217
1.431767458
1.420419356
1.407659436
1.392145991
1.373087597
1.352514382
1.334362007
1.316115856
1
1
1
1
1
1.000000019
1.000000615
1.000012966
1.00018003
1.001864111
1.01127155
1.054877309
1.134211344
1.273317286
1.368214954
1.434261941
1.440891774
1.44009735
1.441334423
1.447502309
1.449263765
1.448529454
1.444598473
1.435761197
1.423191025
1.408290357
1.392861131
1.375170477
1.355143353
1.334245306
1.315877142
1.296947542
1
1
1
1.000000001
1.000000024
1.000000638
1.000012959
1.000181818
1.001698794
1.01162855
1.049417806
1.151381433
1.260079699
1.372312498
1.406969918
1.444591846
1.450308209
1.446763934
1.444500051
1.446247472
1.446477739
1.444086488
1.437462661
1.425568888
1.410224475
1.393538948
1.376253249
1.357525493
1.337262394
1.315485748
1.296635238
1.277440718
1
1
1.000000001
1.000000026
1.000000796
1.000014612
1.000198267
1.001825971
1.011523009
1.04860118
1.148298448
1.268270992
1.372405855
1.435897841
1.436357245
1.446234097
1.451870378
1.449286412
1.446814596
1.445361885
1.442843149
1.437145788
1.427124135
1.412343256
1.395153714
1.377077618
1.358091585
1.339384593
1.318529528
1.295610517
1.277155816
1.258461632
1
1.000000001
1.00000003
1.000000797
1.00001606
1.000213984
1.001957851
1.012574172
1.050606868
1.138086649
1.293893388
1.358039184
1.418704962
1.445764708
1.441499161
1.443965066
1.448881756
1.449462495
1.447582678
1.443226254
1.436531625
1.42698511
1.41401476
1.397330518
1.378888136
1.358805997
1.338741392
1.320562636
1.298436582
1.275226824
1.258258881
1.239335326
1.000000001
1.000000026
1.000000785
1.000015445
1.000204013
1.002037778
1.012118572
1.056351842
1.138685739
1.272850591
1.388937282
1.418976129
1.443249242
1.448003443
1.443769683
1.444378179
1.448339791
1.449928546
1.447288765
1.439267014
1.427857232
1.414677717
1.39901629
1.381085283
1.361239098
1.339192429
1.319303524
1.301228333
1.277234109
1.254998563
1.239367606
1.219054275
1.000000029
1.000000743
1.000014911
1.000201922
1.00184559
1.012378064
1.05203007
1.152828486
1.264087502
1.374920512
1.409777411
1.438823498
1.450797627
1.450178396
1.44817854
1.44738923
1.449247069
1.447921254
1.441745474
1.430334131
1.416028114
1.40013529
1.382199942
1.363372621
1.342104227
1.318948669
1.299743473
1.280876189
1.255623673
1.235341006
1.219743311
1.197784723
1.000000841
1.000015368
1.000205922
1.001897961
1.011926454
1.050461078
1.151765715
1.268860522
1.375773056
1.436077923
1.435084633
1.442915993
1.451140239
1.450879469
1.449501068
1.449198407
1.447201777
1.442146358
1.43277206
1.418894829
1.402247336
1.383661105
1.363849786
1.344200318
1.32143846
1.297896653
1.279415261
1.25975737
1.234842409
1.215941387
1.199157313
1.177190893
1.000016304
1.000216495
1.001959992
1.012779901
1.05012592
1.144032816
1.295005399
1.356251655
1.416035233
1.44425691
1.441496729
1.443193388
1.448256067
1.450268547
1.449089489
1.445808107
1.44020773
1.431962491
1.420396853
1.405061197
1.386599975
1.365719692
1.344453101
1.323807854
1.2998031
1.276729439
1.258801513
1.238645751
1.214780342
1.196210407
1.178591865
1.158277505
1.000208952
1.002077645
1.012248146
1.0564927
1.140517033
1.274480918
1.387451237
1.424079805
1.446275868
1.44952882
1.444810305
1.445066094
1.449101518
1.450947902
1.448858228
1.442022013
1.431971476
1.420167887
1.406241257
1.389173092
1.368727679
1.346218619
1.324223173
1.302821906
1.278195906
1.255678807
1.237730021
1.217650407
1.195029036
1.176333589
1.158793731
1.1394468
1.001931864
1.012862477
1.053262754
1.153718996
1.270058235
1.376509649
1.410787288
1.440687114
1.450956091
1.450655912
1.448246725
1.449261044
1.451124983
1.450070249
1.444909522
1.434994583
1.421739506
1.406656159
1.38997523
1.370420162
1.348377169
1.325437156
1.303103694
1.281203307
1.256626194
1.234531978
1.216661211
1.197260403
1.175006597
1.155867884
1.138941323
1.120039318
1.01244169
1.053253833
1.15513803
1.270811875
1.381954234
1.437314298
1.435997202
1.442839718
1.447542891
1.448420079
1.44831525
1.44852086
1.44798263
1.444836345
1.43746952
1.425273518
1.408799491
1.390761317
1.371269497
1.349419712
1.327017365
1.303573109
1.280771026
1.259469787
1.235557146
1.213365058
1.195574714
1.176437231
1.153841138
1.135245591
1.119651495
1.101107584
1.051721525
1.152354198
1.294833961
1.35957008
1.421916782
1.445108893
1.442625351
1.44406435
1.448791602
1.450047953
1.448761485
1.44675575
1.443143781
1.436960357
1.427137538
1.412167084
1.392960865
1.372980696
1.350628188
1.327792658
1.305563595
1.280710695
1.25845007
1.238401138
1.213842321
1.191159483
1.174038207
1.155266414
1.132865313
1.115412011
1.100720818
1.081760162
1.144914345
1.278275091
1.393796002
1.427584942
1.445500043
1.448598855
1.445628659
1.447358195
1.451703592
1.451752177
1.449104404
1.443704949
1.436178802
1.426698846
1.414026426
1.395809852
1.375089924
1.353114589
1.328431125
1.30661385
1.283680486
1.257243069
1.236670748
1.216931963
1.190977666
1.169123778
1.153169309
1.134504611
1.112114257
1.095420153
1.081326529
1.062152712
1.276545725
1.378654384
1.414914456
1.442617437
1.450896474
1.451443256
1.449628745
1.451337338
1.45315896
1.452078768
1.447243644
1.438631565
1.427293229
1.414232928
1.39751892
1.376698979
1.355275718
1.330650441
1.30597025
1.285471656
1.259996571
1.233481334
1.214960217
1.194827377
1.168522353
1.148042732
1.132488095
1.113342287
1.091106567
1.075758506
1.062612469
1.043148483
1.384237548
1.436708944
1.437614914
1.446078458
1.451102511
1.450442005
1.450295992
1.451508699
1.451161663
1.447950294
1.441264487
1.429940146
1.415240829
1.398332768
1.378074918
1.356562487
1.33340809
1.306807053
1.284030397
1.26264466
1.234651633
1.210641327
1.193137624
1.172168613
1.146439609
1.126982252
1.111770806
1.092621682
1.070976175
1.056764732
1.043727887
1.022938022
1.420434569
1.442849395
1.443925374
1.449571623
1.453219137
1.452388488
1.451508605
1.450279082
1.447100117
1.441592239
1.43209683
1.417639222
1.399683153
1.379015921
1.357189578
1.334834371
1.308995169
1.283223741
1.261563118
1.237882534
1.210494657
1.188724555
1.170461708
1.149363303
1.124968165
1.106266464
1.091615468
1.072222067
1.050488599
1.037233699
1.024160559
1.003192697
1.445501421
1.44412661
1.444708971
1.451099683
1.454942676
1.454320789
1.451454121
1.446619069
1.440575734
1.432531042
1.42028602
1.403090118
1.381299959
1.358024863
1.335376782
1.31039096
1.283793446
1.260289147
1.237610269
1.213181801
1.188279927
1.166241087
1.147492571
1.127716222
1.103831627
1.085451679
1.071361957
1.051002543
1.029731155
1.018336425
1.005510447
0.9849720118
1.450622507
1.448341635
1.447340251
1.45134423
1.454889715
1.453663939
1.448974639
1.441324654
1.432353446
1.420800084
1.405746635
1.385152199
1.36027662
1.336664564
1.311635344
1.284195658
1.25999005
1.236553621
1.212451485
1.190123162
1.16604595
1.142814687
1.12549251
1.106574736
1.081453384
1.064247327
1.05125247
1.030247823
1.01057355
1.000316308
0.985983046
0.9648999267
1.452388595
1.450562909
1.448499391
1.450367633
1.452056552
1.450383946
1.444238747
1.434244397
1.421331567
1.406168484
1.388039375
1.36345935
1.338501918
1.314245406
1.2854218
1.259555031
1.237032652
1.210699287
1.187811585
1.168163817
1.142281972
1.11923098
1.104209979
1.084567404
1.058465152
1.044005933
1.031851005
1.00952572
0.9914350834
0.9814553055
0.9650142316
0.9458907123
1.454857782
1.452104788
1.449282074
1.448748423
1.448639846
1.445750383
1.437437035
1.423947108
1.406476815
1.388499338
1.366061786
1.339607578
1.31635816
1.288918504
1.259349956
1.237314209
1.212227821
1.183827315
1.164905362
1.145534721
1.116997452
1.096659185
1.083238449
1.06169325
1.036488362
1.024576613
1.011889064
0.9879764243
0.9724639315
0.9625578534
0.9450073912
0.9293904819
1.453859458
1.451505957
1.448891028
1.446967681
1.444457517
1.438660437
1.427401681
1.409427238
1.388895945
1.3676465
1.340654112
1.316110986
1.29212744
1.261051125
1.235809215
1.214450203
1.184349235
1.158649655
1.142631197
1.1212037
1.092426873
1.075428831
1.061904431
1.038253249
1.01580932
1.005139857
0.9909645442
0.9675168073
0.9547502034
0.9438830082
0.9258350555
0.9130045715
1.452027683
1.450522084
1.447927076
1.444358466
1.438437724
1.428826591
1.413276271
1.391478082
1.369305593
1.34306188
1.314958371
1.292528302
1.264064867
1.233900053
1.213233657
1.188152685
1.156148304
1.135821411
1.119567709
1.095804596
1.069909725
1.054481334
1.039694865
1.015346036
0.9960897163
0.9855583312
0.9699269088
0.9489365816
0.9375088519
0.9247862995
0.9075028991
0.8962107459
1.451889513
1.450564574
1.446180172
1.438835244
1.428785497
1.415055279
1.39477461
1.37149152
1.346292622
1.315564647
1.290696236
1.266350289
1.23346858
1.209475607
1.188792816
1.158803333
1.131382399
1.113637945
1.095055317
1.071016637
1.048526372
1.033086742
1.017206166
0.9936057377
0.9764238425
0.965634463
0.9495641737
0.9313397032
0.9193701094
0.9046666179
0.889807207
0.8797473473
1.451094778
1.448248856
1.441236064
1.429917377
1.415595971
1.396583492
1.373338696
1.349162537
1.318843946
1.288999059
1.266381031
1.235701231
1.204844108
1.185920885
1.161101163
1.131016108
1.109429181
1.09008218
1.069852289
1.047933574
1.026964289
1.011240136
0.9953304658
0.9725737356
0.956526666
0.9456796234
0.9295763144
0.9130867207
0.9008680529
0.886143949
0.8735940939
0.8627774537
1.449725528
1.444362977
1.433062924
1.417304795
1.397963019
1.374221129
1.350552856
1.323005626
1.289764296
1.264827385
1.238782724
1.20314324
1.180612533
1.160984834
1.131883335
1.107201675
1.086745801
1.064666733
1.046009969
1.025949932
1.004436961
0.9896032041
0.974275718
0.9509536244
0.9363210802
0.9261334861
0.9098885443
0.8946392882
0.8823164358
0.8678907904
0.8563905892
0.8444936827
1.444689273
1.435395864
1.41998333
1.400654396
1.375920814
1.35049959
1.325704606
1.292806938
1.262905846
1.239947333
1.206697261
1.175426325
1.158044857
1.132774212
1.104375264
1.085013305
1.061768596
1.039546497
1.024137023
1.003159058
0.980995174
0.9687255544
0.9535253765
0.9293914739
0.9172461474
0.906985439
0.8897984401
0.8759144519
0.863096027
0.8491202243
0.8393221136
0.8277514207
1.435288273
1.421924852
1.403604867
1.379552958
1.350871467
1.325964209
1.296462832
1.261583431
1.238040717
1.211499998
1.174486805
1.152694722
1.133069516
1.102089758
1.080333151
1.062351049
1.035192821
1.016148674
1.00243572
0.9781089679
0.9582810788
0.9489779504
0.932333945
0.9087620442
0.8987561309
0.886470458
0.8692145349
0.8576904334
0.8449323851
0.832685434
0.8236353729
0.8104063847
1.42309074
1.405742642
1.383756002
1.354094482
1.325522031
1.29887159
1.263010093
1.233745765
1.212220075
1.178290943
1.146795388
1.130078332
1.103700846
1.073714804
1.058421406
1.037364955
1.008099073
0.9940522194
0.979946659
0.952858906
0.9384222227
0.9298655538
0.9092706853
0.8893844393
0.8800533719
0.8653545548
0.8514093765
0.8410325608
0.8270065522
0.8157425825
0.8066219882
0.7918796428
1.406747451
1.386046004
1.358680749
1.326491518
1.299630369
1.267312428
1.230657064
1.208359964
1.181876588
1.14404405
1.123428278
1.104914625
1.071426574
1.049545207
1.035874712
1.00864018
0.9834564233
0.9734987528
0.9562737291
0.9294134784
0.9193702906
0.90822423
0.8854129048
0.872483364
0.8617125144
0.8460710376
0.835096076
0.8229691464
0.8075472173
0.7984713393
0.7900441201
0.7755341833
1.361834217
1.329097791
1.29938586
1.270913542
1.232298457
1.202763227
1.181348667
1.146401458
1.115677571
1.100575158
1.074603327
1.040979806
1.02746516
1.011035421
0.9797258881
0.9632479822
0.9528790388
0.9297081907
0.9086003383
0.9001080291
0.8846751706
0.8665654719
0.8564384918
0.8414126851
0.8270824579
0.8179903359
0.8038475001
0.7896189128
0.7826135376
0.7738700457
0.7589806861
1.332279762
1.299020167
1.271693549
1.236777472
1.199227796
1.177367319
1.150051922
1.111582854
1.092177237
1.07460885
1.040268826
1.01686302
1.005797837
0.9828749232
0.9549874931
0.9438381584
0.9288715136
0.9036189757
0.8908967805
0.8798185497
0.8621130478
0.849910919
0.8376701093
0.8195334229
0.8093000602
0.8009592097
0.7853656134
0.7738284038
0.7676637084
0.7573707768
0.7423563288
1.299772987
1.270215338
1.240078193
1.199985173
1.172099131
1.150140775
1.113178057
1.083085405
1.069016127
1.044085235
1.010385326
0.9965962888
0.9813652583
0.9524451474
0.9344870037
0.923218022
0.902819005
0.8838417264
0.873163264
0.85668766
0.8413459918
0.8320219544
0.8163676878
0.8001646399
0.7930485052
0.7834583812
0.7669069965
0.7574981045
0.7512732036
0.7393771004
0.7256669503
1.26817871
1.240561732
1.203788244
1.167662745
1.146278449
1.116798129
1.077854206
1.060551575
1.043593528
1.010544463
0.9870081591
0.9746320085
0.9517431519
0.926641667
0.9157922896
0.9003226877
0.8788584844
0.8659723084
0.8520286755
0.8330309878
0.822535572
0.8128832573
0.7949856668
0.7832543663
0.7774064505
0.7660864421
0.7496703349
0.7412837859
0.7343843982
0.722108984
0.7105968179
1.23850357
1.207010858
1.166110724
1.139978199
1.117389529
1.079537918
1.051570515
1.037808616
1.011966063
0.979696134
0.9659813997
0.9494987946
0.9225816049
0.9070815351
0.8953376092
0.8743812077
0.8574327744
0.8465017364
0.8284203352
0.8124690801
0.8051063927
0.7936972863
0.7759211299
0.7663937109
0.7594155269
0.7451640347
0.7300781941
0.7241936633
0.7186293111
0.7083956548
0.6989205615
1.20710725
1.168074584
1.133309156
1.113515902
1.083730151
1.045682146
1.028581325
1.010165733
0.9767583431
0.9562606033
0.9442212057
0.9208490562
0.8979439781
0.8872157252
0.8706142441
0.8491269526
0.8382509384
0.8265070972
0.8064764011
0.794302375
0.7869465369
0.7731203543
0.7571028029
0.7492816995
0.7416661614
0.7278873335
0.7159865459
0.709881419
0.7038820505
0.6935634212
0.6836691469
1.171408928
1.130045139
1.105997587
1.083698597
1.045161499
1.018031583
1.004271096
0.9777629332
0.9479370198
0.9356541838
0.9185992396
0.8907538275
0.8765463789
0.8655533196
0.8440024224
0.8277990145
0.8198688906
0.8056586534
0.7857927316
0.7760017337
0.7674781689
0.7520593482
0.7385109073
0.7312007797
0.7237978307
0.7119418271
0.7017196643
0.6952114139
0.6880486021
0.6760672228
0.6672554129
1.132088491
1.097342345
1.077994022
1.047747335
1.010192805
0.9946001334
0.9768522331
0.943726964
0.9243827786
0.9124647829
0.8879919447
0.8654741083
0.8569937269
0.8425367299
0.8198433948
0.8085445615
0.7993654409
0.7813832069
0.7646912416
0.7576297834
0.7495533798
0.7357505449
0.7242886498
0.7163898231
0.7076881062
0.6942033153
0.6835538871
0.6778806228
0.6718570118
0.661942166
0.6545377136
1.092049766
1.068516476
1.047591693
1.009988937
0.9833792966
0.9699677987
0.9434468745
0.9132139703
0.9024036193
0.8867952294
0.8589132573
0.8457026936
0.83640069
0.8162974955
0.7973640522
0.788863758
0.7778728987
0.760329582
0.7478176601
0.7399045046
0.730646214
0.7173493714
0.706357372
0.6984297349
0.68954902
0.6756906902
0.6678431476
0.6642337407
0.6594914961
0.6494760347
0.641955538
1.058407361
1.041086504
1.012849664
0.9744612488
0.9581677574
0.9411863661
0.90829659
0.8899727734
0.8806039182
0.8583926312
0.8350409674
0.8260590395
0.8120419677
0.7887491568
0.7770688922
0.7688934193
0.7568374892
0.742125985
0.7317591966
0.7231672405
0.712890677
0.6989088099
0.6884020645
0.6817582307
0.67415009
0.6627943802
0.6548852221
0.6508398483
0.645018974
0.6334286627
0.6274584459
1.029581701
1.010194902
0.9727872548
0.9450070729
0.9336186117
0.910442888
0.8799575383
0.8687642147
0.8547555471
0.82707556
0.8134530698
0.8051135032
0.7865473937
0.7691434542
0.7607257489
0.7496677194
0.7359662528
0.7225149851
0.7119577256
0.7030968491
0.6934813318
0.6803866483
0.6718828403
0.6671005909
0.6601604196
0.6474644436
0.639196327
0.6347209274
0.6273178816
0.6178541839
0.6130219299
1.000636023
0.9752624241
0.9366780077
0.920899643
0.9072816626
0.8768394246
0.8553533247
0.8460429188
0.8256620864
0.8014469475
0.7938156984
0.7822204117
0.761707993
0.7500248671
0.7406207197
0.7283569866
0.716622676
0.7046156656
0.6937082306
0.6856133491
0.6770907881
0.6645438639
0.6560609583
0.6504729145
0.6421408197
)
;

boundaryField
{
    inlet
    {
        type            fixedValue;
        value           nonuniform 0();
    }
    outlet
    {
        type            zeroGradient;
    }
    bottom
    {
        type            slip;
    }
    top
    {
        type            slip;
    }
    obstacle
    {
        type            zeroGradient;
    }
    defaultFaces
    {
        type            empty;
    }
    procBoundary4to3
    {
        type            processor;
        value           nonuniform List<scalar> 
62
(
1
1
1
1
1
1
1
1
1
1
1
1
1
1
1
1
1
1
1
1
1
1
1
1
1
1
1
1
1
1
1
1
1
1
1.000000001
1.000000028
1.000000822
1.000016306
1.000216082
1.002029108
1.013391047
1.057969447
1.155866333
1.273267825
1.364156584
1.428372303
1.43827533
1.449360287
1.455425718
1.453928966
1.452178282
1.451444149
1.45099565
1.450726745
1.448494974
1.443205333
1.435500106
1.424233691
1.386866338
1.386866338
1.363346765
1.335209066
)
;
    }
    procBoundary4to5
    {
        type            processor;
        value           nonuniform List<scalar> 
69
(
1
1
1.000000011
1.00000033
1.000007458
1.000114342
1.001196811
1.008338122
1.038737597
1.122900902
1.253421139
1.358522568
1.398700634
1.434906303
1.442907143
1.445414176
1.446812475
1.444941341
1.441330318
1.434442636
1.424849181
1.413281806
1.399304802
1.384084337
1.368612915
1.351616586
1.333288076
1.314241923
1.294659961
1.27489573
1.255382829
1.235771275
1.215058267
1.194780277
1.175814407
1.157839176
1.139376385
1.119473717
1.09977019
1.080758128
1.061182527
1.042217587
1.02382969
1.005039801
0.9880382507
0.9713657074
0.953232101
0.9362365626
0.91966471
0.9019495522
0.8833803659
0.8660446091
0.8476155001
0.8293846004
0.8139490162
0.7966129373
0.7801065114
0.7654715497
0.7503548485
0.7349757556
0.7200042417
0.7053213903
0.693000514
0.6768970356
0.6626877326
0.6508464467
0.6369732376
0.6223998315
0.6088820556
)
;
    }
    procBoundary4to9
    {
        type            processor;
        value           nonuniform List<scalar> 9(1.302152185 1.267458628 1.235216552 1.204166667 1.172124934 1.135411642 1.093824671 1.053633626 1.017383164);
    }
    procBoundary4to10
    {
        type            processor;
        value           nonuniform List<scalar> 
32
(
0.6291755804
0.6257087513
0.6226380172
0.6157719758
0.6069926875
0.6000505009
0.9717165422
0.9385773015
0.9077540892
0.8960947899
0.8756713706
0.8437222487
0.8321786612
0.8216003328
0.7972480919
0.7821300418
0.7751417479
0.7579996424
0.739963214
0.7305926523
0.7186932511
0.7062741196
0.6969490537
0.6862364221
0.6770111722
0.6707019855
0.6617981674
0.6474665723
0.6395740395
0.6349338216
0.6291755804
0.6270859509
)
;
    }
}


// ************************************************************************* //
