/*--------------------------------*- C++ -*----------------------------------*\
  =========                 |
  \\      /  F ield         | OpenFOAM: The Open Source CFD Toolbox
   \\    /   O peration     | Website:  https://openfoam.org
    \\  /    A nd           | Version:  7
     \\/     M anipulation  |
\*---------------------------------------------------------------------------*/
FoamFile
{
    version     2.0;
    format      ascii;
    class       volScalarField;
    location    "4.3";
    object      p;
}
// * * * * * * * * * * * * * * * * * * * * * * * * * * * * * * * * * * * * * //

dimensions      [1 -1 -2 0 0 0 0];

internalField   nonuniform List<scalar> 
2222
(
4.131096096
4.001600901
3.876289141
3.753079069
3.631485296
3.512768994
3.398902528
3.291013123
3.188823787
3.09108747
2.996523747
2.904567226
2.815463812
2.729881519
2.648508679
2.571396656
2.497652282
2.426495698
2.356822527
2.289160829
2.223424148
2.160056858
2.100841953
2.044819477
1.990780289
1.93841482
1.887772611
1.838942842
1.791756972
1.745990554
1.701943768
1.659872093
4.131124141
4.001052839
3.875156907
3.751566765
3.629973718
3.511613336
3.398249091
3.290787206
3.188859161
3.091281185
2.996858232
2.905023651
2.815975348
2.730346818
2.648789346
2.571339292
2.497384239
2.426098864
2.356443541
2.288769489
2.223595244
2.160566899
2.101344581
2.045222315
1.991118451
1.938839626
1.888191014
1.839146524
1.791722479
1.745898766
1.70188654
1.659834066
4.130459057
3.999516413
3.872904488
3.74898276
3.627568089
3.509786762
3.397111997
3.290204366
3.188623664
3.09126732
2.997030168
2.905373621
2.81642105
2.730765886
2.649030045
2.571235721
2.497005385
2.4257833
2.356680479
2.289353497
2.224852103
2.162510665
2.103060202
2.046635948
1.992271375
1.939976553
1.889339901
1.840152857
1.792565629
1.746743982
1.702763726
1.660667728
4.129674619
3.997634211
3.869979434
3.745523044
3.624295587
3.507254464
3.395437334
3.289160789
3.187968558
3.090921029
2.997008136
2.905658177
2.816903647
2.731279269
2.649412771
2.571387046
2.496926679
2.426330117
2.359371264
2.293333933
2.229127944
2.170187645
2.112200936
2.055571532
2.000828282
1.948243446
1.897294805
1.847740085
1.799886179
1.754002055
1.710010286
1.667783707
4.128001923
3.994730511
3.866075752
3.741241309
3.620344192
3.504081637
3.393049224
3.287244468
3.186158412
3.088990721
2.994971451
2.90369185
2.815218804
2.729891753
2.648083646
2.569825593
2.494979804
2.423253616
2.354069621
2.287377794
2.223906923
2.162401537
2.102660239
2.045801326
1.991019376
1.938299042
1.887547253
1.838306692
1.79081457
1.745334874
1.701383441
1.659141782
4.125750033
3.991165506
3.861487398
3.736374478
3.615964211
3.500607999
3.390432781
3.285108951
3.184065857
3.086694613
2.992515386
2.901339776
2.813218892
2.728288356
2.646681925
2.568319231
2.493222245
2.421077721
2.351620705
2.285322635
2.222184465
2.160866953
2.101336457
2.044472149
1.99027632
1.937670395
1.886867841
1.837635776
1.790262813
1.745001572
1.700957968
1.658672799
4.122591695
3.986955618
3.856558956
3.731479767
3.611765478
3.497314607
3.387784022
3.282635091
3.181385479
3.083667581
2.989249635
2.898122472
2.810355974
2.725948974
2.644789769
2.566697157
2.491711896
2.419650436
2.350340437
2.284537365
2.221840217
2.162445089
2.104281331
2.046261256
1.994138042
1.944053931
1.893603662
1.844470823
1.79720114
1.752021005
1.707682186
1.665208106
4.118642635
3.982317814
3.85148432
3.72659091
3.607601176
3.494004309
3.385032698
3.27993475
3.178278976
3.079964956
2.985121922
2.893988971
2.806648254
2.722924742
2.642443913
2.564838111
2.489976394
2.417792599
2.34844168
2.282434287
2.218839963
2.157482853
2.098123727
2.041351779
1.986720512
1.933951489
1.883413801
1.834682368
1.787737462
1.742880283
1.698832155
1.656624122
4.113829201
3.977202194
3.846219469
3.721697281
3.603525074
3.490757926
3.382192439
3.27692616
3.174701711
3.075778453
2.980621213
2.889603605
2.802714129
2.719570483
2.639636528
2.562438292
2.487768018
2.415620251
2.346369186
2.280187302
2.216253995
2.154578014
2.095356763
2.0388502
1.983794995
1.931018673
1.880625816
1.832133634
1.785493815
1.740575618
1.697963898
1.656064631
4.108204981
3.971691933
3.840891005
3.716870738
3.599431735
3.487298418
3.378982101
3.273515773
3.170805849
3.071401463
2.976007652
2.885068447
2.79851058
2.715855062
2.636483774
2.559790496
2.485441779
2.413379763
2.344098682
2.277627926
2.213528649
2.151951563
2.093053873
2.036951905
1.982367548
1.929963859
1.879689598
1.831279189
1.784793395
1.739221325
1.700503082
1.661984791
4.101690231
3.965639572
3.835288582
3.71181835
3.59497069
3.483288927
3.375126509
3.269495298
3.166441155
3.066737407
2.971267432
2.880522372
2.794355957
2.712160852
2.633187067
2.556758673
2.482548773
2.410538692
2.341226947
2.274628212
2.210582672
2.149213732
2.090585249
2.03412435
1.97931803
1.926982278
1.877049504
1.829197462
1.783048632
1.738304875
1.695593361
1.653271706
4.094148796
3.958858079
3.829241651
3.706378855
3.589921452
3.478409361
3.370265767
3.264590588
3.161504962
3.061846883
2.966539196
2.876050114
2.79016872
2.708256775
2.629549154
2.553366689
2.47935034
2.40745965
2.338103365
2.271398088
2.207393643
2.146115751
2.087690898
2.031261426
1.97666477
1.924473347
1.874721544
1.827305481
1.781513609
1.737131806
1.693201397
1.650844591
4.085590559
3.951286159
3.822614585
3.700345632
3.584029777
3.472396711
3.364164567
3.258613172
3.155846106
3.056581805
2.961653591
2.871496901
2.785893587
2.704202266
2.625637118
2.549545238
2.475625335
2.403846956
2.334542141
2.267903691
2.204116518
2.143104783
2.084962269
2.028883372
1.974694347
1.922670545
1.872872689
1.825373456
1.77964485
1.735432612
1.691305928
1.649152069
4.076171223
3.942946149
3.815282437
3.69354815
3.577196298
3.465254913
3.356878813
3.251591668
3.149429223
3.050872644
2.956557939
2.866838294
2.781497662
2.699933768
2.621407374
2.545331928
2.471480014
2.399838048
2.330731797
2.264353853
2.200935247
2.140305675
2.082408292
2.02662832
1.972693284
1.920738852
1.870782268
1.822918691
1.777186384
1.733471394
1.690056946
1.647606522
4.066123554
3.933966892
3.807244662
3.685947678
3.569466842
3.457167089
3.348662499
3.243726448
3.142329594
3.044691538
2.951185449
2.862020124
2.776963081
2.695456192
2.616831336
2.540633219
2.466798083
2.395397311
2.326734822
2.260872816
2.197947488
2.137672399
2.079867803
2.024144706
1.97029285
1.918504165
1.868803853
1.821090265
1.775380185
1.731253368
1.687817865
1.645319321
4.055695689
3.924541852
3.798587286
3.677578949
3.560963592
3.448430125
3.339931399
3.235408637
3.134793836
3.038111175
2.945485813
2.856939539
2.77218159
2.690700772
2.611938571
2.535600563
2.461770935
2.390623404
2.322446116
2.257189811
2.194809587
2.134939127
2.077422178
2.022013239
1.968396391
1.91649124
1.866481267
1.818467679
1.772442899
1.728078483
1.685122641
1.643600818
4.044970377
3.91476115
3.789398053
3.668555009
3.551875137
3.439316165
3.33098354
3.226876518
3.126937015
3.031118152
2.939377733
2.851538685
2.767182933
2.685784397
2.606867663
2.530311883
2.456397468
2.385485839
2.317873862
2.253408607
2.191757497
2.132366211
2.074994297
2.019414082
1.965520572
1.913425547
1.863442384
1.815709986
1.770070757
1.725964291
1.682952227
1.641233932
4.033894583
3.904652158
3.779788185
3.659026462
3.542339942
3.42992776
3.321904232
3.218231365
3.11887552
3.023793977
2.932837384
2.845645566
2.761670067
2.680379099
2.601394725
2.524765626
2.450923393
2.380326407
2.313201965
2.249331877
2.188205092
2.129208795
2.072093085
2.016631643
1.962852412
1.91090049
1.860879458
1.812927254
1.767054236
1.722807632
1.679886696
1.638647111
4.022226543
3.894030781
3.769708178
3.649048396
3.53241632
3.420259914
3.312650433
3.209443233
3.110585588
3.016074442
2.925759409
2.83917363
2.755629123
2.674547828
2.595625491
2.519041313
2.445311755
2.374963292
2.308255465
2.244999295
2.184486084
2.125924225
2.068940938
2.013318832
1.95924463
1.907042341
1.856945112
1.809210617
1.763820265
1.720199614
1.677892148
1.636839155
4.009752094
3.882682882
3.759028002
3.638578318
3.522056868
3.410163876
3.302978299
3.200279771
3.101963452
3.007989639
2.918153007
2.831933514
2.748661599
2.667831339
2.589202204
2.512994967
2.439727383
2.369889515
2.303639584
2.240692994
2.180309189
2.121833415
2.064927414
2.009362651
1.955345872
1.90329856
1.853485734
1.805928497
1.760454616
1.716778598
1.674763361
1.634219504
3.996232574
3.870219772
3.747380199
3.627396053
3.511178487
3.399618919
3.292893746
3.190772784
3.093044099
2.999557666
2.910077882
2.824111759
2.741054069
2.660483976
2.582249253
2.506599497
2.433955588
2.364636944
2.298737629
2.236039484
2.175879284
2.117585602
2.060727794
2.005169145
1.951195319
1.899183575
1.849364911
1.801810134
1.756519571
1.713333055
1.67201504
1.632019466
3.981827206
3.85660881
3.734559716
3.615277705
3.499647486
3.388576677
3.282362687
3.180871293
3.083817175
2.990876474
2.90168788
2.815784015
2.732756656
2.652399704
2.574676038
2.499801117
2.428033137
2.359480003
2.294094686
2.231529164
2.17115441
2.112538294
2.055490067
2.000020309
1.946367397
1.894802302
1.845546651
1.79854501
1.753449376
1.710010942
1.668387374
1.628606791
3.966797022
3.841905691
3.720480861
3.602145805
3.487513145
3.377244141
3.271681232
3.170838469
3.074410911
2.981941098
2.892974109
2.807095409
2.724099972
2.643977952
2.566790866
2.492704586
2.421789173
2.353897605
2.288859267
2.226362488
2.165978448
2.107408739
2.050464022
1.995167336
1.941775761
1.890555186
1.841642899
1.794839727
1.7498317
1.706627377
1.665330938
1.625521371
3.951545355
3.826551351
3.705392383
3.588006623
3.474673893
3.365545565
3.260833113
3.160693934
3.064891629
2.972921625
2.884232159
2.798401494
2.715381181
2.63536973
2.558579547
2.485179932
2.415107475
2.34798808
2.283461708
2.221110631
2.16058213
2.101765999
2.044683262
1.989496989
1.936479995
1.885835524
1.83756762
1.791323655
1.74672945
1.703646135
1.661926541
1.621404321
3.936203279
3.810899149
3.689844009
3.573393718
3.461434555
3.35354271
3.249773181
3.150349798
3.055081191
2.963482218
2.874992289
2.789250514
2.706362062
2.626683978
2.550501003
2.477863854
2.408485212
2.341824815
2.277472627
2.215064988
2.154442919
2.095675363
2.038858474
1.984141128
1.931691475
1.881576929
1.833714962
1.78774603
1.743334301
1.700379185
1.658866037
1.618768348
3.920493654
3.795042863
3.674111824
3.558475302
3.447676308
3.340912606
3.238162916
3.139566658
3.04488924
2.953668805
2.865394363
2.779815844
2.69714241
2.617795751
2.542099786
2.470065271
2.401318475
2.335247611
2.27134218
2.209163983
2.148606862
2.089858089
2.033143425
1.978681028
1.92661006
1.876956181
1.829597705
1.784079009
1.739946012
1.697046244
1.655499766
1.615359076
3.903820592
3.778632045
3.658202329
3.543449549
3.433497886
3.327533461
3.225660117
3.127882444
3.033838806
2.943013684
2.854989936
2.769698102
2.687442686
2.608672252
2.533714279
2.462496111
2.394441792
2.328767294
2.264929666
2.202637567
2.142008751
2.083396298
2.027108217
1.973318916
1.921978014
1.872907525
1.825881395
1.780429604
1.736162715
1.693069819
1.651473174
1.611563067
3.885617959
3.761967487
3.642775345
3.52862862
3.418736623
3.313086739
3.212031943
3.115176221
3.021817044
2.9314187
2.843761828
2.758937398
2.677306096
2.599290178
2.525090279
2.454530954
2.387026877
2.321807009
2.258293398
2.196207239
2.135760103
2.077394527
2.021465463
1.968131533
1.917273617
1.86864667
1.821981622
1.776817455
1.732805566
1.689866041
1.648172615
1.608068642
3.866277274
3.743774429
3.625926536
3.512884788
3.4036747
3.298755653
3.198435019
3.102099341
3.009123137
2.919198563
2.832114266
2.747867433
2.666846859
2.589579255
2.51621193
2.446422658
2.379527285
2.314688132
2.251335939
2.189332
2.129015835
2.07088973
2.015359534
1.962580359
1.912335808
1.864217875
1.817813375
1.772668989
1.72858321
1.685591622
1.643868866
1.603757383
3.846053685
3.724565161
3.608647012
3.496661907
3.387801827
3.283419329
3.18375279
3.088108713
2.996024605
2.906968638
2.820517048
2.736872471
2.656599892
2.580206335
2.507626624
2.438276746
2.371441486
2.30657294
2.243386438
2.181777381
2.121986187
2.064465265
2.00958033
1.957385732
1.907580047
1.85969524
1.813297236
1.768043199
1.723947993
1.681267967
1.640238148
1.600891774
3.82373395
3.704410987
3.591226853
3.480142324
3.371887085
3.268211241
3.168885661
3.073733572
2.982491455
2.89427372
2.808534645
2.725741601
2.646319264
2.570671013
2.498685303
2.429767907
2.363156708
2.298328681
2.235157964
2.173758272
2.114435518
2.057537785
2.003297307
1.951680763
1.902328913
1.85468893
1.808295333
1.762925158
1.718776413
1.676241298
1.635591192
1.596707912
3.804761921
3.686360453
3.572264099
3.461706247
3.355617107
3.253276514
3.154331265
3.059656871
2.968772522
2.880831074
2.795787898
2.714219797
2.6361805
2.561702962
2.490174639
2.421098122
2.354163994
2.289101141
2.22591395
2.164886275
2.106320419
2.050350513
1.996970474
1.945994179
1.896972139
1.849331653
1.802731952
1.757165463
1.712996699
1.670692541
1.630515328
1.592327276
3.784046172
3.666387916
3.552619511
3.443547388
3.338864265
3.237336878
3.139620679
3.045844413
2.955077553
2.867100443
2.782805067
2.702156243
2.625068972
2.551463867
2.480594784
2.411946976
2.345155268
2.280122748
2.217109798
2.156498922
2.098563947
2.043363534
1.990721218
1.940275138
1.891514714
1.843922387
1.797284986
1.751740172
1.707766313
1.665847951
1.626071548
1.588044059
3.757856652
3.643557009
3.533153432
3.424848977
3.319612752
3.219187261
3.123568762
3.030505261
2.939924935
2.852836273
2.769585904
2.689668142
2.613482774
2.540559816
2.470131646
2.401874247
2.335435529
2.27070509
2.208021889
2.147864003
2.090588844
2.036201269
1.984333474
1.934421486
1.885897085
1.838339539
1.791716372
1.746301994
1.702569077
1.660874501
1.621210461
1.58324363
3.735226646
3.621093683
3.509346471
3.40232673
3.300470782
3.202424295
3.106706475
3.01349104
2.924063395
2.83810018
2.755437267
2.676673934
2.601836937
2.529508828
2.459254647
2.391144337
2.324946356
2.260750173
2.198893191
2.139584786
2.08306245
2.029255331
1.977790008
1.928090616
1.879647456
1.832161164
1.785758372
1.740768181
1.697535434
1.656239688
1.616825586
1.579037298
3.708777303
3.594985011
3.48581908
3.382042443
3.282256024
3.184938924
3.090014691
2.998040187
2.909326749
2.823779553
2.742285141
2.664939437
2.590554031
2.518368056
2.448373518
2.380420734
2.314466608
2.250893325
2.189738658
2.131184307
2.075422699
2.022202382
1.971053594
1.92140334
1.872941055
1.82557833
1.779587214
1.735251748
1.692704476
1.651906812
1.612670893
1.574738473
3.678126777
3.56756449
3.461338636
3.359244588
3.260479017
3.164446477
3.071055976
2.980187533
2.892212692
2.808162056
2.728796247
2.652949495
2.579377272
2.507682967
2.437724061
2.369794653
2.30434994
2.241478269
2.1808799
2.122947736
2.06768362
2.014838873
1.963869777
1.91422069
1.865704688
1.818419108
1.772794233
1.729100372
1.687292028
1.647083669
1.608135242
1.570256416
3.647466368
3.537239817
3.43365073
3.334497604
3.23750384
3.142741581
3.050478595
2.96071488
2.874274681
2.79169951
2.713414641
2.638349105
2.565965205
2.495066429
2.425808131
2.358702934
2.294050585
2.231868367
2.172295049
2.11518396
2.060257077
2.007361669
1.956266453
1.906610538
1.858207491
1.811183619
1.76599348
1.722889844
1.681703712
1.641967796
1.603282766
1.565519728
3.614577838
3.508449238
3.407372526
3.310052168
3.214044868
3.120754017
3.029929042
2.941428177
2.856434589
2.775599133
2.698913356
2.624584875
2.552046715
2.480901188
2.412266864
2.346360298
2.28310903
2.222152602
2.163606118
2.10725848
2.052861373
1.999931407
1.948676825
1.898967816
1.850719531
1.804125923
1.759447447
1.716737955
1.675804166
1.636269301
1.597846832
1.560435689
3.578697131
3.473810328
3.375916875
3.281604545
3.186202098
3.094886963
3.006320556
2.919808923
2.837360121
2.759023956
2.683606671
2.610104131
2.538601602
2.468299298
2.400126615
2.334653791
2.272204897
2.212300336
2.154694538
2.099005788
2.044874404
1.992214859
1.941073326
1.891466325
1.84361571
1.797480406
1.753119761
1.710655813
1.669905711
1.630563318
1.592453529
1.55545616
3.541160124
3.437850847
3.339484516
3.24954364
3.161380646
3.072021461
2.982716069
2.89668898
2.816652988
2.74060649
2.666205919
2.593598375
2.522811005
2.453612717
2.387231522
2.322998063
2.261145349
2.201675124
2.144781946
2.089621081
2.035666859
1.98331307
1.932597801
1.883773511
1.836847742
1.791327348
1.747227562
1.704770128
1.663917549
1.624646628
1.586866222
1.550323259
3.522681434
3.431893873
3.337145879
3.240293658
3.136187258
3.04457485
2.957853462
2.876100608
2.798945243
2.722727859
2.648530567
2.576551499
2.506501504
2.438865044
2.373997732
2.310809779
2.250030276
2.191194593
2.134481382
2.079262979
2.025596402
1.97356877
1.923273468
1.875173894
1.829102639
1.784610166
1.741227353
1.698862045
1.657862221
1.618579891
1.581059796
1.545032695
3.474048551
3.374389047
3.282367405
3.18501152
3.10576583
3.020818784
2.934246216
2.851797415
2.775765175
2.701446316
2.628715266
2.557005391
2.487988224
2.421999932
2.358636636
2.296874074
2.236842454
2.178674637
2.122865525
2.068246361
2.015193798
1.96376575
1.914216315
1.866678328
1.82098905
1.776880409
1.734109959
1.692197403
1.65150938
1.612463281
1.575241503
1.539594993
3.431128348
3.33581243
3.245131094
3.154726584
3.076060852
2.990509816
2.905922717
2.824609679
2.747748364
2.673161632
2.605766169
2.538529482
2.471819002
2.40680947
2.34388374
2.282857763
2.223571505
2.166378126
2.11111525
2.057045944
2.004993343
1.954038936
1.904937465
1.857902141
1.81270171
1.768987505
1.726530484
1.685190259
1.645116291
1.606464762
1.56959017
1.534080499
3.395965976
3.304208763
3.211141482
3.131756236
3.05396025
2.978861496
2.90181572
2.824541986
2.749456315
2.676340733
2.59372673
2.519369296
2.452177849
2.38788434
2.325955832
2.265786585
2.207465456
2.151541047
2.0974789
2.045285364
1.994383884
1.943980468
1.89532576
1.848255399
1.803153563
1.760020305
1.718405768
1.678154594
1.639101197
1.601186085
1.564455812
1.528742926
3.354547452
3.262370337
3.173866587
3.093496995
3.01171965
2.93396273
2.858007498
2.783091453
2.709075108
2.640434377
2.566882432
2.496658468
2.432355188
2.369772896
2.307798995
2.24839399
2.192508509
2.138626043
2.086040771
2.034893815
1.984588668
1.93507978
1.886429337
1.839314374
1.794118282
1.750798884
1.70950175
1.670206856
1.632385481
1.595578983
1.559253787
1.523660489
3.315324938
3.223515921
3.140063024
3.059963143
2.978492737
2.901927433
2.828408579
2.754437188
2.680968432
2.61354689
2.546268706
2.479783202
2.415583228
2.352054884
2.293102407
2.235107932
2.178667081
2.124537326
2.072407618
2.022567481
1.973816044
1.925115705
1.877193943
1.831092236
1.786196803
1.742901385
1.701266485
1.661919055
1.624619464
1.588577473
1.553057677
1.517843801
3.273894961
3.186230944
3.105519556
3.025693144
2.946355166
2.870392424
2.796912745
2.725180804
2.65512402
2.587452535
2.535780067
2.478690842
2.41556622
2.353482549
2.285600595
2.221587471
2.16433248
2.111139095
2.059929991
2.010710412
1.962702143
1.914842066
1.867936974
1.822588111
1.778377426
1.735559786
1.694261616
1.6553807
1.618090444
1.58189891
1.546330726
1.511122706
3.232001211
3.150192281
3.071158171
2.992101963
2.913807359
2.83862979
2.767551032
2.699658419
2.631480698
2.563864894
2.504036127
2.44314076
2.380240618
2.3203381
2.263297873
2.2032871
2.147414817
2.097546907
2.048724185
1.997573254
1.948704279
1.901881091
1.856458886
1.812510107
1.769781181
1.727959157
1.687379618
1.648534095
1.610888612
1.574621873
1.539085523
1.504163712
3.189854442
3.112076769
3.034496975
2.957330665
2.881467796
2.808977045
2.739858889
2.671911169
2.604074909
2.538525721
2.478835868
2.419722798
2.358340886
2.297998832
2.246663271
2.202189001
2.150398931
2.095876726
2.035531523
1.982314329
1.933791027
1.889300646
1.846395735
1.803857385
1.761631622
1.720407233
1.680794467
1.642382308
1.605026945
1.568419762
1.532768508
1.497936919
3.147403308
3.072315445
2.997168185
2.923098334
2.849953545
2.778283928
2.708421726
2.641911328
2.576815678
2.515040834
2.45546308
2.39506049
2.33778993
2.281659328
2.227123315
2.171984074
2.121341535
2.065758874
2.016063246
1.969441257
1.922005197
1.877119461
1.834130641
1.791241283
1.749693035
1.710302255
1.672323609
1.634934988
1.59771219
1.560991191
1.525286665
1.490648509
3.104370496
3.031993567
2.960133439
2.88867193
2.81675202
2.74538536
2.677020073
2.614556793
2.552784538
2.491289789
2.429864586
2.372229348
2.316937539
2.260503655
2.206180347
2.151465614
2.101283459
2.049296562
2.002264874
1.957330974
1.907098691
1.860563296
1.81793277
1.777591415
1.739161098
1.702217529
1.665235809
1.627795667
1.590416996
1.553876332
1.518578644
1.484624172
3.062061889
2.991677281
2.921259657
2.850974025
2.78124569
2.713223288
2.648594873
2.587659408
2.526128383
2.463749021
2.403835341
2.349463741
2.295279646
2.241725006
2.18816821
2.136596804
2.084934861
2.039284333
1.999998476
1.951859751
1.898475728
1.849501498
1.805833569
1.765487545
1.727857296
1.691224288
1.654353154
1.617403524
1.580827421
1.545016915
1.510306451
1.477083148
3.019256172
2.949717884
2.880751491
2.813453997
2.7480446
2.683191309
2.619182176
2.556630918
2.49612038
2.436810689
2.381529316
2.32850072
2.27410558
2.220908532
2.167371644
2.116024329
2.065126278
2.019883526
1.974024747
1.929912152
1.895700997
1.849904452
1.798007141
1.753295317
1.714451924
1.677867892
1.642612466
1.60755014
1.572300391
1.53692596
1.502388093
1.469546436
2.973990102
2.907006909
2.841728137
2.778020992
2.714911211
2.650376712
2.586340874
2.524925421
2.468767515
2.414354961
2.360690428
2.304900478
2.24948429
2.196750498
2.146611131
2.099918975
2.051430025
2.004562141
1.955928035
1.912320022
1.87004253
1.827596383
1.784081899
1.742029303
1.70408824
1.667521793
1.632412811
1.598301421
1.564225173
1.529768072
1.495664724
1.46265188
2.930338554
2.867316888
2.805296072
2.742601175
2.679157113
2.615114152
2.554044625
2.496905131
2.44405356
2.39061071
2.334499154
2.277325509
2.224404113
2.175535339
2.130603183
2.083837203
2.034247831
1.985777582
1.937870756
1.894026507
1.850142271
1.813824831
1.782450887
1.744433717
1.700431381
1.659123488
1.622738883
1.587547719
1.553398073
1.519685913
1.485802145
1.453586727
2.827946762
2.766155209
2.703303925
2.641702962
2.582262619
2.525888328
2.470410693
2.415733946
2.360666041
2.3050063
2.252906795
2.20614822
2.159996551
2.111834275
2.0608432
2.013140991
1.967158452
1.924996518
1.884640449
1.838242504
1.796919056
1.76022881
1.724715881
1.686123623
1.647610394
1.611840224
1.577923746
1.545839869
1.51330497
1.481092183
1.449898727
2.786152472
2.725518948
2.666230889
2.609151242
2.552493205
2.495178843
2.437170416
2.381954043
2.33090112
2.282052605
2.235848169
2.188571019
2.137794231
2.085731467
2.036720975
1.994778482
1.954053635
1.91221158
1.867188031
1.822409723
1.781335013
1.743971628
1.710052536
1.681292541
1.647254588
1.60960735
1.56981326
1.532882781
1.500513133
1.470608196
1.440897605
2.743315947
2.687011698
2.631706999
2.575388231
2.517129683
2.458428268
2.40300325
2.354258465
2.309375309
2.262923268
2.213714751
2.161980881
2.110691698
2.062922325
2.021019632
1.981824178
1.938595733
1.893062021
1.849034097
1.812586614
1.776981355
1.737343025
1.698196061
1.661752209
1.626491253
1.591399061
1.558443121
1.522469632
1.490014153
1.460069566
1.431257564
2.703695532
2.649539494
2.593669848
2.535692833
2.478677131
2.425393346
2.377051881
2.331582393
2.284643471
2.234392201
2.18271571
2.133941344
2.089497962
2.047318098
2.006005236
1.962550478
1.916951435
1.872380461
1.831085719
1.793574676
1.756698266
1.719935372
1.683039047
1.646567821
1.611781897
1.580014738
1.550501987
1.515116617
1.4812812
1.451442503
1.42253832
2.661252147
2.606191661
2.550936687
2.497357749
2.44754678
2.399524371
2.351436608
2.302231111
2.251844196
2.202877056
2.157685335
2.115972299
2.074395847
2.030395538
1.984315698
1.938149918
1.895054436
1.853528148
1.813646475
1.777130941
1.742050038
1.708333397
1.674550167
1.638257635
1.604810269
1.571180654
1.535698889
1.510066845
1.482636816
1.450631949
1.415284395
2.615446465
2.56317016
2.513614314
2.465634326
2.41793444
2.36845848
2.317608375
2.267636386
2.221470602
2.179417236
2.138727442
2.096717331
2.05211416
2.005165371
1.958503541
1.916126333
1.878946041
1.84347515
1.806260492
1.767178024
1.728398451
1.691856682
1.657800206
1.624233962
1.591221071
1.557404073
1.524483369
1.496690088
1.46628876
1.434444977
1.405439756
2.572026746
2.524782275
2.478611505
2.431183826
2.381903948
2.331865353
2.283904782
2.23976397
2.199209752
2.158757893
2.115431093
2.069328292
2.023211265
1.979812297
1.939634396
1.902380841
1.865694031
1.826769462
1.786673627
1.74721328
1.709195615
1.673711358
1.641307661
1.612514376
1.583120503
1.549870889
1.519551799
1.488367372
1.457024476
1.426923291
1.399234211
2.532781182
2.486981022
2.439984531
2.391435419
2.343311927
2.298328967
2.256371048
2.215531143
2.174310427
2.130743718
2.0851144
2.040413895
1.999868348
1.962829137
1.926093963
1.887922436
1.847632356
1.807174402
1.770173972
1.734891974
1.700006753
1.666785083
1.634914559
1.602766009
1.569465652
1.53694843
1.506549221
1.474907856
1.44509895
1.424082158
1.399229417
2.49054801
2.444109123
2.397339365
2.35213913
2.309729545
2.269679245
2.229485953
2.187310572
2.14342846
2.099528551
2.057895452
2.018724083
1.981613735
1.944852465
1.906308158
1.865046613
1.823287389
1.785499922
1.751002454
1.717543167
1.68436655
1.651423057
1.618158569
1.584982882
1.554676507
1.527135633
1.497867988
1.466788143
1.438768255
1.410525875
1.381417382
2.445100627
2.401288841
2.358875064
2.318064357
2.278097309
2.238035715
2.196331799
2.153101827
2.110942657
2.072170952
2.036200757
2.000245853
1.962447502
1.922559924
1.881860823
1.842627492
1.807217543
1.773144556
1.738711624
1.704488316
1.670449321
1.636420699
1.603353805
1.573062879
1.544308132
1.514766892
1.484455529
1.454241746
1.427070581
1.3979474
1.370398168
2.40178312
2.362407625
2.323187962
2.283552887
2.243131122
2.202370933
2.16183891
2.123128008
2.087076938
2.052556058
2.016797781
1.977775886
1.936105962
1.895098302
1.857387734
1.823085683
1.790398417
1.756950034
1.722304276
1.687858626
1.655115145
1.62376455
1.592834046
1.561745211
1.531271083
1.501803004
1.472262085
1.443259192
1.415017897
1.38631061
1.361387873
2.362022887
2.324850397
2.285784886
2.245216218
2.204925302
2.166988217
2.131656706
2.097907362
2.063654989
2.027257392
1.987961422
1.946575593
1.906756742
1.871715219
1.840720987
1.809531953
1.775816886
1.740647808
1.705252985
1.67023626
1.636054021
1.604527816
1.574853899
1.545856921
1.517529978
1.489221465
1.459812378
1.432201363
1.40504032
1.378508136
1.35522159
2.32012153
2.283022066
2.244130304
2.205977554
2.170614127
2.137768779
2.105568773
2.071818326
2.034851566
1.995768715
1.957379617
1.921175862
1.887584671
1.855512618
1.823320338
1.789557871
1.754353303
1.719426877
1.685920325
1.65305738
1.622496278
1.593549576
1.564079987
1.534337685
1.504671791
1.475924912
1.450292428
1.425421399
1.397924952
1.371064934
1.345183687
2.275235721
2.240390886
2.205132462
2.171349391
2.139298241
2.107345768
2.07398122
2.038280453
2.000795558
1.96454559
1.931376391
1.899965166
1.868387582
1.835937091
1.802007414
1.76713076
1.733381787
1.700804688
1.668699301
1.638742427
1.610401306
1.580220812
1.54976524
1.520250547
1.492553264
1.465992468
1.439336627
)
;

boundaryField
{
    inlet
    {
        type            fixedValue;
        value           nonuniform 0();
    }
    outlet
    {
        type            zeroGradient;
    }
    bottom
    {
        type            slip;
    }
    top
    {
        type            slip;
    }
    obstacle
    {
        type            zeroGradient;
    }
    defaultFaces
    {
        type            empty;
    }
    procBoundary4to3
    {
        type            processor;
        value           nonuniform List<scalar> 
62
(
4.267646289
4.267955941
4.267926402
4.267857157
4.267109855
4.265759276
4.263263973
4.259637809
4.254767292
4.248758225
4.241639084
4.233392928
4.224079
4.21387835
4.20301445
4.191693733
4.179975433
4.167781219
4.15493853
4.141329332
4.126948989
4.111983172
4.096759339
4.081410306
4.065947796
4.04985849
4.03255728
4.01303383
3.992885798
3.9726442
3.951303509
3.928847008
3.906314975
3.878415211
3.852278632
3.826018321
3.791850466
3.763405043
3.72540131
3.696406818
3.649847852
3.608505277
3.579486868
3.530610708
3.49095394
3.448766715
3.407324527
3.363284853
3.317675383
3.271585404
3.22624963
3.180965879
3.135903112
3.09140173
3.044520004
2.997400017
2.888854121
2.888854121
2.847012264
2.801665051
2.757858062
2.714820576
)
;
    }
    procBoundary4to5
    {
        type            processor;
        value           nonuniform List<scalar> 
69
(
1.619490798
1.619426817
1.620183855
1.627105337
1.618603691
1.618155264
1.624553375
1.616221294
1.615592207
1.621726888
1.612320765
1.610117624
1.609031771
1.607103527
1.604749242
1.60352234
1.600880346
1.598979513
1.596784747
1.594704864
1.592691029
1.5900802
1.586894968
1.582522509
1.580028498
1.576370593
1.573216812
1.569851944
1.565699243
1.563077386
1.559121157
1.555622765
1.551279221
1.546617428
1.542525805
1.537923284
1.533473309
1.528788631
1.524138144
1.519537013
1.514836456
1.51011849
1.50500843
1.499619719
1.494131791
1.48866886
1.482983087
1.476573912
1.470040755
1.464163896
1.457610394
1.451853962
1.445133305
1.438143407
1.431086628
1.423197418
1.419288089
1.4112264
1.403102947
1.39404046
1.384522511
1.377136446
1.369847378
1.365684693
1.359991977
1.346577742
1.336398739
1.330310986
1.319052553
)
;
    }
    procBoundary4to9
    {
        type            processor;
        value           nonuniform List<scalar> 9(2.669071085 2.621368392 2.578289707 2.535403346 2.48924333 2.441469383 2.397668474 2.354432616 2.308701939);
    }
    procBoundary4to10
    {
        type            processor;
        value           nonuniform List<scalar> 
32
(
1.41172092
1.384294674
1.35820746
1.332995065
2.23058529
2.199047419
2.167419729
2.136598471
2.105830402
2.073698922
2.040187413
2.006247397
1.972888776
1.9407493
1.909692911
1.878543001
1.84583173
1.810658952
1.774844632
1.742435167
1.712692172
1.683366689
1.65394024
1.62320815
1.591507163
1.560748029
1.532113688