/*--------------------------------*- C++ -*----------------------------------*\
  =========                 |
  \\      /  F ield         | OpenFOAM: The Open Source CFD Toolbox
   \\    /   O peration     | Website:  https://openfoam.org
    \\  /    A nd           | Version:  7
     \\/     M anipulation  |
\*---------------------------------------------------------------------------*/
FoamFile
{
    version     2.0;
    format      ascii;
    class       volScalarField;
    location    "3.9";
    object      p;
}
// * * * * * * * * * * * * * * * * * * * * * * * * * * * * * * * * * * * * * //

dimensions      [1 -1 -2 0 0 0 0];

internalField   nonuniform List<scalar> 10(1.010269004 1.028737592 1.01073454 1.023720547 1.012228576 0.9979551048 0.9786073781 0.9995924116 1.023405843 1.057679126);

boundaryField
{
    inlet
    {
        type            fixedValue;
        value           nonuniform 0();
    }
    outlet
    {
        type            zeroGradient;
    }
    bottom
    {
        type            slip;
    }
    top
    {
        type            slip;
    }
    obstacle
    {
        type            zeroGradient;
    }
    defaultFaces
    {
        type            empty;
    }
    procBoundary35to28
    {
        type            processor;
        value           nonuniform List<scalar> 4(1.034086692 1.017480035 0.9734508638 0.9734508638);
    }
    procBoundary35to29
    {
        type            processor;
        value           nonuniform List<scalar> 3(1.010101746 1.027580752 1.027580752);
    }
    procBoundary35to34
    {
        type            processor;
        value           nonuniform List<scalar> 4(0.9581344692 0.9984338742 1.04504884 1.071991692);
    }
}


// ************************************************************************* //
