/*--------------------------------*- C++ -*----------------------------------*\
  =========                 |
  \\      /  F ield         | OpenFOAM: The Open Source CFD Toolbox
   \\    /   O peration     | Website:  https://openfoam.org
    \\  /    A nd           | Version:  7
     \\/     M anipulation  |
\*---------------------------------------------------------------------------*/
FoamFile
{
    version     2.0;
    format      ascii;
    class       volVectorField;
    location    "3.7";
    object      U;
}
// * * * * * * * * * * * * * * * * * * * * * * * * * * * * * * * * * * * * * //

dimensions      [0 1 -1 0 0 0 0];

internalField   nonuniform List<vector> 
80000
(
(3 -1.423116124e-15 0)
(3 -5.105864532e-15 0)
(3 -7.508700909e-15 0)
(3 -7.656550583e-15 0)
(3 -6.972473026e-15 0)
(3 -4.783761424e-15 0)
(3 -3.045087377e-15 0)
(3 -2.440753142e-16 0)
(3 1.31014393e-15 0)
(3 2.455171453e-15 0)
(3 1.896388559e-15 0)
(3 6.004413994e-16 0)
(3 -1.070434092e-15 0)
(3 -3.513225489e-15 0)
(3 -4.060048299e-15 0)
(3 -3.964034656e-15 0)
(3 -2.770037787e-15 0)
(3 -2.305157991e-15 0)
(3 6.856997794e-16 0)
(3 2.791521597e-16 0)
(3 -5.920632721e-16 0)
(3 -1.055295856e-17 0)
(3 1.313013905e-15 0)
(3 2.377254613e-15 0)
(3 2.093805432e-15 0)
(3 2.295509339e-15 0)
(3 2.755503903e-15 0)
(3 1.345703358e-15 0)
(3 2.707026568e-15 0)
(3 4.167973924e-15 0)
(3 2.831208478e-15 0)
(3 3.938641839e-15 0)
(3 4.242939132e-15 0)
(3 4.582810609e-15 0)
(3 4.420875376e-15 0)
(3 5.849489827e-15 0)
(3 5.683136535e-15 0)
(3 5.657356851e-15 0)
(3 3.513443816e-15 0)
(3 5.836867873e-15 0)
(3 6.633120195e-15 0)
(3 5.104237027e-15 0)
(3 4.852998957e-15 0)
(3 5.404899064e-15 0)
(3 3.496626693e-15 0)
(3 -3.350342601e-15 0)
(3 -5.438827981e-15 0)
(3 -7.16373323e-15 0)
(3 -9.136850463e-15 0)
(3 -9.980852129e-15 0)
(3 -1.340418359e-14 0)
(3 -1.167967169e-14 0)
(3 -7.66412156e-15 0)
(3 -5.522522683e-15 0)
(3 -3.871041379e-15 0)
(3 -2.520231715e-15 0)
(3 -3.432867843e-15 0)
(3 -1.713553285e-15 0)
(3 2.047928059e-16 0)
(3 3.799413515e-15 0)
(3 6.292945349e-15 0)
(3 2.763349434e-15 0)
(3 -2.004753541e-15 0)
(3 -1.353036304e-15 0)
(3 1.171583801e-15 0)
(3 2.745174278e-15 0)
(3 2.797949525e-15 0)
(3 6.192632776e-15 0)
(3 7.651531686e-15 0)
(3 8.812808168e-15 0)
(3 7.531792397e-15 0)
(3 2.171291287e-15 0)
(3 -2.376211739e-15 0)
(3 -3.20957043e-15 0)
(3 -2.857186376e-15 0)
(3 -2.741586702e-15 0)
(3 -2.459602759e-15 0)
(3 -4.534553774e-15 0)
(3 -6.670497785e-15 0)
(3 -6.93161111e-15 0)
(3 -9.023948455e-15 0)
(3 -1.001209443e-14 0)
(3 -1.257667878e-14 0)
(3 -1.450041481e-14 0)
(3 -1.405921331e-14 0)
(3 -1.149972684e-14 0)
(3 -1.055380809e-14 0)
(3 -8.09321554e-15 0)
(3 -5.42808258e-15 0)
(3 -3.969383574e-15 0)
(3 -6.150580679e-15 0)
(3 -6.409304269e-15 0)
(3 -6.760430409e-15 0)
(3 -5.440423478e-15 0)
(3 -3.796138564e-15 0)
(3 2.376956342e-16 0)
(3 2.372791105e-15 0)
(3 5.291213357e-15 0)
(3 1.173623959e-14 0)
(3 1.599316705e-14 0)
(3 -1.100302524e-15 0)
(3 -5.156167977e-15 0)
(3 -9.466692434e-15 0)
(3 -9.080624552e-15 0)
(3 -9.085647396e-15 0)
(3 -8.610312273e-15 0)
(3 -6.713242078e-15 0)
(3 -2.982547082e-15 0)
(3 -1.815953121e-16 0)
(3 -2.900830588e-16 0)
(3 1.460158804e-15 0)
(3 1.076112879e-15 0)
(3 -1.126559215e-15 0)
(3 -2.848291435e-15 0)
(3 -2.727225808e-15 0)
(3 -2.626266413e-15 0)
(3 -1.392625133e-15 0)
(3 -3.462273663e-16 0)
(3 5.810073054e-16 0)
(3 1.560793392e-15 0)
(3 1.021260657e-15 0)
(3 1.492106527e-15 0)
(3 4.62055135e-15 0)
(3 7.894142521e-15 0)
(3 5.777301734e-15 0)
(3 3.641820995e-15 0)
(3 1.658564732e-15 0)
(3 2.207883331e-15 0)
(3 5.373494524e-15 0)
(3 8.835085142e-15 0)
(3 5.915959878e-15 0)
(3 3.486070705e-15 0)
(3 3.097247511e-15 0)
(3 3.713556915e-15 0)
(3 4.297907507e-15 0)
(3 5.519597806e-15 0)
(3 4.883398542e-15 0)
(3 7.060401567e-15 0)
(3 6.029940704e-15 0)
(3 6.485815268e-15 0)
(3 3.593831367e-15 0)
(3 2.582009937e-15 0)
(3 1.775102926e-15 0)
(3 -9.12981502e-17 0)
(3 -4.846953077e-15 0)
(3 -7.63748571e-15 0)
(3 -1.258449892e-14 0)
(3 -1.349245711e-14 0)
(3 -1.902444293e-14 0)
(3 -2.216711376e-14 0)
(3 -2.006021951e-14 0)
(3 -1.750695878e-14 0)
(3 -8.382837771e-15 0)
(3 -4.844377495e-15 0)
(3 -2.294962608e-15 0)
(3 -1.57543065e-15 0)
(3 2.094993057e-16 0)
(3 2.987509762e-17 0)
(3 4.157671047e-15 0)
(3 8.583484598e-15 0)
(3 7.772047076e-15 0)
(3 5.538122746e-15 0)
(3 4.297479664e-15 0)
(3 4.717858151e-15 0)
(3 1.018676923e-14 0)
(3 1.427305669e-14 0)
(3 1.189163622e-14 0)
(3 7.91703869e-15 0)
(3 6.221128799e-15 0)
(3 5.244325336e-15 0)
(3 6.249395004e-16 0)
(3 -2.48733858e-15 0)
(3 -4.303826841e-15 0)
(3 -6.653456991e-15 0)
(3 -7.572186958e-15 0)
(3 -7.704709727e-15 0)
(3 -8.849527242e-15 0)
(3 -1.583336894e-14 0)
(3 -2.347876735e-14 0)
(3 -2.008646937e-14 0)
(3 -1.410118504e-14 0)
(3 -1.380976698e-14 0)
(3 -1.830795454e-14 0)
(3 -2.048236279e-14 0)
(3 -1.838490816e-14 0)
(3 -1.357659578e-14 0)
(3 -1.022126391e-14 0)
(3 -1.132497649e-14 0)
(3 -1.086758538e-14 0)
(3 -1.023368065e-14 0)
(3 -1.171946958e-14 0)
(3 -9.860500562e-15 0)
(3 -8.22830226e-15 0)
(3 -1.640418653e-15 0)
(3 1.073694713e-15 0)
(3 4.498953214e-15 0)
(3 6.33283158e-15 0)
(3 1.003096061e-14 0)
(3 1.335814368e-14 0)
(3 1.304015773e-14 0)
(3 3.024515904e-15 0)
(3 3.308941366e-15 0)
(3 1.530622128e-15 0)
(3 1.980056476e-15 0)
(3 2.031557703e-15 0)
(3 4.680021232e-16 0)
(3 -7.364581871e-16 0)
(3 -1.514451992e-15 0)
(3 -4.756492286e-16 0)
(3 -2.007941238e-15 0)
(3 -1.867978725e-15 0)
(3 -2.138342929e-15 0)
(3 -2.473309615e-15 0)
(3 -2.350801986e-15 0)
(3 1.661974159e-15 0)
(3 2.88085868e-15 0)
(3 3.243821338e-15 0)
(3 4.293218089e-15 0)
(3 2.901196513e-15 0)
(3 1.259541164e-15 0)
(3 -2.52208716e-16 0)
(3 1.321050884e-15 0)
(3 2.258504297e-15 0)
(3 2.040853317e-15 0)
(3 1.674548751e-15 0)
(3 -6.417539198e-16 0)
(3 -2.366902722e-15 0)
(3 -2.844296549e-15 0)
(3 -2.307922003e-15 0)
(3 -9.128389074e-16 0)
(3 -7.090133576e-16 0)
(3 -2.077939379e-15 0)
(3 -3.55779131e-16 0)
(3 -3.727785984e-16 0)
(3 2.652929401e-15 0)
(3 6.226799613e-15 0)
(3 1.297675945e-14 0)
(3 1.834108005e-14 0)
(3 2.063395107e-14 0)
(3 2.37166037e-14 0)
(3 1.938455053e-14 0)
(3 1.478399183e-14 0)
(3 8.459354344e-15 0)
(3 -2.730448593e-15 0)
(3 -1.130474909e-14 0)
(3 -1.193741137e-14 0)
(3 -1.655509815e-14 0)
(3 -2.055885764e-14 0)
(3 -2.368467911e-14 0)
(3 -2.39720067e-14 0)
(3 -1.942875463e-14 0)
(3 -1.346399861e-14 0)
(3 -7.239501451e-15 0)
(3 -5.706828821e-15 0)
(3 -2.175068935e-15 0)
(3 -1.674329178e-15 0)
(3 2.28264164e-15 0)
(3 3.663715262e-15 0)
(3 1.142873994e-14 0)
(3 1.620574304e-14 0)
(3 1.982933442e-14 0)
(3 1.90130637e-14 0)
(3 2.143537551e-14 0)
(3 2.068474742e-14 0)
(3 2.106871245e-14 0)
(3 1.916306965e-14 0)
(3 1.71154975e-14 0)
(3 1.203227842e-14 0)
(3 9.409216267e-15 0)
(3 8.811047231e-15 0)
(3 1.065980478e-14 0)
(3 9.433056764e-15 0)
(3 3.971923471e-15 0)
(3 9.433096929e-16 0)
(3 -6.635957978e-15 0)
(3 -1.277826696e-14 0)
(3 -1.618357127e-14 0)
(3 -2.1643403e-14 0)
(3 -2.848476251e-14 0)
(3 -3.171151573e-14 0)
(3 -3.223780978e-14 0)
(3 -2.789985652e-14 0)
(3 -2.014219003e-14 0)
(3 -1.654003132e-14 0)
(3 -1.674310424e-14 0)
(3 -1.569082003e-14 0)
(3 -1.139880342e-14 0)
(3 -8.752631424e-15 0)
(3 -1.058431736e-14 0)
(3 -9.075765135e-15 0)
(3 -7.277432791e-15 0)
(3 -4.603280773e-15 0)
(3 4.76182488e-16 0)
(3 6.553172298e-15 0)
(3 1.138123127e-14 0)
(3 1.100727866e-14 0)
(3 1.05621324e-14 0)
(3 1.298226505e-14 0)
(3 1.604349672e-14 0)
(3 1.777851873e-14 0)
(3 2.809736485e-16 0)
(3 4.207033442e-15 0)
(3 6.749700306e-15 0)
(3 7.025353373e-15 0)
(3 8.592398602e-15 0)
(3 1.104979649e-14 0)
(3 1.09685379e-14 0)
(3 9.416884313e-15 0)
(3 7.451944809e-15 0)
(3 6.375639643e-15 0)
(3 3.556899169e-15 0)
(3 2.069948964e-15 0)
(3 1.5161133e-15 0)
(3 9.995211976e-16 0)
(3 3.446162325e-15 0)
(3 3.896148282e-15 0)
(3 6.489952933e-15 0)
(3 8.56414725e-15 0)
(3 5.633764299e-15 0)
(3 4.895183048e-15 0)
(3 3.72159633e-15 0)
(3 2.834186997e-15 0)
(3 2.108096103e-15 0)
(3 -1.00586618e-15 0)
(3 -2.231827441e-15 0)
(3 -3.457396639e-15 0)
(3 -6.611906754e-15 0)
(3 -1.137560117e-14 0)
(3 -1.384707243e-14 0)
(3 -1.369142074e-14 0)
(3 -1.12495651e-14 0)
(3 -9.862312399e-15 0)
(3 -6.391918287e-15 0)
(3 -6.173194823e-15 0)
(3 -3.304099422e-15 0)
(3 -2.904253444e-15 0)
(3 1.068132308e-15 0)
(3 6.171981501e-15 0)
(3 1.319878304e-14 0)
(3 1.676734616e-14 0)
(3 1.717292763e-14 0)
(3 1.640354988e-14 0)
(3 1.789569355e-14 0)
(3 1.244835131e-14 0)
(3 3.847995106e-15 0)
(3 -3.019818076e-15 0)
(3 -1.042725954e-14 0)
(3 -1.466090376e-14 0)
(3 -1.561382727e-14 0)
(3 -1.527065126e-14 0)
(3 -1.520609524e-14 0)
(3 -1.358155026e-14 0)
(3 -1.358064874e-14 0)
(3 -1.378991359e-14 0)
(3 -1.020797872e-14 0)
(3 -6.90877683e-15 0)
(3 -1.935024078e-15 0)
(3 8.52566111e-15 0)
(3 1.824030527e-14 0)
(3 2.609027284e-14 0)
(3 3.352772522e-14 0)
(3 3.724004294e-14 0)
(3 3.58911056e-14 0)
(3 3.070357837e-14 0)
(3 2.408991651e-14 0)
(3 1.954989098e-14 0)
(3 1.968838161e-14 0)
(3 1.916888029e-14 0)
(3 1.689116272e-14 0)
(3 1.412592136e-14 0)
(3 1.397306128e-14 0)
(3 1.109709271e-14 0)
(3 7.039409278e-15 0)
(3 4.464381092e-15 0)
(3 -1.850529957e-15 0)
(3 -1.229367132e-14 0)
(3 -1.779733843e-14 0)
(3 -1.949574495e-14 0)
(3 -2.172053836e-14 0)
(3 -2.626367294e-14 0)
(3 -3.25038389e-14 0)
(3 -3.686824167e-14 0)
(3 -3.666758138e-14 0)
(3 -3.506614e-14 0)
(3 -3.317753105e-14 0)
(3 -2.92315741e-14 0)
(3 -2.063721616e-14 0)
(3 -1.060895494e-14 0)
(3 -5.031573937e-15 0)
(3 -3.570883934e-15 0)
(3 -3.328749905e-15 0)
(3 -2.036418901e-15 0)
(3 -4.183707809e-16 0)
(3 3.795307014e-15 0)
(3 4.652324143e-15 0)
(3 5.052392467e-15 0)
(3 7.145937136e-15 0)
(3 8.905723347e-15 0)
(3 1.23788937e-14 0)
(3 1.675927606e-14 0)
(3 -6.738012556e-16 0)
(3 -7.632182008e-16 0)
(3 3.594158323e-16 0)
(3 4.617256064e-16 0)
(3 7.13021906e-16 0)
(3 1.683639435e-15 0)
(3 5.443456296e-15 0)
(3 6.274591864e-15 0)
(3 4.96074575e-15 0)
(3 6.359095571e-15 0)
(3 6.175781376e-15 0)
(3 6.098587186e-15 0)
(3 4.991735324e-15 0)
(3 4.467714334e-15 0)
(3 3.561711133e-15 0)
(3 3.005824333e-15 0)
(3 5.751618398e-16 0)
(3 -1.344916862e-15 0)
(3 -2.234887832e-16 0)
(3 6.214497001e-16 0)
(3 2.946969984e-16 0)
(3 -2.023860005e-15 0)
(3 -2.912604291e-15 0)
(3 -3.311985417e-15 0)
(3 -4.275778648e-15 0)
(3 -7.096035e-15 0)
(3 -9.124896038e-15 0)
(3 -1.347701486e-14 0)
(3 -1.760327192e-14 0)
(3 -1.748559643e-14 0)
(3 -1.691667419e-14 0)
(3 -1.363261794e-14 0)
(3 -1.085505203e-14 0)
(3 -9.960757999e-15 0)
(3 -9.242838231e-15 0)
(3 -8.167260447e-15 0)
(3 -9.669036082e-15 0)
(3 -9.386547839e-15 0)
(3 -1.694748309e-15 0)
(3 6.10359887e-15 0)
(3 1.193574422e-14 0)
(3 1.595920613e-14 0)
(3 1.847676033e-14 0)
(3 1.579454192e-14 0)
(3 1.227570145e-14 0)
(3 4.746789529e-15 0)
(3 -1.301913597e-15 0)
(3 -3.671376722e-15 0)
(3 -4.895501172e-15 0)
(3 -6.886153806e-15 0)
(3 -7.316115543e-15 0)
(3 -8.620436336e-15 0)
(3 -1.167825581e-14 0)
(3 -1.229989432e-14 0)
(3 -1.174970192e-14 0)
(3 -7.351921375e-15 0)
(3 -5.693331174e-16 0)
(3 5.231653178e-15 0)
(3 1.137516183e-14 0)
(3 1.726716964e-14 0)
(3 2.634715941e-14 0)
(3 3.07806843e-14 0)
(3 2.960190399e-14 0)
(3 2.695271228e-14 0)
(3 2.18107144e-14 0)
(3 1.824081823e-14 0)
(3 1.624679064e-14 0)
(3 1.419880332e-14 0)
(3 9.940297689e-15 0)
(3 5.297615114e-15 0)
(3 6.560385859e-15 0)
(3 8.581103518e-15 0)
(3 7.316945216e-15 0)
(3 3.455740429e-15 0)
(3 -4.780265724e-16 0)
(3 -3.061145771e-15 0)
(3 -6.216567715e-15 0)
(3 -9.297533146e-15 0)
(3 -8.437287164e-15 0)
(3 -1.35663158e-14 0)
(3 -1.253552022e-14 0)
(3 -1.949197708e-14 0)
(3 -2.720448988e-14 0)
(3 -3.155811835e-14 0)
(3 -3.180118345e-14 0)
(3 -2.767601495e-14 0)
(3 -1.969386735e-14 0)
(3 -1.508851875e-14 0)
(3 -1.131159156e-14 0)
(3 -1.167660733e-14 0)
(3 -1.294320176e-14 0)
(3 -8.715706791e-15 0)
(3 -2.108778952e-15 0)
(3 8.783611114e-16 0)
(3 -1.152165719e-15 0)
(3 -1.092264207e-15 0)
(3 4.062817682e-15 0)
(3 7.425457914e-15 0)
(3 1.203043424e-14 0)
(3 1.690595555e-14 0)
(3 1.079982504e-15 0)
(3 3.2133622e-17 0)
(3 -5.537697437e-16 0)
(3 -1.35844118e-15 0)
(3 -3.889422328e-15 0)
(3 -4.431875881e-15 0)
(3 -6.026359644e-15 0)
(3 -3.833191819e-15 0)
(3 -2.814524011e-15 0)
(3 8.731488929e-16 0)
(3 2.493821939e-15 0)
(3 2.750982018e-15 0)
(3 2.290929834e-15 0)
(3 2.185522376e-15 0)
(3 -2.661518889e-15 0)
(3 -4.759541914e-15 0)
(3 -9.691816243e-15 0)
(3 -8.342846986e-15 0)
(3 -6.213050187e-15 0)
(3 -7.343005444e-15 0)
(3 -8.587130135e-15 0)
(3 -8.554440738e-15 0)
(3 -9.883441658e-15 0)
(3 -1.099230034e-14 0)
(3 -1.053031438e-14 0)
(3 -1.197439802e-14 0)
(3 -1.528423357e-14 0)
(3 -1.545606673e-14 0)
(3 -1.418458421e-14 0)
(3 -1.389511424e-14 0)
(3 -1.333066356e-14 0)
(3 -1.588811794e-14 0)
(3 -1.514916602e-14 0)
(3 -1.197801767e-14 0)
(3 -1.086538126e-14 0)
(3 -1.131195325e-14 0)
(3 -1.045305275e-14 0)
(3 -6.249609458e-15 0)
(3 3.084792772e-17 0)
(3 3.490822756e-15 0)
(3 1.356100518e-14 0)
(3 1.599535689e-14 0)
(3 1.54700763e-14 0)
(3 1.291163049e-14 0)
(3 9.107902014e-15 0)
(3 4.69548376e-15 0)
(3 -1.249059166e-15 0)
(3 -4.938796328e-15 0)
(3 -8.283333518e-15 0)
(3 -7.55781343e-15 0)
(3 -4.477140814e-15 0)
(3 -4.122649534e-15 0)
(3 -6.645459543e-15 0)
(3 -9.076722525e-15 0)
(3 -1.373970327e-14 0)
(3 -1.254454053e-14 0)
(3 -8.270573148e-15 0)
(3 -5.378266428e-16 0)
(3 1.509979972e-15 0)
(3 5.62625471e-15 0)
(3 1.049963701e-14 0)
(3 1.864271638e-14 0)
(3 2.061805361e-14 0)
(3 1.855248742e-14 0)
(3 1.495596259e-14 0)
(3 1.445785045e-14 0)
(3 1.021514172e-14 0)
(3 3.27237868e-15 0)
(3 -7.922589442e-15 0)
(3 -8.927647497e-15 0)
(3 -6.769351166e-15 0)
(3 -1.934471067e-15 0)
(3 2.235826505e-15 0)
(3 3.119463549e-15 0)
(3 2.494120631e-15 0)
(3 2.570433347e-15 0)
(3 2.979563432e-15 0)
(3 2.830584995e-15 0)
(3 2.073486164e-15 0)
(3 3.939298889e-16 0)
(3 2.378322756e-15 0)
(3 2.672741706e-16 0)
(3 -6.316524225e-15 0)
(3 -9.355336164e-15 0)
(3 -1.031178709e-14 0)
(3 -1.200083915e-14 0)
(3 -1.144459951e-14 0)
(3 -1.098723207e-14 0)
(3 -1.111051247e-14 0)
(3 -1.032273381e-14 0)
(3 -1.004896138e-14 0)
(3 -5.286189628e-15 0)
(3 4.892958464e-16 0)
(3 -3.885369903e-15 0)
(3 -3.65506056e-15 0)
(3 8.356730529e-16 0)
(3 3.814308313e-15 0)
(3 8.867757533e-15 0)
(3 1.71551159e-14 0)
(3 2.696084785e-14 0)
(3 -9.720854127e-17 0)
(3 2.624312383e-16 0)
(3 1.574228456e-16 0)
(3 2.328745961e-16 0)
(3 -1.67565902e-15 0)
(3 -2.868983437e-15 0)
(3 -4.477829466e-15 0)
(3 -4.555729826e-15 0)
(3 -3.062378317e-15 0)
(3 -1.416784932e-15 0)
(3 -1.108343858e-15 0)
(3 -1.61981289e-15 0)
(3 -1.613413041e-15 0)
(3 -2.770051643e-15 0)
(3 -5.319206162e-15 0)
(3 -5.499338546e-15 0)
(3 -5.414065103e-15 0)
(3 -5.227347606e-15 0)
(3 -5.179747542e-15 0)
(3 -6.423142751e-15 0)
(3 -8.043291698e-15 0)
(3 -1.072911766e-14 0)
(3 -1.153237828e-14 0)
(3 -1.024900486e-14 0)
(3 -1.018265776e-14 0)
(3 -1.065702659e-14 0)
(3 -1.229124393e-14 0)
(3 -9.733514797e-15 0)
(3 -1.11798614e-14 0)
(3 -1.015520936e-14 0)
(3 -6.83995603e-15 0)
(3 -7.60807411e-15 0)
(3 -8.087267114e-15 0)
(3 -9.098535163e-15 0)
(3 -7.362719576e-15 0)
(3 -4.890342881e-15 0)
(3 -2.359129271e-15 0)
(3 -3.495131066e-16 0)
(3 5.151232415e-16 0)
(3 1.173985514e-15 0)
(3 7.120054535e-15 0)
(3 9.126444637e-15 0)
(3 7.919866904e-15 0)
(3 6.185958211e-15 0)
(3 2.625891845e-15 0)
(3 2.289886753e-16 0)
(3 -2.442341473e-15 0)
(3 -3.030232806e-15 0)
(3 -5.999750495e-16 0)
(3 2.456820671e-15 0)
(3 3.218887815e-15 0)
(3 -2.026203951e-15 0)
(3 -9.243078252e-15 0)
(3 -1.288393804e-14 0)
(3 -1.413972458e-14 0)
(3 -1.313408952e-14 0)
(3 -1.004880315e-14 0)
(3 -8.63121403e-15 0)
(3 -5.098738545e-15 0)
(3 -4.521391751e-15 0)
(3 -4.529895214e-15 0)
(3 1.980356325e-15 0)
(3 6.652271932e-15 0)
(3 5.340069658e-15 0)
(3 1.047473688e-15 0)
(3 2.101082281e-15 0)
(3 -6.390685068e-16 0)
(3 -7.377022111e-15 0)
(3 -9.695297034e-15 0)
(3 -1.028619074e-14 0)
(3 -9.176808929e-15 0)
(3 -6.435956465e-15 0)
(3 -3.78364464e-15 0)
(3 -1.639687254e-15 0)
(3 3.049486583e-16 0)
(3 4.096802769e-15 0)
(3 3.759153292e-15 0)
(3 8.040868674e-15 0)
(3 8.090338685e-15 0)
(3 8.769806637e-15 0)
(3 1.564275251e-14 0)
(3 1.721843595e-14 0)
(3 1.422873773e-14 0)
(3 1.113584612e-14 0)
(3 7.845046283e-15 0)
(3 2.127494062e-15 0)
(3 -3.847460427e-15 0)
(3 -4.564253404e-15 0)
(3 -5.431975391e-15 0)
(3 -7.051201236e-15 0)
(3 -7.129868634e-15 0)
(3 -5.595038972e-15 0)
(3 -7.634319123e-15 0)
(3 -1.267171302e-14 0)
(3 -1.001608948e-14 0)
(3 -2.478347947e-15 0)
(3 2.62451933e-15 0)
(3 6.693624187e-15 0)
(3 1.33984252e-14 0)
(3 2.349934899e-14 0)
(3 -2.60347833e-16 0)
(3 -3.710024254e-16 0)
(3 -9.82179087e-16 0)
(3 -2.033162066e-15 0)
(3 -2.172721447e-15 0)
(3 -3.418406626e-15 0)
(3 -2.349290683e-15 0)
(3 -1.058179982e-15 0)
(3 -1.230430144e-15 0)
(3 -5.224865141e-15 0)
(3 -6.159625511e-15 0)
(3 -5.577014337e-15 0)
(3 -4.644770318e-15 0)
(3 -3.029328202e-15 0)
(3 -1.916829748e-16 0)
(3 3.79060976e-15 0)
(3 3.489422827e-15 0)
(3 2.195780867e-15 0)
(3 7.304029114e-16 0)
(3 -8.046192226e-17 0)
(3 -9.653011676e-16 0)
(3 -2.15407006e-15 0)
(3 -2.629235615e-15 0)
(3 -2.821082133e-15 0)
(3 -3.589867666e-15 0)
(3 -2.043340057e-15 0)
(3 -8.557957448e-16 0)
(3 1.301794546e-15 0)
(3 8.236182293e-16 0)
(3 -7.161690495e-16 0)
(3 5.338200337e-16 0)
(3 3.100412834e-15 0)
(3 4.299763122e-15 0)
(3 1.96548085e-15 0)
(3 -5.381137611e-16 0)
(3 -6.429543253e-16 0)
(3 -3.128281087e-16 0)
(3 1.380734774e-15 0)
(3 9.021189851e-16 0)
(3 -1.466739113e-15 0)
(3 -5.714534751e-15 0)
(3 -7.991724124e-15 0)
(3 -1.102186507e-14 0)
(3 -1.227911686e-14 0)
(3 -5.026432786e-15 0)
(3 -3.201746788e-15 0)
(3 -6.757574213e-16 0)
(3 4.168019928e-15 0)
(3 6.528888255e-15 0)
(3 5.830086122e-15 0)
(3 3.248211646e-15 0)
(3 2.394531532e-16 0)
(3 -6.780826905e-15 0)
(3 -1.142068898e-14 0)
(3 -8.864719797e-15 0)
(3 -6.541336669e-15 0)
(3 -9.695359212e-15 0)
(3 -8.493184998e-15 0)
(3 -6.668166161e-15 0)
(3 -6.646044369e-15 0)
(3 -3.926982715e-15 0)
(3 -1.561127617e-15 0)
(3 3.163187059e-15 0)
(3 4.208497696e-15 0)
(3 7.753328093e-16 0)
(3 -5.722568923e-15 0)
(3 -9.967928042e-15 0)
(3 -1.278050175e-14 0)
(3 -1.263734069e-14 0)
(3 -1.135124812e-14 0)
(3 -6.691316324e-15 0)
(3 -5.138090275e-15 0)
(3 -1.486149264e-15 0)
(3 -1.75135521e-15 0)
(3 2.776043068e-15 0)
(3 1.181039714e-14 0)
(3 1.150946761e-14 0)
(3 1.474519464e-14 0)
(3 1.816704431e-14 0)
(3 1.960135817e-14 0)
(3 1.987138869e-14 0)
(3 1.745285207e-14 0)
(3 8.870458679e-15 0)
(3 6.684234516e-15 0)
(3 7.070719556e-15 0)
(3 7.490173942e-15 0)
(3 4.154627463e-15 0)
(3 -1.651808306e-15 0)
(3 -4.791502095e-15 0)
(3 -5.425819042e-15 0)
(3 -5.676821889e-15 0)
(3 -6.219675045e-15 0)
(3 -8.977456846e-15 0)
(3 -1.379588737e-14 0)
(3 -1.299100782e-14 0)
(3 -8.879573604e-15 0)
(3 -4.408150816e-15 0)
(3 -2.374308163e-15 0)
(3 2.347386583e-15 0)
(3 6.881593646e-15 0)
(3 -2.741281932e-16 0)
(3 -3.881318793e-16 0)
(3 -7.21819895e-16 0)
(3 -7.69506166e-16 0)
(3 -4.563103511e-17 0)
(3 -6.611962406e-16 0)
(3 -1.478963608e-15 0)
(3 -3.675214917e-15 0)
(3 -5.697471299e-15 0)
(3 -6.403660359e-15 0)
(3 -7.183040877e-15 0)
(3 -6.889069899e-15 0)
(3 -6.482438266e-15 0)
(3 -5.334392461e-15 0)
(3 -1.720147446e-15 0)
(3 6.457734494e-16 0)
(3 3.480367747e-15 0)
(3 3.328790563e-15 0)
(3 2.542674194e-15 0)
(3 1.42666748e-15 0)
(3 9.247870571e-16 0)
(3 2.159084058e-15 0)
(3 2.249068058e-15 0)
(3 1.082876996e-15 0)
(3 2.151948354e-15 0)
(3 4.600950001e-15 0)
(3 6.540941847e-15 0)
(3 6.8477326e-15 0)
(3 8.461715742e-15 0)
(3 7.99985869e-15 0)
(3 1.026379576e-14 0)
(3 1.633076843e-14 0)
(3 1.88300099e-14 0)
(3 2.089901426e-14 0)
(3 1.616274015e-14 0)
(3 1.082864726e-14 0)
(3 7.520370355e-15 0)
(3 4.281310833e-15 0)
(3 -4.828102906e-16 0)
(3 -2.927271344e-15 0)
(3 -9.818296691e-15 0)
(3 -1.379828097e-14 0)
(3 -1.331206375e-14 0)
(3 -1.266585202e-14 0)
(3 -1.142822194e-14 0)
(3 -7.79579873e-15 0)
(3 -1.160386227e-15 0)
(3 1.527857675e-15 0)
(3 2.149443479e-15 0)
(3 1.995835852e-15 0)
(3 -9.636325295e-16 0)
(3 -5.551888021e-15 0)
(3 -6.691176077e-15 0)
(3 -6.133592694e-15 0)
(3 -1.929094767e-15 0)
(3 5.021708159e-18 0)
(3 -1.683995922e-17 0)
(3 2.096420621e-16 0)
(3 -1.810554849e-15 0)
(3 -1.168345279e-15 0)
(3 -4.050309577e-15 0)
(3 -1.068426611e-14 0)
(3 -1.230939041e-14 0)
(3 -1.06701393e-14 0)
(3 -1.471060654e-14 0)
(3 -1.599318202e-14 0)
(3 -1.665873569e-14 0)
(3 -1.463922115e-14 0)
(3 -8.13655046e-15 0)
(3 -6.412242699e-15 0)
(3 -6.096544328e-15 0)
(3 -3.61015246e-15 0)
(3 2.412679017e-15 0)
(3 6.529605906e-15 0)
(3 8.410966376e-15 0)
(3 1.142312793e-14 0)
(3 1.650087891e-14 0)
(3 1.938151905e-14 0)
(3 1.731707418e-14 0)
(3 1.690084858e-14 0)
(3 1.356649374e-14 0)
(3 1.106443355e-14 0)
(3 8.710987852e-15 0)
(3 7.402283601e-15 0)
(3 1.070779356e-14 0)
(3 9.552705765e-15 0)
(3 1.275988951e-15 0)
(3 1.180846233e-16 0)
(3 2.797113206e-15 0)
(3 -3.388810139e-16 0)
(3 -2.825352091e-15 0)
(3 -2.600843725e-15 0)
(3 -4.715884333e-15 0)
(3 -6.757876878e-15 0)
(3 -8.481531241e-15 0)
(3 -7.066631972e-15 0)
(3 -6.065257675e-15 0)
(3 -6.065710321e-15 0)
(3 -6.213261044e-15 0)
(3 -5.586971741e-15 0)
(3 2.267203834e-17 0)
(3 -8.05228246e-17 0)
(3 9.083715096e-16 0)
(3 2.319924111e-15 0)
(3 1.796477275e-15 0)
(3 6.865374697e-16 0)
(3 -2.89689378e-15 0)
(3 -2.783689561e-15 0)
(3 -2.260348468e-15 0)
(3 -7.392259484e-16 0)
(3 -1.945305729e-15 0)
(3 -2.73093374e-15 0)
(3 -5.364145207e-15 0)
(3 -7.937883377e-15 0)
(3 -1.044341728e-14 0)
(3 -9.621642581e-15 0)
(3 -7.79284938e-15 0)
(3 -5.659133659e-15 0)
(3 -4.387718015e-15 0)
(3 -4.921218893e-15 0)
(3 -5.059399989e-15 0)
(3 -3.407433472e-15 0)
(3 -1.3738378e-15 0)
(3 1.79259437e-15 0)
(3 3.64941124e-15 0)
(3 4.962998225e-15 0)
(3 7.042629199e-15 0)
(3 7.186002504e-15 0)
(3 9.374664176e-15 0)
(3 1.136990706e-14 0)
(3 1.372332677e-14 0)
(3 2.055637385e-14 0)
(3 2.137321295e-14 0)
(3 2.355281933e-14 0)
(3 2.296542098e-14 0)
(3 2.153941532e-14 0)
(3 1.698184092e-14 0)
(3 8.448045121e-15 0)
(3 5.268720645e-15 0)
(3 2.767859137e-15 0)
(3 -1.348599694e-15 0)
(3 -5.921098819e-15 0)
(3 -7.727920813e-15 0)
(3 -9.069042993e-15 0)
(3 -1.191316261e-14 0)
(3 -1.274433882e-14 0)
(3 -1.102613589e-14 0)
(3 -9.270214194e-15 0)
(3 -8.775847252e-15 0)
(3 -9.974937337e-15 0)
(3 -9.065848042e-15 0)
(3 -3.578863005e-15 0)
(3 -2.891821743e-15 0)
(3 1.457373873e-15 0)
(3 1.897297117e-15 0)
(3 4.697143316e-15 0)
(3 6.347352641e-15 0)
(3 5.84944694e-15 0)
(3 2.421820442e-15 0)
(3 -1.71812258e-16 0)
(3 -4.767022218e-15 0)
(3 -1.358458259e-14 0)
(3 -2.218783173e-14 0)
(3 -2.10390642e-14 0)
(3 -1.657972293e-14 0)
(3 -1.088356779e-14 0)
(3 -1.36700026e-14 0)
(3 -1.585270423e-14 0)
(3 -1.227213478e-14 0)
(3 -6.775420035e-15 0)
(3 -3.689162817e-15 0)
(3 -2.185696747e-15 0)
(3 -8.523243254e-17 0)
(3 2.097599117e-15 0)
(3 6.364035154e-15 0)
(3 7.277651353e-15 0)
(3 1.171577914e-14 0)
(3 1.645881856e-14 0)
(3 1.607838362e-14 0)
(3 1.1906384e-14 0)
(3 8.843051875e-15 0)
(3 9.038430685e-15 0)
(3 9.761958849e-15 0)
(3 1.179420331e-14 0)
(3 1.255415258e-14 0)
(3 1.544030343e-14 0)
(3 1.208111545e-14 0)
(3 1.308549053e-14 0)
(3 9.282834703e-15 0)
(3 4.842130192e-15 0)
(3 3.222448733e-15 0)
(3 7.556807191e-15 0)
(3 8.326563078e-15 0)
(3 7.588665462e-15 0)
(3 2.348272135e-15 0)
(3 -3.619509963e-15 0)
(3 -2.015206317e-15 0)
(3 2.165333815e-17 0)
(3 1.072669538e-16 0)
(3 -2.176857051e-16 0)
(3 2.598080337e-16 0)
(3 4.053893152e-16 0)
(3 -1.185342003e-16 0)
(3 -1.232097079e-15 0)
(3 -1.202826799e-15 0)
(3 -5.858539894e-16 0)
(3 1.452740158e-15 0)
(3 2.494069558e-15 0)
(3 4.814986396e-15 0)
(3 4.501849389e-15 0)
(3 3.58185289e-15 0)
(3 1.910722615e-15 0)
(3 4.715404666e-16 0)
(3 -1.621227642e-15 0)
(3 -4.338080415e-15 0)
(3 -7.312406927e-15 0)
(3 -9.68561225e-15 0)
(3 -1.086382633e-14 0)
(3 -1.151519108e-14 0)
(3 -1.132038774e-14 0)
(3 -1.063468081e-14 0)
(3 -8.440735613e-15 0)
(3 -5.523748287e-15 0)
(3 -4.019198486e-15 0)
(3 -3.753541881e-15 0)
(3 -2.653703445e-15 0)
(3 6.256527351e-16 0)
(3 1.744700947e-15 0)
(3 2.35649385e-15 0)
(3 3.042588746e-15 0)
(3 7.659558981e-15 0)
(3 1.097817245e-14 0)
(3 1.583121271e-14 0)
(3 1.832782099e-14 0)
(3 2.377358751e-14 0)
(3 2.115759912e-14 0)
(3 1.955580373e-14 0)
(3 1.763134717e-14 0)
(3 1.408752992e-14 0)
(3 9.53788167e-15 0)
(3 6.654682268e-15 0)
(3 4.394683421e-15 0)
(3 -1.807111439e-16 0)
(3 -4.964719012e-15 0)
(3 -9.256541078e-15 0)
(3 -1.254607473e-14 0)
(3 -1.392219112e-14 0)
(3 -1.29806498e-14 0)
(3 -1.372180692e-14 0)
(3 -1.322972918e-14 0)
(3 -1.193662715e-14 0)
(3 -6.533061969e-15 0)
(3 -4.055094167e-15 0)
(3 2.143410004e-15 0)
(3 7.254682967e-15 0)
(3 9.291031757e-15 0)
(3 9.552440752e-15 0)
(3 7.908749202e-15 0)
(3 4.250581715e-15 0)
(3 -7.828803661e-17 0)
(3 -8.406995975e-15 0)
(3 -1.13504203e-14 0)
(3 -1.556535587e-14 0)
(3 -1.996317521e-14 0)
(3 -1.570274587e-14 0)
(3 -8.603817782e-15 0)
(3 -7.374519906e-15 0)
(3 -6.702029301e-15 0)
(3 -6.833701945e-15 0)
(3 -7.6553088e-15 0)
(3 -6.421541096e-15 0)
(3 -7.030750041e-15 0)
(3 -2.211406092e-15 0)
(3 9.320882702e-16 0)
(3 2.401159907e-15 0)
(3 4.109915143e-16 0)
(3 1.079205559e-15 0)
(3 2.513615305e-15 0)
(3 4.097424558e-15 0)
(3 2.48159378e-15 0)
(3 3.028759958e-15 0)
(3 4.808885159e-15 0)
(3 6.64734911e-15 0)
(3 7.571722137e-15 0)
(3 8.006596252e-15 0)
(3 1.377777855e-14 0)
(3 1.521313842e-14 0)
(3 2.062740977e-14 0)
(3 2.51554399e-14 0)
(3 2.826182674e-14 0)
(3 2.68654799e-14 0)
(3 2.190156871e-14 0)
(3 2.541370878e-14 0)
(3 2.740466962e-14 0)
(3 2.214915595e-14 0)
(3 1.788407626e-14 0)
(3 1.541416412e-14 0)
(3 1.387488935e-14 0)
(3 1.111883028e-14 0)
(3 7.051577977e-15 0)
(3 -6.394499045e-16 0)
(3 -1.728969748e-15 0)
(3 4.693882296e-16 0)
(3 5.593093922e-17 0)
(3 7.666037633e-16 0)
(3 3.792538707e-15 0)
(3 9.372138151e-15 0)
(3 9.073745308e-15 0)
(3 9.807900365e-15 0)
(3 8.750554462e-15 0)
(3 1.004766737e-14 0)
(3 6.798210928e-15 0)
(3 6.858466864e-15 0)
(3 4.822557136e-15 0)
(3 2.944130444e-15 0)
(3 -4.041443018e-15 0)
(3 -8.486073335e-15 0)
(3 -1.513937133e-14 0)
(3 -1.949201179e-14 0)
(3 -1.900266344e-14 0)
(3 -1.565571367e-14 0)
(3 -1.209502996e-14 0)
(3 -8.111312971e-15 0)
(3 -6.627595914e-15 0)
(3 -5.255631545e-15 0)
(3 -5.161117104e-15 0)
(3 -3.990542944e-15 0)
(3 -1.212102336e-15 0)
(3 1.03892575e-15 0)
(3 3.2242041e-15 0)
(3 7.452945595e-15 0)
(3 9.829047155e-15 0)
(3 1.493222028e-14 0)
(3 1.804341762e-14 0)
(3 1.91416396e-14 0)
(3 1.534460869e-14 0)
(3 1.605983664e-14 0)
(3 1.452838457e-14 0)
(3 1.042292429e-14 0)
(3 9.429053775e-15 0)
(3 8.315841833e-15 0)
(3 6.682893877e-15 0)
(3 1.934072718e-15 0)
(3 -2.693303086e-15 0)
(3 -7.073400688e-15 0)
(3 -1.247434007e-14 0)
(3 -1.386846305e-14 0)
(3 -1.434144735e-14 0)
(3 -1.569623259e-14 0)
(3 -1.601669564e-14 0)
(3 -1.328091155e-14 0)
(3 -8.761160818e-15 0)
(3 -4.52587314e-15 0)
(3 8.864119784e-16 0)
(3 7.525590802e-15 0)
(3 8.102396854e-15 0)
(3 6.205075428e-15 0)
(3 2.49338649e-15 0)
(3 2.263985308e-15 0)
(3 3.63624572e-15 0)
(3 1.866121539e-15 0)
(3 -3.431427e-16 0)
(3 -3.677571645e-15 0)
(3 -4.238995076e-15 0)
(3 -3.238426536e-15 0)
(3 -1.852390327e-15 0)
(3 -4.734897354e-16 0)
(3 2.123309206e-15 0)
(3 6.428428314e-16 0)
(3 -2.748803408e-15 0)
(3 -6.293610552e-15 0)
(3 -7.841407993e-15 0)
(3 -7.481588642e-15 0)
(3 -4.335605802e-15 0)
(3 -3.119555691e-15 0)
(3 -6.964474747e-16 0)
(3 5.019067556e-17 0)
(3 1.42168404e-15 0)
(3 2.867357147e-15 0)
(3 2.495252877e-15 0)
(3 3.505426089e-15 0)
(3 4.377952072e-15 0)
(3 4.496109419e-15 0)
(3 3.870422043e-15 0)
(3 3.937253571e-15 0)
(3 7.221478589e-15 0)
(3 7.806558427e-15 0)
(3 1.159497889e-14 0)
(3 1.761632328e-14 0)
(3 2.472413068e-14 0)
(3 2.615330334e-14 0)
(3 2.707896257e-14 0)
(3 3.064977822e-14 0)
(3 2.977868487e-14 0)
(3 2.809491804e-14 0)
(3 2.667014118e-14 0)
(3 2.67049442e-14 0)
(3 2.163984351e-14 0)
(3 1.712316472e-14 0)
(3 1.27998628e-14 0)
(3 2.493386994e-16 0)
(3 -2.292545822e-16 0)
(3 9.280174192e-16 0)
(3 2.674460261e-15 0)
(3 2.721749854e-15 0)
(3 2.345232167e-15 0)
(3 2.207026947e-15 0)
(3 3.302994794e-15 0)
(3 5.415074717e-15 0)
(3 8.340334931e-15 0)
(3 1.014362798e-14 0)
(3 1.209280239e-14 0)
(3 1.20725874e-14 0)
(3 8.489859617e-15 0)
(3 3.412548995e-15 0)
(3 4.147135779e-16 0)
(3 -4.497550294e-16 0)
(3 -6.174650584e-15 0)
(3 -1.149943696e-14 0)
(3 -1.393329628e-14 0)
(3 -1.292114213e-14 0)
(3 -1.272984573e-14 0)
(3 -9.717567792e-15 0)
(3 -6.612474113e-15 0)
(3 -4.224934169e-15 0)
(3 -1.179796669e-15 0)
(3 -7.67556451e-16 0)
(3 1.934710953e-15 0)
(3 7.297046714e-15 0)
(3 1.177862322e-14 0)
(3 1.33754116e-14 0)
(3 1.347989484e-14 0)
(3 1.239163549e-14 0)
(3 1.267590728e-14 0)
(3 1.083539183e-14 0)
(3 8.247438508e-15 0)
(3 4.664599775e-15 0)
(3 3.309529923e-15 0)
(3 3.315314541e-15 0)
(3 4.288176625e-15 0)
(3 5.158859582e-15 0)
(3 4.843553686e-15 0)
(3 4.679407628e-15 0)
(3 2.051401515e-15 0)
(3 4.496523505e-15 0)
(3 5.037064234e-15 0)
(3 -5.342441408e-15 0)
(3 -1.082318468e-14 0)
(3 -1.882435717e-14 0)
(3 -2.097776758e-14 0)
(3 -1.70510066e-14 0)
(3 -9.570749239e-15 0)
(3 -4.914546214e-15 0)
(3 1.941128277e-16 0)
(3 5.963528346e-15 0)
(3 7.828730933e-15 0)
(3 7.739155294e-15 0)
(3 4.791185647e-15 0)
(3 7.460356615e-15 0)
(3 1.300020345e-14 0)
(3 1.467791836e-14 0)
(3 1.260924015e-14 0)
(3 8.944708895e-15 0)
(3 6.69539883e-15 0)
(3 3.441361828e-15 0)
(3 1.140789072e-15 0)
(3 2.434712398e-15 0)
(3 2.794768084e-15 0)
(3 1.316055613e-15 0)
(3 8.127973156e-17 0)
(3 -2.222512437e-15 0)
(3 -6.888411181e-15 0)
(3 -1.032730663e-14 0)
(3 -1.153581085e-14 0)
(3 -8.855201264e-15 0)
(3 -5.194450456e-15 0)
(3 -4.517994624e-15 0)
(3 -3.823694307e-15 0)
(3 -1.323107125e-15 0)
(3 1.30772873e-15 0)
(3 2.382561508e-15 0)
(3 1.745343293e-15 0)
(3 -2.166922832e-15 0)
(3 -4.574404218e-15 0)
(3 -2.602891991e-15 0)
(3 2.823577891e-15 0)
(3 2.972223956e-15 0)
(3 4.087525318e-15 0)
(3 6.544047046e-15 0)
(3 9.923164015e-15 0)
(3 1.124482899e-14 0)
(3 1.389282876e-14 0)
(3 2.011871198e-14 0)
(3 2.25872497e-14 0)
(3 2.351939917e-14 0)
(3 2.497574402e-14 0)
(3 2.91340121e-14 0)
(3 2.768663594e-14 0)
(3 2.522981244e-14 0)
(3 2.118924313e-14 0)
(3 8.123952028e-17 0)
(3 1.548995424e-15 0)
(3 1.197257521e-15 0)
(3 3.077871735e-15 0)
(3 3.601088335e-15 0)
(3 3.337598397e-15 0)
(3 1.933698236e-15 0)
(3 -2.536019041e-15 0)