/*--------------------------------*- C++ -*----------------------------------*\
  =========                 |
  \\      /  F ield         | OpenFOAM: The Open Source CFD Toolbox
   \\    /   O peration     | Website:  https://openfoam.org
    \\  /    A nd           | Version:  7
     \\/     M anipulation  |
\*---------------------------------------------------------------------------*/
FoamFile
{
    version     2.0;
    format      ascii;
    class       volScalarField;
    location    "4.3";
    object      T;
}
// * * * * * * * * * * * * * * * * * * * * * * * * * * * * * * * * * * * * * //

dimensions      [0 0 0 1 0 0 0];

internalField   nonuniform List<scalar> 
22
(
0.9825069602
1.089913432
0.9733770038
1.06085278
0.9535702015
1.030040432
0.9401122656
1.002008274
1.058109298
0.9348401952
0.9807823946
1.04368949
0.9324845501
0.9667554384
1.029948376
0.9303154298
0.9550559933
1.014977155
0.9276394657
0.9442494151
0.9974429324
0.9222541666
)
;

boundaryField
{
    inlet
    {
        type            fixedValue;
        value           nonuniform 0();
    }
    outlet
    {
        type            inletOutlet;
        inletValue      nonuniform 0();
        value           nonuniform 0();
    }
    bottom
    {
        type            slip;
    }
    top
    {
        type            slip;
    }
    obstacle
    {
        type            zeroGradient;
    }
    defaultFaces
    {
        type            empty;
    }
    procBoundary21to15
    {
        type            processor;
        value           nonuniform List<scalar> 2(0.9815561158 1.085581565);
    }
    procBoundary21to22
    {
        type            processor;
        value           nonuniform List<scalar> 7(1.085432502 1.081297126 1.071089649 1.071089649 1.059946224 1.052064914 1.046440738);
    }
    procBoundary21to27
    {
        type            processor;
        value           nonuniform List<scalar> 4(0.9341887209 0.9804708825 0.9341887209 0.9316746346);
    }
    procBoundary21to28
    {
        type            processor;
        value           nonuniform List<scalar> 2(1.040235985 1.03394261);
    }
}


// ************************************************************************* //
