/*--------------------------------*- C++ -*----------------------------------*\
  =========                 |
  \\      /  F ield         | OpenFOAM: The Open Source CFD Toolbox
   \\    /   O peration     | Website:  https://openfoam.org
    \\  /    A nd           | Version:  7
     \\/     M anipulation  |
\*---------------------------------------------------------------------------*/
FoamFile
{
    version     2.0;
    format      ascii;
    class       volVectorField;
    location    "2";
    object      U;
}
// * * * * * * * * * * * * * * * * * * * * * * * * * * * * * * * * * * * * * //

dimensions      [0 1 -1 0 0 0 0];

internalField   nonuniform List<vector> 
139
(
(2.978458065 -0.02048547445 0)
(2.944711073 -0.04711807473 0)
(2.909896888 -0.07426383033 0)
(2.888004146 -0.04619996829 0)
(2.879217627 -0.06942876438 0)
(2.855772195 -0.02603494625 0)
(2.859486329 -0.005205966885 0)
(2.874071155 0.0119914435 0)
(2.967480161 -0.09001717461 0)
(2.955500945 -0.1277013671 0)
(2.932743204 -0.1426798842 0)
(2.913803422 -0.131567698 0)
(2.886698935 -0.05980892009 0)
(2.870521326 -0.001180186188 0)
(2.873828537 0.04794712128 0)
(2.8774715 0.06431152118 0)
(2.954808729 -0.1363321807 0)
(2.929244958 -0.1848982321 0)
(2.927211465 -0.1852100732 0)
(2.917888158 -0.1536922664 0)
(2.911038442 -0.1165209063 0)
(2.901738002 -0.06278594975 0)
(2.899724378 0.01681280913 0)
(2.899124641 0.06279859249 0)
(2.939490497 -0.1677090095 0)
(2.925761584 -0.1797741158 0)
(2.923269102 -0.1817610065 0)
(2.926508564 -0.1727060386 0)
(2.930405715 -0.1434039565 0)
(2.919408685 -0.07344044542 0)
(2.932609607 0.003145901313 0)
(2.926416144 0.1029993098 0)
(2.920759852 -0.1926306628 0)
(2.922403505 -0.1846526773 0)
(2.924770505 -0.1785843933 0)
(2.936350562 -0.1556548169 0)
(2.943223211 -0.1352685203 0)
(2.957505229 -0.08314819529 0)
(2.950042688 -0.01214097709 0)
(2.954623799 0.09596005653 0)
(2.922270315 -0.18836407 0)
(2.925669266 -0.180180112 0)
(2.935547016 -0.1590288915 0)
(2.948067449 -0.1304038407 0)
(2.967154619 -0.08365407616 0)
(2.979908753 -0.06500996558 0)
(2.975612454 -0.006146542603 0)
(2.979676734 0.09334046816 0)
(2.925012578 -0.1806768195 0)
(2.93470964 -0.1611162418 0)
(2.952265938 -0.1221375322 0)
(2.966271825 -0.09123169683 0)
(2.980704372 -0.04824027443 0)
(3.00300383 -0.006639396429 0)
(2.988578228 0.006507382597 0)
(3.007988787 0.09198762477 0)
(2.934897162 -0.1598813243 0)
(2.950085048 -0.1244802745 0)
(2.965922711 -0.08463154972 0)
(2.98568268 -0.03933108819 0)
(2.992816356 -0.01230076174 0)
(3.012481162 0.04493332311 0)
(3.010804238 0.04812192068 0)
(3.030128063 0.1299259928 0)
(2.954856346 -0.116333802 0)
(2.969366965 -0.08005789995 0)
(2.983071812 -0.0389308631 0)
(3.00003535 0.00793114856 0)
(3.007074085 0.02926061484 0)
(3.021004218 0.08126806159 0)
(3.027850286 0.09411304659 0)
(3.038165385 0.1411234488 0)
(2.968998337 -0.08021644099 0)
(2.991290703 -0.01957139371 0)
(2.997973184 0.00268961326 0)
(3.017616498 0.06684310564 0)
(3.023788971 0.08153282149 0)
(3.036893625 0.1394544468 0)
(3.045761788 0.1709806071 0)
(3.053504139 0.1986107368 0)
(2.988500936 -0.026052166 0)
(3.004677796 0.02349894885 0)
(3.015701653 0.05425446026 0)
(3.0267713 0.09858043903 0)
(3.035773469 0.126501306 0)
(3.037725511 0.1485416857 0)
(3.049104113 0.1821511002 0)
(3.052811648 0.1908083645 0)
(3.004936821 0.02949354994 0)
(3.024284129 0.09231599096 0)
(3.032969571 0.1161950113 0)
(3.043706392 0.175359818 0)
(3.051804945 0.1992215449 0)
(3.056363184 0.2212495832 0)
(3.062778296 0.2105072015 0)
(3.059076689 0.1983672124 0)
(3.018092713 0.06966454693 0)
(3.034632056 0.1288678588 0)
(3.041442908 0.1515279924 0)
(3.042929813 0.1725126544 0)
(3.057315293 0.2024581307 0)
(3.059094612 0.2087401303 0)
(3.059222972 0.2075648536 0)
(3.047099324 0.159506757 0)
(3.046232507 0.1694944198 0)
(3.052006403 0.2001998273 0)
(3.057454437 0.2335109078 0)
(3.066041985 0.2209075823 0)
(3.065079611 0.2165326707 0)
(3.060257424 0.2046231871 0)
(3.051224258 0.1765281602 0)
(3.025091279 0.08528891332 0)
(3.049245939 0.1767253735 0)
(3.060162428 0.2105061254 0)
(3.061094813 0.2187772185 0)
(3.061467647 0.2181016687 0)
(3.05549905 0.1957774544 0)
(3.045947983 0.1331728209 0)
(3.030350613 0.06882981453 0)
(3.01220183 0.03261209832 0)
(3.070492074 0.2425673704 0)
(3.073493558 0.2305185679 0)
(3.066284699 0.2205759613 0)
(3.053715303 0.1835359375 0)
(3.034526513 0.1127232728 0)
(3.037309527 0.08968442869 0)
(3.027013708 0.04947924511 0)
(3.005273685 0.01310092838 0)
(3.068359629 0.2363868936 0)
(3.063961259 0.2162829295 0)
(3.043725967 0.1505278234 0)
(3.041135641 0.1006121959 0)
(3.018306807 0.008591471137 0)
(3.004231502 -0.0009506264755 0)
(3.00241179 0.002942877145 0)
(3.00167629 0.001276217182 0)
(3.057478105 0.2003185387 0)
(3.03651828 0.1198471124 0)
(3.017897883 0.06081877968 0)
)
;

boundaryField
{
    inlet
    {
        type            fixedValue;
        value           nonuniform 0();
    }
    outlet
    {
        type            inletOutlet;
        inletValue      uniform (3 0 0);
        value           nonuniform List<vector> 
17
(
(2.874071155 0.0119914435 0)
(2.8774715 0.06431152118 0)
(2.899124641 0.06279859249 0)
(2.926416144 0.1029993098 0)
(2.954623799 0.09596005653 0)
(2.979676734 0.09334046816 0)
(3.007988787 0.09198762477 0)
(3.030128063 0.1299259928 0)
(3.038165385 0.1411234488 0)
(3.053504139 0.1986107368 0)
(3.052811648 0.1908083645 0)
(3.059076689 0.1983672124 0)
(3.047099324 0.159506757 0)
(3.025091279 0.08528891332 0)
(3.01220183 0.03261209832 0)
(3.005273685 0.01310092838 0)
(3.00167629 0.001276217182 0)
)
;
    }
    bottom
    {
        type            slip;
    }
    top
    {
        type            slip;
    }
    obstacle
    {
        type            slip;
    }
    defaultFaces
    {
        type            empty;
    }
    procBoundary5to4
    {
        type            processor;
        value           nonuniform List<vector> 
17
(
(2.994868278 -0.005436806936 0)
(2.986711987 -0.03354885513 0)
(2.962952888 -0.08978061471 0)
(2.942299808 -0.1511647704 0)
(2.928437058 -0.1945558922 0)
(2.9265085 -0.1838052046 0)
(2.920272758 -0.1884612107 0)
(2.925299778 -0.1835282289 0)
(2.93728748 -0.1616984849 0)
(2.955196036 -0.1177273176 0)
(2.974928555 -0.06384763556 0)
(2.993856293 -0.007372116796 0)
(3.012861707 0.05511657248 0)
(3.033134309 0.1178272878 0)
(3.044341273 0.1609289875 0)
(3.065561607 0.2414650326 0)
(3.067196399 0.2342110299 0)
)
;
    }
    procBoundary5to10
    {
        type            processor;
        value           uniform (3.070227241 0.235879465 0);
    }
    procBoundary5to11
    {
        type            processor;
        value           nonuniform List<vector> 9((3.021477587 0.04569853762 0) (3.008622128 0.01658143583 0) (3.002811295 0.006759205013 0) (2.999730487 0.004320675734 0) (3.000720157 0.002691847152 0) (3.034724424 0.097275146 0) (3.030489676 0.06662202782 0) (3.021477587 0.04569853762 0) (3.013244743 0.004526710381 0));
    }
}


// ************************************************************************* //
