/*--------------------------------*- C++ -*----------------------------------*\
  =========                 |
  \\      /  F ield         | OpenFOAM: The Open Source CFD Toolbox
   \\    /   O peration     | Website:  https://openfoam.org
    \\  /    A nd           | Version:  7
     \\/     M anipulation  |
\*---------------------------------------------------------------------------*/
FoamFile
{
    version     2.0;
    format      ascii;
    class       volScalarField;
    location    "1";
    object      T;
}
// * * * * * * * * * * * * * * * * * * * * * * * * * * * * * * * * * * * * * //

dimensions      [0 0 0 1 0 0 0];

internalField   nonuniform List<scalar> 
2223
(
0.9458953495
0.9418033715
0.9359475522
0.9303531154
0.9271181023
0.9227941685
0.9163694853
0.9127423052
0.9102440827
0.9053041068
0.900083267
0.8980960509
0.8953585735
0.8897874957
0.8863703261
0.8851051726
0.8820830673
0.8769689452
0.8747756792
0.8734018689
0.8698369438
0.8654737657
0.995694415
0.9929028243
0.9891982556
0.9848311746
0.9802586385
0.9749059524
0.9694266773
0.9646861043
0.9591572089
0.9532264953
0.9489174866
0.9443144791
0.93810868
0.9335665008
0.9303139558
0.9252035233
0.9195571511
0.9167911478
0.9135339245
0.9075881419
0.9037364998
0.9020289753
0.8984663167
0.8928916198
0.8904759015
0.88862169
0.8843633669
0.8800708278
0.8789281004
0.8771290607
0.872470966
0.9981094986
0.9963815306
0.9938775628
0.9904647928
0.9864827782
0.9820782841
0.97686025
0.9718838844
0.9671963327
0.9614634922
0.9562404889
0.9522542293
0.9470455359
0.9411061511
0.9373999227
0.9335716202
0.9275985539
0.9231439754
0.9205659989
0.9161453867
0.9102428331
0.9077063814
0.9054751746
0.9005927002
0.8960562555
0.8944224032
0.8918199324
0.8866666317
0.8837908229
0.8826529558
0.879765385
0.9993255531
0.9984590246
0.9969758288
0.9947338723
0.991632389
0.9879891265
0.9837042522
0.9787495461
0.9741630122
0.9692826864
0.9635362961
0.9588779542
0.9546143323
0.9489023195
0.9438168752
0.9404275014
0.9358522798
0.9298927502
0.9265254317
0.9236933284
0.9185100366
0.9135933178
0.9114718071
0.9083564424
0.9027662606
0.8996931968
0.898183866
0.8946800015
0.88940973
0.887450438
0.8859294711
0.999809803
0.9994712163
0.9987529615
0.9974844837
0.9954874399
0.9927025176
0.9893457191
0.9852101413
0.980615464
0.9762815051
0.9712619423
0.9658701637
0.9617004095
0.9571250374
0.9513445008
0.9471711836
0.9436620705
0.938227116
0.9329655124
0.9301693208
0.9265110281
0.9206798225
0.9171124069
0.9149334567
0.9106490312
0.9053584151
0.9034079742
0.901381014
0.8967163234
0.8925641178
0.8911886932
0.9999591246
0.9998573315
0.9995881565
0.9989979287
0.9979171739
0.9961528608
0.9936716079
0.9905598124
0.9866220064
0.9824014034
0.978154615
0.9730429782
0.9681407374
0.9640589954
0.958957999
0.9534985328
0.9498335461
0.9458310997
0.9401202514
0.9359386348
0.9331447069
0.9286263384
0.9231074218
0.9205447485
0.918001138
0.9129084134
0.9085478264
0.9068566803
0.9040579675
0.8989204222
0.8960893638
0.999993505
0.9999707119
0.9998937554
0.999681533
0.9992004202
0.9982838395
0.9967408923
0.9945377713
0.9916459623
0.9879641606
0.9840785485
0.9798618553
0.9748565344
0.9704561968
0.9663418212
0.9609825751
0.9562137877
0.9528187867
0.9482106653
0.9426450807
0.9393217585
0.936111369
0.9306778789
0.9261388549
0.923956377
0.9205170652
0.9149372782
0.9119306612
0.910106315
0.9062169523
0.9013445743
0.999999253
0.9999955686
0.9999791949
0.9999214839
0.999755657
0.9993663444
0.9985934874
0.9972572917
0.9953038363
0.9926242995
0.9892342074
0.9856192512
0.9814082075
0.9766539122
0.9725841566
0.968189129
0.9628052276
0.9586564667
0.9550230562
0.9498263278
0.944943755
0.9420342288
0.9382545479
0.9326630686
0.9291799098
0.9268482129
0.9225673468
0.9174348702
0.9153068651
0.9130519996
0.9082730795
0.9999999392
0.9999995165
0.9999970048
0.9999853518
0.9999424323
0.999814032
0.9995011339
0.9988540271
0.9977073362
0.9959769051
0.9935147321
0.9904252028
0.9870156767
0.9828658571
0.9784656308
0.9745897706
0.9699709149
0.9649020871
0.9612676044
0.9573367976
0.9518884087
0.9478801209
0.9449988471
0.9404086203
0.9351264239
0.9324312991
0.9295806336
0.9243929016
0.920311905
0.918523386
0.9154451988
0.9999999966
0.9999999627
0.9999996901
0.9999979948
0.9999897773
0.9999581331
0.9998596092
0.9996098749
0.9990725709
0.998096016
0.9965662587
0.9943273014
0.9915247355
0.9882752631
0.9842551117
0.9802241738
0.9763732925
0.9715642448
0.9669586274
0.9634535167
0.9589985567
0.9537340724
0.9503579583
0.9471056424
0.9419832994
0.9375789642
0.9352072512
0.9317412428
0.9263394702
0.9232826985
0.9213753537
0.9999999999
0.999999998
0.9999999774
0.9999998034
0.9999986705
0.9999929295
0.9999698116
0.9998948997
0.999697026
0.9992548868
0.9984285012
0.9970807618
0.9950678211
0.9925260696
0.9894208966
0.985608725
0.9818940025
0.9780054358
0.973207309
0.9691128031
0.9656130796
0.9607930326
0.9560802443
0.9531220411
0.9493702371
0.9439872574
0.9405232885
0.9380617688
0.9336960628
0.928631024
0.9263669723
1
0.9999999999
0.9999999989
0.9999999864
0.9999998765
0.9999991273
0.9999951544
0.9999784248
0.9999219658
0.9997663702
0.9994057972
0.998710434
0.9975298467
0.995738302
0.9934292535
0.990471816
0.9869178409
0.9834396717
0.9794692722
0.9748508924
0.9711362002
0.9673698701
0.9623237757
0.9582496611
0.9552616223
0.9509050025
0.9458475583
0.9430401262
0.9402132194
0.9353239891
0.931119418
1
1
1
0.9999999994
0.999999992
0.9999999232
0.9999994327
0.9999967091
0.9999847164
0.9999425285
0.9998211591
0.9995297426
0.9989478704
0.9979214095
0.9963402727
0.9942375465
0.991447099
0.9881720867
0.9848564117
0.98085139
0.9765447377
0.9730785025
0.9690570396
0.9641037965
0.9606487678
0.9575288102
0.9526819529
0.9482855633
0.9458224739
0.942402775
0.9371614733
1
1
1
1
0.9999999996
0.9999999953
0.9999999528
0.9999996348
0.9999977853
0.9999892707
0.9999580199
0.9998641652
0.9996306763
0.9991466038
0.998261676
0.9968750585
0.9949596618
0.9923566528
0.9893544424
0.9861458457
0.9821683027
0.9782210591
0.9748230529
0.9705051143
0.9658788165
0.9627426475
0.9591855404
0.9541330897
0.9504909119
0.9479740268
0.9439510087
1
1
1
1
1
0.9999999998
0.9999999973
0.9999999712
0.9999997673
0.9999985238
0.999992538
0.9999695917
0.999897665
0.9997121385
0.9993119524
0.9985559222
0.9973459685
0.9956049292
0.9932068067
0.9904512503
0.987325189
0.983466889
0.9798540018
0.976436657
0.9719647001
0.967813855
0.9648598362
0.9609117571
0.9559954297
0.9530235569
0.9503004616
1
1
1
1
1
1
0.9999999999
0.9999999984
0.9999999827
0.9999998532
0.9999990256
0.9999948589
0.9999781605
0.9999235452
0.9997773279
0.9994488393
0.9988087343
0.9977573646
0.9961824269
0.9939966263
0.9914578334
0.9884108643
0.9847444307
0.9813999803
0.9778732288
0.9733843928
0.9696972776
0.9666406817
0.9622583233
0.9577762076
0.9551224984
1
1
1
1
1
1
1
0.9999999999
0.9999999991
0.9999999897
0.9999999084
0.9999993633
0.9999964917
0.9999844521
0.999943375
0.9998290718
0.9995615338
0.9990242653
0.9981143445
0.9966993898
0.9947249737
0.9923740302
0.9894250261
0.9859978027
0.9828428061
0.9792102942
0.9748734628
0.9715699718
0.9683634982
0.9637434834
0.9598573006
1
1
1
1
1
1
1
1
1
0.9999999995
0.9999999939
0.9999999434
0.9999995883
0.9999976292
0.9999890315
0.9999584311
0.9998698021
0.9996537134
0.9992064475
0.9984224625
0.9971616857
0.9953896888
0.9932056945
0.9903798497
0.9872084558
0.9841720037
0.9804503461
0.9763835455
0.9733062951
0.9698070055
0.9651504065
1
1
1
1
1
1
1
1
1
1
0.9999999997
0.9999999965
0.9999999655
0.9999997365
0.9999984136
0.9999923331
0.9999697545
0.9999015982
0.9997285879
0.9993591491
0.9986871674
0.9975736538
0.995990714
0.9939595738
0.9912861623
0.9883601229
0.9853945236
0.9816561332
0.9779104467
0.9749481128
0.9712050171
1
1
1
1
1
1
1
1
1
1
1
0.9999999998
0.999999998
0.9999999791
0.9999998331
0.9999989488
0.9999946911
0.9999781901
0.999926223
0.9997889424
0.9994860754
0.998913569
0.9979388113
0.9965294135
0.9946445306
0.9921449954
0.9894410814
0.9865183211
0.9828363694
0.9794068746
0.9764335697
1
1
1
1
1
1
1
1
1
1
1
1
0.9999999999
0.9999999988
0.9999999875
0.9999998955
0.9999993105
0.9999963592
0.9999844155
0.999945138
0.9998372011
0.9995907311
0.9991063366
0.9982603221
0.9970090109
0.9952678167
0.9929564261
0.9904437276
0.9875619627
0.9840115138
0.9808473324
1
1
1
1
1
1
1
1
1
1
1
1
1
1
0.9999999993
0.9999999926
0.9999999352
0.9999995523
0.9999975277
0.9999889663
0.9999595488
0.9998754614
0.9996763809
0.9992696435
0.9985412755
0.9974335904
0.9958359009
0.9937162498
0.9913686598
0.9885386542
0.9851706125
1
1
1
1
1
1
1
1
1
1
1
1
1
1
1
0.9999999996
0.9999999957
0.9999999603
0.9999997124
0.9999983382
0.9999922617
0.9999704354
0.9999055346
0.9997459482
0.9994072155
0.998784813
0.9978078647
0.9963531672
0.99442189
0.9922179843
0.9894647206
1
1
1
1
1
1
1
1
1
1
1
1
1
1
1
1
0.9999999998
0.9999999975
0.9999999759
0.9999998172
0.9999988945
0.9999946248
0.9999785869
0.9999289579
0.999802038
0.9995223244
0.998994287
0.9981364445
0.9968231254
0.9950705549
0.9929985342
1
1
1
1
1
1
1
1
1
1
1
1
1
1
1
1
1
0.9999999999
0.9999999986
0.9999999856
0.9999998851
0.9999992722
0.9999963024
0.9999846337
0.9999470345
0.9998469169
0.9996179405
0.999173034
0.998423906
0.9972480071
0.9956625131
1
1
1
1
1
1
1
1
1
1
1
1
1
1
1
1
1
1
0.9999999999
0.9999999992
0.9999999915
0.9999999286
0.9999995259
0.9999974813
0.9999890763
0.9999608543
0.9998825509
0.9996967323
0.9993244387
0.9986743261
0.9976299731
1
1
1
1
1
1
1
1
1
1
1
1
1
1
1
1
1
1
1
1
0.9999999996
0.999999995
0.9999999561
0.9999996945
0.9999983014
0.9999923083
0.9999713226
0.9999106145
0.9997611458
0.9994517267
0.998891555
1
1
1
1
1
1
1
1
1
1
1
1
1
1
1
1
1
1
1
1
1
0.9999999998
0.9999999971
0.9999999733
0.9999998052
0.999998866
0.9999946363
0.9999791789
0.9999325365
0.9998133576
0.999558026
1
1
1
1
1
1
1
1
1
1
1
1
1
1
1
1
1
1
1
1
1
1
0.9999999999
0.9999999984
0.999999984
0.9999998771
0.9999992507
0.9999962966
0.9999850206
0.9999495156
0.9998553266
1
1
1
1
1
1
1
1
1
1
1
1
1
1
1
1
1
1
1
1
1
1
1
0.9999999999
0.9999999991
0.9999999905
0.9999999234
0.9999995102
0.9999974687
0.9999893236
0.9999625528
1
1
1
1
1
1
1
1
1
1
1
1
1
1
1
1
1
1
1
1
1
1
1
1
1
0.9999999995
0.9999999944
0.9999999528
0.9999996833
0.9999982876
0.999992463
1
1
1
1
1
1
1
1
1
1
1
1
1
1
1
1
1
1
1
1
1
1
1
1
1
1
0.9999999997
0.9999999968
0.9999999712
0.9999997974
0.9999988536
1
1
1
1
1
1
1
1
1
1
1
1
1
1
1
1
1
1
1
1
1
1
1
1
1
1
1
0.9999999998
0.9999999981
0.9999999827
0.9999998719
1
1
1
1
1
1
1
1
1
1
1
1
1
1
1
1
1
1
1
1
1
1
1
1
1
1
1
1
0.9999999999
0.999999999
0.9999999897
1
1
1
1
1
1
1
1
1
1
1
1
1
1
1
1
1
1
1
1
1
1
1
1
1
1
1
1
1
1
0.9999999994
1
1
1
1
1
1
1
1
1
1
1
1
1
1
1
1
1
1
1
1
1
1
1
1
1
1
1
1
1
1
1
1
1
1
1
1
1
1
1
1
1
1
1
1
1
1
1
1
1
1
1
1
1
1
1
1
1
1
1
1
1
1
1
1
1
1
1
1
1
1
1
1
1
1
1
1
1
1
1
1
1
1
1
1
1
1
1
1
1
1
1
1
1
1
1
1
1
1
1
1
1
1
1
1
1
1
1
1
1
1
1
1
1
1
1
1
1
1
1
1
1
1
1
1
1
1
1
1
1
1
1
1
1
1
1
1
1
1
1
1
1
1
1
1
1
1
1
1
1
1
1
1
1
1
1
1
1
1
1
1
1
1
1
1
1
1
1
1
1
1
1
1
1
1
1
1
1
1
1
1
1
1
1
1
1
1
1
1
1
1
1
1
1
1
1
1
1
1
1
1
1
1
1
1
1
1
1
1
1
1
1
1
1
1
1
1
1
1
1
1
1
1
1
1
1
1
1
1
1
1
1
1
1
1
1
1
1
1
1
1
1
1
1
1
1
1
1
1
1
1
1
1
1
1
1
1
1
1
1
1
1
1
1
1
1
1
1
1
1
1
1
1
1
1
1
1
1
1
1
1
1
1
1
1
1
1
1
1
1
1
1
1
1
1
1
1
1
1
1
1
1
1
1
1
1
1
1
1
1
1
1
1
1
1
1
1
1
1
1
1
1
1
1
1
1
1
1
1
1
1
1
1
1
1
1
1
1
1
1
1
1
1
1
1
1
1
1
1
1
1
1
1
1
1
1
1
1
1
1
1
1
1
1
1
1
1
1
1
1
1
1
1
1
1
1
1
1
1
1
1
1
1
1
1
1
1
1
1
1
1
1
1
1
1
1
1
1
1
1
1
1
1
1
1
1
1
1
1
1
1
1
1
1
1
1
1
1
1
1
1
1
1
1
1
1
1
1
1
1
1
1
1
1
1
1
1
1
1
1
1
1
1
1
1
1
1
1
1
1
1
1
1
1
1
1
1
1
1
1
1
1
1
1
1
1
1
1
1
1
1
1
1
1
1
1
1
1
1
1
1
1
1
1
1
1
1
1
1
1
1
1
1
1
1
1
1
1
1
1
1
1
1
1
1
1
1
1
1
1
1
1
1
1
1
1
1
1
1
1
1
1
1
1
1
1
1
1
1
1
1
1
1
1
1
1
1
1
1
1
1
1
1
1
1
1
1
1
1
1
1
1
1
1
1
1
1
1
1
1
1
1
1
1
1
1
1
1
1
1
1
1
1
1
1
1
1
1
1
1
1
1
1
1
1
1
1
1
1
1
1
1
1
1
1
1
1
1
1
1
1
1
1
1
1
1
1
1
1
1
1
1
1
1
1
1
1
1
1
1
1
1
1
1
1
1
1
1
1
1
1
1
1
1
1
1
1
1
1
1
1
1
1
1
1
1
1
1
1
1
1
1
1
1
1
1
1
1
1
1
1
1
1
1
1
1
1
1
1
1
1
1
1
1
1
1
1
1
1
1
1
1
1
1
1
1
1
1
1
1
1
1
1
1
1
1
1
1
1
1
1
1
1
1
1
1
1
1
1
1
1
1
1
1
1
1
1
1
1
1
1
1
1
1
1
1
1
1
1
1
1
1
1
1
1
1
1
1
1
1
1
1
1
1
1
1
1
1
1
1
1
1
1
1
1
1
1
1
1
1
1
1
1
1
1
1
1
1
1
1
1
1
1
1
1
1
1
1
1
1
1
1
1
1
1
1
1
1
1
1
1
1
1
1
1
1
1
1
1
1
1
1
1
1
1
1
1
1
1
1
1
1
1
1
1
1
1
1
1
1
1
1
1
1
1
1
1
1
1
1
1
1
1
1
1
1
1
1
1
1
1
1
1
1
1
1
1
1
1
1
1
1
1
1
1
1
1
1
1
1
1
1
1
1
1
1
1
1
1
1
1
1
1
1
1
1
1
1
1
1
1
1
1
1
1
1
1
1
1
1
1
1
1
1
1
1
1
1
1
1
1
1
1
1
1
1
1
1
1
1
1
1
1
1
1
1
1
1
1
1
1
1
1
1
1
1
1
1
1
1
1
1
1
1
1
1
1
1
1
1
1
1
1
1
1
1
1
1
1
1
1
1
1
1
1
1
1
1
1
1
1
1
1
1
1
1
1
1
1
1
1
1
1
1
1
1
1
1
1
1
1
1
1
1
1
1
1
1
1
1
1
1
1
1
1
1
1
1
1
1
1
1
1
1
1
1
1
1
1
1
1
1
1
1
1
1
1
1
1
1
1
1
1
1
1
1
1
1
1
1
1
1
1
1
1
1
1
1
1
1
1
1
1
1
1
1
1
1
1
1
1
1
1
1
1
1
1
1
1
1
1
1
1
1
1
1
1
1
1
1
1
1
1
1
1
1
1
1
1
1
1
1
1
1
1
1
1
1
1
1
1
1
1
1
1
1
1
1
1
1
1
1
1
1
1
1
1
1
1
1
1
1
1
1
1
1
1
1
1
1
1
1
1
1
1
1
1
1
1
1
1
1
1
1
1
1
1
1
1
1
1
1
1
1
1
1
1
1
)
;

boundaryField
{
    inlet
    {
        type            fixedValue;
        value           nonuniform 0();
    }
    outlet
    {
        type            inletOutlet;
        inletValue      nonuniform 0();
        value           nonuniform 0();
    }
    bottom
    {
        type            slip;
    }
    top
    {
        type            slip;
    }
    obstacle
    {
        type            zeroGradient;
    }
    defaultFaces
    {
        type            empty;
    }
    procBoundary34to27
    {
        type            processor;
        value           nonuniform List<scalar> 9(0.9976963538 0.9991452004 0.9997482882 0.9999434262 0.9999905637 0.9999988573 0.9999999019 0.9999999942 0.9999999998);
    }
    procBoundary34to28
    {
        type            processor;
        value           nonuniform List<scalar> 
32
(
0.9380930297
0.9331397066
0.9268332558
0.9229843394
0.9196318773
0.9137059264
0.9085556506
0.9063901126
0.9029099158
0.8970219463
0.893935864
0.8918864669
0.8873117385
0.8822970909
0.881034738
0.8792580277
0.8745673752
0.8706659398
0.8693876963
0.8670453402
0.8624568394
0.8605157494
0.9917932586
0.987824547
0.9830602148
0.9782329469
0.9729071401
0.9670112272
0.9620947993
0.9570517913
0.9508103936
0.9508103936
)
;
    }
    procBoundary34to29
    {
        type            processor;
        value           uniform 0.8642945057;
    }
    procBoundary34to33
    {
        type            processor;
        value           nonuniform List<scalar> 
61
(
1
1
1
1
1
1
1
1
1
1
1
1
1
1
1
1
1
1
1
1
1
1
1
1
1
1
1
1
1
1
1
1
1
1
1
1
1
1
1
1
1
1
1
1
1
1
1
1
1
1
1
1
1
1
1
1
1
1
1
1
1
)
;
    }
    procBoundary34to35
    {
        type            processor;
        value           nonuniform List<scalar> 
71
(
0.8690361468
0.8749288677
0.8821648859
0.8889101974
0.8947005294
0.8995779698
0.9042152961
0.9101727818
0.9175425511
0.9239900348
0.9291451145
0.9339337944
0.938999256
0.9456528468
0.9519569839
0.9573791224
0.9617917548
0.9667335149
0.9724649291
0.9778171016
0.9822095251
0.9863044955
0.9903465473
0.9937155882
0.9961988853
0.9979707984
0.9990789256
0.9996461736
0.9998887689
0.9999724725
0.9999947309
0.9999992406
0.9999999199
0.9999999939
0.9999999997
1
1
1
1
1
1
1
1
1
1
1
1
1
1
1
1
1
1
1
1
1
1
1
1
1
1
1
1
1
1
1
1
1
1
1
1
)
;
    }
}


// ************************************************************************* //
