/*--------------------------------*- C++ -*----------------------------------*\
  =========                 |
  \\      /  F ield         | OpenFOAM: The Open Source CFD Toolbox
   \\    /   O peration     | Website:  https://openfoam.org
    \\  /    A nd           | Version:  7
     \\/     M anipulation  |
\*---------------------------------------------------------------------------*/
FoamFile
{
    version     2.0;
    format      ascii;
    class       volVectorField;
    location    "5";
    object      U;
}
// * * * * * * * * * * * * * * * * * * * * * * * * * * * * * * * * * * * * * //

dimensions      [0 1 -1 0 0 0 0];

internalField   nonuniform List<vector> 
2222
(
(3 3.261519688e-16 0)
(3 1.879412858e-15 0)
(3 1.969002199e-15 0)
(3 2.010329708e-15 0)
(3 7.47958028e-16 0)
(3 -4.067628332e-15 0)
(3 -5.674922943e-15 0)
(3 -6.278850255e-15 0)
(3 -6.729203516e-15 0)
(3 -6.949571482e-15 0)
(3 -6.254634881e-15 0)
(3 -5.692953815e-15 0)
(3 -3.269435145e-15 0)
(3 -2.899362163e-15 0)
(3 -2.69927661e-15 0)
(3 -2.534751301e-15 0)
(3 -1.476605028e-15 0)
(3 -6.169080385e-16 0)
(3 -7.962859551e-16 0)
(3 -2.553427736e-15 0)
(3 -2.944220699e-15 0)
(3 -2.658424621e-15 0)
(3 -1.440563083e-15 0)
(3 3.241419304e-16 0)
(3 5.302092964e-16 0)
(3 -5.141460251e-16 0)
(3 -6.609011256e-16 0)
(3 -4.824209438e-16 0)
(3 6.808786429e-16 0)
(3 2.887863929e-15 0)
(3 4.224750056e-15 0)
(3 4.260554287e-15 0)
(3 4.189780302e-15 0)
(3 3.498960215e-15 0)
(3 2.625607325e-15 0)
(3 4.634373891e-15 0)
(3 5.400713388e-15 0)
(3 4.301787079e-15 0)
(3 2.541781161e-15 0)
(3 1.724769555e-16 0)
(3 -2.008819147e-15 0)
(3 -4.117264096e-15 0)
(3 -3.924812432e-15 0)
(3 -3.444788282e-15 0)
(3 -1.839704749e-15 0)
(3 -3.827402184e-16 0)
(3 7.411230403e-16 0)
(3 4.425096029e-15 0)
(3 8.846168129e-15 0)
(3 7.922311453e-15 0)
(3 5.82247069e-15 0)
(3 3.708458978e-15 0)
(3 1.487389114e-15 0)
(3 -1.190859784e-15 0)
(3 -2.088209511e-15 0)
(3 -2.128926199e-15 0)
(3 -3.329632277e-15 0)
(3 -3.388679043e-15 0)
(3 -2.466264341e-15 0)
(3 9.55632062e-17 0)
(3 7.179541214e-16 0)
(3 1.43935319e-15 0)
(3 1.842068905e-16 0)
(3 -1.183291145e-16 0)
(3 -9.296331256e-16 0)
(3 -2.772626514e-15 0)
(3 -1.41905603e-15 0)
(3 -3.85088198e-16 0)
(3 -6.726540488e-16 0)
(3 -6.122279222e-16 0)
(3 1.413637223e-16 0)
(3 -3.246013941e-15 0)
(3 -5.183636556e-15 0)
(3 -6.285464565e-15 0)
(3 -6.853516559e-15 0)
(3 -6.318200977e-15 0)
(3 -6.681072411e-15 0)
(3 -5.503143855e-15 0)
(3 -3.485724381e-15 0)
(3 -2.245898276e-15 0)
(3 -2.447024152e-15 0)
(3 -1.813260629e-15 0)
(3 -1.264554468e-15 0)
(3 -5.065507987e-16 0)
(3 -2.583908102e-15 0)
(3 -6.470055368e-15 0)
(3 -8.095821783e-15 0)
(3 -6.737207914e-15 0)
(3 -5.671282338e-15 0)
(3 -3.773831585e-15 0)
(3 -7.948184073e-17 0)
(3 1.533843325e-16 0)
(3 1.696726535e-15 0)
(3 2.425709772e-15 0)
(3 3.455909248e-15 0)
(3 4.152533094e-15 0)
(3 4.10623523e-15 0)
(3 4.020429628e-15 0)
(3 5.197374422e-15 0)
(3 6.25812471e-15 0)
(3 6.29749003e-15 0)
(3 4.886023452e-15 0)
(3 3.083924444e-15 0)
(3 3.386842319e-15 0)
(3 2.499522186e-15 0)
(3 1.970052106e-15 0)
(3 1.201552916e-15 0)
(3 5.7989856e-16 0)
(3 -1.645490284e-15 0)
(3 -2.568649057e-15 0)
(3 -3.777007123e-15 0)
(3 -2.974041792e-15 0)
(3 1.434490114e-16 0)
(3 2.57565649e-15 0)
(3 3.451372659e-15 0)
(3 4.423563136e-15 0)
(3 3.624416639e-15 0)
(3 3.064416472e-15 0)
(3 1.668594372e-16 0)
(3 -1.891048386e-15 0)
(3 -3.261845177e-15 0)
(3 -3.434544013e-15 0)
(3 -2.915210434e-15 0)
(3 -2.859606592e-15 0)
(3 -2.725675288e-15 0)
(3 -2.481155269e-15 0)
(3 -1.517029407e-15 0)
(3 1.553037954e-15 0)
(3 2.182083096e-15 0)
(3 1.277127301e-15 0)
(3 1.814323608e-15 0)
(3 9.451310752e-16 0)
(3 -1.858312372e-15 0)
(3 -1.791866039e-15 0)
(3 -1.947540343e-15 0)
(3 -1.333788995e-15 0)
(3 -9.234693934e-16 0)
(3 -9.467656918e-16 0)
(3 -2.408211208e-15 0)
(3 -3.32080432e-15 0)
(3 -4.993640691e-15 0)
(3 -6.02900082e-15 0)
(3 -5.871750128e-15 0)
(3 -4.431536092e-15 0)
(3 -3.411188018e-15 0)
(3 -5.596097722e-16 0)
(3 -4.364651892e-16 0)
(3 -5.391779776e-16 0)
(3 5.469904943e-16 0)
(3 -4.552746477e-16 0)
(3 -2.476910776e-15 0)
(3 -8.18938842e-15 0)
(3 -1.250546657e-14 0)
(3 -1.226721019e-14 0)
(3 -1.04649515e-14 0)
(3 -9.011480216e-15 0)
(3 -6.975314189e-15 0)
(3 -4.346685905e-16 0)
(3 3.553118695e-16 0)
(3 2.09415652e-15 0)
(3 2.038803349e-15 0)
(3 2.343307218e-15 0)
(3 2.164654327e-15 0)
(3 2.251599553e-16 0)
(3 -2.266094467e-16 0)
(3 1.767162464e-15 0)
(3 3.182015858e-15 0)
(3 2.90748805e-15 0)
(3 2.043538581e-15 0)
(3 1.66485855e-15 0)
(3 2.761826976e-15 0)
(3 3.385542416e-15 0)
(3 3.626018612e-15 0)
(3 3.574626814e-15 0)
(3 2.343652871e-15 0)
(3 9.991430753e-17 0)
(3 -1.16133223e-15 0)
(3 2.742681146e-16 0)
(3 1.214032609e-15 0)
(3 2.532113925e-15 0)
(3 2.230151946e-15 0)
(3 1.964536451e-16 0)
(3 -7.498640862e-16 0)
(3 7.573124229e-16 0)
(3 1.133040186e-15 0)
(3 1.944949427e-16 0)
(3 -2.576705945e-15 0)
(3 -3.001118051e-15 0)
(3 -3.846166911e-15 0)
(3 -4.316083979e-15 0)
(3 -3.103961917e-15 0)
(3 -1.769579036e-16 0)
(3 5.760555469e-16 0)
(3 2.40436843e-16 0)
(3 1.466785649e-15 0)
(3 4.801428091e-15 0)
(3 6.984729431e-15 0)
(3 5.91724795e-15 0)
(3 2.991040866e-15 0)
(3 -1.021375146e-15 0)
(3 -2.891449753e-15 0)
(3 -2.513878439e-15 0)
(3 -8.202774488e-16 0)
(3 2.020304611e-17 0)
(3 -1.375546157e-15 0)
(3 -2.278403603e-15 0)
(3 -3.943854671e-15 0)
(3 -4.120207067e-15 0)
(3 -5.163850835e-15 0)
(3 -5.230159441e-15 0)
(3 -3.77475347e-15 0)
(3 -1.839036901e-15 0)
(3 3.313488435e-16 0)
(3 1.941295168e-15 0)
(3 2.599050739e-15 0)
(3 3.178428017e-15 0)
(3 -2.427253308e-16 0)
(3 -4.323731915e-15 0)
(3 -7.876432382e-15 0)
(3 -9.249534683e-15 0)
(3 -9.709705833e-15 0)
(3 -8.61167779e-15 0)
(3 -6.589870952e-15 0)
(3 -5.966977144e-15 0)
(3 2.386831913e-16 0)
(3 -8.736958888e-16 0)
(3 -1.085454063e-15 0)
(3 -5.754135314e-16 0)
(3 -6.295262472e-16 0)
(3 -1.305738661e-15 0)
(3 -2.149751341e-15 0)
(3 -2.111299409e-15 0)
(3 -1.852641864e-15 0)
(3 -1.306068795e-15 0)
(3 -2.983174854e-16 0)
(3 5.097294334e-16 0)
(3 2.370177054e-15 0)
(3 2.675357228e-15 0)
(3 2.692822394e-15 0)
(3 3.526613289e-15 0)
(3 3.613781661e-15 0)
(3 2.33737663e-15 0)
(3 2.37493338e-15 0)
(3 1.408512899e-15 0)
(3 1.922554984e-15 0)
(3 1.420789661e-15 0)
(3 3.969598863e-16 0)
(3 4.037980493e-17 0)
(3 -2.064553515e-15 0)
(3 -3.477453893e-15 0)
(3 -3.020202863e-15 0)
(3 -9.690828788e-16 0)
(3 1.361012524e-15 0)
(3 1.00140348e-15 0)
(3 -5.898273202e-18 0)
(3 -2.020234473e-15 0)
(3 -2.377884314e-15 0)
(3 -1.445463363e-15 0)
(3 2.181071196e-16 0)
(3 2.086990155e-15 0)
(3 1.979431099e-15 0)
(3 2.495473457e-15 0)
(3 3.911528786e-15 0)
(3 8.504350557e-15 0)
(3 7.771334624e-15 0)
(3 4.124473375e-15 0)
(3 2.292726656e-15 0)
(3 2.234731562e-15 0)
(3 4.359647965e-15 0)
(3 4.332981538e-15 0)
(3 1.858268782e-15 0)
(3 3.935392159e-16 0)
(3 -1.409464983e-15 0)
(3 -1.300582526e-15 0)
(3 -1.815569796e-15 0)
(3 -2.54948134e-15 0)
(3 -1.944289848e-15 0)
(3 -1.782983746e-15 0)
(3 -1.161701395e-15 0)
(3 7.6197258e-16 0)
(3 2.673600589e-15 0)
(3 2.886822811e-15 0)
(3 1.667561221e-15 0)
(3 3.568373277e-16 0)
(3 -2.232251832e-15 0)
(3 -3.385853818e-15 0)
(3 -5.601058871e-15 0)
(3 -7.680245104e-15 0)
(3 -6.361069886e-15 0)
(3 -3.374114388e-15 0)
(3 -1.836413707e-15 0)
(3 -2.077370145e-16 0)
(3 -7.932749678e-16 0)
(3 -1.488558141e-15 0)
(3 -1.596150795e-15 0)
(3 -1.6088347e-15 0)
(3 -1.149275957e-15 0)
(3 -9.506662261e-16 0)
(3 -2.880168131e-16 0)
(3 -9.579838796e-16 0)
(3 -1.922691048e-15 0)
(3 -1.320998413e-15 0)
(3 1.843328564e-15 0)
(3 2.512662208e-15 0)
(3 1.562420696e-15 0)
(3 9.362939744e-16 0)
(3 1.083785146e-15 0)
(3 1.259711833e-15 0)
(3 2.267502686e-15 0)
(3 3.557315476e-15 0)
(3 5.33108247e-15 0)
(3 4.507239936e-15 0)
(3 2.717089025e-15 0)
(3 5.977281469e-16 0)
(3 -4.991320346e-16 0)
(3 -5.85916795e-16 0)
(3 -2.584446521e-15 0)
(3 -3.334821387e-15 0)
(3 -3.573221835e-15 0)
(3 -1.87260331e-15 0)
(3 1.38131608e-15 0)
(3 2.142639381e-15 0)
(3 1.095489656e-15 0)
(3 2.412174581e-16 0)
(3 -4.060677956e-16 0)
(3 -1.194100264e-15 0)
(3 -5.730620378e-16 0)
(3 6.774807418e-16 0)
(3 1.721869593e-15 0)
(3 2.033227321e-15 0)
(3 3.543218648e-15 0)
(3 2.863936581e-15 0)
(3 2.814609866e-15 0)
(3 2.358171861e-15 0)
(3 2.470189066e-15 0)
(3 2.359068014e-15 0)
(3 2.24866345e-15 0)
(3 2.095134229e-15 0)
(3 8.072776444e-16 0)
(3 9.875820495e-16 0)
(3 1.159572479e-15 0)
(3 1.012826221e-15 0)
(3 9.138573079e-16 0)
(3 2.417362079e-15 0)
(3 2.426800024e-15 0)
(3 2.935989682e-15 0)
(3 3.911225343e-15 0)
(3 3.597977822e-15 0)
(3 3.233743621e-15 0)
(3 1.651471458e-15 0)
(3 -3.183217395e-16 0)
(3 -2.085759455e-15 0)
(3 -2.698357667e-15 0)
(3 -2.57259989e-15 0)
(3 -1.868931766e-15 0)
(3 -8.246142815e-16 0)
(3 4.561492852e-16 0)
(3 3.090973777e-17 0)
(3 3.222891511e-17 0)
(3 3.747164136e-16 0)
(3 1.878487925e-16 0)
(3 -7.138005007e-16 0)
(3 -2.995540304e-16 0)
(3 -2.605925017e-16 0)
(3 -7.942938016e-17 0)
(3 -6.249442657e-16 0)
(3 -1.074640315e-15 0)
(3 -1.340406286e-15 0)
(3 3.333568204e-16 0)
(3 1.695999138e-15 0)
(3 1.617743392e-15 0)
(3 1.152682197e-15 0)
(3 6.823365099e-16 0)
(3 4.652216481e-16 0)
(3 2.853714879e-16 0)
(3 9.989750545e-16 0)
(3 1.971724997e-15 0)
(3 3.798860355e-15 0)
(3 3.739774168e-15 0)
(3 1.551902376e-15 0)
(3 2.982565268e-16 0)
(3 1.882995448e-15 0)
(3 6.516918918e-16 0)
(3 1.054154844e-15 0)
(3 7.091072149e-16 0)
(3 -8.926103714e-16 0)
(3 -1.74905228e-15 0)
(3 -6.050484027e-16 0)
(3 1.608504609e-15 0)
(3 2.881693163e-15 0)
(3 2.301294621e-15 0)
(3 1.063557422e-15 0)
(3 3.852922196e-16 0)
(3 -7.512398278e-16 0)
(3 -6.701288486e-16 0)
(3 -3.869083043e-16 0)
(3 -7.604532747e-16 0)
(3 -1.378692113e-15 0)
(3 -1.635208003e-15 0)
(3 -1.133416411e-15 0)
(3 -1.305600016e-15 0)
(3 -1.426962206e-15 0)
(3 -2.655245612e-15 0)
(3 -2.050853978e-15 0)
(3 -1.099711403e-15 0)
(3 -7.282263692e-16 0)
(3 4.904029359e-16 0)
(3 1.604797171e-15 0)
(3 2.954671994e-15 0)
(3 3.361435764e-15 0)
(3 3.630212912e-15 0)
(3 4.4396528e-15 0)
(3 4.818878656e-15 0)
(3 3.306538016e-15 0)
(3 1.993844057e-15 0)
(3 1.30305836e-15 0)
(3 -7.270555448e-16 0)
(3 -2.148015143e-15 0)
(3 -3.90886134e-15 0)
(3 -2.831336624e-15 0)
(3 6.932515408e-16 0)
(3 2.065519107e-15 0)
(3 1.753587601e-15 0)
(3 3.994284755e-16 0)
(3 1.781574809e-16 0)
(3 9.237132863e-17 0)
(3 9.583346076e-17 0)
(3 4.922958467e-16 0)
(3 5.631037775e-16 0)
(3 2.70530323e-16 0)
(3 -1.201386684e-15 0)
(3 -1.700339688e-15 0)
(3 -2.700922656e-15 0)
(3 -1.831902612e-15 0)
(3 -8.503380119e-16 0)
(3 3.908108104e-16 0)
(3 1.58320673e-16 0)
(3 -1.007955e-15 0)
(3 -1.00562599e-15 0)
(3 -4.896691666e-16 0)
(3 -6.884992422e-16 0)
(3 -6.974044895e-16 0)
(3 -1.736681703e-16 0)
(3 7.871152707e-16 0)
(3 1.090785888e-15 0)
(3 -7.051122393e-16 0)
(3 -2.216338333e-15 0)
(3 -2.393167405e-15 0)
(3 -8.928050107e-16 0)
(3 7.12438533e-16 0)
(3 2.206204291e-15 0)
(3 2.042516441e-15 0)
(3 2.514267327e-15 0)
(3 1.350198517e-15 0)
(3 -5.940248323e-16 0)
(3 -9.691986283e-16 0)
(3 1.116899411e-15 0)
(3 2.207407683e-15 0)
(3 1.717690675e-15 0)
(3 3.7071413e-16 0)
(3 -1.799918396e-16 0)
(3 -1.483209943e-15 0)
(3 -2.778982925e-15 0)
(3 -3.97950546e-15 0)
(3 -6.697442538e-15 0)
(3 -5.56314439e-15 0)
(3 -3.363207454e-15 0)
(3 -2.306346783e-15 0)
(3 -1.536907899e-15 0)
(3 -1.798203687e-15 0)
(3 -7.707187323e-16 0)
(3 -1.107952279e-15 0)
(3 3.961908155e-16 0)
(3 -1.583916156e-16 0)
(3 -3.383704217e-16 0)
(3 4.243630695e-16 0)
(3 7.444735046e-16 0)
(3 9.710911314e-16 0)
(3 1.733439875e-15 0)
(3 2.058207916e-15 0)
(3 2.183047643e-16 0)
(3 -6.131593578e-16 0)
(3 -2.439125441e-15 0)
(3 -3.581641383e-15 0)
(3 -4.065468447e-15 0)
(3 -2.364962039e-15 0)
(3 -2.466671212e-16 0)
(3 1.231707809e-15 0)
(3 2.493432256e-15 0)
(3 9.99480391e-16 0)
(3 -5.582665331e-16 0)
(3 -4.506508227e-16 0)
(3 8.12943267e-17 0)
(3 3.656823593e-16 0)
(3 2.401908339e-16 0)
(3 -8.491825824e-16 0)
(3 -1.302074158e-15 0)
(3 -2.723543618e-15 0)
(3 -2.818842837e-15 0)
(3 -2.64911161e-15 0)
(3 -1.319595135e-15 0)
(3 -1.237863937e-15 0)
(3 -1.832993218e-15 0)
(3 -2.893641566e-15 0)
(3 -2.747212614e-15 0)
(3 -1.751002278e-15 0)
(3 -2.00900139e-15 0)
(3 -2.878537888e-15 0)
(3 -2.161289394e-15 0)
(3 -5.195343414e-16 0)
(3 -2.405398164e-16 0)
(3 -1.782066083e-15 0)
(3 -2.648042389e-15 0)
(3 -1.328751327e-15 0)
(3 1.806746693e-17 0)
(3 4.750733528e-16 0)
(3 2.725565781e-15 0)
(3 3.695658579e-15 0)
(3 4.033180753e-15 0)
(3 3.643148946e-15 0)
(3 3.269395234e-15 0)
(3 2.918816961e-15 0)
(3 2.294813975e-15 0)
(3 9.670960164e-16 0)
(3 7.798138148e-16 0)
(3 1.236835653e-15 0)
(3 3.817424757e-16 0)
(3 7.097151496e-16 0)
(3 1.081994658e-16 0)
(3 -7.370135731e-16 0)
(3 -2.587550466e-15 0)
(3 -5.585513949e-15 0)
(3 -6.567742887e-15 0)
(3 -5.495868861e-15 0)
(3 -1.742897753e-15 0)
(3 8.854252808e-16 0)
(3 5.06714804e-16 0)
(3 -6.774204093e-16 0)
(3 4.267799477e-16 0)
(3 5.512722151e-16 0)
(3 1.925986571e-15 0)
(3 2.158207486e-15 0)
(3 2.038730317e-15 0)
(3 2.146675369e-15 0)
(3 2.217201011e-15 0)
(3 1.304045821e-15 0)
(3 3.58840101e-16 0)
(3 2.741791455e-16 0)
(3 -1.057992383e-15 0)
(3 -1.823611898e-15 0)
(3 -1.228530551e-15 0)
(3 5.281119433e-16 0)
(3 1.785392361e-15 0)
(3 2.134813485e-15 0)
(3 2.726270311e-15 0)
(3 2.606594973e-15 0)
(3 1.924743303e-15 0)
(3 1.312871515e-15 0)
(3 4.877751171e-16 0)
(3 3.700627243e-16 0)
(3 7.492244028e-16 0)
(3 4.01445291e-16 0)
(3 -8.703306518e-16 0)
(3 -9.875343492e-16 0)
(3 -1.189878592e-15 0)
(3 -3.143415232e-16 0)
(3 1.81876321e-16 0)
(3 1.343669213e-16 0)
(3 -8.79054338e-16 0)
(3 -3.180882804e-15 0)
(3 -3.80740964e-15 0)
(3 -1.786489162e-15 0)
(3 -5.317908148e-16 0)
(3 -2.639669476e-16 0)
(3 -8.5027936e-16 0)
(3 3.644256209e-16 0)
(3 6.726596498e-16 0)
(3 5.200528245e-17 0)
(3 -4.176796348e-16 0)
(3 -5.724400414e-17 0)
(3 9.071517976e-16 0)
(3 3.834730996e-15 0)
(3 3.670570521e-15 0)
(3 4.122059412e-15 0)
(3 2.223885888e-15 0)
(3 1.202974497e-15 0)
(3 1.222163477e-15 0)
(3 1.614714989e-15 0)
(3 2.513741091e-15 0)
(3 3.1154721e-15 0)
(3 2.152817054e-15 0)
(3 1.988677082e-15 0)
(3 9.804218619e-16 0)
(3 1.407599212e-15 0)
(3 1.260225654e-15 0)
(3 8.056552953e-16 0)
(3 -1.223886681e-15 0)
(3 -3.067674411e-15 0)
(3 -3.790591855e-15 0)
(3 -4.213968274e-15 0)
(3 -2.328352421e-15 0)
(3 -2.50696459e-15 0)
(3 -1.826092343e-15 0)
(3 -5.596407573e-17 0)
(3 3.74517154e-16 0)
(3 8.560844818e-16 0)
(3 5.271321871e-16 0)
(3 1.643043458e-15 0)
(3 3.445559102e-15 0)
(3 3.126732716e-15 0)
(3 3.099229552e-15 0)
(3 2.711848686e-15 0)
(3 2.305629026e-15 0)
(3 1.248753121e-15 0)
(3 1.13088289e-15 0)
(3 7.644933281e-16 0)
(3 1.934583461e-15 0)
(3 3.687443094e-15 0)
(3 6.257127274e-15 0)
(3 6.160507847e-15 0)
(3 5.809849294e-15 0)
(3 4.553451603e-15 0)
(3 2.756215234e-15 0)
(3 2.677249782e-15 0)
(3 2.352985631e-15 0)
(3 1.149004643e-15 0)
(3 1.694872868e-16 0)
(3 2.888578734e-16 0)
(3 3.736935385e-16 0)
(3 1.751559618e-15 0)
(3 1.586449753e-15 0)
(3 2.152296884e-15 0)
(3 3.088515396e-15 0)
(3 2.762720265e-15 0)
(3 1.604101069e-15 0)
(3 4.513159358e-16 0)
(3 8.789070689e-17 0)
(3 -2.109456137e-16 0)
(3 -4.056335244e-16 0)
(3 -5.264402269e-16 0)
(3 1.740747358e-16 0)
(3 1.312725456e-15 0)
(3 1.076410849e-15 0)
(3 1.183092674e-15 0)
(3 1.208026452e-15 0)
(3 2.083423354e-15 0)
(3 2.344227275e-15 0)
(3 3.232413859e-15 0)
(3 3.137764046e-15 0)
(3 1.686819072e-15 0)
(3 9.503500852e-16 0)
(3 -7.304297276e-16 0)
(3 -8.473410287e-16 0)
(3 1.592466147e-16 0)
(3 1.008674848e-15 0)
(3 1.896858624e-15 0)
(3 7.581372349e-16 0)
(3 -1.727025545e-16 0)
(3 -1.561545321e-15 0)
(3 -1.756355544e-15 0)
(3 -2.666193964e-15 0)
(3 -3.441533329e-15 0)
(3 -3.45713539e-15 0)
(3 -3.447097289e-15 0)
(3 -3.987903289e-15 0)
(3 -2.347506282e-15 0)
(3 -2.637145404e-16 0)
(3 5.227227117e-16 0)
(3 -2.242957431e-16 0)
(3 -8.72426825e-16 0)
(3 -3.448197084e-16 0)
(3 8.977241849e-16 0)
(3 6.623572961e-16 0)
(3 3.178851884e-16 0)
(3 6.715012741e-16 0)
(3 1.181677675e-15 0)
(3 1.834697326e-15 0)
(3 1.483230662e-15 0)
(3 1.102529992e-15 0)
(3 1.821449777e-15 0)
(3 2.964222314e-15 0)
(3 3.637977431e-15 0)
(3 3.794181103e-15 0)
(3 4.408607093e-15 0)
(3 5.499100201e-15 0)
(3 5.968630424e-15 0)
(3 6.051809998e-15 0)
(3 6.419058907e-15 0)
(3 4.959962988e-15 0)
(3 2.137504848e-15 0)
(3 -1.630557248e-16 0)
(3 -6.455281672e-16 0)
(3 -5.026653095e-16 0)
(3 -4.429223453e-16 0)
(3 2.400913242e-16 0)
(3 5.229613141e-16 0)
(3 1.29658652e-15 0)
(3 1.479938668e-15 0)
(3 2.119728436e-15 0)
(3 2.050663133e-15 0)
(3 2.045583255e-15 0)
(3 9.16105972e-16 0)
(3 1.851994796e-15 0)
(3 2.103121155e-15 0)
(3 1.639824084e-15 0)
(3 -2.417302446e-16 0)
(3 -1.04535429e-15 0)
(3 -6.131242645e-16 0)
(3 5.151500127e-16 0)
(3 7.934041241e-16 0)
(3 7.958812084e-16 0)
(3 1.066749841e-15 0)
(3 6.098166357e-16 0)
(3 1.370986773e-15 0)
(3 1.524406094e-15 0)
(3 1.331113767e-15 0)
(3 9.637527032e-16 0)
(3 -1.668377804e-16 0)
(3 2.513739324e-16 0)
(3 1.031881683e-15 0)
(3 1.355150585e-15 0)
(3 1.060063674e-15 0)
(3 -1.118977712e-17 0)
(3 -6.417527491e-16 0)
(3 -8.686897415e-16 0)
(3 -1.676130496e-15 0)
(3 -3.372193349e-15 0)
(3 -5.426223648e-15 0)
(3 -7.004388858e-15 0)
(3 -6.424603847e-15 0)
(3 -4.38666958e-15 0)
(3 -2.548775168e-15 0)
(3 -9.669173768e-16 0)
(3 -1.32570934e-16 0)
(3 -6.421938083e-16 0)
(3 -1.567437683e-15 0)
(3 -1.365355444e-15 0)
(3 -1.993618981e-15 0)
(3 -2.338144266e-16 0)
(3 -1.467687137e-16 0)
(3 3.117264621e-16 0)
(3 9.631182732e-16 0)
(3 9.404559692e-16 0)
(3 1.790081279e-15 0)
(3 2.651259489e-15 0)
(3 4.182906413e-15 0)
(3 4.045198438e-15 0)
(3 3.270068298e-15 0)
(3 3.584963167e-15 0)
(3 3.075006284e-15 0)
(3 1.379092233e-15 0)
(3 -2.295620625e-18 0)
(3 -4.334780188e-17 0)
(3 7.680455952e-16 0)
(3 1.166310005e-15 0)
(3 9.877594348e-16 0)
(3 9.632325237e-16 0)
(3 8.373402117e-16 0)
(3 -3.06080134e-16 0)
(3 -2.864559832e-16 0)
(3 -3.057742521e-16 0)
(3 -4.0179616e-16 0)
(3 -4.392128207e-16 0)
(3 5.875511665e-16 0)
(3 6.625546076e-16 0)
(3 1.112445959e-15 0)
(3 1.205220968e-15 0)
(3 1.746131153e-15 0)
(3 3.860824501e-16 0)
(3 8.744459247e-16 0)
(3 2.367647616e-16 0)
(3 -4.993252002e-16 0)
(3 -1.241413811e-15 0)
(3 -2.915143835e-15 0)
(3 -2.214381023e-15 0)
(3 -1.470709591e-15 0)
(3 -5.909502799e-16 0)
(3 -6.008780922e-16 0)
(3 1.800877695e-16 0)
(3 4.341310696e-16 0)
(3 2.53179413e-16 0)
(3 -5.25424136e-16 0)
(3 -4.058470882e-16 0)
(3 -5.505638262e-16 0)
(3 -1.314043587e-15 0)
(3 -3.025486815e-16 0)
(3 -6.069587948e-16 0)
(3 -3.101802674e-16 0)
(3 -1.200460252e-15 0)
(3 -1.915195352e-15 0)
(3 -2.10890594e-15 0)
(3 -4.737201241e-16 0)
(3 -1.183007413e-15 0)
(3 -1.81691251e-15 0)
(3 -2.974050597e-15 0)
(3 -4.317649572e-15 0)
(3 -5.092031721e-15 0)
(3 -5.274003394e-15 0)
(3 -4.644693263e-15 0)
(3 -3.463119414e-15 0)
(3 -3.308101477e-15 0)
(3 -3.926725507e-15 0)
(3 -4.755806023e-15 0)
(3 -4.155530493e-15 0)
(3 -1.391970277e-15 0)
(3 1.790620746e-16 0)
(3 8.537413249e-16 0)
(3 2.738267894e-15 0)
(3 3.588811839e-15 0)
(3 3.93958124e-15 0)
(3 3.991400451e-15 0)
(3 4.732773259e-15 0)
(3 5.674066215e-15 0)
(3 5.724155155e-15 0)
(3 4.418875837e-15 0)
(3 2.058532416e-15 0)
(3 -8.838631777e-17 0)
(3 -1.746624945e-15 0)
(3 -3.425570134e-15 0)
(3 -3.338061456e-15 0)
(3 -2.842262343e-15 0)
(3 -3.129250695e-15 0)
(3 -3.17317477e-15 0)
(3 -1.431080306e-15 0)
(3 -1.216396213e-15 0)
(3 -1.732182789e-15 0)
(3 -3.132229002e-15 0)
(3 3.225174567e-16 0)
(3 -2.692220778e-16 0)
(3 1.470424783e-16 0)
(3 5.60306124e-16 0)
(3 1.425083338e-15 0)
(3 1.830405508e-15 0)
(3 1.415587734e-15 0)
(3 8.322434716e-16 0)
(3 1.051383809e-15 0)
(3 -5.466498774e-16 0)
(3 -2.52011877e-15 0)
(3 -2.406789478e-15 0)
(3 -5.887017691e-16 0)
(3 -5.73511645e-16 0)
(3 -9.25360936e-16 0)
(3 -8.994173791e-16 0)
(3 -6.640224181e-16 0)
(3 -2.357314434e-16 0)
(3 4.122305803e-16 0)
(3 1.846725041e-15 0)
(3 9.205425378e-16 0)
(3 8.079103647e-17 0)
(3 -1.965922798e-15 0)
(3 -3.571805022e-15 0)
(3 -2.752275018e-15 0)
(3 -1.707834423e-15 0)
(3 -3.17771073e-15 0)
(3 -3.72409341e-15 0)
(3 -1.853457863e-15 0)
(3 -4.678935925e-16 0)
(3 2.502597543e-16 0)
(3 -1.159513669e-15 0)
(3 -3.003024315e-15 0)
(3 -2.77620903e-15 0)
(3 -3.086647636e-15 0)
(3 -3.187632337e-15 0)
(3 -3.566429203e-15 0)
(3 -3.797322565e-15 0)
(3 -3.864769413e-15 0)
(3 -5.12137101e-15 0)
(3 -4.602002408e-15 0)
(3 -3.880351265e-15 0)
(3 -2.114810002e-15 0)
(3 -2.240095126e-15 0)
(3 -8.45317045e-16 0)
(3 -1.648842594e-16 0)
(3 1.557955997e-15 0)
(3 3.407200534e-15 0)
(3 5.122349384e-15 0)
(3 6.197031631e-15 0)
(3 7.096106571e-15 0)
(3 6.641899431e-15 0)
(3 6.24588566e-15 0)
(3 6.760152511e-15 0)
(3 6.619344758e-15 0)
(3 5.434985535e-15 0)
(3 3.017284295e-15 0)
(3 8.980176968e-16 0)
(3 -4.298372451e-16 0)
(3 -2.837351239e-15 0)
(3 -3.572993769e-15 0)
(3 -4.498351367e-15 0)
(3 -4.002080274e-15 0)
(3 -4.437668157e-15 0)
(3 -5.891477111e-15 0)
(3 -5.900830574e-15 0)
(3 -6.293952417e-15 0)
(3 -6.809383594e-16 0)
(3 -6.418188977e-16 0)
(3 -2.890680638e-16 0)
(3 -4.260254408e-16 0)
(3 1.575560093e-15 0)
(3 1.215454445e-15 0)
(3 2.364560812e-16 0)
(3 -4.603887275e-16 0)
(3 -5.242182717e-17 0)
(3 -7.300611395e-16 0)
(3 -8.122011616e-16 0)
(3 2.703808481e-16 0)
(3 1.911651369e-15 0)
(3 4.611106368e-15 0)
(3 4.311349844e-15 0)
(3 3.574364927e-15 0)
(3 1.773399001e-15 0)
(3 1.915597429e-15 0)
(3 1.918550137e-15 0)
(3 2.308752311e-15 0)
(3 2.273253999e-15 0)
(3 1.249156025e-15 0)
(3 -1.577473473e-15 0)
(3 -3.407595963e-15 0)
(3 -4.193414781e-15 0)
(3 -4.735172284e-15 0)
(3 -3.974226654e-15 0)
(3 -4.355330588e-15 0)
(3 -3.56808806e-15 0)
(3 -1.291200156e-15 0)
(3 1.166700295e-16 0)
(3 -2.911981834e-16 0)
(3 -4.822562849e-16 0)
(3 -3.32563065e-16 0)
(3 4.396353111e-16 0)
(3 5.230779616e-16 0)
(3 -1.358072139e-15 0)
(3 -2.496646006e-15 0)
(3 -2.144565333e-15 0)
(3 -2.494256194e-15 0)
(3 -2.445110695e-15 0)
(3 5.841080568e-16 0)
(3 8.66285554e-16 0)
(3 -1.542097622e-16 0)
(3 -5.395807568e-17 0)
(3 5.855854848e-16 0)
(3 2.310564769e-15 0)
(3 2.975106066e-15 0)
(3 5.880094198e-15 0)
(3 8.510193159e-15 0)
(3 9.188045423e-15 0)
(3 9.38046879e-15 0)
(3 8.133503382e-15 0)
(3 7.174454948e-15 0)
(3 5.301727988e-15 0)
(3 4.575644232e-15 0)
(3 2.784529699e-15 0)
(3 2.106112822e-15 0)
(3 1.388235221e-15 0)
(3 -1.171361267e-16 0)
(3 -4.616327576e-15 0)
(3 -5.897592067e-15 0)
(3 -4.587052622e-15 0)
(3 -4.243127594e-15 0)
(3 -4.846995547e-15 0)
(3 -4.756978e-15 0)
(3 -5.413265177e-15 0)
(3 -4.349774685e-16 0)
(3 -7.53973146e-16 0)
(3 -7.158964229e-16 0)
(3 -9.06432673e-16 0)
(3 -8.050892157e-16 0)
(3 -9.110757935e-16 0)
(3 -1.19543351e-15 0)
(3 -1.599182541e-15 0)
(3 -1.753007759e-15 0)
(3 -6.494680828e-16 0)
(3 1.184562588e-15 0)
(3 1.713080016e-15 0)
(3 1.921054345e-15 0)
(3 2.72202664e-15 0)
(3 3.683788077e-15 0)
(3 3.393552662e-15 0)
(3 3.427255911e-15 0)
(3 2.218901692e-15 0)
(3 1.503384361e-15 0)
(3 -3.61057839e-16 0)
(3 -5.809111616e-16 0)
(3 -2.083705376e-15 0)
(3 -2.529791642e-15 0)
(3 -2.943526301e-15 0)
(3 -3.926425705e-15 0)
(3 -3.880522383e-15 0)
(3 -3.71587207e-15 0)
(3 -4.707235781e-15 0)
(3 -5.533385237e-15 0)
(3 -5.702334893e-15 0)
(3 -5.255915839e-15 0)
(3 -3.199992063e-15 0)
(3 -1.090219779e-15 0)
(3 2.306094961e-15 0)
(3 3.813084755e-15 0)
(3 1.695928579e-15 0)
(3 -8.88047611e-17 0)
(3 -9.489917297e-17 0)
(3 -7.058295453e-16 0)
(3 1.405221669e-15 0)
(3 2.544954651e-15 0)
(3 4.062303179e-15 0)
(3 4.845654247e-15 0)
(3 4.028664058e-15 0)
(3 2.4408899e-15 0)
(3 2.766964356e-15 0)
(3 3.805193723e-15 0)
(3 5.96878316e-15 0)
(3 6.622645068e-15 0)
(3 7.048990352e-15 0)
(3 7.766879049e-15 0)
(3 7.675199487e-15 0)
(3 5.901262382e-15 0)
(3 2.70640186e-15 0)
(3 1.183663394e-15 0)
(3 5.057808627e-16 0)
(3 1.516965631e-15 0)
(3 1.108229336e-15 0)
(3 -8.011484851e-16 0)
(3 -2.639520272e-15 0)
(3 -7.29106432e-15 0)
(3 -1.094880725e-14 0)
(3 -1.183839048e-14 0)
(3 -1.132234951e-14 0)
(3 -1.068606939e-14 0)
(3 -9.634699011e-15 0)
(3 -7.873596134e-15 0)
(3 6.148732066e-16 0)
(3 1.533578901e-15 0)
(3 7.474753613e-16 0)
(3 -3.534963241e-16 0)
(3 -2.609358693e-15 0)
(3 -3.403392884e-15 0)
(3 -3.101084529e-15 0)
(3 -2.364594182e-15 0)
(3 -8.650498477e-16 0)
(3 9.830834013e-16 0)
(3 9.842856477e-16 0)
(3 -3.503956657e-16 0)
(3 -9.563241206e-16 0)
(3 -1.834458692e-15 0)
(3 -1.051848285e-15 0)
(3 6.926160848e-16 0)
(3 1.300266616e-15 0)
(3 4.002763682e-16 0)
(3 -9.157046665e-16 0)
(3 -2.426482706e-15 0)
(3 -2.668712486e-15 0)
(3 -4.681507185e-15 0)
(3 -5.558929356e-15 0)
(3 -4.443005453e-15 0)
(3 -3.421678438e-15 0)
(3 -2.556908771e-15 0)
(3 -3.258074176e-15 0)
(3 -4.277791414e-15 0)
(3 -7.558129156e-15 0)
(3 -8.832041551e-15 0)
(3 -7.725771702e-15 0)
(3 -5.327770486e-15 0)
(3 -3.362386837e-15 0)
(3 2.380543672e-16 0)
(3 2.686060157e-15 0)
(3 3.471935571e-15 0)
(3 1.527740613e-15 0)
(3 1.192564376e-15 0)
(3 1.948893748e-15 0)
(3 2.559806098e-15 0)
(3 4.314354458e-15 0)
(3 6.352808808e-15 0)
(3 7.761237078e-15 0)
(3 7.309675038e-15 0)
(3 6.05395505e-15 0)
(3 6.225629749e-15 0)
(3 6.043714622e-15 0)
(3 5.675527667e-15 0)
(3 4.063901347e-15 0)
(3 1.247532836e-15 0)
(3 1.771677743e-15 0)
(3 2.144492065e-15 0)
(3 2.244635652e-15 0)
(3 -9.668525581e-17 0)
(3 -2.421420783e-15 0)
(3 -2.413177609e-15 0)
(3 -1.508755634e-15 0)
(3 -1.281204876e-15 0)
(3 -2.572923895e-15 0)
(3 -5.008931014e-15 0)
(3 -6.361281095e-15 0)
(3 -9.380769422e-15 0)
(3 -1.147392993e-14 0)
(3 -1.40281259e-14 0)
(3 -1.403951217e-14 0)
(3 -1.304959326e-14 0)
(3 -9.469723553e-15 0)
(3 -3.384846299e-16 0)
(3 2.038169618e-16 0)
(3 -5.964864083e-16 0)
(3 -2.023606169e-15 0)
(3 -2.617082879e-15 0)
(3 -3.605029535e-15 0)
(3 -3.40260558e-15 0)
(3 -1.878006805e-15 0)
(3 -3.474189318e-16 0)
(3 -3.151917984e-16 0)
(3 -6.526058081e-16 0)
(3 -1.76299495e-15 0)
(3 -3.052984338e-15 0)
(3 -3.520750444e-15 0)
(3 -2.563548776e-15 0)
(3 5.587346179e-17 0)
(3 3.794640349e-16 0)
(3 -2.058115321e-17 0)
(3 -4.823268597e-16 0)
(3 -1.782419896e-16 0)
(3 -2.751180608e-16 0)
(3 -9.750635006e-16 0)
(3 -1.492933672e-15 0)
(3 -1.57012289e-15 0)
(3 -1.281411379e-15 0)
(3 -2.182627166e-15 0)
(3 -2.515559732e-15 0)
(3 -3.542151358e-15 0)
(3 -5.0801185e-15 0)
(3 -4.842187765e-15 0)
(3 -4.668295787e-15 0)
(3 -3.921394954e-15 0)
(3 -3.558615189e-15 0)
(3 -9.577564684e-16 0)
(3 5.120366734e-16 0)
(3 3.105949399e-15 0)
(3 4.228386021e-15 0)
(3 3.029524373e-15 0)
(3 1.642074297e-15 0)
(3 1.206366239e-15 0)
(3 2.521610696e-15 0)
(3 5.225564051e-15 0)
(3 6.177687129e-15 0)
(3 6.768794679e-15 0)
(3 7.515193899e-15 0)
(3 7.349058147e-15 0)
(3 7.120918525e-15 0)
(3 4.366124855e-15 0)
(3 3.34544227e-15 0)
(3 3.53741231e-15 0)
(3 1.400870138e-16 0)
(3 -1.89755231e-15 0)
(3 -1.368883564e-15 0)
(3 3.031400253e-17 0)
(3 -1.483586844e-16 0)
(3 -5.635322374e-16 0)
(3 -2.274455024e-15 0)
(3 -3.789316737e-15 0)
(3 -4.954598867e-15 0)
(3 -6.150088668e-15 0)
(3 -6.163790702e-15 0)
(3 -8.323821637e-15 0)
(3 -1.130770663e-14 0)
(3 -1.169323485e-14 0)
(3 -8.37606257e-15 0)
(3 -3.770339691e-15 0)
(3 -3.141542713e-15 0)
(3 -1.266974888e-16 0)
(3 -5.012268134e-16 0)
(3 -1.092961329e-15 0)
(3 -9.0418663e-16 0)
(3 -7.041066107e-16 0)
(3 -1.084981019e-15 0)
(3 -1.303872938e-15 0)
(3 -2.229913632e-15 0)
(3 -2.520114443e-15 0)
(3 -2.512416334e-15 0)
(3 -2.214046397e-15 0)
(3 -2.253184198e-15 0)
(3 -2.278155568e-15 0)
(3 -1.44147534e-15 0)
(3 7.396213621e-17 0)
(3 2.858325547e-16 0)
(3 1.332346242e-15 0)
(3 1.615947282e-15 0)
(3 1.751615253e-15 0)
(3 1.663998436e-15 0)
(3 1.87584584e-15 0)
(3 2.26790135e-15 0)
(3 2.344833384e-15 0)
(3 6.637534192e-16 0)
(3 -6.917558784e-16 0)
(3 -3.644128221e-15 0)
(3 -4.127471292e-15 0)
(3 -2.784857326e-15 0)
(3 -6.690676363e-16 0)
(3 -8.173100534e-16 0)
(3 -2.196550578e-15 0)
(3 -2.641411797e-15 0)
(3 -1.437060508e-15 0)
(3 -8.380034452e-17 0)
(3 4.495418695e-16 0)
(3 1.653216864e-15 0)
(3 2.342069061e-15 0)
(3 1.742967129e-15 0)
(3 5.364918874e-16 0)
(3 9.089313985e-16 0)
(3 1.516020047e-15 0)
(3 3.322235381e-15 0)
(3 4.609686418e-15 0)
(3 5.706760197e-15 0)
(3 6.439123448e-15 0)
(3 5.530088979e-15 0)
(3 4.571583121e-15 0)
(3 3.769404636e-15 0)
(3 1.076490188e-15 0)
(3 5.243553786e-16 0)
(3 -8.448379117e-17 0)
(3 -6.230354379e-16 0)
(3 -4.432752651e-16 0)
(3 -2.881472689e-17 0)
(3 4.694507625e-16 0)
(3 3.060469944e-16 0)
(3 -1.202910449e-15 0)
(3 -2.415319937e-15 0)
(3 -5.086530582e-15 0)
(3 -7.426143494e-15 0)
(3 -7.676410451e-15 0)
(3 -6.598336732e-15 0)
(3 -7.888746572e-15 0)
(3 -8.39556226e-15 0)
(3 -7.146320186e-15 0)
(3 -6.420314512e-15 0)
(3 -3.104884986e-15 0)
(3 8.991474767e-16 0)
(3 -6.646477404e-17 0)
(3 -8.045649182e-16 0)
(3 7.404658919e-16 0)
(3 1.478804577e-15 0)
(3 1.33255474e-16 0)
(3 -2.416354147e-16 0)
(3 -1.375943643e-15 0)
(3 -1.637418826e-15 0)
(3 -1.51460997e-15 0)
(3 -1.26321021e-15 0)
(3 -5.366683604e-16 0)
(3 7.147271528e-16 0)
(3 2.019568002e-15 0)
(3 1.261352749e-15 0)
(3 9.186077606e-16 0)
(3 2.100391698e-15 0)
(3 2.487760559e-15 0)
(3 1.384017863e-15 0)
(3 1.207461813e-15 0)
(3 1.303079789e-15 0)
(3 1.395982413e-15 0)
(3 1.781128365e-15 0)
(3 1.444426075e-15 0)
(3 -7.969969311e-16 0)
(3 -2.520161583e-15 0)
(3 -1.242934539e-15 0)
(3 -3.158692755e-16 0)
(3 -2.202857019e-16 0)
(3 1.097909677e-16 0)
(3 4.823616502e-16 0)
(3 1.284828805e-16 0)
(3 -1.29386919e-15 0)
(3 -3.919543665e-15 0)
(3 -4.842585684e-15 0)
(3 -5.464997633e-15 0)
(3 -4.856591543e-15 0)
(3 -3.930825211e-15 0)
(3 -1.564882241e-15 0)
(3 6.549569384e-16 0)
(3 2.206629212e-15 0)
(3 3.234503945e-15 0)
(3 4.018565667e-15 0)
(3 4.153211085e-15 0)
(3 3.810904209e-15 0)
(3 -1.610774181e-15 0)
(3 -3.959675377e-15 0)
(3 -5.4207753e-15 0)
(3 -6.614839526e-15 0)
(3 -6.559726895e-15 0)
(3 -5.619320042e-15 0)
(3 -4.108501724e-15 0)
(3 -8.119929018e-16 0)
(3 3.755795807e-16 0)
(3 1.102291351e-15 0)
(3 6.781261117e-16 0)
(3 -9.267494832e-16 0)
(3 -2.085132579e-15 0)
(3 -5.384990718e-15 0)
(3 -7.283537803e-15 0)
(3 -9.054911945e-15 0)
(3 -5.930568198e-15 0)
(3 -7.755498971e-16 0)
(3 7.802524381e-16 0)
(3 -7.27282663e-16 0)
(3 -1.93955297e-15 0)
(3 -2.071436711e-15 0)
(3 1.086693781e-16 0)
(3 -1.154548959e-16 0)
(3 -3.497287476e-16 0)
(3 -1.963957912e-16 0)
(3 -7.01028581e-17 0)
(3 5.174161978e-16 0)
(3 -2.456834752e-16 0)
(3 7.297740959e-16 0)
(3 1.90502141e-15 0)
(3 1.94948971e-15 0)
(3 1.752490712e-15 0)
(3 1.685667237e-15 0)