/*--------------------------------*- C++ -*----------------------------------*\
  =========                 |
  \\      /  F ield         | OpenFOAM: The Open Source CFD Toolbox
   \\    /   O peration     | Website:  https://openfoam.org
    \\  /    A nd           | Version:  7
     \\/     M anipulation  |
\*---------------------------------------------------------------------------*/
FoamFile
{
    version     2.0;
    format      ascii;
    class       volVectorField;
    location    "2";
    object      U;
}
// * * * * * * * * * * * * * * * * * * * * * * * * * * * * * * * * * * * * * //

dimensions      [0 1 -1 0 0 0 0];

internalField   nonuniform List<vector> 
2225
(
(3.090152653 -0.4215631074 0)
(3.065083757 -0.2998099966 0)
(3.030842749 -0.1595749985 0)
(3.050033108 -0.1154580617 0)
(3.00577637 -0.04397715966 0)
(2.997890938 -0.03400870971 0)
(2.989683461 -0.01801166546 0)
(2.988969759 -0.01025568283 0)
(2.984946294 -0.002260209176 0)
(2.980550487 -0.003026034033 0)
(2.982049428 -0.005586164251 0)
(2.982797554 -0.007977919767 0)
(2.983393024 -0.01103974553 0)
(3.087680449 -0.3762111201 0)
(3.090378373 -0.3849312452 0)
(3.092171342 -0.3996945922 0)
(3.092952557 -0.4024358015 0)
(3.09264339 -0.4014280553 0)
(3.095000736 -0.4103694398 0)
(3.096167323 -0.4214821281 0)
(3.097069874 -0.4214164494 0)
(3.096415473 -0.4207460569 0)
(3.098857924 -0.4307723779 0)
(3.099735982 -0.4391694014 0)
(3.100106354 -0.439999214 0)
(3.099255817 -0.4399398491 0)
(3.101220214 -0.4504330119 0)
(3.101370949 -0.4580900606 0)
(3.102326696 -0.4616466101 0)
(3.102003448 -0.4611580753 0)
(3.104541448 -0.4732164472 0)
(3.104531304 -0.4748682247 0)
(3.103995093 -0.4712989697 0)
(3.099648598 -0.4535505566 0)
(3.073586723 -0.3642599549 0)
(3.078599993 -0.2521145472 0)
(3.027928635 -0.04150701516 0)
(3.006266969 -0.02563404994 0)
(2.992996631 -0.00356373252 0)
(2.99314182 0.005885384688 0)
(2.982488011 0.00135974324 0)
(2.979397355 -0.00500237926 0)
(2.981624795 -0.008985243961 0)
(2.983580284 -0.01458134279 0)
(2.984193813 -0.01547903453 0)
(3.0853055 -0.3645978839 0)
(3.08869369 -0.375215034 0)
(3.089888936 -0.3874349364 0)
(3.090604676 -0.388681327 0)
(3.089844141 -0.3863587886 0)
(3.092473529 -0.396124774 0)
(3.093765535 -0.4070580388 0)
(3.0948524 -0.4091563754 0)
(3.094468785 -0.4079247537 0)
(3.096672367 -0.417137049 0)
(3.097389974 -0.4250766628 0)
(3.09802981 -0.4255806906 0)
(3.096979615 -0.4259478755 0)
(3.099389468 -0.4370711792 0)
(3.099163424 -0.4456053706 0)
(3.0997732 -0.4448619681 0)
(3.100311872 -0.4476509514 0)
(3.102904805 -0.457294874 0)
(3.103486126 -0.4691695754 0)
(3.104900953 -0.4687391213 0)
(3.104275484 -0.4667430874 0)
(3.101501139 -0.4616623837 0)
(3.093956167 -0.4284847844 0)
(3.072350367 -0.3214881932 0)
(3.054424913 -0.220745782 0)
(3.035688209 -0.1182738937 0)
(3.007756944 0.004206961844 0)
(2.969819762 -0.008172652173 0)
(2.977960392 -0.01093230171 0)
(2.984227506 -0.01379904716 0)
(2.986206533 -0.01549049931 0)
(2.985857017 -0.01361632531 0)
(3.081790963 -0.3464474842 0)
(3.085192896 -0.3565906963 0)
(3.087259685 -0.3718867371 0)
(3.088224518 -0.3749234247 0)
(3.087988674 -0.3744176423 0)
(3.090530284 -0.3842166764 0)
(3.091595385 -0.3958929575 0)
(3.092728948 -0.3954555871 0)
(3.092462335 -0.3952321812 0)
(3.094711824 -0.4046539021 0)
(3.095381532 -0.4150742153 0)
(3.096064222 -0.4140265515 0)
(3.095533573 -0.4148551832 0)
(3.097782064 -0.425034598 0)
(3.097854255 -0.4352782265 0)
(3.098435286 -0.435430366 0)
(3.097635206 -0.4342650808 0)
(3.101399714 -0.4442391072 0)
(3.10205858 -0.4547697458 0)
(3.102555664 -0.4574297274 0)
(3.103501386 -0.4619965366 0)
(3.103512894 -0.4646098255 0)
(3.103080314 -0.4653085872 0)
(3.098738259 -0.446949418 0)
(3.086426942 -0.3813217924 0)
(3.052217994 -0.2370397423 0)
(3.02364082 -0.1347295744 0)
(3.037432421 -0.08632612066 0)
(3.009188149 -0.03294604011 0)
(2.999205754 -0.02383848065 0)
(2.987826366 -0.0143067214 0)
(2.985709761 -0.005979253419 0)
(3.079883561 -0.3362617825 0)
(3.083579493 -0.347200056 0)
(3.084986327 -0.3603933378 0)
(3.085799609 -0.3613861021 0)
(3.085226129 -0.3599162065 0)
(3.087952874 -0.3700877097 0)
(3.089227187 -0.381928082 0)
(3.090313795 -0.3833418711 0)
(3.089927879 -0.3823510315 0)
(3.092732573 -0.3927464061 0)
(3.093528275 -0.4017330901 0)
(3.094117345 -0.402472177 0)
(3.093416523 -0.4029197405 0)
(3.096446137 -0.4149690496 0)
(3.096328165 -0.4233972386 0)
(3.096739874 -0.4230195107 0)
(3.095747544 -0.4227659424 0)
(3.099985054 -0.4338610881 0)
(3.100259503 -0.4423464972 0)
(3.1006012 -0.445083524 0)
(3.100374312 -0.4441553161 0)
(3.10270614 -0.4520264462 0)
(3.102622312 -0.4623503138 0)
(3.104114428 -0.4611622909 0)
(3.10321947 -0.4544400529 0)
(3.094718494 -0.4271393375 0)
(3.061486076 -0.3108244104 0)
(3.070542264 -0.2026360637 0)
(3.0268378 -0.01417412166 0)
(3.002136743 -0.01025116159 0)
(2.997191265 0.003553074516 0)
(2.986683098 0.004498752257 0)
(3.075538387 -0.3168311936 0)
(3.07978764 -0.3285219963 0)
(3.08194207 -0.3439699252 0)
(3.082898352 -0.3471455153 0)
(3.082570464 -0.3466679517 0)
(3.085947917 -0.3582796178 0)
(3.087125115 -0.3699275626 0)
(3.088126418 -0.3701567976 0)
(3.087974919 -0.3705741532 0)
(3.090705233 -0.3814663929 0)
(3.091285083 -0.3911763357 0)
(3.091958292 -0.3902393692 0)
(3.090951429 -0.3896513171 0)
(3.094068404 -0.4009315789 0)
(3.094554304 -0.4121509523 0)
(3.095162054 -0.4126557974 0)
(3.094774129 -0.412358321 0)
(3.097905724 -0.4210905007 0)
(3.098346169 -0.4322069993 0)
(3.098959266 -0.4321434031 0)
(3.098655238 -0.4319621342 0)
(3.100981827 -0.4402425273 0)
(3.102135244 -0.4511103163 0)
(3.103074522 -0.4536073859 0)
(3.103460999 -0.4522492185 0)
(3.102935646 -0.4526007725 0)
(3.098501562 -0.4411151221 0)
(3.088067296 -0.3888588039 0)
(3.063849471 -0.2667586607 0)
(3.063040843 -0.200124084 0)
(3.031746776 -0.09014903588 0)
(2.989558886 -0.01542929202 0)
(3.073849074 -0.3079641308 0)
(3.078023568 -0.3197232047 0)
(3.079725901 -0.3338698448 0)
(3.080585421 -0.3353689208 0)
(3.080251948 -0.3348391366 0)
(3.083468752 -0.345630634 0)
(3.084862132 -0.3581496777 0)
(3.085818922 -0.3590184052 0)
(3.085511992 -0.3584635997 0)
(3.088314058 -0.3688071844 0)
(3.089164778 -0.3792345477 0)
(3.089764124 -0.3789180941 0)
(3.089461435 -0.3803244171 0)
(3.09256 -0.3921604079 0)
(3.09284058 -0.4011784003 0)
(3.093394677 -0.3999374759 0)
(3.092554047 -0.3993503334 0)
(3.096602262 -0.4106485401 0)
(3.096931048 -0.4204752336 0)
(3.097361094 -0.4213142814 0)
(3.096466351 -0.4185312161 0)
(3.099323543 -0.4271225344 0)
(3.100520257 -0.4376630952 0)
(3.101006971 -0.4436414493 0)
(3.101343996 -0.4398273192 0)
(3.102346497 -0.4458668491 0)
(3.102152859 -0.4501697044 0)
(3.100945451 -0.4478813877 0)
(3.094327558 -0.41948463 0)
(3.079695621 -0.3231523473 0)
(3.046294296 -0.1994565852 0)
(3.008835251 -0.08802404683 0)
(3.069548797 -0.2888596765 0)
(3.074075993 -0.3013113994 0)
(3.076266754 -0.3170765857 0)
(3.077144873 -0.3196589648 0)
(3.076791202 -0.3196357134 0)
(3.080843172 -0.3320164798 0)
(3.082386256 -0.3441471583 0)
(3.083237687 -0.3446399542 0)
(3.083228082 -0.3462920414 0)
(3.08637893 -0.3585881427 0)
(3.087163293 -0.368178631 0)
(3.087848162 -0.3676097261 0)
(3.087109372 -0.3671920785 0)
(3.090484509 -0.3792669526 0)
(3.091064237 -0.3896519101 0)
(3.09181225 -0.3898944322 0)
(3.091310793 -0.3889792748 0)
(3.094701648 -0.3988779167 0)
(3.095280931 -0.4095153896 0)
(3.095980262 -0.4106108966 0)
(3.095173012 -0.4077914186 0)
(3.097640507 -0.4152479365 0)
(3.09848534 -0.426189524 0)
(3.099006829 -0.4281253761 0)
(3.099697492 -0.4294905663 0)
(3.100191082 -0.4329056578 0)
(3.102118894 -0.446416162 0)
(3.10262243 -0.4485874102 0)
(3.102663945 -0.4436125195 0)
(3.099720348 -0.4331953405 0)
(3.089192694 -0.3987049575 0)
(3.040394404 -0.2031308906 0)
(3.067707326 -0.2804659579 0)
(3.072216268 -0.2932562688 0)
(3.074154499 -0.3078282541 0)
(3.074921485 -0.309556564 0)
(3.07467251 -0.310005698 0)
(3.078706106 -0.3222824843 0)
(3.080313349 -0.3342289954 0)
(3.081256324 -0.3344658831 0)
(3.080944787 -0.3342098752 0)
(3.083772985 -0.3451254501 0)
(3.084688764 -0.3553781307 0)
(3.085333763 -0.3544452824 0)
(3.085171834 -0.356022957 0)
(3.088481222 -0.3683879607 0)
(3.088945435 -0.3778635685 0)
(3.089819951 -0.3763856582 0)
(3.089370517 -0.3759418624 0)
(3.093037775 -0.3870257987 0)
(3.093334985 -0.3981653982 0)
(3.094051215 -0.3980310566 0)
(3.093510843 -0.3961471941 0)
(3.096004987 -0.4038434949 0)
(3.097035705 -0.4161876425 0)
(3.097281439 -0.4191313719 0)
(3.09725167 -0.4149946554 0)
(3.098665027 -0.4195978342 0)
(3.100697852 -0.4304488732 0)
(3.100697563 -0.4400445708 0)
(3.101803749 -0.438615062 0)
(3.100667568 -0.4384109215 0)
(3.100040289 -0.4389959047 0)
(3.084246502 -0.3757211933 0)
(3.063576137 -0.2619288129 0)
(3.068174162 -0.2750630911 0)
(3.070432725 -0.2907705574 0)
(3.071230171 -0.2926840792 0)
(3.070993 -0.2932588421 0)
(3.075340781 -0.306044665 0)
(3.077228 -0.3181588449 0)
(3.078152154 -0.3183805824 0)
(3.078351992 -0.3209204275 0)
(3.081767708 -0.3341581509 0)
(3.082674887 -0.344262691 0)
(3.083423192 -0.3433992514 0)
(3.083243958 -0.3443001288 0)
(3.086597979 -0.3568957101 0)
(3.087147837 -0.3671606892 0)
(3.088197421 -0.3665203806 0)
(3.087664378 -0.3650036934 0)
(3.091264232 -0.3755817772 0)
(3.091711731 -0.386816082 0)
(3.092294049 -0.3884968993 0)
(3.091582024 -0.3852572529 0)
(3.094475168 -0.3932838106 0)
(3.095324895 -0.4047118994 0)
(3.095357464 -0.4078171915 0)
(3.095240355 -0.404430183 0)
(3.096040021 -0.4075966448 0)
(3.099358478 -0.419725815 0)
(3.098757056 -0.4281973543 0)
(3.098959614 -0.4283445231 0)
(3.099905509 -0.4333629085 0)
(3.10068237 -0.4396762639 0)
(3.098096955 -0.4326095184 0)
(3.061726641 -0.2536517808 0)
(3.066344037 -0.2673623943 0)
(3.068434086 -0.2819276008 0)
(3.069187843 -0.2830693934 0)
(3.069151515 -0.2845149428 0)
(3.073560411 -0.297888944 0)
(3.075338849 -0.3093143553 0)
(3.076450644 -0.3087989481 0)
(3.076235557 -0.3090522495 0)
(3.079259244 -0.3211691901 0)
(3.08014992 -0.3312679597 0)
(3.080884407 -0.3303183287 0)
(3.080713882 -0.3315791289 0)
(3.084330618 -0.3447180245 0)
(3.084746221 -0.3545093367 0)
(3.085846971 -0.3533280733 0)
(3.085432008 -0.3525774191 0)
(3.089529752 -0.3642727673 0)
(3.089785794 -0.3761749606 0)
(3.090377551 -0.3767414504 0)
(3.089661496 -0.3743751468 0)
(3.092562668 -0.382594687 0)
(3.093835553 -0.3958721602 0)
(3.093825987 -0.3993954231 0)
(3.093890799 -0.3959956521 0)
(3.094379934 -0.3982152517 0)
(3.097766662 -0.4105684587 0)
(3.096907533 -0.4171660722 0)
(3.096977579 -0.4170111589 0)
(3.097135253 -0.416502159 0)
(3.098925592 -0.4274391512 0)
(3.098801148 -0.4299525805 0)
(3.057566045 -0.235093381 0)
(3.062262792 -0.2491457732 0)
(3.064555385 -0.2643653418 0)
(3.06541705 -0.2655473012 0)
(3.065304092 -0.2665996815 0)
(3.069869458 -0.2802584266 0)
(3.0717978 -0.291987259 0)
(3.072880317 -0.2917122139 0)
(3.073170902 -0.2943315244 0)
(3.076933645 -0.3085947521 0)
(3.077774766 -0.3191107999 0)
(3.07854594 -0.3179711693 0)
(3.0785393 -0.319566961 0)
(3.082394244 -0.3332383906 0)
(3.082842959 -0.3442236942 0)
(3.083994044 -0.3435710515 0)
(3.083521665 -0.3419711548 0)
(3.087474295 -0.3528777447 0)
(3.087934922 -0.3652918273 0)
(3.088330481 -0.3668566677 0)
(3.087703393 -0.3642962272 0)
(3.090496278 -0.3719108585 0)
(3.091759429 -0.3845904736 0)
(3.091741268 -0.3880491935 0)
(3.091658049 -0.3844155677 0)
(3.092705729 -0.3877144254 0)
(3.095936022 -0.3996061956 0)
(3.094855134 -0.4077051275 0)
(3.095156409 -0.4055771404 0)
(3.094942113 -0.4053020656 0)
(3.098028566 -0.4165859892 0)
(3.098642782 -0.4261388023 0)
(3.055671385 -0.2266666964 0)
(3.06046924 -0.2414885746 0)
(3.062618571 -0.2557224042 0)
(3.063540124 -0.2559889974 0)
(3.063750265 -0.2579611738 0)
(3.06831053 -0.2722062737 0)
(3.070012143 -0.2834157321 0)
(3.071149595 -0.2823416392 0)
(3.071068422 -0.283344633 0)
(3.074695203 -0.297132923 0)
(3.07550752 -0.307994822 0)
(3.076302933 -0.3072320995 0)
(3.076272464 -0.3084593033 0)
(3.080184944 -0.3219787918 0)
(3.080370638 -0.3321402069 0)
(3.08131777 -0.3309606886 0)
(3.080783437 -0.3301260382 0)
(3.085492327 -0.3423676121 0)
(3.085886675 -0.3548755353 0)
(3.086223487 -0.3560196465 0)
(3.085322025 -0.3533896471 0)
(3.088626209 -0.3621224515 0)
(3.090036197 -0.3754442709 0)
(3.090013469 -0.3792908466 0)
(3.089961587 -0.3753472478 0)
(3.090956139 -0.3781069601 0)
(3.094303129 -0.3903743876 0)
(3.093361465 -0.398363112 0)
(3.093871563 -0.3968612973 0)
(3.092820647 -0.3930131243 0)
(3.095975493 -0.4025760454 0)
(3.096533911 -0.412455453 0)
(3.051361711 -0.2083267067 0)
(3.056344763 -0.2235761551 0)
(3.058608573 -0.2383133243 0)
(3.059663372 -0.2386027243 0)
(3.059723924 -0.2399826982 0)
(3.064469452 -0.2547297598 0)
(3.066176574 -0.2663522593 0)
(3.067217125 -0.2655043726 0)
(3.067445941 -0.2679032964 0)
(3.07170071 -0.2831672558 0)
(3.07242439 -0.2941275197 0)
(3.073120947 -0.2929482316 0)
(3.073003332 -0.2945375549 0)
(3.077769921 -0.3092711923 0)
(3.078173057 -0.3212765817 0)
(3.079105564 -0.321178049 0)
(3.078639122 -0.3198651112 0)
(3.083174404 -0.331354284 0)
(3.083939716 -0.3445109238 0)
(3.084256493 -0.346238104 0)
(3.083475658 -0.3438298398 0)
(3.08642652 -0.3516746613 0)
(3.087926595 -0.3648532588 0)
(3.088063541 -0.3683138701 0)
(3.088149672 -0.3647907055 0)
(3.089328122 -0.3679948587 0)
(3.09248739 -0.3800876512 0)
(3.091527913 -0.3883858594 0)
(3.09226395 -0.3861658345 0)
(3.091703169 -0.3839466386 0)
(3.094904055 -0.3933972745 0)
(3.095086053 -0.4034299019 0)
(3.049292434 -0.1997769851 0)
(3.054544688 -0.215933822 0)
(3.056682985 -0.2300702102 0)
(3.05779881 -0.2297851836 0)
(3.058196835 -0.231941023 0)
(3.062918872 -0.2471916429 0)
(3.064371318 -0.2584999489 0)
(3.065324461 -0.2571263026 0)
(3.065365701 -0.2587682165 0)
(3.069731125 -0.2740867409 0)
(3.070458624 -0.2855887004 0)
(3.071167082 -0.284726058 0)
(3.071180593 -0.2859023545 0)
(3.075650473 -0.2998408305 0)
(3.07582678 -0.3104687218 0)
(3.076496257 -0.3093122877 0)
(3.075978419 -0.3086555004 0)
(3.080925413 -0.3211527677 0)
(3.081507194 -0.3336066504 0)
(3.081893858 -0.3343653204 0)
(3.080941062 -0.3316979216 0)
(3.08431998 -0.340517486 0)
(3.085940519 -0.3543028372 0)
(3.086134347 -0.3581241859 0)
(3.086465879 -0.3542578408 0)
(3.087201052 -0.3563918772 0)
(3.090742843 -0.3693023867 0)
(3.08978312 -0.3784926565 0)
(3.090665559 -0.3770851299 0)
(3.090305964 -0.3738146981 0)
(3.093293514 -0.3821418191 0)
(3.093364172 -0.39270631 0)
(3.044315416 -0.1811575971 0)
(3.050080166 -0.1978780305 0)
(3.052405265 -0.2125580523 0)
(3.053601228 -0.2123993869 0)
(3.053998124 -0.2144281738 0)
(3.059025811 -0.2303388215 0)
(3.060469156 -0.2422215009 0)
(3.061279121 -0.24101969 0)
(3.061594663 -0.2435389471 0)
(3.066238938 -0.2595972375 0)
(3.066945222 -0.2707553667 0)
(3.067564506 -0.269290098 0)
(3.067394749 -0.2706366003 0)
(3.072674071 -0.2858154677 0)
(3.073199788 -0.2981954818 0)
(3.073948607 -0.2981051511 0)
(3.073460066 -0.2970779173 0)
(3.07836795 -0.3092467146 0)
(3.079459454 -0.322846922 0)
(3.080007727 -0.3246186692 0)
(3.079296021 -0.3220306699 0)
(3.082418654 -0.3302519294 0)
(3.083940795 -0.3437071686 0)
(3.084130034 -0.3472653265 0)
(3.084670948 -0.3438072914 0)
(3.085383858 -0.3459154039 0)
(3.088959646 -0.3590913721 0)
(3.08779717 -0.3681578726 0)
(3.088551812 -0.3658834622 0)
(3.08883669 -0.3647686263 0)
(3.091601212 -0.3718740522 0)
(3.091906567 -0.3836689161 0)
(3.042286657 -0.173332362 0)
(3.048287683 -0.1906832375 0)
(3.050455397 -0.2048237784 0)
(3.051536798 -0.2042435346 0)
(3.052141871 -0.2069085318 0)
(3.057177064 -0.2233080101 0)
(3.058470603 -0.2349455052 0)
(3.059123188 -0.2335411985 0)
(3.059509154 -0.236137799 0)
(3.064222796 -0.2524271195 0)
(3.065020085 -0.2637698978 0)
(3.065759878 -0.2622150705 0)
(3.065776316 -0.2631297078 0)
(3.070591168 -0.2775809262 0)
(3.070997201 -0.2885219553 0)
(3.071637959 -0.2873075087 0)
(3.071263731 -0.2867657327 0)
(3.07623449 -0.2995589237 0)
(3.076886331 -0.3117779764 0)
(3.077482182 -0.3120024877 0)
(3.076509803 -0.3088895685 0)
(3.080012346 -0.3177666802 0)
(3.081875108 -0.3322155326 0)
(3.081999683 -0.3366037999 0)
(3.082775088 -0.3331118276 0)
(3.083095658 -0.3345025717 0)
(3.087291893 -0.3485953588 0)
(3.086160133 -0.3584625083 0)
(3.086505927 -0.3568683544 0)
(3.087483135 -0.3572392487 0)
(3.089722685 -0.3614891279 0)
(3.090382713 -0.3744491501 0)
(3.036859957 -0.1546008433 0)
(3.043560101 -0.172569282 0)
(3.046006155 -0.1872380107 0)
(3.04710046 -0.1869345219 0)
(3.047873976 -0.1899384635 0)
(3.0532531 -0.2069638861 0)
(3.054617947 -0.218976855 0)
(3.055151049 -0.2176560121 0)
(3.055889174 -0.2210043329 0)
(3.060676196 -0.2376661116 0)
(3.061494619 -0.2485940553 0)
(3.062167198 -0.2464845708 0)
(3.062167623 -0.2476909991 0)
(3.067336049 -0.2631202892 0)
(3.067968669 -0.2752072383 0)
(3.068786125 -0.2745356492 0)
(3.068253255 -0.2733483521 0)
(3.073323333 -0.2861066133 0)
(3.074535436 -0.300087358 0)
(3.075373487 -0.3017779883 0)
(3.074804131 -0.2988836703 0)
(3.078172198 -0.3073915048 0)
(3.079917478 -0.3216171163 0)
(3.079892593 -0.3260957999 0)
(3.080510097 -0.3223358673 0)
(3.081024914 -0.3241341614 0)
(3.085350442 -0.3384456649 0)
(3.084303615 -0.3475892103 0)
(3.084007527 -0.3468946992 0)
(3.085729449 -0.3488122112 0)
(3.087108064 -0.3500246096 0)
(3.088636173 -0.3648969959 0)
(3.034739501 -0.1471726323 0)
(3.041461428 -0.1654975779 0)
(3.04382357 -0.1793510681 0)
(3.044769376 -0.1784575811 0)
(3.04570835 -0.1819919204 0)
(3.051142081 -0.1995058208 0)
(3.052522287 -0.211184557 0)
(3.052986293 -0.2097337505 0)
(3.053880121 -0.213451823 0)
(3.05868483 -0.2303858152 0)
(3.059568711 -0.2413138107 0)
(3.06040959 -0.2390463131 0)
(3.060563187 -0.2399785893 0)
(3.0654382 -0.2551705291 0)
(3.065981712 -0.2664670546 0)
(3.066786723 -0.2651239492 0)
(3.066556122 -0.2647377227 0)
(3.071697445 -0.2780882379 0)
(3.072302772 -0.2906724784 0)
(3.073088715 -0.2907994315 0)
(3.072188088 -0.2869447154 0)
(3.075617394 -0.2954555495 0)
(3.077692505 -0.3105608435 0)
(3.077541685 -0.3155968004 0)
(3.078171271 -0.31212428 0)
(3.078562983 -0.3132802176 0)
(3.08345457 -0.3278544407 0)
(3.082572516 -0.3370174969 0)
(3.081836665 -0.3393469136 0)
(3.083974393 -0.3402439763 0)
(3.084771062 -0.3404523073 0)
(3.086632737 -0.3566065842 0)
(3.029659103 -0.1293256294 0)
(3.036654743 -0.1480708743 0)
(3.039166542 -0.1620633207 0)
(3.0400935 -0.1612202459 0)
(3.041229814 -0.1650510052 0)
(3.046885846 -0.1830098305 0)
(3.0483807 -0.1947063552 0)
(3.048806472 -0.1931231546 0)
(3.049928561 -0.1972615106 0)
(3.054879494 -0.2145691106 0)
(3.055780218 -0.2254099434 0)
(3.056584226 -0.2229429991 0)
(3.05680762 -0.2242660925 0)
(3.061990379 -0.2402257596 0)
(3.062633581 -0.2524372582 0)
(3.06356539 -0.2514357332 0)
(3.062996199 -0.2501147361 0)
(3.068324377 -0.2633384234 0)
(3.069471839 -0.2778865495 0)
(3.070351848 -0.279656788 0)
(3.069836331 -0.2765987195 0)
(3.073473709 -0.2853221024 0)
(3.07571185 -0.3007950908 0)
(3.075448522 -0.3060447374 0)
(3.07612755 -0.3031396562 0)
(3.076856479 -0.3041381182 0)
(3.081648573 -0.317988369 0)
(3.080577007 -0.3271158741 0)
(3.079552242 -0.3308630919 0)
(3.081186247 -0.3283160624 0)
(3.084134702 -0.3328868826 0)
(3.083276494 -0.3490625623 0)
(3.027420397 -0.1210567136 0)
(3.034389028 -0.1403422709 0)
(3.036928301 -0.1536885166 0)
(3.037845369 -0.1524112765 0)
(3.039277253 -0.1568884039 0)
(3.045020298 -0.1753850008 0)
(3.046516525 -0.186719346 0)
(3.04698545 -0.18489808 0)
(3.048230229 -0.1892398566 0)
(3.053157794 -0.2068327717 0)
(3.053936625 -0.217660512 0)
(3.054751892 -0.2150329331 0)
(3.055013716 -0.21626629 0)
(3.06023263 -0.2325198259 0)
(3.060749728 -0.2445551033 0)
(3.061605469 -0.2433186235 0)
(3.061312827 -0.2430086536 0)
(3.066925134 -0.2569285509 0)
(3.067505907 -0.2704096738 0)
(3.068236322 -0.2709271977 0)
(3.067506429 -0.266928937 0)
(3.071098778 -0.2753278661 0)
(3.073396134 -0.2908107472 0)
(3.072893604 -0.2961250346 0)
(3.073742754 -0.2931828051 0)
(3.074273466 -0.2929247907 0)
(3.078979331 -0.3056845296 0)
(3.078715945 -0.3179639024 0)
(3.077787012 -0.3218273046 0)
(3.077894017 -0.316688291 0)
(3.083118681 -0.3286442865 0)
(3.079026945 -0.3442655122 0)
(3.022348118 -0.1036175428 0)
(3.029230364 -0.1230438929 0)
(3.031743041 -0.1359931246 0)
(3.032616234 -0.1343765857 0)
(3.034147458 -0.1388724884 0)
(3.04027849 -0.1578409749 0)
(3.041911093 -0.1693870414 0)
(3.04244008 -0.1676107665 0)
(3.043817223 -0.1722329272 0)
(3.049108502 -0.1904342502 0)
(3.049877923 -0.2017152044 0)
(3.050647727 -0.1994117363 0)
(3.051013851 -0.201070686 0)
(3.056653571 -0.2178802894 0)
(3.05725461 -0.2306764843 0)
(3.058177644 -0.2297210422 0)
(3.057594266 -0.228486046 0)
(3.063396898 -0.2420834452 0)
(3.064490984 -0.2570899565 0)
(3.0651721 -0.259007771 0)
(3.064686097 -0.2558234742 0)
(3.068428781 -0.2644788259 0)
(3.071141955 -0.2805473044 0)
(3.070536181 -0.2868659742 0)
(3.071668868 -0.284383395 0)
(3.072098322 -0.2840106878 0)
(3.077458196 -0.2976279038 0)
(3.076758509 -0.3087120884 0)
(3.07673083 -0.3110971351 0)
(3.075707482 -0.3069931222 0)
(3.080436671 -0.3202982004 0)
(3.070266001 -0.34921452 0)
(3.020208172 -0.09502182277 0)
(3.027131743 -0.1152228867 0)
(3.02967824 -0.1278366381 0)
(3.030657567 -0.1259307093 0)
(3.032576846 -0.1310368139 0)
(3.038753877 -0.1504668207 0)
(3.04022643 -0.1616110292 0)
(3.040699122 -0.1593831214 0)
(3.042060449 -0.1639390732 0)
(3.047386304 -0.1825362605 0)
(3.047905759 -0.1939159636 0)
(3.048432319 -0.1915202946 0)
(3.048790886 -0.1934419674 0)
(3.054757853 -0.2107866138 0)
(3.055297921 -0.2236079177 0)
(3.056144361 -0.2225547395 0)
(3.055825524 -0.2221535035 0)
(3.061860961 -0.2362745169 0)
(3.062582746 -0.2503088725 0)
(3.063170175 -0.2511532872 0)
(3.062593728 -0.2473166014 0)
(3.066243282 -0.2556994932 0)
(3.068938159 -0.2717549369 0)
(3.068256669 -0.2779451443 0)
(3.069380785 -0.2747046528 0)
(3.069643082 -0.2740677973 0)
(3.0749736 -0.2875320767 0)
(3.075035569 -0.2978823147 0)
(3.075102662 -0.2984414663 0)
(3.0734716 -0.2995890441 0)
(3.075363622 -0.3139487108 0)
(3.053260176 -0.3690377486 0)
(3.015446768 -0.07870778187 0)
(3.022242598 -0.09895219904 0)
(3.024596988 -0.1109800592 0)
(3.025485422 -0.1086507608 0)
(3.027496888 -0.1136874293 0)
(3.034070895 -0.133527814 0)
(3.035589836 -0.1449773951 0)
(3.036085384 -0.1428844619 0)
(3.037494366 -0.1475900169 0)
(3.0431986 -0.1667654088 0)
(3.04372242 -0.1786114178 0)
(3.044116632 -0.176553499 0)
(3.044585485 -0.1788071351 0)
(3.050976874 -0.1964495847 0)
(3.051669052 -0.2096175202 0)
(3.052604079 -0.2086465288 0)
(3.052192809 -0.2075486566 0)
(3.058273228 -0.2214056275 0)
(3.059388588 -0.2365055012 0)
(3.059999178 -0.2383953589 0)
(3.059559158 -0.2347502435 0)
(3.063072661 -0.2429595439 0)
(3.066146971 -0.2596832335 0)
(3.065655607 -0.2666588716 0)
(3.066386896 -0.2633752595 0)
(3.067914903 -0.2653979353 0)
(3.072893469 -0.2782877546 0)
(3.074201902 -0.2860484111 0)
(3.071885789 -0.2882193549 0)
(3.070661366 -0.2945725505 0)
(3.067568529 -0.3106027704 0)
(3.022726924 -0.4138883588 0)
(3.012630143 -0.06883173786 0)
(3.019733872 -0.09013662152 0)
(3.022060591 -0.1024051073 0)
(3.022959336 -0.1002041244 0)
(3.02543076 -0.1061461679 0)
(3.032055473 -0.1265656562 0)
(3.033463563 -0.1377666991 0)
(3.0338876 -0.1352719435 0)
(3.035362199 -0.1400015544 0)
(3.041193136 -0.1595860237 0)
(3.041665633 -0.1713728313 0)
(3.04186092 -0.169200594 0)
(3.04242275 -0.1718142973 0)
(3.049055289 -0.1897567386 0)
(3.049763884 -0.2026869606 0)
(3.050752869 -0.2014675275 0)
(3.050570756 -0.2006607547 0)
(3.05670471 -0.2148271875 0)
(3.057531708 -0.2292866142 0)
(3.058118125 -0.2303938912 0)
(3.057486061 -0.2263723598 0)
(3.061313288 -0.2351202959 0)
(3.064248831 -0.2518461829 0)
(3.063824221 -0.2579552041 0)
(3.06407791 -0.2555185326 0)
(3.066692517 -0.2583287498 0)
(3.071991862 -0.2680101074 0)
(3.070575349 -0.2714559458 0)
(3.067134933 -0.2812392483 0)
(3.065617521 -0.2921012698 0)
(3.057355878 -0.319395969 0)
(2.977251006 -0.4832078408 0)
(3.00857772 -0.05530323455 0)
(3.015692533 -0.07651563957 0)
(3.017749009 -0.088051304 0)
(3.018429461 -0.08550543297 0)
(3.021033281 -0.0914166757 0)
(3.027570791 -0.1117914247 0)
(3.028856901 -0.1227307806 0)
(3.029115531 -0.1199847189 0)
(3.030626391 -0.1247283772 0)
(3.036557807 -0.1445379607 0)
(3.037158661 -0.1561497087 0)
(3.037314904 -0.1537710173 0)
(3.038019403 -0.1565025368 0)
(3.045002092 -0.1746681196 0)
(3.045929954 -0.1877545414 0)
(3.047094374 -0.1865711133 0)
(3.046851696 -0.1853124715 0)
(3.053042617 -0.1995242204 0)
(3.054127007 -0.2149749708 0)
(3.054732086 -0.2168986932 0)
(3.054206858 -0.2129357326 0)
(3.057955982 -0.2212015974 0)
(3.061287941 -0.2380314084 0)
(3.060603662 -0.2446085201 0)
(3.061128657 -0.2444533036 0)
(3.065250677 -0.248092693 0)
(3.069242294 -0.2512849628 0)
(3.066458885 -0.263922703 0)
(3.062760816 -0.2774961597 0)
(3.0559622 -0.2997674133 0)
(3.030693734 -0.3639777139 0)
(2.929113455 -0.5596814257 0)
(3.004496196 -0.04347272985 0)
(3.01234647 -0.0658465141 0)
(3.014525802 -0.07795495479 0)
(3.015122075 -0.07597067719 0)
(3.018277682 -0.08322053125 0)
(3.024992504 -0.1044076983 0)
(3.026337966 -0.1154806886 0)
(3.026583914 -0.1128735885 0)
(3.028452164 -0.1183538569 0)
(3.034383113 -0.138563987 0)
(3.035155239 -0.1498653267 0)
(3.035455938 -0.1471349546 0)
(3.036393099 -0.1499129467 0)
(3.043245956 -0.1680420804 0)
(3.044162559 -0.1805821711 0)
(3.045449713 -0.1788154061 0)
(3.045286573 -0.1773571593 0)
(3.051492814 -0.1918079936 0)
(3.052307906 -0.2071308959 0)
(3.052735682 -0.208595666 0)
(3.052461157 -0.2050619971 0)
(3.056365742 -0.2132486882 0)
(3.059952622 -0.2298478205 0)
(3.058682086 -0.2368144052 0)
(3.059592112 -0.2387058226 0)
(3.062856653 -0.2351663065 0)
(3.067997726 -0.2450599582 0)
(3.060648055 -0.2613984622 0)
(3.057677029 -0.2764792582 0)
(3.033460189 -0.3327427499 0)
(2.979040346 -0.4566645731 0)
(2.89074447 -0.6164439914 0)
(3.000825307 -0.03243063875 0)
(3.008410186 -0.05425217819 0)
(3.010402657 -0.06495210269 0)
(3.010715026 -0.06211102612 0)
(3.013973045 -0.06919309419 0)
(3.020535395 -0.09011478208 0)
(3.021809338 -0.1004667684 0)
(3.021904504 -0.09752074782 0)
(3.024013277 -0.1031755749 0)
(3.029996216 -0.1234277886 0)
(3.03086122 -0.1344874418 0)
(3.031240735 -0.1316075867 0)
(3.032373304 -0.1345929829 0)
(3.039346818 -0.1530823957 0)
(3.040312008 -0.1659884842 0)
(3.041663368 -0.1643542924 0)
(3.04146985 -0.1627276572 0)
(3.047705656 -0.177285541 0)
(3.048653016 -0.1933544393 0)
(3.048944724 -0.1955484461 0)
(3.049317529 -0.192171884 0)
(3.052095069 -0.1983672844 0)
(3.05633875 -0.2153072218 0)
(3.055451297 -0.2247934767 0)
(3.056735185 -0.2243682713 0)
(3.060653522 -0.2242648994 0)
(3.060148103 -0.2379635349 0)
(3.056317985 -0.2553477853 0)
(3.044906788 -0.2938663589 0)
(2.987474052 -0.4113262834 0)
(2.924864258 -0.5499914027 0)
(2.86705058 -0.6371980841 0)
(2.996673092 -0.02046220154 0)
(3.004759087 -0.04321277616 0)
(3.006968321 -0.05421687447 0)
(3.007402614 -0.05163153623 0)
(3.011052474 -0.059440601 0)
(3.017773174 -0.08101028128 0)
(3.019133277 -0.09137846646 0)
(3.019217417 -0.08857414758 0)
(3.021714245 -0.0950784238 0)
(3.027862914 -0.1159514042 0)
(3.028844466 -0.1270882959 0)
(3.029424289 -0.1241203649 0)
(3.030754977 -0.1272319818 0)
(3.037630558 -0.1460092068 0)
(3.038419285 -0.1589330338 0)
(3.039715254 -0.1571510863 0)
(3.039553523 -0.1555000837 0)
(3.045974642 -0.1703618568 0)
(3.046808105 -0.1865648106 0)
(3.046892748 -0.1892361244 0)
(3.047328615 -0.1856526732 0)
(3.050425831 -0.1923647664 0)
(3.054815936 -0.2097397153 0)
(3.054394837 -0.2178757327 0)
(3.054252695 -0.2138614613 0)
(3.058353707 -0.2208663736 0)
(3.053315673 -0.2370614314 0)
(3.044331992 -0.2712316117 0)
(3.016595747 -0.3423945302 0)
(2.921775692 -0.5324011405 0)
(2.884734645 -0.5997499245 0)
(2.85578886 -0.6336805963 0)
(2.992834298 -0.008748736142 0)
(3.000605456 -0.03107581175 0)
(3.002760609 -0.04092325982 0)
(3.003063315 -0.03775434984 0)
(3.006925692 -0.04582389985 0)
(3.013484516 -0.06740861764 0)
(3.01470025 -0.07712794242 0)
(3.014684267 -0.07406847141 0)
(3.017386785 -0.08059160974 0)
(3.023643617 -0.1013466243 0)
(3.024606315 -0.1122349251 0)
(3.025265983 -0.1092192758 0)
(3.026677869 -0.112355944 0)
(3.033689884 -0.1314208089 0)
(3.034338477 -0.144839347 0)
(3.035536953 -0.1434119021 0)
(3.035315925 -0.1416118872 0)
(3.041765436 -0.1562903078 0)
(3.042920626 -0.1731855865 0)
(3.043125462 -0.1765448534 0)
(3.042963658 -0.1725365696 0)
(3.047240097 -0.1806210601 0)
(3.051810112 -0.1971552865 0)
(3.050826028 -0.200570233 0)
(3.05117269 -0.2047824773 0)
(3.049738294 -0.2164081958 0)
(3.046263225 -0.2386738793 0)
(3.021035594 -0.3052961559 0)
(2.946832381 -0.4649074106 0)
(2.891623799 -0.572320595 0)
(2.851701782 -0.6254655332 0)
(2.854388933 -0.6247506256 0)
(2.989143491 0.002722183808 0)
(2.99692694 -0.02002811807 0)
(2.999163159 -0.02965739173 0)
(2.999538757 -0.0261316283 0)
(3.003382846 -0.0341089394 0)
(3.010093143 -0.05629874998 0)
(3.011302362 -0.06619030753 0)
(3.011223347 -0.06317449791 0)
(3.014341258 -0.07051035479 0)
(3.021226806 -0.09230227318 0)
(3.022270637 -0.1038553436 0)
(3.023079104 -0.1011876699 0)
(3.02472176 -0.1047198938 0)
(3.031965408 -0.1243367778 0)
(3.032349572 -0.1382852742 0)
(3.033316916 -0.1371249055 0)
(3.033082629 -0.1355361349 0)
(3.039771273 -0.1504052193 0)
(3.040940927 -0.1674656596 0)
(3.04096415 -0.1699918771 0)
(3.040891805 -0.1683180307 0)
(3.045867915 -0.1766809536 0)
(3.051297341 -0.1883929462 0)
(3.047812699 -0.1929840831 0)
(3.04674342 -0.2041814988 0)
(3.04405335 -0.2185239866 0)
(3.028407815 -0.270231348 0)
(2.963782336 -0.4078001549 0)
(2.908040687 -0.5337739775 0)
(2.853713593 -0.6085358213 0)
(2.850453911 -0.6129998117 0)
(2.854438755 -0.6088008048 0)
(2.98491498 0.01539942958 0)
(2.992639271 -0.007656171253 0)
(2.994880905 -0.016923296 0)
(2.995298273 -0.01356246362 0)
(2.999776959 -0.02252881181 0)
(3.006396021 -0.04494454646 0)
(3.007383452 -0.05429206378 0)
(3.00719101 -0.05092219667 0)