/*--------------------------------*- C++ -*----------------------------------*\
  =========                 |
  \\      /  F ield         | OpenFOAM: The Open Source CFD Toolbox
   \\    /   O peration     | Website:  https://openfoam.org
    \\  /    A nd           | Version:  7
     \\/     M anipulation  |
\*---------------------------------------------------------------------------*/
FoamFile
{
    version     2.0;
    format      ascii;
    class       volScalarField;
    location    "3.7";
    object      p;
}
// * * * * * * * * * * * * * * * * * * * * * * * * * * * * * * * * * * * * * //

dimensions      [1 -1 -2 0 0 0 0];

internalField   nonuniform List<scalar> 
23
(
0.8821257303
0.8915989452
1.008358163
0.9115182232
0.8848460242
1.119594285
1.032117413
0.9469081603
1.143881462
1.118457229
1.049442221
1.141010111
1.137311534
1.115561602
1.092567603
1.117686246
1.126653451
1.034701218
1.084546762
1.122915535
1.008589255
1.043033865
1.106550032
)
;

boundaryField
{
    inlet
    {
        type            fixedValue;
        value           nonuniform 0();
    }
    outlet
    {
        type            zeroGradient;
    }
    bottom
    {
        type            slip;
    }
    top
    {
        type            slip;
    }
    obstacle
    {
        type            zeroGradient;
    }
    defaultFaces
    {
        type            empty;
    }
    procBoundary34to27
    {
        type            processor;
        value           uniform 1.12979608;
    }
    procBoundary34to28
    {
        type            processor;
        value           nonuniform List<scalar> 4(0.879213759 0.9519581788 0.8962458545 0.8962458545);
    }
    procBoundary34to33
    {
        type            processor;
        value           nonuniform List<scalar> 6(1.168626092 1.144177565 1.089832005 1.03423794 1.007563707 1.000954707);
    }
    procBoundary34to35
    {
        type            processor;
        value           nonuniform List<scalar> 8(0.9270177647 0.8951096483 0.921592582 0.9743236855 1.061054417 1.115680305 1.15790481 1.177645501);
    }
}


// ************************************************************************* //
