/*--------------------------------*- C++ -*----------------------------------*\
  =========                 |
  \\      /  F ield         | OpenFOAM: The Open Source CFD Toolbox
   \\    /   O peration     | Website:  https://openfoam.org
    \\  /    A nd           | Version:  7
     \\/     M anipulation  |
\*---------------------------------------------------------------------------*/
FoamFile
{
    version     2.0;
    format      ascii;
    class       volScalarField;
    location    "5";
    object      p;
}
// * * * * * * * * * * * * * * * * * * * * * * * * * * * * * * * * * * * * * //

dimensions      [1 -1 -2 0 0 0 0];

internalField   nonuniform List<scalar> 
2222
(
1.035576805
1.038375168
1.039154868
1.042167466
1.046758703
1.047394385
1.042118696
0.5564149576
0.5470543067
0.5368647651
0.5268616455
0.5279410043
0.5298830296
0.5337995022
0.5367559881
0.5370995871
0.5368123185
0.5357395796
0.5316725475
0.5266115703
0.5206266284
0.5202481701
0.5219203257
0.5280497891
0.5431408577
0.5963552316
0.7354389558
0.9422761425
1.023053649
1.023177262
1.02441544
1.030400312
1.03542717
1.038669421
1.038821481
1.040967735
1.045913929
1.048079633
1.042944129
0.5413160375
0.5512906916
0.5569743595
0.5486345045
0.5382458317
0.5276675339
0.5280047614
0.5298346792
0.5338871256
0.5371238954
0.5373866708
0.5372475271
0.5363215431
0.5323486946
0.5275562261
0.5210355455
0.5200490945
0.5213148304
0.5266755598
0.5381174296
0.5774025919
0.70041596
0.8886071744
1.004334815
1.023200077
1.025286553
1.029338745
1.035826033
1.03880631
1.037885838
1.040329604
1.046094203
1.049089794
1.043757433
0.5402035751
0.5499059456
0.557103264
0.5501945205
0.5397143371
0.5285186425
0.52792646
0.5296312932
0.5338298107
0.537242923
0.5379124163
0.537896021
0.5370928632
0.5331119662
0.5285224507
0.5219278929
0.5198625712
0.5208026458
0.5256264159
0.5344854091
0.5620947084
0.6648741021
0.8560257665
0.9825629818
1.019698371
1.023552039
1.028573231
1.036162326
1.03800298
1.037260544
1.040830301
1.046380144
1.049668322
1.044441656
0.539162396
0.5484108034
0.5569475921
0.5515800779
0.5413042643
0.5294881672
0.5277729852
0.5292788844
0.5334087075
0.5373041022
0.5385411092
0.538642658
0.5379104112
0.5339581003
0.5295128115
0.5229835627
0.5198713047
0.5203509318
0.5247629746
0.5321605861
0.5522526631
0.6257032397
0.8181409911
0.9717115184
1.011996352
1.01980257
1.027824911
1.035377087
1.036945093
1.037815982
1.041839402
1.046313187
1.049705664
1.044849981
0.5381239692
0.5468234176
0.5563140614
0.5528512696
0.5429887123
0.5306030655
0.5276738821
0.5292202068
0.5333986391
0.5375154902
0.5389237372
0.5392151082
0.5385406614
0.5347824478
0.5304322093
0.5240824056
0.5199949428
0.5200892252
0.5240608667
0.5302089085
0.5451072892
0.6009870252
0.7594155263
0.9598568234
1.009334929
1.019310207
1.02720377
1.034281619
1.036972095
1.038377396
1.042538536
1.046045698
1.049374909
1.044709097
1.040815386
0.5370278255
0.5451801038
0.5553896485
0.5539061276
0.5447912016
0.5318705761
0.5276497117
0.5287999409
0.5332269599
0.5374939798
0.5390221233
0.5395603963
0.5390634705
0.5355971783
0.5312989499
0.5252617147
0.52019898
0.5199178962
0.5235199446
0.5288669842
0.5400074097
0.5813522425
0.7133476029
0.9166502573
1.010060384
1.020858159
1.027439143
1.033023185
1.037092356
1.03818163
1.041960135
1.045781602
1.048980839
1.044317637
1.040277957
0.5357784571
0.5435172904
0.5539659139
0.5546282679
0.5466518407
0.5332064753
0.5279581729
0.5285571767
0.5324713286
0.5370736779
0.5392382013
0.5399786144
0.5395911573
0.5364662411
0.5321372062
0.5263953403
0.5206210059
0.5198017476
0.5230720027
0.5278472818
0.5363252561
0.5652493369
0.6757206911
0.8654441355
0.9953332588
1.021212513
1.027877258
1.032819606
1.037672091
1.037226713
1.040741721
1.045922624
1.048923732
1.043935385
1.039432168
0.5344462914
0.5419655884
0.552471623
0.5550720748
0.5485404932
0.5344958676
0.5281481745
0.5284996335
0.5320040684
0.5367993498
0.5394866923
0.5404767243
0.5401958898
0.5373901506
0.5329797903
0.5275133762
0.5213245129
0.5196892752
0.522631772
0.5272534246
0.5338496359
0.5550091402
0.6354504073
0.8245330535
0.9652116044
1.018698255
1.027467925
1.033348151
1.037933674
1.036113146
1.039717134
1.0461667
1.048754493
1.043406043
1.038790641
0.5332784235
0.54051872
0.5506860264
0.5556730901
0.5504032966
0.5356646581
0.528445162
0.5282483381
0.5316470385
0.5366481761
0.5394852945
0.5407801621
0.5408288749
0.5382829758
0.5338186693
0.5285334301
0.5221870328
0.5196478233
0.5221446474
0.52675875
0.5320510097
0.5474105054
0.6072664114
0.772104316
0.9409781154
1.009289922
1.024925998
1.033359518
1.037096268
1.035780884
1.040218082
1.046265831
1.048588035
1.043086018
1.038550129
0.532385507
0.5391982803
0.5488734239
0.5557059441
0.5522882125
0.5367212763
0.5289321796
0.5282785098
0.5314057213
0.5365455045
0.539767841
0.5412586223
0.541281363
0.5391080208
0.5346629484
0.5295509718
0.5231452218
0.5197724069
0.5217153623
0.5266505515
0.530729681
0.5416983569
0.588030678
0.7217647346
0.9135833082
0.9953472885
1.022986408
1.031481356
1.035536186
1.036348617
1.040919442
1.045876258
1.048397935
1.043013157
1.038913554
0.5317324255
0.5379962881
0.5470307542
0.5552665733
0.5542712691
0.5377969293
0.5292597045
0.5282539077
0.5307919286
0.5361102485
0.5397540635
0.5414876678
0.5416457666
0.5398884014
0.5355603988
0.5304982603
0.5242200276
0.5200717737
0.5211444277
0.5267407983
0.5298724775
0.5379367632
0.5699731085
0.6896181231
0.873289796
0.9894696587
1.022713302
1.029611164
1.034857506
1.036319371
1.040670117
1.044962938
1.0482309
1.04314209
1.039669254
0.5314497751
0.5369435664
0.5452269587
0.5543610939
0.5560544798
0.5391369839
0.5297262716
0.5282818023
0.5304292406
0.5359206267
0.5395740052
0.5416430647
0.542138104
0.5406514665
0.5365456627
0.5314165844
0.5252619969
0.5205198367
0.5206891094
0.5264234354
0.529291001
0.5352926728
0.5581258875
0.6522785202
0.8401001459
0.9863179026
1.021759794
1.028435508
1.035537311
1.035976953
1.040196171
1.043827567
1.048244761
1.043627781
1.040673162
0.5309439099
0.5359849883
0.543458689
0.553034562
0.5574338385
0.5408195487
0.5303331035
0.5283490772
0.529672971
0.5352096115
0.5395476501
0.5418904569
0.5424226934
0.541345995
0.5375725438
0.5323360512
0.5263265914
0.5211458801
0.5204366428
0.5263176663
0.5288312492
0.5334431552
0.54975729
0.6155476794
0.7992386815
0.9647675547
1.01906278
1.029039056
1.037186426
1.035806527
1.039138414
1.042913131
1.048730792
1.044448724
1.041533424
1.038721231
0.5304904496
0.5350206206
0.5417575371
0.5512635622
0.5583887234
0.5427110695
0.531172118
0.5283545239
0.5292534658
0.5348225811
0.53968552
0.5423114509
0.543130356
0.5420160466
0.5385755407
0.5333055978
0.52727847
0.5219963441
0.5202444746
0.5262158087
0.5286168733
0.5321973113
0.5435442605
0.5930970081
0.7371107667
0.9220736938
1.009474863
1.029793912
1.03815245
1.034980215
1.037903745
1.04303684
1.049660495
1.045036305
1.0418998
1.039300623
0.5300523307
0.5341299508
0.5401215211
0.5493492861
0.559046373
0.544516452
0.5322014992
0.5284870638
0.5289269657
0.53412382
0.5391695429
0.5420767824
0.543086626
0.5424937155
0.5395209156
0.5343369358
0.5282045697
0.5227796123
0.5201569792
0.5261126094
0.528574378
0.5313077448
0.5396623237
0.5754912098
0.6922563832
0.8816257639
0.9953581034
1.02912191
1.036827814
1.033614115
1.037220213
1.043454988
1.050517887
1.045304533
1.041777858
1.038826728
0.5296293726
0.5333580824
0.538573817
0.5470557541
0.5594564602
0.5461303764
0.5333201711
0.5286067221
0.5286614012
0.5335540765
0.538856658
0.5420023917
0.5433466694
0.5429638177
0.5403613522
0.535393329
0.5290692701
0.5236305911
0.5201625072
0.5260325287
0.5287857554
0.5308242051
0.5367916896
0.5614796157
0.6642735019
0.8455798214
0.9856395263
1.026568046
1.035333703
1.032936728
1.035657361
1.044009066
1.051016018
1.045296398
1.040938409
1.037413529
0.5285751019
0.5328946804
0.5371499715
0.5447852445
0.5598017677
0.5474179412
0.5346456307
0.5288627143
0.5285232506
0.5329579155
0.5386718809
0.5420174235
0.5437918087
0.5434669678
0.5411334495
0.5365066363
0.529999418
0.5246370321
0.5202682386
0.5259660902
0.5285873897
0.5306129303
0.5349446092
0.5526008469
0.6277485177
0.8122554672
0.9762388165
1.021620686
1.034505204
1.031870053
1.035376966
1.044537313
1.050767596
1.044820801
1.039890942
1.036300099
0.5268916623
0.5324801108
0.5358887263
0.5421042799
0.5597150693
0.5484930639
0.5359021041
0.5290739915
0.528400359
0.5322103342
0.5384687467
0.5420437842
0.5436598038
0.5438072786
0.5418603638
0.5375492127
0.5308290348
0.5254008317
0.5204160841
0.5259499937
0.5285629875
0.5303914204
0.5338269986
0.5456695605
0.6001003352
0.7721125207
0.949708799
1.014874588
1.033681919
1.032657148
1.036856198
1.044057192
1.049743809
1.043871011
1.039065096
1.035727241
0.5261851101
0.5318471255
0.5349369378
0.5398013339
0.5600619078
0.5491948503
0.5373010113
0.5293774038
0.5284475508
0.5314796728
0.5381753964
0.542102607
0.5438070906
0.5440888714
0.5425399825
0.5386877294
0.5318207736
0.5264468692
0.5206341028
0.5259929978
0.528608748
0.5304289829
0.5329587358
0.5413179549
0.5820252679
0.7139961784
0.907165121
1.006335251
1.035154183
1.033860536
1.036669191
1.042430203
1.047674305
1.042191513
1.038946873
1.036111094
0.527380788
0.5313673883
0.5343691579
0.5369176613
0.5589881207
0.5490865478
0.5382368064
0.5296142815
0.5285030344
0.5308682028
0.537962404
0.5422877926
0.5440300725
0.5443732525
0.543057735
0.5396445149
0.5327525253
0.5272595779
0.5208739485
0.5261094001
0.5287231786
0.5305414035
0.5325253871
0.5387296374
0.5658924626
0.67482627
0.8718439139
0.9960675117
1.035557386
1.033298568
1.034975203
1.039903949
1.048365306
1.043613626
1.040751913
1.038110271
0.5095130226
0.520105776
0.5318384312
0.5378230935
0.5612024114
0.5511097172
0.5392882367
0.5297282869
0.5289977089
0.5305069474
0.5373347204
0.5419830802
0.5442890003
0.5447564796
0.543657322
0.5407535839
0.534001041
0.528303297
0.5214147819
0.5264017788
0.5289396782
0.530747088
0.532070422
0.536266522
0.5511847403
0.6306020674
0.8148442581
0.9761250906
1.032922591
1.032139132
1.033035237
1.039953693
1.049609787
1.044610695
1.041191059
1.038500911
0.2894517911
0.3377029181
0.3920882023
0.4450962979
0.4586545145
0.4634243059
0.4784338172
0.4961405211
0.5144547369
0.5282614997
0.5397601833
0.5452464689
0.5483363035
0.5494259579
0.5489579497
0.5468906714
0.5414096392
0.5346845994
0.5317980775
0.532684846
0.5357004534
0.5369139588
0.53669955
0.5355014408
0.5361172769
0.5514050515
0.624450572
0.7785359577
0.9372449373
0.9771721372
1.020306218
1.035967177
1.042472206
1.042121033
1.038400701
1.033808213
1.034862835
0.2555383211
0.2550793556
0.2565505736
0.2639880779
0.2759516516
0.2966828253
0.3266015029
0.3612905217
0.4007086045
0.4387753304
0.4712945586
0.4957846383
0.5091905243
0.5197463223
0.5277476988
0.529775953
0.5279627995
0.5296620157
0.5364077621
0.5460543957
0.5503766545
0.5496514041
0.5475086013
0.5426726358
0.5309480776
0.5258285545
0.5298397307
0.5629683696
0.6575288305
0.805703287
0.9502847249
0.9965605939
1.021236292
1.030827674
1.0272434
1.024526369
1.033277929
0.2563163403
0.2562146544
0.2564123801
0.2559597607
0.2558048391
0.2558418093
0.2559942375
0.257115077
0.2610549097
0.270491205
0.2867585724
0.3113422133
0.3410911744
0.3733393975
0.4084210823
0.4419637228
0.4747046669
0.5043194954
0.5251054878
0.5370142062
0.5409216929
0.5398249363
0.534995123
0.5267744601
0.5227563697
0.5254317801
0.5322142885
0.5400154863
0.5534390919
0.6081464014
0.7062033021
0.8281388064
0.9301892897
0.991668615
0.993485865
1.0135161
1.043877897
0.2574902076
0.2572645188
0.2572207771
0.2573896747
0.2575929125
0.257684281
0.2577279194
0.2576771543
0.2574991995
0.2574326184
0.2574671852
0.2575031287
0.25802233
0.2602427508
0.2661196096
0.2771174388
0.2959182669
0.3210336516
0.3505203563
0.3788268957
0.4071743935
0.4338117541
0.4589738204
0.4824117772
0.5031228371
0.5254466268
0.5341031469
0.5395698847
0.5392062465
0.5413953712
0.5542024582
0.6185953306
0.7165457701
0.8451183373
0.9298063905
1.004179953
1.03713001
0.2571818797
0.2569906762
0.256940799
0.2571663371
0.2573152352
0.2573294129
0.2573146125
0.257228296
0.2570960857
0.2571063545
0.2570872549
0.2571992397
0.2574392643
0.257469619
0.257250969
0.2567291102
0.2562446542
0.2563684509
0.2573035551
0.2602398322
0.2673498772
0.2804799094
0.3014694076
0.3296435526
0.3656754933
0.3977648091
0.427767556
0.4513961177
0.4684209272
0.4792348551
0.4934703283
0.519605429
0.5649068257
0.6485187608
0.7741519353
0.8911166368
0.9725403884
0.2562035509
0.2561651762
0.2565748789
0.2567740115
0.2568273812
0.2567476376
0.2566108848
0.2564336067
0.2563906428
0.2564682241
0.2566967793
0.2571746868
0.2572377711
0.2567483662
0.2560521768
0.2553927257
0.255522304
0.2558381679
0.2560086316
0.2559603603
0.2558147146
0.2558163553
0.2558945162
0.2562044495
0.2575504991
0.2614683264
0.2709315493
0.2852220947
0.3070530641
0.3339638717
0.3627250733
0.3874655274
0.4177329758
0.4484885944
0.5170725367
0.6136732683
0.7464099414
0.2556928391
0.2563266842
0.2569470683
0.2568855041
0.2567060926
0.2562325922
0.2556720769
0.2556107113
0.25599945
0.2564796176
0.2568247662
0.2562878578
0.2553059619
0.2542259025
0.2540203199
0.2544448419
0.2553349739
0.2552871981
0.2550574509
0.2549430471
0.2548250467
0.2548456564
0.2548318337
0.2546168439
0.2541005876
0.2534131087
0.2526794812
0.2522690568
0.251943949
0.2517994215
0.2525221928
0.2549405706
0.2591301355
0.2660746204
0.2782438366
0.3068478423
0.3780522719
0.2539351066
0.2537933357
0.2532148443
0.2524423438
0.2515781886
0.2509181704
0.2510491358
0.2511689894
0.2510742466
0.2507869111
0.2500528669
0.2494325001
0.2489300611
0.2490557208
0.2490261665
0.2487729223
0.2482353552
0.2476161404
0.2471835112
0.2469447685
0.2467455728
0.2465139193
0.2462893456
0.2460623919
0.2458284021
0.2455677082
0.2453759646
0.2451670358
0.2450096323
0.2448674626
0.2447106235
0.2444905079
0.2442956249
0.2440528443
0.2438842139
0.2436224157
0.2438609329
0.2463936159
0.2462006449
0.2458870964
0.2455935617
0.2451812019
0.2452434389
0.2453334251
0.2453281029
0.2451381178
0.2446576588
0.2439818354
0.2436824875
0.2434108314
0.2431586859
0.242902881
0.2427101361
0.2426078453
0.2424969023
0.2424155198
0.2424557372
0.2425226717
0.2424980536
0.2424015356
0.2422563516
0.2420875731
0.2418761123
0.2416859296
0.2416700485
0.2416858932
0.241699473
0.2417076796
0.2416863463
0.2416492473
0.2416469305
0.2416771511
0.2417167144
0.2417125238
0.2411798779
0.2413013713
0.2410947713
0.2408007866
0.2408085572
0.2409262631
0.241270215
0.2416267883
0.2415336616
0.2411023014
0.2406746022
0.2406642625
0.2406648358
0.2407084245
0.2408743355
0.2410275134
0.2409938117
0.2408871013
0.2408850669
0.2410529372
0.2413067982
0.2413911413
0.2413782322
0.2412637513
0.2411160259
0.2410335887
0.2410494084
0.2411535356
0.241363224
0.2414685536
0.2415255388
0.241585882
0.241755433
0.2419261477
0.2421475724
0.2422692635
0.2422279338
0.2423029682
0.2415813997
0.2409600869
0.2409816956
0.2413044117
0.2417571819
0.2422873525
0.2420424892
0.2414732378
0.2410038333
0.2405942785
0.2407720704
0.2412315857
0.2416994799
0.2422919425
0.2422602325
0.2421841281
0.2420064471
0.2421513879
0.2425024223
0.2431197275
0.2432754427
0.2432153286
0.2428998385
0.242989828
0.2432684843
0.2436981565
0.2442706267
0.2447554752
0.2449320816
0.2450825127
0.2453423336
0.2455097206
0.2457967746
0.2457767238
0.2458573539
0.2460432833
0.2421502331
0.2407344832
0.2411729225
0.2422067409
0.2437785527
0.2434920666
0.2429211881
0.2420554339
0.2423940047
0.2436265841
0.2452210137
0.2467254866
0.2464650263
0.2460244265
0.2454465019
0.245267012
0.2459887568
0.2474947458
0.2489683415
0.2492677351
0.2490812027
0.2491138663
0.2494567317
0.2503100022
0.2512124033
0.2515375109
0.2516833248
0.2516247091
0.2515891118
0.2517512065
0.2520565245
0.2524050982
0.2526145046
0.2527394952
0.2530294822
0.2534703151
0.2538648216
0.2501178734
0.253382953
0.2556122453
0.2573173623
0.2567467463
0.2562342083
0.2564587997
0.2570954434
0.2577216635
0.2582987904
0.2581214847
0.2575872426
0.2564363281
0.2565980925
0.2572762142
0.2585016826
0.2594901511
0.2601134123
0.2598806867
0.2595280797
0.2590370819
0.2589652217
0.2591097467
0.2592667871
0.2592260388
0.2592170789
0.2593314772
0.2596912979
0.2603277358
0.2608760312
0.2611552361
0.2610768135
0.2610628395
0.2611127371
0.2612026213
0.2612969863
0.2613833883
0.2703318937
0.2695112755
0.2679646713
0.2664205753
0.2637825271
0.2638953411
0.264513073
0.2650364854
0.2645876814
0.2638676928
0.2637293853
0.2642100705
0.2655528036
0.2669079199
0.2678776226
0.2676906166
0.2667123819
0.2656460849
0.2647175757
0.2649570954
0.2655916779
0.2666411001
0.2676514781
0.2678454717
0.2680571146
0.2684217493
0.2685667305
0.2685896467
0.2686490894
0.2685737277
0.2682621803
0.2680260389
0.268266893
0.2685930556
0.2686398004
0.2686827243
0.2688578765
0.2891641192
0.2874709063
0.2880744316
0.2892478335
0.2909133192
0.2914377051
0.2909892217
0.2903946407
0.2894055041
0.2885667459
0.2887722122
0.2888986076
0.2883904606
0.287028307
0.2856206834
0.2845892528
0.284744407
0.2852889421
0.286202289
0.2862014286
0.285671057
0.284948571
0.2842356321
0.283371765
0.2828503415
0.2828342466
0.2826057418
0.2818212067
0.2814713939
0.281321059
0.2812675655
0.2813782037
0.2815905651
0.2815322683
0.2812744635
0.2809444825
0.2807509013
0.3191730538
0.318178764
0.31599595
0.3139448123
0.3121956954
0.3094282963
0.3063109355
0.3049808449
0.3044036607
0.3024770325
0.3015640582
0.3017685812
0.3012661234
0.3001698289
0.3006831207
0.3009533027
0.3005530385
0.2996163407
0.2987002109
0.2976543092
0.2963294318
0.2956061223
0.2956164421
0.2956770106
0.2957505886
0.2958475196
0.2958188317
0.2954480691
0.2950066926
0.2948081156
0.2943680724
0.2935239332
0.2927222588
0.2925139817
0.2922224097
0.2915920197
0.2915326301
0.3430053388
0.3398866781
0.3343344535
0.3317726944
0.3325862261
0.33196069
0.3297120566
0.3292946411
0.3292302963
0.3277455333
0.3245909261
0.3237003043
0.3233995495
0.3218310788
0.3196242241
0.3180298526
0.3164400788
0.3141463749
0.3140019553
0.3139427365
0.3132674661
0.3125378928
0.3120436552
0.3111405492
0.3096660555
0.3082062547
0.3075262776
0.3068142574
0.3052756543
0.3050219446
0.3050028773
0.3043316832
0.3037530901
0.3038688203
0.3038142749
0.3031374112
0.302273674
0.3728962556
0.3713144382
0.3684128115
0.3626271974
0.3598271517
0.3580875342
0.3541462444
0.3491195858
0.3463585462
0.3447769505
0.3403970931
0.337735359
0.3380947912
0.3370988712
0.333669232
0.333498133
0.3333600419
0.3316140667
0.3301873193
0.3297866503
0.3285713479
0.3258688234
0.3241966494
0.3236732057
0.3221190258
0.3212091808
0.3214663449
0.3213725467
0.3202073344
0.3188458418
0.3184536309
0.3177503995
0.3162913792
0.3151425777
0.3147084883
0.3141715973
0.3127613882
0.4020712327
0.3968949366
0.3931358793
0.3857762946
0.3784776655
0.3785706356
0.3771215827
0.3710454306
0.3693877081
0.3694953695
0.3671351751
0.362128231
0.3607787064
0.3597792446
0.3563792932
0.3533020385
0.3520452806
0.349823164
0.3456691082
0.3441615366
0.3437961072
0.3417070378
0.3398541976
0.3397853146
0.3389000033
0.3364481316
0.334628
0.3338712934
0.3326704327
0.330302364
0.3294554908
0.3291587632
0.3275566728
0.3258110821
0.3258744807
0.325834546
0.3248887416
0.4334689626
0.4262511046
0.4233509732
0.4188826044
0.4097822019
0.406195787
0.4043389697
0.3986414698
0.391878541
0.3894655047
0.3869253367
0.3802653666
0.3756651776
0.3754332962
0.3735837744
0.3686558688
0.3675734861
0.3668213942
0.3633438514
0.3609447102
0.3608148178
0.3594363196
0.3558637022
0.3536377921
0.3527654736
0.3501188507
0.3471136842
0.3472158461
0.3469706659
0.3450329983
0.3434432649
0.3433343541
0.3425788625
0.3403065009
0.3386901432
0.3380979053
0.3371992375
0.4665632306
0.4566267638
0.4510705013
0.4467248654
0.4370506118
0.4267981752
0.4251828314
0.4224869856
0.4137673678
0.4108414967
0.4101712984
0.406044087
0.3993794949
0.3982899174
0.3969113547
0.3920546317
0.3881066324
0.3865009934
0.3833300159
0.3780265226
0.3758676002
0.3747517468
0.3712144285
0.3684764482
0.3684960374
0.3674714518
0.3639008313
0.3617248316
0.3609706644
0.3591615276
0.3555645636
0.3540068373
0.3536946653
0.3519630033
0.34893221
0.3487369195
0.3487345833
0.5008856744
0.4898056696
0.4799144255
0.4761742099
0.4698632327
0.4574961205
0.4532717529
0.4510476209
0.4436047712
0.4351680919
0.4325885678
0.4288831492
0.4203681554
0.4150947462
0.4134623702
0.4091703836
0.402969439
0.4022075144
0.4009915806
0.3957112927
0.3923820825
0.3920566189
0.390166356
0.3855129841
0.3832829438
0.3821124949
0.3788904007
0.3745093816
0.3741180322
0.3736502869
0.3709238516
0.3681821998
0.3679770106
0.367248448
0.3642752013
0.3615890904
0.3609818641
0.5360222507
0.5253731613
0.5109743841
0.5046559823
0.5000272645
0.4883083185
0.4765135653
0.473130316
0.4679340935
0.4566251679
0.4532542076
0.4519365363
0.4456036372
0.4373971214
0.4361281196
0.4339195979
0.4271049262
0.4232833845
0.4216061072
0.4172515461
0.4107721727
0.4084824522
0.4067297681
0.4018061801
0.3976587156
0.3972331222
0.3958475357
0.3913400444
0.3888233872
0.3882454828
0.3863181573
0.3821143998
0.3796750662
0.3790275312
0.3772802438
0.3732210772
0.3717766449
0.5720775789
0.5617951469
0.5465670803
0.5335086509
0.5292104365
0.5214026696
0.5064796522
0.5009569861
0.4976458762
0.4877680531
0.4784569009
0.4759163551
0.4710480699
0.4605989649
0.4551911859
0.4526526792
0.4462253746
0.4383507871
0.4368185827
0.4347762159
0.4280737493
0.4243572265
0.4236676384
0.4209605007
0.4152469885
0.4132102318
0.4120268172
0.4083291245
0.4025576336
0.4009171186
0.4001842744
0.3971495887
0.3929729138
0.3924872988
0.3919863309
0.3892217893
0.3852701085
0.60954433
0.5979022961
0.5850038778
0.5660374734
0.5578901474
0.5525520688
0.5391059404
0.5264101434
0.5220724161
0.514611847
0.5007735537
0.49588966
0.4934450629
0.4852554181
0.4763844081
0.4744456893
0.4708645014
0.4620041806
0.4584748845
0.4568798877
0.4516124614
0.4440944397
0.4413866547
0.438956906
0.4329582639
0.427392088
0.4263931189
0.4248111636
0.4197695681
0.4158429191
0.4151917039
0.4134841466
0.408760607
0.4048739425
0.4038278279
0.4022524198
0.3979356539
0.6492377356
0.6338237079
0.6227185124
0.6044603568
0.5877563832
0.5820843936
0.5727795396
0.5561323603
0.5490560361
0.544246501
0.5318969678
0.5217047046
0.518912317
0.5128784948
0.501039952
0.4955453333
0.4921408956
0.4837215171
0.4747727845
0.4723855712
0.4691799822
0.4611608644
0.4565023753
0.4554491901
0.4523382103
0.4452486078
0.4422574224
0.441326536
0.4380610331
0.4315179478
0.4281196427
0.4271182265
0.4243902554
0.4186241274
0.4166235394
0.4163693742
0.4143257932
0.6912879458
0.6708985063
0.658659277
0.6446701962
0.6226935239
0.6114697021
0.6045563204
0.5894238244
0.5757128218
0.5706409785
0.5614249883
0.5455874417
0.5393388612
0.5354618732
0.525279077
0.5156990252
0.513157143
0.5083770475
0.4975852822
0.4932269362
0.4914983534
0.486016285
0.4778151821
0.4743196243
0.4715831754
0.465457099
0.458007628
0.4554573508
0.4537112796
0.4488167368
0.4425325525
0.441395128
0.4403524635
0.436183411
0.4305497036
0.4287644012
0.4273946366
0.7344659976
0.7114571273
0.6938685422
0.6821718278
0.6630589108
0.6431044827
0.6349118147
0.6238295694
0.605420104
0.5969976371
0.5910909287
0.5768916614
0.5649370508
0.5613635338
0.5542331694
0.5413666249
0.5354937653
0.5314429008
0.52201044
0.5120394527
0.5084871334
0.5042906401
0.4956181582
0.4885126141
0.4866026204
0.4839033258
0.4768004672
0.4706840689
0.4696925131
0.4675630832
0.4612300055
0.4554474199
0.4538645615
0.4516000639
0.4455819584
0.4409679737
0.4405592339
0.7775339816
0.7553857363
0.7314218936
0.7170950042
0.7028038851
0.6801160296
0.66547671
0.6564907234
0.6396955653
0.6238435674
0.6179352569
0.6081403791
0.5912586581
0.5833811517
0.5779586847
0.5659535504
0.5550084075
0.5515177355
0.546094494
0.535074454
0.5281606515
0.5254389995
0.5203090924
0.5113236926
0.5061218754
0.5036785177
0.4986313157
0.4897229712
0.4844740921
0.4826330571
0.4786879494
0.4707091156
0.467279698
0.4666312913
0.4635585938
0.4569445746
0.4541143348
0.8204083254
0.7991029923
0.774152151
0.7524542619
0.7389556961
0.7202466415
0.698612842
0.6875764373
0.6751099173
0.6549419938
0.6440891737
0.6372467357
0.6226328931
0.6086598557
0.603609852
0.5954627122
0.5814606843
0.5745230094
0.5700095366
0.560934336
0.5498340709
0.5440593739
0.5396496741
0.5317291438
0.5216518442
0.5171410758
0.5147487346
0.509077458
0.5000326019
0.4974987265
0.496123112
0.4909095244
0.4831949213
0.4809185784
0.479007944
0.4733661755
0.4666626656
0.8636269014
0.8406329308
0.8184197425
0.7923015838
0.7738433067
0.7584233749
0.7360987784
0.7186549066
0.7079730255
0.6908320218
0.6721678901
0.6641410323
0.6540031326
0.6365099334
0.6267855378
0.6205971194
0.6081580691
0.5950826552
0.5893966856
0.5833370747
0.5733276159
0.5635572876
0.5588485786
0.5545794175
0.5459522621
0.5366820462
0.5341603284
0.5310223844
0.5227578162
0.5144681222
0.5118332338
0.508451063
0.500402113
0.4940860865
0.492895659
0.4902322298
0.483128448
0.906371936
0.8810882343
0.8595496648
0.8355105717
0.8110114289
0.7941620323
0.7753459738
0.7525560519
0.7387264087
0.7259197222
0.70557057
0.6910241313
0.6827530442
0.6684067587
0.6520690114
0.6450898708
0.6369678093
0.6227392112
0.6128172367
0.6072309682
0.5992982016
0.5880079708
0.5789364481
0.5741666373
0.5679065304
0.5568409912
0.5486625396
0.5457479754
0.5408518502
0.5308232729
0.5256146877
0.5242857396
0.5200232151
0.5111594783
0.5078950111
0.506321183
0.5011790252
0.9448716978
0.9211891182
0.8980476936
0.8764847035
0.8515760983
0.8297755433
0.8125751687
0.7907663096
0.7702526562
0.7575746606
0.7414855339
0.7211764176
0.7097622529
0.6994033267
0.6820373009
0.6688123712
0.6618052044
0.6507443496
0.6361951549
0.6272430636
0.6206323047
0.6114606038
0.5995828216
0.5919881252
0.5880301549
0.5810924059
0.5691431527
0.5641506645
0.5617907981
0.5549480788
0.545090328
0.5414351303
0.5382351651
0.530357274
0.5221509615
0.5198671476
0.5169994932
0.9745206249
0.9566190043
0.9351229693
0.9138147342
0.8917665824
0.8674458589
0.8476806319
0.8289849049
0.8060450322
0.7882611303
0.7746668213
0.7557559765
0.7377404388
0.7273750595
0.7143201936
0.6963016572
0.6854791074
0.6775404606
0.6647472162
0.6511158265
0.6435624055
0.6367884938
0.6260157319
0.6139362908
0.6080189271
0.6028888511
0.5925196826
0.5814515389
0.5774908576
0.5728262615
0.5625479657
0.5545369624
0.5525272146
0.5486165722
0.5393226884
0.5345200266
0.5330816376
0.9921056507
0.9817712458
0.9667736563
0.947900562
0.9280612493
0.9059820567
0.8831520485
0.8641977616
0.8438932083
0.8216698375
0.8055521637
0.7901237736
0.7699267704
0.7543620701
0.7436120097
0.7282915268
0.7110929441
0.7014424938
0.6921672932
0.6777546633
0.6647072476
0.6576149271
0.6495784137
0.636640763
0.6257817954
0.6212003888
0.6150796465
0.6030475557
0.5949650882
0.5921630181
0.5860399213
0.5749559237
0.5705024791
0.5678432693
0.5605809544
0.5509240617
0.5474191498
0.9986372105
0.994922728
0.9874465239
0.975279785
0.9591262337
0.9407438416
0.9194591723
0.8982679213
0.879290143
0.8580299323
0.8373000564
0.8216828649
0.804491881
0.7843539552
0.7703901553
0.7586743762
0.7418133638
0.7258501437
0.7168298974
0.7063047582
0.6904898162
0.6792313021
0.6731681116
0.6637153881
0.6494795598
0.6415155795
0.6368089302
0.6274842204
0.6147204336
0.6092849723
0.6048945756
0.5948796687
0.5845296851
0.5812633735
0.5772536059
0.5679364565
0.5610226369
0.9998861524
0.9991880802
0.9968818857
0.9915901507
0.982110833
0.9686199017
0.9519396748
0.9321446867
0.9123961052
0.8932268662
0.8718284987
0.8524444881
0.8366702829
0.8182312771
0.7987973088
0.7857105774
0.7728544005
0.7548504482
0.7404528214
0.731774925
0.7194344933
0.7026712488
0.6934352982
0.686777844
0.6745011934
0.6604797107
0.6544925148
0.6486393959
0.6368293733
0.6262104393
0.6226335858
0.6171816742
0.6054524106
0.5986359202
0.5962297025
0.590238081
0.579938883
0.9999959031
0.9999313169
0.9995453658
0.9981300316
0.9945066972
0.9873935842
0.9764143267
0.9617308261
0.9438095996
0.9253553636
0.9062756103
0.8853060841
0.8668830642
0.8507192903
0.8314711482
0.8130358518
0.8004466655
0.7862079072
0.7674847748
0.7550066125
0.7461264276
0.731531313
0.7153997444
0.708206529
0.7004603907
0.6858143314
0.6746712532
0.6699046571
0.6617347549
0.6480296868
0.6405400323
0.6363514359
0.6274377068
0.6154081395
0.6104181839
0.6063246375
0.5974052661
0.9999999418
0.9999970467
0.9999635336
0.9997526095
0.9989054139
0.9965041518
0.9913425058
0.9826596843
0.970147375
0.954264723
0.937128132
0.918536872
0.8983052071
0.8806150415
0.8639838236
0.8442172793
0.8270447931
0.8145933047
0.7986537093
0.7800938125
0.7694612535
0.7595230779
0.7426612872
0.7288230344
0.7222564263
0.7118933264
0.6959311778
0.68754691
0.6819709911
0.6709581164
0.6580239974
0.6528422287
0.6477758084
0.6370196673
0.6270687855
0.623779713
0.6189391872
0.9999999997
0.9999999364
0.9999984456
0.9999816689
0.9998694548
0.999376414
0.9978352665
0.9942067675
0.987545887
0.9772139543
0.963424817
0.9477436334
0.9299711665
0.9106994426
0.8936723903
0.8765099621
0.8565862232
0.8408083841
0.8279870134
0.810277963
0.7930676874
0.7835461709
0.7717020079
0.7536331915
0.7427816677
0.7358254223
0.7226326891
0.7079090875
0.7019930543
0.695091796
0.6816952957
0.6714846089
0.6668719049
0.6593726189
)
;

boundaryField
{
    inlet
    {
        type            fixedValue;
        value           nonuniform 0();
    }
    outlet
    {
        type            zeroGradient;
    }
    bottom
    {
        type            slip;
    }
    top
    {
        type            slip;
    }
    obstacle
    {
        type            zeroGradient;
    }
    defaultFaces
    {
        type            empty;
    }
    procBoundary27to14
    {
        type            processor;
        value           nonuniform List<scalar> 2(0.2561495617 0.2557241239);
    }
    procBoundary27to20
    {
        type            processor;
        value           nonuniform List<scalar> 
34
(
0.2558117628
0.2575983959
0.257417014
0.2563579762
0.2552895621
0.2538037992
0.2465555588
0.2404860799
0.2421417399
0.2438779221
0.2486135446
0.2705822557
0.2903868868
0.3191737859
0.346025714
0.3757995458