/*--------------------------------*- C++ -*----------------------------------*\
  =========                 |
  \\      /  F ield         | OpenFOAM: The Open Source CFD Toolbox
   \\    /   O peration     | Website:  https://openfoam.org
    \\  /    A nd           | Version:  7
     \\/     M anipulation  |
\*---------------------------------------------------------------------------*/
FoamFile
{
    version     2.0;
    format      ascii;
    class       volVectorField;
    location    "1.3";
    object      U;
}
// * * * * * * * * * * * * * * * * * * * * * * * * * * * * * * * * * * * * * //

dimensions      [0 1 -1 0 0 0 0];

internalField   nonuniform List<vector> 
138
(
(3 1.202244801e-16 0)
(3 -4.511337999e-16 0)
(3 3.429116329e-16 0)
(3 -2.757255748e-16 0)
(3 3.134950714e-16 0)
(3 8.086153608e-16 0)
(3 -3.024104635e-15 0)
(3 -5.003948325e-15 0)
(3 -3.865733831e-15 0)
(3 -2.377266894e-15 0)
(3 -2.545443447e-15 0)
(3 -3.108064835e-15 0)
(3 -5.372962359e-15 0)
(3 -5.953172326e-15 0)
(3 -2.860600383e-15 0)
(3 -1.53475471e-15 0)
(3 -1.041198826e-15 0)
(3 -9.441798144e-16 0)
(3 -1.812552814e-16 0)
(3 -3.694009409e-15 0)
(3 -4.095615157e-15 0)
(3 -6.68697552e-15 0)
(3 -7.700910376e-15 0)
(3 -7.941082345e-15 0)
(3 -2.232987044e-15 0)
(3 3.048506074e-15 0)
(3 5.254666665e-15 0)
(3 5.392921533e-15 0)
(3 4.714645471e-15 0)
(3 4.135047139e-15 0)
(3 3.710657292e-15 0)
(3 1.081295282e-15 0)
(3 -3.824763136e-15 0)
(3 -4.272125283e-15 0)
(3 -1.419539368e-15 0)
(3 -4.564288877e-16 0)
(3 3.387989674e-15 0)
(3 3.125800465e-15 0)
(3 3.515009376e-15 0)
(3 4.70515865e-15 0)
(3 2.817423278e-15 0)
(3 -8.789394114e-17 0)
(3 -5.349425395e-15 0)
(3 -8.377186471e-15 0)
(3 -1.329121033e-14 0)
(3 4.357348026e-16 0)
(3 -1.265573974e-15 0)
(3 -7.403025827e-16 0)
(3 1.985748739e-15 0)
(3 1.371778671e-15 0)
(3 1.028500411e-15 0)
(3 -2.144275808e-15 0)
(3 -8.974844297e-15 0)
(3 -1.582685082e-14 0)
(3 -9.275085916e-16 0)
(3 1.583864787e-15 0)
(3 1.21374608e-15 0)
(3 2.656355283e-15 0)
(3 6.409063932e-15 0)
(3 9.790084135e-15 0)
(3 9.759588273e-15 0)
(3 4.030223284e-15 0)
(3 -2.374871861e-15 0)
(3 3.65399392e-15 0)
(3 5.193682891e-15 0)
(3 9.344712755e-15 0)
(3 1.156778098e-14 0)
(3 1.116831956e-14 0)
(3 9.780697178e-15 0)
(3 1.101076956e-14 0)
(3 1.205150533e-14 0)
(3 1.043835672e-14 0)
(3 -2.056223927e-15 0)
(3 -7.300278824e-16 0)
(3 -8.983214804e-16 0)
(3 -5.642980528e-16 0)
(3 -4.509358201e-16 0)
(3 6.998762588e-16 0)
(3 -8.09606196e-16 0)
(3 -6.128172062e-16 0)
(3 2.02626587e-16 0)
(3 1.128247811e-15 0)
(3 1.652000853e-15 0)
(3 2.139834371e-15 0)
(3 3.040699196e-15 0)
(3 2.666539584e-15 0)
(3 5.761148458e-15 0)
(3 5.511550325e-15 0)
(3 4.778596123e-15 0)
(3 3.378694221e-15 0)
(3 1.976242753e-15 0)
(3 1.845890502e-15 0)
(3 1.019777902e-15 0)
(3 4.487014529e-16 0)
(3 -7.540101273e-16 0)
(3 -3.128502107e-15 0)
(3 -4.444586143e-15 0)
(3 -6.03866898e-15 0)
(3 -6.936004846e-15 0)
(3 -6.763744272e-15 0)
(3 -5.542080278e-15 0)
(3 -5.075144542e-15 0)
(3 -1.519392588e-14 0)
(3 -1.692065239e-14 0)
(3 -1.538194656e-14 0)
(3 -1.491134567e-14 0)
(3 -1.489475853e-14 0)
(3 -1.396395981e-14 0)
(3 -1.328163244e-14 0)
(3 -1.170046937e-14 0)
(3 -1.69402824e-14 0)
(3 -1.703004542e-14 0)
(3 -1.67321715e-14 0)
(3 -1.505079887e-14 0)
(3 -1.43401059e-14 0)
(3 -1.529495618e-14 0)
(3 -1.585062851e-14 0)
(3 -1.55087304e-14 0)
(3 -4.462997526e-15 0)
(3 -6.819424364e-15 0)
(3 -8.457488858e-15 0)
(3 -1.074997159e-14 0)
(3 -1.137263872e-14 0)
(3 -1.247031988e-14 0)
(3 -1.527337369e-14 0)
(3 -1.62080453e-14 0)
(3 6.9932249e-15 0)
(3 4.109066117e-15 0)
(3 3.730292999e-15 0)
(3 6.19746466e-16 0)
(3 2.232132588e-15 0)
(3 5.371249229e-16 0)
(3 2.572104768e-16 0)
(3 9.453487984e-15 0)
(3 1.554360994e-14 0)
(3 5.329860081e-14 0)
(3 3.399809205e-13 0)
(3 9.162508164e-13 0)
)
;

boundaryField
{
    inlet
    {
        type            fixedValue;
        value           nonuniform 0();
    }
    outlet
    {
        type            inletOutlet;
        inletValue      nonuniform 0();
        value           nonuniform 0();
    }
    bottom
    {
        type            slip;
    }
    top
    {
        type            slip;
    }
    obstacle
    {
        type            slip;
    }
    defaultFaces
    {
        type            empty;
    }
    procBoundary7to1
    {
        type            processor;
        value           nonuniform List<vector> 
18
(
(3 9.161500116e-16 0)
(3 7.648546981e-16 0)
(3 2.269448146e-15 0)
(3 3.317178901e-15 0)
(3 2.349753276e-15 0)
(3 -1.050991404e-15 0)
(3 -1.114769084e-15 0)
(3 -6.876555076e-16 0)
(3 -1.07846467e-15 0)
(3 -1.765736943e-15 0)
(3 -9.919376119e-16 0)
(3 -2.618415409e-17 0)
(3 1.8730395e-16 0)
(3 -4.722268998e-17 0)
(3 6.338167604e-16 0)
(3 5.52336062e-16 0)
(3 5.52336062e-16 0)
(3 4.88591223e-16 0)
)
;
    }
    procBoundary7to6
    {
        type            processor;
        value           nonuniform List<vector> 8((3 9.808038895e-16 0) (3 -3.24201302e-17 0) (3 7.754434103e-16 0) (3 3.928544962e-15 0) (3 1.455088004e-15 0) (3 5.932132771e-16 0) (3 1.059388319e-15 0) (3 1.092393347e-15 0));
    }
    procBoundary7to8
    {
        type            processor;
        value           nonuniform List<vector> 7((3 1.459684794e-15 0) (3 8.25620062e-16 0) (3 -4.264259033e-15 0) (3 -9.54646475e-15 0) (3 -1.291790947e-14 0) (3 -1.562434489e-14 0) (3 4.007376331e-14 0));
    }
    procBoundary7to13
    {
        type            processor;
        value           nonuniform List<vector> 
18
(
(3 2.939417648e-15 0)
(3 8.44209509e-15 0)
(3 1.127137417e-14 0)
(3 1.028957069e-14 0)
(3 7.247110656e-15 0)
(3 2.059950185e-15 0)
(3 2.59009854e-15 0)
(3 5.056876016e-15 0)
(3 6.234047453e-15 0)
(3 8.140618069e-15 0)
(3 9.238799736e-15 0)
(3 9.294636014e-15 0)
(3 1.015676738e-14 0)
(3 1.015676738e-14 0)
(3 8.770849216e-13 0)
(3 3.587446092e-12 0)
(3 8.116021822e-12 0)
(3 1.261290551e-11 0)
)
;
    }
    procBoundary7to14
    {
        type            processor;
        value           uniform (3 2.474571856e-12 0);
    }
}


// ************************************************************************* //
