/*--------------------------------*- C++ -*----------------------------------*\
  =========                 |
  \\      /  F ield         | OpenFOAM: The Open Source CFD Toolbox
   \\    /   O peration     | Website:  https://openfoam.org
    \\  /    A nd           | Version:  7
     \\/     M anipulation  |
\*---------------------------------------------------------------------------*/
FoamFile
{
    version     2.0;
    format      ascii;
    class       volScalarField;
    location    "4.7";
    object      T;
}
// * * * * * * * * * * * * * * * * * * * * * * * * * * * * * * * * * * * * * //

dimensions      [0 0 0 1 0 0 0];

internalField   nonuniform List<scalar> 
22
(
1.040457944
1.04228938
1.042616132
1.034127294
1.041506438
1.041197828
1.031855687
1.027428717
1.039434855
1.039990369
1.031299608
1.016463272
1.036460997
1.037693421
1.030255751
0.9979666139
1.016775614
1.022556108
0.9654422962
0.9794023492
1.002187088
0.9774901342
)
;

boundaryField
{
    inlet
    {
        type            fixedValue;
        value           nonuniform 0();
    }
    outlet
    {
        type            inletOutlet;
        inletValue      nonuniform 0();
        value           nonuniform 0();
    }
    bottom
    {
        type            slip;
    }
    top
    {
        type            slip;
    }
    obstacle
    {
        type            zeroGradient;
    }
    defaultFaces
    {
        type            empty;
    }
    procBoundary28to21
    {
        type            processor;
        value           nonuniform List<scalar> 2(1.014909232 0.997918293);
    }
    procBoundary28to22
    {
        type            processor;
        value           nonuniform List<scalar> 3(1.046576832 1.046585663 1.047437225);
    }
    procBoundary28to27
    {
        type            processor;
        value           nonuniform List<scalar> 6(0.9808329631 0.9589753169 0.9690479579 0.9690479579 0.9603495681 0.9993362207);
    }
    procBoundary28to29
    {
        type            processor;
        value           nonuniform List<scalar> 7(1.034274805 1.034274805 1.031256368 1.02870869 1.027034464 1.02527034 1.013391076);
    }
    procBoundary28to34
    {
        type            processor;
        value           nonuniform List<scalar> 4(0.9743963104 0.9769772028 0.9743963104 1.006774667);
    }
}


// ************************************************************************* //
