/*--------------------------------*- C++ -*----------------------------------*\
  =========                 |
  \\      /  F ield         | OpenFOAM: The Open Source CFD Toolbox
   \\    /   O peration     | Website:  https://openfoam.org
    \\  /    A nd           | Version:  7
     \\/     M anipulation  |
\*---------------------------------------------------------------------------*/
FoamFile
{
    version     2.0;
    format      ascii;
    class       volScalarField;
    location    "0.6";
    object      rho;
}
// * * * * * * * * * * * * * * * * * * * * * * * * * * * * * * * * * * * * * //

dimensions      [1 -3 0 0 0 0 0];

internalField   nonuniform List<scalar> 5(1.363442358 1.377778807 1.360211947 1.374264509 1.358412536);

boundaryField
{
    inlet
    {
        type            calculated;
        value           nonuniform 0();
    }
    outlet
    {
        type            calculated;
        value           nonuniform List<scalar> 3(1.363448457 1.360221695 1.358472538);
    }
    bottom
    {
        type            calculated;
        value           nonuniform 0();
    }
    top
    {
        type            calculated;
        value           nonuniform 0();
    }
    obstacle
    {
        type            calculated;
        value           nonuniform 0();
    }
    defaultFaces
    {
        type            empty;
    }
    procBoundary23to16
    {
        type            processor;
        value           nonuniform List<scalar> 2(1.407278383 1.412812542);
    }
    procBoundary23to17
    {
        type            processor;
        value           nonuniform List<scalar> 3(1.368450664 1.38185391 1.38185391);
    }
    procBoundary23to29
    {
        type            processor;
        value           nonuniform List<scalar> 2(1.374435369 1.358331779);
    }
}


// ************************************************************************* //
