/*--------------------------------*- C++ -*----------------------------------*\
  =========                 |
  \\      /  F ield         | OpenFOAM: The Open Source CFD Toolbox
   \\    /   O peration     | Website:  https://openfoam.org
    \\  /    A nd           | Version:  7
     \\/     M anipulation  |
\*---------------------------------------------------------------------------*/
FoamFile
{
    version     2.0;
    format      ascii;
    class       volScalarField;
    location    "4.4";
    object      rho;
}
// * * * * * * * * * * * * * * * * * * * * * * * * * * * * * * * * * * * * * //

dimensions      [1 -3 0 0 0 0 0];

internalField   nonuniform List<scalar> 
555
(
1.414326805
1.414494566
1.40507676
1.410678489
1.410810471
1.409277167
1.406907391
1.406371552
1.408966759
1.410419496
1.411140743
1.41081119
1.410968427
1.411052876
1.41222933
1.413526394
1.414389661
1.41574143
1.416255826
1.406320168
1.412072257
1.412319176
1.410990828
1.409359846
1.409310846
1.411761395
1.412819934
1.412895515
1.412125691
1.411938672
1.41185485
1.412851569
1.414000222
1.414742211
1.415981803
1.416494728
1.407441962
1.412759326
1.413297228
1.41193988
1.410821325
1.410944087
1.413166745
1.414299594
1.415407042
1.414618258
1.413381594
1.413320314
1.413830117
1.414234611
1.414756659
1.415908074
1.41630724
1.40895556
1.413465446
1.413841399
1.412408507
1.412400872
1.413131767
1.415110213
1.416602287
1.418174754
1.41832226
1.417355042
1.417242655
1.417032453
1.416379257
1.416101434
1.416328617
1.416193767
1.411305151
1.415345479
1.415588261
1.413806806
1.413722791
1.414410204
1.41606996
1.417482907
1.419133737
1.419591079
1.4193057
1.419682688
1.419943991
1.419506521
1.418770402
1.417867647
1.417338743
1.413359023
1.413096926
1.416738794
1.416484589
1.414009302
1.413436386
1.413900035
1.41561301
1.416370867
1.417291022
1.418071207
1.419004199
1.420028222
1.420806151
1.420532663
1.420016157
1.419153992
1.418892527
1.41276153
1.412841363
1.416028466
1.415367399
1.412129613
1.410914422
1.411207058
1.41314023
1.413915531
1.414203508
1.415298797
1.417273957
1.4185207
1.419700286
1.420308318
1.42018785
1.419336277
1.419379689
1.41093983
1.411132995
1.413874966
1.412794085
1.408941404
1.406900095
1.407012331
1.409015286
1.41006554
1.411026662
1.412152275
1.414024085
1.415299185
1.417071799
1.418811031
1.419263247
1.418552551
1.418405234
1.408676701
1.40884043
1.410856975
1.409427216
1.405519291
1.403419812
1.403492268
1.405868625
1.407445812
1.408872931
1.409704369
1.411012876
1.411976692
1.413687498
1.415983833
1.416967056
1.416567617
1.416206784
1.406412617
1.406903122
1.408549908
1.407076788
1.403832034
1.401730773
1.40202996
1.404470946
1.406873826
1.408714945
1.409216867
1.409279667
1.409721927
1.411044807
1.412992927
1.413996973
1.413925752
1.402211397
1.40335119
1.40539526
1.404254738
1.40146391
1.400578017
1.401339949
1.403947456
1.406627437
1.408344364
1.408867377
1.408439613
1.408874759
1.409448162
1.409847385
1.410093821
1.409799852
1.396327712
1.397802294
1.399902019
1.399095648
1.396872675
1.396885116
1.398097289
1.400630905
1.403423519
1.405063207
1.405450177
1.405083575
1.405632998
1.405780161
1.405543646
1.405296103
1.404493549
1.391658282
1.389785477
1.391257957
1.393184626
1.392504408
1.390517483
1.390767642
1.392278984
1.39453976
1.397116356
1.398697155
1.398993163
1.398925224
1.399491219
1.399833043
1.399760678
1.399168977
1.397971335
1.383929275
1.382695975
1.383902543
1.385183201
1.384482165
1.382450437
1.382227391
1.383775829
1.386040941
1.388565039
1.390265866
1.390553795
1.390536939
1.391143165
1.391837297
1.392129295
1.391666164
1.3905631
1.375205054
1.374086661
1.375335668
1.375844913
1.37501227
1.373103603
1.372469053
1.373973537
1.376407931
1.378837629
1.38051438
1.380960223
1.381092595
1.381946817
1.382740515
1.38314055
1.383150208
1.382698644
1.365109444
1.363770761
1.365397659
1.365662049
1.364812251
1.363287367
1.362457045
1.363927153
1.36645257
1.36866537
1.370120604
1.370572477
1.371065671
1.372366888
1.373253419
1.373740201
1.374427658
1.3749091
1.354583087
1.350751621
1.352721877
1.354951527
1.354741037
1.35387347
1.353036515
1.354471201
1.356890757
1.358976099
1.36044978
1.360959698
1.361742818
1.363267604
1.364462718
1.365519313
1.366988856
1.367607268
1.343010282
1.339709293
1.341757294
1.344307549
1.344351235
1.343698466
1.343498324
1.34520823
1.347343278
1.349388587
1.350217377
1.350460541
1.351543705
1.353469326
1.355079586
1.355960736
1.356578406
1.358088649
1.333376477
1.329783426
1.33179689
1.334556141
1.334821354
1.334048183
1.333757524
1.335351895
1.337542833
1.339653317
1.340256834
1.340503278
1.341533551
1.343772448
1.345424234
1.345807494
1.345836992
1.34606994
1.32865869
1.324991766
1.321661895
1.323238255
1.325704495
1.325728406
1.324551262
1.324053805
1.325404014
1.327797096
1.329998912
1.330374792
1.330561377
1.331405974
1.333872654
1.335712967
1.336133651
1.335346323
1.334315042
1.322405462
1.31804191
1.314236104
1.315313463
1.316786811
1.316436844
1.31482883
1.31390907
1.315197633
1.317924615
1.320105434
1.319932723
1.32018309
1.321290198
1.323612791
1.325359869
1.325650004
1.324368168
1.322285427
1.314431706
1.31025022
1.305859192
1.306721131
1.307739048
1.306320783
1.304239227
1.303683926
1.305699021
1.308434816
1.310138873
1.309881933
1.309928512
1.310872171
1.313053387
1.314580328
1.314646661
1.31277154
1.310311375
1.306025694
1.302186546
1.297194605
1.297853762
1.298185728
1.295917908
1.293474469
1.293581451
1.296274876
1.29923653
1.30073173
1.300615779
1.300500324
1.300679197
1.301885043
1.302896961
1.302625798
1.301272914
1.296067148
1.291833977
1.28633585
1.287169793
1.287765428
1.285441252
1.283122538
1.283512677
1.286438741
1.289935766
1.291567015
1.291649557
1.291407267
1.291002493
1.290749937
1.291334256
1.291220594
1.290866512
1.284002596
1.279334997
1.275404294
1.276676014
1.278051271
1.276026096
1.273742617
1.274062888
1.277206654
1.280667848
1.282648553
1.282978175
1.282619931
1.281776743
1.280895391
1.281238015
1.281460199
1.281962828
1.274069922
1.273623625
1.268733792
1.266041367
1.267532196
1.269343151
1.267596374
1.265304044
1.265450209
1.268865342
1.272360106
1.274119396
1.274566348
1.27436957
1.273645914
1.273519139
1.27349361
1.273739204
1.274251911
1.26618928
1.265358311
1.260528381
1.258483543
1.260045083
1.261881139
1.260169881
1.257909542
1.257858059
1.261523908
1.265216941
1.266701587
1.267170648
1.267231869
1.267434194
1.268130708
1.268335574
1.268827984
1.269372233
1.260475594
1.258887348
1.253706434
1.252226003
1.254248615
1.256108831
1.254380618
1.252595205
1.252743318
1.256220691
1.259305826
1.260532789
1.261067612
1.261973828
1.263532229
1.2651694
1.265879187
1.266810347
1.267768801
1.255866906
1.253864474
1.248520094
1.247283269
1.249998558
1.251584465
1.249974188
1.249099032
1.250422488
1.254114207
1.256542839
1.257383297
1.257998314
1.259498024
1.261672626
1.263927764
1.265255954
1.265985914
1.265793134
1.256108813
1.252663372
1.24596699
1.245108752
1.247603266
1.248718406
1.247063219
1.24756134
1.249676114
1.25335239
1.255683602
1.256300227
1.256985151
1.25865167
1.261513755
1.264244856
1.265353196
1.26525208
1.264714499
1.255785153
1.251132882
1.244873246
1.244486665
1.247125654
1.248102669
1.246372142
1.247200123
1.250447001
1.254450343
1.255815136
1.256417414
1.257335497
)
;

boundaryField
{
    inlet
    {
        type            calculated;
        value           nonuniform 0();
    }
    outlet
    {
        type            calculated;
        value           nonuniform 0();
    }
    bottom
    {
        type            calculated;
        value           nonuniform 0();
    }
    top
    {
        type            calculated;
        value           nonuniform 0();
    }
    obstacle
    {
        type            calculated;
        value           nonuniform 0();
    }
    defaultFaces
    {
        type            empty;
    }
    procBoundary16to10
    {
        type            processor;
        value           nonuniform List<scalar> 
18
(
1.41168632
1.411533781
1.402316612
1.407627557
1.407986127
1.406561287
1.404187216
1.403716621
1.405889799
1.40719551
1.408698337
1.409054763
1.409495169
1.410000079
1.41137703
1.412883789
1.413924277
1.413924277
)
;
    }
    procBoundary16to11
    {
        type            processor;
        value           uniform 1.414632261;
    }
    procBoundary16to15
    {
        type            processor;
        value           nonuniform List<scalar> 
35
(
1.406538098
1.408227857
1.409487636
1.410800771
1.412466972
1.412466972
1.419328456
1.417763326
1.415102574
1.412613544
1.409860547
1.405244464
1.398915741
1.398915741
1.392747617
1.385669416
1.376951225
1.366588703
1.355561682
1.344825403
1.33603826
1.33603826
1.327003927
1.318864979
1.311092853
1.302617345
1.294426222
1.284323388
1.284323388
1.26768102
1.259217773
1.252978701
1.248732711
1.250619246
1.252931754
)
;
    }
    procBoundary16to17
    {
        type            processor;
        value           nonuniform List<scalar> 
32
(
1.416510365
1.417088125
1.416827607
1.416623555
1.417592353
1.419339235
1.420087886
1.418961557
1.416458873
1.413359217
1.413359217
1.408961707
1.403413173
1.396977568
1.389950737
1.383118367
1.376296924
1.368761529
1.358049601
1.345927314
1.333599762
1.320998221
1.30865037
1.298850878
1.298850878
1.28988472
1.281795407
1.275387015
1.272087433
1.268113568
1.265430532
1.262462666
)
;
    }
    procBoundary16to22
    {
        type            processor;
        value           nonuniform List<scalar> 
20
(
1.259469092
1.262827787
1.265108611
1.265724021
1.265294011
1.26323735
1.256086402
1.251308838
1.244794113
1.244433495
1.247380911
1.24828509
1.246567494
1.247214052
1.250371472
1.254674498
1.256386025
1.256831799
1.259469092
1.257939082
)
;
    }
}


// ************************************************************************* //
