/*--------------------------------*- C++ -*----------------------------------*\
  =========                 |
  \\      /  F ield         | OpenFOAM: The Open Source CFD Toolbox
   \\    /   O peration     | Website:  https://openfoam.org
    \\  /    A nd           | Version:  7
     \\/     M anipulation  |
\*---------------------------------------------------------------------------*/
FoamFile
{
    version     2.0;
    format      ascii;
    class       volScalarField;
    location    "5";
    object      T;
}
// * * * * * * * * * * * * * * * * * * * * * * * * * * * * * * * * * * * * * //

dimensions      [0 0 0 1 0 0 0];

internalField   nonuniform List<scalar> 
2222
(
1.403517738
1.394604185
1.385908494
1.377553566
1.369413097
1.361619487
1.353979194
1.346529309
1.339049963
1.331592824
1.323971868
1.316360214
1.30860633
1.300907411
1.293102978
1.285410406
1.277677185
1.270138394
1.262599744
1.255264244
1.247878689
1.240596791
1.233213537
1.225881378
1.218554044
1.211374653
1.204373636
1.197523259
1.190895625
1.184215889
1.178302776
1.168439466
1.403577174
1.394648487
1.385954139
1.377607783
1.369472525
1.361676868
1.354031883
1.346578161
1.339099386
1.331647253
1.324033748
1.316427999
1.308675224
1.300973655
1.2931651
1.285469451
1.277733801
1.270195675
1.262652223
1.255311928
1.247917152
1.240640412
1.233257211
1.225946209
1.218615906
1.211467256
1.20445349
1.197615441
1.190977816
1.184279118
1.178369266
1.168502568
1.403972054
1.39504174
1.386366826
1.378034963
1.369910109
1.362109772
1.354464134
1.347007072
1.339533546
1.332081488
1.324473867
1.316864069
1.30911036
1.30139716
1.293584047
1.285876831
1.278139306
1.27059445
1.263046048
1.255690209
1.248285295
1.241010288
1.233636471
1.226353937
1.219025507
1.211911215
1.204874996
1.198050309
1.191390498
1.184672905
1.178769822
1.168897611
1.405969929
1.397027701
1.388355763
1.380002816
1.371872294
1.364051711
1.356409033
1.348940354
1.341469013
1.333996031
1.326387054
1.318753214
1.310997766
1.303257012
1.295438437
1.287698841
1.279953294
1.272377476
1.264821121
1.257427542
1.250006107
1.242707308
1.235336994
1.22806755
1.22072997
1.213621671
1.206527893
1.199685107
1.192964668
1.186214273
1.180315819
1.170451713
1.403840543
1.394927517
1.386297167
1.377989909
1.369881789
1.362085873
1.354455035
1.347017353
1.3395719
1.332136068
1.324534116
1.316911598
1.309150195
1.301429181
1.293624547
1.28592693
1.27819358
1.270648172
1.263082485
1.255709091
1.248278919
1.241043179
1.233704843
1.226525646
1.219168871
1.21213649
1.20496859
1.198178022
1.1913698
1.184648249
1.178749831
1.168910813
1.403836247
1.394922195
1.386304727
1.378007459
1.369910518
1.362116384
1.354480603
1.347033464
1.339581053
1.33213603
1.324524409
1.316888218
1.309116291
1.301384732
1.293578057
1.285885295
1.278162967
1.270625336
1.263065745
1.255693711
1.248263424
1.241038399
1.233717148
1.226571454
1.219220747
1.212226522
1.205039506
1.198295728
1.191422191
1.184744888
1.178808623
1.168967025
1.40549163
1.39657271
1.387977865
1.379684206
1.37160689
1.363817255
1.356195023
1.348735563
1.341270091
1.333780995
1.326144007
1.31847064
1.310692748
1.302940364
1.295137445
1.28742657
1.279707238
1.272129851
1.26455623
1.257141381
1.249701368
1.242445769
1.235160384
1.228046786
1.220745538
1.213736496
1.206523226
1.199761825
1.192778457
1.18613385
1.18012176
1.170279987
1.403364676
1.394455593
1.385879001
1.377597886
1.369527009
1.361778333
1.354162219
1.346681811
1.339186839
1.331694097
1.324064651
1.316425356
1.308684896
1.300984058
1.293218092
1.285541863
1.277847374
1.270275668
1.262679934
1.255280045
1.24782705
1.240596554
1.23333487
1.226337317
1.219106323
1.212166748
1.204916407
1.198273033
1.19112869
1.184718394
1.178361457
1.168833845
1.403389366
1.394468263
1.385881338
1.37758983
1.369506876
1.361757243
1.35412385
1.34659167
1.339047452
1.331518923
1.323875749
1.316228825
1.308492155
1.300792995
1.293037326
1.285361757
1.277683081
1.270111347
1.262511661
1.25511234
1.247675357
1.240450132
1.233231094
1.226281842
1.219150917
1.212196492
1.204978869
1.198336515
1.191173354
1.184857623
1.178225451
1.169007976
1.405022381
1.396090371
1.387522529
1.379247453
1.371159175
1.36338623
1.355766919
1.348217437
1.34064772
1.333072577
1.32540849
1.317735389
1.310006486
1.302305596
1.294573629
1.286886108
1.279212108
1.271608146
1.263977082
1.256509273
1.249086171
1.241803243
1.234604345
1.22759958
1.220593541
1.213559137
1.206428197
1.199654287
1.192561601
1.186207974
1.179377963
1.170029999
1.402902943
1.393942474
1.38535299
1.377120696
1.369026702
1.361193419
1.353638136
1.346095992
1.338458413
1.330848704
1.323199422
1.315568189
1.307891637
1.300232166
1.292549555
1.284887879
1.277239611
1.269674954
1.262081994
1.254541291
1.24718726
1.239819367
1.232586066
1.225510502
1.21860321
1.21176713
1.204850965
1.198047623
1.19117828
1.184838222
1.177313983
1.170829945
1.402922173
1.394015326
1.385421618
1.377128869
1.368965685
1.361019184
1.353452362
1.345925183
1.338228333
1.330564881
1.322894102
1.315245696
1.30756702
1.29989942
1.292226814
1.284570054
1.276939327
1.26937932
1.261830823
1.254245589
1.246892295
1.239545757
1.232202015
1.224991272
1.218002909
1.21146986
1.20486546
1.197981393
1.191311739
1.18479444
1.177495185
1.173159047
1.404579299
1.395680191
1.38701732
1.37864251
1.370537892
1.362590681
1.354969817
1.347499562
1.339750125
1.332026286
1.324327701
1.316659725
1.309001128
1.301350677
1.293701616
1.28604501
1.278409803
1.270801246
1.263271336
1.255652242
1.248213874
1.240946235
1.232810777
1.224935712
1.217820337
1.211235745
1.205814817
1.19920413
1.192875313
1.186192737
1.177792206
1.180362448
1.402063077
1.393237754
1.384653
1.376342638
1.368309099
1.360370708
1.352423342
1.345095014
1.337420667
1.329678039
1.321975222
1.314297763
1.306676986
1.299101626
1.291554222
1.283974474
1.276439721
1.268830472
1.261359925
1.253850086
1.246157241
1.238827725
1.232080942
1.224941264
1.217994064
1.211334504
1.204834904
1.197384457
1.19130591
1.184132519
1.175433078
1.19451533
1.401574485
1.392665953
1.384010959
1.375735985
1.367744347
1.359894842
1.351863715
1.344285099
1.337017299
1.329304689
1.321562635
1.31383847
1.306209017
1.298664734
1.291158804
1.283596549
1.276084997
1.268473331
1.261002802
1.253566129
1.245958116
1.23820454
1.23235343
1.226069942
1.219525978
1.212463618
1.205041022
1.197105267
1.191086941
1.183596323
1.175073455
1.226510267
1.401669003
1.392803405
1.384155495
1.375994839
1.368059302
1.360153726
1.352131184
1.343885493
1.337310458
1.330531176
1.322953743
1.315186337
1.307519319
1.299987303
1.292513082
1.284980452
1.277485164
1.269889936
1.262385081
1.25495929
1.247347636
1.238687625
1.231289446
1.22417107
1.217597755
1.210444969
1.20403203
1.197380786
1.1910811
1.183585196
1.175633919
1.28999667
1.402551558
1.394258917
1.385790336
1.377744164
1.369802618
1.361750119
1.353688908
1.344975501
1.336154344
1.32813707
1.32044905
1.312630853
1.304968981
1.297499753
1.290144776
1.28260009
1.275134152
1.267579376
1.260147304
1.252623908
1.245405088
1.2383274
1.231186819
1.224088693
1.217529669
1.210436273
1.203692405
1.198394529
1.191851524
1.184842928
1.177508805
1.392677847
1.400577422
1.391744786
1.383269828
1.375080108
1.367198
1.359110521
1.351038534
1.343158059
1.335179405
1.327143689
1.31947255
1.311930349
1.304334896
1.296785932
1.289371188
1.281668321
1.274263949
1.266844445
1.259537087
1.252030455
1.244811532
1.238835123
1.232291931
1.225331958
1.218680806
1.211649484
1.204668241
1.197388961
1.189353755
1.183967498
1.183298814
1.507822657
1.399977504
1.391134258
1.382748171
1.374501064
1.366416148
1.358321717
1.350219746
1.342585333
1.334662369
1.326561949
1.318734212
1.311692591
1.305444369
1.29799737
1.289516346
1.281459409
1.274109779
1.266786295
1.259517203
1.251978545
1.244899675
1.237499333
1.230397801
1.223384709
1.216659553
1.209657124
1.203494566
1.197042329
1.189346962
1.184010817
1.209613145
1.59136609
1.399782973
1.390893927
1.382389524
1.374144357
1.366063695
1.358113497
1.350189539
1.342450313
1.334476253
1.32645331
1.318849454
1.311445845
1.303826709
1.296017734
1.288885295
1.28249922
1.27543879
1.268096666
1.260789768
1.253102791
1.244941117
1.237316631
1.230254765
1.223317116
1.21651346
1.209780528
1.203312025
1.197120346
1.189848009
1.187839482
1.301230768
1.644309191
1.399960937
1.390914404
1.382222332
1.374015064
1.365590765
1.357760605
1.351117432
1.343580262
1.335720372
1.327926602
1.320328879
1.312335392
1.303549369
1.295216273
1.288091095
1.280284358
1.272968302
1.265680263
1.258362577
1.251193239
1.245399602
1.238605737
1.231534866
1.224552974
1.217594038
1.211143238
1.204429504
1.195698538
1.189789762
1.202610179
1.457770175
1.686554855
1.398875607
1.390401237
1.381963034
1.373552219
1.365275702
1.357393181
1.349199326
1.341108932
1.333226423
1.32544576
1.317753732
1.30979438
1.301697195
1.293976426
1.286890951
1.279569272
1.272327365
1.26509433
1.257776755
1.251002941
1.244073568
1.236719008
1.229625864
1.222689123
1.215719329
1.209452844
1.202317146
1.195615365
1.191245516
1.264763795
1.592341067
1.709710842
1.398150109
1.389764332
1.38177127
1.373306122
1.365300714
1.357210963
1.348869807
1.340596647
1.332731349
1.32489231
1.317090119
1.309151399
1.301341672
1.293786599
1.286186051
1.279935267
1.273379184
1.266256631
1.259016458
1.251747417
1.243720622
1.236466726
1.22949839
1.222627538
1.215830243
1.209504243
1.202023636
1.195792708
1.199557508
1.399826066
1.673790134
1.716275454
1.398166178
1.389421835
1.381006039
1.372447173
1.364820964
1.358138313
1.350228093
1.341891228
1.333989307
1.325999782
1.318069565
1.310188052
1.302552797
1.295027616
1.287217967
1.278622651
1.270980528
1.263761997
1.256586919
1.249513153
1.243880841
1.237601271
1.230712496
1.223775946
1.217214823
1.210451609
1.203328605
1.196869131
1.23425627
1.546495124
1.71657611
1.722155766
1.397796399
1.388946388
1.380238054
1.371864906
1.364034094
1.355677553
1.347601582
1.3392782
1.331356456
1.323414194
1.315474198
1.307642398
1.300028787
1.292404095
1.285091185
1.277893226
1.270341644
1.263071345
1.255978311
1.249018055
1.242521929
1.235635398
1.228573881
1.221869511
1.215582503
1.207760705
1.201862613
1.199987307
1.338939775
1.647206903
1.73175515
1.729306779
1.397530497
1.388826785
1.380011529
1.371665419
1.363354435
1.354694868
1.346480547
1.33831019
1.330237948
1.322653386
1.314818732
1.306962976
1.299286637
1.291694117
1.284302311
1.277815943
1.271288476
1.264136002
1.257159361
1.249591654
1.241625568
1.235114027
1.228250434
1.22185601
1.215436467
1.207582991
1.201871155
1.215836531
1.502012598
1.706142635
1.737976606
1.732618482
1.396503803
1.387892731
1.379417463
1.370952502
1.362593616
1.354276709
1.345956968
1.33791607
1.329598883
1.322257048
1.315667196
1.308066403
1.300381435
1.292801745
1.285302534
1.277001796
1.26896439
1.261545129
1.254475479
1.248041732
1.241026328
1.234981015
1.229092512
1.223085725
1.216198796
1.208972248
1.204220835
1.279655321
1.637545689
1.72709255
1.741487374
1.735598654
1.395739377
1.386959056
1.378897139
1.370714673
1.362191314
1.353592286
1.34506957
1.337009587
1.329307734
1.3212981
1.313244331
1.305403083
1.297682427
1.290039586
1.282674523
1.275867972
1.268213473
1.260892713
1.253818217
1.247300205
1.241569135
1.234395734
1.227305864
1.221087408
1.21352268
1.207917165
1.211445212
1.421930771
1.71907913
1.736157103
1.743043747
1.738499099
1.395764667
1.386838672
1.378005346
1.369541371
1.36110906
1.352636053
1.344529978
1.336371655
1.328375622
1.32017688
1.31201546
1.30441328
1.296892928
1.289381645
1.281832372
1.275024997
1.268873398
1.261928052
1.254876097
1.247144851
1.239807837
1.233454805
1.227215763
1.220649513
1.213683886
1.208343873
1.252304051
1.57660053
1.752888025
1.751133541
1.747189083
1.741034865
1.394785877
1.386201721
1.377369921
1.36869893
1.360401962
1.35211878
1.343914656
1.335474039
1.327454855
1.319418904
1.311255842
1.303856222
1.2975846
1.290477381
1.282691561
1.274742024
1.266870366
1.259497218
1.252476969
1.246450698
1.239342118
1.232849515
1.228041607
1.221315608
1.213948842
1.214916911
1.374454483
1.672029637
1.759955071
1.758142313
1.751821819
1.743663501
1.393776395
1.385521324
1.377332073
1.368580084
1.359813684
1.35118889
1.342939024
1.334851351
1.32690525
1.318640451
1.310498192
1.303001426
1.295502615
1.288149665
1.280517932
1.273249115
1.26614879
1.259060575
1.251993901
1.246062777
1.239501003
1.232742755
1.226298587
1.218534305
1.214209773
1.242915415
1.540904398
1.730338863
1.765016236
1.762450289
1.756445284
1.7469656
1.393565483
1.384598581
1.37580539
1.367283373
1.3587432
1.350447961
1.342303958
1.334066023
1.32581866
1.31793781
1.310213141
1.302545623
1.294874566
1.287445018
1.280005736
1.272287563
1.266246467
1.260088171
1.253155166
1.245673814
1.23872235
1.23262216
1.225686411
1.218934867
1.216306337
1.352283306
1.657879163
1.75024077
1.765636103
1.764962965
1.760150222
1.750996754
1.392612946
1.383798638
1.374870943
1.366282267
1.358040379
1.349710212
1.341297183
1.333086438
1.324903059
1.317534952
1.311153308
1.303687936
1.296006176
1.288473924
1.281079069
1.272817875
1.264729295
1.257719148
1.251176515
1.244309348
1.238184806
1.233243539
1.226328829
1.219230829
1.230854448
1.528997962
1.73438777
1.757397937
1.76310025
1.762397247
1.760677921
1.754589726
1.391256196
1.383081655
1.374651102
1.365853351
1.357221754
1.348600467
1.34035417
1.332396284
1.32425576
1.316591274
1.308909915
1.301077787
1.29336161
1.285664598
1.27819135
1.271265918
1.263945836
1.257068253
1.250646727
1.243761361
1.237949538
1.230922555
1.223759415
1.219687541
1.297218236
1.659528481
1.775329623
1.768498469
1.762970025
1.761379898
1.760369358
1.756467696
1.390668171
1.381846641
1.373279869
1.364628637
1.356112363
1.347829874
1.339627534
1.331489658
1.323463723
1.315592223
1.307778673
1.300041615
1.292333395
1.284594262
1.276825035
1.270457442
1.264521828
1.257973305
1.251531662
1.244513469
1.237772652
1.229972114
1.223594526
1.225782097
1.454235477
1.728009345
1.787464724
1.780463661
1.770967522
1.763890235
1.760252417
1.757220348
1.389534288
1.380513319
1.371930405
1.363811172
1.355520553
1.347097121
1.338658859
1.330387983
1.322766703
1.314953441
1.306872597
1.299239825
1.291939951
1.2841866
1.276422344
1.269353731
1.262417285
1.255654286
1.248855983
1.242436078
1.23743914
1.230655284
1.224067871
1.257900601
1.629062689
1.757005873
1.782547151
1.785187875
1.77830452
1.769240868
1.762685283
1.757624411
1.388238509
1.379870581
1.371277593
1.362719377
1.354220237
1.3458745
1.33790916
1.329867081
1.321879221
1.313839696
1.306007666
1.298262991
1.290020888
1.282639408
1.275900631
1.268833003
1.261947827
1.255156861
1.248278013
1.242199114
1.235326752
1.228496544
1.227590161
1.368693991
1.735127042
1.781567213
1.788833143
1.786464612
1.7831417
1.775339106
1.767284617
1.759668011
1.387474144
1.37871955
1.369875168
1.361209395
1.35323871
1.345247999
1.33710891
1.328997886
1.320782392
1.312824972
1.305076896
1.297282571
1.289264894
1.281709793
1.275744187
1.269576742
1.262982656
1.256168258
1.249372953
1.242933491
1.234192943
1.228784029
1.248687627
1.53801165
1.788015052
1.802340895
1.795039705
1.789258782
1.786929136
1.779890554
1.771901631
1.762264577
1.386153894
1.377236158
1.368878208
1.360534432
1.352136902
1.343876915
1.335707213
1.32806293
1.3202611
1.312128774
1.304040367
1.296139958
1.288859978
1.281755663
1.274214133
1.267091926
1.260388638
1.253387757
1.247520608
1.240603289
1.233767863
1.230742621
1.34553609
1.666045515
1.801828789
1.804675622
1.799237885
1.792810406
1.789861498
1.783763931
1.776216132
1.764863416
1.385398373
1.376609552
1.367912694
1.359276301
1.350620483
1.342613074
1.334979969
1.327097465
1.319126268
1.311065561
1.303052177
1.295372835
1.287834259
1.280622281
1.273254711
1.266219958
1.259270599
1.252383893
1.246796261
1.239274044
1.23360054
1.24230328
1.52126233
1.754779955
1.806752823
1.803889663
1.797598426
1.794090008
1.792063743
1.787372769
1.780840345
1.767945396
1.384225899
1.375281885
1.366355259
1.358051369
1.349990112
1.341725712
1.333618082
1.325596315
1.317719273
1.310260392
1.302554046
1.294669003
1.287069144
1.279444547
1.272558399
1.266152583
1.258761603
1.252072281
1.245949811
1.238355933
1.233764084
1.303757201
1.666967176
1.795811546
1.814116043
1.80784811
1.79663466
1.793297917
1.792805178
1.790145474
1.784606795
1.771718241
1.382635784
1.374209839
1.365662678
1.357099151
1.348801288
1.340415711
1.332150229
1.324505624
1.316885888
1.309111116
1.301353598
1.293550316
1.286263426
1.278790789
1.271476991
1.264470456
1.257542607
1.251688229
1.244598465
1.237691995
1.238623293
1.460633365
1.74411613
1.804746626
1.817342779
1.813403956
1.803460461
1.795925196
1.793939153
1.791996181
1.787197397
1.77550148
1.381825568
1.37309851
1.364447771
1.355655105
1.347281885
1.339496052
1.331617856
1.323489188
1.315465782
1.307613637
1.300060324
1.292963204
1.285697685
1.27806891
1.270814794
1.263220082
1.256778196
1.25144772
1.243504162
1.238079858
1.264453668
1.641335377
1.811084255
1.812750778
1.816808358
1.815381156
1.808615953
1.802513126
1.796778768
1.793465106
1.789016509
1.779134047
1.380391619
1.371427841
1.363100565
1.354918162
1.346452977
1.338230912
1.330371698
1.322257392
1.314111054
1.306542045
1.299219622
1.29172496
1.28410629
1.276937285
1.270587654
1.262634559
1.256687474
1.249996144
1.242727419
1.239730705
1.376443084
1.745045484
1.833337855
1.82402634
1.818514551
1.814529194
1.810255902
1.804938777
1.800215982
1.794946614
1.790103956
1.782345136
1.379287672
1.37070831
1.362018019
1.353659161
1.345336281
1.33692306
1.328935335
1.3213655
1.313689902
1.305708904
1.297887848
1.29030343
1.283022473
1.276262164
1.269050088
1.262278466
1.256173103
1.248250681
1.242717584
1.258451431
1.564806041
1.808112419
1.842889151
1.834616938
1.824533385
1.816288037
1.810565631
1.807584232
1.802316907
1.797134098
1.791883721
1.784978181
1.377868599
1.369336453
1.36059787
1.352077234
1.344267725
1.336430297
1.328175268
1.320036932
1.312342778
1.304551356
1.296762674
1.28924858
1.282061927
1.275037888
1.267386687
1.262576744
1.256283129
1.248164458
1.243525826
1.350415843
1.707753399
1.824838674
1.841784232
1.838486426
1.829859263
1.821676592
1.813914011
1.809588536
1.80470912
1.799306994
1.794390662
1.787333716
1.37608617
1.36772227
1.359725943
1.351410546
1.342930534
1.334880841
1.327006256
1.318951342
1.310973491
1.303515663
1.296238779
1.288488621
1.281094575
1.274031058
1.266905199
1.260964349
1.253137686
1.246976778
1.254719245
1.533434262
1.794389909
1.834506046
1.837048336
1.836522247
1.833876489
1.826280024
1.818862747
1.812371399
1.80748851
1.801898278
1.796475784
1.789313243
1.375353613
1.36658229
1.358100121
1.349962607
1.341697017
1.333436356
1.325741179
1.318356572
1.310506513
1.302612241
1.294912206
1.287440625
1.280287803
1.272797293
1.266173957
1.259566009
1.251188942
1.246950592
1.318610253
1.690880862
1.836203731
1.84459714
1.837125016
1.836281313
1.836227794
1.830902378
1.822689272
1.816021242
1.810312847
1.80503688
1.799356841
1.791471709
1.373793583
1.365199909
1.356550192
1.34834725
1.340701551
1.332910199
1.324859594
1.316881321
1.309202092
1.301590744
1.293624457
1.286283082
1.279273131
1.271851538
1.265786152
1.258129938
1.25058927
1.25108122
1.492659933
1.777884072
1.849707593
1.8481672
1.843897301
1.839659238
1.837650933
1.833893704
1.825616171
1.819475095
1.81361032
1.808359054
1.802661737
1.793589807
1.371905643
1.363864282
1.355792554
1.347512398
1.339180097
1.331238738
1.323472896
1.31552302
1.307799147
1.30065807
1.293084392
1.285895269
1.278238638
1.271244148
1.264964856
1.256582278
1.250861497
1.277819568
1.693140013
1.824571868
1.847209838
1.851893037
1.845712313
1.842637996
1.840104362
1.835463584
1.828718189
1.822061925
1.817244454
1.811640485
1.806250682
1.79637715
1.370993595
1.362292434
1.353971984
1.345942699
1.337794186
1.329694796
1.321962096
1.314633803
1.307269685
1.299478748
1.291905316
1.284896973
1.276961009
1.270342832
1.263748326
1.256166673
1.251803098
1.397122174
1.803688788
1.852920738
1.853464147
1.853358282
1.848462957
1.842980186
1.839974157
1.836865331
1.831080862
1.825129729
1.820054921
1.81485831
1.809805968
1.799468192
1.369365657
1.360839241
1.352389454
1.344208019
1.336455337
1.328942333
1.321149946
1.313314904
1.305710783
1.297939421
1.29061883
1.283657617
1.276266611
1.270307825
1.262054583
1.255842479
1.269673627
1.598868785
1.86076764
1.872252106
1.863814956
1.857955662
1.850690761
1.84432211
1.839992835
1.837407721
1.833220739
1.828129332
1.82292081
1.817755067
1.813048416
1.802597969
1.367464064
1.359483824
1.351509573
1.343438832
1.33525757
1.327379377
1.319599266
1.311923588
1.30411242
1.29668575
1.29008534
1.282428674
1.275817297
1.269002128
1.260583127
1.256050158
1.366241195
1.74663049
1.872741747
1.874148626
1.868784926
1.863545649
1.855806409
1.847039265
1.841360007
1.838016383
1.8356482
1.830998053
1.825939898
1.82013077
1.816037512
1.805640191
1.366327053
1.357835666
1.349685751
1.341747306
1.333823545
1.325813097
1.317944709
1.310741988
1.303389811
1.296128836
1.28885273
1.280903238
1.275048661
1.267059841
1.260037961
1.267893741
1.562570629
1.833382809
1.88041392
1.874376469
1.870660902
1.866700691
1.861434424
1.853128374
1.845265835
1.840423495
1.836632004
1.833091798
1.828396769
1.822643704
1.818597121
1.808636425
1.364767973
1.356403108
1.348092355
1.339901516
1.33223739
1.324773302
1.317306997
1.309627021
1.301948743
1.294971581
1.287312448
1.279912728
1.274013615
1.26592595
1.260550089
1.341676001
1.726085676
1.866839822
1.88915959
1.879426164
1.871896017
1.868729625
1.865590878
1.859256241
1.850999067
1.844188304
1.83908255
1.834898484
1.830636794
1.825131229
1.82095177
1.811539708
1.363000572
1.35504197
1.34706577
1.33914993
1.331185485
1.323203782
1.315799789
1.308081264
1.300605826
1.293551187
1.286169508
1.28015924
1.272805219
1.264558814
1.265153426
1.535487017
1.817054605
1.876318618
1.889677219
1.885285804
1.876200184
1.872108134
1.868486559
1.863151529
1.856173916
1.848839168
1.842434754
1.836983193
1.832461629
1.827333199
1.823102027
1.814325065
1.361726216
1.353470645
1.345415922
1.337602044
1.329673435
1.321711751
1.314068282
1.306513046
1.299962056
1.292674943
1.28521666
1.279237733
1.27074398
1.264569977
1.300197649
1.735418081
1.877336874
1.883476089
1.887083869
1.883510459
1.880606236
1.875603674
1.871515228
1.865579251
1.860020621
1.853434132
1.846520343
1.840099547
1.834901901
1.829840483
1.825244451
1.817039441
1.360126117
1.35189522
1.343716307
1.335692733
1.327939498
1.320664199
1.313307306
1.305599596
1.298680461
1.290957734
1.284411888
1.277726791
1.269779794
1.265716732
1.448567663
1.84079609
1.902989854
1.893751275
1.886001826
1.883374674
1.880006737
1.878081892
1.87373074
1.868334054
1.862799059
1.857411338
1.85084427
1.844022072
1.837944944
1.832523155
1.827580185
1.819701246
1.35853199
1.350666065
1.342839283
1.334951146
1.327007852
1.319425363
1.311690902
1.304451352
1.296963779
1.289377009
1.283915891
1.276119384
1.26956687
1.288383441
1.670486324
1.896053787
1.912763912
1.903211005
1.891930653
1.885242729
1.880982869
1.878143638
1.875052765
1.870564903
1.865583589
1.860772965
1.855028112
1.84813371
1.841581573
1.83621553
1.830919312
1.822486108
1.357072155
1.349054728
1.341251249
1.333334009
1.325491087
1.317634108
1.309765242
1.303171491
1.295820077
1.289407843
1.282755581
1.274280076
1.269879126
1.40883368
1.815061564
1.9073335
1.912205008
1.90633308
1.899417437
1.890668809
1.883661724
1.879301976
1.87623464
1.872519562
1.868313148
1.86386304
1.858716376
1.85221022
1.845505379
1.838890066
1.833289532
1.824964766
1.35510997
1.34696628
1.339090221
1.331474945
1.324259346
1.316664694
1.309222066
1.302162388
1.294319993
1.288369222
1.280323188
1.27336955
1.285364482
1.623761079
1.88908922
1.916672998
1.913470878
1.909015494
1.903995341
1.897082494
1.888440274
1.882181703
1.878080783
1.874932005
1.870954047
1.866766929
1.861742914
1.855883037
1.849053905
1.842144612
1.836174717
1.827550456
1.353786974
1.346020948
1.338227931
1.330492505
1.322815408
1.31502179
1.307905286
1.300102199
1.292908565
1.28688004
1.279438593
1.273605217
1.38770616
1.776529966
1.915428578
1.926587831
1.917896967
1.911417076
1.907071761
1.902111503
1.894246141
1.886803961
1.881232378
1.877155809
1.873755554
1.869376703
1.864316906
1.858747703
1.852023994
1.845149002
1.839005939
1.830552879
1.352203601
1.34425906
1.336225693
1.328411552
1.320532911
1.313135393
1.306690966
1.298890402
1.292978221
1.285486649
1.277661851
1.280307461
1.608734146
1.866718799
1.921561304
1.925371436
1.923024416
1.915914567
1.910731098
1.905723057
1.899174614
1.891780853
1.885180629
1.879704863
1.875258523
1.871007678
1.866343768
1.860950062
1.854740707
1.848135253
1.841976141
1.833088091
1.349915817
1.342087182
1.334554735
1.327246759
1.319619139
1.312605271
1.305251547
1.297815082
1.291637899
1.282694213
1.277346823
1.337104114
1.792650747
1.9180008
1.925066737
1.923669743
1.921189415
1.918495888
1.914363567
1.908916517
1.903242294
1.896325499
1.889307263
1.882956301
1.877648637
1.873224464
1.868283808
1.86306385
1.857320356
1.85110267
1.845125922
1.836159627
1.349037949
1.341160251
1.333349748
1.325494895
1.317855563
1.310675815
1.302836943
1.296632672
1.290395796
1.281981161
1.279694002
1.527491638
1.888377168
1.942700814
1.932076377
1.925023809
1.921178005
1.919771305
1.916593347
1.912044251
1.906587209
1.900653571
1.893714602
1.886904459
1.880664673
1.875594989
1.870458354
1.865306589
1.86001397
1.854119068
1.848628555
1.839346716
1.347063241
1.33887083
1.331101803
1.323441887
1.316603358
1.309609726
1.302059233
1.296270364
1.287802765
1.281981717
1.315235908
1.753946138
1.926948866
1.948318181
1.941002189
1.931267699
1.923512236
1.919297654
1.917586529
1.91429602
1.909998175
1.904337958
1.898208518
1.891188241
1.884410985
1.878971717
1.874084412
1.868300182
1.862953262
1.857182391
1.852189499
1.842652092
1.344911571
1.337534164
1.330285884
1.322534218
1.315330341
1.307480696
1.300608698
1.294119282
1.2858266
1.282171766
1.479408973
1.880294471
1.943849562
1.947877044
1.944238904
1.938015456
1.928766256
1.921654101
1.918856381
1.916859021
1.913179239
1.908042387
1.902260226
1.895653539
1.888776105
1.882211511
1.876725634
1.871187231
1.865899271
1.860367952
1.855668272
1.846171605
1.343899234
1.335983814
1.327990872
1.320282995
1.313207857
1.305658105
1.300044492
1.292476607
1.285190504
1.308536595
1.711655152
1.941208099
1.956845756
1.951607424
1.94717007
1.941997994
1.934908653
1.926669504
1.921218435
1.918192646
1.915413025
1.911308285
1.905886462
1.899750926
1.892820798
1.885789942
1.88028123
1.875358233
1.869790608
1.8637853
1.858996593
1.849967865
1.341443298
1.333801882
1.32632178
1.319535281
1.312101256
1.305026294
1.298288894
1.289795939
1.28526553
1.458662038
1.84456432
1.960767261
1.965075508
1.957231715
1.95064697
1.945939689
1.939871374
1.932413813
1.925678175
1.921028313
1.918545898
1.914549676
1.908994794
1.902968991
1.896295296
1.889408973
1.883115868
1.87735745
1.872279583
1.866888082
1.862312691
1.853792826
1.340360542
1.332888956
1.324879677
1.317648438
1.309441825
1.303523746
1.296017158
1.288564396
1.29688936
1.705310199
1.929833191
1.966250991
1.964702034
1.961179965
)
;

boundaryField
{
    inlet
    {
        type            fixedValue;
        value           nonuniform 0();
    }
    outlet
    {
        type            inletOutlet;
        inletValue      uniform 1;
        value           nonuniform List<scalar> 
69
(
1.168429964
1.168492945
1.168887866
1.170442186
1.168901541
1.168957685
1.170270879
1.16882462
1.168998978
1.170023134
1.17081953
1.173136277
1.180328314
1.194448404
1.22637933
1.289748619
1.392314541
1.507484319
1.591154242
1.6441607
1.686469058
1.709693364
1.716226453
1.722167161
1.729287074
1.732590766
1.735554744
1.738458957
1.740999349
1.743613568
1.746933295
1.750979629
1.754615105
1.756500952
1.757232359
1.757675825
1.759696724
1.762243874
1.76482552
1.7678919
1.77165582
1.775446935
1.779088063
1.782320865
1.784973947
1.787337271
1.789321218
1.791472094
1.793587034
1.796366802
1.799449601
1.802572449
1.80560747
1.808599831
1.811510247
1.814302763
1.817026216
1.819697612
1.822480208
1.824962346
1.827539306
1.83054201
1.833078776
1.836158042
1.839332913
1.842632416
1.846147192
1.849943729
1.853770387
)
;
    }
    bottom
    {
        type            slip;
    }
    top
    {
        type            slip;
    }
    obstacle
    {
        type            zeroGradient;
    }
    defaultFaces
    {
        type            empty;
    }
    procBoundary5to4
    {
        type            processor;
        value           nonuniform List<scalar> 
69
(
1.412751403
1.412838527
1.413256496
1.415276058
1.413176901
1.413195769
1.414877697
1.412749729
1.412754899
1.414374737
1.412162382
1.412071126
1.413633449
1.411128698
1.410707955
1.410559468
1.41010103
1.409789716
1.409375602
1.408960972
1.408789801
1.407884195
1.40730273
1.407280807
1.406656984
1.405934071
1.405550838
1.404939518
1.404236109
1.403465221
1.40270146
1.401973891
1.401264708
1.40012724
1.399296219
1.3983509
1.396960815
1.396443675
1.39532274
1.394000634
1.393094561
1.39153439
1.39071825
1.389410394
1.387666132
1.386595201
1.38512733
1.383973437
1.382312427
1.380488409
1.379650393
1.377849541
1.375758551
1.37491096
1.373193139
1.37108717
1.370121563
1.368355891
1.366342878
1.365223803
1.363357281
1.361600898
1.360315139
1.358093171
1.356610272
1.355172126
1.352737486
1.351807605
1.349704944
)
;
    }
    procBoundary5to10
    {
        type            processor;
        value           uniform 1.347637667;
    }
    procBoundary5to11
    {
        type            processor;
        value           nonuniform List<scalar> 
33
(
1.954927797
1.94945942
1.944407506
1.93752222
1.930560489
1.924547558
1.919675904
1.915969375
1.911213328
1.905523986
1.899353823
1.892736684
1.886286652
1.880340052
1.875428412
1.87050476
1.865911607
1.85764716
1.338598833
1.330379193
1.322936553
1.31614915
1.308472522
1.30284924
1.294234204
1.288606631
1.394422581
1.859648632
1.96937942
1.968834632
1.964443413
1.954927797
1.962341428
)
;
    }
}

