/*--------------------------------*- C++ -*----------------------------------*\
  =========                 |
  \\      /  F ield         | OpenFOAM: The Open Source CFD Toolbox
   \\    /   O peration     | Website:  https://openfoam.org
    \\  /    A nd           | Version:  7
     \\/     M anipulation  |
\*---------------------------------------------------------------------------*/
FoamFile
{
    version     2.0;
    format      ascii;
    class       volVectorField;
    location    "4.1";
    object      U;
}
// * * * * * * * * * * * * * * * * * * * * * * * * * * * * * * * * * * * * * //

dimensions      [0 1 -1 0 0 0 0];

internalField   nonuniform List<vector> 
80000
(
(3 3.083294518e-16 0)
(3 -1.730747842e-16 0)
(3 -6.297395504e-16 0)
(3 -4.920740659e-16 0)
(3 -2.969003353e-16 0)
(3 -1.881834882e-15 0)
(3 -3.285130512e-15 0)
(3 -3.992076924e-15 0)
(3 -3.450742378e-15 0)
(3 -1.67517805e-15 0)
(3 -1.597261741e-15 0)
(3 2.462714345e-15 0)
(3 2.742427831e-15 0)
(3 1.589638576e-15 0)
(3 2.114314638e-15 0)
(3 1.863080606e-15 0)
(3 2.043555874e-15 0)
(3 2.766773371e-15 0)
(3 1.620104895e-15 0)
(3 1.346789523e-15 0)
(3 -3.142037593e-16 0)
(3 -1.967039836e-16 0)
(3 1.069508775e-15 0)
(3 2.910542269e-16 0)
(3 -7.715212758e-16 0)
(3 -1.477683991e-15 0)
(3 -8.176953211e-16 0)
(3 -1.457547353e-15 0)
(3 -3.13814349e-15 0)
(3 -3.52521648e-15 0)
(3 -3.858085038e-15 0)
(3 -3.534970977e-15 0)
(3 -2.602282107e-15 0)
(3 -1.63702709e-15 0)
(3 -1.587341246e-15 0)
(3 -1.865012561e-15 0)
(3 -9.896899639e-16 0)
(3 -2.421580869e-16 0)
(3 7.444125057e-16 0)
(3 -3.291523382e-16 0)
(3 -5.421662682e-17 0)
(3 -1.284927491e-15 0)
(3 -2.869064972e-15 0)
(3 -2.408487195e-15 0)
(3 -1.664603472e-15 0)
(3 -6.299247964e-16 0)
(3 3.188511977e-16 0)
(3 9.755789073e-16 0)
(3 1.891153252e-15 0)
(3 3.642235228e-15 0)
(3 3.576855344e-15 0)
(3 2.094911801e-15 0)
(3 -6.399788414e-16 0)
(3 -2.690213691e-16 0)
(3 -3.91588123e-16 0)
(3 -1.488589818e-15 0)
(3 -2.153020804e-15 0)
(3 -1.429116962e-15 0)
(3 -1.519376293e-15 0)
(3 -1.841445104e-15 0)
(3 -8.215357258e-16 0)
(3 -1.293552677e-16 0)
(3 -1.028166862e-15 0)
(3 -2.058881236e-15 0)
(3 -1.972926269e-15 0)
(3 -2.435865452e-15 0)
(3 -3.182203035e-15 0)
(3 -2.720312934e-15 0)
(3 -1.212882395e-15 0)
(3 -8.660044664e-16 0)
(3 -5.364204891e-17 0)
(3 9.691379078e-16 0)
(3 1.17891194e-15 0)
(3 -1.170852592e-15 0)
(3 -2.225153072e-15 0)
(3 -1.754359547e-15 0)
(3 -4.780463362e-16 0)
(3 3.772965431e-16 0)
(3 1.03111655e-16 0)
(3 2.921184972e-16 0)
(3 1.974846229e-16 0)
(3 1.664841576e-16 0)
(3 2.342685752e-15 0)
(3 2.396211423e-15 0)
(3 1.031336742e-15 0)
(3 3.606465426e-16 0)
(3 -1.108620469e-16 0)
(3 -2.382017879e-16 0)
(3 -1.927604916e-16 0)
(3 1.423129209e-16 0)
(3 -1.564282464e-16 0)
(3 2.579546205e-16 0)
(3 9.763553538e-16 0)
(3 1.559227431e-15 0)
(3 1.744593881e-15 0)
(3 1.581168626e-15 0)
(3 1.083032169e-15 0)
(3 7.509780229e-16 0)
(3 7.374727071e-16 0)
(3 -8.771974567e-16 0)
(3 -4.023288032e-17 0)
(3 -7.81155615e-16 0)
(3 2.212933078e-17 0)
(3 2.334036335e-17 0)
(3 -5.04524228e-17 0)
(3 -1.011682937e-15 0)
(3 -2.995875194e-15 0)
(3 -3.898515781e-15 0)
(3 -2.908319602e-15 0)
(3 1.0096546e-15 0)
(3 1.790787047e-15 0)
(3 2.810328429e-15 0)
(3 3.865318186e-15 0)
(3 3.208016194e-15 0)
(3 3.538022587e-15 0)
(3 1.328295188e-15 0)
(3 1.157094704e-15 0)
(3 1.334329456e-15 0)
(3 7.504686905e-16 0)
(3 6.367419409e-16 0)
(3 -6.087796307e-16 0)
(3 -5.759273087e-17 0)
(3 1.837046342e-15 0)
(3 1.404333126e-15 0)
(3 -1.907968729e-16 0)
(3 -1.295522815e-15 0)
(3 -1.181684866e-15 0)
(3 -1.336395929e-15 0)
(3 -2.029218022e-15 0)
(3 -2.649683758e-15 0)
(3 -2.051210602e-15 0)
(3 -2.65959107e-15 0)
(3 -2.660157287e-15 0)
(3 -2.001495072e-15 0)
(3 -1.87452506e-15 0)
(3 -2.371271332e-15 0)
(3 -1.460783394e-17 0)
(3 -1.421348217e-15 0)
(3 -4.623593377e-16 0)
(3 -8.964707084e-16 0)
(3 -2.017149756e-15 0)
(3 -2.23687335e-15 0)
(3 -7.105272177e-16 0)
(3 -6.930520337e-16 0)
(3 -1.330861941e-15 0)
(3 1.726035078e-15 0)
(3 4.42073888e-15 0)
(3 5.035124026e-15 0)
(3 5.585793138e-15 0)
(3 4.244512093e-15 0)
(3 2.296150097e-15 0)
(3 -4.909671232e-16 0)
(3 -1.920302802e-15 0)
(3 -1.56584377e-15 0)
(3 -1.283154339e-15 0)
(3 -1.925592549e-15 0)
(3 -1.957949717e-15 0)
(3 -6.423364299e-16 0)
(3 -1.052094396e-15 0)
(3 -1.47317941e-16 0)
(3 2.437409688e-15 0)
(3 2.964162494e-15 0)
(3 1.464853729e-15 0)
(3 3.15478919e-16 0)
(3 -5.770960893e-16 0)
(3 -8.235191155e-16 0)
(3 -1.806226425e-15 0)
(3 -1.297460947e-15 0)
(3 1.138314025e-16 0)
(3 -1.885049108e-15 0)
(3 -2.012029726e-15 0)
(3 -3.066621274e-16 0)
(3 -2.899520575e-16 0)
(3 -4.72543668e-16 0)
(3 -1.388502306e-15 0)
(3 -5.534956094e-16 0)
(3 9.266241518e-16 0)
(3 1.921731272e-16 0)
(3 1.513102205e-15 0)
(3 2.083397645e-15 0)
(3 2.756217181e-15 0)
(3 2.833269894e-15 0)
(3 4.885260086e-15 0)
(3 3.720737639e-15 0)
(3 1.480720673e-15 0)
(3 2.208680425e-15 0)
(3 1.407555126e-15 0)
(3 1.488419743e-16 0)
(3 -1.735589497e-15 0)
(3 -5.149065174e-16 0)
(3 1.571507549e-15 0)
(3 3.814743004e-15 0)
(3 4.704530512e-15 0)
(3 5.461219839e-15 0)
(3 6.094697038e-15 0)
(3 5.73692097e-15 0)
(3 4.129495377e-15 0)
(3 3.663792473e-15 0)
(3 1.180358201e-15 0)
(3 -1.455306172e-15 0)
(3 -3.619623515e-16 0)
(3 7.418164345e-16 0)
(3 1.096039032e-15 0)
(3 -5.185912067e-16 0)
(3 -1.142482737e-15 0)
(3 -1.184200639e-15 0)
(3 -1.009397017e-15 0)
(3 -1.123972355e-15 0)
(3 -7.858339639e-16 0)
(3 1.30663516e-15 0)
(3 2.588362373e-15 0)
(3 1.514574482e-15 0)
(3 -7.151317938e-16 0)
(3 7.614938033e-16 0)
(3 3.116509293e-16 0)
(3 -6.968303508e-16 0)
(3 -1.549882279e-15 0)
(3 -1.892535744e-15 0)
(3 1.547514747e-17 0)
(3 -2.452806644e-17 0)
(3 7.253547178e-16 0)
(3 1.646501862e-15 0)
(3 1.175530479e-15 0)
(3 -6.261629668e-16 0)
(3 -2.246530432e-15 0)
(3 -2.241145401e-15 0)
(3 -2.24651439e-15 0)
(3 2.135698596e-16 0)
(3 1.879604234e-16 0)
(3 -3.102823294e-16 0)
(3 -2.90004248e-16 0)
(3 -1.42128558e-15 0)
(3 -1.601718615e-15 0)
(3 -2.975850064e-15 0)
(3 -3.785445336e-15 0)
(3 -1.061566476e-15 0)
(3 -9.396449941e-16 0)
(3 -8.03826204e-16 0)
(3 3.186619538e-16 0)
(3 1.126593353e-15 0)
(3 8.475738896e-16 0)
(3 7.158707082e-16 0)
(3 5.186649551e-16 0)
(3 -3.18859478e-16 0)
(3 -7.157366521e-16 0)
(3 5.414797711e-16 0)
(3 2.006920134e-15 0)
(3 2.263340594e-15 0)
(3 3.731951688e-15 0)
(3 2.959812316e-15 0)
(3 -5.07797541e-16 0)
(3 -2.823305346e-15 0)
(3 -2.476864989e-15 0)
(3 -3.125749118e-15 0)
(3 -2.210113883e-15 0)
(3 -3.023008532e-16 0)
(3 2.043966866e-15 0)
(3 -1.634872547e-16 0)
(3 -1.387839363e-15 0)
(3 -6.928647255e-16 0)
(3 -6.876270207e-17 0)
(3 2.802977754e-16 0)
(3 -3.008695318e-16 0)
(3 3.698811107e-16 0)
(3 1.969910472e-15 0)
(3 3.941353807e-15 0)
(3 4.843479413e-15 0)
(3 3.148838912e-15 0)
(3 1.996051614e-15 0)
(3 8.164327323e-16 0)
(3 9.413895268e-16 0)
(3 4.291536572e-16 0)
(3 -3.934768479e-17 0)
(3 6.287194387e-16 0)
(3 1.939953183e-15 0)
(3 3.641026976e-15 0)
(3 4.495355643e-15 0)
(3 1.845367886e-15 0)
(3 -1.775958284e-16 0)
(3 4.04803539e-17 0)
(3 1.146427533e-15 0)
(3 3.25593493e-15 0)
(3 6.551842786e-15 0)
(3 9.849581151e-15 0)
(3 1.020500285e-14 0)
(3 5.626163163e-15 0)
(3 3.805537803e-15 0)
(3 2.715013657e-15 0)
(3 2.177732971e-15 0)
(3 2.71038769e-15 0)
(3 3.534893727e-15 0)
(3 6.215292888e-15 0)
(3 6.989510467e-15 0)
(3 7.640689613e-15 0)
(3 8.089765918e-15 0)
(3 7.506098672e-15 0)
(3 6.285437557e-15 0)
(3 3.392667481e-15 0)
(3 3.031034241e-16 0)
(3 -3.676214918e-15 0)
(3 -6.351739025e-16 0)
(3 -5.612170726e-16 0)
(3 -1.755016593e-15 0)
(3 -3.675861315e-15 0)
(3 -4.327357459e-15 0)
(3 -2.79482164e-15 0)
(3 -8.018874508e-16 0)
(3 -9.155492431e-16 0)
(3 -8.829452292e-16 0)
(3 -4.568095663e-16 0)
(3 5.461923785e-16 0)
(3 -1.289801422e-15 0)
(3 -2.632999254e-15 0)
(3 -2.150885306e-15 0)
(3 -1.610293559e-15 0)
(3 -2.828420793e-16 0)
(3 2.925608751e-16 0)
(3 3.232058209e-16 0)
(3 4.921972653e-16 0)
(3 9.198715781e-16 0)
(3 2.39400304e-15 0)
(3 1.154649751e-15 0)
(3 -8.475010566e-18 0)
(3 -1.061027723e-15 0)
(3 -1.055229293e-15 0)
(3 -1.266167129e-15 0)
(3 -3.551101739e-15 0)
(3 -2.329974033e-15 0)
(3 -2.951173632e-15 0)
(3 -2.28886534e-15 0)
(3 -3.065406873e-15 0)
(3 -3.24207031e-15 0)
(3 -2.675537437e-15 0)
(3 -2.851675573e-15 0)
(3 -2.87431499e-15 0)
(3 -2.44798223e-15 0)
(3 -3.554548239e-15 0)
(3 -2.363883639e-15 0)
(3 -1.510354145e-15 0)
(3 -1.253942804e-15 0)
(3 -1.252083899e-15 0)
(3 -1.978343442e-16 0)
(3 -1.053787651e-15 0)
(3 -1.595873518e-15 0)
(3 -9.954685768e-16 0)
(3 -7.095307824e-16 0)
(3 -1.381007343e-15 0)
(3 -8.97902164e-16 0)
(3 1.450943931e-15 0)
(3 2.489883541e-15 0)
(3 6.501527217e-16 0)
(3 -5.461659164e-16 0)
(3 -3.258774474e-15 0)
(3 -3.842225493e-15 0)
(3 -2.966174348e-15 0)
(3 -2.268710351e-15 0)
(3 -1.641811797e-15 0)
(3 -3.418928866e-15 0)
(3 -3.424078491e-15 0)
(3 -2.726132916e-15 0)
(3 -2.456457162e-15 0)
(3 -2.181527838e-15 0)
(3 -1.938013687e-15 0)
(3 -1.012787363e-15 0)
(3 7.817095547e-16 0)
(3 4.342621516e-15 0)
(3 4.767725696e-15 0)
(3 3.499936268e-15 0)
(3 2.918512844e-15 0)
(3 2.494848028e-15 0)
(3 1.353218717e-15 0)
(3 1.126697157e-15 0)
(3 3.83463843e-16 0)
(3 2.374239429e-16 0)
(3 1.89005994e-15 0)
(3 4.752812383e-15 0)
(3 5.82327184e-15 0)
(3 4.280629552e-15 0)
(3 1.761514433e-15 0)
(3 1.173038793e-15 0)
(3 1.531770804e-15 0)
(3 2.487301917e-15 0)
(3 4.921708928e-15 0)
(3 6.387647326e-15 0)
(3 7.328769694e-15 0)
(3 3.828118489e-15 0)
(3 1.845401063e-15 0)
(3 5.407047104e-15 0)
(3 7.643003674e-15 0)
(3 5.643040743e-15 0)
(3 4.09317334e-15 0)
(3 4.511670806e-15 0)
(3 5.673299118e-15 0)
(3 5.298104423e-15 0)
(3 4.478124816e-15 0)
(3 5.764965758e-15 0)
(3 6.437151479e-15 0)
(3 4.63603352e-15 0)
(3 1.160250574e-15 0)
(3 -3.874523891e-15 0)
(3 -3.303684286e-16 0)
(3 -1.185569911e-15 0)
(3 -1.530840594e-15 0)
(3 -5.397806381e-16 0)
(3 -1.055185386e-15 0)
(3 -3.407674403e-16 0)
(3 -9.482871861e-16 0)
(3 -1.328484262e-16 0)
(3 4.039969978e-16 0)
(3 3.339759359e-16 0)
(3 -1.755157472e-15 0)
(3 -2.45155502e-15 0)
(3 -2.012050249e-15 0)
(3 -2.450710685e-15 0)
(3 -1.818085534e-15 0)
(3 -1.327240611e-15 0)
(3 -1.024429931e-15 0)
(3 -6.128384756e-16 0)
(3 -2.111818541e-15 0)
(3 -1.332694229e-15 0)
(3 -1.890136878e-16 0)
(3 -8.114898076e-16 0)
(3 -5.753030062e-16 0)
(3 9.744305056e-16 0)
(3 6.289770097e-16 0)
(3 -3.849886521e-16 0)
(3 -1.428738906e-15 0)
(3 -2.995619237e-15 0)
(3 -3.020804514e-15 0)
(3 -2.884112681e-15 0)
(3 -2.282753377e-15 0)
(3 -1.785781957e-15 0)
(3 -2.361515112e-15 0)
(3 -1.431160159e-15 0)
(3 -1.262791845e-15 0)
(3 -3.027596317e-15 0)
(3 -2.66667903e-15 0)
(3 -2.00604278e-15 0)
(3 -2.885507415e-15 0)
(3 -2.998688284e-15 0)
(3 -9.862126811e-16 0)
(3 7.360110324e-16 0)
(3 2.62117184e-16 0)
(3 -2.494213912e-16 0)
(3 -1.179684839e-15 0)
(3 -1.587400758e-15 0)
(3 -1.795279185e-15 0)
(3 -1.16330822e-16 0)
(3 1.127231629e-15 0)
(3 8.289362462e-16 0)
(3 6.056439028e-16 0)
(3 2.18665294e-16 0)
(3 -1.273143812e-15 0)
(3 -9.49252995e-16 0)
(3 -5.919880522e-16 0)
(3 -8.615413571e-16 0)
(3 -1.901328258e-15 0)
(3 -1.345288788e-15 0)
(3 -2.37749174e-15 0)
(3 -2.209710955e-15 0)
(3 -7.924240907e-16 0)
(3 -1.53900961e-15 0)
(3 -5.775996174e-16 0)
(3 -5.939034446e-16 0)
(3 -4.709891734e-16 0)
(3 -2.111562428e-16 0)
(3 -1.993821147e-16 0)
(3 2.091567738e-15 0)
(3 3.87827593e-15 0)
(3 3.435501562e-15 0)
(3 2.068926777e-15 0)
(3 5.057969254e-16 0)
(3 1.362105963e-15 0)
(3 2.66940301e-15 0)
(3 3.571417804e-15 0)
(3 3.600419346e-15 0)
(3 2.186059572e-15 0)
(3 1.34094937e-15 0)
(3 1.767728649e-15 0)
(3 2.532248773e-15 0)
(3 4.257544326e-15 0)
(3 3.364759848e-15 0)
(3 3.473430385e-15 0)
(3 4.030680149e-15 0)
(3 4.971604739e-15 0)
(3 4.787267872e-15 0)
(3 3.473718119e-15 0)
(3 4.478865862e-15 0)
(3 3.79543177e-15 0)
(3 3.567357772e-15 0)
(3 1.289289173e-15 0)
(3 9.340003825e-16 0)
(3 1.733717241e-15 0)
(3 1.477750523e-15 0)
(3 2.144108606e-15 0)
(3 2.408093613e-15 0)
(3 5.03748781e-15 0)
(3 6.704133607e-15 0)
(3 3.321329442e-15 0)
(3 1.326998242e-15 0)
(3 4.164258245e-16 0)
(3 7.364414214e-16 0)
(3 1.082077811e-15 0)
(3 2.620331382e-15 0)
(3 1.875583993e-15 0)
(3 5.75705317e-16 0)
(3 -4.338520534e-16 0)
(3 2.50016166e-16 0)
(3 -5.508915978e-17 0)
(3 -2.501670386e-15 0)
(3 -5.595132229e-15 0)
(3 -4.269342907e-15 0)
(3 -3.206610578e-15 0)
(3 -3.782278664e-15 0)
(3 -3.979732978e-15 0)
(3 -4.093103868e-15 0)
(3 -3.344507044e-15 0)
(3 -5.801297273e-16 0)
(3 -1.962554331e-15 0)
(3 -3.036278414e-15 0)
(3 -2.701550732e-15 0)
(3 -2.605459389e-15 0)
(3 -2.255054866e-15 0)
(3 -2.011264911e-16 0)
(3 -1.263286935e-15 0)
(3 2.64175614e-16 0)
(3 -4.690478781e-16 0)
(3 -1.699880767e-15 0)
(3 -3.536952065e-16 0)
(3 -1.199275789e-15 0)
(3 -1.645018875e-15 0)
(3 -7.690044072e-16 0)
(3 -7.685112629e-16 0)
(3 -8.973728268e-16 0)
(3 -1.182168018e-15 0)
(3 -9.601700834e-16 0)
(3 5.81070404e-17 0)
(3 -3.769728091e-16 0)
(3 -2.520792408e-15 0)
(3 -1.792165674e-15 0)
(3 -9.484272555e-16 0)
(3 -9.078084238e-16 0)
(3 -1.633369892e-15 0)
(3 -9.723078121e-16 0)
(3 -1.77026309e-15 0)
(3 -2.84286216e-15 0)
(3 -1.160369352e-15 0)
(3 4.064206088e-16 0)
(3 9.785037798e-16 0)
(3 8.754796105e-16 0)
(3 -7.011559738e-16 0)
(3 -1.800145424e-15 0)
(3 -1.647180826e-16 0)
(3 9.336832308e-16 0)
(3 3.390999117e-16 0)
(3 2.814169051e-18 0)
(3 1.860034222e-16 0)
(3 1.289030578e-15 0)
(3 -4.432891698e-16 0)
(3 -1.246905279e-15 0)
(3 -1.930964727e-15 0)
(3 -1.333461968e-15 0)
(3 2.656711069e-16 0)
(3 6.14469587e-16 0)
(3 1.680783676e-15 0)
(3 1.648479019e-15 0)
(3 1.822231142e-15 0)
(3 2.463692721e-15 0)
(3 2.287816577e-15 0)
(3 3.041907696e-15 0)
(3 3.087016492e-15 0)
(3 3.113435667e-15 0)
(3 3.869604615e-15 0)
(3 5.133875062e-15 0)
(3 5.058936753e-15 0)
(3 2.446565327e-15 0)
(3 2.076854947e-16 0)
(3 -1.905513387e-16 0)
(3 9.547529079e-17 0)
(3 3.698704085e-15 0)
(3 5.151507016e-15 0)
(3 5.644318303e-15 0)
(3 5.044826546e-15 0)
(3 4.196291234e-15 0)
(3 5.380191482e-15 0)
(3 6.487089996e-15 0)
(3 5.104687679e-15 0)
(3 4.016552553e-15 0)
(3 5.207112927e-15 0)
(3 4.786932614e-15 0)
(3 3.480956854e-15 0)
(3 2.426734903e-15 0)
(3 3.381840691e-15 0)
(3 5.676130778e-15 0)
(3 6.029226616e-15 0)
(3 4.187417416e-15 0)
(3 3.73614661e-15 0)
(3 5.378850802e-15 0)
(3 4.244678923e-15 0)
(3 2.620690404e-15 0)
(3 7.868162935e-16 0)
(3 9.912173462e-17 0)
(3 2.453644476e-15 0)
(3 4.234055311e-15 0)
(3 5.679351943e-15 0)
(3 4.468938192e-15 0)
(3 3.335023168e-15 0)
(3 1.650839985e-15 0)
(3 5.206648828e-16 0)
(3 -9.682589581e-16 0)
(3 -1.396973378e-15 0)
(3 -6.269844768e-16 0)
(3 -7.647470642e-16 0)
(3 -5.564558204e-16 0)
(3 -8.303137615e-16 0)
(3 -1.120473085e-15 0)
(3 -5.453734336e-16 0)
(3 3.292278785e-16 0)
(3 7.153571856e-16 0)
(3 1.048555523e-15 0)
(3 -3.691584239e-16 0)
(3 -1.559826513e-15 0)
(3 -1.421934866e-15 0)
(3 -1.911505446e-15 0)
(3 -3.377144678e-15 0)
(3 -1.303579616e-15 0)
(3 -1.92012108e-15 0)
(3 -2.206412689e-15 0)
(3 -1.769125096e-15 0)
(3 -3.89879221e-16 0)
(3 -9.516413092e-16 0)
(3 -1.249087659e-15 0)
(3 -1.1735326e-15 0)
(3 -3.19384445e-15 0)
(3 -2.933460554e-15 0)
(3 -1.953644207e-15 0)
(3 -1.437119493e-15 0)
(3 -2.89411637e-15 0)
(3 -2.412852783e-15 0)
(3 -1.499879204e-15 0)
(3 -2.711985589e-15 0)
(3 -3.384816757e-15 0)
(3 -1.964754735e-15 0)
(3 -1.187542958e-15 0)
(3 -1.549811311e-15 0)
(3 -1.89714164e-16 0)
(3 1.512425624e-15 0)
(3 1.955171617e-15 0)
(3 1.12047376e-15 0)
(3 7.187290302e-16 0)
(3 7.870528306e-17 0)
(3 1.000751032e-16 0)
(3 1.302763445e-15 0)
(3 2.849556951e-16 0)
(3 -1.563522585e-15 0)
(3 -2.568019487e-15 0)
(3 -1.786675216e-15 0)
(3 3.535462455e-16 0)
(3 -7.940273863e-16 0)
(3 -3.725230429e-15 0)
(3 -4.452816907e-15 0)
(3 -1.597169853e-15 0)
(3 3.75017237e-16 0)
(3 1.415558269e-16 0)
(3 1.618444669e-15 0)
(3 3.525359659e-15 0)
(3 4.38051317e-15 0)
(3 3.443062667e-15 0)
(3 2.413715341e-15 0)
(3 3.270789244e-15 0)
(3 2.539828928e-15 0)
(3 4.089547774e-15 0)
(3 4.105431946e-15 0)
(3 5.271281827e-15 0)
(3 3.8569236e-15 0)
(3 2.800731075e-15 0)
(3 1.435097055e-15 0)
(3 9.818651211e-16 0)
(3 1.75128152e-15 0)
(3 4.690804497e-15 0)
(3 6.020502907e-15 0)
(3 7.153632891e-15 0)
(3 6.776420245e-15 0)
(3 5.619721566e-15 0)
(3 5.44728825e-15 0)
(3 6.31027242e-15 0)
(3 6.718651023e-15 0)
(3 5.563215223e-15 0)
(3 5.954039317e-15 0)
(3 6.885543946e-15 0)
(3 6.993782966e-15 0)
(3 5.088761534e-15 0)
(3 4.126424122e-15 0)
(3 3.312370251e-15 0)
(3 2.399555265e-15 0)
(3 2.112542156e-15 0)
(3 1.521364262e-15 0)
(3 2.273751764e-15 0)
(3 2.969947985e-16 0)
(3 -8.879794969e-16 0)
(3 3.013072955e-16 0)
(3 9.81857047e-16 0)
(3 2.834469741e-15 0)
(3 3.308146094e-15 0)
(3 3.611232827e-15 0)
(3 4.323657777e-15 0)
(3 3.531293352e-15 0)
(3 3.991932837e-15 0)
(3 4.334848895e-15 0)
(3 4.354693191e-15 0)
(3 4.619025282e-15 0)
(3 2.769955246e-15 0)
(3 1.525179177e-15 0)
(3 2.248418633e-15 0)
(3 3.240047981e-15 0)
(3 3.579361549e-15 0)
(3 3.167323963e-15 0)
(3 2.304885784e-15 0)
(3 3.857158954e-15 0)
(3 4.678063657e-15 0)
(3 3.532337016e-15 0)
(3 3.259862379e-15 0)
(3 3.210661811e-15 0)
(3 2.156418722e-15 0)
(3 -1.133520888e-15 0)
(3 -2.829778494e-15 0)
(3 -3.162740542e-15 0)
(3 -1.158109864e-15 0)
(3 -8.23451883e-16 0)
(3 1.410964304e-15 0)
(3 1.718659376e-15 0)
(3 1.270132547e-15 0)
(3 -1.499468028e-16 0)
(3 -1.362640876e-15 0)
(3 4.517081394e-16 0)
(3 1.682033136e-15 0)
(3 6.297134936e-18 0)
(3 -9.766085926e-16 0)
(3 -1.141613392e-15 0)
(3 -2.426448067e-15 0)
(3 -2.513656119e-15 0)
(3 -1.191441194e-15 0)
(3 -4.357580713e-16 0)
(3 -2.410352426e-16 0)
(3 -6.000595809e-16 0)
(3 1.905550946e-15 0)
(3 3.215218367e-15 0)
(3 2.044718042e-15 0)
(3 1.218952487e-15 0)
(3 7.047865886e-16 0)
(3 9.228127896e-16 0)
(3 9.346857268e-16 0)
(3 7.137631108e-16 0)
(3 4.120362303e-16 0)
(3 -3.92813486e-16 0)
(3 -6.743197121e-16 0)
(3 -6.528360365e-16 0)
(3 5.25121696e-16 0)
(3 -6.078192346e-16 0)
(3 -1.852471877e-15 0)
(3 -2.375476078e-15 0)
(3 -1.177169588e-15 0)
(3 -4.387588746e-16 0)
(3 7.085106259e-16 0)
(3 -3.441773269e-16 0)
(3 -4.760494991e-16 0)
(3 4.267681984e-16 0)
(3 6.830521015e-16 0)
(3 1.046838638e-15 0)
(3 3.454700406e-15 0)
(3 4.918513467e-15 0)
(3 6.735177958e-15 0)
(3 5.881678182e-15 0)
(3 3.88045417e-15 0)
(3 3.042651025e-15 0)
(3 1.793410445e-15 0)
(3 9.416280203e-16 0)
(3 2.839736588e-15 0)
(3 2.473871602e-15 0)
(3 4.38419631e-15 0)
(3 3.979422e-15 0)
(3 6.439571438e-15 0)
(3 6.938842542e-15 0)
(3 7.82183996e-15 0)
(3 6.204769658e-15 0)
(3 5.004614799e-15 0)
(3 5.693331998e-15 0)
(3 5.304223018e-15 0)
(3 5.418894199e-15 0)
(3 6.585595088e-15 0)
(3 7.592833292e-15 0)
(3 6.553337607e-15 0)
(3 5.447348868e-15 0)
(3 3.59831792e-15 0)
(3 2.624040979e-15 0)
(3 2.317648868e-15 0)
(3 2.341462448e-15 0)
(3 2.089849405e-15 0)
(3 1.166887528e-15 0)
(3 5.178205391e-16 0)
(3 1.650946038e-16 0)
(3 9.628285593e-16 0)
(3 1.777177859e-15 0)
(3 8.83529755e-16 0)
(3 -8.988655681e-18 0)
(3 -2.689690647e-16 0)
(3 1.463915732e-15 0)
(3 2.375732307e-15 0)
(3 2.531882605e-15 0)
(3 2.092194032e-15 0)
(3 2.272199075e-15 0)
(3 1.751988656e-15 0)
(3 2.11584203e-15 0)
(3 2.542382786e-15 0)
(3 3.523951478e-15 0)
(3 3.566342151e-15 0)
(3 4.108398985e-15 0)
(3 4.638620382e-15 0)
(3 3.894319217e-15 0)
(3 3.606349745e-15 0)
(3 4.127212216e-15 0)
(3 5.344833222e-15 0)
(3 3.872438181e-15 0)
(3 2.536847486e-15 0)
(3 2.079959607e-15 0)
(3 -6.309655207e-16 0)
(3 -1.412478938e-15 0)
(3 -1.338321379e-15 0)
(3 -5.679510655e-16 0)
(3 -4.067766261e-16 0)
(3 -8.521167178e-16 0)
(3 9.04043713e-16 0)
(3 9.6750514e-16 0)
(3 1.234302601e-15 0)
(3 3.184057358e-15 0)
(3 3.275752469e-15 0)
(3 2.383441343e-15 0)
(3 1.304703646e-15 0)
(3 1.165187242e-15 0)
(3 -4.232558535e-16 0)
(3 -1.423981727e-15 0)
(3 -8.906949446e-16 0)
(3 -5.841552295e-16 0)
(3 7.782411188e-16 0)
(3 8.699453207e-16 0)
(3 4.212024939e-16 0)
(3 4.557169483e-16 0)
(3 1.045693512e-15 0)
(3 1.696872216e-15 0)
(3 1.407004075e-15 0)
(3 3.73226543e-16 0)
(3 -7.228379761e-16 0)
(3 -2.052646661e-15 0)
(3 -2.382849024e-15 0)
(3 -2.734304478e-15 0)
(3 -2.294354076e-15 0)
(3 -1.330103089e-15 0)
(3 -1.886676981e-15 0)
(3 -1.074749069e-15 0)
(3 -7.00060165e-16 0)
(3 -4.650567913e-16 0)
(3 3.661154897e-17 0)
(3 -2.083567395e-15 0)
(3 -8.590037337e-16 0)
(3 -9.034175286e-16 0)
(3 -1.057580652e-16 0)
(3 2.837458662e-16 0)
(3 2.391718381e-15 0)
(3 3.529868175e-15 0)
(3 5.101422907e-15 0)
(3 6.112162101e-15 0)
(3 6.816454232e-15 0)
(3 4.684406407e-15 0)
(3 3.433393284e-15 0)
(3 2.094282995e-15 0)
(3 1.870230002e-15 0)
(3 2.636557764e-15 0)
(3 5.472728089e-15 0)
(3 6.288084069e-15 0)
(3 6.807421972e-15 0)
(3 6.244397318e-15 0)
(3 6.272285653e-15 0)
(3 7.498819122e-15 0)
(3 6.00855168e-15 0)
(3 5.729423093e-15 0)
(3 4.992066401e-15 0)
(3 4.110771976e-15 0)
(3 5.378315993e-15 0)
(3 6.201648138e-15 0)
(3 5.427090122e-15 0)
(3 4.361892173e-15 0)
(3 3.744724965e-15 0)
(3 4.558966153e-15 0)
(3 3.585347636e-15 0)
(3 2.570726236e-15 0)
(3 2.453427733e-15 0)
(3 2.506939211e-15 0)
(3 9.553540346e-16 0)
(3 1.78310498e-15 0)
(3 1.362307635e-15 0)
(3 -1.177472054e-16 0)
(3 4.454452305e-16 0)
(3 1.333307467e-15 0)
(3 2.930519756e-16 0)
(3 6.302828201e-16 0)
(3 1.120390321e-15 0)
(3 2.065967771e-15 0)
(3 4.24052061e-16 0)
(3 -1.034679118e-15 0)
(3 -7.806512094e-16 0)
(3 1.164560069e-15 0)
(3 3.804623033e-15 0)
(3 3.911362659e-15 0)
(3 3.002735838e-15 0)
(3 1.988224023e-15 0)
(3 2.019225441e-15 0)
(3 2.797711053e-15 0)
(3 3.830967024e-15 0)
(3 3.085837235e-15 0)
(3 2.84968961e-15 0)
(3 2.716821671e-15 0)
(3 2.11288507e-15 0)
(3 -2.939246674e-16 0)
(3 -1.67090269e-15 0)
(3 -1.354142861e-15 0)
(3 -2.613876342e-16 0)
(3 4.44479276e-16 0)
(3 1.291695343e-15 0)
(3 1.074242798e-15 0)
(3 -1.366656278e-16 0)
(3 7.824146594e-17 0)
(3 8.620395694e-16 0)
(3 1.522941138e-15 0)
(3 4.079160596e-17 0)
(3 3.421355356e-16 0)
(3 3.149216692e-16 0)
(3 1.063027812e-15 0)
(3 1.001529517e-15 0)
(3 1.791412855e-16 0)
(3 -7.736506609e-16 0)
(3 -7.751033272e-16 0)
(3 -1.135105494e-15 0)
(3 -4.158487499e-17 0)
(3 2.177325464e-15 0)
(3 1.541088324e-15 0)
(3 1.208242449e-15 0)
(3 1.841358372e-15 0)
(3 1.18421052e-15 0)
(3 1.086462174e-15 0)
(3 -6.748614526e-17 0)
(3 -1.077704782e-15 0)
(3 -1.445735447e-15 0)
(3 -2.018837235e-15 0)
(3 -5.5682212e-15 0)
(3 -5.270494287e-15 0)
(3 -5.808813444e-15 0)
(3 -5.885359382e-15 0)
(3 -8.05425388e-15 0)
(3 -4.667945129e-15 0)
(3 -2.59564607e-15 0)
(3 -1.316765829e-16 0)
(3 -1.430770677e-15 0)
(3 6.241007814e-16 0)
(3 4.266354492e-16 0)
(3 2.082152671e-15 0)
(3 2.285721479e-15 0)
(3 3.362797661e-15 0)
(3 4.524631214e-15 0)
(3 4.677775568e-15 0)
(3 4.262977854e-15 0)
(3 3.920395996e-15 0)
(3 3.683526508e-15 0)
(3 1.991784744e-15 0)
(3 2.561427222e-15 0)
(3 2.905536002e-15 0)
(3 2.811805626e-15 0)
(3 6.157191601e-15 0)
(3 6.576849347e-15 0)
(3 7.790292637e-15 0)
(3 6.858164746e-15 0)
(3 7.681365621e-15 0)
(3 7.139667135e-15 0)
(3 7.028550619e-15 0)
(3 4.570034876e-15 0)
(3 6.03186016e-15 0)
(3 7.30746134e-15 0)
(3 6.393787858e-15 0)
(3 7.871205908e-15 0)
(3 7.305010817e-15 0)
(3 6.153852942e-15 0)
(3 5.563249573e-15 0)
(3 5.111399996e-15 0)
(3 4.560540473e-15 0)
(3 4.134186209e-15 0)
(3 3.495959279e-15 0)
(3 2.168544543e-15 0)
(3 1.904344218e-15 0)
(3 1.940848121e-15 0)
(3 -5.644907329e-17 0)
(3 -6.569123293e-16 0)
(3 -4.071068759e-16 0)
(3 -1.310737465e-15 0)
(3 -6.547785242e-16 0)
(3 -1.465362209e-15 0)
(3 -1.321395223e-15 0)
(3 -3.530832257e-16 0)
(3 -8.076256469e-16 0)
(3 -2.127865444e-15 0)
(3 -2.2062998e-15 0)
(3 -1.794500906e-15 0)
(3 -5.272168774e-16 0)
(3 5.622257653e-16 0)
(3 8.740588792e-16 0)
(3 5.238151862e-16 0)
(3 6.023144864e-16 0)
(3 1.664233343e-15 0)
(3 1.964920567e-15 0)
(3 8.010434205e-16 0)
(3 1.443614968e-15 0)
(3 1.451201978e-15 0)
(3 6.505836193e-16 0)
(3 2.193174549e-17 0)
(3 -2.331309617e-16 0)
(3 -1.016443628e-16 0)
(3 -1.804629206e-15 0)
(3 -1.376839086e-15 0)
(3 3.900455303e-17 0)
(3 1.048219794e-15 0)
(3 2.934307006e-16 0)
(3 1.53671257e-16 0)
(3 1.486191052e-15 0)
(3 1.735694139e-15 0)
(3 2.475805683e-15 0)
(3 1.676775849e-15 0)
(3 1.318409451e-15 0)
(3 1.110285321e-15 0)
(3 -8.897305246e-17 0)
(3 8.085685503e-16 0)
(3 -8.179560395e-16 0)
(3 -8.285098796e-16 0)
(3 3.656170956e-16 0)
(3 5.196078988e-16 0)
(3 1.230845186e-15 0)
(3 3.638476185e-16 0)
(3 1.963631414e-15 0)
(3 3.18237889e-15 0)
(3 2.068029016e-15 0)
(3 1.163730058e-15 0)
(3 1.578214829e-16 0)
(3 -8.483840836e-16 0)
(3 -1.697663674e-15 0)
(3 -3.059479181e-15 0)
(3 -1.8935065e-15 0)
(3 -1.959046396e-15 0)
(3 -2.142655799e-15 0)
(3 -3.224095653e-15 0)
(3 -5.788807101e-15 0)
(3 -8.197067106e-15 0)
(3 -6.346791479e-15 0)
(3 -2.864652946e-15 0)
(3 -1.700951376e-15 0)
(3 -1.646604648e-15 0)
(3 -8.505312604e-16 0)
(3 1.643086426e-16 0)
(3 1.553896086e-15 0)
(3 8.234119627e-16 0)
(3 1.928313745e-16 0)
(3 4.310165103e-16 0)
(3 5.061566349e-16 0)
(3 1.16488769e-15 0)
(3 6.564118589e-16 0)
(3 2.954884987e-16 0)
(3 2.170433506e-15 0)
(3 3.511614676e-15 0)
(3 3.813394532e-15 0)
(3 3.742365634e-15 0)
(3 4.81685787e-15 0)
(3 7.865420174e-15 0)
(3 9.538168189e-15 0)
(3 8.948761063e-15 0)
(3 6.923631595e-15 0)
(3 5.039789244e-15 0)
(3 4.884478305e-15 0)
(3 5.658385481e-15 0)
(3 6.663802218e-15 0)
(3 7.302340577e-15 0)
(3 7.98952965e-15 0)
(3 7.347700192e-15 0)
(3 5.775975356e-15 0)
(3 6.382999097e-15 0)
(3 7.830924431e-15 0)
(3 8.274688551e-15 0)
(3 6.639274441e-15 0)
(3 7.222495534e-15 0)
(3 5.101031179e-15 0)
(3 3.305410541e-15 0)
(3 2.473536885e-15 0)
(3 2.268644327e-15 0)
(3 1.66934847e-15 0)
(3 1.54889079e-15 0)
(3 2.609153002e-16 0)
(3 -7.953128944e-16 0)
(3 -2.725700347e-15 0)
(3 -3.217731327e-15 0)
(3 -4.298092332e-15 0)
(3 -4.635127212e-15 0)
(3 -3.737254815e-15 0)
(3 -1.630637588e-15 0)
(3 -9.426159767e-16 0)
(3 -6.757702157e-16 0)
(3 -6.427115373e-16 0)
(3 -4.537527528e-16 0)
(3 1.562825012e-17 0)
(3 2.329873182e-16 0)
(3 1.586397289e-15 0)
(3 2.063376382e-15 0)
(3 1.45121508e-15 0)
(3 1.243632013e-15 0)
(3 9.72181204e-16 0)
(3 9.846146691e-16 0)
(3 -1.236513047e-17 0)
(3 -8.414140446e-16 0)
(3 -1.202567222e-15 0)
(3 -9.342795431e-16 0)
(3 -2.671962068e-16 0)
(3 5.842276891e-16 0)
(3 1.200943946e-15 0)
(3 1.488046485e-15 0)
(3 2.648500849e-15 0)
(3 2.597448777e-15 0)
(3 3.818765803e-15 0)
(3 3.077134845e-15 0)
(3 2.808421124e-15 0)
(3 3.732701978e-15 0)
(3 2.674945895e-15 0)
(3 7.77839423e-16 0)
(3 3.455892417e-16 0)
(3 1.909228473e-15 0)
(3 2.701913746e-15 0)
(3 3.52427662e-15 0)
(3 1.922381309e-15 0)
(3 1.379661441e-15 0)
(3 -5.02342014e-16 0)
(3 -6.448409474e-16 0)
(3 1.095099777e-15 0)
(3 1.400200199e-15 0)
(3 1.023359131e-15 0)
(3 1.062880282e-15 0)
(3 -1.792084601e-15 0)
(3 -2.621138772e-15 0)
(3 -2.955242248e-15 0)
(3 -3.113984147e-15 0)
(3 -3.443350574e-15 0)
(3 -1.883798196e-15 0)
(3 -1.635960258e-15 0)
(3 -1.798414275e-15 0)
(3 -2.316213917e-15 0)
(3 -4.217078813e-15 0)
(3 -4.570092191e-15 0)
(3 -4.296829117e-15 0)
(3 -3.719364e-15 0)
(3 -2.741351083e-15 0)
(3 -3.445051909e-15 0)
(3 -3.284208189e-15 0)
(3 -3.477987991e-15 0)
(3 -1.653786392e-15 0)
(3 -1.643146096e-15 0)
(3 -1.619396824e-15 0)
(3 -1.893195017e-15 0)
(3 -7.488394e-16 0)
(3 6.998173064e-16 0)
(3 4.26872721e-15 0)
(3 5.55642198e-15 0)
(3 6.422520728e-15 0)
(3 5.69755617e-15 0)
(3 8.447232497e-15 0)
(3 9.230451237e-15 0)
(3 1.192488232e-14 0)
(3 1.03299665e-14 0)
(3 8.890676475e-15 0)
(3 5.994879686e-15 0)
(3 3.06635888e-15 0)
(3 2.694804514e-15 0)
(3 6.594621091e-15 0)
(3 6.1174946e-15 0)
(3 6.419766642e-15 0)
(3 6.313359828e-15 0)
(3 4.549602531e-15 0)
(3 5.073784244e-15 0)
(3 4.597328049e-15 0)
(3 5.587500491e-15 0)
(3 6.588083157e-15 0)
(3 5.082101628e-15 0)
(3 4.102676862e-15 0)
(3 3.706456329e-15 0)
(3 4.419375328e-15 0)
(3 3.823726948e-15 0)
(3 2.341290936e-15 0)
(3 2.754146243e-15 0)
(3 3.521027543e-15 0)
(3 2.350755019e-16 0)
(3 -1.522463395e-16 0)
(3 -2.070817041e-15 0)
(3 -2.384548331e-15 0)
(3 -2.192063003e-15 0)
(3 -1.790707941e-15 0)
(3 -2.153940203e-15 0)
(3 -4.286815465e-16 0)
(3 2.418562427e-16 0)
(3 6.890479604e-16 0)
(3 -5.641082442e-16 0)
(3 -1.228908852e-15 0)
(3 -1.12715169e-15 0)
(3 -1.3136456e-15 0)
(3 -5.67573631e-16 0)
(3 -4.483550025e-16 0)
(3 6.482138816e-16 0)
(3 -1.562223118e-16 0)
(3 -1.454577904e-15 0)
(3 -2.9679004e-15 0)
(3 -5.176014472e-15 0)
(3 -5.343422738e-15 0)
(3 -3.682912268e-15 0)
(3 -2.608275334e-15 0)
(3 -4.19798633e-16 0)
(3 -3.141525909e-16 0)
(3 -1.170116134e-15 0)
(3 -2.3606522e-16 0)
(3 8.062974704e-16 0)
(3 1.068102864e-15 0)
(3 2.044222328e-15 0)
(3 2.107267254e-15 0)
(3 1.472779169e-15 0)
(3 2.614803212e-15 0)
(3 1.258870911e-15 0)
(3 4.183296492e-16 0)
(3 2.310373791e-15 0)
(3 2.533661319e-15 0)
(3 3.20748799e-15 0)
(3 2.726952766e-15 0)
(3 1.468961823e-16 0)
(3 3.947374178e-16 0)
(3 -6.177472471e-16 0)
(3 -6.476614565e-16 0)
(3 -9.495592697e-16 0)
(3 -4.639934281e-16 0)
(3 5.376627757e-16 0)
(3 -9.671831925e-16 0)
(3 -3.14626667e-15 0)
(3 -5.255972095e-15 0)
(3 -4.425404592e-15 0)
(3 -2.614047117e-15 0)
(3 -2.523360234e-15 0)
(3 -2.175713524e-15 0)
(3 -2.487337353e-15 0)
(3 1.30089174e-16 0)
(3 -4.547891461e-16 0)
(3 -1.440647597e-15 0)
(3 -2.535510875e-15 0)
(3 -2.514279314e-15 0)
(3 -9.886315997e-16 0)
(3 -5.233673315e-16 0)
(3 -6.097973453e-16 0)
(3 -1.269364611e-15 0)
(3 -1.891359262e-15 0)
(3 -6.557114073e-16 0)
(3 4.338257161e-16 0)
(3 7.555219257e-17 0)
(3 4.873563424e-16 0)
(3 1.099020911e-15 0)
(3 3.657038283e-15 0)
(3 4.230123546e-15 0)
(3 4.513111516e-15 0)
(3 5.462318562e-15 0)
(3 8.036628558e-15 0)
(3 1.195064278e-14 0)
(3 1.244931772e-14 0)
(3 1.146533635e-14 0)
(3 8.378913779e-15 0)
(3 6.510305975e-15 0)
(3 6.135835624e-15 0)
(3 4.476534724e-15 0)
(3 2.26155853e-15 0)
(3 3.396891296e-15 0)
(3 5.008703246e-15 0)
(3 5.13961311e-15 0)
(3 4.59740313e-15 0)
(3 3.428472042e-15 0)
(3 1.327502018e-15 0)
(3 1.316666426e-15 0)
(3 3.038473627e-15 0)
(3 3.180741627e-15 0)
(3 4.509634762e-15 0)
(3 3.63895381e-15 0)
(3 3.446885382e-15 0)
(3 3.704657713e-15 0)
(3 3.593593713e-15 0)
(3 3.489745341e-15 0)
(3 4.072097901e-15 0)
(3 4.606317028e-15 0)
(3 3.906167944e-17 0)
(3 -5.275489968e-17 0)
(3 2.477772655e-16 0)
(3 4.450248836e-17 0)
(3 -4.168287328e-16 0)
(3 7.432904089e-17 0)
(3 -6.401058338e-16 0)
(3 -1.214751121e-15 0)
(3 -9.869590928e-16 0)
(3 -2.085145582e-15 0)
(3 -3.096700678e-15 0)
(3 -4.235136015e-15 0)
(3 -4.11492566e-15 0)
(3 -2.709258102e-15 0)