/*--------------------------------*- C++ -*----------------------------------*\
  =========                 |
  \\      /  F ield         | OpenFOAM: The Open Source CFD Toolbox
   \\    /   O peration     | Website:  https://openfoam.org
    \\  /    A nd           | Version:  7
     \\/     M anipulation  |
\*---------------------------------------------------------------------------*/
FoamFile
{
    version     2.0;
    format      ascii;
    class       volScalarField;
    location    "1";
    object      p;
}
// * * * * * * * * * * * * * * * * * * * * * * * * * * * * * * * * * * * * * //

dimensions      [1 -1 -2 0 0 0 0];

internalField   nonuniform List<scalar> 
2222
(
1.644303595
1.554791481
1.46544796
1.396072602
1.323186986
1.262847574
1.235133952
1.187332812
1.132863466
1.112268229
1.291430481
2.333889633
3.010852554
2.987838317
2.943671033
2.895213972
2.844040171
5.853411742
5.846242111
5.794922428
5.642191092
5.366859394
4.984406727
4.594560233
4.221687039
3.828017436
3.493901972
3.228759152
2.966841216
2.693879987
2.499191226
2.34123362
2.185578853
2.028129487
1.921716909
1.830395918
1.727599594
1.611687243
1.521840628
1.43647633
1.358887726
1.291251124
1.224608645
1.195828777
1.159594089
1.10189479
1.070862954
1.107050531
1.832347702
2.793797652
2.908313004
2.886894701
2.852801205
2.80120874
5.854252964
5.84420125
5.784461096
5.614282489
5.319565378
4.920270172
4.520541052
4.145498841
3.751448963
3.413732657
3.150543165
2.894624368
2.626087434
2.430709481
2.274516096
2.118133016
1.955205057
1.851939277
1.769359049
1.681680956
1.574105594
1.487033387
1.407963473
1.32648506
1.258365721
1.195125081
1.156267477
1.127567583
1.074495856
1.036893735
1.03166705
1.373742149
2.430291057
2.88229816
2.865336997
2.81679789
2.752399863
5.853837532
5.841946096
5.772888031
5.583810726
5.2690357
4.852874479
4.443544876
4.066266433
3.672187333
3.331792662
3.071224548
2.820803308
2.556311705
2.361479172
2.209213325
2.056092146
1.89022372
1.784063929
1.704642096
1.628276949
1.531319653
1.449809045
1.377487198
1.29849288
1.226658876
1.170445605
1.119480473
1.093482449
1.050472684
1.004146949
0.9884403664
1.091275527
1.995055001
2.788158067
2.777225531
2.734871702
2.688421991
5.853348001
5.839699895
5.759742261
5.550455026
5.215659816
4.782490621
4.362997698
3.983966138
3.591183941
3.248563779
2.989585486
2.744795442
2.485456781
2.292120468
2.143881094
1.995676523
1.830908835
1.721361223
1.641680745
1.570442193
1.483419849
1.407929866
1.343412772
1.271400549
1.197750972
1.145271778
1.089841632
1.05817685
1.024409711
0.9769341908
0.9548859745
0.9718169393
1.527119566
2.49966146
2.709290253
2.699804409
2.659094494
5.853455975
5.836734163
5.74437436
5.513938941
5.15877905
4.709114252
4.279991575
3.899010151
3.507112151
3.163175121
2.906983651
2.668242114
2.413279558
2.220921385
2.077368247
1.935835601
1.776120887
1.663535904
1.582645485
1.510830815
1.4310574
1.361812058
1.30563253
1.242462575
1.171861443
1.1196243
1.067011709
1.024203646
0.9958113927
0.9518315256
0.9227124438
0.9147889818
1.142112125
2.124785842
2.669624464
2.659392712
2.609538843
5.853449509
5.832432439
5.726154582
5.473304651
5.098110903
4.632745877
4.193596218
3.810938801
3.421444549
3.076725414
2.822221933
2.58960235
2.340562277
2.149852395
2.010384726
1.875207141
1.72161193
1.608317113
1.528341099
1.454294781
1.376960061
1.312586249
1.263392571
1.210489215
1.146259166
1.092632384
1.044657548
0.993162485
0.9659730137
0.928991906
0.8950743521
0.8823341242
0.9410716303
1.702310716
2.527391875
2.549130503
2.528057019
5.852586799
5.826991341
5.704749188
5.427888854
5.032365224
4.552443581
4.10470784
3.720754806
3.332814893
2.987700023
2.736811301
2.510684486
2.26733632
2.077386327
1.942521053
1.814005391
1.66789753
1.55478827
1.476847827
1.401666149
1.323915446
1.261279123
1.217622699
1.175380268
1.119418309
1.066516267
1.022426622
0.9694925602
0.9361430912
0.9051822888
0.8687123016
0.8525066475
0.8598996866
1.277649448
2.20194046
2.492547639
2.48104083
5.851922809
5.820949009
5.679919473
5.376884337
4.961408469
4.468168761
4.011858105
3.627214407
3.24289725
2.898072537
2.649464172
2.429518014
2.193784934
2.005557214
1.875091484
1.75206858
1.612643706
1.501138332
1.426801039
1.353578706
1.275376342
1.211110689
1.170731544
1.13645917
1.089591966
1.038891524
0.9977140342
0.9491631102
0.9080289991
0.8804455795
0.844398475
0.8221556995
0.8173305145
0.9727068218
1.834824765
2.445497685
2.433985148
5.851822667
5.814140455
5.651682033
5.320705469
4.88460344
4.3787126
3.91623802
3.531740921
3.150028126
2.805803755
2.561784091
2.348555985
2.119981124
1.932679258
1.807170783
1.689662229
1.557967617
1.448616651
1.377537627
1.307261992
1.229855228
1.162156542
1.124062901
1.095020068
1.05684642
1.009330706
0.970922391
0.9284949419
0.8846518246
0.8572624034
0.8257075589
0.7998055123
0.7895322968
0.828131951
1.461700446
2.278441965
2.334431168
5.851960443
5.806362478
5.620148613
5.259364365
4.802949095
4.285279869
3.81621058
3.432481057
3.056224131
2.713659972
2.472354909
2.265380296
2.045648432
1.861090829
1.740022589
1.627545892
1.502320678
1.395246034
1.327706519
1.262116497
1.1875548
1.11824236
1.081634742
1.054087496
1.022120238
0.9798167386
0.9440538413
0.9081158556
0.8635345664
0.8317084993
0.8049535554
0.7750640029
0.760983342
0.7659841128
1.107101117
1.966168874
2.280102563
5.852019214
5.797603546
5.585452043
5.193835344
4.7162215
4.186767697
3.713787083
3.331609871
2.959510749
2.618742295
2.382926622
2.183113775
1.97143723
1.788641909
1.672262361
1.56534549
1.44732264
1.343432204
1.279232938
1.21760684
1.146726707
1.078204966
1.041250442
1.011155725
0.9815899882
0.9449099826
0.9123716313
0.8831427312
0.8434300868
0.8087218843
0.7863152003
0.7555105543
0.7368171804
0.7332454887
0.8616679485
1.636324092
2.235142283
5.851871157
5.787592314
5.547098013
5.123368647
4.625632303
4.085259765
3.606881081
3.226697614
2.862157125
2.524908863
2.292339717
2.098687997
1.896206383
1.717937973
1.606053059
1.50419795
1.391958702
1.291166151
1.229890081
1.171909886
1.105916458
1.040128827
1.004231704
0.9734219961
0.944594397
0.9118444369
0.8827344333
0.8583468666
0.8263024227
0.7900968874
0.7677545679
0.7400563013
0.7172255156
0.7087506598
0.7421310588
1.3072737
2.088673768
5.851048726
5.774828229
5.503903217
5.048271365
4.529896033
3.978653827
3.498046068
3.120802671
2.762074114
2.428128845
2.201881736
2.015768474
1.822055989
1.64682062
1.539055847
1.442466603
1.33710637
1.240076758
1.182322632
1.128946705
1.068206625
1.004809968
0.9683953648
0.9355068656
0.9046185745
0.8747916309
0.849757544
0.8292758664
0.8046253609
0.770254
0.745605878
0.7211882415
0.6935228278
0.6824167224
0.687307401
1.001630789
1.82541976
5.848968772
5.758144164
5.454233901
4.966144989
4.429706773
3.869280091
3.384501829
3.010516453
2.661154925
2.333294983
2.111040315
1.931158916
1.746604082
1.576752634
1.473742041
1.383033676
1.28374178
1.189070871
1.13423132
1.08398771
1.027476538
0.9682516749
0.9336026537
0.9005184074
0.870184819
0.839540599
0.8169969618
0.7995187666
0.7815455393
0.7534013218
0.7276577242
0.7057365983
0.6772480444
0.6624931829
0.6584530996
0.7896072857
1.502902659
5.84625563
5.73705067
5.397043842
4.877412174
4.322795442
3.753830918
3.268935486
2.899714107
2.557667992
2.235131264
2.020342539
1.848299541
1.672581615
1.507400103
1.408763096
1.322457041
1.22887714
1.138782746
1.087848356
1.040934758
0.98914506
0.9325037185
0.8989308272
0.8681040238
0.838601155
0.805923038
0.786710302
0.7716699026
0.7576498304
0.7356323028
0.7096216364
0.6891074507
0.6636222133
0.6445836809
0.6354971367
0.6734126279
1.203925443
5.843661967
5.711805805
5.331531926
4.779641427
4.210316957
3.63545908
3.148565379
2.783994137
2.45276291
2.139281027
1.92978412
1.764161245
1.597113563
1.438836353
1.34506545
1.264343542
1.177518074
1.089916311
1.042175896
0.9996141372
0.9520018251
0.8977874518
0.8652271771
0.8352613053
0.8049763788
0.7700141215
0.751801419
0.7390962741
0.7289047826
0.7133295365
0.6891864689
0.6692696747
0.6473556919
0.6241317724
0.6146985739
0.6217156957
0.9314041712
5.841776831
5.681603747
5.258003665
4.674969532
4.090283706
3.51007594
3.025974733
2.667947371
2.345741214
2.039664522
1.838159004
1.681832204
1.52486204
1.37147162
1.281632338
1.206205007
1.125033408
1.040781626
0.9955247258
0.955108704
0.9108227741
0.8600578269
0.8308929727
0.8057776766
0.7784803499
0.7445004218
0.7250580085
0.7143488917
0.7059847152
0.6932803399
0.6725444622
0.6534613993
0.6354902105
0.6113422614
0.5998841511
0.5955709748
0.730012244
5.839820432
5.646832705
5.176672702
4.561163755
3.964376052
3.381710738
2.898705866
2.547360246
2.236349566
1.941999567
1.748231964
1.599218982
1.450149057
1.303374024
1.218858473
1.148467344
1.074236391
0.996697083
0.954451743
0.9167959442
0.8751460778
0.8259314121
0.7969140549
0.7736991474
0.7481101095
0.714809762
0.6934951149
0.6861271501
0.6797056017
0.6696882826
0.6534530656
0.6361587828
0.6213446929
0.5997207846
0.5835233195
0.5724475103
0.6161501898
5.836923639
5.607088766
5.088015293
4.44080832
3.830176115
3.24626915
2.769450875
2.426393036
2.125595326
1.84120791
1.657234556
1.516518885
1.376918951
1.239785019
1.160672843
1.095274821
1.025461081
0.9486563545
0.9069134857
0.8722065303
0.8345525122
0.7909292644
0.7659500863
0.7450020293
0.7208638745
0.6889284095
0.6662469758
0.6592107038
0.6529121817
0.6440407185
0.6316472232
0.616719799
0.6047399744
0.5872226336
0.5685327551
0.5578294755
0.5667948956
5.833205318
5.56145927
4.99002067
4.310314096
3.690216049
3.107799023
2.63555318
2.300978296
2.014025362
1.742377116
1.56541902
1.434810354
1.305663249
1.17332996
1.098116678
1.038887149
0.9754305144
0.9056909183
0.8670386079
0.8344089381
0.7990316236
0.757313815
0.7337458886
0.7162196074
0.6961141298
0.667267121
0.6464421192
0.6388885536
0.6315339519
0.6197330005
0.6113768777
0.6006732639
0.5908140969
0.5781819683
0.5581027967
0.547043135
0.5450520941
5.8253528
5.505852267
4.882127402
4.172818861
3.54153913
2.961650067
2.500692962
2.177110677
1.900755103
1.639262169
1.47287787
1.353005385
1.23489876
1.111143155
1.041985487
0.9864922578
0.9276131163
0.8614844519
0.8239502911
0.7944874556
0.7623476773
0.7225013303
0.7009468542
0.6850195172
0.6666747607
0.639957851
0.6210871013
0.6145332436
0.6085720131
0.5957440393
0.5913324787
0.5848881375
0.5766263516
0.5666822326
0.547300348
0.5315919867
0.5237470092
5.813565293
5.439670348
4.762167095
4.024468927
3.38753769
2.813473929
2.361711901
2.048695708
1.783990081
1.540601283
1.387191893
1.273373098
1.161691126
1.046403966
0.9852441751
0.936734363
0.8823436314
0.8182014649
0.7829247873
0.756639369
0.7282184869
0.6926625378
0.6740597145
0.6601764248
0.6438700305
0.6197079511
0.6028370204
0.5941548499
0.5868733952
0.5736303726
0.5679148381
0.5644052521
0.5582680531
0.5508796012
0.5365476939
0.5201065989
0.5086339607
5.794271403
5.360861226
4.632151961
3.869084793
3.224250735
2.658646472
2.219210467
1.920775497
1.673886379
1.441508521
1.293730675
1.191241872
1.091291839
0.9841442225
0.9266315499
0.8828516995
0.8337861175
0.7757086671
0.7452724141
0.722796653
0.6968108531
0.6619572377
0.6454187533
0.6345151362
0.620880955
0.5995321237
0.584815726
0.5752157679
0.5655007894
0.553234629
0.5433424649
0.5435870013
0.5411243051
0.5371853505
0.5282097691
0.5116703672
0.5006791322
5.768211087
5.272067665
4.489017905
3.702439639
3.055145907
2.500178003
2.074650218
1.792121816
1.56098247
1.339722954
1.202889129
1.11336351
1.026049424
0.9291777349
0.8761984484
0.8349507208
0.7887232384
0.732354233
0.703096942
0.6836342207
0.6603502308
0.6287259479
0.6148069335
0.6064898135
0.5947532048
0.5752608813
0.5626950885
0.5558159574
0.5474092552
0.5370433024
0.5267947041
0.5281797878
0.5272449452
0.5242033908
0.5178829572
0.5022121175
0.4911228145
5.738717005
5.169607691
4.333843313
3.525998268
2.875054438
2.333965929
1.932246455
1.664568332
1.444795439
1.244271791
1.12279039
1.038976851
0.9540450231
0.8618992614
0.8160339882
0.7845092004
0.7467875324
0.6969244852
0.6739308951
0.6588867303
0.6388687095
0.607443718
0.5932389605
0.5847311188
0.57348393
0.556776413
0.5458798056
0.5404520748
0.5325406196
0.5212127987
0.5085687324
0.5083917271
0.5086424678
0.5064921875
0.502481939
0.4913644494
0.477950072
5.703835467
5.054596836
4.161182123
3.331478978
2.692190373
2.168496217
1.782413979
1.531908096
1.331149316
1.147108215
1.036620744
0.9673671164
0.8945016005
0.8079732
0.7630006079
0.7340801538
0.6997708981
0.6545469688
0.6359832023
0.624367532
0.6067994857
0.5782109555
0.5673077098
0.5621534058
0.5537878749
0.5383556665
0.5290133225
0.5232221276
0.5136344636
0.499836886
0.487514594
0.4849572887
0.4881739829
0.4889148355
0.4872450653
0.4813326894
0.4701084527
5.661360374
4.919393101
3.9716635
3.127831076
2.49750439
1.993506907
1.625428596
1.403678384
1.233713224
1.061069479
0.9556745355
0.8920125692
0.8251581052
0.7456635583
0.7123432974
0.6926145677
0.6651574092
0.622549368
0.6056486217
0.595714007
0.5793448514
0.555717765
0.5438402642
0.5385070078
0.5308476505
0.5140507618
0.5060914937
0.5026941546
0.4954603286
0.4854009156
0.4773008299
0.4739921242
0.4762105674
0.47723207
0.475695316
0.4724403619
0.4639138346
5.614008372
4.766817067
3.759020955
2.909562093
2.288865079
1.816654315
1.485375349
1.278572614
1.118071811
0.9658309684
0.881275174
0.8265264014
0.7655159748
0.6945188124
0.6671858979
0.6529240019
0.6299420839
0.5921778901
0.5816871328
0.5742191027
0.5601822996
0.5348146468
0.5212761052
0.5146092337
0.5065517328
0.4927600387
0.4881952974
0.488460017
0.4847172734
0.4766787039
0.4676749328
0.4616447496
0.4618103946
0.4617918118
0.4615497471
0.4599507911
0.4542610996
5.552036625
4.590338646
3.526106848
2.677794491
2.073487236
1.635271278
1.342089493
1.154410537
1.00617076
0.8735441941
0.7988694901
0.75685935
0.7090878685
0.6417459527
0.6206999764
0.6102267917
0.5894006099
0.5543547174
0.5480387129
0.5430369929
0.5309313863
0.5098011048
0.5011944618
0.4983684525
0.4922998197
0.4791875183
0.4750458652
0.4749847455
0.4710505257
0.461970493
0.4504174259
0.4432473257
0.4429325495
0.4422569482
0.4434328757
0.4441742561
0.4423414055
5.472843032
4.391303551
3.265112078
2.417525294
1.864858833
1.458345529
1.174583833
1.027713933
0.9157214644
0.7989506356
0.7355857085
0.6999152163
0.6556638224
0.5982588988
0.5864907809
0.5788527411
0.5598890177
0.5255163801
0.5203198147
0.5189781434
0.51064554
0.4954878883
0.487193516
0.4831548924
0.4756361722
0.4587008112
0.45351071
0.4530060607
0.4498101503
0.4432256333
0.4360435737
0.4343658889
0.4353459743
0.4344520464
0.4344897674
0.4373758682
0.4372368415
5.379755428
4.136372299
2.983916473
2.157461836
1.629852414
1.270813944
1.030034263
0.9086788254
0.8092130534
0.706004205
0.6657513127
0.6457024424
0.6107586269
0.5611730197
0.5514926169
0.5459015673
0.5291819003
0.5015652505
0.4997843896
0.4997266966
0.4928849384
0.4742846109
0.4661358324
0.4609740812
0.4524284517
0.4402603761
0.4379407328
0.4399580236
0.4393600875
0.4360903375
0.4311346569
0.4306652951
0.4307694949
0.4290810422
0.429008919
0.4320324944
0.4329956489
5.253897952
3.8421914
2.665877201
1.869884959
1.374661524
1.072734098
0.9070804284
0.8149093307
0.7306358454
0.6237791303
0.6034801441
0.593140032
0.5648893344
0.5216942412
0.5143829717
0.5132015193
0.5000605123
0.4743062724
0.4715144308
0.471228047
0.4650477418
0.4480720948
0.4466523835
0.4467427071
0.4427620281
0.4353105468
0.4329353865
0.434045891
0.4332798408
0.4284735573
0.4243980433
0.4243465583
0.4232479136
0.4209302064
0.4206952498
0.4227623382
0.425445638
5.075439285
3.504695765
2.287653731
1.563773238
1.178946726
0.9176279414
0.754814577
0.6974536939
0.6418575498
0.561105953
0.5584249236
0.5547689852
0.5321619957
0.4954421024
0.4940739789
0.4909816784
0.4749408738
0.4520038709
0.4495233977
0.4511908804
0.447669373
0.438075361
0.4377865697
0.4391884376
0.4359819825
0.4275585234
0.4245589862
0.4246905685
0.4233175147
0.4177525543
0.4160252288
0.4161261312
0.4152336532
0.4135803933
0.4133164789
0.4147735971
0.4193147609
4.82892809
3.108209392
1.899555193
1.243409519
0.9706999413
0.767329881
0.6565210637
0.6196524507
0.5667050128
0.5037698964
0.4984324226
0.5010692928
0.4866359212
0.4599564286
0.4624056888
0.4635897817
0.4553667513
0.4413799503
0.4400685125
0.4411025235
0.4370720017
0.4271078545
0.4267094288
0.4273967116
0.4244292463
0.4174608712
0.4160395016
0.4166333244
0.4159671611
0.4133567205
0.412961247
0.4132364234
0.4128086776
0.4119165215
0.4112853752
0.4119935393
0.4159848632
4.535332787
2.538902172
1.532403425
1.01067874
0.7620600428
0.593764903
0.5535691342
0.548903863
0.5181994548
0.4783403657
0.4746714907
0.4748527614
0.4608634424
0.4432604127
0.4451209172
0.4472402404
0.4401207969
0.427328864
0.4265007476
0.4267059303
0.4228039922
0.416276846
0.4168291043
0.4177809358
0.4161471898
0.4137075491
0.4137046834
0.4149031031
0.4144761591
0.4127994362
0.4125242813
0.4126683513
0.4119062843
0.4107820686
0.4097164051
0.4098571437
0.412366139
4.084109019
1.959388969
1.076287447
0.7523494005
0.6266101615
0.5274489321
0.4862620692
0.4834771333
0.4642871092
0.4446596364
0.4498339255
0.4526485684
0.441536826
0.4289599712
0.4299454666
0.4296686341
0.4220828035
0.4143299644
0.4148322531
0.4169315231
0.4157182695
0.4135309475
0.4141853525
0.4157141505
0.4146051744
0.4133313328
0.4124351488
0.4128953215
0.4122992025
0.4108632917
0.4099645309
0.4096852982
0.4087734471
0.4070024697
0.4064061758
0.4059623406
0.4071501467
3.262148966
1.483373032
0.7158480186
0.5589964269
0.5117043128
0.4640855356
0.465292026
0.462068403
0.4404486727
0.4241268468
0.4245856226
0.4275753432
0.4212406004
0.4159416799
0.4182883822
0.4193258756
0.4163112137
0.4123063116
0.4124856001
0.4150373582
0.4144326237
0.4138112619
0.4139891091
0.4142591999
0.4128577767
0.4106102069
0.4090759747
0.4092368702
0.4086287852
0.4069557098
0.4059288903
0.4056940897
0.4047864375
0.4030479472
0.4015045079
0.4007632333
0.4021747824
2.036490738
0.7069348625
0.5078336801
0.4909199023
0.4640144833
0.4304104495
0.4296460389
0.4391039252
0.4310934207
0.419566837
0.4135094552
0.4137399219
0.4117365798
0.4116995198
0.416251869
0.4184173828
0.4162861042
0.4132832935
0.4126501848
0.4133666648
0.4125725405
0.4110273867
0.4100372849
0.4098646327
0.4087910572
0.4056394218
0.404785309
0.403882854
0.4023226984
0.4005892769
0.3999192428
0.4000994373
0.3995416126
0.3980447764
0.3962155242
0.3972452911
0.4620170119
0.4959139565
0.4967590133
0.4545994322
0.4506888531
0.438494708
0.4351057304
0.4305496108
0.4296196927
0.4239807631
0.4141461112
0.4132315595
0.4114859162
0.4108094446
0.4117815996
0.416396665
0.4186571626
0.4152352017
0.4117543906
0.410505253
0.411107105
0.4099993673
0.4074080268
0.4078719284
0.4073779426
0.4057404694
0.403977213
0.4025514613
0.4013936917
0.4004286123
0.3984538761
0.3977690108
0.3981050001
0.3977674266
0.3958799486
0.3944136202
0.4073760745
0.4468579359
0.4831349634
0.4531415626
0.4498876041
0.4347738997
0.433335003
0.4285537043
0.4261833221
0.4201813592
0.4117250974
0.4114590025
0.4105496544
0.4105684511
0.4119350639
0.4164468168
0.4178439314
0.4140998277
0.4108399223
0.4099247543
0.4104252046
0.4088434132
0.4063793789
0.4069699852
0.4063391377
0.4045827765
0.4029269556
0.4016023457
0.4005174709
0.3995853357
0.397681094
0.3971442658
0.3975210598
0.3970811695
0.395041395
0.3945933729
0.4465698059
0.4482955248
0.4775272469
0.4494804233
0.4475418657
0.4321680539
0.4322152754
0.4273140794
0.4240507038
0.4182511821
0.4108311996
0.4101379786
0.4100928168
0.4101650715
0.4123949419
0.4172275684
0.4174375218
0.4135309303
0.4105170108
0.4096438458
0.4099051734
0.4078641454
0.405621023
0.406210136
0.4053991611
0.4036755492
0.4021132063
0.4008651388
0.399991606
0.398589782
0.3966936789
0.3964245232
0.3969180979
0.3961102436
0.394503057
0.3959844303
0.5424849107
0.4468444973
0.4716649658
0.4469938804
0.4459355312
0.4309564207
0.4300267763
0.4247531453
0.4218801903
0.4166624129
0.4105653884
0.409538792
0.4098346874
0.4100899726
0.4126264299
0.4165727103
0.4164840839
0.4124775912
0.4096695674
0.4088631778
0.4090295268
0.4065106214
0.4046145726
0.4053659564
0.4045053806
0.4026845441
0.4013712892
0.4002547571
0.3995810732
0.3982591665
0.3962399662
0.3959780325
0.3964303925
0.3950835302
0.394182912
0.4047114107
0.6564320399
0.4452937104
0.4672474507
0.4450592167
0.4453938081
0.4294282611
0.4285783506
0.4224933264
0.4196657534
0.4140785883
0.4106844542
0.4093167124
0.4096985263
0.4098945344
0.4130522053
0.4163187342
0.4156879671
0.4117158062
0.4092714677
0.4083413204
0.4079003584
0.4049760994
0.4034626113
0.4041510194
0.4032732994
0.4012363555
0.4002234658
0.399318259
0.3988585745
0.3979492889
0.3957478849
0.3955706634
0.3956841115
0.3945418624
0.3940039724
0.4402351834
0.7554235258
0.4476599075
0.4640928005
0.4435583978
0.4441963815
0.4280031066
0.4273948671
0.4212408413
0.4172433634
0.4109753189
0.4103223238
0.409173135
0.4096552017
0.4096292489
0.4129492269
0.4156505251
0.4148338569
0.410917635
0.40891213
0.4080313328
0.4069245981
0.4041314758
0.4028412423
0.4030258642
0.4017822291
0.4000074952
0.3990604426
0.3981226664
0.3975746898
0.397230994
0.3952415465
0.3948799913
0.394973135
0.3940013787
0.3948981406
0.5060134818
0.8977058817
0.4495879758
0.4606605829
0.4419871108
0.4429151431
0.4264639686
0.425368166
0.4195055444
0.4149101071
0.4102472235
0.410125141
0.4091829078
0.4095810946
0.409931578
0.4137898419
0.4152634976
0.4140638449
0.4100101166
0.4082363209
0.4074350615
0.4060181683
0.4034645609
0.4024239685
0.4024827712
0.4012576332
0.3995820097
0.3985874008
0.3974892674
0.3967164923
0.3960832582
0.3950251338
0.3948058439
0.3944496693
0.3933367026
0.402293763
0.6272851677
0.9884119146
0.4476128882
0.4558951783
0.4403357342
0.4409469056
0.4245124751
0.4232326259
0.4169782255
0.4128536596
0.4100970888
0.4102344496
0.4095325197
0.40940792
0.4095850362
0.4132507503
0.4147189905
0.4132347698
0.4089433708
0.4070573987
0.4063477465
0.4047428891
0.4023252515
0.4017482756
0.4018262321
0.4008961823
0.3991965796
0.398172217
0.3972162748
0.3964394043
0.3954363705
0.3944670266
0.3943794689
0.3935587372
0.3932874327
0.4272952982
0.7710868341
1.000950819
0.4438424607
0.4537665821
0.4390098515
0.4385984603
0.4220738147
0.421016055
0.4150567655
0.4107234141
0.4107155507
0.409306115
0.4090838555
0.4089664239
0.4093956629
0.4129208885
0.4138300616
0.4122775155
0.4080187173
0.4057568795
0.4045671793
0.4027004675
0.4003106289
0.4003520509
0.4004968296
0.4000369604
0.3983305286
0.3973402806
0.3968561015
0.3963458284
0.3951818457
0.3939716535
0.393615388
0.3931734299
0.3942755077
0.4987558
0.8445169353
1.022878012
0.449209741
0.4533242542
0.4353609723
0.4355748293
0.4206184453
0.4190815335
0.4141978092
0.409523631
0.4117515022
0.4091390626
0.4089178931
0.4086039218
0.4093239185
0.4124299032
0.4126652572
0.4112430232
0.4073108358
0.405002488
0.4032839044
0.401180601
0.3991626501
0.3991940085
0.3990976873
0.398461405
0.3967879799
0.395893655
0.3960361744
0.3959738493
0.3949068847
0.3936736755
0.3930465479
0.3930303185
0.3991694145
0.5886208899
0.9218907693
0.4544550332
0.4494482571
0.4341671338
0.431911614
0.4199347707
0.4192889271
0.4142833028
0.4093486538
0.4115989988
0.4097704271
0.4090921353
0.4081214031
0.4091246334
0.4120607176
0.4116512174
0.4099750836
0.4063664626
0.4041554491
0.4023871946
0.4005153124
0.3988840612
0.3988951557
0.3986854644
0.3976852939
0.3960748406
0.3950579164
0.3947998878
0.3950785533
0.3942880878
0.3933386889
0.3927841447
0.3929962614
0.4199965512
0.7020923799
1.018234096
0.4619739657
0.4434539852
0.4390749121
0.4289273972
0.4175463475
0.4196939925
0.4148064485
0.4094743332
0.4113305222
0.4091197151
0.4085860241
0.4073709101
0.4088784428
0.411497699
0.4108474468
0.4082269093
0.4046261647
0.4023530186
0.4007969315
0.3995819426
0.3986242414
0.3987043165
0.3985631204
0.3974997138
0.3959006596
0.3948284567
0.3941456919
0.3938910965
0.3932138537
0.3925380366
0.3924944248
0.3934399448
0.4685694989
0.8519376619
1.048107044
0.4681110221
0.4430752297
0.439228375
0.4260998165
0.4154144141
0.4188866094
0.4151788682
0.4095938029
0.4104506688
0.4089809738
0.4083356828
0.4069562253
0.4085583631
0.4107487768
0.4099394755
0.406515166
0.4026366207
0.4002772667
0.398999025
0.3977657671
0.3978787754
0.3981683502
0.3981559667
0.3972388015
0.3956164715
0.3948537455
0.3939241392
0.3933978993
0.3926120289
0.3917324434
0.3919260379
0.3972448587
0.5787775921
0.9370065736
1.052464508
0.4735551643
0.4411202302
0.4327236307
0.4210568216
0.4154398131
0.4180059534
0.4150813499
0.4092362109
0.4095101051
0.409388554
0.4083161733
0.4068510371
0.4085487641
0.409878377
0.4088669462
0.4053630864
0.4019166094
0.3997603747
0.3985341446
0.3965242736
0.3962785899
0.3968592273
0.3970278975
0.3964861711
0.3948125221
0.3944811596
0.3938910028
0.3932021444
0.3924094112
0.3914342752
0.391727336
0.4127469945
0.692549829
0.9629102399
1.042963535
0.4783026708
0.4349578285
0.4231348385
0.4163161947
0.4155334605
0.4168234414
0.4146282767
0.4089567146
0.4091328579
0.4089978455
0.4081648232
0.4067060149
0.4084214045
0.4088332327
0.4075329272
0.4042794332
0.4014522016
0.399679553
0.3985240961
0.3962830112
0.3955130866
0.3955623698
0.3955253981
0.3949448777
0.393571756
0.3935312143
0.3934435437
0.3931940425
0.3922125935
0.3912146911
0.391784404
0.4600243527
0.7817891229
1.009166022
1.047956566
0.4763158079
0.4307102134
0.4216904456
0.4150444795
0.4156948485
0.4155609854
0.4140374029
0.4086065144
0.4093263175
0.4090070628
0.4079540963
0.4058889659
0.4075749192
0.4072918256
0.4056319387
0.4025480309
0.4005409708
0.3992574743
0.3982698399
0.3962082399
0.3952926734
0.3951573329
0.394902907
0.3939140387
0.3929013309
0.3925196167
0.3925930747
0.3927710351
0.3915494715
0.3905934255
0.3945896657
0.5339634905
0.9125931676
1.056952709
1.063595616
0.4685361
0.4299492228
0.4216537482
0.4133401001
0.4149987257
0.4139322745
0.4123977658
0.4081613608
0.4086299199
0.4085103382
0.407339452
0.4052438181
0.4063324437
0.4052743334
0.4032342137
0.3995850295
0.3984514611
0.3980420309
0.3974021296
0.3957509474
0.3954617469
0.3950287885
0.3946603409
0.3935902365
0.3925914833
0.3920527017
0.3919101832
0.3919268008
0.3903377085
0.3903951416
0.4066152404
0.6715600795
1.000646282
1.064204127
1.070572525
0.4450394584
0.4312760435
0.4221558357
0.412469414
0.4143321547
0.4124397566
0.4106401981
0.4074556601
0.4085075459
0.4081652381
0.406540417
0.4049391193
0.4056796645
0.4041217537
0.4017465167
0.3975440941
0.3962496451
0.3960398043
0.3956146349
0.39473153
0.3952338775
0.395143656
0.3947214184
0.3934924205
0.392626889
0.3918639893
0.3916064295
0.3913085418
0.3897299285
0.3905478566
0.4464288775
0.8107828779
1.018675621
1.062021287
0.423818907
0.4339770683
0.4224245414
0.4119383879
0.4123593915
0.4116528024
0.4095419521
0.4066493162
0.4089991226
0.4078757687
0.4061905699
0.4052160726
0.4052748346
0.4034205271
0.4010406986
0.397091777
0.3957236727
0.3953250838
0.3945395132
0.3937750412
0.3944480592
0.3947031425
0.3944501199
0.393101482
0.3923458849
0.391837733
0.391545401
0.3910412307
0.389778737
0.3926440234
0.5363111589
0.8750275104
1.022740039
1.05099605
0.4183330441
0.4343790937
0.4220297429
0.4114199221
0.4110527789
0.410299029
0.4088234571
0.4063723041
0.4085760698
0.4078122399
0.4059214233
0.4049298393
0.4044386109
0.402469386
0.400213687
0.3967662969
0.3955717835
0.395116153
0.3942058819
0.3933354927
0.3935211368
0.393720092
0.3935982511
0.3921798904
0.3915832541
0.391371799
0.3914507738
0.3906716539
0.3897507499
0.4032299936
0.6314610456
0.9498842769
1.043475258
1.048741347
0.4174473573
0.4340887982
0.4217185026
0.4101277435
0.41047188
0.4092660817
0.4077991327
0.4063107799
0.4084670478
0.4073938089
0.4051584485
0.4035325289
0.402514529
0.4005459216
0.3983350792
0.3957786912
0.3951992175
0.3949678267
0.394122056
0.3931071529
0.3930044598
0.3929146964
0.3923171908
0.3910831049
0.3908394236
0.3908241731
0.3909199712
0.3897470345
0.3896382239
0.4361369932
0.773714037
1.03483677
1.062624773
1.054519975
0.4197899722
0.43522136
0.4208766729
0.4091270798
0.409673854
0.4084958051
0.4068341083
0.4063394325
0.4079837851
0.4067758491
0.4042374143
0.4020470326
0.3999650757
0.397813988
0.3951949411
0.3935185496
0.3941411688
0.3943548462
0.3937674411
0.3929468209
0.3927252126
0.3925031838
0.3918005192
0.3906579522
0.3905088904
0.39059714
0.3900308833
0.38895975
0.3915402978
0.5194937977
0.9122607326
1.055235153
1.064357106
1.064009283
0.4264228554
0.4387048185
0.4196213654
0.4080865496
0.4081963209
0.407954879
0.4067376204
0.4063139708
0.407255539
0.4059437429
0.4036660964
0.4016535927
0.3989839305
0.3963836659
0.3934226
0.3920259614
0.39265986
0.3932280835
0.393020538
0.3925740707
0.3926719826
0.3923275717
0.3914487263
0.3905445011
0.3904719051
)
;

boundaryField
{
    inlet
    {
        type            fixedValue;
        value           nonuniform 0();
    }
    outlet
    {
        type            zeroGradient;
    }
    bottom
    {
        type            slip;
    }
    top
    {
        type            slip;
    }
    obstacle
    {
        type            zeroGradient;
    }
    defaultFaces
    {
        type            empty;
    }
    procBoundary9to3
    {
        type            processor;
        value           nonuniform List<scalar> 
38
(
1.676656836
1.586705082
1.500260464
1.436010815
1.356518166
1.306193876
1.271724354
1.211963259
1.168656486
1.170634131
1.677259079
2.761005284
3.076232299
3.05291527
3.009117845
2.951581367
2.890719795
5.852514953
5.847178361
5.804030308
5.667660575
5.411071014
5.045019
4.665023139
4.295148495
3.903167359
3.572056528
3.304563187
3.036571939
2.761598762
2.570218432
2.412611763
2.258107268
2.104078892
1.989592548
1.88491735
1.766817263
1.766817263
)
;
    }
    procBoundary9to4
    {
        type            processor;
        value           nonuniform List<scalar> 9(2.785345159 2.739071213 2.690211003 2.640157481 2.599663684 2.543791928 2.486887214 2.445349854 2.395170617);
    }
    procBoundary9to8
    {
        type            processor;
        value           nonuniform List<scalar> 
14
(
5.852670624
5.854753008
5.855438039
5.854023771
5.853620466
5.854285436
5.85423801
5.853641816