/*--------------------------------*- C++ -*----------------------------------*\
  =========                 |
  \\      /  F ield         | OpenFOAM: The Open Source CFD Toolbox
   \\    /   O peration     | Website:  https://openfoam.org
    \\  /    A nd           | Version:  7
     \\/     M anipulation  |
\*---------------------------------------------------------------------------*/
FoamFile
{
    version     2.0;
    format      ascii;
    class       volScalarField;
    location    "2.5";
    object      p;
}
// * * * * * * * * * * * * * * * * * * * * * * * * * * * * * * * * * * * * * //

dimensions      [1 -1 -2 0 0 0 0];

internalField   nonuniform List<scalar> 
22
(
1.010320482
1.01272729
1.015301969
1.000775704
1.015877813
1.016827381
0.9827749797
0.9856164583
1.018158421
1.0220314
0.9872666617
0.9502088675
1.015545157
1.021542769
0.9915141381
0.9080838787
0.9723044122
0.9881545584
0.8362978793
0.8791660302
0.9519516448
0.8962427579
)
;

boundaryField
{
    inlet
    {
        type            fixedValue;
        value           nonuniform 0();
    }
    outlet
    {
        type            zeroGradient;
    }
    bottom
    {
        type            slip;
    }
    top
    {
        type            slip;
    }
    obstacle
    {
        type            zeroGradient;
    }
    defaultFaces
    {
        type            empty;
    }
    procBoundary28to21
    {
        type            processor;
        value           nonuniform List<scalar> 2(0.9286599973 0.8872208099);
    }
    procBoundary28to22
    {
        type            processor;
        value           nonuniform List<scalar> 3(1.016148692 1.015559794 1.018841079);
    }
    procBoundary28to27
    {
        type            processor;
        value           nonuniform List<scalar> 6(0.8497624743 0.7913702241 0.8220719417 0.8220719417 0.8208738706 0.9713193124);
    }
    procBoundary28to29
    {
        type            processor;
        value           nonuniform List<scalar> 7(0.9822917912 0.9822917912 0.9855762286 0.9903344443 0.9953457746 0.9976149956 0.9864681837);
    }
    procBoundary28to34
    {
        type            processor;
        value           nonuniform List<scalar> 4(0.882128148 0.8915941865 0.882128148 1.008356363);
    }
}


// ************************************************************************* //
