/*--------------------------------*- C++ -*----------------------------------*\
  =========                 |
  \\      /  F ield         | OpenFOAM: The Open Source CFD Toolbox
   \\    /   O peration     | Website:  https://openfoam.org
    \\  /    A nd           | Version:  7
     \\/     M anipulation  |
\*---------------------------------------------------------------------------*/
FoamFile
{
    version     2.0;
    format      ascii;
    class       volVectorField;
    location    "1";
    object      U;
}
// * * * * * * * * * * * * * * * * * * * * * * * * * * * * * * * * * * * * * //

dimensions      [0 1 -1 0 0 0 0];

internalField   nonuniform List<vector> 
2222
(
(3 -6.712619444e-15 0)
(3 -5.078455231e-15 0)
(3 -3.691503065e-15 0)
(3 -2.184506494e-15 0)
(3 -6.107490119e-16 0)
(3 -6.716442254e-16 0)
(3 -8.124677831e-15 0)
(3 -7.783947324e-15 0)
(3 -7.951347809e-15 0)
(3 -8.736506884e-15 0)
(3 -7.591692344e-15 0)
(3 -6.310488789e-15 0)
(3 -6.165514266e-15 0)
(3 -6.593782236e-15 0)
(3 -2.957175201e-15 0)
(3 -5.650873844e-16 0)
(3 -1.159179536e-16 0)
(3 2.797468944e-16 0)
(3 1.636707375e-15 0)
(3 2.260599905e-15 0)
(3 2.815914009e-15 0)
(3 3.210685331e-15 0)
(3 3.080750187e-15 0)
(3 3.050493211e-15 0)
(3 3.950380874e-15 0)
(3 -8.83301177e-15 0)
(3 -8.983722687e-15 0)
(3 -8.28822769e-15 0)
(3 -7.401142909e-15 0)
(3 -7.385347884e-15 0)
(3 -7.154539361e-15 0)
(3 -7.097072989e-15 0)
(3 -4.30902683e-15 0)
(3 -1.108579988e-15 0)
(3 -1.001097943e-15 0)
(3 -1.33563863e-15 0)
(3 -7.153565264e-16 0)
(3 -2.008829348e-16 0)
(3 8.941490403e-16 0)
(3 1.483079584e-15 0)
(3 2.087493867e-15 0)
(3 2.97989062e-15 0)
(3 4.16052222e-15 0)
(3 3.238058261e-15 0)
(3 1.539840811e-15 0)
(3 1.808607168e-15 0)
(3 1.757755665e-15 0)
(3 1.70573847e-15 0)
(3 1.045672273e-15 0)
(3 7.688780048e-16 0)
(3 2.033337553e-16 0)
(3 -1.058815144e-15 0)
(3 -2.30395795e-15 0)
(3 -2.107144439e-15 0)
(3 -1.901791343e-15 0)
(3 -5.393496589e-16 0)
(3 6.174214842e-17 0)
(3 4.151519958e-16 0)
(3 -3.563908096e-15 0)
(3 -3.965379246e-15 0)
(3 -4.747807616e-15 0)
(3 -4.785829494e-15 0)
(3 -4.321498054e-15 0)
(3 -4.349638992e-15 0)
(3 -4.087537137e-15 0)
(3 -3.842386324e-15 0)
(3 -3.736216508e-15 0)
(3 -3.304755928e-15 0)
(3 -1.322866003e-15 0)
(3 -1.340531329e-15 0)
(3 -1.106889107e-15 0)
(3 -2.891227464e-16 0)
(3 1.071356344e-15 0)
(3 1.750316197e-15 0)
(3 1.944095052e-15 0)
(3 4.146043868e-15 0)
(3 4.255848959e-15 0)
(3 3.614843545e-15 0)
(3 3.021774074e-15 0)
(3 2.366512426e-15 0)
(3 1.590227339e-15 0)
(3 1.49447691e-15 0)
(3 -6.716227563e-16 0)
(3 -1.404629127e-15 0)
(3 -2.086319406e-15 0)
(3 -2.589142981e-15 0)
(3 -1.589041384e-15 0)
(3 -1.112358007e-15 0)
(3 -1.091597291e-15 0)
(3 -8.846732764e-16 0)
(3 -2.548296792e-16 0)
(3 -3.189050238e-16 0)
(3 -5.444528525e-16 0)
(3 -8.148296568e-16 0)
(3 -2.291245795e-15 0)
(3 -2.980365379e-15 0)
(3 -3.039837881e-15 0)
(3 -2.959405517e-15 0)
(3 -2.512498251e-15 0)
(3 -2.01789933e-15 0)
(3 -2.395123087e-15 0)
(3 -3.193596393e-16 0)
(3 -1.390083183e-16 0)
(3 -1.811326372e-16 0)
(3 -1.482694579e-16 0)
(3 6.43671757e-16 0)
(3 1.620674884e-15 0)
(3 2.23275854e-15 0)
(3 1.111999499e-15 0)
(3 1.024100194e-16 0)
(3 1.555342538e-15 0)
(3 1.661188852e-15 0)
(3 1.06061567e-15 0)
(3 -6.036179386e-16 0)
(3 -1.719488756e-15 0)
(3 -1.651987015e-15 0)
(3 -1.550451682e-15 0)
(3 -1.274463577e-15 0)
(3 -6.898560084e-16 0)
(3 3.915443304e-16 0)
(3 -9.799030147e-16 0)
(3 -9.687203687e-16 0)
(3 -2.245852731e-15 0)
(3 -2.942411369e-15 0)
(3 -3.008170054e-15 0)
(3 -3.007206868e-15 0)
(3 -5.015312428e-16 0)
(3 -2.655279973e-15 0)
(3 -2.39746228e-15 0)
(3 -1.650554865e-15 0)
(3 -1.695577778e-15 0)
(3 -1.390183005e-15 0)
(3 -1.88554738e-15 0)
(3 -2.414903296e-15 0)
(3 -3.042283069e-15 0)
(3 -1.891063774e-15 0)
(3 -1.825313901e-15 0)
(3 -1.034097035e-15 0)
(3 1.93721172e-16 0)
(3 6.810727408e-16 0)
(3 -2.697369257e-16 0)
(3 -1.512310469e-15 0)
(3 -3.799757742e-15 0)
(3 -3.369591487e-15 0)
(3 -4.842582592e-16 0)
(3 -7.058712069e-16 0)
(3 1.493261306e-16 0)
(3 6.607218751e-16 0)
(3 4.660696108e-16 0)
(3 -3.308790871e-16 0)
(3 -4.584447202e-16 0)
(3 1.003420582e-15 0)
(3 1.254615426e-15 0)
(3 7.237658674e-16 0)
(3 -1.505902107e-15 0)
(3 -2.028565711e-15 0)
(3 -1.672803396e-15 0)
(3 -1.017872296e-15 0)
(3 -8.961519629e-16 0)
(3 -7.079292866e-16 0)
(3 -4.912560761e-16 0)
(3 -2.018484939e-15 0)
(3 -6.801115767e-17 0)
(3 5.768816533e-16 0)
(3 4.484124603e-16 0)
(3 6.742155127e-17 0)
(3 -1.930241938e-15 0)
(3 -3.171841031e-15 0)
(3 -5.149076114e-15 0)
(3 -3.330647527e-15 0)
(3 -3.015556263e-15 0)
(3 -2.467694646e-15 0)
(3 -1.179429819e-15 0)
(3 -8.798098055e-16 0)
(3 -5.444865459e-16 0)
(3 -1.231938857e-15 0)
(3 -1.337078343e-15 0)
(3 7.50761009e-16 0)
(3 1.980690155e-15 0)
(3 2.56571492e-15 0)
(3 3.472808815e-15 0)
(3 3.806814433e-15 0)
(3 4.548774584e-15 0)
(3 3.935200164e-15 0)
(3 4.651941164e-15 0)
(3 3.988981781e-15 0)
(3 3.906292352e-15 0)
(3 3.036782622e-15 0)
(3 -6.208491434e-16 0)
(3 -2.013434795e-15 0)
(3 -1.859044101e-15 0)
(3 -5.155917295e-16 0)
(3 7.950207338e-16 0)
(3 1.252657215e-15 0)
(3 1.055201366e-15 0)
(3 1.667495045e-15 0)
(3 9.188690606e-16 0)
(3 2.021958869e-16 0)
(3 2.838852843e-16 0)
(3 -1.336334466e-15 0)
(3 -2.012787243e-15 0)
(3 -5.23923022e-15 0)
(3 -5.256432015e-15 0)
(3 -5.258039573e-15 0)
(3 -4.414372692e-15 0)
(3 -3.837200451e-15 0)
(3 -3.928430452e-15 0)
(3 -3.316688939e-15 0)
(3 -4.087756555e-15 0)
(3 -3.289827611e-15 0)
(3 -2.654263898e-15 0)
(3 -2.094321381e-15 0)
(3 -3.211386686e-15 0)
(3 2.041738346e-15 0)
(3 7.736343946e-15 0)
(3 7.685330862e-15 0)
(3 6.702936105e-15 0)
(3 6.145739184e-15 0)
(3 6.88866334e-15 0)
(3 5.51843981e-15 0)
(3 4.700752067e-15 0)
(3 2.086895208e-15 0)
(3 -7.016253133e-16 0)
(3 -1.200986618e-15 0)
(3 -1.098064712e-15 0)
(3 -1.048976929e-15 0)
(3 -6.761562291e-16 0)
(3 2.408622377e-16 0)
(3 7.771215803e-15 0)
(3 6.102264832e-15 0)
(3 3.690738261e-15 0)
(3 2.373231514e-15 0)
(3 2.36282017e-16 0)
(3 -5.749277427e-16 0)
(3 -9.924193303e-16 0)
(3 -1.642163037e-15 0)
(3 -2.485294453e-15 0)
(3 -2.561828657e-15 0)
(3 -2.217763833e-15 0)
(3 -2.266322716e-15 0)
(3 -4.061186436e-15 0)
(3 -4.728283789e-15 0)
(3 -4.938530262e-15 0)
(3 -3.44387631e-15 0)
(3 -3.165745245e-15 0)
(3 -3.049034512e-15 0)
(3 -2.0754353e-15 0)
(3 2.029742999e-15 0)
(3 4.303732086e-15 0)
(3 5.509253916e-15 0)
(3 5.377426607e-15 0)
(3 4.940299439e-15 0)
(3 6.10923858e-15 0)
(3 6.124840116e-15 0)
(3 5.297932147e-15 0)
(3 3.895778855e-15 0)
(3 2.919249405e-15 0)
(3 3.857461961e-15 0)
(3 3.152479696e-15 0)
(3 2.183095152e-15 0)
(3 2.095228471e-15 0)
(3 2.585212588e-15 0)
(3 1.171658849e-14 0)
(3 9.875251059e-15 0)
(3 7.357411951e-15 0)
(3 6.409091411e-15 0)
(3 3.784421349e-15 0)
(3 5.012401086e-16 0)
(3 3.066540429e-16 0)
(3 1.5924138e-16 0)
(3 -9.076626539e-16 0)
(3 -2.376563914e-15 0)
(3 -3.053239239e-15 0)
(3 -4.669849702e-15 0)
(3 -4.534594449e-15 0)
(3 -4.10286781e-15 0)
(3 -3.288659077e-15 0)
(3 -2.372454319e-15 0)
(3 -1.580090686e-15 0)
(3 -2.293351735e-15 0)
(3 -2.855658662e-15 0)
(3 -7.792703579e-16 0)
(3 -8.021252647e-16 0)
(3 1.684389979e-15 0)
(3 5.031621438e-15 0)
(3 5.348812684e-15 0)
(3 5.805474359e-15 0)
(3 5.87433827e-15 0)
(3 5.227815967e-15 0)
(3 5.522056748e-15 0)
(3 5.666547659e-15 0)
(3 6.212319478e-15 0)
(3 4.809022947e-15 0)
(3 4.014553883e-15 0)
(3 3.555905517e-15 0)
(3 3.846951959e-15 0)
(3 1.037193674e-14 0)
(3 9.24982904e-15 0)
(3 7.501771431e-15 0)
(3 5.42337428e-15 0)
(3 3.334621237e-15 0)
(3 2.616502941e-15 0)
(3 1.530234187e-15 0)
(3 -1.843423251e-15 0)
(3 -3.097936184e-15 0)
(3 -3.578844597e-15 0)
(3 -3.89516808e-15 0)
(3 -5.429589553e-15 0)
(3 -6.032385177e-15 0)
(3 -6.011530255e-15 0)
(3 -5.362636878e-15 0)
(3 -4.707576594e-15 0)
(3 -5.433904652e-15 0)
(3 -6.67963384e-15 0)
(3 -6.449391249e-15 0)
(3 -3.782164455e-15 0)
(3 -2.728262556e-15 0)
(3 -2.903562206e-15 0)
(3 1.197365943e-15 0)
(3 2.968653787e-15 0)
(3 3.34214623e-15 0)
(3 3.462551888e-15 0)
(3 3.112118048e-15 0)
(3 3.313622537e-15 0)
(3 4.292901145e-15 0)
(3 4.949346067e-15 0)
(3 4.614890121e-15 0)
(3 4.563461347e-15 0)
(3 4.464895165e-15 0)
(3 4.237534374e-15 0)
(3 8.313085255e-15 0)
(3 5.167038177e-15 0)
(3 3.692640235e-15 0)
(3 3.094559074e-15 0)
(3 2.052261013e-15 0)
(3 6.462942161e-16 0)
(3 -1.099852646e-15 0)
(3 -3.150178631e-15 0)
(3 -4.336007562e-15 0)
(3 -4.972872717e-15 0)
(3 -5.422485504e-15 0)
(3 -7.673834946e-15 0)
(3 -7.767306582e-15 0)
(3 -7.357451647e-15 0)
(3 -6.947405488e-15 0)
(3 -6.791426462e-15 0)
(3 -8.293864971e-15 0)
(3 -8.440123154e-15 0)
(3 -7.06283565e-15 0)
(3 -6.237078273e-15 0)
(3 -7.585831368e-15 0)
(3 -5.970180087e-15 0)
(3 -1.885186225e-15 0)
(3 -1.20774229e-15 0)
(3 -1.709344587e-15 0)
(3 -8.770098533e-16 0)
(3 1.223179679e-15 0)
(3 3.083196209e-15 0)
(3 3.701899852e-15 0)
(3 4.497103256e-15 0)
(3 4.201386212e-15 0)
(3 3.365923052e-15 0)
(3 1.767418788e-15 0)
(3 3.802146022e-16 0)
(3 5.509734302e-15 0)
(3 4.757225273e-15 0)
(3 3.759878073e-15 0)
(3 2.504529298e-15 0)
(3 1.574204386e-15 0)
(3 -7.852379058e-16 0)
(3 -2.87879917e-15 0)
(3 -4.263889638e-15 0)
(3 -4.738384486e-15 0)
(3 -5.53613222e-15 0)
(3 -6.474145748e-15 0)
(3 -6.848717181e-15 0)
(3 -7.034575412e-15 0)
(3 -6.849415533e-15 0)
(3 -7.503008049e-15 0)
(3 -9.142742613e-15 0)
(3 -8.910820896e-15 0)
(3 -8.554535102e-15 0)
(3 -7.982042244e-15 0)
(3 -8.105512077e-15 0)
(3 -5.938706846e-15 0)
(3 -4.381186171e-15 0)
(3 -1.804922493e-15 0)
(3 -1.75448848e-15 0)
(3 9.350396144e-16 0)
(3 1.459085622e-15 0)
(3 8.54970473e-16 0)
(3 3.818959987e-16 0)
(3 2.403836911e-15 0)
(3 3.330478063e-15 0)
(3 3.437017261e-15 0)
(3 2.866727661e-15 0)
(3 1.456736243e-15 0)
(3 8.503923344e-16 0)
(3 6.286194555e-15 0)
(3 5.73448061e-15 0)
(3 3.838758831e-15 0)
(3 1.057308776e-15 0)
(3 9.520628152e-16 0)
(3 2.304446795e-16 0)
(3 -1.656152478e-16 0)
(3 -2.206355609e-15 0)
(3 -4.628178647e-15 0)
(3 -5.824309116e-15 0)
(3 -5.689665436e-15 0)
(3 -5.603912129e-15 0)
(3 -6.502762937e-15 0)
(3 -7.565149431e-15 0)
(3 -8.038887539e-15 0)
(3 -7.750201448e-15 0)
(3 -6.952466278e-15 0)
(3 -6.3245431e-15 0)
(3 -7.359083427e-15 0)
(3 -7.977169386e-15 0)
(3 -6.962714028e-15 0)
(3 -3.409989739e-15 0)
(3 -2.47949688e-15 0)
(3 -1.618375389e-15 0)
(3 -5.091451011e-16 0)
(3 -7.128150027e-16 0)
(3 -9.538431017e-16 0)
(3 -2.356624836e-16 0)
(3 -1.148390109e-16 0)
(3 1.331463932e-16 0)
(3 8.345247277e-16 0)
(3 1.732353256e-15 0)
(3 2.401652694e-15 0)
(3 8.303832262e-16 0)
(3 7.469957643e-15 0)
(3 5.187179889e-15 0)
(3 3.658451442e-15 0)
(3 1.861044002e-15 0)
(3 1.929978748e-15 0)
(3 1.935082603e-15 0)
(3 2.120255932e-15 0)
(3 1.54572096e-15 0)
(3 7.597581887e-16 0)
(3 -8.944282776e-16 0)
(3 -1.821510792e-15 0)
(3 -2.737502733e-15 0)
(3 -4.170569779e-15 0)
(3 -8.421302596e-15 0)
(3 -9.93796465e-15 0)
(3 -9.518647413e-15 0)
(3 -9.079006778e-15 0)
(3 -8.279847668e-15 0)
(3 -7.32646805e-15 0)
(3 -5.344202541e-15 0)
(3 -4.725408781e-15 0)
(3 -4.495862869e-15 0)
(3 -2.6970631e-15 0)
(3 -1.445683989e-15 0)
(3 -9.443104007e-16 0)
(3 -1.623259255e-16 0)
(3 -3.972428692e-16 0)
(3 -7.922545094e-16 0)
(3 -1.156543323e-15 0)
(3 1.56935069e-15 0)
(3 1.773455508e-15 0)
(3 1.570112602e-15 0)
(3 1.275982672e-15 0)
(3 1.177803352e-15 0)
(3 8.677863779e-15 0)
(3 7.766292679e-15 0)
(3 7.612579201e-15 0)
(3 7.485148597e-15 0)
(3 5.078881284e-15 0)
(3 3.442225795e-15 0)
(3 2.328122259e-15 0)
(3 1.853002952e-15 0)
(3 1.48086659e-15 0)
(3 1.058279947e-15 0)
(3 -3.120327352e-16 0)
(3 -1.347899657e-15 0)
(3 -4.017170522e-15 0)
(3 -5.721223456e-15 0)
(3 -8.663063358e-15 0)
(3 -1.127110319e-14 0)
(3 -1.146977301e-14 0)
(3 -1.002652025e-14 0)
(3 -9.018418024e-15 0)
(3 -8.762037789e-15 0)
(3 -9.63284577e-15 0)
(3 -9.911624184e-15 0)
(3 -7.546158663e-15 0)
(3 -3.107038167e-15 0)
(3 -2.731501924e-16 0)
(3 -2.230937349e-16 0)
(3 -1.114111883e-16 0)
(3 -3.885844459e-16 0)
(3 -1.570870154e-15 0)
(3 -8.118598771e-16 0)
(3 8.457441915e-16 0)
(3 2.963000372e-16 0)
(3 1.381480874e-15 0)
(3 1.889414191e-15 0)
(3 1.129560142e-14 0)
(3 1.05323529e-14 0)
(3 1.021596673e-14 0)
(3 9.039508545e-15 0)
(3 6.30454035e-15 0)
(3 4.137589015e-15 0)
(3 2.470715217e-15 0)
(3 1.191145209e-15 0)
(3 1.367205862e-16 0)
(3 -1.257015214e-15 0)
(3 -2.022249069e-15 0)
(3 -3.395274856e-15 0)
(3 -4.886130734e-15 0)
(3 -5.266379557e-15 0)
(3 -5.859259359e-15 0)
(3 -7.047174146e-15 0)
(3 -9.984385089e-15 0)
(3 -1.054768293e-14 0)
(3 -1.057206979e-14 0)
(3 -1.007516746e-14 0)
(3 -1.021442088e-14 0)
(3 -1.013555527e-14 0)
(3 -1.019812649e-14 0)
(3 -8.478180475e-15 0)
(3 -7.204179459e-15 0)
(3 -4.582307086e-15 0)
(3 -3.170263092e-15 0)
(3 -2.560371591e-15 0)
(3 -2.560728027e-15 0)
(3 -2.999983878e-15 0)
(3 -2.414762273e-15 0)
(3 -3.164079062e-16 0)
(3 4.738639984e-16 0)
(3 1.009560376e-15 0)
(3 4.818965164e-15 0)
(3 6.345792908e-15 0)
(3 7.126709101e-15 0)
(3 6.968124301e-15 0)
(3 6.717532115e-15 0)
(3 6.062471761e-15 0)
(3 4.592550813e-15 0)
(3 2.566216154e-15 0)
(3 -4.820779914e-17 0)
(3 -4.463688246e-16 0)
(3 -1.348664238e-15 0)
(3 -1.93793903e-15 0)
(3 -1.975802286e-15 0)
(3 -2.572028313e-15 0)
(3 -2.102264036e-15 0)
(3 -3.936099524e-15 0)
(3 -5.002179801e-15 0)
(3 -6.09114626e-15 0)
(3 -7.19222783e-15 0)
(3 -7.86075622e-15 0)
(3 -7.362848076e-15 0)
(3 -6.994772153e-15 0)
(3 -7.723181826e-15 0)
(3 -9.14894842e-15 0)
(3 -9.52047237e-15 0)
(3 -8.080937011e-15 0)
(3 -5.189093848e-15 0)
(3 -2.465887394e-15 0)
(3 -1.683625629e-15 0)
(3 -1.27452296e-15 0)
(3 -4.878267407e-16 0)
(3 3.724587761e-16 0)
(3 -5.856122224e-16 0)
(3 1.031927239e-15 0)
(3 1.928225654e-15 0)
(3 2.315992449e-15 0)
(3 2.912667146e-15 0)
(3 3.484396943e-15 0)
(3 4.326468624e-15 0)
(3 3.860627826e-15 0)
(3 2.986320177e-15 0)
(3 2.058372665e-15 0)
(3 1.673053745e-15 0)
(3 1.351664703e-15 0)
(3 1.030824737e-15 0)
(3 -2.265596223e-16 0)
(3 -7.699428009e-16 0)
(3 -1.057878474e-15 0)
(3 -2.32973102e-15 0)
(3 -3.758684282e-15 0)
(3 -2.787820205e-15 0)
(3 -3.655469512e-15 0)
(3 -4.967141033e-15 0)
(3 -4.814244185e-15 0)
(3 -4.438948824e-15 0)
(3 -4.875879263e-15 0)
(3 -5.428649577e-15 0)
(3 -5.619075769e-15 0)
(3 -6.362842434e-15 0)
(3 -7.766410523e-15 0)
(3 -6.497957152e-15 0)
(3 -6.093827764e-15 0)
(3 -3.011858169e-15 0)
(3 -1.624822511e-15 0)
(3 -1.081916502e-15 0)
(3 -1.908112814e-15 0)
(3 -1.298829796e-15 0)
(3 5.474092637e-16 0)
(3 2.540039446e-15 0)
(3 2.782591124e-15 0)
(3 3.371726857e-15 0)
(3 3.712842721e-15 0)
(3 4.143204455e-15 0)
(3 3.874355546e-15 0)
(3 4.055300807e-15 0)
(3 3.153368422e-15 0)
(3 1.845156404e-15 0)
(3 8.418727961e-17 0)
(3 -9.820375502e-16 0)
(3 -1.67155291e-15 0)
(3 -2.698803533e-15 0)
(3 -4.673989221e-15 0)
(3 -6.483051275e-15 0)
(3 -5.626841067e-15 0)
(3 -4.029600097e-15 0)
(3 -5.030953684e-15 0)
(3 -5.527914905e-15 0)
(3 -5.85921944e-15 0)
(3 -5.917058083e-15 0)
(3 -5.224225992e-15 0)
(3 -4.965283815e-15 0)
(3 -4.725203676e-15 0)
(3 -4.778481645e-15 0)
(3 -4.944672613e-15 0)
(3 -4.580452683e-15 0)
(3 -4.102805355e-15 0)
(3 -2.490182936e-15 0)
(3 -1.469113839e-15 0)
(3 -7.92124973e-16 0)
(3 -1.183364741e-15 0)
(3 -2.476649196e-16 0)
(3 1.191043587e-15 0)
(3 2.652607741e-15 0)
(3 4.627423947e-15 0)
(3 3.736559074e-15 0)
(3 3.899637933e-15 0)
(3 3.597779025e-15 0)
(3 2.925829885e-15 0)
(3 1.948605987e-15 0)
(3 1.173732085e-15 0)
(3 1.940184147e-15 0)
(3 1.572965019e-15 0)
(3 5.048227427e-16 0)
(3 3.158549479e-16 0)
(3 2.812339696e-16 0)
(3 -3.344524163e-16 0)
(3 -2.01650877e-15 0)
(3 -7.82493782e-16 0)
(3 -2.153459788e-16 0)
(3 -1.630706161e-15 0)
(3 -1.530278722e-15 0)
(3 -2.280582345e-15 0)
(3 -3.258262634e-15 0)
(3 -5.304996576e-15 0)
(3 -6.220693414e-15 0)
(3 -6.942369857e-15 0)
(3 -7.153684178e-15 0)
(3 -4.532562111e-15 0)
(3 -3.356459261e-15 0)
(3 -3.027465241e-15 0)
(3 -1.943594715e-15 0)
(3 -1.162416718e-15 0)
(3 -8.727906134e-16 0)
(3 5.094618485e-16 0)
(3 2.153466475e-15 0)
(3 2.089127998e-15 0)
(3 2.34601111e-15 0)
(3 2.215664944e-15 0)
(3 2.890913152e-15 0)
(3 1.125877159e-15 0)
(3 1.105573905e-15 0)
(3 1.49580184e-15 0)
(3 9.497762358e-17 0)
(3 -1.698274592e-15 0)
(3 -2.345796683e-15 0)
(3 -1.49429827e-15 0)
(3 -8.657822579e-16 0)
(3 -8.987923866e-16 0)
(3 -1.612080642e-16 0)
(3 2.226763409e-16 0)
(3 -2.387131526e-16 0)
(3 -9.966577362e-16 0)
(3 -2.747899725e-16 0)
(3 1.000436244e-15 0)
(3 1.204708873e-15 0)
(3 1.368430614e-15 0)
(3 3.077331371e-15 0)
(3 2.052877592e-15 0)
(3 -2.272683819e-16 0)
(3 -2.819077566e-15 0)
(3 -3.990963607e-15 0)
(3 -4.13760268e-15 0)
(3 -3.815630002e-15 0)
(3 -3.008559107e-15 0)
(3 -1.929584984e-15 0)
(3 -7.370987499e-16 0)
(3 -1.90031954e-16 0)
(3 6.857506999e-16 0)
(3 7.039207425e-16 0)
(3 7.043961119e-16 0)
(3 1.726856855e-15 0)
(3 1.435707243e-15 0)
(3 1.116302492e-15 0)
(3 -8.249520855e-16 0)
(3 -1.153212705e-15 0)
(3 -7.050268994e-16 0)
(3 5.672289741e-17 0)
(3 1.165943486e-17 0)
(3 -6.251152494e-16 0)
(3 4.086762782e-16 0)
(3 1.523007117e-15 0)
(3 1.47785869e-15 0)
(3 2.474424841e-15 0)
(3 4.444562934e-15 0)
(3 5.147512742e-15 0)
(3 5.932454722e-15 0)
(3 5.602194425e-15 0)
(3 3.996295609e-15 0)
(3 3.31395916e-15 0)
(3 3.972158634e-15 0)
(3 4.699583883e-15 0)
(3 5.25886535e-15 0)
(3 8.430486906e-16 0)
(3 -2.311826413e-15 0)
(3 -3.20279792e-15 0)
(3 -3.061723692e-15 0)
(3 -1.741538773e-15 0)
(3 -1.739841456e-15 0)
(3 -2.8371254e-15 0)
(3 -2.938407108e-15 0)
(3 -1.71722027e-15 0)
(3 -1.386380166e-15 0)
(3 -2.539482599e-16 0)
(3 1.173203515e-15 0)
(3 1.064210898e-16 0)
(3 -1.902435428e-15 0)
(3 -3.447160254e-15 0)
(3 -4.673997342e-15 0)
(3 -4.491628224e-15 0)
(3 -3.510287844e-15 0)
(3 -1.697367241e-15 0)
(3 8.323882628e-16 0)
(3 2.488534486e-15 0)
(3 3.654301819e-15 0)
(3 3.660500934e-15 0)
(3 4.04175065e-15 0)
(3 4.265874341e-15 0)
(3 5.539124391e-15 0)
(3 8.499925612e-15 0)
(3 1.169579608e-14 0)
(3 1.145678638e-14 0)
(3 9.426638272e-15 0)
(3 7.822404573e-15 0)
(3 6.439239902e-15 0)
(3 5.913494625e-15 0)
(3 4.935721058e-15 0)
(3 2.811972212e-15 0)
(3 7.422977955e-16 0)
(3 -1.858012578e-16 0)
(3 5.895429519e-16 0)
(3 4.41983409e-16 0)
(3 -6.372919836e-18 0)
(3 -2.203453146e-15 0)
(3 -2.988775473e-15 0)
(3 -3.681958079e-15 0)
(3 -2.63944115e-15 0)
(3 -2.11715503e-15 0)
(3 -1.5088843e-15 0)
(3 -7.549886306e-15 0)
(3 -5.099252742e-15 0)
(3 -4.450248161e-15 0)
(3 -3.34816158e-15 0)
(3 -3.282966782e-15 0)
(3 -2.887736528e-15 0)
(3 -2.228363714e-15 0)
(3 -1.459094289e-15 0)
(3 2.7222685e-16 0)
(3 3.480330986e-16 0)
(3 3.145423986e-16 0)
(3 9.726368625e-17 0)
(3 7.334009638e-16 0)
(3 3.906026233e-15 0)
(3 5.392966722e-15 0)
(3 7.790051352e-15 0)
(3 8.834900004e-15 0)
(3 8.710211245e-15 0)
(3 8.468361739e-15 0)
(3 8.494742134e-15 0)
(3 7.229422163e-15 0)
(3 4.331676906e-15 0)
(3 4.385445848e-15 0)
(3 3.733106223e-15 0)
(3 4.062401784e-15 0)
(3 4.177090522e-15 0)
(3 2.576452035e-15 0)
(3 2.728632251e-15 0)
(3 2.675664528e-15 0)
(3 1.748693329e-15 0)
(3 6.692242642e-16 0)
(3 8.627009468e-16 0)
(3 9.408764908e-16 0)
(3 1.604719287e-15 0)
(3 -7.224011259e-15 0)
(3 -6.628623671e-15 0)
(3 -5.228649162e-15 0)
(3 -3.867694825e-15 0)
(3 -3.340135265e-15 0)
(3 -2.415769656e-15 0)
(3 -2.655819041e-15 0)
(3 -1.969139107e-15 0)
(3 -8.003959622e-16 0)
(3 6.063600172e-16 0)
(3 2.613968972e-15 0)
(3 3.4922392e-15 0)
(3 4.474523766e-15 0)
(3 5.379543846e-15 0)
(3 6.78154419e-15 0)
(3 7.251856773e-15 0)
(3 7.050970569e-15 0)
(3 8.336860043e-15 0)
(3 8.694462401e-15 0)
(3 8.839959366e-15 0)
(3 8.557552828e-15 0)
(3 6.429105495e-15 0)
(3 4.9504366e-15 0)
(3 4.459840289e-15 0)
(3 6.331403828e-15 0)
(3 7.187736764e-15 0)
(3 5.513034989e-15 0)
(3 5.732496857e-15 0)
(3 6.085906738e-15 0)
(3 5.273794608e-15 0)
(3 3.316380023e-15 0)
(3 1.966298904e-15 0)
(3 1.110714481e-15 0)
(3 7.550257325e-16 0)
(3 -4.861049808e-15 0)
(3 -5.084334897e-15 0)
(3 -5.168309826e-15 0)
(3 -5.285230151e-15 0)
(3 -4.917819799e-15 0)
(3 -4.058566897e-15 0)
(3 -3.460768747e-15 0)
(3 -3.26788518e-15 0)
(3 -1.171126412e-15 0)
(3 5.401274993e-17 0)
(3 1.487045189e-15 0)
(3 3.190728167e-15 0)
(3 4.317682177e-15 0)
(3 5.810614566e-15 0)
(3 7.127250483e-15 0)
(3 7.118037739e-15 0)
(3 8.286820449e-15 0)
(3 1.008145603e-14 0)
(3 1.183599184e-14 0)
(3 1.175812223e-14 0)
(3 1.120440063e-14 0)
(3 9.552007411e-15 0)
(3 9.106077877e-15 0)
(3 1.006254851e-14 0)
(3 9.759384388e-15 0)
(3 8.344091703e-15 0)
(3 6.518570699e-15 0)
(3 6.072861755e-15 0)
(3 4.482617912e-15 0)
(3 3.92979637e-15 0)
(3 2.529481801e-15 0)
(3 1.281084734e-16 0)
(3 -1.852225855e-15 0)
(3 -3.056217494e-15 0)
(3 -7.042986393e-15 0)
(3 -6.236832708e-15 0)
(3 -5.62106399e-15 0)
(3 -5.386336811e-15 0)
(3 -4.749934144e-15 0)
(3 -4.336914305e-15 0)
(3 -3.834675864e-15 0)
(3 -4.693215955e-15 0)
(3 -3.450953471e-15 0)
(3 5.681618268e-16 0)
(3 2.553059542e-15 0)
(3 3.780133316e-15 0)
(3 4.830536804e-15 0)
(3 6.816809955e-15 0)
(3 7.126455907e-15 0)
(3 7.369006743e-15 0)
(3 8.851172218e-15 0)
(3 1.051254847e-14 0)
(3 1.170577672e-14 0)
(3 1.15136182e-14 0)
(3 1.147430486e-14 0)
(3 1.143733606e-14 0)
(3 1.230045056e-14 0)
(3 1.214513734e-14 0)
(3 1.132335598e-14 0)
(3 9.116835628e-15 0)
(3 5.058846437e-15 0)
(3 2.672650784e-15 0)
(3 2.848137973e-15 0)
(3 3.72571584e-15 0)
(3 3.568745693e-15 0)
(3 2.898546418e-15 0)
(3 2.08094207e-15 0)
(3 3.09439694e-16 0)
(3 -1.118601763e-14 0)
(3 -1.107713051e-14 0)
(3 -1.081452151e-14 0)
(3 -1.019502181e-14 0)
(3 -8.975716856e-15 0)
(3 -6.711733379e-15 0)
(3 -5.20297453e-15 0)
(3 -5.52768538e-15 0)
(3 -6.117198457e-15 0)
(3 -3.317772883e-16 0)
(3 2.267754686e-15 0)
(3 4.310522764e-15 0)
(3 5.340384155e-15 0)
(3 6.033408406e-15 0)
(3 6.603912414e-15 0)
(3 7.25828982e-15 0)
(3 7.517062192e-15 0)
(3 8.62241042e-15 0)
(3 9.9247178e-15 0)
(3 1.067505253e-14 0)
(3 1.090039222e-14 0)
(3 1.189050349e-14 0)
(3 1.126889722e-14 0)
(3 1.045765983e-14 0)
(3 9.605855622e-15 0)
(3 8.492215098e-15 0)
(3 7.769589649e-15 0)
(3 6.820717239e-15 0)
(3 5.511953232e-15 0)
(3 4.997565446e-15 0)
(3 4.131584873e-15 0)
(3 2.992076541e-15 0)
(3 2.32838508e-15 0)
(3 1.305176023e-15 0)
(3 -1.368797235e-14 0)
(3 -1.331013452e-14 0)
(3 -1.259913176e-14 0)
(3 -1.160589849e-14 0)
(3 -9.602612193e-15 0)
(3 -5.914905806e-15 0)
(3 -2.947452309e-15 0)
(3 -4.232183873e-17 0)
(3 -4.962602258e-16 0)
(3 1.509924707e-15 0)
(3 3.554924298e-15 0)
(3 4.730514563e-15 0)
(3 5.922208044e-15 0)
(3 6.04959459e-15 0)
(3 6.386186853e-15 0)
(3 6.888857841e-15 0)
(3 7.194469048e-15 0)
(3 7.467840796e-15 0)
(3 8.133904716e-15 0)
(3 9.484107004e-15 0)
(3 9.781590433e-15 0)
(3 1.013119822e-14 0)
(3 1.049990663e-14 0)
(3 1.022380228e-14 0)
(3 8.193496659e-15 0)
(3 6.046299131e-15 0)
(3 6.188535171e-15 0)
(3 5.761065543e-15 0)
(3 5.307811813e-15 0)
(3 4.537278117e-15 0)
(3 3.602445655e-15 0)
(3 2.775343499e-15 0)
(3 1.788348151e-15 0)
(3 2.192353834e-15 0)
(3 -1.394282051e-14 0)
(3 -1.299527666e-14 0)
(3 -1.118600514e-14 0)
(3 -5.658998217e-15 0)
(3 -8.249610595e-16 0)
(3 -1.08423251e-16 0)
(3 1.371961355e-15 0)
(3 4.166149897e-15 0)
(3 5.409881995e-15 0)
(3 6.798891372e-15 0)
(3 6.825590249e-15 0)
(3 6.769866476e-15 0)
(3 7.484817706e-15 0)
(3 8.440039379e-15 0)
(3 8.986913195e-15 0)
(3 9.106533592e-15 0)
(3 9.100424407e-15 0)
(3 8.929720132e-15 0)
(3 8.937280138e-15 0)
(3 9.45260263e-15 0)
(3 9.831505916e-15 0)
(3 9.887865486e-15 0)
(3 1.019516916e-14 0)
(3 1.030087515e-14 0)
(3 9.241858278e-15 0)
(3 8.04679142e-15 0)
(3 7.704958168e-15 0)
(3 8.022717008e-15 0)
(3 8.270754094e-15 0)
(3 7.481349205e-15 0)
(3 5.902000825e-15 0)
(3 5.044138098e-15 0)
(3 3.818217e-15 0)
(3 3.146664544e-15 0)
(3 -7.508593182e-15 0)
(3 -7.836078303e-15 0)
(3 -5.222643847e-15 0)
(3 -8.969554016e-16 0)
(3 1.124840047e-15 0)
(3 3.071146437e-15 0)
(3 4.859917114e-15 0)
(3 5.664217821e-15 0)
(3 6.764703931e-15 0)
(3 7.351809962e-15 0)
(3 7.585019251e-15 0)
(3 7.697225509e-15 0)
(3 8.422822737e-15 0)
(3 9.557214892e-15 0)
(3 1.01707105e-14 0)
(3 1.011461484e-14 0)
(3 9.657903599e-15 0)
(3 9.272185784e-15 0)
(3 9.161776217e-15 0)
(3 1.04465852e-14 0)
(3 1.173184769e-14 0)
(3 1.20056029e-14 0)
(3 1.217895294e-14 0)
(3 1.150468755e-14 0)
(3 1.021666224e-14 0)
(3 1.000527613e-14 0)
(3 9.656230048e-15 0)
(3 8.821403659e-15 0)
(3 8.816167153e-15 0)
(3 6.813856854e-15 0)
(3 5.538214681e-15 0)
(3 5.127839782e-15 0)
(3 4.6381667e-15 0)
(3 4.349836313e-15 0)
(3 1.634839218e-15 0)
(3 2.092529361e-15 0)
(3 3.464304006e-15 0)
(3 3.925669274e-15 0)
(3 3.062577421e-15 0)
(3 3.901184892e-15 0)
(3 5.268635907e-15 0)
(3 5.442626748e-15 0)
(3 5.956280287e-15 0)
(3 6.180341921e-15 0)
(3 6.91194738e-15 0)
(3 7.664294543e-15 0)
(3 8.269196162e-15 0)
(3 7.792402769e-15 0)
(3 8.158352029e-15 0)
(3 8.939047059e-15 0)
(3 8.795923437e-15 0)
(3 7.019179185e-15 0)
(3 6.699347759e-15 0)
(3 7.896519016e-15 0)
(3 7.23868418e-15 0)
(3 5.169905025e-15 0)
(3 4.929641644e-15 0)
(3 5.99720562e-15 0)
(3 6.731340078e-15 0)
(3 7.214533562e-15 0)
(3 7.414799081e-15 0)
(3 5.798815847e-15 0)
(3 5.31238642e-15 0)
(3 4.855051088e-15 0)
(3 4.333513613e-15 0)
(3 3.067137008e-15 0)
(3 3.697144808e-15 0)
(3 6.067472937e-15 0)
(3 1.214728538e-14 0)
(3 9.453904726e-15 0)
(3 7.124646809e-15 0)
(3 5.17172169e-15 0)
(3 4.980406367e-15 0)
(3 5.871779844e-15 0)
(3 6.559655765e-15 0)
(3 7.072549712e-15 0)
(3 6.566105651e-15 0)
(3 6.431700331e-15 0)
(3 6.640393192e-15 0)
(3 6.904779262e-15 0)
(3 6.520673141e-15 0)
(3 5.976253751e-15 0)
(3 5.959727796e-15 0)
(3 7.371168698e-15 0)
(3 9.02876445e-15 0)
(3 6.228071704e-15 0)
(3 4.255532632e-15 0)
(3 1.399924453e-15 0)
(3 3.166135111e-16 0)
(3 9.619321156e-16 0)
(3 2.480124373e-15 0)
(3 5.453824982e-15 0)
(3 7.713610999e-15 0)
(3 8.627342075e-15 0)
(3 8.26994747e-15 0)
(3 7.476925171e-15 0)
(3 7.338326888e-15 0)
(3 6.176013495e-15 0)
(3 5.257755971e-15 0)
(3 7.107358867e-15 0)
(3 7.488183999e-15 0)
(3 6.118427648e-15 0)
(3 6.793005019e-15 0)
(3 8.25129495e-15 0)
(3 9.579517472e-15 0)
(3 7.715418268e-15 0)
(3 6.471307637e-15 0)
(3 1.637612579e-15 0)
(3 -2.674270133e-15 0)
(3 -2.82648567e-15 0)
(3 -3.424020578e-15 0)
(3 -5.695022072e-15 0)
(3 -7.156861335e-15 0)
(3 -7.755325327e-15 0)
(3 -6.43019828e-15 0)
(3 -7.55159443e-15 0)
(3 -6.272161268e-15 0)
(3 -6.272895876e-15 0)
(3 -4.817424652e-15 0)
(3 -1.988281716e-15 0)
(3 8.883368998e-16 0)
(3 1.626381304e-15 0)
(3 4.667305508e-15 0)
(3 5.956280943e-15 0)
(3 1.984583553e-15 0)
(3 2.119300013e-15 0)
(3 9.2593773e-15 0)
(3 6.70271864e-15 0)
(3 4.935107489e-15 0)
(3 4.201273317e-15 0)
(3 3.907776115e-15 0)
(3 2.745238502e-15 0)
(3 3.06463362e-15 0)
(3 3.830629613e-15 0)
(3 3.729736669e-15 0)
(3 4.029199247e-15 0)
(3 3.739056498e-15 0)
(3 -6.441659854e-15 0)
(3 -9.056704566e-15 0)
(3 -8.002350448e-15 0)
(3 5.694280209e-15 0)
(3 2.160011831e-16 0)
(3 -1.339388028e-15 0)
(3 -2.866130551e-15 0)
(3 -5.65767972e-15 0)
(3 -6.479085582e-15 0)
(3 -8.764093016e-15 0)
(3 -7.612812233e-15 0)
(3 -7.057531573e-15 0)
(3 -5.570545486e-15 0)
(3 -4.317841706e-15 0)
(3 -2.658633189e-15 0)
(3 -1.035752186e-15 0)
(3 -1.435926973e-15 0)
(3 1.760518609e-16 0)
(3 3.54709418e-16 0)
(3 -2.091430672e-16 0)
(3 -1.095290511e-15 0)
(3 2.966938276e-15 0)
(3 1.4897641e-15 0)
(3 2.199179488e-15 0)
(3 3.041196993e-15 0)
(3 5.933417122e-16 0)
(3 1.024585344e-15 0)
(3 1.830777679e-15 0)
(3 3.168987425e-15 0)
(3 3.488659668e-15 0)
(3 7.67121171e-16 0)
(3 2.635552794e-15 0)
(3 4.324397015e-15 0)
(3 -6.974534144e-16 0)
(3 -3.673740142e-15 0)
(3 -8.503205104e-15 0)
(3 6.036226808e-15 0)
(3 8.948071e-16 0)
(3 -4.067627592e-15 0)
(3 -6.403752233e-15 0)
(3 -7.582895252e-15 0)
(3 -8.372045376e-15 0)
(3 -6.710892327e-15 0)
(3 -6.744497764e-15 0)
(3 -5.541765831e-15 0)
(3 -4.192818134e-15 0)
(3 -1.048435541e-15 0)
(3 1.660937282e-16 0)
(3 -1.033673728e-15 0)
(3 -3.451046043e-15 0)
(3 -3.324255052e-15 0)
(3 -3.903670177e-15 0)
(3 -6.345784178e-15 0)
(3 -2.702976722e-15 0)
(3 9.914573073e-17 0)
(3 -2.168330573e-15 0)
(3 -1.547331724e-15 0)
(3 -1.481955178e-15 0)
(3 8.382678391e-16 0)
(3 6.782517535e-16 0)
(3 2.095958196e-15 0)
(3 2.680944743e-15 0)
(3 1.184550446e-15 0)
(3 2.446769467e-16 0)
(3 3.687856321e-15 0)
(3 4.546027999e-15 0)
(3 2.836065124e-15 0)
(3 -2.057813683e-15 0)
(3 -8.546350075e-15 0)
(3 7.411125743e-15 0)
(3 4.79479341e-15 0)
(3 2.087067078e-15 0)
(3 -1.482938068e-15 0)
(3 -2.279744993e-15 0)
(3 -4.598954874e-15 0)
(3 -5.025508362e-15 0)
(3 -4.782083235e-15 0)
(3 -4.020121645e-15 0)
(3 -3.553946929e-15 0)
(3 -2.910696834e-15 0)
(3 -1.934949215e-15 0)
(3 -2.841904818e-15 0)
(3 -2.387700428e-15 0)
(3 -3.883715628e-15 0)
(3 -6.257708455e-15 0)
(3 -7.929292301e-15 0)
(3 -7.033592222e-15 0)
(3 -7.978633419e-15 0)
(3 -8.920433221e-15 0)
(3 -6.769000738e-15 0)
(3 -1.399250933e-15 0)
(3 7.306618091e-16 0)
(3 2.607476691e-15 0)
(3 4.007073305e-15 0)
(3 2.633205971e-15 0)
(3 7.103632791e-16 0)
(3 -1.911222359e-17 0)
(3 3.671686252e-15 0)
(3 6.278609851e-15 0)
(3 5.760069116e-15 0)
(3 1.10104843e-15 0)
(3 -1.907660221e-15 0)
(3 8.631770823e-15 0)
(3 8.13719233e-15 0)
(3 6.375196554e-15 0)
(3 4.665971775e-15 0)
(3 1.051090023e-15 0)
(3 -3.983423436e-16 0)
(3 -1.813332204e-15 0)
(3 -7.84890932e-16 0)
(3 3.793908824e-16 0)
(3 -1.184958324e-16 0)
(3 -1.1997946e-15 0)
(3 -1.159310323e-15 0)
(3 -1.128505977e-15 0)
(3 -1.574976322e-15 0)
(3 -4.017804566e-15 0)
(3 -7.235613759e-15 0)
(3 -6.273747725e-15 0)
(3 -5.170380152e-15 0)
(3 -6.214129656e-15 0)
(3 -8.189748423e-15 0)
(3 -6.098886159e-15 0)
(3 -2.90339336e-15 0)
(3 -5.85456934e-16 0)
(3 1.971030337e-15 0)
(3 2.723267173e-15 0)
(3 2.83416184e-15 0)
(3 1.412850446e-15 0)
(3 1.643327221e-15 0)
(3 2.743397141e-15 0)
(3 4.047748557e-15 0)
(3 2.717906062e-15 0)
(3 2.567367585e-15 0)
(3 2.251506282e-15 0)
(3 8.528432461e-15 0)
(3 8.27835704e-15 0)
(3 8.133455364e-15 0)
(3 6.594865977e-15 0)
(3 2.979752663e-15 0)
(3 2.154603237e-15 0)
(3 2.493691811e-15 0)
(3 2.431593204e-15 0)
(3 3.255742971e-16 0)
(3 2.91445768e-17 0)
(3 -1.537007852e-15 0)
(3 -3.97387524e-15 0)
(3 -4.621896521e-15 0)
(3 -5.324643479e-15 0)
(3 -6.205253162e-15 0)
(3 -6.215042563e-15 0)
(3 -5.720282034e-15 0)
(3 -4.487448206e-15 0)
(3 -8.370867019e-15 0)
(3 -1.163153422e-14 0)
(3 -1.037536812e-14 0)
(3 -9.114073051e-15 0)
(3 -5.25637031e-15 0)
(3 -1.310789543e-15 0)
(3 1.330002975e-15 0)
(3 2.7427279e-15 0)
(3 2.963413205e-15 0)
(3 2.808160253e-15 0)
(3 2.742089733e-15 0)