/*--------------------------------*- C++ -*----------------------------------*\
  =========                 |
  \\      /  F ield         | OpenFOAM: The Open Source CFD Toolbox
   \\    /   O peration     | Website:  https://openfoam.org
    \\  /    A nd           | Version:  7
     \\/     M anipulation  |
\*---------------------------------------------------------------------------*/
FoamFile
{
    version     2.0;
    format      ascii;
    class       volScalarField;
    location    "2.2";
    object      p;
}
// * * * * * * * * * * * * * * * * * * * * * * * * * * * * * * * * * * * * * //

dimensions      [1 -1 -2 0 0 0 0];

internalField   nonuniform List<scalar> 
555
(
0.999070648
0.9989079773
0.9892144787
0.9955596397
0.9970532435
0.9948671095
0.9939841071
0.9941754419
0.9970465909
0.9988685175
0.9991296469
0.9983470765
0.9977498456
0.9975094568
0.9971844482
0.9977352753
0.9985783863
1.000076421
1.001663285
0.9892687802
0.9953750306
0.9962404252
0.9938770958
0.9928002328
0.992971485
0.9955587149
0.9976447876
0.9983169333
0.9979222131
0.9975561662
0.9974017106
0.9973102733
0.9980278072
0.9994907352
1.001482549
1.003508568
0.9884014421
0.9943288024
0.9948748812
0.9924268793
0.9915164126
0.9918505231
0.9944772293
0.9963562841
0.9974403805
0.9976329727
0.9978801502
0.9979488343
0.9982489873
0.9991564106
1.000288222
1.001750852
1.003303885
0.9877137384
0.9933865641
0.9939220337
0.9915836746
0.9910098965
0.9916605381
0.9941713775
0.9956163604
0.9967081132
0.9975565075
0.998460083
0.9987656006
0.999224496
1.000013296
1.000396869
1.001121071
1.002279985
0.9879609345
0.9933501625
0.9941230304
0.9922799894
0.9919987577
0.993107316
0.9956523523
0.9964576412
0.9967632145
0.9974173875
0.9987271561
0.9995589936
0.9999618193
1.000350014
1.000378006
1.000063739
1.000391829
0.9905151887
0.9897503083
0.9949106517
0.9962403215
0.9946334373
0.9942565186
0.9952760285
0.9977579791
0.9981468556
0.9976437825
0.9972472492
0.9980204259
0.9995450253
1.00006503
1.000080055
0.9996276439
0.9987358255
0.9989032787
0.9919496232
0.9918451226
0.9968682833
0.9975339359
0.9958484834
0.9951622033
0.996058476
0.9980609459
0.9984631481
0.9981701787
0.9972678127
0.9970515193
0.9985113637
0.999097598
0.999097315
0.9980010253
0.9967575738
0.9958064137
0.9917115785
0.9922041094
0.9969331876
0.9969100627
0.9951439491
0.9942444327
0.9952882972
0.9969526893
0.9976496305
0.997689442
0.9973223351
0.9967009619
0.9972966052
0.9976829639
0.9978238694
0.9969541655
0.9951832352
0.9935563961
0.99149995
0.9919646351
0.9962861183
0.995777797
0.993756149
0.9928365493
0.9939970133
0.9954289201
0.9965280383
0.9967817512
0.9969606074
0.9969428359
0.9971392651
0.9973903913
0.9978303843
0.9978786622
0.9962660532
0.9936825718
0.9923652951
0.9919757672
0.9958147677
0.9952820551
0.9930658452
0.9927855417
0.9939321803
0.9956096388
0.9961009239
0.9960730469
0.9962782705
0.9967072385
0.9973143581
0.9979743478
0.9989142903
0.9997419839
0.9995625486
0.9924620346
0.9918427115
0.9953357687
0.9949446772
0.9929029605
0.9926413107
0.9935395261
0.9951672578
0.9954314136
0.9953873025
0.9958190562
0.9964929394
0.997300137
0.9985653798
1.000369701
1.001833169
1.002344035
0.9914451383
0.9913606028
0.9946762795
0.9947693288
0.9929035089
0.9924357169
0.9931134479
0.9943168143
0.994576488
0.9947344544
0.9957565076
0.9972186851
0.9979697429
0.9993805117
1.00146855
1.003142149
1.00381094
0.9918593271
0.9899568027
0.9907955821
0.9942089565
0.9951813109
0.9937670817
0.9929202203
0.993422071
0.9941135634
0.9944738712
0.9950508766
0.99647273
0.9982922996
0.9990710499
1.000122169
1.001660204
1.003345897
1.004015449
0.9903165753
0.9886836139
0.9900093551
0.9939107474
0.9955322841
0.9945325407
0.9936618107
0.994309793
0.9950340017
0.9957459474
0.9969948179
0.9983279575
0.9995722367
1.000135194
1.000629581
1.001271004
1.002495494
1.003448548
0.9901781844
0.9883076119
0.9897638726
0.9940500352
0.9959014765
0.9954816887
0.994677199
0.9955599254
0.9964669027
0.9977011523
0.9991642733
1.000173404
1.000463185
1.000790539
1.000736093
1.000403364
1.001092944
1.001339149
0.9923763466
0.9897451525
0.9906998534
0.9947195405
0.9965161986
0.9961800239
0.9951861427
0.9961250824
0.9970971775
0.998401308
0.9995242153
1.00059666
1.000347184
1.00055779
1.000219601
0.9992850308
0.9980581137
0.9973883989
0.995344305
0.9922713023
0.9924794408
0.9956581041
0.9968779146
0.9960767766
0.9948303944
0.9956654608
0.9965868496
0.9978820459
0.9989772277
1.000070289
0.9999027965
1.00010769
0.9997888355
0.9988230746
0.9973051552
0.9959902453
0.9968377302
0.9939010664
0.994284926
0.9966296824
0.9966545247
0.9956589177
0.99424738
0.9950113679
0.9959796091
0.9970088526
0.9978653199
0.9986695944
0.9996730992
1.000066125
0.9998317271
0.9985156031
0.9969096997
0.9954511925
0.9971096345
0.9942367621
0.9952736771
0.9967749174
0.9963682454
0.9949735184
0.9931781881
0.9941084481
0.9950841808
0.9960375201
0.9966251892
0.9973250531
0.9986705206
0.9999093342
0.9999122659
0.9991964291
0.9977590965
0.9958092217
0.9994447675
0.9972842424
0.9943584265
0.9955018562
0.9968792091
0.9959112712
0.9938724312
0.9916131309
0.9927736501
0.994052189
0.9952475613
0.9963101429
0.9971428978
0.9985364546
0.9999946962
1.000790033
1.000418929
0.9997619234
0.9980376057
0.9999186265
0.9976273945
0.9932361671
0.9941497964
0.9963838655
0.9954731706
0.9929396081
0.9909557014
0.9921490506
0.993982083
0.9953668656
0.9964864424
0.9974015794
0.9986719187
1.000381148
1.001795809
1.001747892
1.001641442
1.000237645
0.9994771427
0.9959977067
0.9909856039
0.9925107938
0.9957185508
0.9957053431
0.9932701595
0.9913958997
0.9925404529
0.994518039
0.9960816243
0.9971543793
0.9981543309
0.9994016447
1.000945596
1.002375324
1.002967329
1.002725369
1.001278614
0.998599032
0.9941882881
0.9901564191
0.9922824095
0.9959252899
0.9965315801
0.9943460146
0.9929114615
0.9937650779
0.9954063626
0.9969938256
0.9979561298
0.9988924212
1.00023672
1.001554532
1.003098586
1.003784833
1.003355008
0.9983072542
0.9930592868
0.9904077178
0.9930966881
0.9969416744
0.9973573168
0.9948323309
0.9936253597
0.9944448684
0.9959522438
0.9976600355
0.998699202
0.9996101131
1.000919449
1.001733675
1.002912028
1.003766061
1.003212358
0.9981546111
0.9928408386
0.9913142916
0.9942505028
0.9978104132
0.9977906857
0.9950501508
0.9942715167
0.9948190612
0.9961677261
0.9978687648
0.9989977876
0.9999527368
1.001056934
1.001760796
1.002109677
1.002009724
1.001525001
1.000986398
0.9984595759
0.9930820843
0.9922578257
0.9953098178
0.9980521945
0.9975479046
0.9946088392
0.994276612
0.9948908805
0.9964465654
0.998090666
0.9992830474
1.000115323
1.000790099
1.001597709
1.001668304
1.000745874
1.000070157
1.001898092
0.999238417
0.993105715
0.9920540406
0.9956285363
0.9977677157
0.9964898013
0.993577431
0.9934601688
0.994482196
0.9964550543
0.9981739658
0.9994304211
1.000138853
1.000562857
1.001145581
1.000979482
0.9999439037
0.9988512902
1.002772288
1.000563601
0.9941338758
0.9913038556
0.9947700787
0.9970279872
0.9955665476
0.9925567128
0.9926885834
0.9941259787
0.9962693193
0.9980972568
0.9992945459
1.000085638
1.000205661
1.000167116
0.9995594345
0.9987500672
0.9984020654
1.004482903
1.001306727
0.9940237437
0.9911396233
0.9946291654
0.9968138673
0.9944559926
0.9913452541
0.9918709811
0.9938640648
0.9961259701
0.9977036991
0.9987037185
0.9993535229
0.999002728
0.9992371375
0.9993040573
0.9986723633
0.9979485565
1.004934708
0.9996382681
0.992265961
0.9917969523
0.9953076425
0.9971875548
0.9939144244
0.9907351593
0.99130718
0.9934646984
0.9959258441
0.9970106447
0.9976277409
0.9983595133
0.9996992278
1.00025484
0.9999998218
0.9991561286
0.9978756282
1.003080072
0.9960979469
0.9899602758
0.9917506073
0.9962780166
0.9974574561
0.9934952308
0.9907440412
0.9914519377
0.9941927683
0.9973281142
0.9981393293
0.9983324591
)
;

boundaryField
{
    inlet
    {
        type            fixedValue;
        value           nonuniform 0();
    }
    outlet
    {
        type            zeroGradient;
    }
    bottom
    {
        type            slip;
    }
    top
    {
        type            slip;
    }
    obstacle
    {
        type            zeroGradient;
    }
    defaultFaces
    {
        type            empty;
    }
    procBoundary16to10
    {
        type            processor;
        value           nonuniform List<scalar> 
18
(
0.999036053
0.9981557928
0.987952084
0.9945377346
0.9968576467
0.9949336054
0.9941956741
0.9944430923
0.9972982672
0.9992300358
0.9995732436
0.9989306333
0.9984361181
0.9980838935
0.9979264677
0.9984838776
0.9990579872
0.9990579872
)
;
    }
    procBoundary16to11
    {
        type            processor;
        value           uniform 0.9980384253;
    }
    procBoundary16to15
    {
        type            processor;
        value           nonuniform List<scalar> 
35
(
0.9905126768
0.9899491883
0.989001794
0.9883469191
0.9887924093
0.9887924093
0.9955652604
0.9960268269
0.9950427549
0.9944080213
0.9953497503
0.9953061181
0.993843695
0.993843695
0.9939471067
0.9929470657
0.9930504392
0.9951784249
0.9979745326
0.9992578046
0.999459817
0.999459817
0.9950937742
0.9957969259
0.9973658593
0.9991982825
0.999767176
1.000344251
1.000344251
0.9946481693
0.9954763102
0.9969820882
0.9992869888
1.000114381
1.000649853
)
;
    }
    procBoundary16to17
    {
        type            processor;
        value           nonuniform List<scalar> 
32
(
1.001792872
1.00502296
1.004966182
1.003821745
1.002569998
0.9984982129
0.9957082748
0.9937333112
0.993605894
0.998092824
0.998092824
1.002597817
1.004724477
1.00523662
1.00415763
1.002043618
0.9975267045
0.9958421155
0.9952876687
0.995406952
0.9963998515
0.9985099804
1.000559845
1.002040602
1.002040602
1.002476639
1.00175892
1.000170497
0.9987406251
0.9983217116
0.9978937727
0.9971932439
)
;
    }
    procBoundary16to22
    {
        type            processor;
        value           nonuniform List<scalar> 
20
(
0.9987885821
1.000084965
1.001027505
1.001176298
0.9997721519
0.9980798325
1.001674635
0.9956326696
0.989618686
0.9905787549
0.9966836611
0.9972517143
0.9937042213
0.9908744477
0.991823777
0.9954418802
0.9978417323
0.9984456362
0.9987885821
0.9985263773
)
;
    }
}


// ************************************************************************* //
