/*--------------------------------*- C++ -*----------------------------------*\
  =========                 |
  \\      /  F ield         | OpenFOAM: The Open Source CFD Toolbox
   \\    /   O peration     | Website:  https://openfoam.org
    \\  /    A nd           | Version:  7
     \\/     M anipulation  |
\*---------------------------------------------------------------------------*/
FoamFile
{
    version     2.0;
    format      ascii;
    class       volVectorField;
    location    "0.5";
    object      U;
}
// * * * * * * * * * * * * * * * * * * * * * * * * * * * * * * * * * * * * * //

dimensions      [0 1 -1 0 0 0 0];

internalField   nonuniform List<vector> 5((2.999947598 -8.92014872e-05 0) (2.995414897 -0.007833252505 0) (2.989085973 -0.02031781217 0) (2.982785471 -0.03450342612 0) (2.966718879 -0.07473512252 0));

boundaryField
{
    inlet
    {
        type            fixedValue;
        value           nonuniform 0();
    }
    outlet
    {
        type            inletOutlet;
        inletValue      nonuniform 0();
        value           nonuniform 0();
    }
    bottom
    {
        type            slip;
    }
    top
    {
        type            slip;
    }
    obstacle
    {
        type            slip;
    }
    defaultFaces
    {
        type            empty;
    }
    procBoundary14to7
    {
        type            processor;
        value           nonuniform List<vector> 2((2.999990102 -1.694861975e-05 0) (2.998496408 -0.002428110109 0));
    }
    procBoundary14to8
    {
        type            processor;
        value           nonuniform List<vector> 5((2.99999998 -4.489945514e-07 0) (2.999728311 -0.0005188280752 0) (2.999728311 -0.0005188280752 0) (2.99932881 -0.001348849702 0) (2.998211218 -0.003748950745 0));
    }
    procBoundary14to9
    {
        type            processor;
        value           uniform (2.965741697 -0.07910837756 0);
    }
    procBoundary14to13
    {
        type            processor;
        value           uniform (2.973862576 -0.004656116331 0);
    }
    procBoundary14to20
    {
        type            processor;
        value           nonuniform List<vector> 3((2.958827665 -0.02052771485 0) (2.947685254 -0.02615101421 0) (2.928654015 -0.05350418725 0));
    }
}


// ************************************************************************* //
