/*--------------------------------*- C++ -*----------------------------------*\
  =========                 |
  \\      /  F ield         | OpenFOAM: The Open Source CFD Toolbox
   \\    /   O peration     | Website:  https://openfoam.org
    \\  /    A nd           | Version:  7
     \\/     M anipulation  |
\*---------------------------------------------------------------------------*/
FoamFile
{
    version     2.0;
    format      ascii;
    class       volVectorField;
    location    "4.6";
    object      U;
}
// * * * * * * * * * * * * * * * * * * * * * * * * * * * * * * * * * * * * * //

dimensions      [0 1 -1 0 0 0 0];

internalField   nonuniform List<vector> 
80000
(
(3 1.069827807e-16 0)
(3 6.61327538e-16 0)
(3 1.112434483e-15 0)
(3 -1.025030422e-15 0)
(3 -1.034162359e-15 0)
(3 -1.971177563e-15 0)
(3 -3.104794579e-15 0)
(3 -3.718705701e-15 0)
(3 -8.571721803e-16 0)
(3 -4.259668644e-15 0)
(3 -5.934850494e-15 0)
(3 -3.897311674e-15 0)
(3 -2.292593618e-15 0)
(3 -1.274271551e-15 0)
(3 -3.922292286e-16 0)
(3 2.653887355e-15 0)
(3 3.172014602e-15 0)
(3 5.326484932e-16 0)
(3 -1.31407731e-15 0)
(3 -1.508633798e-15 0)
(3 -2.352403048e-16 0)
(3 1.904366403e-15 0)
(3 4.786611848e-15 0)
(3 5.584862903e-15 0)
(3 4.216312196e-15 0)
(3 3.233026267e-15 0)
(3 2.839486419e-15 0)
(3 9.811503674e-17 0)
(3 2.785987182e-16 0)
(3 8.250068864e-16 0)
(3 1.040573111e-15 0)
(3 3.623519187e-15 0)
(3 2.491108467e-15 0)
(3 2.073416364e-15 0)
(3 2.086458485e-15 0)
(3 4.563645272e-15 0)
(3 8.489486555e-15 0)
(3 8.657305778e-15 0)
(3 5.54113725e-15 0)
(3 6.003433181e-15 0)
(3 3.592735846e-15 0)
(3 3.417818323e-15 0)
(3 1.414816185e-15 0)
(3 -2.616627372e-15 0)
(3 -6.731125981e-15 0)
(3 -5.294302252e-15 0)
(3 -3.953269363e-15 0)
(3 -2.251961554e-15 0)
(3 -2.441586623e-15 0)
(3 -4.882037121e-15 0)
(3 -5.259492191e-15 0)
(3 -4.672520506e-15 0)
(3 -3.065821814e-15 0)
(3 -1.092118911e-15 0)
(3 2.207129366e-15 0)
(3 4.911864285e-15 0)
(3 4.874132084e-15 0)
(3 5.488547677e-15 0)
(3 3.269021208e-15 0)
(3 2.759287354e-15 0)
(3 2.09012584e-15 0)
(3 -1.951115799e-15 0)
(3 -6.760682021e-15 0)
(3 -5.626814932e-15 0)
(3 -4.496205632e-15 0)
(3 -3.773246145e-15 0)
(3 -6.028452146e-15 0)
(3 -7.095789015e-15 0)
(3 -6.096556676e-15 0)
(3 -6.690628602e-15 0)
(3 -6.264001827e-15 0)
(3 -7.9305142e-15 0)
(3 -7.282018061e-15 0)
(3 -7.909949401e-15 0)
(3 -8.934351297e-15 0)
(3 -7.79109592e-15 0)
(3 -8.181594158e-15 0)
(3 -5.429062894e-15 0)
(3 -3.623191776e-15 0)
(3 -3.855598775e-16 0)
(3 1.992102325e-16 0)
(3 4.748797823e-16 0)
(3 -1.096473971e-15 0)
(3 3.029345085e-16 0)
(3 -3.757827431e-16 0)
(3 -7.304156472e-16 0)
(3 3.4996887e-15 0)
(3 4.103319393e-15 0)
(3 3.415352988e-15 0)
(3 6.098281474e-15 0)
(3 7.357706046e-15 0)
(3 7.02351043e-15 0)
(3 7.921987751e-15 0)
(3 7.254946424e-15 0)
(3 8.871497913e-15 0)
(3 8.247126367e-15 0)
(3 2.081124454e-15 0)
(3 1.250880103e-15 0)
(3 2.194126303e-15 0)
(3 2.875347506e-15 0)
(3 2.023143465e-15 0)
(3 2.551693368e-15 0)
(3 2.21123248e-15 0)
(3 -2.473528383e-17 0)
(3 -3.127834916e-15 0)
(3 -3.708995418e-15 0)
(3 -2.358533656e-15 0)
(3 -1.508488573e-15 0)
(3 -6.697624707e-16 0)
(3 -2.345243364e-15 0)
(3 -5.254904986e-15 0)
(3 -4.126211382e-15 0)
(3 7.995782656e-16 0)
(3 1.291485426e-15 0)
(3 3.694596332e-15 0)
(3 5.063599183e-15 0)
(3 2.160167481e-15 0)
(3 -3.84641362e-16 0)
(3 -1.583752379e-15 0)
(3 -1.22862373e-15 0)
(3 6.881549325e-16 0)
(3 1.666407771e-15 0)
(3 4.416014267e-15 0)
(3 5.324465971e-15 0)
(3 4.802973082e-15 0)
(3 3.547550591e-15 0)
(3 1.343714269e-15 0)
(3 1.220240946e-16 0)
(3 3.56712369e-15 0)
(3 3.051261312e-15 0)
(3 4.128920334e-15 0)
(3 4.699725823e-15 0)
(3 5.22494501e-15 0)
(3 7.179932111e-15 0)
(3 9.102887939e-15 0)
(3 1.151131842e-14 0)
(3 6.875224018e-15 0)
(3 7.660628968e-15 0)
(3 5.901155284e-15 0)
(3 4.570871704e-15 0)
(3 -6.147533472e-16 0)
(3 -4.453936075e-15 0)
(3 -3.002864843e-15 0)
(3 -1.028309285e-14 0)
(3 -1.980908586e-14 0)
(3 -1.787933656e-14 0)
(3 -1.218995157e-14 0)
(3 -5.450986007e-15 0)
(3 -5.584368868e-15 0)
(3 -5.541335978e-15 0)
(3 -3.231754983e-15 0)
(3 -1.820832972e-15 0)
(3 5.132185319e-17 0)
(3 2.548719347e-15 0)
(3 6.202607764e-15 0)
(3 9.215579165e-15 0)
(3 1.260301712e-14 0)
(3 1.187656559e-14 0)
(3 7.380759074e-15 0)
(3 2.138359271e-15 0)
(3 -4.456125559e-15 0)
(3 -9.053134718e-15 0)
(3 -1.122336722e-14 0)
(3 -8.752531602e-15 0)
(3 -7.28141782e-15 0)
(3 -4.95313788e-15 0)
(3 -3.560683464e-15 0)
(3 -4.700516942e-15 0)
(3 -3.268112531e-15 0)
(3 -6.725004627e-15 0)
(3 -1.037741258e-14 0)
(3 -1.324333429e-14 0)
(3 -1.199311305e-14 0)
(3 -8.636226136e-15 0)
(3 -8.402275513e-15 0)
(3 -8.149076831e-15 0)
(3 -7.734574237e-15 0)
(3 -5.681953847e-15 0)
(3 -4.447744787e-15 0)
(3 1.516067461e-15 0)
(3 3.979536118e-15 0)
(3 1.927686303e-15 0)
(3 1.248733917e-15 0)
(3 3.103679414e-15 0)
(3 2.29690671e-15 0)
(3 4.593389305e-15 0)
(3 7.362170234e-15 0)
(3 6.516074431e-15 0)
(3 3.396048081e-15 0)
(3 3.741480401e-15 0)
(3 4.884712099e-15 0)
(3 6.29575321e-15 0)
(3 3.891010228e-15 0)
(3 4.739709675e-15 0)
(3 3.573537905e-15 0)
(3 1.826857128e-15 0)
(3 -3.613867392e-15 0)
(3 -2.949298422e-15 0)
(3 1.55878447e-16 0)
(3 5.803569657e-15 0)
(3 1.815911421e-15 0)
(3 3.543863552e-15 0)
(3 9.546848958e-16 0)
(3 8.851951478e-16 0)
(3 -2.670025598e-15 0)
(3 -4.150131386e-15 0)
(3 -3.700198985e-15 0)
(3 -5.082172505e-15 0)
(3 -6.081724887e-15 0)
(3 -5.157729125e-15 0)
(3 -4.198168531e-15 0)
(3 -3.241064674e-15 0)
(3 1.147567848e-15 0)
(3 2.174311348e-15 0)
(3 3.048776103e-15 0)
(3 2.735004765e-15 0)
(3 -1.279892934e-17 0)
(3 -2.083771406e-15 0)
(3 -5.322472904e-17 0)
(3 8.294104111e-16 0)
(3 7.17581634e-16 0)
(3 2.383112411e-15 0)
(3 3.2764814e-15 0)
(3 4.437498209e-15 0)
(3 8.48069051e-15 0)
(3 9.180336119e-15 0)
(3 7.343537781e-15 0)
(3 6.606856709e-15 0)
(3 7.675222491e-15 0)
(3 6.974619085e-15 0)
(3 8.967894078e-15 0)
(3 7.74686828e-15 0)
(3 7.968132224e-15 0)
(3 9.312596004e-15 0)
(3 1.116021142e-14 0)
(3 1.07899878e-14 0)
(3 5.903819392e-15 0)
(3 4.754725295e-15 0)
(3 2.893186188e-15 0)
(3 -1.318565565e-15 0)
(3 -3.853730551e-15 0)
(3 -3.595407532e-15 0)
(3 -6.698436959e-15 0)
(3 -8.885882959e-15 0)
(3 -1.219574637e-14 0)
(3 -1.359046779e-14 0)
(3 -1.165231994e-14 0)
(3 -7.815971704e-15 0)
(3 -4.493421851e-15 0)
(3 -1.591970676e-15 0)
(3 5.393779446e-16 0)
(3 5.097281803e-16 0)
(3 1.785310769e-15 0)
(3 4.508675709e-15 0)
(3 3.951791723e-15 0)
(3 5.681677571e-15 0)
(3 8.273419671e-15 0)
(3 7.222089264e-15 0)
(3 3.822859253e-15 0)
(3 5.591415971e-16 0)
(3 3.439365133e-17 0)
(3 -3.773061182e-15 0)
(3 -2.71137882e-15 0)
(3 -4.208682511e-15 0)
(3 -2.594314086e-15 0)
(3 -3.743633295e-15 0)
(3 -2.086808842e-15 0)
(3 1.146986922e-15 0)
(3 6.255551954e-16 0)
(3 -4.034148728e-15 0)
(3 -9.492002474e-15 0)
(3 -8.748559399e-15 0)
(3 -7.354646999e-15 0)
(3 -6.465324795e-15 0)
(3 -6.994207421e-15 0)
(3 -9.037013623e-15 0)
(3 -7.805735869e-15 0)
(3 -6.60975362e-15 0)
(3 -2.393444809e-15 0)
(3 6.36531915e-16 0)
(3 1.485062315e-15 0)
(3 2.5614948e-15 0)
(3 5.559375973e-15 0)
(3 6.637773034e-15 0)
(3 9.628123394e-15 0)
(3 1.069438097e-14 0)
(3 8.917232098e-15 0)
(3 8.554055624e-15 0)
(3 7.723697745e-15 0)
(3 7.212875993e-15 0)
(3 7.560914116e-15 0)
(3 9.38526457e-15 0)
(3 9.823391714e-15 0)
(3 9.164543428e-15 0)
(3 5.349313065e-15 0)
(3 1.796510546e-15 0)
(3 9.507754364e-16 0)
(3 3.48854381e-16 0)
(3 5.978569076e-15 0)
(3 5.02863947e-15 0)
(3 6.654312074e-16 0)
(3 1.107845651e-15 0)
(3 8.671066273e-16 0)
(3 1.104217869e-15 0)
(3 6.784258162e-16 0)
(3 -1.953465448e-15 0)
(3 -4.60770791e-15 0)
(3 -4.011577544e-15 0)
(3 -2.986852446e-15 0)
(3 -4.794894941e-15 0)
(3 -3.207297724e-15 0)
(3 -1.890705072e-15 0)
(3 -2.321711369e-15 0)
(3 -1.288171787e-15 0)
(3 -1.259559725e-15 0)
(3 -1.522255664e-15 0)
(3 -8.24738197e-16 0)
(3 -4.253623272e-16 0)
(3 -1.72040631e-15 0)
(3 -1.290482072e-15 0)
(3 1.130821468e-15 0)
(3 4.524159372e-15 0)
(3 5.585517986e-15 0)
(3 7.046302716e-15 0)
(3 7.900860878e-15 0)
(3 8.162609337e-15 0)
(3 7.559688476e-15 0)
(3 1.058129561e-14 0)
(3 3.831202996e-15 0)
(3 4.728500227e-15 0)
(3 6.979472641e-15 0)
(3 1.010703083e-14 0)
(3 1.293448046e-14 0)
(3 1.201253783e-14 0)
(3 1.071890161e-14 0)
(3 1.106827105e-14 0)
(3 1.082032046e-14 0)
(3 5.590445553e-15 0)
(3 -3.03581492e-15 0)
(3 -5.746775533e-15 0)
(3 -7.319199349e-15 0)
(3 -7.603276192e-15 0)
(3 -1.09669896e-14 0)
(3 -1.129457888e-14 0)
(3 -1.081537136e-14 0)
(3 -7.862253692e-15 0)
(3 -4.915384349e-15 0)
(3 -1.573787996e-15 0)
(3 -1.369312927e-15 0)
(3 9.419410249e-16 0)
(3 2.812730686e-15 0)
(3 2.441372518e-15 0)
(3 2.47538308e-15 0)
(3 3.798837402e-15 0)
(3 2.909278895e-15 0)
(3 1.988563843e-15 0)
(3 1.75733741e-15 0)
(3 -6.421417519e-16 0)
(3 -4.262350714e-15 0)
(3 -5.153530904e-15 0)
(3 -3.72575004e-15 0)
(3 -2.321436819e-15 0)
(3 8.544245756e-17 0)
(3 -1.417229872e-15 0)
(3 3.000792894e-15 0)
(3 1.048431222e-15 0)
(3 -1.028181398e-15 0)
(3 -1.5089082e-15 0)
(3 -3.073393034e-15 0)
(3 -6.63576578e-15 0)
(3 -8.868506287e-15 0)
(3 -8.97228908e-15 0)
(3 -1.028195531e-14 0)
(3 -1.108021893e-14 0)
(3 -9.105693876e-15 0)
(3 -7.648464671e-15 0)
(3 -4.085888568e-15 0)
(3 -1.079059875e-15 0)
(3 6.489289902e-16 0)
(3 2.127172775e-16 0)
(3 -1.478029289e-15 0)
(3 3.732645053e-15 0)
(3 5.531823622e-15 0)
(3 6.696239195e-15 0)
(3 1.135258103e-14 0)
(3 1.521031889e-14 0)
(3 1.316009083e-14 0)
(3 1.508515259e-14 0)
(3 1.627617113e-14 0)
(3 1.728736212e-14 0)
(3 1.648598572e-14 0)
(3 1.40338527e-14 0)
(3 1.828963544e-14 0)
(3 1.188226645e-14 0)
(3 9.943236006e-15 0)
(3 5.132147837e-15 0)
(3 1.933895837e-15 0)
(3 -1.48873704e-16 0)
(3 8.965972278e-16 0)
(3 -4.373620082e-17 0)
(3 -9.415082171e-17 0)
(3 -8.583420408e-16 0)
(3 5.459956162e-17 0)
(3 1.732254158e-15 0)
(3 2.628205479e-15 0)
(3 2.159838981e-15 0)
(3 5.649464618e-16 0)
(3 -2.408528532e-16 0)
(3 -2.547268444e-15 0)
(3 -6.26179711e-16 0)
(3 2.415799803e-15 0)
(3 1.686308538e-15 0)
(3 1.096068507e-16 0)
(3 -5.64038258e-16 0)
(3 4.708918327e-16 0)
(3 -1.238542693e-15 0)
(3 -1.065468862e-15 0)
(3 1.984571254e-15 0)
(3 -2.594465173e-16 0)
(3 -1.67050936e-15 0)
(3 8.227775523e-16 0)
(3 7.760954186e-16 0)
(3 2.049582299e-15 0)
(3 4.78806191e-15 0)
(3 4.234318121e-15 0)
(3 4.47293841e-15 0)
(3 5.006809233e-15 0)
(3 5.498029631e-15 0)
(3 6.184980059e-15 0)
(3 6.370699248e-15 0)
(3 5.464325343e-15 0)
(3 6.752818261e-15 0)
(3 1.144264192e-14 0)
(3 9.993419157e-15 0)
(3 8.28741342e-15 0)
(3 1.018300549e-14 0)
(3 8.90093914e-15 0)
(3 5.445309014e-15 0)
(3 2.43428751e-15 0)
(3 -1.517491268e-15 0)
(3 -6.004740508e-15 0)
(3 -9.664794891e-15 0)
(3 -9.682221565e-15 0)
(3 -8.627717295e-15 0)
(3 -7.320103664e-15 0)
(3 -5.896397804e-15 0)
(3 -2.731154813e-15 0)
(3 -1.63839984e-16 0)
(3 1.046225072e-15 0)
(3 2.971425238e-15 0)
(3 4.12309589e-15 0)
(3 4.425409355e-15 0)
(3 5.130973032e-15 0)
(3 4.271090958e-15 0)
(3 4.65446622e-15 0)
(3 3.57667105e-15 0)
(3 2.941010922e-15 0)
(3 -1.88946266e-16 0)
(3 -1.434164143e-15 0)
(3 -3.728755319e-15 0)
(3 -6.607132003e-15 0)
(3 -5.55522127e-15 0)
(3 -3.945705577e-15 0)
(3 -2.297380933e-15 0)
(3 -2.788599472e-15 0)
(3 -2.588462854e-15 0)
(3 -4.1080599e-15 0)
(3 -6.489980048e-15 0)
(3 -7.799186598e-15 0)
(3 -6.099793136e-15 0)
(3 -7.879335662e-15 0)
(3 -1.081749495e-14 0)
(3 -9.492920186e-15 0)
(3 -7.16946661e-15 0)
(3 -5.818596936e-15 0)
(3 -4.954269697e-15 0)
(3 -1.575282986e-15 0)
(3 -1.428052117e-15 0)
(3 -4.453636728e-15 0)
(3 -8.648797538e-15 0)
(3 -7.618987942e-15 0)
(3 -7.258899362e-15 0)
(3 -2.001672446e-15 0)
(3 4.595887703e-15 0)
(3 1.134370316e-14 0)
(3 1.521501591e-14 0)
(3 2.227944157e-14 0)
(3 2.356561749e-14 0)
(3 2.276450935e-14 0)
(3 2.322898246e-14 0)
(3 1.946351613e-14 0)
(3 7.535758482e-15 0)
(3 2.676397574e-15 0)
(3 4.281843405e-15 0)
(3 5.067506146e-15 0)
(3 5.479691437e-15 0)
(3 1.230760367e-15 0)
(3 2.133514388e-15 0)
(3 8.01901546e-18 0)
(3 2.380340471e-15 0)
(3 -4.035572013e-16 0)
(3 9.914583959e-17 0)
(3 2.662550256e-16 0)
(3 7.76411647e-16 0)
(3 1.709584551e-15 0)
(3 1.061334514e-15 0)
(3 1.2188416e-15 0)
(3 9.116034322e-16 0)
(3 3.878739899e-16 0)
(3 5.042924408e-16 0)
(3 1.283014813e-15 0)
(3 1.907285852e-15 0)
(3 2.386165713e-15 0)
(3 3.817016161e-15 0)
(3 2.675589229e-15 0)
(3 -2.718806291e-15 0)
(3 -2.627341175e-16 0)
(3 1.53560603e-15 0)
(3 5.361845022e-15 0)
(3 5.42764151e-15 0)
(3 5.874050908e-15 0)
(3 1.817518905e-15 0)
(3 1.760929672e-15 0)
(3 4.754709918e-17 0)
(3 -7.232125048e-16 0)
(3 1.162587927e-15 0)
(3 3.460910144e-15 0)
(3 2.252569875e-15 0)
(3 5.58234964e-15 0)
(3 5.052629431e-15 0)
(3 7.240627334e-15 0)
(3 8.560464547e-15 0)
(3 8.351795788e-15 0)
(3 2.874986786e-15 0)
(3 9.8692432e-16 0)
(3 9.607024711e-16 0)
(3 2.140436523e-15 0)
(3 2.502992914e-15 0)
(3 3.118672574e-15 0)
(3 -2.544720541e-16 0)
(3 -1.341183863e-15 0)
(3 -1.061281778e-15 0)
(3 -1.974333315e-15 0)
(3 -3.423805638e-15 0)
(3 -3.163173791e-15 0)
(3 -6.67903835e-15 0)
(3 -4.43151245e-15 0)
(3 -3.277463058e-15 0)
(3 6.314872022e-16 0)
(3 1.144507757e-15 0)
(3 1.583048123e-15 0)
(3 1.82367222e-15 0)
(3 2.114599932e-15 0)
(3 5.829268403e-16 0)
(3 8.369070557e-16 0)
(3 2.069884459e-15 0)
(3 -3.355902134e-16 0)
(3 -7.355355468e-16 0)
(3 9.33932406e-17 0)
(3 1.029175807e-16 0)
(3 -3.42526724e-15 0)
(3 -5.773773856e-15 0)
(3 -3.775682071e-15 0)
(3 -4.089866175e-15 0)
(3 -6.178884521e-15 0)
(3 -8.123931071e-15 0)
(3 -7.699138293e-15 0)
(3 -1.046591375e-14 0)
(3 -8.613586177e-15 0)
(3 -6.728581804e-15 0)
(3 -6.634169809e-15 0)
(3 -6.709740378e-15 0)
(3 -3.34051131e-15 0)
(3 -2.144156836e-15 0)
(3 -2.34549815e-15 0)
(3 -2.225821117e-15 0)
(3 2.172646368e-16 0)
(3 1.599738404e-16 0)
(3 -6.445974413e-15 0)
(3 -7.742803172e-15 0)
(3 -6.713846846e-15 0)
(3 -5.226486049e-15 0)
(3 -2.398686601e-15 0)
(3 3.310044368e-15 0)
(3 6.463415045e-15 0)
(3 9.679720216e-15 0)
(3 1.45061696e-14 0)
(3 1.523099879e-14 0)
(3 1.455441185e-14 0)
(3 1.454845601e-14 0)
(3 1.193523205e-14 0)
(3 8.82429164e-15 0)
(3 1.553565188e-15 0)
(3 -1.596220352e-15 0)
(3 -2.018214443e-15 0)
(3 -2.246777726e-15 0)
(3 -4.241119846e-15 0)
(3 -1.287694629e-15 0)
(3 3.80545237e-15 0)
(3 3.871580653e-15 0)
(3 -1.467321517e-15 0)
(3 -5.128517107e-16 0)
(3 2.317856598e-16 0)
(3 -1.51836098e-15 0)
(3 -2.597713533e-16 0)
(3 -7.08685612e-17 0)
(3 1.319739356e-15 0)
(3 2.388498572e-15 0)
(3 3.430171932e-15 0)
(3 4.592352057e-15 0)
(3 3.641194439e-15 0)
(3 4.94267874e-15 0)
(3 6.931208315e-15 0)
(3 9.712707154e-15 0)
(3 6.173410847e-15 0)
(3 4.974858195e-15 0)
(3 4.54749211e-15 0)
(3 2.488045392e-15 0)
(3 2.536637096e-15 0)
(3 7.944694283e-15 0)
(3 7.702023487e-15 0)
(3 6.555479619e-15 0)
(3 4.25803727e-15 0)
(3 1.376433258e-15 0)
(3 -4.315059751e-15 0)
(3 -2.677091012e-15 0)
(3 -2.791199877e-15 0)
(3 -3.041850197e-15 0)
(3 -2.332677237e-15 0)
(3 -2.515042067e-15 0)
(3 -3.893447632e-15 0)
(3 -3.535152243e-15 0)
(3 -3.297136974e-15 0)
(3 -5.275624191e-15 0)
(3 -2.937223422e-15 0)
(3 -1.920820594e-15 0)
(3 -3.046820855e-15 0)
(3 -2.832944979e-15 0)
(3 -1.962772594e-15 0)
(3 3.370921945e-16 0)
(3 1.661720652e-15 0)
(3 2.632719943e-15 0)
(3 2.299405495e-15 0)
(3 1.596442578e-15 0)
(3 1.059842922e-15 0)
(3 5.943413093e-15 0)
(3 3.781390474e-15 0)
(3 2.954722679e-15 0)
(3 3.272178873e-15 0)
(3 3.443166983e-15 0)
(3 4.06911842e-15 0)
(3 2.935944664e-15 0)
(3 3.109567917e-16 0)
(3 -4.559517135e-15 0)
(3 -5.385836818e-15 0)
(3 -5.944716991e-15 0)
(3 -5.038622319e-15 0)
(3 -3.178506196e-15 0)
(3 -1.640478491e-15 0)
(3 -1.24190123e-15 0)
(3 -3.443912829e-15 0)
(3 -1.203060784e-15 0)
(3 -1.373217369e-15 0)
(3 -4.352344072e-15 0)
(3 -6.783838309e-15 0)
(3 -6.461488688e-15 0)
(3 -5.274908044e-15 0)
(3 -6.316121766e-15 0)
(3 -7.672726027e-15 0)
(3 -1.012651156e-14 0)
(3 -6.43650263e-15 0)
(3 -9.89099435e-16 0)
(3 -1.51820725e-15 0)
(3 -4.221462024e-15 0)
(3 -3.580978325e-15 0)
(3 1.067671249e-15 0)
(3 4.499700858e-15 0)
(3 4.819752736e-15 0)
(3 5.561348245e-15 0)
(3 7.231841192e-15 0)
(3 4.571203299e-15 0)
(3 4.784348179e-15 0)
(3 3.905636711e-15 0)
(3 3.033663032e-15 0)
(3 5.557470662e-15 0)
(3 1.055034021e-14 0)
(3 6.029934145e-15 0)
(3 4.546686411e-15 0)
(3 6.694278737e-15 0)
(3 6.457088992e-15 0)
(3 6.854161406e-15 0)
(3 7.63902274e-15 0)
(3 4.447584262e-15 0)
(3 2.463592548e-16 0)
(3 -4.52013982e-15 0)
(3 -6.133877609e-15 0)
(3 -3.138337456e-15 0)
(3 -2.798071202e-15 0)
(3 -4.629069894e-15 0)
(3 -5.316765062e-15 0)
(3 -1.28281974e-16 0)
(3 -2.215667385e-16 0)
(3 1.158233341e-16 0)
(3 4.133251371e-16 0)
(3 2.545834208e-15 0)
(3 6.068513076e-15 0)
(3 7.614125093e-15 0)
(3 8.483579243e-15 0)
(3 7.831632719e-15 0)
(3 6.956497379e-15 0)
(3 5.699662719e-15 0)
(3 5.615696577e-15 0)
(3 7.295329773e-15 0)
(3 6.823884208e-15 0)
(3 8.316172492e-15 0)
(3 1.290763283e-14 0)
(3 1.107395135e-14 0)
(3 8.595492511e-15 0)
(3 6.367973168e-15 0)
(3 4.851738907e-15 0)
(3 4.373451912e-15 0)
(3 4.447980755e-15 0)
(3 1.649098255e-15 0)
(3 8.746560743e-16 0)
(3 -1.345981123e-16 0)
(3 -3.678978091e-15 0)
(3 -6.603969198e-15 0)
(3 -4.764017474e-15 0)
(3 -7.546863183e-15 0)
(3 -8.872981227e-15 0)
(3 -1.020284066e-14 0)
(3 -1.05079869e-14 0)
(3 -8.985112385e-15 0)
(3 -2.563888797e-15 0)
(3 1.990441962e-15 0)
(3 5.584570234e-15 0)
(3 3.632922148e-15 0)
(3 3.140050163e-15 0)
(3 4.465694809e-15 0)
(3 7.780529508e-15 0)
(3 8.929125954e-15 0)
(3 8.96125309e-15 0)
(3 5.096993196e-15 0)
(3 4.061516848e-15 0)
(3 7.306860254e-15 0)
(3 8.117692016e-15 0)
(3 6.971891833e-15 0)
(3 4.765375724e-15 0)
(3 3.166977984e-15 0)
(3 4.851432486e-15 0)
(3 5.938973533e-15 0)
(3 4.10201728e-15 0)
(3 2.541803861e-15 0)
(3 2.499731488e-15 0)
(3 2.091409132e-15 0)
(3 1.551293422e-15 0)
(3 1.576041302e-15 0)
(3 -2.86885714e-15 0)
(3 -6.066122588e-15 0)
(3 -4.37059669e-15 0)
(3 -2.572035391e-15 0)
(3 -1.948606419e-15 0)
(3 -3.697697492e-15 0)
(3 -3.648169714e-15 0)
(3 -2.277334916e-15 0)
(3 -7.88998592e-16 0)
(3 -2.836139257e-16 0)
(3 1.669714819e-15 0)
(3 6.447699337e-16 0)
(3 -1.952110707e-15 0)
(3 -1.362165606e-15 0)
(3 2.642049449e-15 0)
(3 3.650806024e-15 0)
(3 3.377271365e-15 0)
(3 3.163655664e-15 0)
(3 2.8125739e-15 0)
(3 2.222647596e-15 0)
(3 4.847913841e-15 0)
(3 1.280811031e-14 0)
(3 1.400108938e-14 0)
(3 1.320733333e-14 0)
(3 7.090758892e-15 0)
(3 5.72988578e-15 0)
(3 6.162442189e-15 0)
(3 7.337046323e-15 0)
(3 6.691188842e-15 0)
(3 9.388474805e-15 0)
(3 7.854276384e-15 0)
(3 9.064875036e-15 0)
(3 3.523449781e-15 0)
(3 3.013973017e-15 0)
(3 3.46084083e-15 0)
(3 2.624786916e-15 0)
(3 1.449722228e-15 0)
(3 -3.320208692e-15 0)
(3 -4.383017117e-15 0)
(3 -2.117190377e-15 0)
(3 -3.993500426e-15 0)
(3 -6.886570712e-15 0)
(3 -9.768535595e-15 0)
(3 3.214577916e-15 0)
(3 2.237834678e-15 0)
(3 2.503492796e-15 0)
(3 3.010646442e-15 0)
(3 8.46105922e-16 0)
(3 -2.747609581e-16 0)
(3 1.645627906e-15 0)
(3 2.129374216e-15 0)
(3 5.328107488e-15 0)
(3 4.175242305e-15 0)
(3 2.934265274e-15 0)
(3 3.670988947e-15 0)
(3 2.749979213e-15 0)
(3 2.072643292e-15 0)
(3 4.91347623e-15 0)
(3 8.29169146e-15 0)
(3 5.742695615e-15 0)
(3 6.450800545e-15 0)
(3 9.657278718e-15 0)
(3 7.628390668e-15 0)
(3 3.420801667e-15 0)
(3 3.504387327e-16 0)
(3 -3.561544835e-16 0)
(3 8.282254257e-16 0)
(3 3.253231955e-15 0)
(3 -5.629767468e-16 0)
(3 -3.88760263e-16 0)
(3 -8.717332675e-16 0)
(3 -5.228233107e-15 0)
(3 -6.210478834e-15 0)
(3 -5.652982533e-15 0)
(3 -5.07021857e-15 0)
(3 -4.288823829e-15 0)
(3 -2.460876098e-15 0)
(3 -6.822045468e-16 0)
(3 -1.266197523e-15 0)
(3 6.405073368e-17 0)
(3 1.198565981e-15 0)
(3 2.688735551e-15 0)
(3 4.417808246e-15 0)
(3 6.751223181e-15 0)
(3 6.799536616e-15 0)
(3 7.760733446e-15 0)
(3 7.458561921e-15 0)
(3 3.748281596e-15 0)
(3 2.664076019e-15 0)
(3 -2.039986225e-16 0)
(3 -1.517648257e-15 0)
(3 -1.889540261e-15 0)
(3 -2.302797777e-15 0)
(3 -1.215162806e-15 0)
(3 -1.483543891e-15 0)
(3 1.229442151e-16 0)
(3 4.378618355e-15 0)
(3 4.199067527e-15 0)
(3 4.560229008e-15 0)
(3 3.064865704e-15 0)
(3 1.18864734e-15 0)
(3 -7.328908713e-16 0)
(3 -2.373297719e-15 0)
(3 -1.008961383e-15 0)
(3 -1.691900572e-15 0)
(3 -1.496843669e-15 0)
(3 2.003207188e-15 0)
(3 6.716361132e-15 0)
(3 5.821328418e-15 0)
(3 2.864185315e-15 0)
(3 4.158294306e-15 0)
(3 7.230730392e-15 0)
(3 1.051108473e-14 0)
(3 6.571405708e-15 0)
(3 3.783049886e-15 0)
(3 7.180369593e-15 0)
(3 7.186074866e-15 0)
(3 8.4775812e-15 0)
(3 5.237272603e-15 0)
(3 4.487273568e-15 0)
(3 4.350220532e-15 0)
(3 5.509174372e-15 0)
(3 8.942229306e-15 0)
(3 1.529208388e-14 0)
(3 1.505749602e-14 0)
(3 1.712103842e-14 0)
(3 1.828497584e-14 0)
(3 1.690723481e-14 0)
(3 1.162179537e-14 0)
(3 1.346850669e-14 0)
(3 7.548884163e-15 0)
(3 4.095999305e-15 0)
(3 -1.591621134e-16 0)
(3 -4.278739331e-15 0)
(3 -6.225308206e-16 0)
(3 2.533531643e-15 0)
(3 1.348219386e-15 0)
(3 -5.5933128e-16 0)
(3 -8.535946787e-16 0)
(3 -3.716172165e-15 0)
(3 -5.026254949e-15 0)
(3 -4.165220872e-15 0)
(3 -4.802426835e-15 0)
(3 -7.500904492e-16 0)
(3 6.975511977e-17 0)
(3 -1.328385545e-15 0)
(3 -2.996947624e-15 0)
(3 -4.985072917e-15 0)
(3 -5.784322512e-15 0)
(3 -5.25866672e-15 0)
(3 -3.624674141e-15 0)
(3 -1.151161331e-15 0)
(3 6.200120546e-16 0)
(3 4.078401e-16 0)
(3 5.486486811e-15 0)
(3 3.321961925e-15 0)
(3 8.828519309e-16 0)
(3 1.629507649e-15 0)
(3 1.194027056e-15 0)
(3 2.060526815e-15 0)
(3 5.336201044e-15 0)
(3 6.147157418e-15 0)
(3 3.765154933e-15 0)
(3 2.713868866e-15 0)
(3 4.128016099e-15 0)
(3 3.183861312e-15 0)
(3 1.885605835e-15 0)
(3 3.989556791e-15 0)
(3 4.209271735e-15 0)
(3 2.851113157e-15 0)
(3 3.758825916e-16 0)
(3 1.716581832e-15 0)
(3 -6.18792849e-16 0)
(3 2.951267762e-16 0)
(3 -2.621922038e-15 0)
(3 -2.580050127e-15 0)
(3 -4.187962932e-15 0)
(3 -3.846215691e-15 0)
(3 -9.544113167e-15 0)
(3 -5.372534141e-15 0)
(3 -4.373161633e-15 0)
(3 -4.981930495e-15 0)
(3 -3.078601343e-15 0)
(3 -2.838707418e-15 0)
(3 1.664706002e-15 0)
(3 7.835162911e-15 0)
(3 9.503468808e-15 0)
(3 5.39542968e-15 0)
(3 4.060958211e-15 0)
(3 4.52638926e-15 0)
(3 3.61094696e-15 0)
(3 3.275472816e-15 0)
(3 4.175869237e-15 0)
(3 2.585542736e-15 0)
(3 3.587191269e-15 0)
(3 4.927996325e-15 0)
(3 5.585557645e-15 0)
(3 4.427377526e-15 0)
(3 3.88197126e-15 0)
(3 3.181784609e-15 0)
(3 6.569153614e-15 0)
(3 6.082039846e-15 0)
(3 4.900137112e-15 0)
(3 5.339678881e-15 0)
(3 7.594650972e-15 0)
(3 4.362032737e-15 0)
(3 3.281139329e-15 0)
(3 3.922017847e-15 0)
(3 3.883792382e-15 0)
(3 2.61067586e-15 0)
(3 1.737560891e-15 0)
(3 4.09444323e-15 0)
(3 1.181900313e-14 0)
(3 1.487318124e-14 0)
(3 9.220144217e-15 0)
(3 7.972582287e-15 0)
(3 9.472049395e-15 0)
(3 1.306448035e-14 0)
(3 1.572936546e-14 0)
(3 1.453134845e-14 0)
(3 1.305704816e-14 0)
(3 8.068105405e-15 0)
(3 8.429976372e-15 0)
(3 7.764819304e-15 0)
(3 1.171001501e-14 0)
(3 1.774545457e-14 0)
(3 2.388654716e-14 0)
(3 2.04891868e-14 0)
(3 1.241843035e-14 0)
(3 2.283099955e-15 0)
(3 -2.203362958e-16 0)
(3 -2.929798344e-15 0)
(3 -4.06798394e-15 0)
(3 -5.103963634e-15 0)
(3 -4.663470825e-15 0)
(3 -1.228718142e-15 0)
(3 1.928004251e-15 0)
(3 4.465483051e-15 0)
(3 4.465568459e-15 0)
(3 2.940354057e-15 0)
(3 2.802142553e-15 0)
(3 -1.834929369e-16 0)
(3 -5.722141693e-16 0)
(3 -3.907329292e-15 0)
(3 -3.218038578e-15 0)
(3 -1.774124104e-15 0)
(3 -2.54468312e-15 0)
(3 -2.077374362e-15 0)
(3 -1.221149162e-15 0)
(3 -3.223890663e-15 0)
(3 -9.81526828e-16 0)
(3 -1.485279089e-15 0)
(3 5.833462089e-17 0)
(3 3.259017404e-15 0)
(3 1.822021091e-15 0)
(3 1.775372906e-15 0)
(3 7.596184589e-16 0)
(3 3.987231549e-16 0)
(3 7.139253176e-16 0)
(3 2.958262419e-15 0)
(3 4.525249663e-15 0)
(3 9.633008242e-16 0)
(3 -1.74887563e-16 0)
(3 1.412284826e-15 0)
(3 3.706669162e-15 0)
(3 6.950486193e-15 0)
(3 6.097398229e-15 0)
(3 5.778531007e-15 0)
(3 5.401008673e-15 0)
(3 3.288573162e-15 0)
(3 4.631699015e-15 0)
(3 9.892089055e-15 0)
(3 9.07842945e-15 0)
(3 8.393504049e-15 0)
(3 4.118672033e-15 0)
(3 1.319526425e-15 0)
(3 -1.644088494e-15 0)
(3 -7.072423655e-15 0)
(3 -7.078570905e-15 0)
(3 -5.64452202e-15 0)
(3 -4.891210152e-15 0)
(3 -4.21270556e-15 0)
(3 -2.344119511e-15 0)
(3 -2.549731085e-15 0)
(3 1.470953378e-15 0)
(3 1.474559892e-15 0)
(3 1.857794712e-15 0)
(3 3.703248948e-15 0)
(3 1.45036809e-15 0)
(3 8.855531067e-16 0)
(3 5.288904419e-15 0)
(3 5.123011293e-15 0)
(3 4.55968121e-15 0)
(3 2.550791221e-15 0)
(3 1.318893369e-15 0)
(3 1.083387779e-15 0)
(3 1.872524168e-15 0)
(3 6.076037394e-15 0)
(3 6.282543097e-15 0)
(3 5.472259696e-15 0)
(3 2.791642368e-15 0)
(3 1.915370007e-15 0)
(3 3.751893683e-15 0)
(3 3.055973846e-15 0)
(3 1.856995288e-15 0)
(3 -4.943310957e-16 0)
(3 3.825067347e-16 0)
(3 -2.604369934e-15 0)
(3 -1.645535715e-15 0)
(3 1.449602611e-15 0)
(3 1.487793499e-15 0)
(3 -1.14031682e-16 0)
(3 3.061244717e-15 0)
(3 5.677700368e-15 0)
(3 7.578958887e-15 0)
(3 5.068514882e-15 0)
(3 6.409794259e-15 0)
(3 7.234522568e-15 0)
(3 9.651841014e-15 0)
(3 9.742459777e-15 0)
(3 1.031229342e-14 0)
(3 9.133324249e-15 0)
(3 7.852014457e-15 0)
(3 7.372278904e-15 0)
(3 8.568110122e-15 0)
(3 1.1697587e-14 0)
(3 1.206323011e-14 0)
(3 8.373790599e-15 0)
(3 5.022987414e-15 0)
(3 3.70355855e-15 0)
(3 4.828862993e-15 0)
(3 3.646127129e-15 0)
(3 7.45802449e-16 0)
(3 -2.801786373e-16 0)
(3 -2.576289803e-15 0)
(3 -5.776984998e-15 0)
(3 -5.242197665e-15 0)
(3 7.010736852e-16 0)
(3 1.338461877e-15 0)
(3 3.619469612e-15 0)
(3 3.614099595e-15 0)
(3 1.639902934e-15 0)
(3 1.289310754e-15 0)
(3 5.831685698e-17 0)
(3 -1.318546702e-15 0)
(3 1.196492578e-15 0)
(3 1.375498684e-15 0)
(3 1.457829966e-15 0)
(3 1.259718991e-15 0)
(3 2.61542762e-15 0)
(3 1.210720315e-15 0)
(3 1.856215649e-15 0)
(3 3.633153575e-15 0)
(3 1.973166943e-15 0)
(3 -3.070459949e-15 0)
(3 -3.542369797e-15 0)
(3 -3.50694274e-15 0)
(3 -4.693501244e-15 0)
(3 -2.715058626e-15 0)
(3 -1.240791577e-16 0)
(3 -1.376786247e-18 0)
(3 -6.960808104e-16 0)
(3 1.576600565e-15 0)
(3 3.078943629e-15 0)
(3 2.357219631e-15 0)
(3 4.40259938e-15 0)
(3 4.934762322e-15 0)
(3 4.204378357e-15 0)
(3 3.776644808e-15 0)
(3 5.610356327e-15 0)
(3 5.533894998e-15 0)
(3 5.221165444e-15 0)
(3 7.708557314e-15 0)
(3 6.299987572e-15 0)
(3 3.118934427e-15 0)
(3 -1.070709387e-15 0)
(3 -5.452667371e-15 0)
(3 -9.32427726e-15 0)
(3 -5.928250563e-15 0)
(3 -7.52308849e-15 0)
(3 -5.800329627e-15 0)
(3 -3.264549678e-15 0)
(3 -2.886029007e-15 0)
(3 -4.893992452e-16 0)
(3 2.288489776e-16 0)
(3 -8.776941906e-16 0)
(3 -1.149222051e-15 0)
(3 -7.219248613e-16 0)
(3 2.114351826e-15 0)
(3 5.501474164e-16 0)
(3 5.833670381e-16 0)
(3 2.740066525e-15 0)
(3 8.898612879e-16 0)
(3 -4.03093974e-16 0)
(3 1.56233572e-15 0)
(3 1.376159096e-15 0)
(3 3.565826011e-16 0)
(3 3.247506534e-16 0)
(3 3.08711299e-15 0)
(3 3.487913376e-15 0)
(3 2.984361444e-15 0)
(3 3.415713211e-15 0)
(3 4.350107187e-15 0)
(3 2.40418897e-15 0)
(3 -1.59922651e-15 0)
(3 -1.654885461e-15 0)
(3 -1.134643134e-15 0)
(3 -3.040165699e-15 0)
(3 -2.454526825e-15 0)
(3 -2.197564104e-15 0)
(3 1.489152851e-16 0)
(3 1.116923619e-15 0)
(3 1.546595225e-15 0)
(3 2.681064712e-15 0)
(3 8.263441725e-15 0)
(3 7.288401903e-15 0)
(3 8.516973563e-15 0)
(3 8.8386803e-15 0)
(3 9.642229463e-15 0)
(3 7.159725515e-15 0)
(3 3.354651213e-15 0)
(3 4.913500737e-15 0)
(3 5.463138075e-15 0)
(3 8.431088913e-15 0)
(3 1.119279354e-14 0)
(3 1.128384697e-14 0)
(3 1.123730343e-14 0)
(3 8.243038259e-15 0)
(3 6.793740471e-15 0)
(3 4.486868989e-15 0)
(3 1.834709969e-15 0)
(3 -7.118317554e-16 0)
(3 -1.06347437e-16 0)
(3 -7.754565757e-16 0)
(3 -2.777883156e-15 0)
(3 -4.866977923e-15 0)
(3 -6.302015836e-15 0)
(3 -5.136858415e-15 0)
(3 -3.913231908e-15 0)
(3 -2.093143201e-15 0)
(3 -1.732789459e-15 0)
(3 -6.571036366e-16 0)
(3 4.280543748e-15 0)
(3 -1.331675022e-16 0)
(3 -4.61373886e-16 0)
(3 -2.088474518e-16 0)
(3 4.580612476e-15 0)
(3 5.662626396e-15 0)
(3 3.705062337e-15 0)
(3 2.976167276e-15 0)
(3 1.498852143e-17 0)
(3 6.050747394e-16 0)
(3 1.034065949e-15 0)
(3 7.303834466e-16 0)
(3 -2.446433063e-16 0)
(3 -1.414222602e-15 0)
(3 -3.303829511e-15 0)
(3 -3.933627868e-15 0)
(3 -7.048090529e-15 0)
(3 -2.751266838e-15 0)
(3 -9.319082127e-16 0)
(3 -4.696902658e-16 0)
(3 1.36903828e-15 0)
(3 3.905797128e-15 0)
(3 1.934694695e-15 0)
(3 -8.703410978e-16 0)
(3 4.446656035e-16 0)
(3 6.996954156e-16 0)
(3 3.251055064e-15 0)
(3 7.145614361e-15 0)
(3 4.949691866e-15 0)
(3 2.381649519e-15 0)
(3 3.430032013e-15 0)
(3 3.032473495e-15 0)
(3 3.929552968e-15 0)
(3 3.281291854e-15 0)
(3 -6.628997081e-16 0)
(3 -4.454422557e-16 0)
(3 -7.131867264e-15 0)
(3 -9.03102873e-15 0)
(3 -6.685976882e-15 0)
(3 -5.412930254e-15 0)
(3 -3.831065611e-15 0)
(3 -2.641081484e-15 0)
(3 -1.055450613e-15 0)
(3 -3.560617527e-15 0)
(3 -2.403951394e-15 0)
(3 -2.753732409e-15 0)
(3 2.446836498e-15 0)
(3 4.160572863e-15 0)
(3 1.875567016e-15 0)
(3 3.407229101e-15 0)
(3 9.06679864e-16 0)
(3 -1.571826443e-16 0)
(3 7.672537987e-16 0)
(3 2.52522025e-15 0)
(3 2.562930097e-15 0)
(3 9.089040269e-16 0)
(3 3.830891677e-15 0)
(3 4.369804244e-15 0)
(3 8.550232796e-15 0)
(3 9.216573039e-15 0)
(3 6.869622228e-15 0)
(3 5.245809703e-15 0)
(3 7.125172092e-16 0)
(3 1.018399264e-15 0)
(3 -2.438284993e-15 0)
(3 -6.108797978e-16 0)
(3 1.066326144e-15 0)
(3 1.130753154e-15 0)
(3 2.53509566e-15 0)
(3 6.934479933e-15 0)
(3 7.315973443e-15 0)
(3 6.171722437e-15 0)
(3 8.482209221e-15 0)
(3 8.463974801e-15 0)
(3 8.084011054e-15 0)
(3 9.414339583e-15 0)
(3 6.701889904e-15 0)
(3 4.893750534e-15 0)
(3 5.51658191e-15 0)
(3 8.546420961e-15 0)
(3 8.67495146e-15 0)
(3 1.040695232e-14 0)
(3 1.010508693e-14 0)
(3 4.406464165e-15 0)
(3 3.702166664e-15 0)
(3 6.344917747e-15 0)
(3 6.755190642e-15 0)
(3 4.97612038e-15 0)
(3 2.548046686e-16 0)
(3 -4.366455266e-15 0)
(3 -5.831762727e-15 0)
(3 -7.339663013e-15 0)
(3 -5.325462088e-15 0)
(3 -5.068167758e-15 0)
(3 -5.180940309e-15 0)
(3 -2.969478141e-15 0)
(3 -2.23054225e-15 0)
(3 -2.942587437e-15 0)
(3 -4.27953841e-15 0)
(3 -1.305240869e-15 0)
(3 8.852889122e-16 0)
(3 -9.061148456e-16 0)
(3 -6.555905549e-16 0)
(3 -6.393632732e-16 0)
(3 -1.320206435e-15 0)
(3 -7.727828687e-16 0)
(3 -2.667078768e-16 0)
(3 -1.455104448e-15 0)
(3 6.097495446e-17 0)
(3 1.539060447e-16 0)
(3 -8.781399624e-16 0)
(3 2.221625829e-15 0)
(3 4.891901748e-16 0)
(3 -1.087410557e-15 0)
(3 -1.121708287e-15 0)
(3 -7.035374496e-18 0)
(3 -2.672087697e-15 0)