/*--------------------------------*- C++ -*----------------------------------*\
  =========                 |
  \\      /  F ield         | OpenFOAM: The Open Source CFD Toolbox
   \\    /   O peration     | Website:  https://openfoam.org
    \\  /    A nd           | Version:  7
     \\/     M anipulation  |
\*---------------------------------------------------------------------------*/
FoamFile
{
    version     2.0;
    format      ascii;
    class       volScalarField;
    location    "4";
    object      T;
}
// * * * * * * * * * * * * * * * * * * * * * * * * * * * * * * * * * * * * * //

dimensions      [0 0 0 1 0 0 0];

internalField   nonuniform List<scalar> 
2222
(
0.885512482
0.8901570962
0.9081122425
0.9468924843
0.9829396464
0.9761524366
0.9697002278
0.9625208926
0.9571172769
0.9523515767
0.9473119236
0.9415919029
0.9367675477
0.9323676992
0.9277101736
0.9231427875
0.9188439369
0.9147075372
0.9101072474
0.9065816144
0.9036608904
0.9007497607
0.8972468036
0.8942151019
0.8916949169
0.8891606216
0.8854108202
0.8844842622
0.8836244391
0.8835988454
0.8844740746
0.8926020625
0.9202179543
0.9638304981
1.003306386
0.9740324861
0.9673764143
0.961001172
0.9538889605
0.9484411787
0.9438165454
0.9390066761
0.9335457724
0.928884705
0.9246034304
0.9201773023
0.915844987
0.9116888413
0.9077522733
0.9036394581
0.9004997657
0.8983105888
0.8958588657
0.8928026546
0.8900491697
0.8884457529
0.886177019
0.883550891
0.883636594
0.88359485
0.8853360233
0.8978707208
0.9347128824
0.9778164754
1.012441033
1.022100081
0.9650908958
0.9587978911
0.9528598105
0.946028844
0.940779471
0.9365318643
0.9321586368
0.9270358745
0.9226017202
0.9186340573
0.914590135
0.9104282546
0.9065452056
0.9030147624
0.8990503425
0.8962201995
0.8944711818
0.8924101356
0.8889431125
0.8869024499
0.8858612619
0.8838660344
0.882811538
0.8832210766
0.8872410683
0.9081887005
0.9476150325
0.9964330627
1.023851952
1.034977868
1.033393994
0.9568890677
0.9506006835
0.9447452561
0.9381926698
0.9331416269
0.9290519631
0.9247508358
0.9197105175
0.9151939868
0.9110458039
0.9068868085
0.9027068438
0.8991209959
0.8958915257
0.8918566699
0.889538378
0.888393695
0.8866928915
0.8830687121
0.8822740609
0.882368982
0.8821267785
0.8831935317
0.8921382425
0.9190708259
0.9645934961
1.006313802
1.020268913
1.030074716
1.037063951
1.036868772
0.9476649327
0.9414379768
0.9355281183
0.9290302422
0.9240561444
0.9200942784
0.9159175986
0.9111141054
0.9067696087
0.9030528163
0.8996288809
0.8963610341
0.8937567006
0.8912313611
0.8872176545
0.8857678656
0.8853411552
0.8838186582
0.8814907595
0.8815658708
0.8820698672
0.8846695979
0.9001597801
0.9362872984
0.9831341418
1.016102676
1.034501172
1.035236225
1.034317834
1.035568896
1.036870469
0.9387787383
0.9332103443
0.9280146564
0.9222300363
0.9175414777
0.9139556115
0.9101277948
0.9056989615
0.9015415334
0.8983155243
0.8955010097
0.8927138424
0.8907637991
0.8886240504
0.8847546708
0.8838531378
0.8837392191
0.8825799466
0.8814852879
0.8818744628
0.8874244328
0.9098091304
0.9581975816
0.9955877628
1.020684363
1.026586045
1.035823382
1.037745496
1.03759276
1.036902671
1.037324409
0.9308962893
0.9253384868
0.9202427843
0.9144318784
0.9096731745
0.9061890111
0.9025143606
0.8980322579
0.8939942016
0.8914012449
0.8889448636
0.8867102612
0.8855258757
0.8838337918
0.880962909
0.8806100723
0.8811237089
0.881037778
0.8822380227
0.8919616601
0.9242862093
0.968116234
1.003841049
1.026767769
1.035612614
1.033017771
1.034399007
1.036896354
1.038069093
1.037990293
1.037769941
0.9208559512
0.9155889952
0.9106623424
0.9049798829
0.9008057371
0.8981694165
0.8952540087
0.8910747952
0.8881854765
0.8866375516
0.8846312382
0.882892111
0.8821842619
0.8807531666
0.8795835048
0.8798975614
0.8806260656
0.8840459939
0.9015801351
0.9383201526
0.989143705
1.023429503
1.030469844
1.0355314
1.037809269
1.037446476
1.03630376
1.036752253
1.037909173
1.038153795
1.038081683
0.9131110485
0.9086331386
0.9046450522
0.8992465064
0.8961185875
0.8945473068
0.8922934004
0.8886084013
0.8865647932
0.8853350873
0.8831941014
0.8816870301
0.8812218055
0.8802220583
0.8798212509
0.8806951167
0.8877155783
0.9141166223
0.9563961232
1.000828958
1.016261048
1.031700654
1.033545969
1.035910286
1.037399646
1.037953976
1.03760715
1.037328476
1.037677642
1.038098479
1.038080782
0.9054532252
0.9012675646
0.8977151134
0.8917429259
0.8895680249
0.889134402
0.8875025491
0.8843071333
0.8831657933
0.8823821194
0.8804059955
0.8794910101
0.8795629827
0.8795062149
0.8811418462
0.8948253471
0.9265840416
0.9770247284
1.014821127
1.034164394
1.033189442
1.035073226
1.034888142
1.035042823
1.035756692
1.03697798
1.037879145
1.037961469
1.037917964
1.037993994
1.038000402
0.8954535278
0.8928056614
0.8901235001
0.8855109775
0.8842321836
0.8845199422
0.8835422635
0.8812097155
0.8805908899
0.8801335229
0.8790826967
0.8787067336
0.8790205615
0.8834988002
0.9011708164
0.9484469164
0.9947604464
1.020506766
1.028581884
1.03741372
1.037710549
1.037517165
1.037006633
1.036348374
1.036531624
1.037211287
1.038122023
1.038340802
1.038270159
1.038124814
1.038023441
0.8919109551
0.8901950933
0.8878907574
0.8843742453
0.8834875477
0.8836471484
0.8828089934
0.8807317541
0.8805514185
0.8802993756
0.8792615683
0.8800109065
0.8870930798
0.9166319682
0.9609784692
0.9957830241
1.022834916
1.032321549
1.032722467
1.035564684
1.037527539
1.038362785
1.038271776
1.038156106
1.038228863
1.038350969
1.03855462
1.038599579
1.038519541
1.038322793
1.03815977
0.8874738133
0.8864818388
0.884539014
0.881865645
0.8814760348
0.8818004598
0.8812319251
0.879902793
0.8803210177
0.8805387597
0.8826212312
0.896375036
0.9293194112
0.9808099709
1.022445103
1.029592883
1.035349921
1.038871945
1.038677918
1.038273345
1.038661339
1.038716734
1.038801272
1.038853572
1.038988572
1.038938172
1.038837866
1.038734997
1.038660471
1.038548897
1.038498884
0.8831381017
0.8827579096
0.8814775041
0.8796418481
0.8791587534
0.8794758248
0.8794291666
0.8793735747
0.8801046528
0.8852445924
0.9082059471
0.9492416934
0.9953009114
1.013171554
1.031901904
1.035582385
1.038458375
1.040241748
1.04076979
1.040624832
1.040030512
1.039073372
1.038791018
1.038935568
1.03909407
1.039197961
1.039091695
1.03891986
1.038876098
1.038893514
1.03896473
0.882676681
0.8825146009
0.8814926016
0.8797450067
0.8792674756
0.8795426151
0.8796476001
0.8806701247
0.8913451072
0.9190769753
0.968847941
1.010853103
1.034564813
1.034702137
1.037466061
1.037829942
1.03834954
1.039436686
1.040410157
1.040802887
1.0405194
1.039834132
1.03913225
1.038992518
1.039042192
1.039194161
1.039320846
1.039262745
1.039275581
1.039371417
1.03950543
0.8818878013
0.8819921042
0.8813994725
0.8802195284
0.880031955
0.8802226696
0.8831575182
0.8974051404
0.9390307677
0.9853877569
1.011887991
1.025548212
1.039184305
1.040274073
1.040509884
1.040140565
1.039348653
1.039169112
1.039556863
1.040473076
1.040951638
1.040712431
1.040186832
1.039791536
1.039696741
1.039800628
1.0399859
1.03998764
1.039961619
1.04004277
1.040155108
0.8802942388
0.8806183291
0.8805939201
0.8802816764
0.8807445649
0.8861531025
0.9103778631
0.9544826017
0.9988567414
1.029858824
1.036577323
1.035143014
1.038386118
1.040674189
1.041677405
1.041577031
1.040903017
1.040201796
1.040276107
1.040782198
1.041522642
1.041543938
1.041234876
1.040877831
1.040805233
1.040886291
1.040963229
1.040952938
1.040883181
1.040853653
1.040907441
0.8801605774
0.8804333834
0.8806313303
0.8821565182
0.892667055
0.9245212734
0.9699417828
1.0147542
1.023772884
1.035506688
1.04069605
1.040643886
1.041388149
1.042205884
1.042262451
1.042420967
1.042265574
1.041947702
1.041817254
1.041949243
1.042209321
1.042207451
1.042028726
1.041838664
1.041819542
1.041898042
1.041928818
1.041943583
1.041875525
1.041775297
1.041811288
0.8806526407
0.8809575778
0.88426419
0.9027371671
0.9401082613
0.9909705524
1.023731458
1.040720936
1.040179563
1.03996059
1.041010629
1.042121894
1.043115763
1.043429747
1.04332563
1.043187065
1.04318638
1.043151818
1.043097762
1.042982903
1.042888673
1.042787818
1.042633222
1.042518091
1.042576532
1.042698975
1.042784195
1.04285726
1.042865546
1.042844006
1.042864555
0.881866677
0.8889844139
0.913316528
0.9626757643
1.003736567
1.025475802
1.034521119
1.043179959
1.043690812
1.042795427
1.042377599
1.042981505
1.043873468
1.04440862
1.044360314
1.044193301
1.043989125
1.044013701
1.043954752
1.043793842
1.043585188
1.043386175
1.043312567
1.043240112
1.043265932
1.043352137
1.043526332
1.043744144
1.043878765
1.043902392
1.04389692
0.8939622222
0.9307958027
0.9793810035
1.015215241
1.036687817
1.042086747
1.040741093
1.04209353
1.043320389
1.043747277
1.043540332
1.04368972
1.044359659
1.045272473
1.045520471
1.045395493
1.045053297
1.044643743
1.044317102
1.044133779
1.044060478
1.044070099
1.044139518
1.044168714
1.044204395
1.044285666
1.044449267
1.044682101
1.044795707
1.044776593
1.044766812
0.9462952238
0.9970954868
1.033072547
1.035441768
1.041432184
1.045088567
1.044841515
1.044069346
1.044163709
1.044323106
1.044393237
1.044460666
1.044727379
1.045562191
1.046321113
1.046295663
1.046017802
1.045457473
1.044939846
1.044657455
1.044650173
1.044767266
1.044915769
1.044998813
1.045084538
1.045204266
1.045312115
1.045429811
1.045452238
1.045432327
1.045441612
1.006237916
1.023845425
1.040048691
1.041874402
1.04338492
1.04502368
1.045849926
1.04563142
1.04511832
1.045083531
1.045116511
1.04518172
1.045362658
1.045781131
1.046505194
1.046685181
1.046545349
1.046124548
1.045657093
1.045351559
1.045304428
1.045344138
1.045430006
1.045540343
1.045665596
1.045811785
1.045874674
1.045899457
1.045914231
1.045905569
1.045902732
1.042530075
1.042899472
1.045198905
1.046237707
1.045801887
1.045995283
1.046184864
1.046123857
1.045984964
1.045858299
1.045886873
1.045898905
1.045962414
1.046181631
1.04662125
1.04673103
1.046652183
1.046382572
1.046035508
1.045848081
1.045776668
1.045777377
1.045805789
1.045882
1.046000181
1.046113249
1.046159909
1.046188444
1.046240003
1.046292143
1.04629272
1.047117274
1.046853765
1.046856895
1.046584121
1.04630445
1.046091091
1.04614777
1.046147918
1.046165993
1.046235808
1.046341258
1.046341734
1.046354937
1.046516958
1.046656273
1.046608343
1.046464604
1.046268018
1.046092929
1.046049535
1.046019476
1.045982839
1.046022604
1.046128577
1.046238468
1.046297501
1.046339325
1.046387275
1.046470728
1.046569296
1.046564657
1.046008746
1.046615096
1.046494848
1.04621767
1.046175789
1.046117364
1.045929862
1.045897785
1.046001786
1.04621337
1.046377851
1.046524829
1.046653984
1.046623557
1.046494405
1.046453229
1.046363944
1.04616336
1.046026972
1.046045897
1.046093734
1.046209425
1.046371555
1.046512963
1.046528456
1.046521789
1.046524392
1.046547857
1.046619909
1.046649936
1.046608318
1.046375715
1.046293463
1.046118105
1.045978874
1.04588452
1.045876868
1.045696978
1.045541484
1.045631881
1.045894768
1.046223271
1.046449344
1.046590832
1.046547121
1.04647905
1.046497992
1.046447913
1.0462556
1.04622773
1.04635694
1.046509685
1.046644538
1.046806157
1.046929408
1.04688103
1.046809581
1.046764773
1.046691883
1.046693314
1.046743945
1.046699636
1.046237206
1.045966155
1.045904309
1.045924722
1.046083248
1.046125645
1.045887433
1.045501197
1.045492965
1.045695544
1.046018234
1.046378598
1.046569174
1.046494743
1.046528863
1.046607856
1.046616368
1.046533493
1.046617995
1.046839483
1.047013831
1.04713268
1.047271786
1.047369842
1.047298193
1.047174638
1.047018064
1.046809592
1.046700753
1.046758382
1.046758673
1.046620929
1.04641795
1.046447819
1.046571969
1.046731549
1.046708241
1.046442151
1.046030069
1.045939646
1.045984655
1.046172624
1.046394887
1.046453766
1.046409798
1.046502032
1.046636965
1.046719171
1.046791138
1.046980639
1.047187858
1.047352288
1.047474071
1.047588364
1.047582305
1.047467421
1.047297839
1.047128339
1.046952411
1.046850606
1.046904519
1.046971485
1.047671323
1.047491129
1.047334778
1.047381576
1.047479214
1.047443941
1.047252018
1.047013606
1.046856438
1.046784442
1.046776218
1.046782642
1.046747429
1.046701999
1.04674876
1.046841261
1.04694015
1.047049957
1.047193486
1.047352523
1.047487681
1.047618483
1.047686504
1.047656252
1.047556165
1.047441024
1.04733207
1.047263602
1.047273459
1.047340511
1.047441859
1.048510055
1.048375534
1.048170129
1.047889909
1.047863439
1.048020362
1.048034304
1.047821756
1.047511119
1.047282201
1.047179718
1.047148996
1.047130095
1.047046623
1.04698232
1.046980023
1.047042853
1.047119385
1.047194707
1.047303374
1.047487425
1.047677702
1.047813331
1.047818095
1.047747976
1.047584792
1.047511444
1.047466152
1.047477089
1.047507812
1.047553587
1.047617347
1.04860185
1.048591366
1.048325465
1.048052247
1.04801229
1.048063569
1.048078098
1.047913141
1.047605965
1.04730894
1.047156004
1.047108098
1.047197373
1.047199437
1.047173892
1.047167107
1.047147817
1.047184057
1.047255603
1.047367434
1.047513894
1.047728118
1.047909421
1.04793672
1.04784988
1.047669524
1.047522763
1.047468999
1.047528656
1.047590739
1.047631468
1.047663379
1.048523684
1.048596848
1.04848609
1.04826352
1.048217504
1.048106725
1.048016763
1.047864621
1.047730627
1.04746944
1.047351281
1.047321911
1.047339361
1.047318085
1.04732573
1.047313378
1.047325985
1.047370647
1.04745496
1.047533299
1.047630228
1.047780427
1.047947266
1.04802897
1.047988118
1.047849957
1.047644349
1.047534052
1.047577725
1.047668824
1.047726863
1.047745291
1.048441138
1.048502169
1.048437911
1.048314389
1.048328246
1.048208751
1.047999198
1.047853926
1.047761957
1.047729012
1.047682467
1.047587142
1.047540823
1.047462132
1.047470343
1.047496622
1.047510765
1.047541853
1.047642642
1.047742369
1.047828133
1.047927425
1.048062502
1.048088256
1.048077911
1.048007065
1.047852437
1.047686297
1.047677046
1.047726216
1.04782809
1.047947011
1.048581435
1.048508194
1.048339698
1.048231683
1.048282466
1.048216666
1.048071181
1.04784596
1.047736533
1.04784074
1.047992913
1.047942469
1.047807409
1.047654351
1.047664032
1.047674107
1.047674818
1.047704739
1.04776047
1.04789465
1.048041923
1.048163901
1.048240127
1.048229351
1.048163675
1.048087564
1.048025653
1.047949942
1.047848449
1.047876028
1.047975771
1.04812963
1.048697695
1.048597875
1.048335932
1.048143544
1.048183391
1.04817008
1.048121837
1.048018933
1.047821816
1.047861981
1.048079978
1.048183391
1.048121806
1.04796311
1.047959044
1.047944391
1.047888848
1.047861987
1.047913909
1.047986136
1.048184184
1.048379131
1.048485512
1.048435834
1.048311467
1.048195299
1.04814073
1.048140804
1.048108778
1.048094951
1.048151781
1.048272727
1.048664299
1.048619832
1.04838608
1.048108758
1.048107426
1.048121491
1.048110009
1.048137949
1.048040902
1.048007917
1.048097343
1.048261024
1.048307037
1.048223023
1.048251936
1.04825369
1.0482237
1.048137139
1.04805984
1.048132408
1.048288733
1.048510116
1.048666677
1.048679385
1.048538945
1.048343825
1.048268507
1.048258282
1.048305704
1.048361997
1.048381121
1.048451713
1.048645688
1.048648646
1.048453349
1.048171119
1.048120808
1.048090463
1.048076542
1.0481291
1.048170819
1.04822215
1.048236945
1.04832673
1.048396824
1.048362007
1.048410683
1.048448396
1.048457454
1.048436612
1.048352383
1.048290358
1.048418475
1.048607493
1.04876693
1.048832269
1.048763792
1.048573725
1.048407109
1.04838425
1.048426411
1.048546083
1.048650314
1.048692268
1.048396225
1.048487882
1.048360342
1.048256234
1.04820893
1.048188946
1.048109074
1.048093182
1.048159414
1.048333945
1.048441011
1.048470994
1.048502877
1.048478196
1.04852249
1.048563779
1.048578489
1.048591595
1.048626959
1.048579529
1.04860992
1.04872133
1.04884795
1.04891976
1.048899299
1.048809902
1.048615878
1.04851309
1.048556445
1.048651865
1.048833323
1.048960474
1.048010491
1.048098828
1.048373453
1.04832056
1.04822944
1.048277841
1.048305984
1.048160082
1.048066337
1.048121809
1.04834927
1.048583668
1.048665172
1.048677582
1.048634133
1.048666694
1.048676727
1.048661359
1.048663274
1.048764237
1.048841213
1.048903329
1.048930986
1.048962108
1.048992549
1.048961602
1.048949995
1.048850484
1.048736138
1.048698973
1.048769392
1.048932394
1.049132718
1.047944947
1.048083539
1.048206448
1.048142823
1.048239997
1.048346959
1.048348421
1.048274261
1.048187107
1.048191213
1.048418201
1.048657562
1.048860984
1.048895885
1.0488285
1.048844943
1.04881791
1.048795288
1.048783965
1.048836948
1.048985711
1.049138585
1.049204692
1.049196406
1.049117902
1.049034947
1.049017651
1.049002505
1.048978537
1.048945362
1.048904823
1.049025386
1.049226708
1.048175983
1.048275487
1.048295708
1.048100045
1.048086463
1.048263139
1.048374851
1.04844394
1.048436596
1.048344829
1.048463843
1.048747119
1.048993312
1.049106682
1.049079908
1.049101395
1.049065651
1.049009966
1.048926214
1.048916617
1.049039853
1.049273572
1.049412547
1.049439306
1.049363005
1.049173843
1.049074923
1.04910036
1.04913088
1.0491723
1.049154055
1.049167321
1.04929014
1.048511121
1.04862711
1.048545622
1.048212768
1.048116054
1.048157876
1.048239866
1.048458532
1.048585743
1.048591615
1.0486172
1.048780192
1.049043892
1.049318419
1.049343837
1.049394213
1.049374858
1.049316359
1.049191983
1.049100354
1.049181668
1.049321091
1.049546932
1.049627959
1.049582756
1.049426777
1.04921918
1.049145597
1.049203409
1.04933441
1.049378218
1.049419286
1.04943801
1.048845503
1.048916217
1.048805474
1.048497564
1.04827508
1.048254576
1.048257569
1.048348261
1.048646875
1.048817164
1.048922034
1.04896435
1.049168417
1.049445185
1.049550966
1.049647191
1.049642062
1.049593393
1.049501961
1.049421449
1.049389798
1.049484614
1.049600229
1.049755278
1.049769554
1.049654444
1.049474199
1.049296561
1.049271621
1.049413858
1.049560747
1.049637711
1.049672067
1.048964045
1.049185204
1.049061772
1.048802032
1.048573021
1.048461695
1.048428947
1.048455347
1.048572619
1.048947218
1.049181049
1.049294735
1.049405916
1.049574463
1.049678608
1.049827851
1.049853403
1.049827259
1.049753555
1.049688363
1.049697176
1.049719749
1.049767656
1.049806819
1.049891582
1.049855313
1.049706764
1.049551667
1.049437945
1.049485543
1.049650648
1.049833216
1.049858434
1.048803821
1.049173719
1.049329766
1.049145057
1.04893664
1.048883249
1.048802539
1.048714498
1.048681035
1.048856354
1.04931368
1.049573217
1.049741014
1.049791623
1.049817764
1.049850937
1.049845763
1.049854683
1.049905133
1.049925696
1.049966433
1.050008004
1.049999977
1.049960588
1.049900941
1.049942409
1.049923897
1.04978649
1.049683851
1.04964373
1.049691839
1.049905236
1.050042348
1.04888702
1.049032536
1.049349812
1.049427791
1.049353918
1.049265086
1.049181187
1.049120427
1.048930765
1.048925772
1.049217367
1.049737849
1.050029928
1.050116759
1.050038351
1.049981284
1.049882696
1.049788812
1.049788615
1.049940451
1.050155349
1.05025577
1.050250472
1.050174406
1.05002883
1.049921584
1.049979496
1.04999242
1.049919772
1.049869794
1.049832726
1.049899873
1.049272651
1.049142738
1.049196589
1.049267083
1.049447669
1.049614658
1.049641599
1.049576806
1.049482646
1.049324795
1.049152826
1.049280461
1.049621987
1.050177614
1.050380128
1.050318474
1.050193227
1.050043945
1.049925344
1.049819082
1.049872283
1.050079747
1.050382406
1.050481223
1.050413773
1.050239201
1.050036803
1.049936643
1.05001117
1.050104811
1.050079846
1.050021426
1.050037766
1.049536798
1.049501123
1.049552028
1.049477002
1.049411615
1.049540978
1.049737881
1.04981725
1.049836581
1.04969656
1.049553171
1.049528164
1.049695087
1.050029267
1.050490319
1.050541427
1.050478589
1.050354013
1.050181901
1.050021725
1.050021534
1.050106904
1.050281589
1.050527168
1.050619682
1.050494269
1.050254981
1.050049534
1.049969789
1.050067399
1.050236083
1.050246815
1.050219308
1.049925446
1.049995719
1.050045014
1.049817908
1.049601026
1.049496125
1.049524078
1.049700738
1.04990103
1.050026428
1.049992247
1.049922667
1.049958404
1.05011338
1.050340689
1.050569698
1.050679516
1.050618708
1.050491262
1.05036667
1.050291907
1.050307141
1.050363029
1.050423494
1.050565527
1.050666904
1.050544395
1.050289735
1.050099002
1.05004847
1.050188681
1.050423448
1.050473146
1.050174494
1.050354873
1.05044155
1.050227037
1.049885201
1.049654724
1.04958955
1.049611841
1.049738738
1.050013178
1.050301852
1.050348627
1.050362397
1.050405504
1.050448721
1.050493925
1.05059296
1.050649622
1.050677289
1.050649409
1.050642056
1.050656076
1.05059357
1.050558282
1.050501557
1.050550559
1.05068317
1.050588345
1.050362656
1.050197575
1.050193727
1.050376984
1.050699795
1.049985595
1.050272017
1.05052828
1.050481615
1.050267864
1.049996638
1.049907633
1.049827507
1.049781028
1.049870259
1.05019866
1.050601569
1.050772941
1.050891141
1.050772279
1.05068906
1.050626823
1.050565195
1.050549172
1.050668359
1.050850182
1.050959979
1.050977189
1.050849057
1.050686798
1.050540083
1.050539625
1.050705559
1.050666595
1.050487834
1.050383055
1.050420464
1.050687229
1.050001061
1.050109186
1.050250931
1.050361278
1.050492575
1.05043403
1.050338082
1.050162341
1.050012133
1.04996921
1.050113245
1.050458011
1.0509813
1.05129633
1.051271099
1.051074822
1.050906105
1.050755249
1.050609591
1.05060559
1.050758816
1.051047842
1.051240244
1.051216063
1.05104127
1.050762917
1.050575187
1.050571397
1.050761508
1.050806105
1.050731449
1.05064122
1.050713029
1.050230737
1.050260238
1.050294597
1.050248717
1.050297199
1.050553725
1.050665581
1.050572234
1.050382603
1.050225612
1.050282139
1.050466271
1.050861895
1.051400579
1.051597294
1.051517403
1.051344354
1.051105529
1.050886883
1.050791118
1.050831962
1.050952357
1.05120029
1.051411493
1.05140127
1.05116332
1.050826727
1.050644924
1.050646052
1.05090654
1.05104734
1.051018356
1.050938506
1.050628577
1.050623952
1.050625756
1.050477069
1.050315487
1.050361025
1.050655065
1.050870911
1.05084832
1.050672758
1.050630515
1.050747668
1.0509868
1.05125991
1.051541105
1.051642019
1.051620667
1.051482599
1.051313686
1.051170412
1.051130818
1.051136802
1.051173516
1.051285477
1.051500925
1.051506501
1.051258613
1.050918129
1.050751434
1.050802738
1.051142568
1.051346494
1.051318216
1.051183858
1.051138541
1.051168673
1.051193956
1.050912342
1.050604745
1.050467696
1.050518978
1.050802315
1.051119843
1.051181859
1.051148169
1.051208476
1.051337883
1.051448644
1.051479798
1.051471738
1.051489251
1.05152007
1.051565614
1.051578135
1.051587101
1.051509194
1.051408663
1.051328587
1.051338366
1.051517156
1.051584149
1.051367502
1.051056501
1.050946174
1.051036101
1.051421701
1.0516446
1.051235189
1.051494222
1.051637392
1.051693419
1.051459853
1.051140786
1.050826397
1.050735012
1.050766573
1.051045443
1.051442074
1.051620733
1.051750806
1.051857049
1.051828426
1.051741349
1.051593596
1.051460455
1.051362192
1.051391957
1.051581326
1.051824853
1.05193327
1.051837063
1.051632516
1.051456912
1.051387665
1.051529641
1.051660188
1.051514999
1.05126303
1.051163179
1.051271152
1.051653886
1.051150478
1.051457254
1.051767955
1.051980841
1.051901653
1.051657468
1.051452314
1.051228202
1.051115838
1.051114489
1.051343032
1.051723903
1.052038339
1.052273281
1.052335738
1.05218213
1.05191765
1.051682443
1.051477788
1.05138915
1.051448369
1.051649368
1.052030523
1.052208048
1.052105915
1.051801481
1.051547591
1.051446011
1.051547326
1.051754297
1.051692765
1.051476427
1.051415579
1.051512204
1.0513576
1.051474587
1.051635059
1.051805268
1.051965327
1.052004599
1.051951549
1.051876104
1.051673081
1.051424922
1.05142407
1.051602553
1.051904785
1.052367456
1.052646516
1.052597524
1.052387043
1.052115031
1.051870701
1.051718648
1.051668704
1.051688904
1.051860519
1.052164514
1.052375484
1.052268472
1.051921813
1.051637431
1.051508281
1.051606678
1.051888138
1.051899198
1.051724696
1.051600851
1.05171974
1.051751121
1.051818351
1.051836822
1.051784617
1.051860529
1.052085569
1.05224639
1.052166307
1.05192197
1.051705368
1.051748837
1.051917491
1.052252087
1.052566873
1.052673528
1.052659433
1.052526429
1.052374103
1.052208565
1.052072264
1.051978767
1.051979385
1.052049017
1.052229426
1.052458302
1.052368606
1.052026958
1.051728032
1.051617355
1.051731809
1.052060011
1.052124148
1.051949891
1.052139732
1.052137092
1.052165461
1.052130426
1.051932675
1.051811186
1.051842519
1.052050171
1.052322865
1.052391812
1.052179202
1.052107304
1.052229091
1.052435264
1.052539763
1.052555132
1.052527495
1.052479129
1.052469932
1.052477408
1.052499448
1.052458768
1.052371958
1.052285951
1.052217113
1.052277607
1.052483567
1.052443423
1.052139381
1.051851512
1.051762074
1.051918278
1.052318173
1.052427266
1.052406074
1.052453478
1.05253963
1.052506323
1.052225916
1.052003696
1.051906368
1.051947754
1.052138604
1.05246751
1.052614264
1.052627277
1.052748445
1.052862894
1.052794458
1.052685539
1.052528449
1.05236568
1.052273185
1.052350103
1.052585551
1.052830563
1.052897068
1.052724169
1.052477934
1.052309784
1.052312281
1.052509411
1.052535571
1.052282229
1.052060488
1.052022108
1.052224258
1.052608223
1.052349889
1.052484749
1.052647129
1.052683951
1.052474925
1.052270672
1.052190923
1.052135005
1.052136426
1.052312181
1.052682918
1.05297913
1.053258438
1.053417336
1.053259458
1.05307231
1.052867049
1.052634183
1.052425671
1.05234883
1.052418508
1.052708449
1.053085851
1.053155117
1.052950729
1.05263106
1.052411702
1.052369926
1.052565693
1.052668748
1.052535754
1.052310122
1.052286344
1.052166169
1.052296834
1.052386828
1.05250615
1.052535585
1.052459697
1.05246365
1.052604561
1.052553131
1.05246455
1.052487055
1.052645304
1.052949536
1.053376672
1.053737418
1.053681037
1.053532286
1.053315206
1.053043072
1.052757999
1.052574573
1.052522064
1.052613698
1.052878456
1.05324936
1.053363205
1.053141965
1.052742095
1.052498559
1.052465449
1.052660532
1.052876045
1.052773289
1.05263716
1.052397634
1.052436915
1.052514904
1.052571468
1.052492694
1.052361778
1.052422842
1.052780433
1.053016551
1.052989728
1.052838925
1.052844399
1.052993709
1.053269975
1.053661836
1.053702967
1.053614127
1.053446204
1.053303372
1.053141454
1.053021916
1.052932144
1.052911505
1.05294079
1.053054396
1.053308177
1.053453482
1.053238206
1.052859748
1.052631395
1.052581788
1.052851398
1.053125774
1.053121511
1.052742823
1.052677017
1.052728134
1.052812252
1.052720957
1.052518925
1.052534224
1.052747071
1.053125197
1.053370485
1.053346309
1.053261888
1.053288524
1.053429413
1.053650063
1.053598573
1.053457453
1.053269317
1.053215379
1.053288115
1.053407789
1.0534828
1.053403089
1.053235846
1.053112194
1.05311243
1.053303857
1.053508314
1.053350528
1.053007047
1.052783839
1.052808043
1.053066195
1.053360931
1.053033841
1.052967858
1.053004903
1.053159165
1.053118035
1.052935479
1.052935521
1.052985293
1.053112008
1.053373293
1.053601696
1.053653244
1.053680775
1.05378477
1.053875368
1.053813977
1.053658574
1.053389008
1.053149345
1.053061149
1.053222858
1.053592596
1.053767928
1.053712255
1.053501038
1.053289001
1.05318319
1.053296025
1.053538223
1.053456673
1.053167857
1.052975299
1.052988474
1.053286909
1.053226296
1.053229286
1.053273984
1.053376226
1.053437431
1.053405472
1.053448314
1.053404206
1.053371489
1.053402416
1.053486719
1.053670447
1.053896514
1.054198159
1.054232697
1.054142188
1.053928195
1.053605066
1.053250178
1.05303739
1.053080109
1.053318042
1.053751589
1.054052686
1.054019899
1.053667438
1.0533437
1.053211462
1.053295934
1.053569223
1.053573913
1.053352846
1.053195785
1.053244395
1.053340359
1.05343545
1.053563079
1.053552981
1.053547992
1.053579593
1.053737422
1.053823278
1.053735409
1.053548441
1.05350675
1.05361205
1.053874929
1.054317327
1.05451069
1.054414156
1.05420628
1.053969299
1.053699863
1.053471891
1.053383349
1.053400268
1.053566794
1.053866662
1.054146907
1.054064907
1.053744867
1.053424991
1.053268456
1.053417419
1.053559728
1.053850116
)
;

boundaryField
{
    inlet
    {
        type            fixedValue;
        value           nonuniform 0();
    }
    outlet
    {
        type            inletOutlet;
        inletValue      nonuniform 0();
        value           nonuniform 0();
    }
    bottom
    {
        type            slip;
    }
    top
    {
        type            slip;
    }
    obstacle
    {
        type            zeroGradient;
    }
    defaultFaces
    {
        type            empty;
    }
    procBoundary10to4
    {
        type            processor;
        value           nonuniform List<scalar> 
32
(
0.886834084
0.8870610767
0.8882863756
0.8999404769
0.9915163014
0.9847549203
0.9782542933
0.9707816883
0.9650964336
0.9601012546
0.9548742735
0.948883971
0.9440023212
0.9397151541
0.9351022693
0.9304439834
0.9261513365
0.9220951721
0.9176137646
0.9139874724
0.9108908528
0.9076975001
0.9040196171
0.9007470629
0.8981229486
0.8953300096
0.8920467503
0.8896183771
0.8878570842
0.8851821627
0.8847610704
0.8847610704
)
;
    }
    procBoundary10to5
    {
        type            processor;
        value           uniform 0.9964453964;
    }
    procBoundary10to9
    {
        type            processor;
        value           nonuniform List<scalar> 
55
(
0.990584442
0.9813448221
0.9723327315
0.963964221
0.9545430026
0.9453613157
0.937313614
0.9271887989
0.9189832287
0.9114436205
0.901330512
0.8964070799
0.8905988744
0.8848187031
0.8838305805
0.8825812415
0.8805905604
0.8804542234
0.8809160301
0.8813207299
0.8833238706
0.9043203157
0.9639265909
1.023560777
1.037525155
1.042671982
1.046087649
1.046468278
1.046672277
1.047728194
1.047728194
1.048466124
1.048494433
1.048439273
1.048505078
1.048635349
1.048672949
1.04860203
1.048443254
1.048229932
1.048229932
1.04808124
1.048093835
1.048272675
1.048557322
1.048724597
1.048596321
1.048680201
1.04895801
1.04895801
1.04937042
1.049677947
1.049878189
1.049792969
1.049756163
)
;
    }
    procBoundary10to11
    {
        type            processor;
        value           nonuniform List<scalar> 
70
(
1.030461643
1.031683293
1.034114253
1.036403439
1.037153581
1.03749495
1.037695091
1.037953289
1.037946308
1.037946205
1.037948332
1.038091341
1.038522926
1.039111671
1.039723205
1.040377055
1.041081432
1.041933885
1.0429411
1.043924264
1.044779811
1.045461627
1.045919108
1.046304311
1.046556087
1.04654896
1.046583966
1.046713818
1.046997378
1.047485863
1.0476618
1.047656045
1.047733297
1.047944137
1.048187767
1.04839648
1.048569537
1.048757836
1.048992071