/*--------------------------------*- C++ -*----------------------------------*\
  =========                 |
  \\      /  F ield         | OpenFOAM: The Open Source CFD Toolbox
   \\    /   O peration     | Website:  https://openfoam.org
    \\  /    A nd           | Version:  7
     \\/     M anipulation  |
\*---------------------------------------------------------------------------*/
FoamFile
{
    version     2.0;
    format      ascii;
    class       volVectorField;
    location    "0.6";
    object      U;
}
// * * * * * * * * * * * * * * * * * * * * * * * * * * * * * * * * * * * * * //

dimensions      [0 1 -1 0 0 0 0];

internalField   nonuniform List<vector> 8((3 -4.546350397e-17 0) (3 -4.591013369e-16 0) (3 -3.650994009e-16 0) (3 8.688876982e-16 0) (3 -9.068188725e-16 0) (3 -1.394610483e-15 0) (3 -1.281859363e-15 0) (3 -3.16922927e-16 0));

boundaryField
{
    inlet
    {
        type            fixedValue;
        value           uniform (3 0 0);
    }
    outlet
    {
        type            inletOutlet;
        inletValue      nonuniform 0();
        value           nonuniform 0();
    }
    bottom
    {
        type            slip;
    }
    top
    {
        type            slip;
    }
    obstacle
    {
        type            slip;
    }
    defaultFaces
    {
        type            empty;
    }
    procBoundary30to24
    {
        type            processor;
        value           nonuniform List<vector> 4((3 3.50390932e-16 0) (3 1.47370395e-16 0) (3 8.200679258e-18 0) (3 1.713385485e-15 0));
    }
    procBoundary30to31
    {
        type            processor;
        value           nonuniform List<vector> 2((3 2.552879311e-15 0) (3 1.044376829e-15 0));
    }
}


// ************************************************************************* //
