/*--------------------------------*- C++ -*----------------------------------*\
  =========                 |
  \\      /  F ield         | OpenFOAM: The Open Source CFD Toolbox
   \\    /   O peration     | Website:  https://openfoam.org
    \\  /    A nd           | Version:  7
     \\/     M anipulation  |
\*---------------------------------------------------------------------------*/
FoamFile
{
    version     2.0;
    format      ascii;
    class       volScalarField;
    location    "3";
    object      T;
}
// * * * * * * * * * * * * * * * * * * * * * * * * * * * * * * * * * * * * * //

dimensions      [0 0 0 1 0 0 0];

internalField   nonuniform List<scalar> 
2222
(
1.012703256
1.012696744
1.012703903
1.012650808
1.012506662
1.01235976
1.012281203
1.012328639
1.012381943
1.012442267
1.012342866
1.012250807
1.012153207
1.012204602
1.01255957
1.012844783
1.012947738
1.012940329
1.012872333
1.012741986
1.012559105
1.012281312
1.012182284
1.012200171
1.012449669
1.012877972
1.012998942
1.01289641
1.012845589
1.012806916
1.01273531
1.012706251
1.012683096
1.012641458
1.01320269
1.013225624
1.013102249
1.012770669
1.012659721
1.01244916
1.012468218
1.012551547
1.012618304
1.012460373
1.01235154
1.012511913
1.012266236
1.012075837
1.012121625
1.012424701
1.012663893
1.012726493
1.012766295
1.0127943
1.012660892
1.012452837
1.01225221
1.011994395
1.012065171
1.012356046
1.012682029
1.012751803
1.012703289
1.012672206
1.012664688
1.012621977
1.012555523
1.012464905
1.012799237
1.013029217
1.013140403
1.012892255
1.012600557
1.012591528
1.012589384
1.012607426
1.012678393
1.012631045
1.012677789
1.012483415
1.012332345
1.012151881
1.012068089
1.012125261
1.012265701
1.012376308
1.012475623
1.012632491
1.012674408
1.012643297
1.012330416
1.012114626
1.012005935
1.01194741
1.012211773
1.012486271
1.012490432
1.012449911
1.012452723
1.012449653
1.012410859
1.012315171
1.012465337
1.012886366
1.013034859
1.012893085
1.012613164
1.012574738
1.012441404
1.012405092
1.012467659
1.012780474
1.012886731
1.012746879
1.012665099
1.012381514
1.012172968
1.012009386
1.012052404
1.012163574
1.012242235
1.012358367
1.012535615
1.012675444
1.012530137
1.012381502
1.012102368
1.011985033
1.012020028
1.01219944
1.012297683
1.012272082
1.012223105
1.012239996
1.012290927
1.012259215
1.012256687
1.012578467
1.012824341
1.012853198
1.012755568
1.012559536
1.012403751
1.012346377
1.012331121
1.01257229
1.01275862
1.012913749
1.012894736
1.012691876
1.012377448
1.012126975
1.012078806
1.012123408
1.012146527
1.012177261
1.012282592
1.012458626
1.012633483
1.012519471
1.012266005
1.012053078
1.011897414
1.011929784
1.012092791
1.012132512
1.012087646
1.012087712
1.012166558
1.012197903
1.012157958
1.01229733
1.012551022
1.012740581
1.012831873
1.012647157
1.012516601
1.012374071
1.012296118
1.012196502
1.012407458
1.01282815
1.012851129
1.01283163
1.012657686
1.012396901
1.012173924
1.012129123
1.012122628
1.012137279
1.012134651
1.01222947
1.01245371
1.012498816
1.01237956
1.012109229
1.011886859
1.011835976
1.011943589
1.012041767
1.01205825
1.012054529
1.012074003
1.01208611
1.011934419
1.011965458
1.012177667
1.012393922
1.01262191
1.012697546
1.012608851
1.012387902
1.012212749
1.012105957
1.012244573
1.01245994
1.012674798
1.01279334
1.012773977
1.012561524
1.012268924
1.012116604
1.012091948
1.012128801
1.012105919
1.012123593
1.012182411
1.012292197
1.012323555
1.012199176
1.011991407
1.011848261
1.011854637
1.011966792
1.012070453
1.012083934
1.012054888
1.011992915
1.011507709
1.011518719
1.011641177
1.011786533
1.012039822
1.012372774
1.012415885
1.012306397
1.012110471
1.012104786
1.012103502
1.012189893
1.012397738
1.012503285
1.012601078
1.012540177
1.012310548
1.012093465
1.01202076
1.012065945
1.012118305
1.012084765
1.012022922
1.012065807
1.012151658
1.012181241
1.012058575
1.01188351
1.01180765
1.011873805
1.012002234
1.012063926
1.012046462
1.011948752
1.011286386
1.0111547
1.011118204
1.011224601
1.011406005
1.011673926
1.011992063
1.012124803
1.012068099
1.012075802
1.011977658
1.012028238
1.012079266
1.012109887
1.012200472
1.012248563
1.012211052
1.012017726
1.011892831
1.011906385
1.011996849
1.011971304
1.011888531
1.011842997
1.011926089
1.012052074
1.012046972
1.011884953
1.011759857
1.011763675
1.011841171
1.011936962
1.011984405
1.011910338
1.011626023
1.011241682
1.011062279
1.010882721
1.010863603
1.010873672
1.011025506
1.011434383
1.011786189
1.011966186
1.011924619
1.011840795
1.011825852
1.011770631
1.011743344
1.011741478
1.011820626
1.011919394
1.011834647
1.011691112
1.011631152
1.011672318
1.01174692
1.011698204
1.011621594
1.011635366
1.011717006
1.011785143
1.011756596
1.011678754
1.01162203
1.011624229
1.011694341
1.011777518
1.011771875
1.011502291
1.011294581
1.011159353
1.010842013
1.010661217
1.010477157
1.010508633
1.01071782
1.011069985
1.011421758
1.011510011
1.011570158
1.01151092
1.011466516
1.011402313
1.011342461
1.011399641
1.011468828
1.011514153
1.011447431
1.011345738
1.011346877
1.011449904
1.011435506
1.011397079
1.011364234
1.011395623
1.011461823
1.011541118
1.011532718
1.011455343
1.011398571
1.011378225
1.011420554
1.01146481
1.011230878
1.011197619
1.011073814
1.010791531
1.010467571
1.010267168
1.010155769
1.010117739
1.010281413
1.01060415
1.010959168
1.011092544
1.01111227
1.011121918
1.011069235
1.011014904
1.011016041
1.011034471
1.011126804
1.01116041
1.011104173
1.011060163
1.011043156
1.011155741
1.011181011
1.011131335
1.011108078
1.011157466
1.011258423
1.011295467
1.011248651
1.011169679
1.011083755
1.0110313
1.011034332
1.010694814
1.010833667
1.010778926
1.010633955
1.010433182
1.010233377
1.00991872
1.009830101
1.009848824
1.010017759
1.010367408
1.010582543
1.010683961
1.010719116
1.010719331
1.010715074
1.010688816
1.010710465
1.010765865
1.010849761
1.010839679
1.010738015
1.010685815
1.010840899
1.010892161
1.010846663
1.010780291
1.010809081
1.010877229
1.010936941
1.010932722
1.010866688
1.010769555
1.010679734
1.010631291
1.009969815
1.010203657
1.010317569
1.010336501
1.010215167
1.01002564
1.009855022
1.009669884
1.009535392
1.00956787
1.009862922
1.010142755
1.01027566
1.01030147
1.010305637
1.010313678
1.010335914
1.010383791
1.010409743
1.010491303
1.010503192
1.01041987
1.010390095
1.010396048
1.010414864
1.010410932
1.010349513
1.010347912
1.010380259
1.010419797
1.010449221
1.010446788
1.010398046
1.010325635
1.010255898
1.009375086
1.009469234
1.009553634
1.009497805
1.009531727
1.009569372
1.009605448
1.009389599
1.009177421
1.009150735
1.00941971
1.0097143
1.009851662
1.009898655
1.009856299
1.009789969
1.009839571
1.009914423
1.009934214
1.010017458
1.010081164
1.010067545
1.010005418
1.009833885
1.009792069
1.009842968
1.009826361
1.009789145
1.009795908
1.009809021
1.00983962
1.00988478
1.009924465
1.009934345
1.009861333
1.008889874
1.008767787
1.008687228
1.008545327
1.008601451
1.008913152
1.009084082
1.009048144
1.009044121
1.008999653
1.008988508
1.009216252
1.009387937
1.009466081
1.009393847
1.009267219
1.009214583
1.009219512
1.009245875
1.009356863
1.009524845
1.009567145
1.009441805
1.009214152
1.009195069
1.009237801
1.009245087
1.009194388
1.009165133
1.009178586
1.009218806
1.009241779
1.00928355
1.009361662
1.009326162
1.008395157
1.008191934
1.007973055
1.007845664
1.007839145
1.008029319
1.008363835
1.008598422
1.008615104
1.008568437
1.008486905
1.008570342
1.008819578
1.00890467
1.008858801
1.008743595
1.008545275
1.008471815
1.008471837
1.008532168
1.008709102
1.008808963
1.008701305
1.008626408
1.00861341
1.008608728
1.008612048
1.008571705
1.008507608
1.008514293
1.008549251
1.008551525
1.008561118
1.008601378
1.0085745
1.007792275
1.007614978
1.007271482
1.007176346
1.007148092
1.007165498
1.007408385
1.007752581
1.00793029
1.007977532
1.007847902
1.007888379
1.008047598
1.008117616
1.008184809
1.008181108
1.007994036
1.007790778
1.007721365
1.007688567
1.007715646
1.007774995
1.007918991
1.007985261
1.007950446
1.007892461
1.007881388
1.007825398
1.007760732
1.007742823
1.007756896
1.007746079
1.007740102
1.007747425
1.007675273
1.0070941
1.00710109
1.006687744
1.006401715
1.006343314
1.006303853
1.006403022
1.006560489
1.006843463
1.00703629
1.007079904
1.007084304
1.007053001
1.007180126
1.007352954
1.007337169
1.007290736
1.007175786
1.006927698
1.006773585
1.006715938
1.006709202
1.006887421
1.00711935
1.007096079
1.007040587
1.007005966
1.006993638
1.006967048
1.006872178
1.006865128
1.006865005
1.006865312
1.006818551
1.006676027
1.006113788
1.006164747
1.005990675
1.005647855
1.005381969
1.005322864
1.005312904
1.005350492
1.005495239
1.005759969
1.005948916
1.005996248
1.005961485
1.006114405
1.00625321
1.006302572
1.006325758
1.006267211
1.00612591
1.005925384
1.00570917
1.00568556
1.005741483
1.005883862
1.006006407
1.005999418
1.005964757
1.005979724
1.005941905
1.005861103
1.005789722
1.005795167
1.005788636
1.005699748
1.00552841
1.004741356
1.005016688
1.004957096
1.004810527
1.004423745
1.0041785
1.004114392
1.004141385
1.004195019
1.004394222
1.004597014
1.004713171
1.004796367
1.004912054
1.004939165
1.00502017
1.005128131
1.00510392
1.005000956
1.004944504
1.004774088
1.004568871
1.004484692
1.004478929
1.004637162
1.004748874
1.004746243
1.004764042
1.004766126
1.004692654
1.004606641
1.004592615
1.004565592
1.004509903
1.004420705
1.0032277
1.00352308
1.003715588
1.003715237
1.00351401
1.003084074
1.002863174
1.002855756
1.002901261
1.003044165
1.00321118
1.003381351
1.003525188
1.003570781
1.003543258
1.003569145
1.003633816
1.003687842
1.003757194
1.00372318
1.00359224
1.003388245
1.003148371
1.003169562
1.003259723
1.003314772
1.003336318
1.00336355
1.003381378
1.003382571
1.003356892
1.003323509
1.003273146
1.003240147
1.003188252
1.001793458
1.001997697
1.002337363
1.002473471
1.002399159
1.002191549
1.001806091
1.001567451
1.001581631
1.001705363
1.001898523
1.002061688
1.002177032
1.002167448
1.002134106
1.002103482
1.002106274
1.002165902
1.00229352
1.002357627
1.002295289
1.002191225
1.002047331
1.001932255
1.001946681
1.001934948
1.001961324
1.001986285
1.001994644
1.001989231
1.002001107
1.001956663
1.001881863
1.001848397
1.00182965
1.000400438
1.000390905
1.00061076
1.000881381
1.001155479
1.001206817
1.001157232
1.001003805
1.000696772
1.000477806
1.000428749
1.000629303
1.000787527
1.000879762
1.000866209
1.000828299
1.00075918
1.000733022
1.00076421
1.000831566
1.000852973
1.000839629
1.000933233
1.000994148
1.000903282
1.000739121
1.000702249
1.000711969
1.000726205
1.000741233
1.000744354
1.000736976
1.000709205
1.000635957
1.000572062
1.000515657
0.9995979989
0.9993638069
0.999332695
0.9995338187
0.9998079265
1.000059737
1.000057768
1.000061507
0.9999552864
0.9998011465
0.9996214567
0.9995881537
0.9996640097
0.999704673
0.9996975919
0.9996575491
0.9995642594
0.999507942
0.9994969496
0.9994905582
0.9994925808
0.9995514168
0.9997186412
0.9999425157
0.9999868885
0.9998526333
0.9996803713
0.9996124262
0.9996276901
0.9996505035
0.9996617956
0.9996737755
0.9996278003
0.999552531
0.9994937451
0.9994266116
0.9987537022
0.9987057865
0.9984175672
0.9984011785
0.9985390247
0.9988813051
0.9990544916
0.9990782154
0.9990852244
0.9990515136
0.9990303102
0.9989497507
0.9989066179
0.9988345244
0.998769764
0.9986988547
0.9986033156
0.998515873
0.9984586429
0.9984555683
0.9984838475
0.9985603455
0.9987371156
0.9989493088
0.9991031135
0.9991299508
0.9990712904
0.998911336
0.9988246451
0.9988138586
0.9988064006
0.9987729807
0.9987279855
0.9986762907
0.9986144578
0.9985115737
0.9978994075
0.9979756048
0.9978181545
0.9974701581
0.9975669383
0.9977436835
0.9980831141
0.9982115036
0.9983221113
0.9983538487
0.9983948866
0.9983814947
0.9983522301
0.9982674168
0.9981608614
0.998072496
0.9980193552
0.9979340232
0.9978586529
0.9978399605
0.9978465188
0.9978816665
0.9979801563
0.9981646518
0.9983574483
0.9984980711
0.9985386666
0.9984732077
0.9983459186
0.9982823424
0.9982454381
0.9981715442
0.9981241764
0.998117536
0.9980836892
0.9979965913
0.9971873055
0.9973280685
0.9972820992
0.9968511927
0.9967730458
0.9969012683
0.9972216997
0.9975701466
0.9976158074
0.9977549098
0.9977964667
0.9978489499
0.9978550564
0.9978032333
0.9977214883
0.9976290109
0.9975865811
0.9975234415
0.9974598548
0.9975049529
0.9975660722
0.9975849316
0.9975660441
0.9976067841
0.9978020643
0.9979771803
0.9980573549
0.9980597035
0.9979647968
0.9978822597
0.9978623842
0.997819864
0.997774578
0.997741413
0.9977092021
0.9976780688
0.9965140627
0.9967247918
0.9967951225
0.9966303305
0.9962824327
0.9962535671
0.9965131862
0.9967385386
0.9968911544
0.997109382
0.997253209
0.9973957755
0.9974175239
0.9973966411
0.9973428789
0.9972848653
0.9972594921
0.9972143998
0.9971657332
0.9972218122
0.9973102221
0.997361399
0.9973564803
0.9973627397
0.9974279933
0.9975640771
0.9976582195
0.9976951742
0.9976548061
0.9975863973
0.9975633753
0.9975395693
0.9975081133
0.9974678128
0.9974376305
0.9974316951
0.9959709188
0.9962102342
0.9964179172
0.9965422932
0.9962984119
0.9959617158
0.9959636961
0.9961294704
0.9963012631
0.9965414194
0.9967436065
0.9969489649
0.99700835
0.9970212062
0.9970206074
0.9970450317
0.99706595
0.997080774
0.9971210238
0.9971061768
0.9971015521
0.997138454
0.9971675165
0.9971776882
0.9971933278
0.9972501535
0.9973204007
0.9973961622
0.9974341389
0.9973928317
0.9973382107
0.9973194432
0.9973135244
0.9972956275
0.9972726978
0.9972600551
0.9956172749
0.9958981456
0.9962125122
0.9964341842
0.9963985856
0.9961812727
0.9958847964
0.995836109
0.9959703227
0.9961124734
0.9962694821
0.9964635092
0.9965946358
0.9967090429
0.9968376364
0.9969638707
0.9970123369
0.9970793869
0.9971415118
0.9970648595
0.9969418389
0.9968979264
0.9969270024
0.996977329
0.9970144108
0.9970327276
0.997054084
0.9971590311
0.9972639136
0.9972597254
0.9971869658
0.9971800817
0.9972191246
0.997252564
0.9972431091
0.9971956031
0.9956070815
0.9958278729
0.9960886836
0.9962958902
0.9963779292
0.9963388063
0.996173329
0.9960176396
0.9959807032
0.9959560928
0.9960121522
0.9961206203
0.9962536399
0.9964391676
0.9966538006
0.9968235962
0.9968928425
0.9969897989
0.997077578
0.9970436484
0.9969319262
0.9967971988
0.9967728854
0.9968343785
0.996900651
0.9969208721
0.9969286672
0.9969854504
0.9970968705
0.997124264
0.9970787997
0.9970916739
0.9971513489
0.9972101086
0.9972293633
0.9971931753
0.9957838844
0.9959645842
0.9960142144
0.9961466145
0.9962861383
0.996318695
0.9963098469
0.9962795723
0.9962530121
0.9961688453
0.9961140547
0.9960582605
0.9961525134
0.9963137275
0.9965030966
0.9966225555
0.9966946012
0.9967930473
0.9968999719
0.9969594188
0.9969722448
0.9969145219
0.9968514846
0.9968463637
0.9968832069
0.9969020393
0.9969147457
0.9969339478
0.9969863061
0.99701154
0.9970139201
0.9970431975
0.9970913261
0.9971356964
0.9971748788
0.9972092679
0.9959851315
0.9960625895
0.9960125834
0.9960657508
0.9962267568
0.9963077878
0.9963321165
0.9964220739
0.996509555
0.9965601774
0.9965304924
0.9964271491
0.9964772693
0.9965408916
0.9965945809
0.9965953303
0.9966133075
0.9966592983
0.9967123862
0.996814845
0.9969333018
0.9970108614
0.9970619003
0.9970627781
0.9970389272
0.997021092
0.9970128587
0.9969845278
0.9969578565
0.9969643882
0.9970091316
0.9970574917
0.9970919794
0.997107341
0.9971230674
0.9971742346
0.9962272404
0.9962082699
0.996128003
0.9961258393
0.9962624684
0.9963855865
0.996451829
0.996596176
0.9967042727
0.9968427104
0.9968513824
0.9968620613
0.9969303621
0.9969011248
0.9968137517
0.9967478648
0.9967087482
0.9966617984
0.9966139445
0.9966513318
0.9968042347
0.9970004636
0.9972065747
0.9973153362
0.997331469
0.9972910107
0.9972331229
0.9971391475
0.9970367191
0.9970234764
0.9970723858
0.9971180931
0.9971514937
0.9971544737
0.9971364302
0.9971400555
0.9965007042
0.9964931987
0.9964408432
0.9963880903
0.9964266956
0.996556162
0.9966783515
0.9967593978
0.9968272599
0.9969554852
0.9970563791
0.9971795158
0.997232194
0.9971704902
0.9970480714
0.9969655284
0.9969407622
0.9968286615
0.9966385202
0.9965989684
0.9967378386
0.9970187121
0.9972958889
0.9975067264
0.9976350013
0.9976706136
0.9976008969
0.997437002
0.9972561243
0.9972043502
0.9972271442
0.9972501804
0.9972733935
0.9972965407
0.9973056018
0.9972701939
0.9968464902
0.9969483848
0.9969404272
0.9968772093
0.9968091534
0.9968848029
0.997043085
0.9970104325
0.9970128732
0.997105307
0.9972947242
0.9974560178
0.9974550994
0.9974086883
0.9973155671
0.9972406812
0.9972535768
0.9971749862
0.9970382605
0.9970124097
0.9970921097
0.9972768964
0.9975012235
0.9977366743
0.9979314801
0.9980587604
0.9980605591
0.9979398243
0.9977287345
0.997595515
0.9975657963
0.99756117
0.9975575016
0.9975928223
0.9976748767
0.9977107302
0.9972619889
0.9974349886
0.9976026386
0.9976461719
0.9976262749
0.9975138682
0.9975242333
0.997652598
0.9975511982
0.9974995907
0.9975471383
0.997752191
0.9979172865
0.9978979992
0.9978712186
0.9978483776
0.9977854021
0.9977592697
0.9977352672
0.9977605417
0.9978346839
0.9979393444
0.998006752
0.9980924478
0.9982571352
0.998448785
0.9986123649
0.9986894061
0.9986824112
0.9985854919
0.9984051562
0.9982668376
0.9982204181
0.9981991791
0.9982121064
0.9982916098
0.9983913405
0.9982792379
0.9984289497
0.9985887573
0.9987122195
0.998764964
0.998726438
0.9986703472
0.9986888003
0.9985505105
0.9984877416
0.9985079073
0.998680938
0.9988606681
0.9988884374
0.9988681791
0.9989081639
0.9988732023
0.9987717598
0.9987867108
0.9989267894
0.999055881
0.9991218323
0.9991598583
0.9992268672
0.9993536302
0.9994901703
0.9996003342
0.9996791801
0.9997485555
0.9997752327
0.9996533671
0.9994441809
0.9993417326
0.9993126138
0.9993001741
0.9993192503
0.9994053982
0.9999523664
1.000072362
1.000169339
1.000314776
1.000433114
1.000483272
1.000454041
1.000378796
1.000204929
1.000100268
1.000076584
1.000161522
1.00035298
1.000508774
1.000537761
1.000568812
1.000546186
1.000485674
1.000551138
1.000719868
1.000799442
1.000793955
1.000809443
1.000879848
1.000993732
1.001083613
1.001138568
1.001205452
1.001288599
1.001357791
1.001327583
1.00118293
1.001044245
1.00099866
1.000981044
1.000963636
1.001000267
1.002429247
1.002536085
1.00252416
1.002611846
1.002728879
1.002827525
1.002850291
1.002792279
1.002710239
1.00259065
1.002465354
1.002394053
1.00251927
1.00278838
1.002876838
1.002870365
1.002840068
1.002842261
1.002944172
1.003082531
1.003132918
1.003151937
1.003197157
1.003261854
1.003290302
1.003290267
1.003308058
1.003380264
1.003453866
1.003490529
1.003516147
1.003496857
1.003413255
1.0033491
1.003319187
1.003285994
1.00329155
1.005665494
1.005722394
1.005645545
1.005694315
1.005768062
1.005856157
1.005895832
1.005891622
1.006006663
1.00599327
1.005875079
1.005703342
1.005670957
1.005882021
1.005984347
1.005915128
1.005877973
1.005919758
1.005991423
1.006020552
1.006044698
1.006116376
1.006233588
1.006333692
1.006325224
1.006257206
1.006242282
1.006297984
1.006336874
1.006332265
1.006375315
1.006444279
1.006443973
1.006404151
1.006356963
1.006306804
1.006284962
1.009626389
1.009640699
1.009550025
1.009557646
1.009583196
1.00962718
1.009655141
1.009710918
1.00991798
1.009938794
1.009849709
1.009757724
1.009685991
1.009713524
1.009714539
1.009638359
1.009630566
1.009682678
1.009679175
1.009646997
1.009671354
1.009777847
1.00992345
1.010033821
1.010054309
1.01001895
1.009993071
1.00999448
1.009985956
1.009978502
1.010031882
1.010129301
1.010175648
1.010157452
1.010096348
1.010043374
1.010014602
1.014195152
1.014227682
1.014170838
1.014142506
1.014112369
1.014085857
1.014081021
1.014196616
1.014351805
1.014362889
1.014290609
1.014313958
1.014262255
1.014129401
1.014045284
1.014008169
1.014016443
1.014029531
1.013990044
1.013976114
1.014032622
1.014168381
1.014303585
1.014403941
1.014481505
1.014527186
1.014528461
1.014464373
1.014398769
1.014400263
1.01446469
1.014548295
1.014592262
1.014567902
1.014501047
1.014475946
1.01447226
1.019324339
1.01938355
1.019386603
1.019327882
1.019254716
1.019163739
1.019130145
1.01923838
1.019298652
1.019295522
1.019270168
1.019339341
1.019247456
1.019015071
1.018931362
1.018962875
1.018984388
1.018961412
1.018952524
1.018993776
1.019086093
1.019228258
1.01935579
1.019474206
1.019617741
1.019727394
1.019744119
1.019650081
1.019536854
1.019523807
1.019570396
1.019620527
1.019634273
1.019592248
1.01956125
1.019582971
1.019599157
1.024962187
1.025024777
1.0250642
1.024987501
1.02490761
1.024783525
1.024751807
1.024771674
1.024776962
1.024781939
1.024789093
1.024797431
1.024613042
1.024397552
1.024393329
1.024471098
1.024514845
1.024514002
1.02456511
1.024657093
1.024779746
1.024917423
1.025040675
1.025194186
1.025375775
1.02549951
1.025518413
1.02545666
1.025332076
1.025263203
1.02523156
1.025210002
1.025203363
1.025200333
1.025247098
1.025323859
1.025346262
1.030994727
1.031048051
1.03111514
1.031074809
1.031003493
1.030884614
1.030860578
1.030797971
1.030656878
1.030573308
1.030555741
1.0305273
1.030413071
1.030334699
1.030370016
1.030480566
1.030572848
1.030639139
1.030749847
1.030889762
1.031048057
1.031174028
1.03128353
1.031467752
1.031658965
1.031779702
1.031812305
1.031766142
1.031641495
1.031458027
1.031351511
1.031306811
1.031294514
1.031335034
1.031436427
1.031552326
1.031585932
1.037399753
1.037428856
1.037509114
1.037490854
1.037449786
1.037373244
1.037332965
1.037184876
1.036982939
1.03690931
1.036885903
1.036728943
1.036653094
1.036697902
1.036790049
1.036949942
1.037086449
1.037221664
1.037368281
1.037554609
1.037728546
1.03784377
1.037960044
1.03816752
1.038341725
1.038437218
1.038428955
1.038351845
1.038244055
1.0380473
1.037900114
1.037806296
1.037813693
1.037881831
1.03800882
1.038136644
1.038172155
1.044082452
1.044005065
1.044065829
1.044081931
1.044099753
1.044091245
1.044048053
1.043839209
1.043588219
1.04354064
1.043484132
1.043330158
1.043290487
1.043358883
1.043557416
1.043759165
1.043935435
1.044115816
1.044256988
1.044432086
1.044585559
1.044723197
1.044915669
1.045116154
1.045207848
1.045207248
1.04516523
1.045090358
1.044997453
1.044870999
1.04473871
1.044626197
1.044617969
1.044692284
1.04482431
1.044939867
1.044965274
1.050815376
1.050695954
1.050734948
1.050744456
1.050819304
1.050843283
1.050857537
1.050684827
1.050443362
1.050417157
1.050332637
1.050244394
1.050241076
1.050310866
1.05048313
1.050684025
1.050932468
1.051088075
1.051201712
1.051332224
1.051444493
1.051626485
1.051871277
1.051967769
1.051985355
1.051954094
1.051884946
1.051808394
1.051751345
1.051721194
1.051641492
1.051556039
1.051549876
1.051604533
1.051697892
1.051788526
1.051790469
1.05728417
1.057409582
1.057372923
1.057341114
1.057352728
1.057469745
1.057493825
1.057563584
1.057447099
1.05729072
1.05728936
1.057231934
1.057290695
1.057340149
1.0573485
1.057392033
1.057537111
1.057719612
1.057821908
1.057917869
1.058009637
1.058162537
1.058381259
1.058523461
1.058582731
1.058588801
1.058503248
1.058389683
1.05832071
1.058347768
1.058408346
1.05840216
1.058396754
1.058437258
1.058472009
1.058498812
1.058522187
1.058465961
1.063729931
1.063740972
1.063837805
1.063716524
1.063727049
1.063908183
1.063883651
1.063930015
1.063880561
1.063813608
1.06382272
1.063795745
1.063897343
1.063959981
1.063975527
1.06396193
1.064003232
1.064105913
1.064188817
1.064270024
1.064364851
1.064546918
1.064694148
1.064783765
1.064819117
1.064772319
1.064614466
1.064501841
1.064493038
1.064573504
1.064708297
1.064778877
1.064865902
1.064934181
1.064934196
1.06487925
1.064809639
1.064715785
1.069682812
1.069604729
1.069741485
1.069604222
1.069682775
1.069728746
1.069806063
1.069812767
1.069787307
1.069793737
1.069800573
1.069820135
1.069864101
1.069914502
1.069924949
1.069904455
1.069908975
1.069975457
1.070034406
1.070091749
1.070206914
1.070385938
1.07047756
1.070516058
1.070475567
1.070325
1.070200981
1.070177458
1.070190348
1.070265263
1.07038641
1.070467211
1.07056343
1.070611329
1.070598256
1.070514648
1.070416803
1.070303832
1.074994488
1.074897889
1.075027102
1.074925662
1.07494622
1.074901108
1.0749303
1.074984873
1.07501002
1.075053866
1.075072973
1.075102775
1.075127596
1.075163454
1.075149188
1.075141975
1.075123887
1.075117187
1.075126958
1.075188563
1.075351585
1.075505887
1.075562532
1.075540471
1.075399344
1.075248992
1.075217561
1.07519764
1.07522168
1.075274872
1.07530321
1.07537602
1.075449098
1.075475561
1.075457577
1.075367145
1.075253738
1.075137915
1.079557253
1.079506258
1.079538993
1.079495134
1.079440675
1.079302309
1.079304016
1.079297456
1.079243364
1.079282445
1.079369156
1.079476209
1.079492766
1.079525044
1.079504623
1.079504549
1.079452742
1.079391519
1.079430776
1.07952492
1.07967236
1.079779909
1.079784937
1.079689751
1.079543543
1.079510133
1.079500974
1.079522714
1.079528645
1.079458836
1.079408446
1.07942837
1.079448107
1.079432682
1.079401381
1.079318542
1.079198567
1.079095375
1.083250929
1.083285294
1.083152314
1.083154518
1.083052505
1.082848761
1.082815974
1.082774574
1.082622189
1.082593782
1.082689472
1.082826056
1.082886047
1.082925304
1.082922926
1.082927981
1.082916237
1.082865293
1.08290142
1.082985265
1.083072476
1.083098303
1.083038414
1.082954536
1.082949372
1.082952071
1.082977554
1.082979903
1.082908889
1.082759672
1.082650981
1.082591438
1.082535061
1.082464409
1.082392108
1.082306936
1.08222708
1.082157751
1.086115532
1.08611394
1.085875539
1.085858314
1.085689767
1.085448229
1.085407618
1.085390716
1.085201859
1.085176181
1.08526778
1.085380146
1.085473527
1.085498311
1.085507596
1.085533756
1.085550273
1.085542513
1.085559173
1.085571764
1.085579621
1.085528461
1.08543287
1.085429528
1.085470984
1.085512117
1.085515828
1.085472845
1.085368785
1.085194212
1.085031048
1.084889297
1.084746173
1.084648161
1.084589201
1.084562195
1.084545856
1.084480796
1.088125941
1.087972857
1.087764187
1.087657416
1.0874487
1.087280603
1.087316367
1.087164762
1.087042377
1.08707717
1.087137203
1.087216887
1.087307254
1.08734478
1.087401951
1.087433709
1.087437201
1.087465119
1.087429053
1.087379772
1.087316223
1.087203216
1.087116643
1.087111862
1.087156196
1.087220615
1.08721501
1.08716195
1.08705019
1.086887573
1.086689113
1.08649015
1.086334541
1.086241015
1.086209159
1.086203014
1.086195582
1.086097757
1.089318437
1.089091857
1.089007888
1.088836079
1.088673803
1.088566976
1.088537882
1.088315886
1.088277639
1.088325124
1.088387897
1.088461712
1.088523541
1.088577115
1.088649792
1.08867655
1.088665533
1.088652774
1.088581657
1.088484769
1.088367222
1.088229385
1.088170718
1.088146417
1.088183892
1.088252521
1.088260402
1.088177666
1.088087301
1.087949226
1.087737324
1.087537478
1.087378931
1.087295841
1.087252888
1.087270315
1.087315546
1.087205496
1.089875583
1.089774214
1.089740142
1.0895369
1.089405996
1.089365963
1.08921372
1.089014038
1.089065848
1.08914537
1.089142737
1.089177526
1.089197721
1.089266398
1.089321005
1.089337185
1.089309501
1.089259723
1.089175508
1.089045533
1.088891788
1.088801504
1.088750907
1.088724761
1.088765363
1.08882709
1.088804919
1.088729222
1.088643819
1.088535291
1.08834596
1.088147833
1.087985616
1.087938869
1.087959901
1.088023835
1.088056566
1.087867283
1.090168779
1.090118369
1.090080135
1.089878476
1.089809539
1.089749221
1.089592141
1.089447676
1.08954891
1.089568652
1.089513517
1.089473399
1.08950321
1.089558767
1.089579246
1.089586015
1.089524322
1.089434932
1.08934535
1.089228268
1.089147661
1.089099671
1.089059835
1.089038155
1.0890944
1.089146832
1.089095946
1.088994174
1.088900112
1.088791982
1.088668147
1.088540082
1.08849153
1.088497009
1.088490025
1.08844752
1.088351804
1.088128528
1.090245349
1.090221425
1.090220902
1.090062721
1.090003564
1.089833958
1.089793225
1.089746762
1.08976703
1.089678068
1.089652455
1.089632416
1.089688557
1.089662401
1.089634399
1.089631864
1.089593887
1.089531931
1.08946362
1.089369535
1.089308443
1.089276907
1.089287913
)
;

boundaryField
{
    inlet
    {
        type            fixedValue;
        value           nonuniform 0();
    }
    outlet
    {
        type            inletOutlet;
        inletValue      uniform 1;
        value           nonuniform List<scalar> 
62
(
1.012628714
1.012650932
1.012480676
1.012314829
1.012255456
1.012204178
1.012102756
1.011997067
1.011929303
1.011881228
1.011758389
1.011475623
1.011044326
1.010630418
1.010260369
1.009871955
1.009345614
1.008594869
1.007663927
1.006626413
1.005476588
1.004406376
1.003195358
1.001899255
1.000558452
0.9994400866
0.9984911786
0.9979313432
0.9976534798
0.9974401354
0.9972827681
0.99719895
0.9971821512
0.9972095789
0.9971928846
0.9971603166
0.9972654069
0.9976909503
0.9983885292
0.9994122338
1.000999514
1.003286033
1.006280339
1.010010187
1.01447053
1.019601417
1.025349642
1.031583094
1.038166627
1.04496385
1.051798201
1.058479498
1.064712244
1.070297771
1.075130526
1.079081208
1.082157356
1.084490247
1.086109345
1.087230581
1.08786868
1.088111778
)
;
    }
    bottom
    {
        type            slip;
    }
    top
    {
        type            slip;
    }
    obstacle
    {
        type            zeroGradient;
    }
    defaultFaces
    {
        type            empty;
    }
    procBoundary17to11
    {
        type            processor;
        value           nonuniform List<scalar> 
36
(
1.012654854
1.012655852
1.01264719
1.012554231
1.012364331
1.012505298
1.012316725
1.012202185
1.012211302
1.012301492
1.012291099
1.012092808
1.012212026
1.012615775
1.012990623
1.013027008
1.012964698
1.012892349
1.012752674
1.012573422
1.012430302
1.01224317
1.012199093
1.01255167
1.012996753
1.013090439
1.012999509
1.012980609
1.012898889
1.012786063
1.012786063
1.013396666
1.013329949
1.012970611
1.012658038
1.012658038
)
;
    }
    procBoundary17to16
    {
        type            processor;
        value           nonuniform List<scalar> 
64
(
1.012730218
1.01217838
1.012188113
1.012135519
1.012014026
1.011951371
1.011831786
1.011711322
1.011711322
1.01181887
1.011440107
1.010988074
1.010424179
1.00986788
1.009366883
1.008889707
1.008386335
1.007775828
1.007010621
1.0059585
1.004551825
1.003114602
1.001683916
1.001683916
1.000655683
0.999699373
0.9986708729
0.9977728319
0.9969584902
0.9962855881
0.995703405
0.9954270315
0.9955190133
0.995725211
0.9959571893