/*--------------------------------*- C++ -*----------------------------------*\
  =========                 |
  \\      /  F ield         | OpenFOAM: The Open Source CFD Toolbox
   \\    /   O peration     | Website:  https://openfoam.org
    \\  /    A nd           | Version:  7
     \\/     M anipulation  |
\*---------------------------------------------------------------------------*/
FoamFile
{
    version     2.0;
    format      ascii;
    class       volVectorField;
    location    "3";
    object      U;
}
// * * * * * * * * * * * * * * * * * * * * * * * * * * * * * * * * * * * * * //

dimensions      [0 1 -1 0 0 0 0];

internalField   nonuniform List<vector> 
2222
(
(2.963663216 0.0002645115379 0)
(2.963625427 0.0002730548974 0)
(2.963674836 0.0001379342309 0)
(2.963885127 -2.713523859e-05 0)
(2.959354179 0.0002545330785 0)
(2.959204809 0.0002480666432 0)
(2.958971378 0.0001983385978 0)
(2.95900973 0.0003870695829 0)
(2.959386789 0.0005914286018 0)
(2.960020255 0.001028417294 0)
(2.960233247 0.001235255447 0)
(2.960484353 0.001955038957 0)
(2.961006211 0.002183751947 0)
(2.961266117 0.001806252762 0)
(2.961362641 0.0006799895534 0)
(2.961287669 -0.0002832975978 0)
(2.961177253 -0.0004927163489 0)
(2.961035653 -0.0004511551594 0)
(2.961057791 -0.0003531907393 0)
(2.960896264 -0.0001634263878 0)
(2.96059726 0.0004851674227 0)
(2.960330366 0.001035991348 0)
(2.96036739 0.001609309658 0)
(2.96070413 0.001614284159 0)
(2.960764712 0.000525398227 0)
(2.960968514 -0.0007113635644 0)
(2.961440569 -0.0008728683626 0)
(2.961743292 -0.0007344258812 0)
(2.962038761 -0.0005351794116 0)
(2.962000141 -0.0003560251786 0)
(2.961907676 -3.297609272e-05 0)
(2.961948275 5.749125596e-05 0)
(2.962082318 2.067530927e-05 0)
(2.962305215 -0.0001084363501 0)
(2.956971328 -0.0009666842864 0)
(2.957122301 -0.00109889072 0)
(2.956864716 -0.0004404486631 0)
(2.95688576 0.000271753672 0)
(2.957003208 0.0004551847508 0)
(2.956758096 7.109958404e-05 0)
(2.95660845 0.0003606549516 0)
(2.956658386 0.0005935748621 0)
(2.957069291 0.0006239632543 0)
(2.95760115 0.0002659622969 0)
(2.957958784 0.0003490415902 0)
(2.958107634 0.001120264806 0)
(2.958388744 0.001567137248 0)
(2.958725869 0.001759386978 0)
(2.958942465 0.001530692193 0)
(2.959008739 0.0007360422364 0)
(2.959003461 0.0001150105139 0)
(2.958876947 -0.0002178079746 0)
(2.958937075 -0.000333818715 0)
(2.958776285 -0.0004542186934 0)
(2.958382928 -0.0002724596475 0)
(2.958083045 0.0004643566234 0)
(2.958137334 0.001019524396 0)
(2.958423039 0.00102429124 0)
(2.958494428 0.001174239755 0)
(2.958902439 0.0008934893559 0)
(2.959332764 -0.0002077153759 0)
(2.959578225 -0.0004567213164 0)
(2.959869457 -0.0003418850351 0)
(2.960029475 -0.0002817191674 0)
(2.960011016 -0.0001621124621 0)
(2.960103761 8.218648251e-06 0)
(2.960334438 0.0002536432091 0)
(2.960582886 0.0002311678909 0)
(2.954420221 0.0001137258925 0)
(2.954663248 -0.0006221291545 0)
(2.954233226 -0.0008183079026 0)
(2.954325922 -0.00015886114 0)
(2.954588545 4.594262346e-05 0)
(2.954362923 0.0003572240993 0)
(2.954318929 0.0004378617396 0)
(2.954471252 0.0004175559513 0)
(2.954829528 0.0003309700833 0)
(2.955035163 -0.0002747839181 0)
(2.955171295 3.365448953e-05 0)
(2.955769052 0.0002759881453 0)
(2.95599399 0.000777462389 0)
(2.956247113 0.001515452975 0)
(2.95644019 0.001729803131 0)
(2.956556062 0.001677128159 0)
(2.956585672 0.001086154516 0)
(2.956578829 0.0005419317095 0)
(2.956736027 0.0001914367111 0)
(2.956685336 -0.000176627628 0)
(2.956261846 -0.0003262974993 0)
(2.955772384 -7.620533745e-05 0)
(2.955937931 0.0003007383346 0)
(2.956219527 0.001015900224 0)
(2.956164932 0.001314272344 0)
(2.956467953 0.0007651599624 0)
(2.957023473 0.0003471933888 0)
(2.957264109 0.0001639546561 0)
(2.957500714 6.551624579e-05 0)
(2.957694347 0.0001422365702 0)
(2.957767934 0.0001071662942 0)
(2.957862698 0.0001243809668 0)
(2.958059313 0.0001970497997 0)
(2.958251011 0.0002586259234 0)
(2.951810075 0.0008245005444 0)
(2.952280667 -7.489279394e-05 0)
(2.951627795 -0.00079987819 0)
(2.951500927 -0.0007093773058 0)
(2.951934695 -0.000274401744 0)
(2.952018843 6.906929519e-05 0)
(2.951832648 3.230008202e-05 0)
(2.951857396 -6.260589333e-05 0)
(2.952215655 -0.0003876082784 0)
(2.952587713 -0.0001497548418 0)
(2.952965988 -8.950767924e-05 0)
(2.953299172 -0.0005111919767 0)
(2.953560775 -2.618338856e-05 0)
(2.953687562 0.0005582852158 0)
(2.953947171 0.001239482859 0)
(2.953962217 0.001233759474 0)
(2.954000973 0.001117274429 0)
(2.954152238 0.0009352347294 0)
(2.954431512 0.0008045186128 0)
(2.95428185 0.0005460244877 0)
(2.954092372 4.760492904e-05 0)
(2.953454411 -0.0002776173829 0)
(2.953415456 -0.0001972097746 0)
(2.953758119 0.0004490533285 0)
(2.953831435 0.001068860759 0)
(2.954090216 0.001622438885 0)
(2.954656322 0.001518506232 0)
(2.954849305 0.0006855727405 0)
(2.954898984 0.0002074053552 0)
(2.95499989 0.0002222814131 0)
(2.955084704 0.0002639007737 0)
(2.955212705 0.000241696894 0)
(2.955407046 0.0002976666271 0)
(2.955550422 0.0002600936995 0)
(2.949014259 0.0004643219 0)
(2.949325492 0.0001955938825 0)
(2.948829679 -0.0004903845699 0)
(2.948712871 -0.001142333936 0)
(2.949091146 -0.0009197210511 0)
(2.949329764 -0.0003263814862 0)
(2.949314311 6.192688763e-06 0)
(2.94944157 0.0002695721428 0)
(2.949856467 0.0002582554805 0)
(2.950258085 -0.0002602663193 0)
(2.950713267 -0.0007375924379 0)
(2.950490941 -0.0008690786304 0)
(2.950522731 -0.0007873899338 0)
(2.950910772 -0.0004224577312 0)
(2.951116625 0.0003739649968 0)
(2.951316893 0.001063146176 0)
(2.951272667 0.001338357294 0)
(2.951443577 0.001238310084 0)
(2.951678945 0.0008640108436 0)
(2.951525265 0.0006914504324 0)
(2.95137073 0.0004799481262 0)
(2.951147631 -0.000172418158 0)
(2.950892051 -0.0003150611703 0)
(2.950840174 -6.943463513e-05 0)
(2.951215824 0.0005028825104 0)
(2.951648283 0.0008156718183 0)
(2.951819362 0.0008572599253 0)
(2.951909027 0.0007917476639 0)
(2.951928032 0.0005261402516 0)
(2.951901246 0.000305305141 0)
(2.951961634 0.0003239379428 0)
(2.952091372 0.0003797886231 0)
(2.952314199 0.0003548095907 0)
(2.952478412 0.0001663569813 0)
(2.94631467 0.000907685449 0)
(2.946235743 0.0003127556134 0)
(2.945833664 -0.0001599915483 0)
(2.945846504 -0.0006986397031 0)
(2.946087543 -0.0008279635074 0)
(2.946351677 -0.0009087791824 0)
(2.946591418 -0.0003005854236 0)
(2.946801712 0.0001671788976 0)
(2.947229849 0.0004003525758 0)
(2.947341482 -9.766426212e-06 0)
(2.947818463 -0.0004622672219 0)
(2.947843309 -0.001078259604 0)
(2.947512985 -0.001537522568 0)
(2.947745133 -0.001277042499 0)
(2.948138814 -0.000610130629 0)
(2.948283971 0.0002344262354 0)
(2.948273586 0.0008316135307 0)
(2.948443005 0.0009439743996 0)
(2.948630707 0.000830016963 0)
(2.948469184 0.0006872020816 0)
(2.948533074 0.0005976487881 0)
(2.948478628 0.0003094648425 0)
(2.948432928 -0.0002270134884 0)
(2.948329492 -0.000644469699 0)
(2.948507066 -0.0003171624062 0)
(2.948783944 0.0003373463847 0)
(2.948802915 0.0009197028523 0)
(2.94863924 0.000999948939 0)
(2.94852245 0.0007404761436 0)
(2.948505872 0.0003754975954 0)
(2.948558297 0.000320636074 0)
(2.948628764 0.0004626632944 0)
(2.948774908 0.0006045084672 0)
(2.94882647 0.0003601568965 0)
(2.943233961 0.0008127183794 0)
(2.943035534 0.0006534236818 0)
(2.942680229 0.0003205966711 0)
(2.942745163 -0.0003566718514 0)
(2.943093741 -0.001123547162 0)
(2.943468083 -0.0009518471374 0)
(2.943686681 -0.0006454812907 0)
(2.944032682 -0.0001131264464 0)
(2.944404683 0.000228654871 0)
(2.944537874 0.0002845571484 0)
(2.944963502 2.598555797e-05 0)
(2.944794319 -0.0007440449589 0)
(2.944508075 -0.001224481474 0)
(2.944512381 -0.00151400921 0)
(2.944531547 -0.001248889666 0)
(2.944560374 -0.0004453278568 0)
(2.94483396 0.0003524551821 0)
(2.945054226 0.0006308413252 0)
(2.945240879 0.0004403843984 0)
(2.945187331 0.0002909568408 0)
(2.945418804 0.0002876629079 0)
(2.945499521 0.00034755493 0)
(2.945434522 6.241849207e-05 0)
(2.945576493 -0.0003961874663 0)
(2.945510839 -0.000828469532 0)
(2.945804967 -0.0005980793562 0)
(2.945602506 5.202099348e-05 0)
(2.945164527 0.0006337156243 0)
(2.944853963 0.0007317303339 0)
(2.94472723 0.0004336237588 0)
(2.944678781 0.0002329839472 0)
(2.944705569 0.0003447780415 0)
(2.944773456 0.000476214103 0)
(2.944777231 0.0004603800976 0)
(2.939550022 0.001331866188 0)
(2.939543589 0.001431341022 0)
(2.939452435 0.0009900443368 0)
(2.939596403 0.0005814604095 0)
(2.939772416 -0.0001662783805 0)
(2.940428549 -0.0009698352025 0)
(2.940831287 -0.001163004059 0)
(2.941247351 -0.001014057224 0)
(2.941601909 -0.0005767261984 0)
(2.94162695 -3.429234435e-05 0)
(2.941734038 9.677896006e-05 0)
(2.94160002 -0.0002521699349 0)
(2.941381809 -0.0006028341731 0)
(2.941150246 -0.00103761556 0)
(2.941013781 -0.001233072739 0)
(2.941045214 -0.001104262201 0)
(2.941129941 -0.0004439558556 0)
(2.941413407 0.0001281769454 0)
(2.941578097 0.0002693906659 0)
(2.94158917 0.0001255524912 0)
(2.941927186 0.0001369362564 0)
(2.942275808 0.0002678868211 0)
(2.942190449 0.0001905546785 0)
(2.942222532 -9.289831143e-05 0)
(2.942308291 -0.0004357381619 0)
(2.942138762 -0.0004578823738 0)
(2.941751574 -0.0001319530025 0)
(2.941345326 0.0003022388485 0)
(2.940935076 0.0005264642922 0)
(2.940650401 0.000489465868 0)
(2.940499433 0.0002754308965 0)
(2.94042655 0.0001875603646 0)
(2.940420042 0.0003270582731 0)
(2.940574893 0.0004172435893 0)
(2.936236979 0.0009143547683 0)
(2.936026208 0.001340013238 0)
(2.935842801 0.001254518554 0)
(2.936067429 0.001145568369 0)
(2.936338159 0.0006337195954 0)
(2.936940359 1.868560429e-05 0)
(2.937792458 -0.0005578240701 0)
(2.938077923 -0.001024838201 0)
(2.938212527 -0.0009542033027 0)
(2.938328982 -0.0005336225565 0)
(2.938414296 -0.0002850215044 0)
(2.93819451 3.408242233e-05 0)
(2.937778515 -6.189123189e-05 0)
(2.937456964 -0.0002787585159 0)
(2.937324833 -0.0005600524024 0)
(2.937328608 -0.0007617379884 0)
(2.937303385 -0.0006200488537 0)
(2.937543428 -0.0001852536381 0)
(2.937766727 8.55122997e-05 0)
(2.937916552 0.0001343296471 0)
(2.938350539 -0.0001093900887 0)
(2.938738325 -0.0001609846342 0)
(2.938701554 -1.053678274e-05 0)
(2.938598231 -1.670229962e-05 0)
(2.938638137 -0.0002324950631 0)
(2.938447854 -0.0005519299606 0)
(2.938060815 -0.0006342752596 0)
(2.93744083 -0.0002758124053 0)
(2.936895953 0.0002496090964 0)
(2.936514058 0.0005704660499 0)
(2.936354079 0.0005283268444 0)
(2.936308123 0.0003234749162 0)
(2.936217156 0.0001231213754 0)
(2.936406823 9.251929348e-05 0)
(2.933815853 -0.0005848829509 0)
(2.933200302 0.0002205065122 0)
(2.932783808 0.001096110801 0)
(2.932437643 0.001306796735 0)
(2.932396936 0.001587431908 0)
(2.932546237 0.001601859656 0)
(2.933392566 0.001051045803 0)
(2.934391684 0.0002557107072 0)
(2.934856918 -0.000513757571 0)
(2.935118145 -0.0008276816487 0)
(2.935026473 -0.0008912673674 0)
(2.934920426 -0.0005471211287 0)
(2.934579059 0.0001233371306 0)
(2.934046984 0.0001825269876 0)
(2.933625705 0.0003352086195 0)
(2.933392116 0.0001657005778 0)
(2.933307216 -0.0001847579851 0)
(2.93342119 -0.0004937296204 0)
(2.933634371 -0.0003658911388 0)
(2.933896874 0.0001676848293 0)
(2.934126288 0.0003129633865 0)
(2.934528215 0.0001657823128 0)
(2.934876779 6.84875298e-05 0)
(2.934887112 1.984411158e-05 0)
(2.934810004 1.633925328e-05 0)
(2.934702411 3.44467188e-05 0)
(2.934592338 -0.0001801349091 0)
(2.934180772 -0.0004551407355 0)
(2.933480869 -0.0004241896179 0)
(2.932960014 5.379485177e-05 0)
(2.93254026 0.000444032901 0)
(2.932317716 0.000533834837 0)
(2.932308333 0.0003997145616 0)
(2.932281682 0.0001446451672 0)
(2.932523361 -0.0001125467042 0)
(2.93024542 -0.001068343114 0)
(2.929889453 -0.0005591414471 0)
(2.929481352 0.0003269418529 0)
(2.929144433 0.0006746682384 0)
(2.928885945 0.001129984472 0)
(2.928939936 0.001283772695 0)
(2.929462028 0.001445382312 0)
(2.930540991 0.001299978275 0)
(2.931460501 0.0005401846935 0)
(2.931962355 -0.0002413445776 0)
(2.931685875 -0.000335445385 0)
(2.931435465 -3.085731154e-05 0)
(2.930946209 0.0001971513752 0)
(2.930353014 0.0005203331411 0)
(2.929796894 0.0004615138059 0)
(2.929415088 0.0003714870019 0)
(2.929341003 0.0004453064277 0)
(2.929412539 5.609752935e-05 0)
(2.929773121 -0.0002422853573 0)
(2.930107529 7.401953432e-06 0)
(2.93038865 0.0003465477513 0)
(2.930616537 0.0003979018395 0)
(2.930919312 7.968490472e-05 0)
(2.931069038 -0.0001235162505 0)
(2.931020237 -5.212432401e-06 0)
(2.930892829 4.855944745e-05 0)
(2.930681075 -8.486345928e-05 0)
(2.930250891 -0.0003275160602 0)
(2.92972595 -0.000346826219 0)
(2.929298712 -0.0001267257044 0)
(2.928907073 0.0002563019133 0)
(2.928643861 0.0004871980158 0)
(2.928476667 0.0004275388192 0)
(2.928475517 0.0002631752459 0)
(2.928868585 -7.103973084e-05 0)
(2.92654327 -0.001058558269 0)
(2.92608134 -0.001036318516 0)
(2.925787445 -0.0005354912735 0)
(2.925506094 -0.0001892717601 0)
(2.925568637 0.000263793032 0)
(2.925749379 0.0007696492277 0)
(2.9258747 0.001288343898 0)
(2.926681185 0.001284085495 0)
(2.927571255 0.001035545946 0)
(2.928113799 0.0006139797099 0)
(2.928135694 0.0003825225547 0)
(2.927785999 0.0003181561149 0)
(2.927297801 0.0004915883282 0)
(2.926734928 0.0006093902205 0)
(2.926282186 0.0005357922987 0)
(2.925836138 0.000441679289 0)
(2.925670944 0.0003489387146 0)
(2.925747308 0.0001904348424 0)
(2.926126938 -0.0001317248873 0)
(2.926545074 -2.932273593e-05 0)
(2.926858942 0.0003143367851 0)
(2.927015887 0.0006320896059 0)
(2.927253432 0.0002941707918 0)
(2.927415461 1.074567769e-05 0)
(2.927383203 9.429569285e-05 0)
(2.927315034 0.0001841717922 0)
(2.927087404 0.000177028625 0)
(2.926720545 4.478419552e-05 0)
(2.92630957 -0.0001127074109 0)
(2.92596787 -0.0002021703822 0)
(2.92565083 -8.559159413e-05 0)
(2.925431882 0.0001178002116 0)
(2.925215848 0.0002722507384 0)
(2.925098352 0.0002650952529 0)
(2.925390815 8.163939899e-05 0)
(2.922884398 -0.0009529191779 0)
(2.922582853 -0.001181592133 0)
(2.922133022 -0.001159400977 0)
(2.921864384 -0.0007996544233 0)
(2.922066977 -0.0003518077681 0)
(2.922328748 0.0001904593341 0)
(2.922613206 0.0006090584265 0)
(2.92311808 0.00132342981 0)
(2.923679015 0.001739565851 0)
(2.924233247 0.001576218691 0)
(2.924404208 0.001058268776 0)
(2.92412637 0.000792367948 0)
(2.923729072 0.0006611856623 0)
(2.923319248 0.0006779872641 0)
(2.923023047 0.0004877965333 0)
(2.922727403 0.0003436891908 0)
(2.922565125 0.0003366131729 0)
(2.922617405 0.0003554044593 0)
(2.922882217 8.365397944e-05 0)
(2.923221974 -4.545214754e-05 0)
(2.923522808 0.000173587926 0)
(2.923786661 0.0003506525951 0)
(2.923940344 0.0003633585873 0)
(2.924003167 0.0002928262565 0)
(2.924046942 7.68539389e-05 0)
(2.924001772 9.378186299e-05 0)
(2.92381367 0.0001180201317 0)
(2.923508853 0.0001539515171 0)
(2.92322623 1.605467454e-05 0)
(2.922974427 -0.0002150778265 0)
(2.922694987 -0.0003326519281 0)
(2.922519871 -0.000255213332 0)
(2.922460483 -0.0001211143542 0)
(2.922329313 6.198797415e-05 0)
(2.922481606 0.000122541952 0)
(2.919361355 -0.0003162660125 0)
(2.919467262 -0.000381803874 0)
(2.91913267 -0.0004216626391 0)
(2.918778132 -0.0006185934952 0)
(2.918517294 -0.0007369310133 0)
(2.918618948 -0.0004022901131 0)
(2.919182922 7.915170946e-05 0)
(2.919503091 0.0006675527269 0)
(2.920021013 0.001253933909 0)
(2.920402365 0.001402142219 0)
(2.920567398 0.001301660902 0)
(2.920681205 0.0007180529702 0)
(2.920413805 0.0006026400617 0)
(2.920188471 0.0004791959 0)
(2.91995124 0.0004319038356 0)
(2.919800447 0.0002473840341 0)
(2.919730574 0.0001959404482 0)
(2.919787235 0.000255791164 0)
(2.91992368 0.0001307983023 0)
(2.92017267 -2.070422008e-05 0)
(2.920460276 3.054047495e-05 0)
(2.920762367 0.0002069685105 0)
(2.920808604 0.0005850081886 0)
(2.920773889 0.0005454015083 0)
(2.920919724 8.130109786e-05 0)
(2.920967298 -1.101769104e-05 0)
(2.920875987 5.597784587e-05 0)
(2.920647996 0.0001946962748 0)
(2.920472903 9.674238427e-05 0)
(2.920234371 -9.503665499e-05 0)
(2.919957786 -0.0003002889154 0)
(2.919779009 -0.0004088113473 0)
(2.919791112 -0.0003411237366 0)
(2.919824962 -0.0001483632282 0)
(2.91999038 1.458890616e-05 0)
(2.916192424 0.0005266386663 0)
(2.916034863 0.0005005888472 0)
(2.916095015 0.0004662651334 0)
(2.915682548 -3.1219103e-05 0)
(2.915204917 -0.0006217843572 0)
(2.915105859 -0.001006239119 0)
(2.91560499 -0.000574201063 0)
(2.916145289 -0.0003859022574 0)
(2.916784571 0.0001719028001 0)
(2.917139429 0.0008126024053 0)
(2.917117217 0.001045741743 0)
(2.917316637 0.0005941675957 0)
(2.917319622 0.0002189203557 0)
(2.917229966 0.0002421349344 0)
(2.917099357 0.0002880168845 0)
(2.91699463 0.0002930707928 0)
(2.917038899 0.0003538429227 0)
(2.917121679 0.0003540662967 0)
(2.917199256 0.0001748598604 0)
(2.917342854 -0.0001378390645 0)
(2.917527887 -0.0001736051913 0)
(2.917780727 3.994626792e-05 0)
(2.91782751 0.000408954442 0)
(2.917796855 0.0003590878825 0)
(2.917922597 6.372093493e-05 0)
(2.918042832 -2.012938308e-05 0)
(2.918068295 4.931514479e-05 0)
(2.91799365 0.0002012345334 0)
(2.917886367 0.0002481180019 0)
(2.917674801 0.000198566741 0)
(2.917409648 0.0001774456274 0)
(2.917223372 0.0001112432871 0)
(2.917197414 4.696160895e-05 0)
(2.917301945 8.498322199e-05 0)
(2.917468016 9.865816296e-05 0)
(2.912979329 0.0007712582134 0)
(2.912616325 0.0009992931948 0)
(2.912297287 0.0009617958141 0)
(2.911940385 0.0004929865474 0)
(2.911765141 0.0001453340128 0)
(2.911993395 -0.0003685120068 0)
(2.912112718 -0.001059815861 0)
(2.912929174 -0.001124872788 0)
(2.913607476 -0.0007401605633 0)
(2.914012408 -0.0002573417309 0)
(2.914146925 0.0002109803993 0)
(2.914206427 5.955886129e-05 0)
(2.914292833 -9.721438213e-05 0)
(2.914340734 -9.209312882e-05 0)
(2.914384701 -3.125664949e-06 0)
(2.914388167 0.0003022826127 0)
(2.914315852 0.0005212095992 0)
(2.914354675 0.0004459632083 0)
(2.914467409 0.0002957181402 0)
(2.914538191 6.882294746e-05 0)
(2.914610806 -0.0001421103058 0)
(2.914826174 -4.595938115e-05 0)
(2.914967508 9.400594794e-06 0)
(2.915127064 -1.669358013e-05 0)
(2.915070024 8.184725587e-05 0)
(2.915154083 0.0001407430021 0)
(2.915274008 0.0002075590522 0)
(2.915331186 0.0003364018967 0)
(2.915250875 0.0004763843127 0)
(2.91513699 0.0005008548369 0)
(2.914911071 0.0006226121933 0)
(2.914729888 0.00064853743 0)
(2.914673985 0.0005937986128 0)
(2.914790346 0.0004995571714 0)
(2.914914156 0.0003096800398 0)
(2.909783167 0.000767493569 0)
(2.909692813 0.001026587135 0)
(2.909114004 0.001056065852 0)
(2.908921334 0.0008524384837 0)
(2.908780254 0.000735240833 0)
(2.908939822 0.0003276280831 0)
(2.909086082 -0.0005171670205 0)
(2.909517369 -0.001350905217 0)
(2.910283183 -0.001302450959 0)
(2.91092406 -0.0009865343465 0)
(2.911401166 -0.0008494788287 0)
(2.911260605 -0.0004194923479 0)
(2.911433699 -0.0004261951046 0)
(2.911518533 -0.0004513870459 0)
(2.911616328 -0.0004392434307 0)
(2.911752145 -8.241550378e-05 0)
(2.911800105 0.0003865970296 0)
(2.911768733 0.0005290381348 0)
(2.911677352 0.0006783772683 0)
(2.911629817 0.0006658476649 0)
(2.911701694 0.000374175249 0)
(2.911831353 -0.0001573207996 0)
(2.91194053 -0.0004492725529 0)
(2.912104853 -0.0002715114625 0)
(2.912101117 9.028656627e-05 0)
(2.912236536 0.0001622023485 0)
(2.912429233 0.0002012462672 0)
(2.91254565 0.0003156253924 0)
(2.912509198 0.0005602990418 0)
(2.91238109 0.0006889493054 0)
(2.912207274 0.0008130111419 0)
(2.912087013 0.0008879348518 0)
(2.912053443 0.000915539711 0)
(2.912165345 0.0008492823041 0)
(2.912289971 0.0005616071018 0)
(2.90689413 0.0002022263039 0)
(2.906782539 0.0006313949539 0)
(2.906581958 0.0007601580457 0)
(2.906263847 0.0008436880842 0)
(2.906092188 0.0008938506384 0)
(2.905941581 0.0007730278806 0)
(2.906282659 0.0002662800385 0)
(2.906585306 -0.0009124740372 0)
(2.907137029 -0.001546541164 0)
(2.907750759 -0.001389603688 0)
(2.908068183 -0.001292030212 0)
(2.908238845 -0.0008325637981 0)
(2.908340484 -0.0005772735053 0)
(2.908486953 -0.0008051111981 0)
(2.908577382 -0.0006888737437 0)
(2.908777875 -0.0005355571266 0)
(2.909034775 -0.0002662548371 0)
(2.909007924 0.0003944634635 0)
(2.908856137 0.0008667586993 0)
(2.908701516 0.001018922708 0)
(2.908634628 0.0008909346382 0)
(2.908650584 0.0002163538584 0)
(2.90866143 -0.0003770120798 0)
(2.908635859 -0.000238692702 0)
(2.908891758 -2.43785041e-05 0)
(2.909147076 2.428020473e-05 0)
(2.90938943 3.841716809e-06 0)
(2.909599129 3.939048131e-05 0)
(2.909590431 0.00032869425 0)
(2.90939271 0.0006454504835 0)
(2.90925464 0.0007354259878 0)
(2.909236622 0.000744972327 0)
(2.909263547 0.0008176994921 0)
(2.909331257 0.0008857959797 0)
(2.909436004 0.0006964354192 0)
(2.903752315 -0.000285369653 0)
(2.90369377 -1.542086805e-05 0)
(2.903564896 6.817248727e-05 0)
(2.90331479 0.0007874674871 0)
(2.903082699 0.0008720572591 0)
(2.903089511 0.0007816863875 0)
(2.903183522 0.000728324975 0)
(2.903527343 -0.0001588709802 0)
(2.903991749 -0.0009857803962 0)
(2.904478798 -0.001321104522 0)
(2.904629123 -0.001103093915 0)
(2.904821787 -0.0007793489384 0)
(2.904945739 -0.0007966012106 0)
(2.905007606 -0.0008328005688 0)
(2.905185142 -0.0007721237119 0)
(2.905425728 -0.0008377496705 0)
(2.905680518 -0.0006327173744 0)
(2.905762343 -4.445348031e-05 0)
(2.905706182 0.0005080764335 0)
(2.905687845 0.0009182891774 0)
(2.905592845 0.0009804764734 0)
(2.90539482 0.0007130788107 0)
(2.905388474 0.000309353697 0)
(2.905447184 -0.0001057383018 0)
(2.905627926 -0.0002131015244 0)
(2.905838868 -0.0002315472196 0)
(2.906071231 -0.0002804146946 0)
(2.906272735 -0.0001881594296 0)
(2.906324672 2.402486999e-05 0)
(2.906184989 0.0003061991662 0)
(2.906148071 0.0004402066057 0)
(2.906199365 0.0004465587945 0)
(2.906262125 0.000477259062 0)
(2.906354611 0.000483474256 0)
(2.906390359 0.0003990520181 0)
(2.900153574 -0.0004835685139 0)
(2.900210122 -0.0004224283843 0)
(2.900189311 -0.0005363651493 0)
(2.899996078 0.000250681507 0)
(2.899935483 0.0008751470523 0)
(2.899807373 0.0008167017605 0)
(2.899903677 0.0007100898371 0)
(2.900199255 0.0004752896521 0)
(2.900647622 -0.0001090825478 0)
(2.901036093 -0.0005673998687 0)
(2.901262037 -0.0005852560217 0)
(2.901287916 -0.0005211449537 0)
(2.901318179 -0.0005963675346 0)
(2.901411585 -0.0004092578277 0)
(2.901572329 -0.0006297527507 0)
(2.901710109 -0.0008678584299 0)
(2.901885519 -0.0007055746834 0)
(2.902166901 -0.0004174401914 0)
(2.902247489 -0.0001033666792 0)
(2.902268279 0.0003784702381 0)
(2.902178991 0.0007567400407 0)
(2.901914576 0.0009157262869 0)
(2.901777851 0.0007521559803 0)
(2.901937258 0.0001519115665 0)
(2.902090079 -0.0003192819688 0)
(2.902198606 -0.0004238427201 0)
(2.902399379 -0.0004741457063 0)
(2.902556649 -0.0003528552427 0)
(2.902655035 -0.0002188948359 0)
(2.902715041 -3.505337596e-05 0)
(2.9026726 1.979451198e-05 0)
(2.902685575 1.250793235e-05 0)
(2.902782719 -6.882930621e-05 0)
(2.902951609 -0.0001518289505 0)
(2.903102173 -0.0002139484323 0)
(2.896360927 4.331335514e-05 0)
(2.89640954 -0.0004441806216 0)
(2.896521022 -0.0007278013166 0)
(2.896417406 -0.0004261455933 0)
(2.896449517 0.0003617011253 0)
(2.896458249 0.0008431492395 0)
(2.896470271 0.0007220962039 0)
(2.896733525 0.0006803186565 0)
(2.897091382 0.0004443515238 0)
(2.897334925 0.0001611682499 0)
(2.897500969 -7.850345212e-05 0)
(2.897489694 -0.0002010642827 0)
(2.897525274 -0.0001852347635 0)
(2.897628355 -3.83433775e-05 0)
(2.897716034 -0.0002822509889 0)
(2.897856012 -0.0004840882946 0)
(2.897980396 -0.0005548321951 0)
(2.898135549 -0.0005845545667 0)
(2.898283069 -0.0004187766814 0)
(2.898366066 1.592443095e-06 0)
(2.898327299 0.0002733827453 0)
(2.898129637 0.0007664154794 0)
(2.897966472 0.0006942162411 0)
(2.8979695 0.00036292777 0)
(2.898190715 -4.292337519e-06 0)
(2.89843835 -0.000158609333 0)
(2.898582404 -0.000270762989 0)
(2.898725423 -0.0002703268472 0)
(2.898809984 -0.0002812521509 0)
(2.898866351 -0.0002896005485 0)
(2.898919354 -0.0002536420405 0)
(2.898921129 -0.0002908001164 0)
(2.898972932 -0.0004045886471 0)
(2.899094793 -0.0005436347754 0)
(2.899222628 -0.0006139981197 0)
(2.89241665 0.0006463808334 0)
(2.892485497 3.91665024e-05 0)
(2.892543636 -0.0007609762483 0)
(2.892669331 -0.0008583871546 0)
(2.892733686 -0.0004835851976 0)
(2.892843828 0.0002641013277 0)
(2.89302405 0.0007644037197 0)
(2.89324598 0.0007741922976 0)
(2.89345937 0.0006729222091 0)
(2.893543768 0.0004787537071 0)
(2.893590513 0.0001263279188 0)
(2.893597169 1.965629596e-05 0)
(2.893597553 0.000183598624 0)
(2.893627819 0.0001991206758 0)
(2.893692309 9.011663977e-05 0)
(2.893841681 2.658625044e-05 0)
(2.893993806 -0.0001216624688 0)
(2.894113031 -0.0003322264011 0)
(2.894093191 -0.0002401528544 0)
(2.894120765 -0.0001150047072 0)
(2.894312646 -0.0001166083563 0)
(2.894313684 1.936191013e-05 0)
(2.894286853 0.0003128394873 0)
(2.894213444 0.0003680099692 0)
(2.894205298 0.0003620962763 0)
(2.894452978 0.0001806787597 0)
(2.894628131 6.476290979e-05 0)
(2.894780879 2.762055918e-05 0)
(2.894864814 -6.555996225e-05 0)
(2.89488224 -0.0002353708231 0)
(2.894925682 -0.0002521969709 0)
(2.894942165 -0.0002549187919 0)
(2.894958964 -0.0003028825937 0)
(2.89498281 -0.000422034007 0)
(2.895102782 -0.0005754275617 0)
(2.888668971 0.0009305043671 0)
(2.888526196 0.0005217348987 0)
(2.888644693 -0.000528055905 0)
(2.888831823 -0.001109326611 0)
(2.888994814 -0.001200644529 0)
(2.889105019 -0.0007072497179 0)
(2.889368853 0.0001496973797 0)
(2.88975735 0.0006790843791 0)
(2.889957549 0.0008060365532 0)
(2.889951609 0.0006414365957 0)
(2.889844638 0.0004638358157 0)
(2.889787067 0.0002749021043 0)
(2.88971684 0.0003555842708 0)
(2.8896773 0.0003230553282 0)
(2.889672916 0.0003346395472 0)
(2.88974984 0.0003915978272 0)
(2.889896189 0.0003361580344 0)
(2.890091513 0.0002346640744 0)
(2.890207614 0.0002589489367 0)
(2.890269714 6.980334525e-05 0)
(2.890359616 -0.0003113165448 0)
(2.890397772 -0.0005447782328 0)
(2.890454902 -0.0002287088331 0)
(2.890523363 0.0003533400031 0)
(2.890561759 0.0004356637113 0)
(2.890610426 0.0002889942388 0)
(2.890696923 0.0002824279177 0)
(2.890829475 0.0002305952085 0)
(2.890928162 0.0001585427726 0)
(2.890997237 3.05901508e-05 0)
(2.890997981 -9.585492678e-05 0)
(2.891094341 4.267656983e-05 0)
(2.891129734 0.0001206729157 0)
(2.89117732 0.0001075288239 0)
(2.891320961 -4.789974764e-05 0)
(2.885300314 0.0006432227306 0)
(2.885190815 0.001050568299 0)
(2.884952612 0.0007664547394 0)
(2.884984738 -0.0001491037913 0)
(2.885037675 -0.001240111024 0)
(2.885421998 -0.001516344763 0)
(2.885643824 -0.001407933048 0)
(2.885844423 -0.000914607494 0)
(2.886129399 -0.0002927262358 0)
(2.886400324 0.0003720132734 0)
(2.886473656 0.0006784247219 0)
(2.886372061 0.0007414375499 0)
(2.886270538 0.0005667053002 0)
(2.886159539 0.0005885692121 0)
(2.886046831 0.0005853813096 0)
(2.885969264 0.0006653626053 0)
(2.88596032 0.0006812441032 0)
(2.886093586 0.0007844115897 0)
(2.886313765 0.0008246410151 0)
(2.886513574 0.0007322407366 0)
(2.886626825 0.0004007169271 0)
(2.886627651 -0.000190335843 0)
(2.886617531 -0.0005924446916 0)
(2.886771988 -0.000527860285 0)
(2.886973132 -3.386378393e-05 0)
(2.887232889 0.0003473779932 0)
(2.887346255 0.0003838632741 0)
(2.887330764 0.0003908708448 0)
(2.88736878 0.0003189856086 0)
(2.887428295 0.0002586970177 0)
(2.887451747 0.0002781456581 0)
(2.887507333 0.000333511211 0)
(2.887532592 0.0003455121378 0)
(2.887598684 0.0004283913153 0)
(2.887638679 0.0004718057996 0)
(2.887815539 0.0003754766876 0)
(2.881874294 -0.0004048410127 0)
(2.881853192 0.0004593010071 0)
(2.8818609 0.0008415891244 0)
(2.881768479 0.0001413918331 0)
(2.881872688 -0.0008632558999 0)
(2.882078748 -0.001425374382 0)
(2.882581212 -0.00157621203 0)
(2.882848544 -0.001384419143 0)
(2.883039139 -0.001155290843 0)
(2.883180827 -0.0006678973675 0)
(2.883224903 -2.868446315e-06 0)
(2.883254639 0.0005293903961 0)
(2.88319152 0.0007021384999 0)
(2.88307249 0.0007950643202 0)
(2.882909611 0.0008194028476 0)
(2.88281033 0.0008646723604 0)
(2.882800635 0.0008692515228 0)
(2.882920527 0.0009361947432 0)
(2.883125148 0.0009622897096 0)
(2.883358617 0.0007453251178 0)
(2.883474306 0.0004291791385 0)
(2.883468328 5.504785665e-05 0)
(2.883514994 -0.0002320675217 0)
(2.883608175 -0.000471759597 0)
(2.883870459 -0.0004449339468 0)
(2.884111587 -0.0001695479755 0)
(2.884302845 0.0002351951583 0)
(2.884426828 0.0004687881197 0)
(2.884463114 0.0004735524947 0)
(2.884496116 0.0004552199834 0)
(2.884548459 0.0005553887026 0)
(2.884600571 0.0006833385625 0)
(2.884646213 0.0006905415706 0)
(2.88471023 0.0007207054513 0)
(2.884774585 0.0008042864834 0)
(2.884894927 0.0007330094669 0)
(2.879103671 -0.0009484410889 0)
(2.879099818 -0.0004751943527 0)
(2.879269319 0.0004432697519 0)
(2.879337537 0.0003094158344 0)
(2.879593392 -0.0001885505567 0)
(2.879877419 -0.0007154091393 0)
(2.880170185 -0.001291469671 0)
(2.880494847 -0.001416798805 0)
(2.88065482 -0.001321004425 0)
(2.880702319 -0.00125998353 0)
(2.880704017 -0.0007911147766 0)
(2.880701091 -0.0001779054082 0)
(2.880701944 0.000356476437 0)
(2.880562727 0.0006293237788 0)
(2.880409464 0.0007286841757 0)
(2.880258716 0.000711159315 0)
(2.880292577 0.0007660812228 0)
(2.880488223 0.0008097214565 0)
(2.880758136 0.0008214509077 0)
(2.881043936 0.0007274266651 0)
(2.881220533 0.0005439626124 0)
(2.881173881 0.0004110436065 0)
(2.88116458 0.0001677017961 0)
(2.881244689 -0.0001501380489 0)
(2.881405527 -0.0005860609142 0)
(2.881613027 -0.00061364489 0)
(2.881808859 -0.0003036719422 0)
(2.882009661 0.0001302317064 0)
(2.882104724 0.0003927301857 0)
(2.882167224 0.0004788849312 0)
(2.882289564 0.0006498605067 0)
(2.882370995 0.0007911939057 0)
(2.882397654 0.0007937496953 0)
(2.882422836 0.0007164233374 0)
(2.882467305 0.0006873308957 0)
(2.882670939 0.0006132470782 0)
(2.877148059 -0.0009958331183 0)
(2.877191447 -0.0007874965038 0)
(2.877399098 -0.0002228326789 0)
(2.877754974 0.0005510347667 0)
(2.878116203 0.0003208379837 0)
(2.87860779 -0.0001917426867 0)
(2.878784469 -0.000520280762 0)
(2.878969736 -0.0007816572192 0)
(2.879195926 -0.0008629471299 0)
(2.879169121 -0.0009180541188 0)