/*--------------------------------*- C++ -*----------------------------------*\
  =========                 |
  \\      /  F ield         | OpenFOAM: The Open Source CFD Toolbox
   \\    /   O peration     | Website:  https://openfoam.org
    \\  /    A nd           | Version:  7
     \\/     M anipulation  |
\*---------------------------------------------------------------------------*/
FoamFile
{
    version     2.0;
    format      ascii;
    class       volVectorField;
    location    "2.7";
    object      U;
}
// * * * * * * * * * * * * * * * * * * * * * * * * * * * * * * * * * * * * * //

dimensions      [0 1 -1 0 0 0 0];

internalField   nonuniform List<vector> 
2222
(
(2.997053656 0.006351982264 0)
(2.997066147 0.005552842798 0)
(2.997737916 0.001949597974 0)
(2.998397188 -0.001691953761 0)
(2.997773784 -0.0004939752603 0)
(2.996292373 0.004270040924 0)
(2.996531393 0.00219250399 0)
(2.996268444 -0.001352109683 0)
(3.373960236 0.454328544 0)
(3.288074409 0.4522942382 0)
(3.170893507 0.4235605486 0)
(3.068202447 0.3986052025 0)
(2.9997759 0.3868760898 0)
(2.977205909 0.3784012756 0)
(2.971911015 0.3829079266 0)
(2.970517841 0.3848748091 0)
(2.979602064 0.3860965806 0)
(2.995693756 0.3852673292 0)
(3.008733963 0.3867189725 0)
(3.018648483 0.3884384756 0)
(3.030622187 0.3923509322 0)
(3.04489353 0.397077888 0)
(3.059555994 0.398704411 0)
(3.070158853 0.3995605838 0)
(3.077005697 0.3999924097 0)
(3.082881929 0.3965574457 0)
(3.085959566 0.3781793746 0)
(3.072433336 0.2997575353 0)
(3.036656123 0.1483496325 0)
(3.005813235 0.05065441711 0)
(2.995998887 0.01124228611 0)
(2.996872324 0.006061665441 0)
(2.996499927 0.005902419385 0)
(2.995792536 0.006411035885 0)
(2.995725825 0.005401621938 0)
(2.995680536 0.00140691171 0)
(2.996463874 -0.002429671486 0)
(2.995625937 -0.0008685170449 0)
(2.994509303 0.003408538908 0)
(2.994628563 0.001642520995 0)
(2.994496077 -0.001274688861 0)
(3.394730139 0.4340568162 0)
(3.366322318 0.457117121 0)
(3.283879722 0.4492287755 0)
(3.16952651 0.4218612843 0)
(3.068640565 0.3969353402 0)
(3.001634005 0.3852761543 0)
(2.978773176 0.3779225347 0)
(2.972281668 0.383951978 0)
(2.969726784 0.3853010699 0)
(2.979084071 0.3858324388 0)
(2.996060992 0.3853949627 0)
(3.009027941 0.3868578719 0)
(3.018913081 0.388764408 0)
(3.031142942 0.3928762811 0)
(3.045430928 0.3973649046 0)
(3.059471274 0.3987062655 0)
(3.068849448 0.3992780081 0)
(3.075296741 0.3993437467 0)
(3.081278466 0.3949838414 0)
(3.081619198 0.3651852528 0)
(3.062260648 0.2591172547 0)
(3.028815964 0.1207063254 0)
(2.997280662 0.0299015251 0)
(2.993341335 0.006455057728 0)
(2.994887251 0.005427341314 0)
(2.994467731 0.006000323156 0)
(2.994003755 0.006724246742 0)
(2.994142948 0.005227296442 0)
(2.99428177 0.001198303768 0)
(2.994530789 -0.002659803797 0)
(2.99337348 -0.0008671086102 0)
(2.992616957 0.002607089605 0)
(2.992751299 0.0006969019569 0)
(2.992630434 -0.001863040363 0)
(3.389852946 0.4334319843 0)
(3.358246562 0.4586595577 0)
(3.278683349 0.4456840311 0)
(3.169921121 0.420107309 0)
(3.071072529 0.3963022665 0)
(3.005707344 0.384645286 0)
(2.980704193 0.3777154336 0)
(2.972233055 0.3845288553 0)
(2.968937951 0.3860290104 0)
(2.978688229 0.3854846523 0)
(2.99644516 0.3854562917 0)
(3.009146673 0.387016952 0)
(3.01893443 0.3890959595 0)
(3.031209002 0.3934126425 0)
(3.045889048 0.3976698222 0)
(3.059343773 0.3986734911 0)
(3.067978014 0.3991818605 0)
(3.074185388 0.3983872061 0)
(3.079123072 0.390582029 0)
(3.076186639 0.3445005829 0)
(3.055380882 0.2248183096 0)
(3.018491773 0.0952394621 0)
(2.992732705 0.0120320349 0)
(2.992547925 0.001500986132 0)
(2.992719599 0.002717268824 0)
(2.991891113 0.005191775754 0)
(2.991356073 0.006396894345 0)
(2.99209936 0.006221355948 0)
(2.992724007 0.001435830258 0)
(2.992887004 -0.002375803768 0)
(2.99170282 -0.0001755106992 0)
(2.990755655 0.002133915128 0)
(2.990821971 -0.0002218808485 0)
(3.384794906 0.4323773278 0)
(3.350252943 0.4582683656 0)
(3.273286733 0.4432530373 0)
(3.171591351 0.418939383 0)
(3.075919948 0.3964907096 0)
(3.011234394 0.3849166552 0)
(2.98309741 0.3781922426 0)
(2.972017882 0.3849402901 0)
(2.968172175 0.3864737623 0)
(2.978406686 0.385404507 0)
(2.99674325 0.3854702495 0)
(3.009240226 0.3871705626 0)
(3.019082167 0.3893783819 0)
(3.031577932 0.394012744 0)
(3.046181687 0.3977950284 0)
(3.058992219 0.398618433 0)
(3.066927119 0.3989668267 0)
(3.072844113 0.3965968251 0)
(3.076815456 0.3819409877 0)
(3.071676179 0.3236569844 0)
(3.04854749 0.2073330056 0)
(3.001598629 0.05373518156 0)
(2.992598759 0.009488683941 0)
(2.990724824 0.001656828377 0)
(2.991227581 0.002668893024 0)
(2.990402841 0.004933300663 0)
(2.989592822 0.006207584312 0)
(2.99007079 0.005826389773 0)
(2.990613458 0.002409899609 0)
(2.990817052 -0.001287823622 0)
(2.989625228 0.0009108667588 0)
(2.988861664 0.001888114692 0)
(2.988964948 -0.0009496791385 0)
(3.380210045 0.4312433108 0)
(3.343089698 0.4574102791 0)
(3.269306764 0.4407762985 0)
(3.173856528 0.4179441544 0)
(3.082284106 0.3962610094 0)
(3.017289177 0.3853043951 0)
(2.986415059 0.3791242459 0)
(2.972560562 0.3861307792 0)
(2.967442577 0.3864060447 0)
(2.978211247 0.3856270592 0)
(2.996828708 0.3856011266 0)
(3.00938013 0.3872371592 0)
(3.01905228 0.3897494062 0)
(3.031494906 0.3944898255 0)
(3.046030546 0.3978372579 0)
(3.058152394 0.3984591762 0)
(3.066195887 0.3985853742 0)
(3.071854237 0.3947929135 0)
(3.074863804 0.3760267687 0)
(3.067240049 0.3098824953 0)
(3.024682148 0.1479441879 0)
(2.999277334 0.04210244867 0)
(2.99113734 0.01174289363 0)
(2.989292781 0.00477451381 0)
(2.989613283 0.003249177927 0)
(2.988842702 0.005189197273 0)
(2.988032695 0.006106197241 0)
(2.988292738 0.004941026043 0)
(2.988376468 0.00139777552 0)
(2.988479992 -0.001519316816 0)
(2.987122502 0.001343398708 0)
(2.986801729 0.00231155965 0)
(2.98695995 -0.0006782579297 0)
(3.376798811 0.4306456708 0)
(3.337370634 0.4544162401 0)
(3.264181404 0.4399996807 0)
(3.175761269 0.4165701196 0)
(3.088978649 0.3948302433 0)
(3.023540085 0.3851416808 0)
(2.990000549 0.3802747325 0)
(2.972779887 0.3875544765 0)
(2.966698496 0.3859706312 0)
(2.978034417 0.3858825852 0)
(2.996684363 0.3858227545 0)
(3.009406586 0.3875040658 0)
(3.019193805 0.3903077024 0)
(3.031049101 0.3948370664 0)
(3.045184004 0.3977863807 0)
(3.056756691 0.3981041645 0)
(3.064945908 0.3978336868 0)
(3.071098446 0.394459551 0)
(3.072517006 0.3684666943 0)
(3.052478322 0.2627687317 0)
(3.019135246 0.1140503704 0)
(2.995278341 0.03720914997 0)
(2.989463554 0.009489168029 0)
(2.987821052 0.006474664321 0)
(2.987070635 0.004363107062 0)
(2.986436986 0.005333471881 0)
(2.985720925 0.00584895316 0)
(2.986564904 0.004177363471 0)
(2.986855634 0.0008249699428 0)
(2.986731207 -0.001715250098 0)
(2.985230021 0.001265190687 0)
(2.984671914 0.002119175913 0)
(2.984814563 -0.0004120267956 0)
(3.374047936 0.4317259265 0)
(3.334085261 0.4528315742 0)
(3.260820396 0.4389564812 0)
(3.176950863 0.4133338957 0)
(3.095900985 0.3928949108 0)
(3.030552348 0.384284578 0)
(2.993181425 0.3813317671 0)
(2.97296886 0.3888144451 0)
(2.966056047 0.3856878428 0)
(2.977804034 0.3858656694 0)
(2.996442643 0.3859241729 0)
(3.009302538 0.3877440383 0)
(3.018942858 0.3908338332 0)
(3.030291644 0.395191495 0)
(3.043612796 0.3975545532 0)
(3.054969241 0.3974674965 0)
(3.063730444 0.397012976 0)
(3.069547679 0.3899539567 0)
(3.066697317 0.3441904932 0)
(3.045538016 0.2228173718 0)
(3.011013093 0.09694120175 0)
(2.992086233 0.02762219459 0)
(2.987645179 0.007361114691 0)
(2.986387693 0.005695457467 0)
(2.985283248 0.005483430636 0)
(2.983942316 0.005923759995 0)
(2.9833994 0.005915639581 0)
(2.984309118 0.003874597359 0)
(2.985232535 -9.877360837e-05 0)
(2.985052936 -0.00237980071 0)
(2.983547728 0.0006965642386 0)
(2.982553988 0.002166004889 0)
(2.982581171 -0.0001090290174 0)
(3.371034312 0.4357038369 0)
(3.332797969 0.4538800114 0)
(3.261205495 0.4366151831 0)
(3.179151799 0.411618065 0)
(3.102041691 0.3912675076 0)
(3.037177253 0.3835621815 0)
(2.996733437 0.3820021037 0)
(2.973267758 0.3894963514 0)
(2.965548152 0.3857393268 0)
(2.977568743 0.3854077374 0)
(2.996225613 0.3860623198 0)
(3.009193064 0.3879749648 0)
(3.018978173 0.3915161693 0)
(3.029674627 0.3958115663 0)
(3.041749581 0.3973196333 0)
(3.052702229 0.396788445 0)
(3.062224516 0.3949972226 0)
(3.068238297 0.3808538806 0)
(3.06440914 0.3210661745 0)
(3.03740016 0.2001893263 0)
(3.002847551 0.07515208992 0)
(2.987509215 0.01348479707 0)
(2.985360742 0.004990448817 0)
(2.984359952 0.004747493663 0)
(2.983582989 0.004954739753 0)
(2.982332297 0.006429729988 0)
(2.981821418 0.005939871478 0)
(2.982113072 0.00362132192 0)
(2.982724697 -0.0005455279132 0)
(2.98261755 -0.002815259796 0)
(2.981249781 0.0002199946859 0)
(2.980468342 0.001261621689 0)
(2.980350658 -0.0009871944266 0)
(3.368070978 0.4378441592 0)
(3.332500571 0.4531197376 0)
(3.262299978 0.4352365286 0)
(3.181897777 0.4111470553 0)
(3.106359382 0.3915640159 0)
(3.042519895 0.3836552872 0)
(2.999423043 0.3829068476 0)
(2.973318591 0.3900347295 0)
(2.965232894 0.3861693346 0)
(2.977442387 0.3850136772 0)
(2.995889496 0.3860778094 0)
(3.009079575 0.3881314307 0)
(3.018800068 0.3923347922 0)
(3.028970942 0.3964444818 0)
(3.040287961 0.3973877157 0)
(3.050537513 0.3965351387 0)
(3.060737625 0.3939280983 0)
(3.067279469 0.373629229 0)
(3.059645061 0.3103478245 0)
(3.027499806 0.1701685472 0)
(2.989692109 0.03895406382 0)
(2.987076658 0.005301835726 0)
(2.983380198 0.002992079816 0)
(2.982066485 0.00309589393 0)
(2.981127359 0.004560271665 0)
(2.980599799 0.0062735487 0)
(2.980288239 0.005024347152 0)
(2.980474918 0.003370267166 0)
(2.980676264 -0.0006834100191 0)
(2.980448518 -0.002742081366 0)
(2.979218241 0.0001567735803 0)
(2.978195296 0.0005319007796 0)
(2.977998945 -0.001859277001 0)
(3.36497981 0.4360235708 0)
(3.332321485 0.4508225319 0)
(3.265110538 0.4336365454 0)
(3.185563853 0.4107942418 0)
(3.110780421 0.3929411812 0)
(3.046866589 0.3846892644 0)
(3.001528066 0.3842268819 0)
(2.973257837 0.3905488724 0)
(2.965130327 0.3865103302 0)
(2.977417159 0.3850312916 0)
(2.995286209 0.3859169302 0)
(3.008922206 0.3882465367 0)
(3.018598933 0.3927981762 0)
(3.028207351 0.3968523558 0)
(3.03847942 0.3974465579 0)
(3.049101178 0.3960987218 0)
(3.059135179 0.3922025643 0)
(3.065308701 0.369633138 0)
(3.04679817 0.2728368045 0)
(3.009208776 0.1138994834 0)
(2.990227128 0.02460259969 0)
(2.984151804 0.005611371959 0)
(2.981479298 0.003887483272 0)
(2.980160181 0.003709310904 0)
(2.978818676 0.003706350078 0)
(2.977877905 0.006294380938 0)
(2.977864135 0.005157340797 0)
(2.978533512 0.003872556457 0)
(2.978832117 -0.0006442040271 0)
(2.978727603 -0.002221173744 0)
(2.977307666 0.0006387002838 0)
(2.976330483 -0.0002273762424 0)
(2.976288183 -0.002386470641 0)
(3.362045575 0.4341546384 0)
(3.331813043 0.4485959803 0)
(3.269108122 0.4319969544 0)
(3.190682013 0.4101238115 0)
(3.114440045 0.3940649796 0)
(3.050387642 0.3870634588 0)
(3.00351764 0.3860400349 0)
(2.973478466 0.3911420412 0)
(2.965399273 0.3865897142 0)
(2.97749339 0.3850283513 0)
(2.994624676 0.3858412368 0)
(3.00869903 0.3885881021 0)
(3.018469119 0.393128699 0)
(3.027605668 0.3968629773 0)
(3.037256178 0.3972719967 0)
(3.048131055 0.395544501 0)
(3.057197376 0.3878752071 0)
(3.057006407 0.3439340659 0)
(3.037056972 0.2197323184 0)
(3.005644199 0.08523936087 0)
(2.986637133 0.02412673879 0)
(2.980510779 0.007446815194 0)
(2.979307712 0.004998506333 0)
(2.978218228 0.004525787154 0)
(2.977053839 0.004535393593 0)
(2.975938482 0.006164061932 0)
(2.975267503 0.004734035115 0)
(2.975886349 0.003443527248 0)
(2.976506351 0.0001096547822 0)
(2.976605521 -0.001415793104 0)
(2.974767288 0.001388344033 0)
(2.974167841 0.0002826412173 0)
(3.35842206 0.4337713361 0)
(3.33166703 0.445863171 0)
(3.273905491 0.4297249354 0)
(3.196922478 0.4092650899 0)
(3.119069415 0.3943103455 0)
(3.053293344 0.3891937598 0)
(3.005119461 0.3884782537 0)
(2.974222644 0.3917786294 0)
(2.966217323 0.3862107053 0)
(2.977597235 0.3851514265 0)
(2.994111591 0.3857567978 0)
(3.008315715 0.3890739826 0)
(3.01827853 0.393602408 0)
(3.02724239 0.3966112427 0)
(3.036367978 0.396652559 0)
(3.04655522 0.3934101076 0)
(3.055034505 0.3795877572 0)
(3.053981795 0.3188779323 0)
(3.030184021 0.191630799 0)
(2.995865159 0.07516877834 0)
(2.982019892 0.02036167714 0)
(2.978150641 0.0078689505 0)
(2.976641786 0.006560569199 0)
(2.975366112 0.004793890395 0)
(2.974849258 0.004690728325 0)
(2.97420917 0.006146667983 0)
(2.97345185 0.004762294815 0)
(2.973777364 0.002324549976 0)
(2.974006927 -0.0008644157552 0)
(2.974040845 -0.001734964217 0)
(2.972502834 0.001584261794 0)
(2.971634332 0.0008762884651 0)
(3.356213446 0.4369817496 0)
(3.331988968 0.4449117463 0)
(3.278338221 0.4254098594 0)
(3.202952681 0.4079458633 0)
(3.123237886 0.3943104401 0)
(3.056398768 0.3901565535 0)
(3.006515355 0.3900203358 0)
(2.975419424 0.3923270988 0)
(2.967299402 0.3855139218 0)
(2.977525948 0.3851703739 0)
(2.993499693 0.3859231288 0)
(3.008084522 0.3899561372 0)
(3.01820979 0.3939689748 0)
(3.026866606 0.3964006039 0)
(3.035744241 0.3953523029 0)
(3.045125079 0.3907428354 0)
(3.052867312 0.3705546018 0)
(3.047779557 0.305604559 0)
(3.01781432 0.1736013592 0)
(2.987274331 0.05741100473 0)
(2.97865239 0.0125168655 0)
(2.975267561 0.007791092754 0)
(2.973690116 0.006322775769 0)
(2.972957253 0.005111152885 0)
(2.972052086 0.005002223336 0)
(2.971740273 0.005990055332 0)
(2.971652687 0.00434460607 0)
(2.971745917 0.001774965912 0)
(2.97171924 -0.001463902424 0)
(2.971609149 -0.002230459974 0)
(2.970316041 0.0007078293225 0)
(2.969150976 0.0007574224586 0)
(3.356361452 0.4412802348 0)
(3.33334669 0.4448250392 0)
(3.281406602 0.4240010603 0)
(3.209073258 0.4056586562 0)
(3.126766734 0.3932514588 0)
(3.057447804 0.3907947329 0)
(3.0076456 0.3908706346 0)
(2.976881576 0.3925217167 0)
(2.968045695 0.385332747 0)
(2.977218559 0.3849156116 0)
(2.992890102 0.3861138578 0)
(3.007583742 0.3909061151 0)
(3.017583473 0.3945193634 0)
(3.025958078 0.3960344221 0)
(3.034428856 0.3935009326 0)
(3.044075571 0.3888926853 0)
(3.050215488 0.3646238223 0)
(3.035788752 0.2726811304 0)
(3.000794946 0.1217031574 0)
(2.978005456 0.02700298698 0)
(2.97433405 0.007127461613 0)
(2.971329352 0.005720445156 0)
(2.970348184 0.005367587617 0)
(2.970398717 0.004760542168 0)
(2.969552574 0.005349169091 0)
(2.968789834 0.005802248571 0)
(2.968709964 0.004058966107 0)
(2.968993196 0.001343661288 0)
(2.969213171 -0.002158358622 0)
(2.969050773 -0.002894663543 0)
(2.967562672 -4.83551244e-05 0)
(2.96637613 0.0001520814611 0)
(3.356789088 0.4413640546 0)
(3.334260092 0.4445471159 0)
(3.285815918 0.424468561 0)
(3.215012521 0.4050622201 0)
(3.13052975 0.3927538779 0)
(3.059053575 0.3931175208 0)
(3.008358208 0.39154246 0)
(2.97848273 0.3923400041 0)
(2.969179621 0.3853169074 0)
(2.97709032 0.3846521014 0)
(2.992376569 0.3861357466 0)
(3.00699306 0.3911022475 0)
(3.016389568 0.3950756668 0)
(3.024902125 0.3958865893 0)
(3.033529754 0.3921605268 0)
(3.041740809 0.3819083661 0)
(3.044435379 0.3447717272 0)
(3.022271572 0.218038303 0)
(2.992753946 0.07273108882 0)
(2.978610429 0.009943523001 0)
(2.970410991 0.003188611034 0)
(2.967921795 0.003540555972 0)
(2.967014121 0.003681671881 0)
(2.967054696 0.003809476012 0)
(2.967038353 0.005015253611 0)
(2.966353384 0.005769127723 0)
(2.966433087 0.003936099118 0)
(2.966438948 0.0009815871116 0)
(2.966397442 -0.002608585417 0)
(2.966160482 -0.003319675568 0)
(2.964869486 -0.0006339393758 0)
(2.963653363 -0.0006226433317 0)
(3.35729704 0.4412424075 0)
(3.335131628 0.4441977239 0)
(3.289533427 0.4246263025 0)
(3.220707657 0.405901247 0)
(3.13351177 0.3935196873 0)
(3.059728568 0.3946410908 0)
(3.008865338 0.3922237597 0)
(2.980124743 0.3919024152 0)
(2.970674529 0.38544587 0)
(2.977165801 0.384547022 0)
(2.991722837 0.3865806294 0)
(3.005923654 0.3917950795 0)
(3.015023917 0.3951817828 0)
(3.02367088 0.3955245797 0)
(3.032686199 0.3916547434 0)
(3.040566371 0.3757953796 0)
(3.04017381 0.312063792 0)
(3.017370681 0.1855177114 0)
(2.986500471 0.06372122182 0)
(2.973222901 0.01178608256 0)
(2.966028777 0.002262513354 0)
(2.964547161 0.003349581467 0)
(2.964046131 0.003847737852 0)
(2.964021121 0.003614021017 0)
(2.963763525 0.004911636834 0)
(2.963659894 0.00546366198 0)
(2.963906387 0.003536979695 0)
(2.963868655 0.0007750664357 0)
(2.963731714 -0.002771527525 0)
(2.963396614 -0.00302041048 0)
(2.962294296 -0.0007111730866 0)
(2.961037888 -0.001216968078 0)
(3.358946491 0.4404237497 0)
(3.337046459 0.443312245 0)
(3.292527297 0.423856588 0)
(3.224085621 0.4072731655 0)
(3.135708483 0.3951756563 0)
(3.06045236 0.3966453216 0)
(3.009441366 0.3930981394 0)
(2.981628044 0.3916628915 0)
(2.972099735 0.3853910424 0)
(2.977527563 0.3846205111 0)
(2.991077821 0.3873392573 0)
(3.004286939 0.3921910163 0)
(3.013414585 0.3949165676 0)
(3.022444775 0.3949822199 0)
(3.031253668 0.3895578533 0)
(3.03835332 0.3675862616 0)
(3.035434279 0.3022142806 0)
(3.0077175 0.1749555118 0)
(2.97698268 0.061534683 0)
(2.966053502 0.01425982671 0)
(2.961092091 0.00481877593 0)
(2.960614945 0.00407600386 0)
(2.960775653 0.004094714729 0)
(2.960874125 0.003946437742 0)
(2.960583591 0.005469987994 0)
(2.959980235 0.005544087627 0)
(2.96066059 0.003394008714 0)
(2.960750597 0.0009255516137 0)
(2.960590294 -0.002264161307 0)
(2.960100516 -0.002365757996 0)
(2.959162091 0.0002856266897 0)
(2.958386851 -0.001396987721 0)
(3.361415342 0.4383544868 0)
(3.339646435 0.441135805 0)
(3.296184735 0.4227448321 0)
(3.226774972 0.4077601763 0)
(3.137726659 0.398360558 0)
(3.060925696 0.3985720638 0)
(3.010169431 0.3938564631 0)
(2.982826733 0.3915295494 0)
(2.973439379 0.3849032339 0)
(2.977802264 0.3849851434 0)
(2.990573765 0.3882629882 0)
(3.003144255 0.3927531897 0)
(3.011861251 0.3947604771 0)
(3.021132898 0.3937754652 0)
(3.029857714 0.3854335167 0)
(3.035393002 0.3591342354 0)
(3.023398943 0.2738568846 0)
(2.991318792 0.1324918064 0)
(2.969714267 0.04150051506 0)
(2.960876947 0.01203411434 0)
(2.957565385 0.007204634161 0)
(2.95691756 0.005357952638 0)
(2.95686347 0.004881051566 0)
(2.957259959 0.004534878184 0)
(2.957198136 0.005742114863 0)
(2.956676697 0.005396497375 0)
(2.957540159 0.003006476958 0)
(2.957190803 0.0006533165541 0)
(2.956991557 -0.001939131058 0)
(2.956619034 -0.002041198544 0)
(2.955518452 0.000117106556 0)
(3.363706637 0.4382365027 0)
(3.342696091 0.4374949568 0)
(3.299568818 0.4211574342 0)
(3.230148463 0.4081912523 0)
(3.138789066 0.3997314951 0)
(3.060220601 0.4010571557 0)
(3.010490986 0.394548326 0)
(2.984171288 0.3915645054 0)
(2.974754198 0.3846330605 0)
(2.9778034 0.3851752933 0)
(2.990222166 0.388838476 0)
(3.002338921 0.3932513287 0)
(3.010193372 0.3947185349 0)
(3.020007911 0.391923609 0)
(3.02882079 0.3795846492 0)
(3.030757442 0.3397601754 0)
(3.009578662 0.2179860728 0)
(2.979402518 0.07781015705 0)
(2.961403321 0.01631150241 0)
(2.955773554 0.009051715347 0)
(2.953351574 0.007633108478 0)
(2.953081063 0.006027086331 0)
(2.953153 0.005084017093 0)
(2.95373467 0.004538420538 0)
(2.953427189 0.005536174193 0)
(2.953165169 0.005245201402 0)
(2.954000976 0.002820769087 0)
(2.953745437 0.0002109823672 0)
(2.953825273 -0.002266543312 0)
(2.953459509 -0.002214111194 0)
(2.952380976 -0.0002822266009 0)
(3.366862031 0.4399393258 0)
(3.34662104 0.436649833 0)
(3.303644687 0.418068674 0)
(3.231043152 0.4073663512 0)
(3.13737499 0.4008428305 0)
(3.058284898 0.4023452585 0)
(3.010544845 0.3946790548 0)
(2.985636669 0.3918051588 0)
(2.975714998 0.3846805504 0)
(2.977829869 0.3854721911 0)
(2.990435119 0.3894469348 0)
(3.001743968 0.3933894048 0)
(3.008719291 0.394560943 0)
(3.01863333 0.3906927027 0)
(3.027275471 0.3727715461 0)
(3.025075325 0.3132021251 0)
(3.002744381 0.177356858 0)
(2.973980022 0.04122528284 0)
(2.957144113 0.004389147961 0)
(2.950097838 0.005655342281 0)
(2.948862013 0.005543182086 0)
(2.948912837 0.006169999646 0)
(2.949459322 0.005689627171 0)
(2.950088268 0.004692811229 0)
(2.94970658 0.005379993964 0)
(2.949453923 0.004377947784 0)
(2.950107951 0.002921590244 0)
(2.950051773 -0.0004573826811 0)
(2.950406565 -0.003044113337 0)
(2.949717259 -0.002799063177 0)
(2.949062473 -0.001274175016 0)
(3.369176424 0.44115509 0)
(3.350862381 0.4374123215 0)
(3.307411484 0.4173552454 0)
(3.229773686 0.4063407164 0)
(3.133865031 0.4031526046 0)
(3.054879246 0.4027668834 0)
(3.009966568 0.3945300437 0)
(2.986327305 0.3916580694 0)
(2.975951091 0.3848302433 0)
(2.977961523 0.3860881889 0)
(2.990484154 0.3899073254 0)
(3.001175585 0.3935698306 0)
(3.007918847 0.3943456072 0)
(3.017368652 0.3892477234 0)
(3.02512713 0.3664778973 0)
(3.019881768 0.2766167344 0)
(2.989694802 0.1421466002 0)
(2.962022882 0.04481452235 0)
(2.949595112 0.00632662691 0)
(2.946561745 0.003379687147 0)
(2.94556307 0.003265958462 0)
(2.945288321 0.004131180389 0)
(2.945460806 0.004447362986 0)
(2.945872707 0.004117417972 0)
(2.945726631 0.005189185488 0)
(2.945573061 0.003948318627 0)
(2.946253799 0.002627421333 0)
(2.946816869 -0.0002751863177 0)
(2.946949833 -0.002809648176 0)
(2.946139885 -0.002569786742 0)
(2.945301704 -0.00170845254 0)
(3.372119692 0.4411480502 0)
(3.354442918 0.4376657161 0)
(3.310490086 0.4176926064 0)
(3.2291449 0.408640589 0)
(3.129073463 0.4050275296 0)
(3.050283129 0.402870739 0)
(3.008871713 0.3936893716 0)
(2.986578258 0.3913238004 0)
(2.97605416 0.3848229702 0)
(2.978145523 0.3865269446 0)
(2.990331622 0.3904205568 0)
(3.000566582 0.3933380563 0)
(3.00730389 0.3932565872 0)
(3.015824593 0.3848385039 0)
(3.020459557 0.3472163829 0)
(3.016691264 0.2708208649 0)
(2.980819743 0.127780184 0)
(2.951756488 0.03817055514 0)
(2.943636546 0.008749296033 0)
(2.94300558 0.003461210373 0)
(2.942130611 0.003322609789 0)
(2.942110688 0.003448930433 0)
(2.942173022 0.003653901972 0)
(2.942198065 0.004015454253 0)
(2.941754592 0.005352957486 0)
(2.941409656 0.003675218362 0)
(2.942239258 0.00307139511 0)
(2.943333067 -3.556362493e-05 0)
(2.943396967 -0.002388921243 0)
(2.942598253 -0.001978540049 0)
(2.942018363 -0.001298580534 0)
(3.373496769 0.4403369648 0)
(3.356502135 0.4376159356 0)
(3.312427593 0.4180437598 0)
(3.227422634 0.4104267447 0)
(3.123969494 0.4059387572 0)
(3.04629975 0.4043357938 0)
(3.007598492 0.3928095723 0)
(2.9865399 0.390968784 0)
(2.976392722 0.3848134838 0)
(2.978771545 0.3870150088 0)
(2.990320058 0.3908136626 0)
(2.999861938 0.3928732517 0)
(3.006882565 0.3912391957 0)
(3.014705814 0.3765376154 0)
(3.01835029 0.3354423464 0)
(2.993883585 0.2163589392 0)
(2.966638687 0.09424110471 0)
(2.945537632 0.02431795481 0)
(2.939795207 0.008693674577 0)
(2.938242746 0.004816564311 0)
(2.938573497 0.004081398242 0)
(2.938739798 0.003707588128 0)
(2.938856354 0.003460225493 0)
(2.938563246 0.004002958365 0)
(2.938143521 0.005308773428 0)
(2.937686667 0.003275900993 0)
(2.938294131 0.002057405699 0)
(2.938789393 -2.221937383e-05 0)
(2.939018804 -0.001967535676 0)
(2.938267893 -0.001257766506 0)
(2.93852571 -0.0005344932603 0)
(3.37187257 0.4378810105 0)
(3.356612597 0.4375449708 0)
(3.313076354 0.418541804 0)
(3.225572789 0.412921039 0)
(3.121573803 0.4080715962 0)
(3.043520771 0.4048817914 0)
(3.006863484 0.3921345905 0)
(2.98652624 0.3904329713 0)
(2.976729451 0.3848609963 0)
(2.979876305 0.3876352423 0)
(2.990112741 0.3910274697 0)
(2.998895364 0.3927225738 0)
(3.00679789 0.3894577542 0)
(3.013865957 0.3712051951 0)
(3.010223952 0.3038621171 0)
(2.987559629 0.1822901178 0)
(2.957121745 0.05984191968 0)
(2.940141414 0.01123815129 0)
(2.935223428 0.007547741072 0)
(2.934781318 0.006144219631 0)
(2.934946271 0.004630349304 0)
(2.934948648 0.004369491176 0)
(2.934834828 0.004073212143 0)
(2.934362165 0.004529927355 0)
(2.934289716 0.005418706058 0)
(2.934538589 0.003163976905 0)
(2.934784839 0.0007719564205 0)
(2.934509301 -0.001410725464 0)
(2.934637216 -0.002994326009 0)
(2.934245803 -0.001778885678 0)
(2.934279125 -0.0006273326542 0)
(3.368565434 0.4360779692 0)
(3.353779261 0.4368471441 0)
(3.311290785 0.4190541981 0)
(3.223556263 0.4135752057 0)
(3.122013982 0.4099832598 0)
(3.043925536 0.4051018771 0)
(3.007057669 0.3917505477 0)
(2.986557026 0.3901549534 0)
(2.97698164 0.3851003053 0)
(2.980778232 0.3882798962 0)
(2.989770825 0.3910255653 0)
(2.997862073 0.3926419427 0)
(3.006739025 0.3889037885 0)
(3.011331442 0.3618625988 0)
(3.003210666 0.2774023025 0)
(2.976557972 0.1396821212 0)
(2.947990162 0.03003182766 0)
(2.934033463 0.003331457114 0)
(2.930247181 0.004429148244 0)
(2.931338164 0.006780502925 0)
(2.931675136 0.005024359166 0)
(2.931666917 0.004949206614 0)
(2.931169658 0.004562500418 0)
(2.930163894 0.004899472954 0)
(2.929966476 0.005373675308 0)
(2.930759944 0.002985218012 0)
(2.931543282 -7.566620323e-07 0)
(2.93109145 -0.002294723654 0)
(2.93115046 -0.00372785978 0)
(2.930714019 -0.002420739299 0)
(2.930541476 -0.001219759439 0)
(3.363802574 0.4362339899 0)
(3.347139092 0.4348231816 0)
(3.307216818 0.4192551286 0)
(3.223245639 0.4159006235 0)
(3.123669055 0.4109711738 0)
(3.045814224 0.4052212784 0)
(3.007624379 0.3916208395 0)
(2.986725906 0.3902845951 0)
(2.977121692 0.3854523218 0)
(2.981468432 0.3885556564 0)
(2.989536145 0.3906705249 0)
(2.996745507 0.3912956383 0)
(3.005024993 0.3836069166 0)
(3.007713397 0.3463467777 0)
(2.994685938 0.2403664171 0)
(2.964172087 0.1003178628 0)
(2.938514848 0.02581385438 0)
(2.927621894 0.005741331423 0)
(2.927280507 0.003630692835 0)
(2.92724415 0.004281324314 0)
(2.927951694 0.005505281061 0)
(2.928113633 0.00513725836 0)
(2.927625962 0.00428195809 0)
(2.926651717 0.004905199144 0)
(2.925911647 0.005238447997 0)
(2.926543394 0.002963281467 0)
(2.927603795 -0.0004123292258 0)
(2.92788353 -0.003231541426 0)
(2.927936163 -0.004702677385 0)
(2.927080472 -0.003282623863 0)
(3.356255396 0.4374011102 0)
(3.338353825 0.4320979087 0)
(3.301658221 0.4197738861 0)
(3.224086974 0.4175862723 0)
(3.125783326 0.4116945103 0)
(3.048592609 0.405033651 0)
(3.009026193 0.3914976634 0)
(2.987092171 0.3904625928 0)
(2.977053182 0.3856203873 0)
(2.98160989 0.3885846806 0)
(2.989211212 0.3898112034 0)
(2.995897721 0.3894197509 0)
(3.003919981 0.3758324324 0)
(3.004199026 0.3189947861 0)
(2.989085434 0.2120150648 0)
(2.955538949 0.06690552752 0)
(2.930063522 0.02106500493 0)
(2.923008278 0.006839192687 0)
(2.924109607 0.003258233315 0)
(2.924257585 0.003292258373 0)
(2.924287813 0.003839918666 0)
(2.923694063 0.004290516041 0)
(2.923472718 0.003958854946 0)
(2.923126619 0.004458099173 0)
(2.922671173 0.004844828347 0)
(2.923376711 0.003077823003 0)
(2.923551608 -9.0762093e-05 0)
(2.923793328 -0.003289798283 0)
(2.923930525 -0.004801663265 0)
(2.923325226 -0.003470731695 0)
(3.348620487 0.4385333343 0)
(3.330004256 0.4316753023 0)
(3.295592366 0.4196699103 0)
(3.224289984 0.4191365236 0)
(3.126950089 0.412745674 0)
(3.051273617 0.4047606719 0)
(3.011117727 0.3911188338 0)
(2.987777719 0.3904683715 0)
(2.977132599 0.3855910657 0)
(2.981381151 0.3883828061 0)
(2.988394659 0.389738062 0)
(2.995233332 0.3869432757 0)
(3.002878536 0.3659884148 0)
(3.002806721 0.3063251253 0)
(2.974201549 0.1569174287 0)
(2.947772246 0.0658785091 0)
(2.923411675 0.01214791887 0)
(2.920147383 0.006353565824 0)
(2.920082033 0.004696392659 0)
(2.921117342 0.003326919198 0)
(2.921093929 0.003401260344 0)
(2.920570095 0.003423664022 0)
(2.920013234 0.003007356853 0)
(2.919082968 0.004062509777 0)
(2.919213067 0.004668440713 0)
(2.920505356 0.003071196911 0)
(2.920731306 0.0005779942755 0)
(2.920541388 -0.002724703192 0)
(2.920634357 -0.004092323628 0)
(2.920054302 -0.002803830465 0)
(3.341992785 0.4381801121 0)
(3.322622228 0.4330029578 0)
(3.290719137 0.4207320858 0)
(3.223690795 0.4210368818 0)
(3.129083534 0.4135496967 0)
(3.053918983 0.4043452825 0)
(3.013219572 0.3906562411 0)
(2.988686529 0.3906368092 0)
(2.977669115 0.3861063623 0)
(2.980934102 0.3882282309 0)
(2.987177732 0.3890072487 0)
(2.994563184 0.3859926583 0)
(3.00163883 0.3621549949 0)
(2.989691059 0.2620968944 0)
(2.966274815 0.1494079407 0)
(2.931089529 0.04805745949 0)
(2.918489276 0.007078959698 0)
(2.916823515 0.005813317332 0)
(2.91688732 0.00577809237 0)
(2.917076667 0.004017638476 0)
(2.917266607 0.003675011177 0)
(2.917455297 0.003321242422 0)
(2.916939791 0.002959205881 0)
(2.915865014 0.004171478316 0)
(2.915616076 0.003869765671 0)
(2.917137154 0.003158978133 0)
(2.917678621 0.0006889538185 0)
(2.917469526 -0.002293116913 0)
(2.917461566 -0.003484962412 0)
(2.916966638 -0.002159728118 0)
(3.335924085 0.4357279844 0)
(3.31667901 0.4333321945 0)
(3.286150836 0.4219579389 0)
(3.222860927 0.4223628576 0)
(3.131292572 0.4141470994 0)
(3.056908908 0.4041329402 0)
(3.015464383 0.3902075508 0)
(2.98976015 0.3910878277 0)
(2.978113758 0.3865508428 0)
(2.980528782 0.3876907967 0)
(2.986056461 0.3879267396 0)
(2.99365959 0.382836535 0)
(2.994886068 0.3401131828 0)
(2.983473729 0.2426100955 0)
(2.948741111 0.1134041375 0)
(2.919774467 0.02737579031 0)
(2.914212394 0.003345005502 0)
(2.912890801 0.003372186817 0)
(2.913310635 0.005227236955 0)
(2.913443341 0.004863698408 0)
(2.913336136 0.004186483285 0)
(2.913260642 0.003788345501 0)
(2.913314424 0.003399226888 0)
(2.913145161 0.004629617708 0)
(2.912984102 0.003575025258 0)
(2.913610988 0.002394339136 0)
(2.913712157 0.0004778295945 0)
(2.9140692 -0.00218933034 0)
(2.914221238 -0.003317456828 0)
(2.913937727 -0.002102873948 0)
(3.331682157 0.4347472655 0)
(3.312429123 0.4320607838 0)
(3.2828558 0.4236611908 0)
(3.22177291 0.423142598 0)
(3.133249431 0.4150519289 0)
(3.059978815 0.403831293 0)
(3.017738186 0.3899140069 0)
(2.991068424 0.3916400939 0)
(2.978708953 0.3868603332 0)
(2.9801772 0.3873031442 0)
(2.984891104 0.3855214397 0)
(2.991295462 0.3728613566 0)
(2.991421423 0.3197351967 0)
(2.971737737 0.1963733417 0)
(2.93542568 0.06767116631 0)
(2.914362194 0.01325788562 0)
(2.909411502 0.003289724359 0)
(2.909575667 0.002249117745 0)
(2.909136328 0.004049501352 0)
(2.910037956 0.004916408199 0)
(2.910104417 0.004960052226 0)
(2.909622457 0.00440749639 0)
(2.909748993 0.003811063434 0)
(2.909955531 0.004982141576 0)