/*--------------------------------*- C++ -*----------------------------------*\
  =========                 |
  \\      /  F ield         | OpenFOAM: The Open Source CFD Toolbox
   \\    /   O peration     | Website:  https://openfoam.org
    \\  /    A nd           | Version:  7
     \\/     M anipulation  |
\*---------------------------------------------------------------------------*/
FoamFile
{
    version     2.0;
    format      ascii;
    class       volScalarField;
    location    "3";
    object      T;
}
// * * * * * * * * * * * * * * * * * * * * * * * * * * * * * * * * * * * * * //

dimensions      [0 0 0 1 0 0 0];

internalField   nonuniform List<scalar> 
2222
(
1.384257609
1.372260072
1.360867997
1.349995098
1.339700609
1.329913334
1.320438094
1.310786635
1.300548779
1.289807783
1.278938989
1.268517338
1.25917005
1.251090584
1.243828288
1.236730446
1.229353476
1.221398929
1.21281805
1.203771753
1.194585491
1.185608275
1.177271017
1.169745813
1.162924846
1.156560313
1.15039464
1.144115184
1.137565254
1.130467684
1.123713622
1.11233023
1.388375355
1.376188608
1.364683377
1.35372595
1.343435062
1.333679729
1.324252911
1.314700117
1.304539094
1.293777335
1.282867597
1.272362193
1.262885093
1.2546323
1.247232654
1.2400421
1.232594119
1.224607035
1.216019268
1.206986971
1.197841609
1.188954232
1.180709337
1.173236557
1.166408115
1.159975417
1.153687767
1.14728653
1.140638041
1.133451981
1.126666225
1.115282676
1.385347723
1.372658564
1.361232618
1.350927764
1.340999623
1.331031239
1.321347375
1.311783965
1.301780427
1.291186218
1.280489215
1.270006203
1.260337407
1.251765491
1.244117323
1.23685603
1.22946869
1.221644061
1.213271331
1.204390954
1.195277709
1.186360211
1.178091499
1.170618607
1.163809648
1.157395501
1.151117258
1.144731981
1.138104083
1.130966984
1.124228273
1.112929642
1.385601327
1.372356889
1.360605541
1.350808459
1.341517087
1.331521107
1.321592639
1.311939388
1.302014887
1.291480471
1.280709976
1.270216329
1.260570672
1.251891421
1.244056083
1.236677497
1.229225843
1.221409769
1.21313075
1.204369165
1.195347364
1.186484754
1.178238826
1.170769119
1.163961533
1.157544456
1.151250366
1.144840324
1.138172669
1.131007542
1.124255296
1.112982716
1.387128546
1.37371039
1.361636784
1.350628658
1.340741176
1.332181619
1.322791194
1.313103359
1.303279852
1.292953305
1.282253162
1.271921577
1.262225148
1.253183259
1.244901551
1.237266795
1.229740728
1.22201671
1.213924379
1.205329565
1.196389156
1.187514066
1.179203802
1.171675714
1.164850907
1.158438613
1.152133578
1.145678698
1.138933689
1.131712238
1.124971157
1.113786151
1.391252135
1.377888665
1.364224682
1.351152701
1.340471894
1.332750915
1.325638395
1.316695374
1.307164903
1.297124171
1.286335002
1.275871262
1.265933636
1.256590689
1.247957205
1.240028383
1.232442252
1.224908114
1.217104032
1.208726291
1.199836242
1.190927108
1.182553717
1.174961092
1.168096104
1.16164884
1.15527953
1.14871083
1.141817502
1.134474514
1.127772048
1.116804268
1.387742075
1.374657356
1.362399618
1.351099184
1.341187512
1.332230119
1.323154971
1.31404679
1.304538132
1.294649462
1.283810807
1.273266565
1.263335748
1.254076493
1.245330023
1.237065749
1.229305136
1.221711741
1.21387038
1.205630444
1.197057621
1.188470576
1.180293672
1.17270574
1.165754251
1.159198409
1.152733625
1.146110225
1.13916967
1.131800192
1.125220674
1.114475784
1.388508617
1.37533242
1.363104485
1.352254392
1.342207426
1.332511769
1.323394382
1.314656364
1.30530615
1.295318366
1.284896929
1.274240857
1.264146193
1.254896041
1.246249613
1.237998649
1.230316287
1.222755477
1.214745624
1.206309627
1.197684047
1.189159228
1.181074929
1.173549563
1.166610359
1.160046521
1.15354089
1.146851729
1.139861911
1.132388776
1.125752942
1.114993119
1.389330624
1.376164279
1.363750189
1.353621573
1.344518944
1.334713824
1.325091139
1.315794414
1.305966133
1.295504076
1.286751198
1.277301367
1.267262241
1.25797411
1.249411263
1.241034057
1.233159633
1.225542434
1.217390829
1.208834671
1.200283091
1.191941779
1.18397776
1.176544764
1.169577999
1.162914926
1.156229738
1.149332286
1.142260258
1.134726947
1.128064366
1.117409717
1.389357132
1.37649095
1.364637939
1.353579947
1.343222082
1.333965371
1.325017937
1.315602172
1.305916164
1.296161779
1.285238052
1.274573159
1.264671936
1.255409175
1.246714689
1.238287021
1.23001743
1.222107414
1.214369946
1.205998713
1.197507338
1.189300766
1.181608583
1.17441878
1.167296659
1.160368782
1.153609448
1.146709047
1.139725949
1.132290636
1.125548312
1.114891262
1.389203093
1.376576944
1.365087575
1.354231473
1.344096352
1.334692242
1.325364411
1.31585945
1.306105671
1.295885282
1.285121967
1.27475748
1.265256889
1.256188134
1.247413807
1.238986764
1.230527728
1.221943096
1.21426314
1.206524098
1.198343253
1.189824969
1.181831356
1.174663731
1.167970534
1.161089969
1.154209332
1.147194935
1.140139817
1.13279389
1.12609988
1.115520741
1.389389626
1.376810256
1.365517951
1.35504879
1.345072699
1.335233383
1.325460238
1.31547443
1.305190517
1.295134837
1.285596314
1.275620084
1.265617664
1.256325293
1.24760878
1.239584953
1.231508986
1.222698526
1.214155479
1.207830898
1.200829142
1.192516255
1.183107405
1.174901567
1.169157709
1.163216427
1.156383505
1.149340442
1.142254468
1.135103
1.128601259
1.118019674
1.388066736
1.37691734
1.36615138
1.356026985
1.34618938
1.336094914
1.325595321
1.314789578
1.304538937
1.294679262
1.284957076
1.275550932
1.266151525
1.25721008
1.248717101
1.240535088
1.231751821
1.223224165
1.214821731
1.205645371
1.197384257
1.190369009
1.183371852
1.176040254
1.168654034
1.16090456
1.153633756
1.146561633
1.139391517
1.131944383
1.125709166
1.115752183
1.386508182
1.378085931
1.368771173
1.359106321
1.349353911
1.338811776
1.326840477
1.315047027
1.304107679
1.293595957
1.28370247
1.275222849
1.267785027
1.259851747
1.251581463
1.24192244
1.232476927
1.223749294
1.214770569
1.205505878
1.196947284
1.190102395
1.184864471
1.178242051
1.169317431
1.161130841
1.153846423
1.146735682
1.13961611
1.132100836
1.125711929
1.115505414
1.385534724
1.374534442
1.364468687
1.354764623
1.345019404
1.334966262
1.324718574
1.314252135
1.303581148
1.293228194
1.283617204
1.2742197
1.264611204
1.255903866
1.248289006
1.241059525
1.233019013
1.224428591
1.215345926
1.206010297
1.197472235
1.189880525
1.182226015
1.175220713
1.168687209
1.161730509
1.15466292
1.147572525
1.140450147
1.132889687
1.126443651
1.116388309
1.384054264
1.373206623
1.3633436
1.353659952
1.343825404
1.33394607
1.32409752
1.314002644
1.304077846
1.294140637
1.283725513
1.273323256
1.263759568
1.255020832
1.247241894
1.241080115
1.234683761
1.22642282
1.217480003
1.208126953
1.19830957
1.189618811
1.181911998
1.174673519
1.168752083
1.163311479
1.156773703
1.149779596
1.142650536
1.135294979
1.128727277
1.118523535
1.383984767
1.372962843
1.36264979
1.352775848
1.343027703
1.333072445
1.322735695
1.312125651
1.301586329
1.291497111
1.281661763
1.272004462
1.263041829
1.254783581
1.247239141
1.239539689
1.231130267
1.222363057
1.213486197
1.205222635
1.197358987
1.189257731
1.181698518
1.174860684
1.167840501
1.16068317
1.153744453
1.146860133
1.139837137
1.13271853
1.126395855
1.116033876
1.385525552
1.373391094
1.362109404
1.351907732
1.342109672
1.332048677
1.321564161
1.310841247
1.300286856
1.290304688
1.280542873
1.270975498
1.262292442
1.254507514
1.246728483
1.238417696
1.230019288
1.221509747
1.212655451
1.204221756
1.196954597
1.18948638
1.181755692
1.174794029
1.167880634
1.161033799
1.154077543
1.146869435
1.139591753
1.132465471
1.126524205
1.116383129
1.380107665
1.369931323
1.360263646
1.35069747
1.341092293
1.331299471
1.321134752
1.310432684
1.299506701
1.289077269
1.279412646
1.270165853
1.261728709
1.253943338
1.245880695
1.237640306
1.22932998
1.221348124
1.213562707
1.204878168
1.196234724
1.188132562
1.180499762
1.173862614
1.168904598
1.163068304
1.156143507
1.148167142
1.140124251
1.13238773
1.126630207
1.117674631
1.378875315
1.368872404
1.35921075
1.349569967
1.339924262
1.330191735
1.320194802
1.309633952
1.298525968
1.28760781
1.277964099
1.269648409
1.261677038
1.253885667
1.245907809
1.237475779
1.228742025
1.219846625
1.211321221
1.203715307
1.19582359
1.188051601
1.180542783
1.173696022
1.166690839
1.159875621
1.153467751
1.146892584
1.139906135
1.132628765
1.125909287
1.114982474
1.378318047
1.36817748
1.358453878
1.34890345
1.339223543
1.329191502
1.319296833
1.309389243
1.298589601
1.287010813
1.276785871
1.269335887
1.262782972
1.25515515
1.247277116
1.238434216
1.228369198
1.219014615
1.21022753
1.203036759
1.196574503
1.189433157
1.182303962
1.174753801
1.166354513
1.15888669
1.152686896
1.147273884
1.140945396
1.133106862
1.125562165
1.114989124
1.377439182
1.366922451
1.35712571
1.347477042
1.337692202
1.327455164
1.316991081
1.306488316
1.296043093
1.285762588
1.276314506
1.268079791
1.259394003
1.250887878
1.242796584
1.235310171
1.227544816
1.218878602
1.210423483
1.201521317
1.193154916
1.185882987
1.179004793
1.171932231
1.164935532
1.158337981
1.151630482
1.144369663
1.137285259
1.130633597
1.125738989
1.116373155
1.376466162
1.365409549
1.355428406
1.345628678
1.335892681
1.325871904
1.315140125
1.304209895
1.293884124
1.2849803
1.276389464
1.267088319
1.258497139
1.250450314
1.242312993
1.234060544
1.227325377
1.219931398
1.210702235
1.201337841
1.193193686
1.185953284
1.178950591
1.171907995
1.165093222
1.158421226
1.15145032
1.144146721
1.13693675
1.130229311
1.123454635
1.113214658
1.376571621
1.364654858
1.353837225
1.343853021
1.334008285
1.324193137
1.313744409
1.303405388
1.293411956
1.283613548
1.274287589
1.265615774
1.258261439
1.251554016
1.243506108
1.234484473
1.225421257
1.216634079
1.2086479
1.201815261
1.194429295
1.187119162
1.180036907
1.173218191
1.166620737
1.159778369
1.152621817
1.145395536
1.138122012
1.1299156
1.12293077
1.113274491
1.377895704
1.3645828
1.352455502
1.342091091
1.332276056
1.32274758
1.312993261
1.302976316
1.293023913
1.283187242
1.273712896
1.265207512
1.256686365
1.248073768
1.240638592
1.233411422
1.225149415
1.216612171
1.208489429
1.199378551
1.1907348
1.183051677
1.175960376
1.169302979
1.162907468
1.156292862
1.149133528
1.141791818
1.134796179
1.12771778
1.123277563
1.114725028
1.371377106
1.362763192
1.351121584
1.340139374
1.329961597
1.320292333
1.312317761
1.303998507
1.294408809
1.284660537
1.274825679
1.26467966
1.255547932
1.246942301
1.239193808
1.232887186
1.226158386
1.217869374
1.208254165
1.198659269
1.190287864
1.182531082
1.17563466
1.16923461
1.162910211
1.156311957
1.149159816
1.14165418
1.134451728
1.127450096
1.120948437
1.111380499
1.367811054
1.36160943
1.350239328
1.338320285
1.327636467
1.317991566
1.308522258
1.298838553
1.28913496
1.279291162
1.270112501
1.26208452
1.254167152
1.246464513
1.238905745
1.230610045
1.222110284
1.213656436
1.205569615
1.199117384
1.191621691
1.183717903
1.176923059
1.170604207
1.164120196
1.157424361
1.15034913
1.142837183
1.135293498
1.127224906
1.120584538
1.111136888
1.354910003
1.353901421
1.347320931
1.336687769
1.325627265
1.315381707
1.305854368
1.296489535
1.287040863
1.277588133
1.268785232
1.261002002
1.253494553
1.245972307
1.238196082
1.229883799
1.221260349
1.212632609
1.203973965
1.195144576
1.186992494
1.179594669
1.173320429
1.167346419
1.160745908
1.154008056
1.147011637
1.139549215
1.132254195
1.126146232
1.121451219
1.112357541
1.319949235
1.34820241
1.344182994
1.335067259
1.324394566
1.3139012
1.304127078
1.29480846
1.285583998
1.276902828
1.26847295
1.260218738
1.253312536
1.246634403
1.238941147
1.230871418
1.221805354
1.211791475
1.202403106
1.193750279
1.185881634
1.178561869
1.171889015
1.166125346
1.160146557
1.153775298
1.146976031
1.139548929
1.132209155
1.124902819
1.11816853
1.108476933
1.235073839
1.325147882
1.338197601
1.333126069
1.323841444
1.313222747
1.303062412
1.29351815
1.28441732
1.275571248
1.266991437
1.25866802
1.250271299
1.241786662
1.23355822
1.225447636
1.217402864
1.209444552
1.201306759
1.193111702
1.185350309
1.178375737
1.171471454
1.164737716
1.159817571
1.154601733
1.148016227
1.140703014
1.132926933
1.124002954
1.116934999
1.107199663
1.136689458
1.256603167
1.326103178
1.327838936
1.321836393
1.312979486
1.303006943
1.29287619
1.283391091
1.27424278
1.265442154
1.256815038
1.248322509
1.240081571
1.231883127
1.223630404
1.215621181
1.207852843
1.200025465
1.191993023
1.184353766
1.177614645
1.171058604
1.164130045
1.157159491
1.150378171
1.143826016
1.13703841
1.12991114
1.12247552
1.116248188
1.107161577
1.073533611
1.166142353
1.284320977
1.318494188
1.315451209
1.307915822
1.298954965
1.290061869
1.281257806
1.272560786
1.2641079
1.255538702
1.24677461
1.238139028
1.229640543
1.221523796
1.213773193
1.206069729
1.198592927
1.190978413
1.1835996
1.176336914
1.16907354
1.162338273
1.155630366
1.148956634
1.142529602
1.136102002
1.129296499
1.122246508
1.116031858
1.106471601
1.052493093
1.085321402
1.19873167
1.292315297
1.309906103
1.306077582
1.297982264
1.288581331
1.278847463
1.269844678
1.261623338
1.253452939
1.245003506
1.236409996
1.227956113
1.220075465
1.21270373
1.205254368
1.197900758
1.190821446
1.18306026
1.174957354
1.167735943
1.161262184
1.154749411
1.148086367
1.14123278
1.13467768
1.129098775
1.123019865
1.116273791
1.105746476
1.0423227
1.048455613
1.107568042
1.226976718
1.299117345
1.302456486
1.297365482
1.287963709
1.277327428
1.268021332
1.259765104
1.251538139
1.243204665
1.234862109
1.22666694
1.218919016
1.211408999
1.203683308
1.195925067
1.188430932
1.181192755
1.174206935
1.167547023
1.160934916
1.154384759
1.147902113
1.141223388
1.134283954
1.127042912
1.119779117
1.113773954
1.104106473
1.036000456
1.035897695
1.050071214
1.14035021
1.257221136
1.294434599
1.292034472
1.285090951
1.276129332
1.267015248
1.258188156
1.249535857
1.241574676
1.233984694
1.226275817
1.218447163
1.210252413
1.201947902
1.194050484
1.186654514
1.179670286
1.172927836
1.166246291
1.15952102
1.152741007
1.145941604
1.139211185
1.132438927
1.125592656
1.118741925
1.11281071
1.10300333
1.03148214
1.02827463
1.02985051
1.063694265
1.175623924
1.269373167
1.287050905
1.283056094
1.275545783
1.266078044
1.256219681
1.247463499
1.239237232
1.230971647
1.222753746
1.214915822
1.207569446
1.200284913
1.19287301
1.185644881
1.178578419
1.171512541
1.164474359
1.157513603
1.150728733
1.144151124
1.13764132
1.130852501
1.123819086
1.117101262
1.111997052
1.103217435
1.027621778
1.023221459
1.02024288
1.026362625
1.087929062
1.206751268
1.276017243
1.277356076
1.272508148
1.263457817
1.253825052
1.245084874
1.236606866
1.228288115
1.220411381
1.212953554
1.205896142
1.198925005
1.191738481
1.18442222
1.177027463
1.169788504
1.163085319
1.156673711
1.150201445
1.143669258
1.137093737
1.130404025
1.123608488
1.116797744
1.110947516
1.101273914
1.023845126
1.018937893
1.013911755
1.013168451
1.028982072
1.120686734
1.236372259
1.27070102
1.268185166
1.26123056
1.25216179
1.243243496
1.234923815
1.227142962
1.219805249
1.212535351
1.205194237
1.197776354
1.190164869
1.182723976
1.175745275
1.168921679
1.162044788
1.155230611
1.148476131
1.141788382
1.135143784
1.128604764
1.122158096
1.115653331
1.109819767
1.099993123
1.01913158
1.015493048
1.009700902
1.005203824
1.006954692
1.043354201
1.156454651
1.248546979
1.262004786
1.258096374
1.250466999
1.24118579
1.232601886
1.22474947
1.217034947
1.209438483
1.202063951
1.1949871
1.188292217
1.181619909
1.174694739
1.167369157
1.159995221
1.153052129
1.14643265
1.139881167
1.133306571
1.126749719
1.120301118
1.114146062
1.109036918
1.100130782
1.013939501
1.011455396
1.005961677
0.999435072
0.9971329685
1.004490785
1.069742605
1.189471247
1.250708827
1.251168696
1.246685254
1.238426355
1.229824519
1.221996299
1.214258023
1.206660546
1.199584216
1.193005782
1.186120007
1.178992062
1.172185963
1.165911957
1.159380719
1.152415153
1.145508646
1.138934171
1.132629315
1.126351803
1.120085419
1.113549327
1.107662765
1.098469072
1.008983618
1.006672658
1.002700065
0.995555564
0.9911317081
0.9917182163
1.010789822
1.105783223
1.216339491
1.245435183
1.242917713
1.236482735
1.228242012
1.219403287
1.211401413
1.204617843
1.197993436
1.190920463
1.18390346
1.177604387
1.17133499
1.164273958
1.157094588
1.150237737
1.143736123
1.137373387
1.131170827
1.124841677
1.118526234
1.11212662
1.106157691
1.096740994
1.004795765
1.001761377
0.9986949941
0.9924178486
0.986150204
0.984140809
0.9876666044
1.027974601
1.143185811
1.227405124
1.238261432
1.234876989
1.227435674
1.218003263
1.209844192
1.202920597
1.1959239
1.188974651
1.182515128
1.175812774
1.168793751
1.161658422
1.154687092
1.148253431
1.142078976
1.135677683
1.12942879
1.123090445
1.116738204
1.110338279
1.104843349
1.096157728
1.000578868
0.9971214725
0.9938237098
0.989101423
0.9826552234
0.9792077213
0.9793662431
0.9887312005
1.060642087
1.175698288
1.227814252
1.22772976
1.223214373
1.216901352
1.210081755
1.202366835
1.194964692
1.18780363
1.18018027
1.172884946
1.166465989
1.16048586
1.154035284
1.147124751
1.140391036
1.134129034
1.128364849
1.122469006
1.116362769
1.109733161
1.104697437
1.095665743
0.9962412955
0.992994083
0.9891599375
0.9850257559
0.9800376555
0.975468347
0.9735797025
0.9749143047
0.9982809859
1.099104238
1.199348758
1.221295073
1.218429623
1.212557295
1.205293613
1.198018308
1.190982653
1.184132112
1.1773574
1.170952933
1.164467237
1.157804358
1.150816486
1.144019383
1.137419102
1.131706568
1.126085459
1.12062115
1.114913448
1.108781383
1.103546785
1.094167205
0.9920183761
0.9890836441
0.9849422984
0.9801852913
0.9765410944
0.9722412973
0.9688272916
0.9676843661
0.9725085752
1.020078651
1.134887489
1.211135522
1.215965639
1.212255384
1.204845051
1.197090616
1.189492526
1.182000468
1.174840209
1.168128448
1.161508883
1.154871157
1.148273428
1.142270574
1.135913564
1.130335279
1.124265698
1.118887974
1.113520236
1.108841486
1.103328993
1.093220273
0.9875500919
0.9847847818
0.9809799319
0.9756213669
0.972497486
0.9696180297
0.9656183432
0.9623885338
0.9627524025
0.9751957846
1.05592394
1.167596289
1.20953383
1.209115417
1.205350124
1.198300304
1.189911078
1.18161912
1.173789326
1.166592735
1.159972901
1.153852571
1.147750053
1.141149505
1.134663736
1.128701664
1.122681277
1.117025062
1.110535534
1.104306642
1.098455627
1.09007593
0.9837749499
0.9806719031
0.9771371015
0.9718609516
0.9680534496
0.9660059091
0.9625634499
0.9578655444
0.9559799914
0.9579987958
0.9892624281
1.096580196
1.186142591
1.203868854
1.200730303
1.194077762
1.186358798
1.178153627
1.170354709
1.16339245
1.157219934
1.150933115
1.144709769
1.138456678
1.133060203
1.127198602
1.12093718
1.114105188
1.107136899
1.100916945
1.095583375
1.089712139
0.9798648062
0.9764571982
0.972861537
0.9681169484
0.9640099083
0.9619017921
0.9595366364
0.9545801724
0.9506898459
0.9505917605
0.9578874497
1.017025626
1.131906324
1.197018039
1.19728032
1.193725717
1.186307796
1.177250428
1.168593461
1.160555103
1.153684681
1.147238974
1.142354786
1.137308923
1.131977328
1.125099525
1.118976622
1.111664784
1.105518044
1.099700867
1.096244246
1.092478776
0.9756840988
0.9722914313
0.9685334442
0.9641605677
0.9604268525
0.9576883338
0.9557043147
0.951690214
0.9462365207
0.9447079322
0.9459878252
0.9643394864
1.057416193
1.161361633
1.193932865
1.192650956
1.187032057
1.177818794
1.168502731
1.159904569
1.152891735
1.145771508
1.139588877
1.132973337
1.127275077
1.120764106
1.116028993
1.109823917
1.106023016
1.100356256
1.099975006
1.11331878
0.9717127107
0.9684731767
0.9644914448
0.9599263028
0.9566752501
0.9536128021
0.9513280974
0.9482972375
0.9430009673
0.9397200661
0.9395987195
0.9435220559
0.9864248943
1.095930226
1.176605675
1.187109764
1.184017065
1.176869242
1.168062217
1.158964962
1.151256232
1.143475808
1.136670106
1.129674305
1.123971115
1.118702311
1.114892825
1.110350714
1.107746424
1.111590712
1.124739005
1.167149571
0.9671363712
0.9640223329
0.9601190227
0.9553288626
0.9525270954
0.9497963918
0.9471241175
0.9441890602
0.940123822
0.9358300081
0.9347657838
0.9354431393
0.9467064594
1.021216184
1.131346924
1.179529109
1.178479547
1.174150383
1.166963322
1.158121706
1.150406939
1.142106732
1.135036272
1.128941826
1.124120101
1.119621408
1.116030751
1.119682856
1.132971349
1.158667916
1.186182485
1.20977596
0.962660295
0.9595934079
0.9558725767
0.9511240245
0.9481217532
0.9456793839
0.9428105781
0.9393532188
0.9361897433
0.932549442
0.9300509595
0.9295112474
0.9315883774
0.9596984904
1.06068938
1.158033993
1.173045394
1.169319314
1.162638994
1.154506967
1.148176997
1.141980448
1.135977684
1.130361157
1.12585997
1.128365359
1.141160259
1.168541872
1.199468122
1.221575228
1.230407486
1.22722707
0.957800959
0.9548309074
0.9512658683
0.9467105142
0.943489493
0.9413285332
0.9386578059
0.9350153212
0.9319010449
0.929594115
0.9266311821
0.9249264985
0.9246760052
0.9311510803
0.9870387705
1.101524441
1.164462864
1.163035284
1.159642644
1.154842047
1.149061542
1.143243132
1.138044907
1.140402585
1.154116703
1.178231576
1.206485957
1.224060973
1.234335357
1.238654663
1.237583121
1.232594344
0.9530081525
0.9500890367
0.9466586556
0.9423723412
0.9392821923
0.9370026786
0.9347624592
0.9311488819
0.9277299568
0.9261102445
0.9237316603
0.9210790177
0.9186586395
0.9189936601
0.9366326594
1.025432271
1.134687312
1.15646163
1.159265926
1.157390377
1.152357337
1.154486169
1.16617015
1.191527215
1.217905614
1.240514085
1.253909687
1.251608179
1.246739867
1.24232342
1.239491384
1.234956181
0.9479040208
0.9450378263
0.9416378391
0.9376118681
0.9345812543
0.9320229326
0.9299103264
0.9266187732
0.9228630127
0.9212187358
0.9195576823
0.9161525375
0.9115751581
0.910526716
0.915342728
0.9579342749
1.071653416
1.153771616
1.166207131
1.173904007
1.187107261
1.211045899
1.239798275
1.264530515
1.26334945
1.262865165
1.263483759
1.261720516
1.255163459
1.247264322
1.242749385
1.237534081
0.9424753014
0.9398444448
0.9366232911
0.9327462044
0.9298921437
0.9273912615
0.9251589403
0.9222495501
0.9187038409
0.9169112825
0.9152562121
0.9120217477
0.9063391009
0.9060131052
0.9079357148
0.9249083931
1.011281912
1.14421135
1.200753844
1.224964742
1.249790718
1.266897436
1.276322758
1.281229332
1.278225114
1.272702392
1.267586188
1.263270918
1.25926924
1.252534333
1.246829613
1.240455727
0.9375622654
0.9350311204
0.9320285856
0.9281322216
0.9255389415
0.9231988786
0.9210039214
0.9179558429
0.9149651176
0.9123268889
0.9101483575
0.9073869036
0.9032358129
0.9033632333
0.9050434305
0.9150651149
0.9644605292
1.122880087
1.226374822
1.284094295
1.300471832
1.297103029
1.288393414
1.28679978
1.284118883
1.278672139
1.272070277
1.266210796
1.262465808
1.257514969
1.251673777
1.243977796
0.9318409282
0.929304339
0.9262970928
0.9226689704
0.9199580226
0.917837511
0.9153980753
0.9119222758
0.908535342
0.9061167503
0.9040073868
0.9034237623
0.9027579049
0.9052862689
0.9203162622
0.9523660561
1.003375533
1.083511486
1.207162791
1.295144789
1.306723773
1.305150806
1.296967506
1.291894243
1.28828289
1.282767753
1.276502116
1.270194529
1.26609136
1.261717181
1.256412352
1.248027224
0.9259166358
0.9234867725
0.9207109174
0.9171240283
0.9147005928
0.9127601174
0.9099408668
0.906052195
0.9033753163
0.903155836
0.9025323898
0.9028171831
0.9082358748
0.9286133847
0.9673411074
1.007346866
1.031159324
1.055984219
1.149485527
1.262054784
1.293204205
1.301632583
1.300937778
1.296005468
1.290929101
1.285638907
1.280615799
1.274817737
1.270024917
1.265582696
1.260799523
1.252495161
0.9210481145
0.918705079
0.9161883931
0.9127987607
0.9104092665
0.9080249629
0.9050930634
0.9006115013
0.8998402468
0.9006242324
0.9022818071
0.9106438531
0.941225293
0.9825635436
1.008668102
1.026937095
1.034817531
1.041766053
1.085287126
1.184138711
1.26585371
1.300813861
1.303484177
1.300544038
1.29444337
1.288378076
1.28419802
1.279209222
1.273379552
1.268712886
1.264804019
1.257132966
0.9151145654
0.9129348933
0.9102421302
0.9067869313
0.9036521952
0.9011837007
0.8986100462
0.8977119685
0.898133592
0.901451913
0.9178315522
0.9508726095
0.9944856924
1.027885041
1.037620011
1.038316439
1.037326647
1.038043736
1.049529585
1.104291601
1.217340589
1.291162198
1.300784475
1.299216124
1.296620119
1.291114245
1.285865388
1.281842032
1.276382401
1.271896702
1.268712782
1.261799895
0.9093238882
0.9071329759
0.9040235273
0.9004284347
0.8985025026
0.8974178024
0.8965290958
0.8968472712
0.9029175921
0.9247419643
0.965610655
1.007605488
1.021020496
1.031881118
1.040439329
1.040319181
1.039697547
1.038744102
1.039757724
1.056321063
1.139295217
1.243966587
1.282962354
1.29662942
1.295997055
1.29241257
1.28714982
1.283755373
1.279606265
1.275600179
1.272348426
1.265710467
0.9050846574
0.9026457355
0.8990491777
0.8953331245
0.8951526099
0.8952851289
0.8963941439
0.9056047445
0.935355243
0.9789331081
1.012261959
1.035909492
1.036874913
1.035734538
1.037756123
1.03944099
1.039581754
1.038943356
1.038612075
1.041279486
1.070433089
1.169448856
1.269598088
1.295948702
1.293909054
1.292212223
1.289143762
1.286202604
1.282816881
1.278514548
1.274624138
1.268232646
0.8986587516
0.8960963955
0.8927422711
0.8922076806
0.8926704139
0.896630326
0.9121234652
0.9487119045
0.9942122119
1.028095334
1.031922213
1.037176049
1.038423836
1.037959688
1.038148704
1.038964098
1.038871518
1.038535111
1.038044168
1.038186041
1.043462365
1.09676633
1.213961214
1.275438524
1.284599957
1.292318678
1.291742601
1.288197775
1.284189121
1.279753724
1.276011378
1.270068046
0.8931758441
0.8919526469
0.890916491
0.8913239549
0.8972607503
0.9232571864
0.9611941721
0.9989222961
1.017788344
1.032739007
1.033341365
1.034873885
1.036771546
1.038170177
1.038460334
1.03844663
1.038255975
1.038060829
1.037732274
1.037567966
1.037926119
1.053284271
1.125653026
1.227726145
1.281149397
1.294193119
1.293057693
1.289641544
1.284754394
1.280737198
1.277471707
1.271665159
0.8906143692
0.8904634199
0.8916604898
0.9025489172
0.9318965472
0.9791381397
1.017029771
1.03201015
1.032647703
1.035516851
1.036045546
1.035825307
1.036488142
1.03736728
1.037913666
1.038272586
1.038166702
1.03794503
1.037594565
1.03719642
1.0373076
1.040054699
1.063412337
1.16062939
1.262149628
1.289908653
1.286944092
1.287267078
1.286892358
1.284149055
1.280051041
1.273193281
0.8884673141
0.8925668318
0.9096612341
0.9476770431
0.9933055406
1.012191416
1.027350275
1.036111107
1.036079181
1.036854221
1.037464248
1.037318959
1.036726835
1.036710115
1.037024324
1.037456517
1.037766826
1.037745005
1.037558728
1.03708393
1.036928114
1.037180921
1.041635052
1.091798383
1.198680321
1.262841186
1.277254037
1.28741756
1.290161962
1.287401895
1.282418619
1.274428468
0.8939699796
0.919750118
0.9624133375
1.002116054
1.029246019
1.03324983
1.033350292
1.034733709
1.035612488
1.036607363
1.037215493
1.037161313
1.036847236
1.03635324
1.036382597
1.036624802
1.037041859
1.037320343
1.037438881
1.03723182
1.036823143
1.036910645
1.037471616
1.05194262
1.114059413
1.218023991
1.273450265
1.290824414
1.290628412
1.288318013
1.28369945
1.275604891
0.9318354806
0.9803805964
1.016189715
1.023629922
1.032375499
1.03602625
1.036619056
1.036049271
1.036201194
1.036134524
1.036227315
1.036356492
1.036348047
1.03610431
1.036076265
1.036170965
1.036454168
1.036865549
1.0370606
1.037095404
1.036927408
1.036789801
1.036714136
1.039307577
1.059576492
1.149715977
1.251617766
1.283914214
1.285318938
1.28595713
1.284420239
1.277320227
0.9867599034
1.012876936
1.030361564
1.030770338
1.033038888
1.035527885
1.036683175
1.037085385
1.036953952
1.036395528
1.035944451
1.035917669
1.035986499
1.036041489
)
;

boundaryField
{
    inlet
    {
        type            fixedValue;
        value           nonuniform 0();
    }
    outlet
    {
        type            inletOutlet;
        inletValue      uniform 1;
        value           nonuniform List<scalar> 
69
(
1.112307676
1.11526125
1.112909287
1.112963525
1.113769699
1.116793345
1.114469505
1.114988329
1.117409733
1.11488917
1.115515057
1.118006517
1.115763776
1.115518235
1.116400066
1.118520101
1.116032093
1.116384458
1.117684434
1.114978632
1.114988123
1.116378764
1.113215799
1.11327988
1.11473613
1.111388882
1.111145331
1.112366335
1.108486404
1.107206122
1.107170658
1.106473876
1.105743051
1.104111654
1.102997223
1.103220148
1.101282766
1.09999099
1.100137203
1.098479899
1.096739267
1.096168601
1.095659272
1.094173053
1.093211318
1.090075262
1.089716224
1.092487032
1.113318692
1.16713646
1.209770622
1.227214825
1.232592249
1.234961539
1.237534195
1.240454116
1.243977101
1.248030108
1.252500805
1.257136872
1.261799526
1.265709255
1.268235959
1.270075302
1.271670862
1.273192797
1.274421613
1.275595874
1.277307081
)
;
    }
    bottom
    {
        type            slip;
    }
    top
    {
        type            slip;
    }
    obstacle
    {
        type            zeroGradient;
    }
    defaultFaces
    {
        type            empty;
    }
    procBoundary5to4
    {
        type            processor;
        value           nonuniform List<scalar> 
69
(
1.396905553
1.40110897
1.398403431
1.398897599
1.400753758
1.404754563
1.401126916
1.401787636
1.402425821
1.402593458
1.402329025
1.402181543
1.399250306
1.397325792
1.396751028
1.395694128
1.395677314
1.397211586
1.391709592
1.390138944
1.389495307
1.389260967
1.389181145
1.387521313
1.385780852
1.374340026
1.359647382
1.301081957
1.204447036
1.115740069
1.074667941
1.059680624
1.051563728
1.045856972
1.041176542
1.037219642
1.032545213
1.026902476
1.021210508
1.016783398
1.012374916
1.00808826
1.003436263
0.9988753384
0.9951900216
0.9911482945
0.9875532716
0.9834784792
0.9790842078
0.9750248833
0.9703888622
0.9658831257
0.9609010804
0.9558314767
0.9506936597
0.9451861354
0.9400188622
0.9345144939
0.9285096541
0.9233771666
0.9176205121
0.9114831268
0.9072767168
0.9016130496
0.8946965932
0.8906301584
0.8879108846
0.88720526
0.8991603019
)
;
    }
    procBoundary5to10
    {
        type            processor;
        value           uniform 0.9467670331;
    }
    procBoundary5to11
    {
        type            processor;
        value           nonuniform List<scalar> 
33
(
1.036014616
1.036092317
1.036314562
1.036532729