/*--------------------------------*- C++ -*----------------------------------*\
  =========                 |
  \\      /  F ield         | OpenFOAM: The Open Source CFD Toolbox
   \\    /   O peration     | Website:  https://openfoam.org
    \\  /    A nd           | Version:  7
     \\/     M anipulation  |
\*---------------------------------------------------------------------------*/
FoamFile
{
    version     2.0;
    format      ascii;
    class       volVectorField;
    location    "4";
    object      U;
}
// * * * * * * * * * * * * * * * * * * * * * * * * * * * * * * * * * * * * * //

dimensions      [0 1 -1 0 0 0 0];

internalField   nonuniform List<vector> 
558
(
(3 -2.721772518e-15 0)
(3 -2.994662572e-15 0)
(3 1.546980553e-15 0)
(3 4.779314976e-15 0)
(3 4.733111134e-15 0)
(3 3.934852689e-15 0)
(3 2.19823867e-15 0)
(3 2.075706848e-15 0)
(3 3.655491767e-15 0)
(3 4.081991436e-15 0)
(3 4.050747461e-15 0)
(3 3.525486585e-15 0)
(3 3.973600944e-15 0)
(3 3.782535559e-15 0)
(3 3.265648928e-15 0)
(3 3.904751896e-16 0)
(3 -3.396513372e-15 0)
(3 -9.04271859e-15 0)
(3 -1.456606618e-14 0)
(3 -1.489391241e-14 0)
(3 -1.307243714e-14 0)
(3 -1.194653094e-14 0)
(3 -1.209974703e-14 0)
(3 -1.08612059e-14 0)
(3 -8.616101175e-15 0)
(3 -7.783969716e-15 0)
(3 -7.71301819e-15 0)
(3 -7.774185329e-15 0)
(3 -7.78073113e-15 0)
(3 -1.034098745e-14 0)
(3 -1.066245536e-15 0)
(3 -7.889531384e-16 0)
(3 2.938604188e-16 0)
(3 1.181265367e-15 0)
(3 1.847688728e-15 0)
(3 2.389141923e-15 0)
(3 1.803938647e-15 0)
(3 1.753584639e-15 0)
(3 2.34751142e-15 0)
(3 3.501390428e-15 0)
(3 3.625179434e-15 0)
(3 1.6898118e-15 0)
(3 -7.476831704e-16 0)
(3 -3.434012912e-15 0)
(3 -4.375939202e-15 0)
(3 -5.552055904e-15 0)
(3 -5.083722793e-15 0)
(3 -5.089347953e-15 0)
(3 -6.075950184e-15 0)
(3 -8.851047842e-15 0)
(3 -1.080989143e-14 0)
(3 -1.221836752e-14 0)
(3 -1.33402834e-14 0)
(3 -1.300105551e-14 0)
(3 -1.330712805e-14 0)
(3 -1.226532676e-14 0)
(3 -1.14702086e-14 0)
(3 -1.24885701e-14 0)
(3 -1.366297091e-14 0)
(3 -1.39230389e-14 0)
(3 -1.260392677e-14 0)
(3 -9.906329517e-15 0)
(3 -1.006927486e-14 0)
(3 5.008003614e-15 0)
(3 3.914398616e-15 0)
(3 4.145236056e-15 0)
(3 4.85735592e-15 0)
(3 5.198933594e-15 0)
(3 3.712556762e-15 0)
(3 2.933097639e-15 0)
(3 1.314189545e-15 0)
(3 1.397528547e-15 0)
(3 2.235700954e-15 0)
(3 2.183883545e-15 0)
(3 7.985490358e-16 0)
(3 -9.220121428e-16 0)
(3 -2.203891636e-15 0)
(3 -2.314832807e-15 0)
(3 -6.033745138e-15 0)
(3 -7.060340376e-15 0)
(3 -6.93328047e-15 0)
(3 -7.110360248e-15 0)
(3 -6.892798738e-15 0)
(3 -7.462477783e-15 0)
(3 -7.608256976e-15 0)
(3 -8.641150854e-15 0)
(3 -9.874616187e-15 0)
(3 -1.041775141e-14 0)
(3 -1.00860422e-14 0)
(3 -9.958112962e-15 0)
(3 -1.037965245e-14 0)
(3 -1.104873081e-14 0)
(3 -1.024488088e-14 0)
(3 -9.189666238e-15 0)
(3 -8.086675818e-15 0)
(3 -8.563907818e-15 0)
(3 4.151485966e-15 0)
(3 3.993218508e-15 0)
(3 3.636031081e-15 0)
(3 2.711926289e-15 0)
(3 1.913303258e-15 0)
(3 1.975501817e-15 0)
(3 2.463362682e-15 0)
(3 1.750648149e-15 0)
(3 2.177176173e-15 0)
(3 8.396238386e-16 0)
(3 4.813033292e-16 0)
(3 -1.222814043e-15 0)
(3 -1.771194977e-15 0)
(3 -3.342425927e-15 0)
(3 -4.959512694e-15 0)
(3 -5.860390158e-15 0)
(3 -6.575742274e-15 0)
(3 -6.625663286e-15 0)
(3 -5.210526949e-15 0)
(3 -5.179710891e-15 0)
(3 -5.348022318e-15 0)
(3 -5.271819799e-15 0)
(3 -4.791091554e-15 0)
(3 -5.986285167e-15 0)
(3 -6.640011063e-15 0)
(3 -7.704152549e-15 0)
(3 -8.475462377e-15 0)
(3 -7.968507852e-15 0)
(3 -5.992017437e-15 0)
(3 -4.535073066e-15 0)
(3 -4.455061213e-15 0)
(3 -5.511874554e-15 0)
(3 -5.123582574e-15 0)
(3 3.698432672e-15 0)
(3 3.31364759e-15 0)
(3 1.268342162e-15 0)
(3 4.598360694e-16 0)
(3 9.165022518e-17 0)
(3 -9.316178532e-16 0)
(3 -1.501753567e-15 0)
(3 -1.386002998e-15 0)
(3 -1.273544934e-15 0)
(3 -1.704337572e-15 0)
(3 -3.292542177e-15 0)
(3 -5.867495488e-15 0)
(3 -7.38921072e-15 0)
(3 -8.156611455e-15 0)
(3 -7.127007469e-15 0)
(3 -5.569487262e-15 0)
(3 -7.244747656e-15 0)
(3 -9.522511525e-15 0)
(3 -7.848126983e-15 0)
(3 -7.808921301e-15 0)
(3 -6.265260411e-15 0)
(3 -5.028562879e-15 0)
(3 -5.608184786e-15 0)
(3 -6.168023358e-15 0)
(3 -6.682647364e-15 0)
(3 -6.978887248e-15 0)
(3 -7.066939819e-15 0)
(3 -6.169483871e-15 0)
(3 -4.077091521e-15 0)
(3 -4.112246189e-15 0)
(3 -4.986191346e-15 0)
(3 -5.562472308e-15 0)
(3 -3.5788606e-15 0)
(3 -6.398278949e-16 0)
(3 -1.040775224e-15 0)
(3 -1.003789246e-15 0)
(3 -8.849836483e-16 0)
(3 -2.444258755e-15 0)
(3 -3.727410367e-15 0)
(3 -4.891172031e-15 0)
(3 -4.924433576e-15 0)
(3 -5.109221703e-15 0)
(3 -5.60490776e-15 0)
(3 -6.103609292e-15 0)
(3 -6.092409055e-15 0)
(3 -8.665059226e-15 0)
(3 -1.162502054e-14 0)
(3 -1.295438297e-14 0)
(3 -1.549535896e-14 0)
(3 -1.478159227e-14 0)
(3 -1.184731825e-14 0)
(3 -1.1053659e-14 0)
(3 -1.15055139e-14 0)
(3 -1.114156358e-14 0)
(3 -1.133891371e-14 0)
(3 -1.103690144e-14 0)
(3 -1.070922334e-14 0)
(3 -1.096843971e-14 0)
(3 -9.24005342e-15 0)
(3 -5.307710375e-15 0)
(3 -3.076295905e-15 0)
(3 -3.218705349e-15 0)
(3 -3.897003243e-15 0)
(3 -3.636162566e-15 0)
(3 -2.800807901e-15 0)
(3 2.967917318e-17 0)
(3 -6.791694947e-15 0)
(3 -3.386497542e-15 0)
(3 -1.07442041e-15 0)
(3 -1.036801639e-15 0)
(3 -1.296699558e-15 0)
(3 -2.506063455e-15 0)
(3 -4.556596681e-15 0)
(3 -5.017468549e-15 0)
(3 -5.450573811e-15 0)
(3 -4.078175814e-15 0)
(3 -2.815698759e-15 0)
(3 -1.882762577e-15 0)
(3 -2.5560138e-15 0)
(3 -4.702640361e-15 0)
(3 -5.980670106e-15 0)
(3 -7.699005434e-15 0)
(3 -8.372793747e-15 0)
(3 -9.085977421e-15 0)
(3 -1.0968008e-14 0)
(3 -1.036764797e-14 0)
(3 -9.883998251e-15 0)
(3 -6.644974235e-15 0)
(3 -4.984065133e-15 0)
(3 -4.773893957e-15 0)
(3 -4.614480284e-15 0)
(3 -3.052217856e-15 0)
(3 -2.784171149e-16 0)
(3 -4.642063079e-17 0)
(3 -1.265618075e-15 0)
(3 -1.232273635e-15 0)
(3 -6.205703729e-16 0)
(3 -1.446934301e-16 0)
(3 -1.230259762e-15 0)
(3 -9.945329385e-15 0)
(3 -7.604143713e-15 0)
(3 -5.730150341e-15 0)
(3 -6.636340245e-15 0)
(3 -6.430609915e-15 0)
(3 -6.614931855e-15 0)
(3 -7.391473602e-15 0)
(3 -7.7806999e-15 0)
(3 -7.752406155e-15 0)
(3 -7.700585613e-15 0)
(3 -6.802910822e-15 0)
(3 -5.469317305e-15 0)
(3 -4.205183719e-15 0)
(3 -3.482135302e-15 0)
(3 -3.500464343e-15 0)
(3 -4.674627054e-15 0)
(3 -9.385473713e-15 0)
(3 -1.055627402e-14 0)
(3 -1.111638023e-14 0)
(3 -1.070694995e-14 0)
(3 -1.076147774e-14 0)
(3 -1.035939547e-14 0)
(3 -8.55733473e-15 0)
(3 -9.079332309e-15 0)
(3 -8.45429115e-15 0)
(3 -5.3787156e-15 0)
(3 -1.923984583e-15 0)
(3 -1.448860097e-15 0)
(3 -2.208288788e-15 0)
(3 -1.517546176e-15 0)
(3 -1.6923164e-15 0)
(3 -4.100849572e-15 0)
(3 -3.429649823e-15 0)
(3 -7.547927494e-15 0)
(3 -8.404789218e-15 0)
(3 -9.726860032e-15 0)
(3 -1.012959109e-14 0)
(3 -1.051291775e-14 0)
(3 -9.851201401e-15 0)
(3 -8.988911709e-15 0)
(3 -9.228490655e-15 0)
(3 -1.029632465e-14 0)
(3 -1.092984919e-14 0)
(3 -1.114400529e-14 0)
(3 -1.101162611e-14 0)
(3 -1.019461616e-14 0)
(3 -9.308704145e-15 0)
(3 -9.245044251e-15 0)
(3 -9.449739208e-15 0)
(3 -9.663149915e-15 0)
(3 -1.044252337e-14 0)
(3 -8.065775329e-15 0)
(3 -4.45432809e-15 0)
(3 -2.259535752e-15 0)
(3 -1.836986994e-15 0)
(3 -3.01805939e-15 0)
(3 -2.783176877e-15 0)
(3 -1.756896155e-16 0)
(3 6.638942946e-17 0)
(3 -1.595358503e-16 0)
(3 -7.364915723e-16 0)
(3 -6.312312045e-16 0)
(3 -6.102654636e-16 0)
(3 -5.871324223e-16 0)
(3 -1.699057869e-15 0)
(3 -1.506775929e-15 0)
(3 -8.20282459e-16 0)
(3 -5.625928089e-15 0)
(3 -7.206526591e-15 0)
(3 -7.708604959e-15 0)
(3 -8.496432444e-15 0)
(3 -7.835565821e-15 0)
(3 -7.220278636e-15 0)
(3 -7.668486493e-15 0)
(3 -8.696784792e-15 0)
(3 -8.71090087e-15 0)
(3 -9.294359407e-15 0)
(3 -1.158423586e-14 0)
(3 -1.295813589e-14 0)
(3 -1.442868617e-14 0)
(3 -1.442182751e-14 0)
(3 -1.342515152e-14 0)
(3 -1.14226913e-14 0)
(3 -8.626859234e-15 0)
(3 -4.609288375e-15 0)
(3 -9.647216013e-16 0)
(3 2.392120938e-15 0)
(3 4.170426302e-15 0)
(3 4.684964741e-15 0)
(3 5.213465427e-15 0)
(3 3.392501873e-15 0)
(3 2.381421028e-15 0)
(3 2.693987315e-15 0)
(3 2.120542015e-15 0)
(3 1.604787565e-15 0)
(3 2.411484488e-16 0)
(3 -7.496949112e-16 0)
(3 6.267993749e-16 0)
(3 9.982332771e-16 0)
(3 -3.474287464e-15 0)
(3 -2.9053071e-15 0)
(3 -3.700186617e-15 0)
(3 -4.926051017e-15 0)
(3 -6.591402026e-15 0)
(3 -7.425798941e-15 0)
(3 -8.200062772e-15 0)
(3 -7.50393112e-15 0)
(3 -4.537920018e-15 0)
(3 -3.492378171e-15 0)
(3 -5.220875875e-15 0)
(3 -6.292022281e-15 0)
(3 -8.563399685e-15 0)
(3 -1.121604942e-14 0)
(3 -9.490057439e-15 0)
(3 -8.266734494e-15 0)
(3 -7.684647744e-15 0)
(3 -6.477922975e-15 0)
(3 -2.099845488e-15 0)
(3 1.816880132e-15 0)
(3 3.518624324e-15 0)
(3 4.665134756e-15 0)
(3 5.425338645e-15 0)
(3 6.509124874e-15 0)
(3 5.652672794e-15 0)
(3 3.293506479e-15 0)
(3 1.764766698e-15 0)
(3 5.279861337e-17 0)
(3 -1.173636403e-15 0)
(3 -2.719671103e-15 0)
(3 -3.484332621e-15 0)
(3 -1.438523358e-15 0)
(3 -4.360192267e-16 0)
(3 -1.144009007e-14 0)
(3 -8.682349034e-15 0)
(3 -7.686332748e-15 0)
(3 -6.712986626e-15 0)
(3 -6.583846281e-15 0)
(3 -7.128935446e-15 0)
(3 -6.633735727e-15 0)
(3 -5.640488613e-15 0)
(3 -4.490168597e-15 0)
(3 -4.69885519e-15 0)
(3 -3.599890764e-15 0)
(3 -1.039959688e-15 0)
(3 4.855286163e-16 0)
(3 -4.734923421e-16 0)
(3 -1.919884607e-17 0)
(3 2.462197806e-15 0)
(3 3.178437823e-15 0)
(3 3.817526661e-15 0)
(3 5.704444821e-15 0)
(3 6.915752736e-15 0)
(3 8.917586305e-15 0)
(3 1.150459331e-14 0)
(3 1.419533658e-14 0)
(3 1.452092909e-14 0)
(3 1.419877344e-14 0)
(3 1.234638946e-14 0)
(3 9.668941655e-15 0)
(3 6.824534392e-15 0)
(3 5.111984901e-15 0)
(3 5.147796723e-15 0)
(3 3.829210155e-15 0)
(3 1.356411131e-15 0)
(3 3.115913834e-15 0)
(3 -1.393377163e-14 0)
(3 -1.447440713e-14 0)
(3 -1.455698199e-14 0)
(3 -1.390713538e-14 0)
(3 -1.225036806e-14 0)
(3 -1.064995579e-14 0)
(3 -7.115682536e-15 0)
(3 -5.487709109e-15 0)
(3 -5.617166836e-15 0)
(3 -5.904949432e-15 0)
(3 -4.955862723e-15 0)
(3 -2.956595674e-15 0)
(3 -5.657543391e-16 0)
(3 3.539339425e-15 0)
(3 4.457537044e-15 0)
(3 7.389541436e-15 0)
(3 8.023596363e-15 0)
(3 9.527669461e-15 0)
(3 9.382526683e-15 0)
(3 8.63228654e-15 0)
(3 8.769175554e-15 0)
(3 1.056362471e-14 0)
(3 1.22801968e-14 0)
(3 1.271178569e-14 0)
(3 1.201011432e-14 0)
(3 1.171206616e-14 0)
(3 1.165351074e-14 0)
(3 1.182111285e-14 0)
(3 1.148809372e-14 0)
(3 1.072235594e-14 0)
(3 1.128239374e-14 0)
(3 1.149388687e-14 0)
(3 1.306987027e-14 0)
(3 -1.146363414e-14 0)
(3 -1.258146248e-14 0)
(3 -1.200897199e-14 0)
(3 -1.065413615e-14 0)
(3 -9.291140819e-15 0)
(3 -8.914450101e-15 0)
(3 -8.319497114e-15 0)
(3 -8.534060105e-15 0)
(3 -7.734378959e-15 0)
(3 -6.709667642e-15 0)
(3 -5.107130096e-15 0)
(3 -4.818072754e-15 0)
(3 -3.396850845e-15 0)
(3 -1.41837657e-15 0)
(3 -1.280114248e-16 0)
(3 1.7674932e-15 0)
(3 4.20038829e-15 0)
(3 5.219988012e-15 0)
(3 5.095422906e-15 0)
(3 5.208265287e-15 0)
(3 7.027523938e-15 0)
(3 8.464793283e-15 0)
(3 8.241183269e-15 0)
(3 8.332943853e-15 0)
(3 9.540549473e-15 0)
(3 9.367051045e-15 0)
(3 8.317992444e-15 0)
(3 8.310699409e-15 0)
(3 7.809814369e-15 0)
(3 7.48546046e-15 0)
(3 7.002777338e-15 0)
(3 7.084996005e-15 0)
(3 7.568121931e-15 0)
(3 -6.33338184e-15 0)
(3 -6.77553134e-15 0)
(3 -6.667973675e-15 0)
(3 -6.800747365e-15 0)
(3 -7.615202502e-15 0)
(3 -8.68081162e-15 0)
(3 -8.84856822e-15 0)
(3 -9.2948429e-15 0)
(3 -9.819786923e-15 0)
(3 -7.832634977e-15 0)
(3 -6.745068872e-15 0)
(3 -6.939508794e-15 0)
(3 -7.070058492e-15 0)
(3 -6.849094233e-15 0)
(3 -6.354032913e-15 0)
(3 -4.343543071e-15 0)
(3 -1.43057254e-15 0)
(3 4.065819423e-15 0)
(3 5.494658083e-15 0)
(3 5.557922724e-15 0)
(3 6.106885105e-15 0)
(3 7.279889307e-15 0)
(3 7.835120096e-15 0)
(3 7.310929215e-15 0)
(3 6.838327472e-15 0)
(3 6.907911001e-15 0)
(3 5.572851706e-15 0)
(3 4.201132299e-15 0)
(3 4.422535962e-15 0)
(3 6.051847685e-15 0)
(3 5.558028813e-15 0)
(3 5.837702804e-15 0)
(3 7.801507245e-15 0)
(3 -1.201814658e-15 0)
(3 -1.439291675e-15 0)
(3 -3.084840184e-15 0)
(3 -3.505203701e-15 0)
(3 -4.205419771e-15 0)
(3 -5.114416803e-15 0)
(3 -6.491721727e-15 0)
(3 -5.995706427e-15 0)
(3 -3.272496389e-15 0)
(3 -1.538434232e-15 0)
(3 -3.84455567e-16 0)
(3 2.529723073e-16 0)
(3 8.680116002e-16 0)
(3 9.401832868e-16 0)
(3 1.237907357e-15 0)
(3 1.414140551e-15 0)
(3 1.304185706e-15 0)
(3 4.457365199e-15 0)
(3 9.911460932e-15 0)
(3 1.020500021e-14 0)
(3 8.357517931e-15 0)
(3 8.810761111e-15 0)
(3 9.097094226e-15 0)
(3 7.640393899e-15 0)
(3 2.186280162e-15 0)
(3 -1.4119616e-15 0)
(3 -1.67833264e-15 0)
(3 -1.028088228e-15 0)
(3 -2.909553759e-16 0)
(3 1.009473692e-16 0)
(3 1.534881458e-15 0)
(3 3.030531287e-15 0)
(3 4.793375676e-15 0)
(3 -7.061955468e-16 0)
(3 -2.218365199e-15 0)
(3 -2.770270776e-15 0)
(3 -1.995516349e-15 0)
(3 -1.881118612e-15 0)
(3 -2.333044096e-15 0)
(3 -2.646102421e-15 0)
(3 -3.144192443e-15 0)
(3 -2.496334493e-15 0)
(3 -2.366568155e-15 0)
(3 -2.147198552e-15 0)
(3 -1.299605801e-15 0)
(3 -1.258902887e-16 0)
(3 -4.517057995e-17 0)
(3 5.321312537e-16 0)
(3 9.78243888e-16 0)
(3 1.309692727e-15 0)
(3 2.541986618e-15 0)
(3 4.308617473e-15 0)
(3 6.006302268e-15 0)
(3 8.025889135e-15 0)
(3 8.87217572e-15 0)
(3 8.457214436e-15 0)
(3 6.379750648e-15 0)
(3 2.994542974e-15 0)
(3 8.504136688e-16 0)
(3 2.754174776e-16 0)
(3 1.192399489e-15 0)
(3 1.03237653e-15 0)
(3 4.069936796e-16 0)
(3 5.326295898e-16 0)
(3 1.424294511e-16 0)
(3 2.616029151e-16 0)
)
;

boundaryField
{
    inlet
    {
        type            fixedValue;
        value           nonuniform 0();
    }
    outlet
    {
        type            inletOutlet;
        inletValue      nonuniform 0();
        value           nonuniform 0();
    }
    bottom
    {
        type            slip;
    }
    top
    {
        type            slip;
    }
    obstacle
    {
        type            slip;
    }
    defaultFaces
    {
        type            empty;
    }
    procBoundary32to26
    {
        type            processor;
        value           nonuniform List<vector> 
34
(
(3 2.809461141e-15 0)
(3 3.58296988e-15 0)
(3 2.533067865e-15 0)
(3 2.042946278e-15 0)
(3 2.15665844e-15 0)
(3 2.724270099e-15 0)
(3 3.006175658e-15 0)
(3 3.441424093e-15 0)
(3 5.06054347e-15 0)
(3 9.592627719e-15 0)
(3 1.124057581e-14 0)
(3 1.116389268e-14 0)
(3 1.035137144e-14 0)
(3 7.679433485e-15 0)
(3 5.932016538e-15 0)
(3 2.533205258e-15 0)
(3 -3.744001821e-15 0)
(3 -5.088997738e-15 0)
(3 -7.662678049e-15 0)
(3 -6.518326678e-15 0)
(3 -5.019178442e-15 0)
(3 -1.7244769e-15 0)
(3 -2.46583335e-16 0)
(3 -2.379541569e-16 0)
(3 7.573295124e-16 0)
(3 1.937317421e-15 0)
(3 3.145172876e-15 0)
(3 1.44406335e-15 0)
(3 -2.971485839e-15 0)
(3 -5.531503079e-15 0)
(3 -3.44908449e-15 0)
(3 -2.467958406e-15 0)
(3 -2.560116053e-15 0)
(3 -2.560116053e-15 0)
)
;
    }
    procBoundary32to31
    {
        type            processor;
        value           nonuniform List<vector> 
16
(
(3 -1.104721343e-15 0)
(3 5.099156231e-15 0)
(3 3.760451123e-15 0)
(3 4.227539228e-15 0)
(3 -3.42609514e-16 0)
(3 -9.258536641e-15 0)
(3 -1.001544386e-14 0)
(3 -6.496118764e-15 0)
(3 2.195547078e-16 0)
(3 -2.72663619e-15 0)
(3 -1.261958753e-14 0)
(3 -1.484366584e-14 0)
(3 -1.004930682e-14 0)
(3 -5.370455739e-15 0)
(3 -1.167074776e-15 0)
(3 -6.676142833e-16 0)
)
;
    }
    procBoundary32to33
    {
        type            processor;
        value           nonuniform List<vector> 
17
(
(3 -1.360591529e-14 0)
(3 -9.387897603e-15 0)
(3 -7.623133918e-15 0)
(3 -4.003964398e-15 0)
(3 -2.953110594e-15 0)
(3 2.857335877e-15 0)
(3 4.356323536e-15 0)
(3 4.283371998e-15 0)
(3 1.158554667e-15 0)
(3 7.087856588e-16 0)
(3 1.874388524e-15 0)
(3 3.248294273e-15 0)
(3 4.71011524e-15 0)
(3 1.088533814e-14 0)
(3 7.429732964e-15 0)
(3 3.452153032e-15 0)
(3 2.586532286e-15 0)
)
;
    }
}


// ************************************************************************* //
