/*--------------------------------*- C++ -*----------------------------------*\
  =========                 |
  \\      /  F ield         | OpenFOAM: The Open Source CFD Toolbox
   \\    /   O peration     | Website:  https://openfoam.org
    \\  /    A nd           | Version:  7
     \\/     M anipulation  |
\*---------------------------------------------------------------------------*/
FoamFile
{
    version     2.0;
    format      ascii;
    class       volScalarField;
    location    "1.3";
    object      rho;
}
// * * * * * * * * * * * * * * * * * * * * * * * * * * * * * * * * * * * * * //

dimensions      [1 -3 0 0 0 0 0];

internalField   nonuniform List<scalar> 
2222
(
1.40000504
1.40000504
1.40000504
1.40000504
1.40000504
1.40000504
1.40000504
1.40000504
1.40000504
1.40000504
1.40000504
1.40000504
1.40000504
1.40000504
1.40000504
1.40000504
1.40000504
1.40000504
1.40000504
1.40000504
1.40000504
1.40000504
1.40000504
1.40000504
1.40000504
1.40000504
1.40000504
1.40000504
1.40000504
1.400005048
1.400006225
1.400529171
1.42722004
2.236578793
4.375992919
5.81272281
5.818384235
1.40000504
1.40000504
1.40000504
1.40000504
1.40000504
1.40000504
1.40000504
1.40000504
1.40000504
1.40000504
1.40000504
1.40000504
1.40000504
1.40000504
1.40000504
1.40000504
1.40000504
1.40000504
1.40000504
1.40000504
1.40000504
1.40000504
1.40000504
1.40000504
1.40000504
1.40000504
1.40000504
1.40000504
1.400005116
1.400028898
1.404807935
1.558947484
2.386171542
3.437754405
4.933636112
5.633531993
1.40000504
1.40000504
1.40000504
1.40000504
1.40000504
1.40000504
1.40000504
1.40000504
1.40000504
1.40000504
1.40000504
1.40000504
1.40000504
1.40000504
1.40000504
1.40000504
1.40000504
1.40000504
1.40000504
1.40000504
1.40000504
1.40000504
1.40000504
1.40000504
1.40000504
1.40000504
1.40000504
1.400005043
1.400006663
1.40055713
1.438948283
1.961580558
2.769846826
2.95699095
4.061981935
5.333320042
1.40000504
1.40000504
1.40000504
1.40000504
1.40000504
1.40000504
1.40000504
1.40000504
1.40000504
1.40000504
1.40000504
1.40000504
1.40000504
1.40000504
1.40000504
1.40000504
1.40000504
1.40000504
1.40000504
1.40000504
1.40000504
1.40000504
1.40000504
1.40000504
1.40000504
1.40000504
1.40000504
1.400005173
1.400054561
1.408285559
1.626445398
2.485628183
3.017471015
3.00751899
3.209369033
4.411743491
1.40000504
1.40000504
1.40000504
1.40000504
1.40000504
1.40000504
1.40000504
1.40000504
1.40000504
1.40000504
1.40000504
1.40000504
1.40000504
1.40000504
1.40000504
1.40000504
1.40000504
1.40000504
1.40000504
1.40000504
1.40000504
1.40000504
1.40000504
1.40000504
1.40000504
1.40000504
1.40000505
1.400009634
1.400865833
1.468828508
2.064831748
2.888964187
3.077315851
3.051974198
3.01709568
3.466305956
1.40000504
1.40000504
1.40000504
1.40000504
1.40000504
1.40000504
1.40000504
1.40000504
1.40000504
1.40000504
1.40000504
1.40000504
1.40000504
1.40000504
1.40000504
1.40000504
1.40000504
1.40000504
1.40000504
1.40000504
1.40000504
1.40000504
1.40000504
1.40000504
1.40000504
1.400005041
1.400005352
1.400082186
1.408212758
1.708697429
2.546441877
3.045233136
3.075938068
3.044123932
2.966013546
2.99982083
1.40000504
1.40000504
1.40000504
1.40000504
1.40000504
1.40000504
1.40000504
1.40000504
1.40000504
1.40000504
1.40000504
1.40000504
1.40000504
1.40000504
1.40000504
1.40000504
1.40000504
1.40000504
1.40000504
1.40000504
1.40000504
1.40000504
1.40000504
1.40000504
1.40000504
1.40000506
1.400009776
1.400751131
1.452831562
2.140561998
2.875659375
3.089152753
3.082954412
3.039464261
2.935283218
2.884794649
1.40000504
1.40000504
1.40000504
1.40000504
1.40000504
1.40000504
1.40000504
1.40000504
1.40000504
1.40000504
1.40000504
1.40000504
1.40000504
1.40000504
1.40000504
1.40000504
1.40000504
1.40000504
1.40000504
1.40000504
1.40000504
1.40000504
1.40000504
1.40000504
1.400005041
1.400005265
1.400053144
1.405097974
1.640866488
2.574087316
2.997984077
3.095358608
3.075192022
3.004904875
2.915518426
2.834250308
1.40000504
1.40000504
1.40000504
1.40000504
1.40000504
1.40000504
1.40000504
1.40000504
1.40000504
1.40000504
1.40000504
1.40000504
1.40000504
1.40000504
1.40000504
1.40000504
1.40000504
1.40000504
1.40000504
1.40000504
1.40000504
1.40000504
1.40000504
1.40000504
1.400005049
1.400006901
1.400425423
1.430668015
2.049479256
2.86129092
3.049872479
3.095770132
3.062907657
2.974155104
2.894042072
2.80571933
1.40000504
1.40000504
1.40000504
1.40000504
1.40000504
1.40000504
1.40000504
1.40000504
1.40000504
1.40000504
1.40000504
1.40000504
1.40000504
1.40000504
1.40000504
1.40000504
1.40000504
1.40000504
1.40000504
1.40000504
1.40000504
1.40000504
1.40000504
1.400005041
1.400005102
1.400024606
1.40361908
1.558273141
2.552208168
2.994678512
3.064516947
3.083443388
3.03926533
2.940773842
2.859265808
2.789528801
1.40000504
1.40000504
1.40000504
1.40000504
1.40000504
1.40000504
1.40000504
1.40000504
1.40000504
1.40000504
1.40000504
1.40000504
1.40000504
1.40000504
1.40000504
1.40000504
1.40000504
1.40000504
1.40000504
1.40000504
1.40000504
1.40000504
1.40000504
1.400005042
1.400005905
1.40034297
1.430988462
1.91276494
2.937195156
3.073959026
3.070387653
3.049149324
2.999319305
2.904848977
2.827638367
2.769153879
1.40000504
1.40000504
1.40000504
1.40000504
1.40000504
1.40000504
1.40000504
1.40000504
1.40000504
1.40000504
1.40000504
1.40000504
1.40000504
1.40000504
1.40000504
1.40000504
1.40000504
1.40000504
1.40000504
1.40000504
1.40000504
1.40000504
1.40000504
1.400005087
1.400032111
1.405461066
1.588926598
2.44835421
3.095117971
3.096569327
3.060243841
3.011263336
2.96085438
2.87365104
2.803749395
2.744803068
1.40000504
1.40000504
1.40000504
1.40000504
1.40000504
1.40000504
1.40000504
1.40000504
1.40000504
1.40000504
1.40000504
1.40000504
1.40000504
1.40000504
1.40000504
1.40000504
1.40000504
1.40000504
1.40000504
1.40000504
1.40000504
1.40000504
1.400005043
1.400007223
1.400610977
1.454423759
1.99612134
2.917753067
3.142685652
3.122125858
3.053117976
2.982271908
2.927154843
2.843796581
2.77665703
2.72032288
1.40000504
1.40000504
1.40000504
1.40000504
1.40000504
1.40000504
1.40000504
1.40000504
1.40000504
1.40000504
1.40000504
1.40000504
1.40000504
1.40000504
1.40000504
1.40000504
1.40000504
1.40000504
1.40000504
1.40000504
1.40000504
1.40000504
1.400005192
1.400056422
1.407071035
1.680136406
2.498260659
3.115600375
3.13161014
3.093865401
3.025683282
2.953815259
2.89732526
2.817833289
2.749217754
2.697328904
1.40000504
1.40000504
1.40000504
1.40000504
1.40000504
1.40000504
1.40000504
1.40000504
1.40000504
1.40000504
1.40000504
1.40000504
1.40000504
1.40000504
1.40000504
1.40000504
1.40000504
1.40000504
1.40000504
1.40000504
1.40000504
1.40000505
1.400008436
1.400609419
1.45080043
2.118398047
2.883667489
3.149334447
3.137838511
3.076205041
2.998568542
2.928535807
2.870713128
2.794626089
2.719356922
2.670196372
1.40000504
1.40000504
1.40000504
1.40000504
1.40000504
1.40000504
1.40000504
1.40000504
1.40000504
1.40000504
1.40000504
1.40000504
1.40000504
1.40000504
1.40000504
1.40000504
1.40000504
1.40000504
1.40000504
1.40000504
1.400005041
1.400005227
1.400046114
1.404468828
1.6404627
2.559313073
3.056742483
3.152484946
3.120106462
3.044568841
2.965835428
2.898991927
2.839771064
2.769187866
2.690715185
2.6441638
1.40000504
1.40000504
1.40000504
1.40000504
1.40000504
1.40000504
1.40000504
1.40000504
1.40000504
1.40000504
1.40000504
1.40000504
1.40000504
1.40000504
1.40000504
1.40000504
1.40000504
1.40000504
1.40000504
1.40000504
1.400005051
1.400006916
1.400360315
1.427349382
2.050522071
2.866043446
3.114077377
3.148138752
3.102955051
3.014347033
2.933920027
2.870792911
2.811538981
2.746067631
2.666406438
2.616629009
1.40000504
1.40000504
1.40000504
1.40000504
1.40000504
1.40000504
1.40000504
1.40000504
1.40000504
1.40000504
1.40000504
1.40000504
1.40000504
1.40000504
1.40000504
1.40000504
1.40000504
1.40000504
1.40000504
1.400005041
1.40000512
1.40002111
1.402650313
1.545558388
2.54724091
3.01284665
3.127682371
3.143378273
3.085889172
2.98824987
2.903261131
2.838925861
2.779791064
2.718425418
2.641355134
2.588297305
1.40000504
1.40000504
1.40000504
1.40000504
1.40000504
1.40000504
1.40000504
1.40000504
1.40000504
1.40000504
1.40000504
1.40000504
1.40000504
1.40000504
1.40000504
1.40000504
1.40000504
1.40000504
1.40000504
1.400005043
1.4000056
1.400177787
1.419668414
1.884305035
2.936391451
3.102533588
3.127021304
3.114749654
3.054971912
2.961717932
2.876686752
2.810665564
2.750324734
2.69111452
2.619412555
2.561006129
1.40000504
1.40000504
1.40000504
1.40000504
1.40000504
1.40000504
1.40000504
1.40000504
1.40000504
1.40000504
1.40000504
1.40000504
1.40000504
1.40000504
1.40000504
1.40000504
1.40000504
1.40000504
1.40000504
1.400005059
1.400012451
1.402285206
1.525128236
2.406657335
3.110346609
3.122037714
3.111886463
3.083223275
3.019774161
2.938284418
2.855351572
2.784489849
2.720082259
2.660229001
2.594819979
2.532533892
1.40000504
1.40000504
1.40000504
1.40000504
1.40000504
1.40000504
1.40000504
1.40000504
1.40000504
1.40000504
1.40000504
1.40000504
1.40000504
1.40000504
1.40000504
1.40000504
1.40000504
1.40000504
1.400005041
1.400005361
1.400188536
1.426129999
1.862942102
2.900567714
3.184614949
3.168281132
3.120157067
3.052699276
2.985327125
2.914850138
2.833631568
2.758371326
2.690818949
2.629414407
2.569973031
2.506993086
1.40000504
1.40000504
1.40000504
1.40000504
1.40000504
1.40000504
1.40000504
1.40000504
1.40000504
1.40000504
1.40000504
1.40000504
1.40000504
1.40000504
1.40000504
1.40000504
1.40000504
1.40000504
1.400005056
1.400017439
1.403278341
1.578308785
2.38577581
3.14601591
3.179351303
3.150962933
3.098910912
3.01964717
2.951523977
2.890619446
2.812944072
2.735148713
2.664354445
2.599696389
2.542630544
2.481712586
1.40000504
1.40000504
1.40000504
1.40000504
1.40000504
1.40000504
1.40000504
1.40000504
1.40000504
1.40000504
1.40000504
1.40000504
1.40000504
1.40000504
1.40000504
1.40000504
1.40000504
1.400005041
1.400005895
1.400286644
1.433710932
1.98560474
2.856702244
3.196555546
3.194463883
3.149858503
3.07712674
2.993545989
2.922642875
2.864690323
2.789168026
2.709582357
2.636652032
2.569998959
2.513658018
2.457370777
1.40000504
1.40000504
1.40000504
1.40000504
1.40000504
1.40000504
1.40000504
1.40000504
1.40000504
1.40000504
1.40000504
1.40000504
1.40000504
1.40000504
1.40000504
1.40000504
1.40000504
1.400005092
1.400025506
1.403229492
1.598778365
2.472814384
3.111923087
3.200877217
3.167564125
3.103073608
3.041028216
2.965818862
2.889687375
2.833335581
2.762970728
2.68542919
2.612587492
2.544886983
2.487507404
2.434335441
1.40000504
1.40000504
1.40000504
1.40000504
1.40000504
1.40000504
1.40000504
1.40000504
1.40000504
1.40000504
1.40000504
1.40000504
1.40000504
1.40000504
1.40000504
1.40000504
1.400005044
1.400006168
1.400250061
1.422954211
2.005529445
2.846226111
3.178713082
3.189056155
3.148217777
3.070678248
3.005864353
2.937655972
2.860064897
2.802160123
2.736399964
2.661719121
2.588150921
2.518569348
2.459327572
2.409362255
1.40000504
1.40000504
1.40000504
1.40000504
1.40000504
1.40000504
1.40000504
1.40000504
1.40000504
1.40000504
1.40000504
1.40000504
1.40000504
1.40000504
1.40000504
1.40000504
1.400005101
1.400018301
1.401844035
1.523985844
2.484218839
3.04703855
3.207532289
3.195037592
3.137718485
3.048207011
2.971501464
2.907282845
2.831101549
2.76777696
2.705545752
2.635875864
2.564275072
2.495367852
2.435276187
2.387491511
1.40000504
1.40000504
1.40000504
1.40000504
1.40000504
1.40000504
1.40000504
1.40000504
1.40000504
1.40000504
1.40000504
1.40000504
1.40000504
1.40000504
1.40000504
1.400005043
1.400005591
1.40012013
1.411222455
1.826227451
2.854874637
3.146958438
3.182408195
3.180898547
3.120844287
3.021423042
2.93592403
2.873876032
2.802877469
2.733804596
2.674017884
2.610430212
2.541370198
2.472768614
2.410416967
2.362463933
1.40000504
1.40000504
1.40000504
1.40000504
1.40000504
1.40000504
1.40000504
1.40000504
1.40000504
1.40000504
1.40000504
1.40000504
1.40000504
1.40000504
1.40000504
1.400005061
1.400009024
1.40088683
1.465717006
2.304921652
3.034874703
3.164782867
3.186856275
3.179705685
3.100914176
2.998915625
2.910155612
2.846460766
2.777202451
2.700712455
2.640341651
2.58169598
2.515122184
2.44827475
2.386444846
2.338726299
1.40000504
1.40000504
1.40000504
1.40000504
1.40000504
1.40000504
1.40000504
1.40000504
1.40000504
1.40000504
1.40000504
1.40000504
1.40000504
1.40000504
1.400005041
1.40000517
1.400045574
1.40723276
1.682934375
2.794045249
3.178568557
3.196462107
3.178661903
3.147659785
3.072688041
2.974436271
2.881913179
2.814453748
2.747859045
2.666598439
2.605638171
2.552252977
2.488740745
2.423646557
2.363571558
2.314165752
1.40000504
1.40000504
1.40000504
1.40000504
1.40000504
1.40000504
1.40000504
1.40000504
1.40000504
1.40000504
1.40000504
1.40000504
1.40000504
1.40000504
1.400005044
1.400006596
1.400691144
1.460871023
2.146285798
3.119000897
3.194683039
3.182922437
3.146138661
3.10740644
3.040501823
2.951742781
2.859374648
2.788752751
2.724020387
2.638257466
2.574103105
2.522426946
2.458880935
2.393453384
2.336669841
2.287385515
1.40000504
1.40000504
1.40000504
1.40000504
1.40000504
1.40000504
1.40000504
1.40000504
1.40000504
1.40000504
1.40000504
1.40000504
1.40000504
1.40000504
1.400005106
1.400053705
1.410788848
1.719824538
2.699061333
3.244151062
3.247594368
3.204927367
3.129188649
3.07335335
3.013897465
2.933946904
2.839995081
2.760587369
2.692577046
2.606123746
2.540363448
2.491109454
2.428015182
2.361715536
2.308722186
2.260934073
1.40000504
1.40000504
1.40000504
1.40000504
1.40000504
1.40000504
1.40000504
1.40000504
1.40000504
1.40000504
1.40000504
1.40000504
1.40000504
1.400005043
1.400008059
1.401095802
1.49849142
2.230295193
3.10966487
3.262255363
3.230281126
3.179754996
3.105173727
3.038211738
2.984283604
2.909620436
2.817743739
2.73554489
2.665327056
2.57923489
2.511939003
2.46243681
2.397795323
2.327378931
2.27667207
2.230868555
1.40000504
1.40000504
1.40000504
1.40000504
1.40000504
1.40000504
1.40000504
1.40000504
1.40000504
1.40000504
1.40000504
1.40000504
1.40000504
1.40000521
1.400083838
1.412626404
1.830454059
2.720695481
3.232056261
3.249157061
3.212390896
3.159182557
3.082132314
3.006405559
2.95399165
2.883090369
2.795743192
2.713932153
2.63971316
2.551564328
2.48260622
2.431912108
2.366600376
2.291013308
2.242177321
2.199610313
1.40000504
1.40000504
1.40000504
1.40000504
1.40000504
1.40000504
1.40000504
1.40000504
1.40000504
1.40000504
1.40000504
1.40000504
1.400005049
1.400009733
1.400987894
1.487325728
2.333178352
3.052419013
3.264183306
3.256995257
3.21576457
3.147995458
3.060317895
2.975548214
2.920447278
2.849530485
2.766043741
2.687094886
2.610876666
2.523067746
2.454352543
2.401866329
2.337034237
2.255335287
2.206568656
2.167123654
1.40000504
1.40000504
1.40000504
1.40000504
1.40000504
1.40000504
1.40000504
1.40000504
1.40000504
1.40000504
1.40000504
1.400005041
1.400005254
1.400068094
1.407190771
1.758350782
2.756305682
3.171050995
3.265044361
3.245572255
3.184718151
3.110974672
3.025026288
2.941433505
2.885593737
2.812310952
2.731752044
2.658293186
2.582742352
2.49636953
2.427332893
2.371697276
2.307867947
2.221054722
2.17030281
2.133436021
1.40000504
1.40000504
1.40000504
1.40000504
1.40000504
1.40000504
1.40000504
1.40000504
1.40000504
1.40000504
1.40000504
1.400005049
1.400007575
1.400531045
1.441409929
2.219026055
3.012886238
3.22992904
3.276405255
3.243779354
3.169195792
3.08564469
2.995610471
2.912552626
2.854721333
2.774189028
2.692361815
2.624325103
2.550346077
2.465727294
2.397915711
2.340292295
2.278349265
2.189472335
2.135154056
2.100128635
1.40000504
1.40000504
1.40000504
1.40000504
1.40000504
1.40000504
1.40000504
1.40000504
1.40000504
1.40000504
1.400005041
1.400005125
1.400028543
1.403543649
1.594716314
2.693022556
3.143344145
3.253711643
3.27674525
3.242960302
3.158645474
3.062980832
2.962866982
2.879619988
2.82079716
2.733591382
2.64897902
2.586873619
2.516342778
2.434489896
2.368621297
2.309848198
2.249228886
2.160939265
2.102115932
2.067570663
1.40000504
1.40000504
1.40000504
1.40000504
1.40000504
1.40000504
1.40000504
1.40000504
1.40000504
1.40000504
1.400005043
1.400005745
1.400238592
1.424563922
1.974805599
3.02533247
3.213641607
3.250674925
3.261543816
3.232609795
3.142207196
3.038904176
2.932001846
2.849049182
2.788342005
2.696127394
2.606165213
2.547771649
2.480885448
2.399952688
2.334956144
2.276316437
2.217168361
2.13231625
2.070387398
2.03605771
1.40000504
1.40000504
1.40000504
1.40000504
1.40000504
1.40000504
1.40000504
1.40000504
1.40000504
1.40000504
1.40000506
1.4000139
1.40263633
1.547688795
2.516140383
3.180877981
3.234247107
3.24540557
3.243913394
3.209375036
3.121916064
3.017894316
2.907266535
2.819686874
2.753932953
2.658432564
2.563170005
2.506506988
2.443020751
2.363164018
2.30032495
2.24399101
2.186826063
2.106524172
2.043142722
2.007727544
1.40000504
1.40000504
1.40000504
1.40000504
1.40000504
1.40000504
1.40000504
1.40000504
1.40000504
1.400005041
1.400005359
1.400188389
1.427775221
1.912436399
3.002888524
3.262592457
3.258500096
3.239489695
3.215350937
3.17396215
3.096303506
2.991857288
2.876677778
2.786334098
2.717627203
2.622152673
2.523580763
2.466514477
2.406015992
2.326962937
2.26487978
2.210237369
2.154030991
2.077630021
2.015110095
1.979341815
1.40000504
1.40000504
1.40000504
1.40000504
1.40000504
1.40000504
1.40000504
1.40000504
1.40000504
1.400005053
1.400015917
1.40318314
1.585946746
2.456289599
3.235443545
3.25880894
3.246739373
3.221755156
3.178085238
3.129128742
3.062933812
2.961459577
2.844569844
2.753666287
2.682039449
2.58655264
2.487318042
2.428096977
2.369260465
2.29001317
2.228078527
2.176694187
2.122530813
2.050479905
1.99058529
1.954423403
1.40000504
1.40000504
1.40000504
1.40000504
1.40000504
1.40000504
1.40000504
1.40000504
1.400005041
1.400005645
1.400258815
1.434217426
2.009841801
2.938138563
3.294218954
3.290872867
3.26143756
3.21258068
3.152021249
3.088712023
3.024595313
2.92578083
2.807363874
2.715433471
2.641796102
2.548701508
2.452558146
2.391804147
2.334486029
2.256390428
2.193764487
2.144703954
2.091881398
2.021949289
1.964249973
1.928354824
1.40000504
1.40000504
1.40000504
1.40000504
1.40000504
1.40000504
1.40000504
1.40000504
1.400005069
1.400020625
1.403108965
1.606603555
2.524703697
3.205399185
3.299864628
3.278080192
3.234283861
3.191934038
3.124349425
3.045063184
2.979836367
2.882836397
2.764385385
2.675844862
2.603467303
2.514156999
2.422306383
2.359500327
2.302015231
2.225188089
2.159944323
2.112653895
2.061751833
1.994238353
1.938838361
1.903579214
1.40000504
1.40000504
1.40000504
1.40000504
1.40000504
1.40000504
1.40000504
1.400005042
1.400005811
1.400216694
1.423559107
2.032693142
2.915105372
3.271026056
3.299459481
3.274059881
3.221131187
3.17279901
3.097117498
3.005915032
2.936859767
2.840786458
2.721006202
2.634659823
2.5620688
2.474702478
2.387715578
2.325744344
2.269184662
2.195918654
2.128886742
2.08315065
2.034287636
1.968066408
1.913093013
1.878420686
1.40000504
1.40000504
1.40000504
1.40000504
1.40000504
1.40000504
1.40000504
1.400005079
1.400016063
1.401828102
1.5320184
2.530395566
3.147743331
3.310957706
3.310622654
3.279897102
3.223697331
3.157932642
3.069404092
2.968775372
2.893507649
2.797562183
2.6751402
2.592173254
2.522952466
2.439100845
2.357171953
2.296477906
2.239673024
2.16924654
2.099957542
2.053968152
2.006292025
1.94160952
1.887030756
1.853154599
1.40000504
1.40000504
1.40000504
1.40000504
1.40000504
1.40000504
1.400005042
1.400005482
1.40011652
1.412283821
1.860403589
2.918016086
3.245340446
3.28933823
3.303919474
3.271524656
3.200173101
3.126762128
3.035011253
2.932437428
2.852496865
2.757193422
2.633577043
2.552586139
2.485825585
2.403125525
2.321826731
2.263118738
2.207631108
2.141243262
2.071625372
2.026153421
1.980516179
1.918338954
1.863140415
1.828913315
1.40000504
1.40000504
1.40000504
1.40000504
1.40000504
1.40000504
1.400005056
1.400008894
1.40094242
1.474299448
2.365541728
3.119559653
3.275139697
3.29867418
3.309187379
3.265862797
3.179258296
3.098121046
3.005309939
2.90029786
2.814516157
2.719689902
2.595161769
2.51293238
2.44792995
2.36867153
2.289166291
2.232390611
2.178117059
2.114844821
2.045546082
1.999422594
1.954345261
1.893394483
1.836593584
1.802828658
1.40000504
1.40000504
1.40000504
1.40000504
1.40000504
1.400005041
1.400005154
1.400047272
1.40771744
1.713055775
2.874051149
3.243778142
3.290251456
3.288950729
3.288109868
3.241940474
3.15248106
3.061820569
2.961391012
2.860242979
2.774676774
2.682541664
2.560302485
2.477414054
2.413905169
2.338410041
2.25835719
2.201088353
2.146778421
2.085391421
2.017182592
1.970940691
1.927138243
1.868837524
1.811912362
1.778445243
1.40000504
1.40000504
1.40000504
1.40000504
1.40000504
1.400005043
1.400006469
1.400658393
1.462578658
2.183883008
3.199175042
3.283469735
3.275993985
3.249913788
3.238370381
3.204380995
3.122055732
3.027781604
2.924357211
2.826623916
2.739634564
2.647697314
2.52897225
2.443726823
2.378765434
2.306022902
2.225809756
2.168593275
2.115579459
2.056517039
1.989879803
1.943631198
1.900902882
1.844802046
1.786409295
1.752667682
1.40000504
1.40000504
1.40000504
1.40000504
1.40000504
1.4000051
1.400047575
1.409304143
1.717380027
2.755896853
3.312418668
3.309446608
3.283235791
3.235836201
3.20697857
3.169663477
3.089581354
2.995033231
2.886598219
2.786480755
2.700644624
2.61100018
2.498168206
2.411338313
2.345839348
2.276575523
2.197079902
2.138512386
2.08526591
2.02619926
1.95951081
1.913200326
1.871779147
1.817679573
1.759046987
1.726131205
1.40000504
1.40000504
1.40000504
1.40000504
1.400005043
1.400007769
1.400927764
1.484680149
2.217375379
3.187400227
3.332966388
3.302336384
3.278244937
3.22960912
3.184372161
3.134404767
3.051604107
2.957696189
2.84861554
2.749758205
2.665097207
2.576443165
2.46794345
2.379204095
2.312167037
2.244750189
2.165383852
2.104552945
2.052421462
1.994890596
1.929356451
1.883169113
1.843032088
1.791085487
1.73248588
1.699766639
1.40000504
1.40000504
1.40000504
1.40000504
1.400005205
1.400072169
1.410677629
1.783796743
2.737264967
3.319525649
3.327508094
3.300202439
3.270459606
3.217453541
3.162604838
3.099849935
3.014375482
2.922308791
2.814509803
2.714413218
2.629219688
2.540553443
2.435852406
2.345387397
2.277255368
2.211811526
2.1341878
2.072051333
2.020677782
1.96409675
1.897917931
1.851532367
1.812760659
1.762157729
1.703892983
1.672129098
1.40000504
1.40000504
1.40000504
1.400005048
1.400008769
1.400812352
1.476866956
2.269865395
3.108774805
3.341261817
3.333988899
3.307064286
3.265736197
3.203589208
3.142597331
3.070047145
2.979581647
2.886649563
2.780434439
2.678233814
2.592973007
2.505439973
2.404612205
2.312489833
2.242944161
2.178043666
2.101346222
2.036950409
1.986404551
1.931231236
1.865270527
1.818892359
1.781593772
1.732313831
1.675002767
1.644140778
1.40000504
1.40000504
1.40000504
1.400005166
1.400052051
1.40605
1.734057995
2.722154058
3.229629645
3.334295705
3.317421803
3.281085329
3.24021829
3.183763892
3.121266178
3.040642894
2.94589594
2.852252657
2.748746967
2.643893352
2.55658945
2.468390909
2.369055078
2.274760496
2.204658667
2.141126508
2.066103953
2.000951843
1.951972805
1.899341467
1.833998113
1.787985092
1.751921914
1.703275914
1.64656845
1.616427128
1.40000504
1.40000504
1.400005042
1.40000639
1.400416837
1.438282777
2.193215416
3.027354877
3.272376779
3.312441317
3.300248353
3.268017628
3.224250916
3.165842147
3.096851716
3.01088962
2.912728068
2.816621205
2.71456969
2.606117478
2.516208363
2.42944067
2.333761255
2.238158234
2.16756479
2.104836264
2.030979752
1.964814991
1.916760151
1.865448109
1.800007568
1.754729601
1.720484875
1.672689191
1.616974293
1.587984072
1.40000504
1.40000504
1.400005067
1.400019738
1.402969667
1.596411972
2.693791588
3.152914328
3.257262273
3.295221622
3.295360336
3.263368694
3.209310578
3.141867491
3.068927203
2.979700516
2.877281806
2.778585393
2.678122243
2.567433256
2.475184252
2.38900068
2.295538122
2.198394568
2.127804038
2.066284942
1.993865239
1.92760081
1.881365083
1.831965944
1.767070852
1.723104762
1.690281689
1.643128993
1.588336931
1.560189337
1.40000504
1.400005041
1.400005463
1.400193668
1.421179875
1.992783646
3.053057011
3.22798352
3.274144625
3.283903723
3.286046241
3.25544048
3.197004843
3.121884478
3.043614684
2.947997613
2.840217077
2.738840263
2.638709563
2.525858587
2.430568674
2.344667256
2.254089841
2.156478152
2.086395628
2.027154583
1.956616794
1.890360902
1.846002746
1.79803916
1.73362426
1.691067626
1.659720462
1.61307585
1.559227073
1.532258331
1.509873242
1.40000504
1.400005051
1.400013675
1.402460603
1.529696619
2.543639986
3.216031228
3.231707813
3.262244237
3.27722475
3.281505682
3.251594077
3.189055404
3.102827442
3.01360354
2.911328536
2.798606629
2.694935046
2.595667546
2.481797495
2.384665583
2.300743895
2.213734866
2.116051305
2.045999389
1.988436121
1.919122864
1.853351938
1.811483061
1.76474871
1.700418322
1.659387584
1.629350597
1.583196205
1.530616801
1.504874124
1.483303877
1.40000504
1.40000531
1.400182409
1.42677702
1.87872301
3.016983826
3.28323145
3.26801891
3.272845313
3.276052527
3.272678529
3.245636419
3.17969518
3.079286582
2.981944729
2.873968215
2.755191924
2.649217159
2.549965643
2.436047953
2.337780663
2.254945069
2.170467375
2.073249419
2.004079446
1.94904034
1.880799035
1.815981768
1.776764393
1.731015871
1.667248445
1.628077383
1.599287541
1.553306481
1.501957239
1.477582612
1.456774763
1.40000504
1.400011001
1.402643196
1.578954225
2.436372316
3.230954687
3.279760763
3.267767952
3.269307801
3.272716342
3.262857649
3.24033135
3.166877945
3.053397615
2.945926616
2.831332891
2.708249805
2.601288368
2.502498296
2.389461941
2.289717027
2.208877569
2.127690896
2.031419596
1.962953417
1.910076004
1.842417798
1.77942376
1.742860504
1.697455371
1.633766005
1.596516196
1.5689961
1.523217151
1.473619582
1.45071443
1.430642033
1.40000504
1.400104457
1.425931266
1.994658203
2.908418386
3.289304368
3.301562775
3.284155256
3.274121958
3.273517947
3.263917796
3.234023886
3.14644647
3.02058835
2.90460155
2.785122067
2.657960732
2.550917003
2.453336092
2.34158242
2.240966722
2.162249839
2.083993299
1.988554545
1.921725899
1.871301484
1.803510882
1.742639606
1.708651625
1.663387608
1.600568127
1.56562645
1.539173483
1.49313216
1.445223768
1.423862678
1.404415664
1.400005044
1.401232153
1.559914661
2.514503033
3.1431394
3.287210939
3.287038199
3.278913736
3.279815007
3.276686875
3.259040844
3.212471595
3.11487424
2.981041555
2.859562058
2.736651999
2.606284445
2.499383959
2.40323647
2.293749364
)
;

boundaryField
{
    inlet
    {
        type            calculated;
        value           nonuniform 0();
    }
    outlet
    {
        type            calculated;
        value           nonuniform 0();
    }
    bottom
    {
        type            calculated;
        value           nonuniform List<scalar> 
37
(
1.40000504
1.40000504
1.40000504
1.40000504
1.40000504
1.40000504
1.40000504
1.40000504
1.40000504
1.40000504
1.40000504
1.40000504
1.40000504
1.40000504
1.40000504
1.40000504
1.40000504
1.40000504
1.40000504
1.40000504
1.40000504
1.40000504
1.40000504
1.40000504
1.40000504
1.40000504
1.40000504
1.40000504
1.40000504
1.400005048
1.400006225
1.400529171
1.42722004
2.236578793
4.375992919
5.81272281
5.818384235
)
;
    }
    top
    {
        type            calculated;
        value           nonuniform 0();
    }
    obstacle
    {
        type            calculated;
        value           nonuniform 0();
    }
    defaultFaces
    {
        type            empty;
    }
    procBoundary3to2
    {
        type            processor;
        value           nonuniform List<scalar> 
37
(
1.40000504
1.40000504
1.40000504
1.40000504
1.40000504
1.40000504
1.40000504
1.40000504
1.40000504
1.40000504
1.40000504
1.40000504
1.40000504
1.40000504
1.40000504
1.40000504
1.40000504
1.40000504
1.40000504
1.40000504
1.40000504
1.40000504
1.40000504
1.40000504
1.40000504
1.40000504
1.40000504
1.40000504
1.40000504
1.40000504
1.40000504
1.40000504
1.40000504
1.40000504
1.40000504
1.40000504
1.40000504
)
;
    }
    procBoundary3to4
    {
        type            processor;
        value           nonuniform List<scalar> 
62
(
5.632339837
5.614703319
5.582564239
5.36489218
4.759411187
3.771337688
3.051918073
2.830330029
2.764017646
2.728252156
2.706359081
2.682834735
2.659987406
2.636550036
2.613977723
2.594072391
2.570253325
2.546130387
2.52027349
2.493305942
2.465333086
2.435724125
2.407385491
2.381363222
2.35485131
2.331839391
2.307351903
2.285976183
2.262149683
2.237053524
2.211084667
2.18124339
2.150892272
2.119351851
2.086972439
2.05551626
2.024131702
1.994271851
1.966811969
1.94000167
1.916316607
1.891855062
1.868618605
1.844840652
1.820855628
1.796872146
1.771769465
1.747877758
1.722544028
1.697229506
1.67152695
1.645170926
1.618200956
1.591377255
1.563964001
1.53692317
1.53692317
1.472004465
1.445817978
1.419729126
1.393890345
1.368086104
)
;
    }
    procBoundary3to8
    {
        type            processor;
        value           nonuniform List<scalar> 
26
(
1.40000504
1.40000504
1.40000504
1.40000504
1.40000504
1.40000504
1.40000504
1.40000504
1.40000504
1.40000504
1.40000504
1.40000504
1.40000504
1.40000504
1.40000504
1.40000504
1.40000504
1.40000504
1.40000504
1.40000504
1.40000504
1.40000504
1.40000504
1.40000504
1.40000504
1.40000504
)
;
    }
    procBoundary3to9
    {
        type            processor;
        value           nonuniform List<scalar> 
38
(
2.191925855
2.115578757
2.040205209
1.94556748
1.880759532
1.83260948
1.764274683
1.706673156
1.675019537
1.629272351
1.56727234
1.534707789
1.50922094
1.46291103
1.417344756
1.397465684
1.378551545
1.400005541
1.411750457
1.932483149
2.897107643
3.222930547
3.268025434
3.277394651
3.28388526
3.289845547
3.282149962
3.256468782
3.185932613
3.075378592
2.934786792
2.810187207
2.686522116
2.553797029
2.447255244
2.352988011
2.191925855
2.24551351
)
;
    }
}


// ************************************************************************* //
