/*--------------------------------*- C++ -*----------------------------------*\
  =========                 |
  \\      /  F ield         | OpenFOAM: The Open Source CFD Toolbox
   \\    /   O peration     | Website:  https://openfoam.org
    \\  /    A nd           | Version:  7
     \\/     M anipulation  |
\*---------------------------------------------------------------------------*/
FoamFile
{
    version     2.0;
    format      ascii;
    class       volScalarField;
    location    "0.2";
    object      T;
}
// * * * * * * * * * * * * * * * * * * * * * * * * * * * * * * * * * * * * * //

dimensions      [0 0 0 1 0 0 0];

internalField   nonuniform List<scalar> 
2222
(
1.254715963
1.222521108
1.196238258
1.19261674
1.183945975
1.157767095
1.138945163
1.134103255
1.124415675
1.1030147
1.094939474
1.093516159
1.084275044
1.067798161
1.064475297
1.063474367
1.062087206
1.908132149
1.906427367
1.902284038
1.889394466
1.862576291
1.821750198
1.772644662
1.723072652
1.668883012
1.606202224
1.551333483
1.513506191
1.474389107
1.422251916
1.381082552
1.361224688
1.337568419
1.299371339
1.270076279
1.259356017
1.242894313
1.20911838
1.187128461
1.183831289
1.173263362
1.145538932
1.130165401
1.125484617
1.113919305
1.092479903
1.087157379
1.085219368
1.075286476
1.060377229
1.057333866
1.055624465
1.052940422
1.90840664
1.907051992
1.901992427
1.886618825
1.856111582
1.811254935
1.76042885
1.711260585
1.656055952
1.593021099
1.540721387
1.502286546
1.460018358
1.406014756
1.368002928
1.348967297
1.324313641
1.285496298
1.259550093
1.248936545
1.230783619
1.195463206
1.178101683
1.174967963
1.162468772
1.133518647
1.12111179
1.116302501
1.10236869
1.082088498
1.078650704
1.076246896
1.065827457
1.052216269
1.049609187
1.047474697
1.043589457
1.908794416
1.907626196
1.901699869
1.883861241
1.849706446
1.801079408
1.748263072
1.697498254
1.640689323
1.578619969
1.529791816
1.491015657
1.446048316
1.39088826
1.35575333
1.337246206
1.311246156
1.271830939
1.248880908
1.238295045
1.217959285
1.182686005
1.170129228
1.166321086
1.150994412
1.121879958
1.112778572
1.107811783
1.09157945
1.073752348
1.0711674
1.068238931
1.05688202
1.043849079
1.042137534
1.040230071
1.035570978
1.909293502
1.907893961
1.901035478
1.880730387
1.843105447
1.791268905
1.736606839
1.683071901
1.623484292
1.563400251
1.51875042
1.479539303
1.431902227
1.376196683
1.344384881
1.325436824
1.297592674
1.2581386
1.238912723
1.22787883
1.204777467
1.170195024
1.16155201
1.157232967
1.139116352
1.111290518
1.104339171
1.098452133
1.080024453
1.06491734
1.062650266
1.059198896
1.047309949
1.034453536
1.034069085
1.033378184
1.02862041
1.90928812
1.908004957
1.900017719
1.877014862
1.835916386
1.781561713
1.725123285
1.668428512
1.606030393
1.548217279
1.506465288
1.467020194
1.416730108
1.361571671
1.332573648
1.313400526
1.283540688
1.245272222
1.228974866
1.216907558
1.190447434
1.15879176
1.153424158
1.148173275
1.126576172
1.100755462
1.095777976
1.089291356
1.069787004
1.057425447
1.05537747
1.051692952
1.039388164
1.026228538
1.026078378
1.025534279
1.020795342
1.909203408
1.907927082
1.898492419
1.872623624
1.828051264
1.771407212
1.713285813
1.652922624
1.588305805
1.532780045
1.493239214
1.452510566
1.40011395
1.34695846
1.321164624
1.300721488
1.268398541
1.232417823
1.219361935
1.20608036
1.175997007
1.148412376
1.1453147
1.138727094
1.113970182
1.091810161
1.087362746
1.079662124
1.059130146
1.048969695
1.046949318
1.042840981
1.030298895
1.017527783
1.017292911
1.017320542
1.013709374
1.909323771
1.907521358
1.896350044
1.867448058
1.819466008
1.760686896
1.700420795
1.636874634
1.570431728
1.516858418
1.478005557
1.436194249
1.382258778
1.333175037
1.309631567
1.287329411
1.252223725
1.220592448
1.209754494
1.194521277
1.160820976
1.139243927
1.137176423
1.129058539
1.101426077
1.082838351
1.078841365
1.069962223
1.04887322
1.041372356
1.039868742
1.035580207
1.023371675
1.010551507
1.008951511
1.009003035
1.005788809
1.909373068
1.906926655
1.893753272
1.861509075
1.810063911
1.749100295
1.686540529
1.620075656
1.552864732
1.500615967
1.461260433
1.417776095
1.363410782
1.319924123
1.298179426
1.27339264
1.235558377
1.209095397
1.199831931
1.182155007
1.14606766
1.130535901
1.128678303
1.118492565
1.089327175
1.074563708
1.070514604
1.060333706
1.038952403
1.033620593
1.032576156
1.028193294
1.016444252
1.003954928
1.001275874
1.001460651
0.9986779503
1.909435186
1.906173163
1.890726142
1.85475329
1.799741494
1.736625576
1.671489113
1.602393459
1.535497043
1.484533604
1.443753871
1.397489507
1.343845085
1.307398238
1.286571023
1.258152691
1.218414179
1.198310655
1.189621673
1.168629062
1.132078916
1.122426258
1.120374063
1.108048974
1.0781107
1.066262756
1.062016046
1.050458666
1.029336649
1.025340437
1.024824388
1.02063628
1.009665638
0.9973556849
0.992745822
0.9929783723
0.9907842898
1.909406285
1.905418164
1.887350028
1.847162651
1.788472417
1.723016753
1.655203267
1.584160611
1.518212517
1.468389295
1.425530847
1.376469772
1.324392558
1.294737128
1.273987678
1.242105968
1.202575729
1.188179791
1.179029325
1.154047522
1.11942176
1.113924146
1.111102049
1.096150438
1.066571224
1.056921954
1.052758289
1.040545953
1.020842921
1.017146673
1.017353266
1.013984762
1.003920834
0.9919317472
0.9864548874
0.9859853579
0.9836591939
1.909760781
1.904808116
1.88358701
1.838628428
1.776095705
1.70838112
1.637857474
1.564934042
1.501087602
1.452530458
1.406851409
1.35356367
1.305646947
1.282337364
1.260920662
1.224928098
1.188670841
1.178324139
1.167818424
1.138369978
1.107650558
1.105284775
1.102132946
1.085402657
1.057654466
1.049762631
1.044753195
1.031795248
1.013002337
1.008915293
1.009027977
1.005886011
0.9968373429
0.9861657157
0.9798483582
0.9787732903
0.9763144182
1.91085223
1.904197862
1.879192332
1.829057049
1.76266981
1.692422408
1.619361039
1.545669457
1.483925514
1.436114571
1.387418701
1.33092146
1.288517628
1.269306621
1.246294335
1.207001857
1.17619004
1.168213138
1.155850585
1.12293654
1.097935876
1.096833784
1.092715014
1.073492821
1.046766825
1.040172594
1.034907671
1.022003327
1.004866297
1.000958039
1.001154318
0.9982570058
0.9899393925
0.9798657188
0.972944059
0.9713900152
0.9689810471
1.912080211
1.903470864
1.873997376
1.818298822
1.748068041
1.675465332
1.599921492
1.525800876
1.46688341
1.419547288
1.367104867
1.308486833
1.272827508
1.255633727
1.23001815
1.188335474
1.165124178
1.158226665
1.143664067
1.107274727
1.087179726
1.086951085
1.082173576
1.061409624
1.037753389
1.032202998
1.026373984
1.013063902
0.9965160911
0.9922571812
0.9924663065
0.989992389
0.9825481906
0.9733156233
0.9668045455
0.9642077503
0.9619413685
1.913279837
1.902315581
1.867688394
1.806333974
1.732430906
1.657189036
1.579609101
1.506207977
1.449868766
1.401957879
1.345792795
1.287722643
1.258364562
1.241134851
1.211746524
1.16929827
1.15345292
1.146682727
1.129574494
1.091893229
1.078465874
1.078247302
1.072470223
1.050019813
1.028816855
1.024321682
1.01835391
1.00481096
0.9886445596
0.9848381264
0.9850830335
0.9828428966
0.9760334577
0.9675095223
0.9609535221
0.9576277835
0.9554177022
1.914052049
1.90035055
1.860165083
1.793055336
1.715776898
1.638190818
1.55857936
1.486518439
1.432579589
1.383506576
1.32401368
1.269414023
1.244079132
1.225162638
1.190500236
1.149742269
1.141424142
1.13556393
1.116531024
1.078083559
1.068243301
1.067902049
1.061266447
1.037019872
1.01821826
1.014272065
1.008142706
0.9945302663
0.9790283269
0.9752815482
0.975714642
0.9737651459
0.9674752533
0.9601782227
0.9537327848
0.9507557857
0.9486844952
1.914204154
1.897414682
1.851319589
1.778683513
1.69835
1.618345543
1.537105042
1.466919367
1.41497831
1.364194219
1.301960125
1.251922709
1.22930857
1.208276738
1.167957195
1.131551071
1.128147622
1.122454153
1.10133795
1.063981738
1.057495321
1.0574011
1.050286291
1.025565029
1.010368384
1.007155279
1.001000265
0.9871343852
0.9712782771
0.967029791
0.9671411639
0.9652500576
0.9595134091
0.9530407279
0.9466949932
0.9434948064
0.941226575
1.913979954
1.893500526
1.841163769
1.76324885
1.680326892
1.598074333
1.51554618
1.447476161
1.396496561
1.343661692
1.280081199
1.235874001
1.214182513
1.190184236
1.143467609
1.113564038
1.114079882
1.109528814
1.088082289
1.053864303
1.048531923
1.047440478
1.038768476
1.012986881
1.000302813
0.9978069204
0.9919564013
0.9783231861
0.9630806419
0.9585771756
0.9586309306
0.9569762912
0.952041036
0.9459907725
0.9410654433
0.9383640323
0.9356908022
1.913348351
1.88859805
1.829818703
1.747025782
1.661911826
1.57774853
1.493895472
1.427613421
1.377435338
1.322743093
1.258601061
1.219090657
1.197879344
1.171348866
1.120596267
1.097300823
1.098534932
1.093933331
1.072611492
1.0404795
1.034423936
1.033067792
1.024024804
0.9980700617
0.988533073
0.9868731187
0.9811286698
0.9676881018
0.9536642355
0.9482635245
0.9485462568
0.9472760373
0.9431795922
0.9381963817
0.9347183944
0.9316680793
0.9286594361
1.912775683
1.883078521
1.81752426
1.730278545
1.643232163
1.557120326
1.472581228
1.407796035
1.357421289
1.300736844
1.237190592
1.20232109
1.180993512
1.151573783
1.097255135
1.079870997
1.082371915
1.077991429
1.058247209
1.030873167
1.02539829
1.022634361
1.011765797
0.9869111058
0.9798181899
0.9789065572
0.9737858226
0.9609264974
0.9462245366
0.9400646842
0.9394175084
0.9379384027
0.9339284178
0.9297488872
0.9270814966
0.9238348398
0.9214790997
1.912354389
1.877078315
1.804632561
1.713104249
1.62452825
1.536663996
1.451086883
1.387307415
1.336703434
1.27844582
1.215603747
1.184243435
1.162940827
1.131409931
1.076233656
1.063421762
1.065541626
1.061132686
1.042693621
1.018678021
1.013868884
1.009871952
0.9968486179
0.9729786898
0.9674363395
0.9678692066
0.9640946221
0.9522948847
0.938337201
0.9320203295
0.9308564279
0.9291618303
0.9249245403
0.9220311764
0.9199448069
0.9171298269
0.9151420317
1.911972007
1.870584025
1.791376067
1.69610109
1.605564099
1.51575988
1.429623091
1.366384946
1.314954679
1.254924351
1.193990376
1.166033553
1.144566296
1.110600846
1.053961054
1.045517901
1.048010459
1.043804311
1.025703313
1.004607971
1.001690757
0.9977646136
0.9832294066
0.9594255316
0.9547544654
0.9552349755
0.9515552659
0.9408967421
0.9289158395
0.9216145611
0.9206454095
0.9190622676
0.9156749254
0.9140853707
0.9126562119
0.9102550019
0.9085952332
1.911403806
1.863494228
1.77794594
1.679119899
1.586554862
1.494225763
1.407069742
1.344276938
1.292328986
1.231220617
1.171674356
1.146029624
1.124288884
1.087675203
1.03171534
1.028041887
1.031024436
1.027103197
1.009893802
0.9947574928
0.9934021474
0.9887700958
0.9726477432
0.9491900748
0.9449105453
0.9450960357
0.941853737
0.9324328038
0.9202216177
0.9122646146
0.9109054611
0.9087240731
0.9057850792
0.9048867179
0.9045021786
0.9030080152
0.9014745049
1.910215304
1.856135881
1.764840398
1.662176945
1.566552568
1.471207854
1.383442899
1.321041389
1.268489317
1.205547953
1.148348667
1.126104543
1.10533863
1.066699759
1.012241252
1.012006446
1.015005941
1.010725855
0.9931788203
0.9804166528
0.9800868255
0.9753349948
0.9585762674
0.9361453781
0.931885921
0.9328727486
0.9308011666
0.9229072367
0.9124597714
0.9055070972
0.9026632065
0.8990053533
0.8963926605
0.8956152916
0.895844379
0.8949013763
0.8928790358
1.909411893
1.849532015
1.751993717
1.644676049
1.544961135
1.446299533
1.357652556
1.295856004
1.242932285
1.180172312
1.125780416
1.10386105
1.082083546
1.039556735
0.9913197021
0.9925382872
0.9975319443
0.9941386006
0.9760271743
0.9677589658
0.9684883755
0.9642715956
0.9475752481
0.9251714882
0.9203239257
0.9208004478
0.9185837416
0.9117377931
0.902566824
0.8973954212
0.894713987
0.8906216114
0.8883799636
0.8882769322
0.8887011391
0.8881966268
0.8861776869
1.910064523
1.843729085
1.738727652
1.625357637
1.520908513
1.418389749
1.329416744
1.268593851
1.216096733
1.152351635
1.100729602
1.081316687
1.061768313
1.020103005
0.9776864024
0.9782969496
0.9810244921
0.9763872809
0.9577432712
0.9551141993
0.9563687111
0.9522229157
0.9356373947
0.9131806329
0.9076853079
0.9077761435
0.9054989287
0.8997256236
0.8906838763
0.8871571821
0.8850241606
0.8807597829
0.8788256429
0.8791880711
0.8804013362
0.8801891207
0.878652677
1.914391053
1.83815423
1.723146319
1.602417552
1.493223144
1.387458915
1.298267554
1.239558746
1.188243024
1.125312921
1.076079972
1.057528367
1.037063567
0.9961090558
0.9606818985
0.9608491862
0.9633689867
0.9585430067
0.9409037991
0.9403171798
0.9426757745
0.9396399767
0.9249591161
0.9033197662
0.8961454707
0.8960374849
0.8940294447
0.8886013608
0.8813691523
0.8779951249
0.8745478397
0.8692605966
0.8672913384
0.8677269965
0.8699711326
0.871316895
0.8708292453
1.919511406
1.830364542
1.703132065
1.574746418
1.460954247
1.353716997
1.265064128
1.207809771
1.157629724
1.09665086
1.050833524
1.033216332
1.011901593
0.9752605693
0.9441317505
0.9408828026
0.9422543864
0.9368685555
0.92257577
0.9233588938
0.9277625754
0.9259876865
0.9135527585
0.8943744998
0.8854875849
0.8847034433
0.8826476106
0.8776590899
0.8725409025
0.8706584271
0.868172718
0.8627341723
0.8598529507
0.8601108029
0.862144567
0.8635430878
0.863366023
1.924696722
1.818471334
1.676699019
1.541208018
1.424366535
1.315883464
1.229544942
1.174609171
1.125537731
1.067366513
1.02632297
1.010912435
0.9900844855
0.9574006833
0.9320735462
0.9315290081
0.9307318147
0.9228237156
0.9090213019
0.9097916864
0.9134293312
0.9114986769
0.9002652897
0.8839903259
0.8739871654
0.8720753148
0.8701141702
0.8659056451
0.8610070622
0.8601652562
0.8584600869
0.8535377075
0.8509206361
0.8512026803
0.8540393797
0.8554696178
0.8557241533
1.927788056
1.800141104
1.643355258
1.500105488
1.384126772
1.275723237
1.192339644
1.141793735
1.096302265
1.03708786
0.9982071208
0.983774357
0.9632433199
0.9345021379
0.9121263748
0.9125450819
0.9118858683
0.903656906
0.8922984727
0.8936451879
0.8980255613
0.896669337
0.8879374396
0.8738995189
0.8632163657
0.8596387575
0.8576534719
0.8535395027
0.8491680746
0.8489531382
0.8477032438
0.8439691742
0.8405040579
0.8404419723
0.8431303491
0.8458822748
0.84653832
1.927788201
1.774274438
1.601844294
1.454013955
1.339231559
1.232900415
1.151144887
1.10101257
1.058404117
1.003225431
0.9745798621
0.962951569
0.9452062181
0.9160216435
0.8935743739
0.8950643021
0.8942401494
0.8851192579
0.8757237947
0.8768426694
0.8821052028
0.8814550176
0.8749369971
0.8629018893
0.8535054715
0.8494414961
0.8465362644
0.840842821
0.8358742936
0.8362570132
0.8361392246
0.8337773065
0.8306102294
0.8304257189
0.8324316725
0.8366327832
0.8388130109
1.917979129
1.739211014
1.553444537
1.402747723
1.28721673
1.187499994
1.1169991
1.073401132
1.032221703
0.9749156658
0.9544824357
0.9438429772
0.9253928021
0.8930010745
0.8780621595
0.881956476
0.8812706214
0.8721060139
0.8632341359
0.8640039634
0.8682364032
0.8676424031
0.8617547496
0.8491331513
0.8428505731
0.8400156485
0.8366303304
0.8308840275
0.8262475838
0.8266573425
0.8269243089
0.8261627721
0.8243790916
0.8242025853
0.825930135
0.8297352869
0.8320788954
1.902151786
1.698116249
1.498084155
1.348467736
1.236200629
1.139341104
1.071339
1.034577768
0.9955382457
0.9370923245
0.9216380544
0.9151393591
0.8995656324
0.870544847
0.8614321179
0.8657666741
0.8661953251
0.8591550343
0.8500099485
0.8503887056
0.8532193202
0.8524746522
0.8462913124
0.8327657745
0.8304400322
0.829445856
0.8268993475
0.821816788
0.8178536602
0.8186775452
0.8191687613
0.8183809296
0.8163151482
0.8153639772
0.8162727692
0.8192184171
0.8223020416
1.878335784
1.651239822
1.43590818
1.289517584
1.184210096
1.09088344
1.029028594
0.9992230246
0.9630539553
0.9143713722
0.9005462034
0.8953928067
0.8804098881
0.8525763064
0.8459380676
0.8500129447
0.850418014
0.8436963089
0.8339038006
0.8337275589
0.8358330805
0.8350110715
0.8280849687
0.8186987161
0.8179998054
0.8184825485
0.8170517607
0.8111167929
0.8067724388
0.807298845
0.8073848511
0.806382335
0.8050896726
0.8050832184
0.8060539323
0.8087327096
0.8120008713
1.847930449
1.59180017
1.375785202
1.228541442
1.130075528
1.04112147
0.9921043415
0.9712110562
0.9389764835
0.8989468055
0.8894310913
0.8833983365
0.8672758103
0.8388233992
0.8281324846
0.8295815754
0.8287462379
0.8219409708
0.8187868681
0.8194550898
0.8226460779
0.8222676603
0.816671148
0.809209726
0.8076885126
0.807157749
0.8051148898
0.7976298755
0.7942220721
0.7947735043
0.7948587005
0.7940879648
0.7938836319
0.7941449944
0.7957912574
0.7993990353
0.8040215719
1.81204375
1.524171218
1.314085228
1.162279942
1.065868315
0.978387907
0.9528842468
0.9377687921
0.9067250001
0.8709669025
0.8628782939
0.8579792427
0.8419041159
0.8148823377
0.8081144991
0.8114494647
0.8117524406
0.8070043987
0.807198513
0.8081602218
0.8111596581
0.8107381592
0.8051329314
0.7987278425
0.7972487759
0.7958595724
0.7921646545
0.7847626882
0.7828755001
0.7839043933
0.7857132102
0.7869713946
0.7882297844
0.7893657932
0.7911216814
0.7941088397
0.7978081875
1.770308628
1.460786306
1.206219556
1.083013401
1.019934912
0.9598088623
0.9405833675
0.9212009262
0.8849585603
0.8489337438
0.8391368874
0.8332046744
0.8172165337
0.7982898819
0.7960825322
0.79909373
0.8005266882
0.7969184833
0.7949304722
0.7958194868
0.7969152968
0.7955082028
0.78926534
0.784558981
0.7840456267
0.7841492192
0.782441332
0.7783654516
0.7783002705
0.7790366168
0.7791382247
0.7784890903
0.7787496113
0.7795915962
0.7809960919
0.783233093
0.7867578196
1.733761684
1.380917794
1.14867328
1.058905323
0.9907543335
0.9291539934
0.9033397417
0.8786369634
0.8397383542
0.8111478486
0.8089811776
0.8072093752
0.7944841213
0.7810520497
0.7822112815
0.7860079075
0.786470297
0.7826948283
0.7799023274
0.7813039902
0.7814829788
0.7795519358
0.7740565727
0.7710862414
0.7715017057
0.7730090562
0.7718843363
0.7676700112
0.7672039689
0.7677257124
0.7694630516
0.7699610234
0.7706371896
0.7713048354
0.7724744595
0.7748018085
0.7783539726
1.74723896
1.092225725
0.9688523284
0.9396404716
0.9057616915
0.8802509558
0.8750497591
0.8661876373
0.8381392079
0.8079213796
0.7984974955
0.795519267
0.7853274444
0.7710274354
0.7677361929
0.7693974049
0.7698814039
0.7681109221
0.7682013556
0.7690491053
0.7698901055
0.7688827631
0.7661169157
0.7634576754
0.7634131489
0.7639570868
0.7628126694
0.7587942238
0.7569318814
0.757902093
0.7556779145
0.7556015588
0.7565466906
0.7579028625
0.7595539449
0.7622172824
0.7664312552
1.337617986
1.145968406
0.9912898288
0.9397310302
0.8802340264
0.8529800749
0.8556102187
0.8463875497
0.8181129413
0.7911503362
0.782408375
0.7806295018
0.7705835759
0.7584200177
0.7571135579
0.7584392076
0.7580386781
0.7564225021
0.7563678498
0.7557677319
0.7591937081
0.7606308906
0.7589838215
0.7573571838
0.7569306174
0.7571441216
0.7546555965
0.7508231403
0.7508997184
0.7507589997
0.7513071794
0.7517884752
0.7528663345
0.7543724955
0.7562408589
0.7593669199
1.225418527
1.1609342
1.014097568
0.9330480306
0.8679989658
0.8414068415
0.8477007649
0.8392460981
0.8096810258
0.7846519094
0.7766846646
0.7746282302
0.7633687386
0.7522255946
0.7522416448
0.7535233932
0.7526376239
0.7511095776
0.7516876794
0.7528938548
0.7566096655
0.7577984127
0.7554567192
0.7541315655
0.7535193989
0.7538202999
0.7503718437
0.7464728353
0.7476958001
0.7457025209
0.7490119273
0.7500050144
0.7506304778
0.7519932913
0.7545004565
0.7571127837
1.156057326
1.16040299
1.047749035
0.9221800696
0.8560944422
0.8351872767
0.8366431962
0.830042459
0.798983938
0.7752000966
0.7706685149
0.769524809
0.7570002717
0.7464380515
0.7440400493
0.7454189878
0.7466345843
0.7489851146
0.7479527634
0.7500141119
0.754988716
0.7547678937
0.7523405355
0.7509949576
0.7506308626
0.7504701245
0.7470546235
0.7446253126
0.7446613496
0.7437535768
0.7464864576
0.746257327
0.7482215965
0.7507092253
0.7529786323
0.756116956
1.150487632
1.148061227
1.051361317
0.9099323415
0.8404621693
0.8332104374
0.8289279985
0.8185320763
0.787095913
0.7658941741
0.7660658979
0.7653902641
0.7520389602
0.7424977371
0.7399135963
0.7424507916
0.7443922457
0.745357037
0.7439015462
0.7483674916
0.7521336769
0.7513125633
0.7496235052
0.7482277801
0.7489443902
0.7468006827
0.7436723843
0.7425559162
0.7421699839
0.7409788084
0.7428038199
0.7450365117
0.7467534449
0.7478371991
0.7499276501
0.7538048685
1.15646398
1.150360291
1.047657045
0.8919012636
0.8192915511
0.8278999683
0.8256390079
0.8107360147
0.7799455067
0.7630537691
0.7634301461
0.7608129745
0.7464148623
0.7381255876
0.7382382847
0.7405975346
0.7411362966
0.7408709096
0.7420530813
0.746245663
0.7489188119
0.7482109738
0.7463263683
0.7449339829
0.7467707704
0.7450135758
0.7412915796
0.7405679979
0.7379552262
0.7390745198
0.7416275849
0.7430874164
0.7428834333
0.7459256255
0.748390055
0.7528674364
1.18485367
1.150141006
1.02726493
0.8681380104
0.8092086269
0.817302268
0.8216721762
0.8048148351
0.7747362899
0.7599659865
0.7607081169
0.7535558111
0.7374806147
0.7312594408
0.7352755133
0.7372081604
0.7359640382
0.735217064
0.7381653619
0.7425793671
0.7457601188
0.7455806819
0.7433863478
0.7430660505
0.7427154672
0.742576756
0.7390086998
0.7370539014
0.7362296097
0.7381794989
0.7393841091
0.7397731279
0.7419343234
0.744283922
0.7477699368
0.7523203793
1.222286237
1.141012083
1.004269447
0.853169999
0.808054329
0.8111492461
0.8134990218
0.7960370866
0.767234675
0.7538524271
0.7554332611
0.744584382
0.7293501861
0.7247184003
0.7290665254
0.7305562364
0.7302618127
0.7317248172
0.7359345137
0.7412061046
0.744631881
0.743517577
0.7403400917
0.7402012637
0.738543928
0.7380786413
0.7356175111
0.7332295314
0.7341010952
0.735485423
0.7375601673
0.7385162494
0.7403592873
0.7423399982
0.7471178827
0.7503715942
1.231810035
1.119512641
0.9778049715
0.8458224783
0.8088065474
0.8102229261
0.8053201539
0.7821056772
0.7555843332
0.7456539224
0.7481511896
0.7385605272
0.727430336
0.7236654565
0.7223575268
0.7248955228
0.7288445835
0.7314561141
0.7350215145
0.7397299034
0.7429604742
0.7399175431
0.7369545355
0.7362711758
0.73573505
0.734076248
0.7326700433
0.7316314329
0.7326229431
0.7339086784
0.7356158001
0.7361303756
0.7376829514
0.7398912467
0.7459979032
0.7497815355
1.217043332
1.07827171
0.9494280702
0.8440838113
0.814730296
0.8113282822
0.8030422829
0.7723754577
0.7487797745
0.743280012
0.7447859441
0.7353407315
0.7254978356
0.7227531083
0.720688167
0.7244209457
0.7287334854
0.7312800681
0.7345418378
0.7388097089
0.7403984321
0.7344349475
0.7321869115
0.7313736408
0.7341478597
0.7311999981
0.7292261938
0.7300358
0.7315254692
0.7311886956
0.7326165289
0.7344830801
0.7366507322
0.7384602605
0.7442575019
0.7487355034
1.189906926
1.044384078
0.9227569868
0.83972741
0.8160207455
0.8145766699
0.8014701248
0.76905614
0.7476837414
0.7426965281
0.7429636009
0.7314950501
0.7214905676
0.72065341
0.7201967476
0.7237607747
0.7272344527
0.7304344333
0.7332039942
0.7366918555
0.7349186778
0.7295058656
0.7274734959
0.7291455125
0.7324880252
0.7301424675
0.7274379128
0.7282402232
0.7287106348
0.7289124173
0.7308332008
0.7329356288
0.733767375
0.737521183
0.7411337921
1.162942898
1.029429149
0.9073046486
0.8339260315
0.8141191727
0.8128806108
0.7981004493
0.7658625871
0.7464969583
0.7419107309
0.7397145693
0.7248136277
0.7125635859
0.7145842192
0.7183806086
0.7214832453
0.7233370711
0.7273864217
0.7298682488
0.731834601
0.7298290213
0.7276303717
0.7263937826
0.7285182338
0.7291393873
0.7282398636
0.7254278062
0.7248313487
0.7272544599
0.7271595194
0.7284365622
0.7296914411
0.7322816742
0.7349467529
0.7389154004
1.144577032
1.022940185
0.9022500905
0.8303374876
0.8106492447
0.8066732951
0.7915212759
0.760924602
0.7437093375
0.7397141722
0.7312307715
0.7163201426
0.7072495497
0.7070296927
0.7133675942
0.716847178
0.7184239651
0.7211189362
0.7248013562
0.7277356673
0.7281807796
0.7272818215
0.7259850373
0.7280447903
0.7263586751
0.7252254173
0.7235219211
0.7232428001
0.7259218242
0.7235285437
0.7267597357
0.7277398468
0.7314140932
0.7339287268
0.7380381371
1.137194053
1.018347988
0.9011151849
0.8306948714
0.8099844333
0.8002740968
0.782821173
0.75377889
0.7385388205
0.732855871
0.7231799617
0.7137303151
0.7070649281
0.7056199529
0.7085293079
0.7132541816
0.7167007909
0.7183232642
0.7230697248
0.7261177779
0.726655162
0.7260268141
0.7254959253
0.7265765975
0.7242426616
0.7221531606
0.72161669
0.7216114907
0.7237560695
0.7222551022
0.724538427
0.7254560526
0.7295548117
0.7320095745
0.7346303492
1.126551089
1.012447058
0.9002635476
0.8322302117
0.8100346775
0.7970670756
0.7768138223
0.7484049816
0.7345782932
0.726412244
0.7225996804
0.7129750098
0.7071067341
0.7058055786
0.7080266073
0.7127113937
0.7166179575
0.7180752209
0.7218909992
0.7242213766
0.7236266969
0.7229220046
0.7236896038
0.7223018114
0.7225977932
0.7205164409
0.7192299117
0.7199910958
0.7208784712
0.7200825442
0.7212877711
0.723706973
0.7269797127
0.7295818871
0.7325112356
1.109987458
1.005001948
0.8979335079
0.8322501361
0.8105505778
0.7958165426
0.7729478465
0.7468509366
0.7338154501
0.7257442458
0.7221921347
0.7115821446
0.7057099814
0.7067171565
0.7081720052
0.7128443492
0.7166503741
0.7180173445
0.7202351757
0.7207652142
0.7181027317
0.7176052537
0.718872738
0.7178292098
0.7206474147
0.7184213344
0.7168746703
0.7174955981
0.7159376827
0.7186954283
0.7201440808
0.7229741636
0.7256152969
0.7270022495
0.7311719539
1.091873808
0.9960291723
0.8941442883
0.8287262865
0.8095960846
0.7944337586
0.7697764737
0.7467826869
0.7335524556
0.72522501
0.7211857688
0.7083094762
0.701910181
0.7056452971
0.7087358287
0.7128340237
0.7153882974
0.7166396479
0.7165658745
0.7143242321
0.7132571312
0.7133812343
0.7143128867
0.7164790142
0.7167055035
0.7147241488
0.7140599611
0.7134701889
0.7136930372
0.7172032895
0.717564306
0.7212874184
0.7234286113
0.7250617807
0.730589465
1.082251876
0.9855570766
0.8882272066
0.8215623935
0.8044175749
0.7917404617
0.7681892564
0.7467826914
0.733170154
0.7239284351
0.718257787
0.7027567247
0.6984234493
0.7027247364
0.7079816545
0.7118187924
0.7107332551
0.7121106416
0.7094885764
0.7100778904
0.7121650246
0.7123155468
0.7131780183
0.7152629985
0.7128948374
0.7101998795
0.709987259
0.7101257365
0.7118452792
0.7146149516
0.7165031481
0.7195138137
0.7198833604
0.722706818
0.7288759076
1.082229664
0.9811032732
0.8812025473
0.8186468268
0.7979630398
0.7889898072
0.7662150887
0.745864162
0.7305740407
0.7204812652
0.7119603544
0.6994455122
0.6982274579
0.7001200706
0.7045515141
0.7075791717
0.7044099682
0.7055027162
0.7058751806
0.7093630525
0.7120204277
0.7120795493
0.712452578
0.7136113955
0.7111243156
0.7069169798
0.7063526253
0.7077291197
0.7096525581
0.7129781608
0.7157894368
0.7169034042
0.7178873344
0.7223799504
1.096621845
0.9808140144
0.878379389
0.8183219969
0.79410451
0.7850871505
0.7618649764
0.7423580843
0.7267606523
0.7195980872
0.7087596735
0.6991205053
0.698216801
0.6997853921
0.7005405099
0.7014403694
0.7030969851
0.7036092814
0.7053043094
0.7088376211
0.7108424299
0.7110150841
0.7109442628
0.7105285461
0.709797945
0.7061884397
0.7053679435
0.7073232414
0.7092518816
0.710795537
0.7138602414
0.7135263418
0.7163730823
0.7222576414
1.111695045
0.9827290936
0.8783080089
0.8180151728
0.7909843851
0.7767991409
0.7534644899
0.7354583172
0.7269898277
0.7196196358
0.7087511236
0.6995033107
0.6996617106
0.7004874616
0.7002705403
0.7000678054
0.7028084567
0.703208737
0.7047794395
0.7075142276
0.7081772467
0.708068479
0.7071813611
0.7074674416
0.7087367074
0.7053977097
0.7042765535
0.7061378467
0.7083782001
0.7096771905
0.711219242
0.710853407
0.713745019
0.7207520587
1.115860644
0.9859678165
0.8787639314
0.817123571
0.787339968
0.7650031456
0.7463043368
0.7337233114
0.7280399633
0.7207164247
0.7093598986
0.7008606069
0.7015433732
0.7015817816
0.700483851
0.6997396653
0.7022042459
0.702507563
0.7034538234
0.7042414366
0.702704583
0.7020171796
0.7030804103
0.706325166
0.7068641568
0.7040635099
0.7038872563
0.7053077584
0.7072459961
0.7083509845
0.7075997719
0.7086496729
0.7125703836
0.7182168653
1.117433987
0.9872507107
0.8791656227
0.8157201381
0.7886137495
0.7630247139
0.7463418086
0.7341293696
0.7299121655
0.722407948
0.7096076235
0.7007762084
0.701384432
0.7014901691
0.700562223
0.6991621808
0.7002350062
0.7003881941
0.7003882683
0.699953885
0.6998997772
0.7004368513
0.7017568008
0.704991317
0.7032425263
0.7014470488
0.7028821438
0.7039019205
0.70561601
0.7054407539
0.705051795
0.7058594764
0.7121939697
0.715898833
1.105628057
0.9870017308
0.8795695016
0.8147375733
0.7895355409
0.7644225208
0.7470228785
0.735537778
0.7300313407
0.7225763705
0.7092114615
0.6998600922
0.6996623887
0.7001130507
0.6998558649
0.6972991608
0.6952379801
0.695957116
0.6967519925
0.6985749491
0.6994585162
0.6986640193
0.7002239621
0.7028376831
0.6996806128
)
;

boundaryField
{
    inlet
    {
        type            fixedValue;
        value           nonuniform 0();
    }
    outlet
    {
        type            inletOutlet;
        inletValue      nonuniform 0();
        value           nonuniform 0();
    }
    bottom
    {
        type            slip;
    }
    top
    {
        type            slip;
    }
    obstacle
    {
        type            zeroGradient;
    }
    defaultFaces
    {
        type            empty;
    }
    procBoundary9to3
    {
        type            processor;
        value           nonuniform List<scalar> 
38
(
1.266557285
1.236304346
1.206300683
1.201606374
1.194157837
1.170140825
1.148519889
1.14322762
1.135033836
1.114554718
1.10359683
1.102096754
1.093760656
1.076321122
1.072907104
1.073258379
1.07302962
1.90750344
1.905934713
1.902823502
1.892507256
1.869349162
1.831493004
1.782532768
1.732352629
1.678725268
1.617281568
1.56191522
1.525302285
1.489014341
1.439395066
1.395373207
1.373634532
1.350384349
1.313126768
1.281347626
1.269983393
1.269983393
)
;
    }
    procBoundary9to4
    {
        type            processor;
        value           nonuniform List<scalar> 9(1.0583886 1.048873692 1.038887934 1.029726507 1.021153169 1.012851544 1.00624006 0.9988681947 0.9926692988);
    }
    procBoundary9to8
    {
        type            processor;
        value           nonuniform List<scalar> 
17
(
1.907173298
1.907607403
1.907246424
1.908105347
1.908882228
1.9092788
1.90908715
1.909235608
1.909654161
1.910127101
1.910283515
1.911892821
1.91330339