/*--------------------------------*- C++ -*----------------------------------*\
  =========                 |
  \\      /  F ield         | OpenFOAM: The Open Source CFD Toolbox
   \\    /   O peration     | Website:  https://openfoam.org
    \\  /    A nd           | Version:  7
     \\/     M anipulation  |
\*---------------------------------------------------------------------------*/
FoamFile
{
    version     2.0;
    format      ascii;
    class       volScalarField;
    location    "0.7";
    object      rho;
}
// * * * * * * * * * * * * * * * * * * * * * * * * * * * * * * * * * * * * * //

dimensions      [1 -3 0 0 0 0 0];

internalField   nonuniform List<scalar> 10(1.364351271 1.393402157 1.36942906 1.392047573 1.37521204 1.368800099 1.357786751 1.378189738 1.404856504 1.438342818);

boundaryField
{
    inlet
    {
        type            calculated;
        value           nonuniform 0();
    }
    outlet
    {
        type            calculated;
        value           nonuniform List<scalar> 8(1.368826277 1.357820123 1.378235349 1.404908031 1.438391465 1.364358013 1.369419743 1.375226738);
    }
    bottom
    {
        type            calculated;
        value           nonuniform 0();
    }
    top
    {
        type            calculated;
        value           uniform 1.438342818;
    }
    obstacle
    {
        type            calculated;
        value           nonuniform 0();
    }
    defaultFaces
    {
        type            empty;
    }
    procBoundary35to28
    {
        type            processor;
        value           nonuniform List<scalar> 4(1.403115974 1.390931776 1.350391416 1.350391416);
    }
    procBoundary35to29
    {
        type            processor;
        value           nonuniform List<scalar> 3(1.360863397 1.387721988 1.387721988);
    }
    procBoundary35to34
    {
        type            processor;
        value           nonuniform List<scalar> 4(1.344708078 1.395599756 1.440511052 1.460063642);
    }
}


// ************************************************************************* //
