/*--------------------------------*- C++ -*----------------------------------*\
  =========                 |
  \\      /  F ield         | OpenFOAM: The Open Source CFD Toolbox
   \\    /   O peration     | Website:  https://openfoam.org
    \\  /    A nd           | Version:  7
     \\/     M anipulation  |
\*---------------------------------------------------------------------------*/
FoamFile
{
    version     2.0;
    format      ascii;
    class       volScalarField;
    location    "3.7";
    object      p;
}
// * * * * * * * * * * * * * * * * * * * * * * * * * * * * * * * * * * * * * //

dimensions      [1 -1 -2 0 0 0 0];

internalField   nonuniform List<scalar> 8(1.092917005 1.047006705 1.059470285 1.058395488 1.014968348 1.041860998 1.001515682 1.02079004);

boundaryField
{
    inlet
    {
        type            fixedValue;
        value           nonuniform 0();
    }
    outlet
    {
        type            zeroGradient;
    }
    bottom
    {
        type            slip;
    }
    top
    {
        type            slip;
    }
    obstacle
    {
        type            zeroGradient;
    }
    defaultFaces
    {
        type            empty;
    }
    procBoundary33to26
    {
        type            processor;
        value           uniform 1.095657332;
    }
    procBoundary33to27
    {
        type            processor;
        value           nonuniform List<scalar> 2(1.158526361 0.9327296725);
    }
    procBoundary33to32
    {
        type            processor;
        value           nonuniform List<scalar> 3(1.00574483 1.000031997 1.00000012);
    }
    procBoundary33to34
    {
        type            processor;
        value           nonuniform List<scalar> 4(0.961860258 1.033368326 1.050678973 1.053990349);
    }
}


// ************************************************************************* //
