/*--------------------------------*- C++ -*----------------------------------*\
  =========                 |
  \\      /  F ield         | OpenFOAM: The Open Source CFD Toolbox
   \\    /   O peration     | Website:  https://openfoam.org
    \\  /    A nd           | Version:  7
     \\/     M anipulation  |
\*---------------------------------------------------------------------------*/
FoamFile
{
    version     2.0;
    format      ascii;
    class       volScalarField;
    location    "3.4";
    object      rho;
}
// * * * * * * * * * * * * * * * * * * * * * * * * * * * * * * * * * * * * * //

dimensions      [1 -3 0 0 0 0 0];

internalField   nonuniform List<scalar> 
2222
(
2.814612834
2.822621457
2.830421059
2.832233321
2.831832448
2.82249635
2.826434649
2.831001564
2.835677577
2.841180564
2.844734969
2.84502456
2.844510995
2.843967637
2.843706532
2.844023818
2.837734736
2.832312827
2.831987141
2.834337157
2.841139205
2.851380693
2.858721633
2.860367038
2.860515499
2.859527659
2.856081598
2.852317865
2.85066609
2.850222926
2.850576317
2.850387155
2.849437913
2.837446058
2.832119027
2.831934138
2.83439556
2.841371576
2.851633494
2.858773941
2.860313804
2.860453036
2.859403505
2.855910306
2.852252494
2.8506878
2.850284632
2.850663974
2.85044894
2.84945988
2.847982232
2.847784442
2.847964762
2.849050323
2.849818138
2.849627782
2.849114185
2.84813793
2.846785741
2.846515156
2.846952501
2.848606187
2.851349894
2.85245935
2.852172971
2.8512099
2.849149142
2.846422521
2.845093307
2.845024383
2.845693659
2.848006127
2.850133598
2.85031609
2.849807268
2.848599294
2.846436185
2.84479672
2.844553802
2.844763411
2.845678381
2.847396744
2.848621007
2.848715214
2.848405968
2.847647262
2.84668432
2.845929149
2.845567729
2.845486403
2.845575233
2.845927296
2.846673897
2.847336788
2.847688076
2.847710302
2.847551958
2.847130228
2.84628716
2.845409322
2.822473004
2.826410155
2.830979159
2.835682304
2.841212975
2.84468428
2.844963427
2.844477952
2.843968003
2.843732888
2.844067982
2.845126361
2.846577044
2.84707998
2.847108022
2.846647769
2.845435208
2.844747363
2.84499047
2.845845132
2.847945834
2.850003361
2.849932277
2.849280453
2.847655957
2.844543176
2.842370622
2.842427974
2.843133189
2.844962174
2.847858255
2.849120523
2.849037528
2.848499756
2.847091104
2.844975517
2.843734017
2.843528659
2.843549229
2.844223571
2.845685307
2.846579365
2.84662048
2.846362623
2.846086516
2.845775577
2.845373115
2.844828608
2.84427896
2.843911513
2.843960934
2.844515475
2.845231215
2.845717699
2.845968031
2.846007543
2.845751931
2.845167882
2.844301863
2.843739838
2.843711271
2.844203121
2.845306218
2.846134313
2.846182644
2.846056307
2.845417276
2.814673173
2.822790416
2.830550499
2.832257155
2.83178243
2.82946061
2.826354091
2.821884845
2.820094782
2.82160488
2.825372273
2.831579804
2.839195347
2.843856805
2.844921463
2.845077859
2.843234198
2.839404393
2.837559621
2.837527102
2.83845217
2.84138775
2.843348663
2.843089164
2.841947963
2.839995806
2.837359432
2.835872613
2.83586776
2.836439662
2.837717851
2.840100347
2.841786434
2.842203952
2.841939556
2.841070795
2.84025428
2.839414301
2.83840178
2.837795773
2.837753341
2.83826372
2.839531105
2.84109416
2.842061708
2.842245071
2.842028618
2.841514099
2.840344034
2.838326313
2.837084319
2.837091446
2.837838165
2.839678983
2.841789283
2.842550829
2.842548255
2.842329894
2.841543673
2.8397577
2.838564995
2.838447753
2.83883655
2.840082654
2.841780692
2.842696417
2.842362658
2.81816023
2.810507711
2.808192911
2.807073682
2.806009564
2.8060484
2.806530565
2.80402232
2.804371725
2.807781195
2.811904973
2.818512325
2.828785866
2.835337014
2.83653481
2.836753601
2.834950461
2.830394774
2.826488059
2.825977164
2.826160671
2.827033329
2.829508608
2.832484967
2.833811666
2.833914988
2.8330469
2.831417431
2.830146909
2.829000887
2.82829059
2.828080957
2.828535296
2.830018727
2.83214088
2.833931004
2.834342157
2.834378486
2.834196864
2.833162635
2.83118324
2.829890514
2.829918403
2.830748212
2.8326983
2.835100715
2.83619028
2.836068473
2.83532881
2.833859357
2.831712285
2.830594583
2.830516054
2.831031805
2.832749767
2.835318067
2.836820918
2.837053872
2.836673255
2.835464759
2.833947068
2.832932007
2.832657516
2.832711848
2.83329194
2.834723326
2.836261187
2.807600433
2.777643807
2.777182805
2.780256411
2.789800118
2.801362952
2.807737085
2.81053045
2.809169052
2.804890912
2.804659904
2.805467787
2.808163984
2.814064506
2.818142226
2.820533289
2.822761162
2.823976384
2.823402043
2.821772546
2.822042134
2.822678508
2.823232668
2.823741335
2.825054784
2.826561884
2.827651829
2.827842046
2.82728427
2.826493583
2.824972919
2.822786052
2.821191844
2.820922472
2.82162696
2.824159223
2.828137055
2.830533847
2.830827644
2.830434383
2.828926243
2.826154429
2.824145913
2.823581934
2.823757032
2.825081946
2.827797151
2.830139245
2.830808041
2.830575855
2.8294206
2.827548173
2.826113398
2.825619651
2.825536066
2.826125002
2.827757363
2.829484591
2.830641999
2.830992073
2.830787371
2.830063834
2.82896565
2.828029655
2.827438128
2.827320918
2.828416214
2.837762258
2.82227313
2.817954598
2.817240779
2.825070559
2.829645004
2.830281911
2.826507582
2.819980781
2.81377417
2.806660849
2.799772005
2.796116531
2.796597246
2.798299662
2.801574324
2.8077889
2.815860001
2.822784716
2.827395833
2.828232746
2.827636804
2.823999889
2.819188578
2.816796296
2.8166896
2.818152347
2.822627462
2.827130111
2.828256889
2.828263461
2.826783674
2.82261347
2.819253493
2.818740986
2.818883599
2.82038362
2.823841252
2.827013758
2.828051433
2.827957604
2.826702039
2.823861082
2.82188472
2.821524205
2.82180681
2.822442454
2.824097079
2.826450101
2.827896562
2.828149104
2.827824608
2.82686276
2.825245036
2.823900064
2.823368546
2.823266173
2.823610721
2.82481341
2.826724001
2.828178952
2.828467827
2.828331006
2.827612973
2.826260852
2.825032562
2.824765044
2.83916746
2.856966556
2.870660382
2.865934785
2.858768545
2.850377564
2.835266358
2.820783599
2.808150317
2.806745154
2.806734023
2.804319731
2.801719729
2.797877041
2.795901585
2.797184964
2.800954853
2.808063076
2.819111349
2.826954834
2.828270035
2.827573402
2.824618469
2.817791852
2.812316702
2.812015292
2.813538802
2.817745521
2.82457068
2.830432433
2.83167599
2.831594662
2.830202532
2.82634038
2.821249877
2.818866094
2.818465607
2.818690822
2.820318927
2.822993638
2.825880524
2.827639176
2.828186192
2.827799949
2.825854968
2.823173296
2.821940539
2.821779311
2.822062303
2.82331848
2.825609767
2.827633242
2.828131599
2.82808411
2.827117892
2.824640241
2.822620273
2.822231773
2.822410596
2.82321391
2.824991159
2.827304
2.828335099
2.828293329
2.827841003
2.82618442
2.824055733
2.366577843
2.522856426
2.721678386
2.765677844
2.776203224
2.794425779
2.785462287
2.779441348
2.79211938
2.814882078
2.826624767
2.834738445
2.835322375
2.832879233
2.826700729
2.818913381
2.810882408
2.805994051
2.806410206
2.810410516
2.815392499
2.819740624
2.823244222
2.824636485
2.822916674
2.820834015
2.821171119
2.821735512
2.82278227
2.825065638
2.828877653
2.831891228
2.83243102
2.831488103
2.829766427
2.82655548
2.82276677
2.82045761
2.82002916
2.8206135
2.822540147
2.826216189
2.830458149
2.832037063
2.831910258
2.830460511
2.826975018
2.823226836
2.822079061
2.822077311
2.822768566
2.824917306
2.828076319
2.830095013
2.83032387
2.829800036
2.827938067
2.825122575
2.823636513
2.823496891
2.823784304
2.824956352
2.826874131
2.828495492
2.828898208
2.828697276
2.827797391
1.585309702
1.724349546
1.943682767
2.172545562
2.352281426
2.590147727
2.704921168
2.735830098
2.790858349
2.824364044
2.828740615
2.839936009
2.847063419
2.846410429
2.843169711
2.833874796
2.818501913
2.803539244
2.797436361
2.79826147
2.801877583
2.809586805
2.821146276
2.831901984
2.836859052
2.838100049
2.837653648
2.833093536
2.82510623
2.821153706
2.820948006
2.82211179
2.826167609
2.832338906
2.836436461
2.837581687
2.836847213
2.833238241
2.82770618
2.824589388
2.824549809
2.825224287
2.82752737
2.831637499
2.834139316
2.834311121
2.83377578
2.831209904
2.827299164
2.825072173
2.825003739
2.825483957
2.826920342
2.829573476
2.832507431
2.833517449
2.833439331
2.832388215
2.829698293
2.826881801
2.825921117
2.825965011
2.826247187
2.827217059
2.829165936
2.831031085
2.832133871
1.402365394
1.408528146
1.428891144
1.489332769
1.583692077
1.742997523
1.980438644
2.179608068
2.397812283
2.591115272
2.640074592
2.700827257
2.764878598
2.786154418
2.798408221
2.816814284
2.824899257
2.823444229
2.823732175
2.823504096
2.821344857
2.821335996
2.825217407
2.833655357
2.839984197
2.840769448
2.839445681
2.836015548
2.830370756
2.822687452
2.82042035
2.821609582
2.824491006
2.830070545
2.838389669
2.844847111
2.846083476
2.845439522
2.842208553
2.835793345
2.829486273
2.827517357
2.827605263
2.828431127
2.831088668
2.8355767
2.838699364
2.839514228
2.839005803
2.836437804
2.832497667
2.829655866
2.829305711
2.82984142
2.831086073
2.833711368
2.836262104
2.837206879
2.837226401
2.836011374
2.833082193
2.829950426
2.828792312
2.829026899
2.829898719
2.831313783
2.834578827
1.400005665
1.400012808
1.400081821
1.400584249
1.402657012
1.410014293
1.438595822
1.497323426
1.594159789
1.777710709
1.986763937
2.194093762
2.435517636
2.545300057
2.633558867
2.755155634
2.805370107
2.817244052
2.8396265
2.842818399
2.839460298
2.833402854
2.822893731
2.813797596
2.811637345
2.817220446
2.82815784
2.834641898
2.837721215
2.838598661
2.835958388
2.834741211
2.834311001
2.83346
2.834400159
2.83879322
2.843263702
2.844696216
2.844347723
2.843805197
2.841495248
2.836088186
2.83157506
2.831005402
2.831986153
2.834078609
2.837850637
2.842392105
2.844134101
2.8442089
2.843371853
2.840007787
2.834844617
2.832191434
2.832239096
2.832907989
2.834717551
2.838211446
2.841133392
2.842121249
2.842045854
2.840498123
2.837030629
2.833560519
2.832474911
2.832709691
2.83441448
1.40000504
1.400005037
1.400005057
1.400005068
1.400005919
1.4000177
1.400135826
1.400745697
1.403019558
1.413154689
1.443445567
1.500352542
1.623490937
1.808828925
1.987414334
2.23520834
2.415322954
2.53104998
2.678497139
2.773904666
2.779866195
2.793327261
2.799012927
2.788353928
2.789646945
2.80491178
2.822473498
2.835560625
2.846118695
2.854883388
2.855776276
2.854635949
2.849991519
2.839590838
2.829391901
2.827224608
2.828074668
2.83178261
2.840000049
2.848556098
2.851437358
2.851283586
2.848122472
2.842618829
2.837953519
2.83644815
2.836569517
2.837972037
2.8425809
2.84639562
2.847208155
2.846907437
2.844885688
2.840454797
2.836437924
2.835286896
2.835833522
2.837283243
2.840085692
2.84395899
2.845945792
2.846081038
2.845655222
2.843361604
2.839422716
2.836269829
2.835939882
1.40000504
1.40000504
1.40000504
1.40000504
1.400005039
1.400005035
1.400005073
1.400005077
1.400006374
1.400026433
1.400177007
1.400885374
1.404154891
1.416856517
1.444587683
1.512242956
1.654428266
1.816547926
2.035403951
2.25968066
2.409429053
2.586379946
2.745365982
2.764950802
2.793177087
2.822331993
2.824622663
2.828839403
2.837590214
2.846389928
2.852003988
2.853234801
2.850092837
2.840616376
2.829018316
2.824158701
2.825189895
2.828370642
2.835285715
2.845765813
2.853966139
2.85589037
2.855688792
2.854205872
2.849603132
2.841960281
2.836820341
2.836338375
2.836415093
2.838214956
2.843132602
2.848437059
2.850172449
2.85033846
2.849000712
2.845111201
2.840526073
2.838902226
2.839021159
2.839641962
2.842143908
2.846090549
2.848143007
2.8483885
2.847922957
2.845444218
2.840774657
1.40000504
1.40000504
1.40000504
1.40000504
1.40000504
1.40000504
1.40000504
1.400005039
1.400005038
1.400005037
1.400005067
1.400005104
1.40000785
1.400037054
1.400205456
1.401116276
1.405751548
1.41868113
1.451752639
1.538522622
1.663850217
1.836912801
2.084118897
2.276640063
2.460705855
2.664915833
2.695836114
2.728067489
2.756977932
2.77438362
2.798267864
2.82588322
2.836165105
2.842667629
2.84845887
2.849440364
2.848530414
2.845885049
2.843199026
2.840446194
2.841171332
2.846998614
2.853099595
2.854712882
2.85418668
2.851586431
2.845325413
2.838842505
2.836853109
2.837291732
2.839321881
2.84376978
2.850856512
2.854827417
2.855055185
2.854082979
2.850760781
2.844694599
2.83990008
2.839077362
2.839248617
2.840437789
2.844310047
2.849423372
2.85143423
2.851566595
2.850453597
1.40000504
1.40000504
1.40000504
1.40000504
1.40000504
1.40000504
1.40000504
1.40000504
1.40000504
1.40000504
1.40000504
1.400005039
1.400005038
1.400005042
1.400005019
1.400005245
1.400010122
1.400047427
1.40027596
1.40164738
1.406657257
1.420915067
1.468681111
1.560069631
1.683381287
1.894510092
2.109353412
2.310196682
2.551291691
2.626788004
2.689098353
2.765498649
2.814560429
2.828040069
2.847183642
2.856341986
2.857093701
2.855581411
2.846160699
2.827808806
2.820146685
2.821989846
2.829195371
2.840604134
2.852131463
2.856970523
2.857793242
2.856156806
2.850989817
2.844576593
2.840221388
2.839102848
2.840246903
2.84495799
2.850808727
2.853954223
2.854326524
2.853622967
2.849753035
2.843535677
2.839969568
2.839855311
2.84056482
2.842889394
2.84781293
2.85234086
2.854161443
1.40000504
1.40000504
1.40000504
1.40000504
1.40000504
1.40000504
1.40000504
1.40000504
1.40000504
1.40000504
1.40000504
1.40000504
1.40000504
1.40000504
1.400005037
1.400005038
1.400005037
1.400005044
1.400005027
1.400005565
1.400012117
1.40006332
1.40046306
1.402310283
1.407844635
1.428396506
1.484056129
1.570964301
1.738967676
1.956950847
2.147289748
2.401218467
2.535542278
2.615740278
2.708973525
2.790083479
2.819121261
2.825199014
2.832014857
2.828955513
2.82250124
2.823756858
2.82813861
2.835320538
2.846415961
2.857788279
2.863507097
2.864164054
2.862872846
2.858070062
2.84815914
2.838056507
2.834810407
2.834934136
2.836765661
2.843140431
2.85303821
2.857577817
2.857915049
2.856626992
2.851764337
2.844606934
2.840563879
2.840149465
2.840773739
2.843785315
2.85101508
1.40000504
1.40000504
1.40000504
1.40000504
1.40000504
1.40000504
1.40000504
1.40000504
1.40000504
1.40000504
1.40000504
1.40000504
1.40000504
1.40000504
1.40000504
1.40000504
1.40000504
1.40000504
1.400005038
1.400005039
1.400005038
1.40000504
1.400005086
1.400006041
1.400015509
1.400106077
1.400692552
1.402884741
1.411744026
1.441964748
1.494525753
1.607199041
1.801618186
1.998054539
2.247838589
2.433975556
2.550703505
2.677583463
2.790836148
2.813625269
2.833611441
2.845325729
2.843349256
2.841118455
2.836513184
2.835999161
2.840616501
2.853949418
2.86097544
2.860451319
2.857291902
2.849839115
2.840402334
2.834414961
2.833662016
2.835399647
2.841092847
2.851153408
2.858757084
2.860531579
2.860144084
2.857475664
2.850615118
2.842530635
2.839092743
2.838905657
2.840312599
1.40000504
1.40000504
1.40000504
1.40000504
1.40000504
1.40000504
1.40000504
1.40000504
1.40000504
1.40000504
1.40000504
1.40000504
1.40000504
1.40000504
1.40000504
1.40000504
1.40000504
1.40000504
1.40000504
1.40000504
1.40000504
1.40000504
1.40000504
1.40000504
1.400005036
1.400005047
1.400005135
1.40000682
1.40002765
1.40019476
1.400925892
1.404189684
1.418778388
1.451381803
1.52540671
1.677046327
1.848085466
2.078307821
2.312594479
2.461575124
2.622295739
2.771086486
2.793519158
2.795692222
2.802814875
2.795533804
2.797127685
2.817255759
2.841888938
2.855124905
2.862148569
2.863864884
2.862505377
2.856942632
2.846570627
2.837771487
2.835487094
2.835870745
2.840227405
2.849618839
2.85801151
2.860360421
2.859937669
2.856847356
2.849612948
2.841837183
2.837922151
1.40000504
1.40000504
1.40000504
1.40000504
1.40000504
1.40000504
1.40000504
1.40000504
1.40000504
1.40000504
1.40000504
1.40000504
1.40000504
1.40000504
1.40000504
1.40000504
1.40000504
1.40000504
1.40000504
1.40000504
1.40000504
1.40000504
1.40000504
1.40000504
1.40000504
1.40000504
1.40000504
1.400005039
1.400005044
1.400005045
1.400005196
1.40000911
1.400054432
1.400313505
1.40157529
1.407812858
1.424538185
1.467869478
1.582001762
1.735553734
1.938361597
2.184466858
2.357611243
2.550403316
2.736976317
2.768109671
2.787544428
2.809467317
2.81571748
2.831885755
2.85118251
2.864296714
2.867819575
2.867768304
2.864185001
2.855664923
2.841692478
2.831455394
2.829697766
2.830631758
2.836795387
2.850153673
2.860676787
2.862557024
2.861832874
2.858187861
2.846763241
1.40000504
1.40000504
1.40000504
1.40000504
1.40000504
1.40000504
1.40000504
1.40000504
1.40000504
1.40000504
1.40000504
1.40000504
1.40000504
1.40000504
1.40000504
1.40000504
1.40000504
1.40000504
1.40000504
1.40000504
1.40000504
1.40000504
1.40000504
1.40000504
1.40000504
1.40000504
1.40000504
1.40000504
1.40000504
1.40000504
1.400005039
1.400005037
1.40000505
1.400005036
1.400005672
1.40001585
1.400090105
1.400541589
1.403351724
1.412502654
1.436775685
1.509614428
1.627357343
1.804653919
2.061635719
2.261150197
2.473466166
2.680893957
2.709803139
2.740419818
2.771638502
2.79289856
2.82999231
2.859522694
2.865717212
2.866609001
2.86407724
2.8554787
2.841748326
2.830342681
2.82851179
2.83053749
2.838723458
2.85137571
2.860366534
2.862308725
2.861574985
1.40000504
1.40000504
1.40000504
1.40000504
1.40000504
1.40000504
1.40000504
1.40000504
1.40000504
1.40000504
1.40000504
1.40000504
1.40000504
1.40000504
1.40000504
1.40000504
1.40000504
1.40000504
1.40000504
1.40000504
1.40000504
1.40000504
1.40000504
1.40000504
1.40000504
1.40000504
1.40000504
1.40000504
1.40000504
1.40000504
1.40000504
1.40000504
1.40000504
1.400005038
1.400005038
1.40000504
1.40000503
1.400005097
1.400007663
1.400030979
1.400183692
1.401248071
1.405558491
1.41913418
1.467949555
1.559846554
1.697644096
1.928750338
2.144521494
2.386949502
2.614591979
2.656449274
2.717393008
2.773724304
2.816515567
2.848356961
2.863789781
2.868033051
2.867481656
2.858378602
2.844490979
2.830986818
2.826139121
2.827233153
2.833887047
2.847681186
2.861177005
1.40000504
1.40000504
1.40000504
1.40000504
1.40000504
1.40000504
1.40000504
1.40000504
1.40000504
1.40000504
1.40000504
1.40000504
1.40000504
1.40000504
1.40000504
1.40000504
1.40000504
1.40000504
1.40000504
1.40000504
1.40000504
1.40000504
1.40000504
1.40000504
1.40000504
1.40000504
1.40000504
1.40000504
1.40000504
1.40000504
1.40000504
1.40000504
1.40000504
1.40000504
1.40000504
1.40000504
1.400005039
1.400005039
1.400005038
1.400005045
1.400005032
1.400005476
1.400011866
1.400066128
1.400533823
1.402687848
1.409607698
1.437851681
1.503953282
1.617828429
1.828482633
2.0465365
2.284559892
2.524674257
2.599720402
2.679766181
2.755826629
2.820459894
2.850614222
2.862073464
2.864950318
2.859512826
2.841884399
2.828105537
2.823681324
2.824355592
2.836615628
1.40000504
1.40000504
1.40000504
1.40000504
1.40000504
1.40000504
1.40000504
1.40000504
1.40000504
1.40000504
1.40000504
1.40000504
1.40000504
1.40000504
1.40000504
1.40000504
1.40000504
1.40000504
1.40000504
1.40000504
1.40000504
1.40000504
1.40000504
1.40000504
1.40000504
1.40000504
1.40000504
1.40000504
1.40000504
1.40000504
1.40000504
1.40000504
1.40000504
1.40000504
1.40000504
1.40000504
1.40000504
1.40000504
1.40000504
1.40000504
1.400005039
1.40000504
1.400005039
1.400005034
1.400005119
1.40000684
1.400024004
1.400202066
1.401229637
1.405138957
1.422948874
1.469091206
1.551429349
1.728992543
1.947256423
2.191057036
2.438663349
2.549797738
2.655237869
2.762162678
2.830912619
2.847221743
2.855512642
2.857718858
2.84623557
2.828059717
2.823439307
1.40000504
1.40000504
1.40000504
1.40000504
1.40000504
1.40000504
1.40000504
1.40000504
1.40000504
1.40000504
1.40000504
1.40000504
1.40000504
1.40000504
1.40000504
1.40000504
1.40000504
1.40000504
1.40000504
1.40000504
1.40000504
1.40000504
1.40000504
1.40000504
1.40000504
1.40000504
1.40000504
1.40000504
1.40000504
1.40000504
1.40000504
1.40000504
1.40000504
1.40000504
1.40000504
1.40000504
1.40000504
1.40000504
1.40000504
1.40000504
1.40000504
1.40000504
1.40000504
1.400005039
1.40000504
1.400005039
1.400005045
1.400005043
1.400005482
1.400011823
1.400088354
1.400571451
1.402547782
1.412885088
1.445144117
1.510095764
1.66137839
1.862698688
2.094878201
2.35509435
2.498813061
2.623422266
2.756800309
2.828851627
2.840417801
2.846585882
2.842580624
1.40000504
1.40000504
1.40000504
1.40000504
1.40000504
1.40000504
1.40000504
1.40000504
1.40000504
1.40000504
1.40000504
1.40000504
1.40000504
1.40000504
1.40000504
1.40000504
1.40000504
1.40000504
1.40000504
1.40000504
1.40000504
1.40000504
1.40000504
1.40000504
1.40000504
1.40000504
1.40000504
1.40000504
1.40000504
1.40000504
1.40000504
1.40000504
1.40000504
1.40000504
1.40000504
1.40000504
1.40000504
1.40000504
1.40000504
1.40000504
1.40000504
1.40000504
1.40000504
1.40000504
1.40000504
1.40000504
1.40000504
1.40000504
1.40000504
1.400005039
1.400005045
1.400005113
1.400007109
1.400038898
1.40028408
1.401443167
1.407926889
1.429184431
1.476589905
1.602707659
1.790022756
2.01452866
2.275256542
2.455395674
2.594791504
2.753503005
2.818617766
1.40000504
1.40000504
1.40000504
1.40000504
1.40000504
1.40000504
1.40000504
1.40000504
1.40000504
1.40000504
1.40000504
1.40000504
1.40000504
1.40000504
1.40000504
1.40000504
1.40000504
1.40000504
1.40000504
1.40000504
1.40000504
1.40000504
1.40000504
1.40000504
1.40000504
1.40000504
1.40000504
1.40000504
1.40000504
1.40000504
1.40000504
1.40000504
1.40000504
1.40000504
1.40000504
1.40000504
1.40000504
1.40000504
1.40000504
1.40000504
1.40000504
1.40000504
1.40000504
1.40000504
1.40000504
1.40000504
1.40000504
1.40000504
1.40000504
1.40000504
1.40000504
1.40000504
1.400005039
1.40000505
1.400005049
1.400005783
1.400019638
1.400134473
1.400764468
1.404841501
1.419512881
1.456269887
1.561582568
1.724810605
1.948186363
2.187278711
2.406708041
1.40000504
1.40000504
1.40000504
1.40000504
1.40000504
1.40000504
1.40000504
1.40000504
1.40000504
1.40000504
1.40000504
1.40000504
1.40000504
1.40000504
1.40000504
1.40000504
1.40000504
1.40000504
1.40000504
1.40000504
1.40000504
1.40000504
1.40000504
1.40000504
1.40000504
1.40000504
1.40000504
1.40000504
1.40000504
1.40000504
1.40000504
1.40000504
1.40000504
1.40000504
1.40000504
1.40000504
1.40000504
1.40000504
1.40000504
1.40000504
1.40000504
1.40000504
1.40000504
1.40000504
1.40000504
1.40000504
1.40000504
1.40000504
1.40000504
1.40000504
1.40000504
1.40000504
1.40000504
1.40000504
1.40000504
1.400005039
1.400005042
1.400005033
1.400005259
1.400011794
1.400071758
1.400455063
1.403178966
1.412504853
1.442533016
1.531521228
1.633240658
1.40000504
1.40000504
1.40000504
1.40000504
1.40000504
1.40000504
1.40000504
1.40000504
1.40000504
1.40000504
1.40000504
1.40000504
1.40000504
1.40000504
1.40000504
1.40000504
1.40000504
1.40000504
1.40000504
1.40000504
1.40000504
1.40000504
1.40000504
1.40000504
1.40000504
1.40000504
1.40000504
1.40000504
1.40000504
1.40000504
1.40000504
1.40000504
1.40000504
1.40000504
1.40000504
1.40000504
1.40000504
1.40000504
1.40000504
1.40000504
1.40000504
1.40000504
1.40000504
1.40000504
1.40000504
1.40000504
1.40000504
1.40000504
1.40000504
1.40000504
1.40000504
1.40000504
1.40000504
1.40000504
1.40000504
1.40000504
1.40000504
1.400005039
1.400005039
1.40000504
1.400005034
1.400005115
1.400007971
1.400040073
1.400260986
1.403785897
1.394979302
1.40000504
1.40000504
1.40000504
1.40000504
1.40000504
1.40000504
1.40000504
1.40000504
1.40000504
1.40000504
1.40000504
1.40000504
1.40000504
1.40000504
1.40000504
1.40000504
1.40000504
1.40000504
1.40000504
1.40000504
1.40000504
1.40000504
1.40000504
1.40000504
1.40000504
1.40000504
1.40000504
1.40000504
1.40000504
1.40000504
1.40000504
1.40000504
1.40000504
1.40000504
1.40000504
1.40000504
1.40000504
1.40000504
1.40000504
1.40000504
1.40000504
1.40000504
1.40000504
1.40000504
1.40000504
1.40000504
1.40000504
1.40000504
1.40000504
1.40000504
1.40000504
1.40000504
1.40000504
1.40000504
1.40000504
1.40000504
1.40000504
1.40000504
1.40000504
1.40000504
1.40000504
1.400005039
1.400005038
1.400005052
1.400005037
1.400019334
1.39900237
1.40000504
1.40000504
1.40000504
1.40000504
1.40000504
1.40000504
1.40000504
1.40000504
1.40000504
1.40000504
1.40000504
1.40000504
1.40000504
1.40000504
1.40000504
1.40000504
1.40000504
1.40000504
1.40000504
1.40000504
1.40000504
1.40000504
1.40000504
1.40000504
1.40000504
1.40000504
1.40000504
1.40000504
1.40000504
1.40000504
1.40000504
1.40000504
1.40000504
1.40000504
1.40000504
1.40000504
1.40000504
1.40000504
1.40000504
1.40000504
1.40000504
1.40000504
1.40000504
1.40000504
1.40000504
1.40000504
1.40000504
1.40000504
1.40000504
1.40000504
1.40000504
1.40000504
1.40000504
1.40000504
1.40000504
1.40000504
1.40000504
1.40000504
1.40000504
1.40000504
1.40000504
1.40000504
1.40000504
1.40000504
1.40000504
1.40000504
1.40000504
1.40000504
1.40000504
1.40000504
1.40000504
1.40000504
1.40000504
1.40000504
1.40000504
1.40000504
1.40000504
1.40000504
1.40000504
1.40000504
1.40000504
1.40000504
1.40000504
1.40000504
1.40000504
1.40000504
1.40000504
1.40000504
1.40000504
1.40000504
1.40000504
1.40000504
1.40000504
1.40000504
1.40000504
1.40000504
1.40000504
1.40000504
1.40000504
1.40000504
1.40000504
1.40000504
1.40000504
1.40000504
1.40000504
1.40000504
1.40000504
1.40000504
1.40000504
1.40000504
1.40000504
1.40000504
1.40000504
1.40000504
1.40000504
1.40000504
1.40000504
1.40000504
1.40000504
1.40000504
1.40000504
1.40000504
1.40000504
1.40000504
1.40000504
1.40000504
1.40000504
1.40000504
1.40000504
1.40000504
1.40000504
1.40000504
1.40000504
1.40000504
1.40000504
1.40000504
1.40000504
1.40000504
1.40000504
1.40000504
1.40000504
1.40000504
1.40000504
1.40000504
1.40000504
1.40000504
1.40000504
1.40000504
1.40000504
1.40000504
1.40000504
1.40000504
1.40000504
1.40000504
1.40000504
1.40000504
1.40000504
1.40000504
1.40000504
1.40000504
1.40000504
1.40000504
1.40000504
1.40000504
1.40000504
1.40000504
1.40000504
1.40000504
1.40000504
1.40000504
1.40000504
1.40000504
1.40000504
1.40000504
1.40000504
1.40000504
1.40000504
1.40000504
1.40000504
1.40000504
1.40000504
1.40000504
1.40000504
1.40000504
1.40000504
1.40000504
1.40000504
1.40000504
1.40000504
1.40000504
1.40000504
1.40000504
1.40000504
1.40000504
1.40000504
1.40000504
1.40000504
1.40000504
1.40000504
1.40000504
1.40000504
1.40000504
1.40000504
1.40000504
1.40000504
1.40000504
1.40000504
1.40000504
1.40000504
1.40000504
1.40000504
1.40000504
1.40000504
1.40000504
1.40000504
1.40000504
1.40000504
1.40000504
1.40000504
1.40000504
1.40000504
1.40000504
1.40000504
1.40000504
1.40000504
1.40000504
1.40000504
1.40000504
1.40000504
1.40000504
1.40000504
1.40000504
1.40000504
1.40000504
1.40000504
1.40000504
1.40000504
1.40000504
1.40000504
1.40000504
1.40000504
1.40000504
1.40000504
1.40000504
1.40000504
1.40000504
)
;

boundaryField
{
    inlet
    {
        type            calculated;
        value           nonuniform 0();
    }
    outlet
    {
        type            calculated;
        value           nonuniform 0();
    }
    bottom
    {
        type            calculated;
        value           nonuniform 0();
    }
    top
    {
        type            calculated;
        value           nonuniform 0();
    }
    obstacle
    {
        type            calculated;
        value           nonuniform List<scalar> 
84
(
2.837446058
2.832119027
2.831934138
2.83439556
2.841371576
2.851633494
2.858773941
2.860313804
2.860453036
2.859403505
2.855910306
2.852252494
2.8506878
2.850284632
2.850663974
2.85044894
2.84945988
2.847982232
2.847784442
2.847964762
2.849050323
2.849818138
2.849627782
2.849114185
2.84813793
2.846785741
2.846515156
2.846952501
2.848606187
2.851349894
2.85245935
2.852172971
2.8512099
2.849149142
2.846422521
2.845093307
2.845024383
2.845693659
2.848006127
2.850133598
2.85031609
2.849807268
2.848599294
2.846436185
2.84479672
2.844553802
2.844763411
2.845678381
2.847396744
2.848621007
2.848715214
2.848405968
2.847647262
2.84668432
2.845929149
2.845567729
2.845486403
2.845575233
2.845927296
2.846673897
2.847336788
2.847688076
2.847710302
2.847551958
2.847130228
2.84628716
2.845409322
2.837734736
2.832312827
2.831987141
2.834337157
2.841139205
2.851380693
2.858721633
2.860367038
2.860515499
2.859527659
2.856081598
2.852317865
2.85066609
2.850222926
2.850576317
2.850387155
2.849437913
)
;
    }
    defaultFaces
    {
        type            empty;
    }
    procBoundary20to13
    {
        type            processor;
        value           nonuniform List<scalar> 3(2.805607573 2.820406761 2.842100681);
    }
    procBoundary20to14
    {
        type            processor;
        value           nonuniform List<scalar> 
20
(
2.81810684
2.810299113
2.807910256
2.806883661
2.805934524
2.829581945
2.829581945
2.826542974
2.82208394
2.820136564
2.821577557
2.825264679
2.845076965
2.845076965
2.846551722
2.847091215
2.847124372
2.846696077
2.845486787
2.847975074
)
;
    }
    procBoundary20to19
    {
        type            processor;
        value           nonuniform List<scalar> 
31
(
2.841955587
2.820389101
2.805640257
2.827679705
2.850229065
2.849776135
2.817481309
2.162404255
1.47425603
1.400412297
1.400005045
1.40000504
1.40000504
1.40000504
1.40000504
1.40000504
1.40000504
1.40000504
1.40000504
1.40000504
1.40000504
1.40000504
1.40000504
1.40000504
1.40000504
1.40000504
1.40000504
1.40000504
1.40000504
1.40000504
1.40000504
)
;
    }
    procBoundary20to25
    {
        type            processor;
        value           nonuniform List<scalar> 6(1.40000504 1.40000504 1.40000504 1.40000504 1.40000504 1.40000504);
    }
    procBoundary20to26
    {
        type            processor;
        value           nonuniform List<scalar> 
73
(
1.40000504
1.40000504
1.40000504
1.40000504
1.40000504
1.400005039
1.400005046
1.399983122
1.40000504
1.40000504
1.40000504
1.40000504
1.40000504
1.40000504
1.40000504
1.40000504
1.40000504
1.40000504
1.40000504
1.40000504
1.40000504
1.40000504
1.40000504
1.40000504
1.40000504
1.40000504
1.40000504
1.40000504
1.40000504
1.40000504
1.40000504
1.40000504
1.40000504
1.40000504
1.40000504
1.40000504
1.40000504
1.40000504
1.40000504
1.40000504
1.40000504
1.40000504
1.40000504
1.40000504
1.40000504
1.40000504
1.40000504
1.40000504
1.40000504
1.40000504
1.40000504
1.40000504
1.40000504
1.40000504
1.40000504
1.40000504
1.40000504
1.40000504
1.40000504
1.40000504
1.40000504
1.40000504
1.40000504
1.40000504
1.40000504
1.40000504
1.40000504