/*--------------------------------*- C++ -*----------------------------------*\
  =========                 |
  \\      /  F ield         | OpenFOAM: The Open Source CFD Toolbox
   \\    /   O peration     | Website:  https://openfoam.org
    \\  /    A nd           | Version:  7
     \\/     M anipulation  |
\*---------------------------------------------------------------------------*/
FoamFile
{
    version     2.0;
    format      ascii;
    class       volScalarField;
    location    "4.5";
    object      T;
}
// * * * * * * * * * * * * * * * * * * * * * * * * * * * * * * * * * * * * * //

dimensions      [0 0 0 1 0 0 0];

internalField   nonuniform List<scalar> 
2222
(
2.767564625
2.765456213
2.767495892
2.765310492
2.763151672
2.760972532
2.767917962
2.765684497
2.763517236
2.76138641
2.759260282
2.757151922
2.755103655
2.767557773
2.765325309
2.763180355
2.761169768
2.759300251
2.757484188
2.755634846
2.753744414
2.751824369
2.770902452
2.768571038
2.766355894
2.764316925
2.762500524
2.760846196
2.759158891
2.757364157
2.755485598
2.753578956
2.751684282
1.552997318
1.548619579
1.548631485
1.553468078
1.560665895
1.565366176
1.565266867
1.562953851
1.55705299
1.554949193
1.557531467
1.564565607
1.572349763
1.577916231
1.581605822
1.584303418
1.586467245
1.589467278
1.595158581
1.603259854
1.609090617
1.609848547
1.609329268
1.608777152
1.608119996
1.607744533
1.609527391
1.612832081
1.613674479
1.613281064
1.611088309
1.607289349
1.604606339
1.603958268
1.604015945
1.604568929
1.605423714
1.605742732
1.605749403
1.605855572
1.605844772
1.605543953
1.605164421
1.605107602
1.605509691
1.606670038
1.608310497
1.610434424
1.612136717
1.612186483
1.611801486
1.610940415
1.609316353
1.607885963
1.60760023
1.60727712
1.606721495
1.606082394
1.605069634
1.604518934
1.604602789
1.604857585
1.605084996
1.60535936
1.605551827
1.605796544
1.606762263
1.384753189
1.406236473
1.427840664
1.445571046
1.459544219
1.469887914
1.474960983
1.479521029
1.48586805
1.491500178
1.497765966
1.506194822
1.514907352
1.520428088
1.522164763
1.523952903
1.528027297
1.530376189
1.532285929
1.536474826
1.540417589
1.543546026
1.543200858
1.543022427
1.545529231
1.551096485
1.556959764
1.561809984
1.566685834
1.57048865
1.570736533
1.569830709
1.567898265
1.567527988
1.568015864
1.569567425
1.571689818
1.572941543
1.573162123
1.572938337
1.572297816
1.571517824
1.571424334
1.571883501
1.573002518
1.574741275
1.576573877
1.57803288
1.57871199
1.578611499
1.578288774
1.578034565
1.577889749
1.577301003
1.576398944
1.576460954
1.576707818
1.577242305
1.578178472
1.579207421
1.580313031
1.581630442
1.582818506
1.583275217
1.583306485
1.58315461
1.584537299
1.186470022
1.213702564
1.244033781
1.269520422
1.289675547
1.306229365
1.320075387
1.334648961
1.351848812
1.369666313
1.38571934
1.400096631
1.411755074
1.420493248
1.424008355
1.42563208
1.429096216
1.433670426
1.43846667
1.444207004
1.44906175
1.453446152
1.457352591
1.459565629
1.462783036
1.469495763
1.476747304
1.48238006
1.485927869
1.487744672
1.487487798
1.486227175
1.48431829
1.48346871
1.484593057
1.487881367
1.492158368
1.494680972
1.495637893
1.496640983
1.497548808
1.498104811
1.498716272
1.499842901
1.501512642
1.50342109
1.505860474
1.5081627
1.509740774
1.510984779
1.512026987
1.512698568
1.51329705
1.513970679
1.514809298
1.515688548
1.516512715
1.517642517
1.519063151
1.520415927
1.521803134
1.522964249
1.523162417
1.522826119
1.522132015
1.520433654
1.521612844
1.049208204
1.059171569
1.076419587
1.100034859
1.126376542
1.150779357
1.17204074
1.191017894
1.210859619
1.232151148
1.250611218
1.265071327
1.27488759
1.283370762
1.291944189
1.299357648
1.307997231
1.319269002
1.330684856
1.340682524
1.350007993
1.357881843
1.366573127
1.372081655
1.376464193
1.382036935
1.388879103
1.395094054
1.397634461
1.400111536
1.402533606
1.403250125
1.404075243
1.404291867
1.405924507
1.411475079
1.416899397
1.417765033
1.417529279
1.417501219
1.417701715
1.417566466
1.416716887
1.417008652
1.418312287
1.419935019
1.422105124
1.424691587
1.426489695
1.428078867
1.430155585
1.432371526
1.434207281
1.435724584
1.437081901
1.438093435
1.439205199
1.440882666
1.443046549
1.445047681
1.446645481
1.448265819
1.449099507
1.449007662
1.448644144
1.447493064
1.448295088
1.046500014
1.043149355
1.040499843
1.041147549
1.043769694
1.04726735
1.052624398
1.059519973
1.068185071
1.082793772
1.102194946
1.122184211
1.139448138
1.155564548
1.174547712
1.194474602
1.2130176
1.230513349
1.245518987
1.257768187
1.2666566
1.273585806
1.282607819
1.292258642
1.297955949
1.302978972
1.310484756
1.319289935
1.323683332
1.328405251
1.333477766
1.338148628
1.343523382
1.348381114
1.353028897
1.358849994
1.364841732
1.369304702
1.369824978
1.369511807
1.369981591
1.37034901
1.370227396
1.370743432
1.372000757
1.373312612
1.375280627
1.377474012
1.378173958
1.378893586
1.38035132
1.38120784
1.381757594
1.382565897
1.383324286
1.38400768
1.384864381
1.386083965
1.387675767
1.388813881
1.389294875
1.389862225
1.390454869
1.39065386
1.390553655
1.390633466
1.391768799
1.073612293
1.068489193
1.063845079
1.058913357
1.053039835
1.050786944
1.053326497
1.05413611
1.054848332
1.053595549
1.054082409
1.056434213
1.059772462
1.064380325
1.070816075
1.079167058
1.091571555
1.10640712
1.123579239
1.141051073
1.1567493
1.170770885
1.185538322
1.204658032
1.221988113
1.233976168
1.246346011
1.260568084
1.27151262
1.280174913
1.288098658
1.294362374
1.30043153
1.307485595
1.313172248
1.317270398
1.322235085
1.328604487
1.330676524
1.330493834
1.331600293
1.333919579
1.335049227
1.336954983
1.340280364
1.343422173
1.346516139
1.349909369
1.352079399
1.353436789
1.354721093
1.356025077
1.356692221
1.357326264
1.358229188
1.359508967
1.36073711
1.361177365
1.361043651
1.360472672
1.35972779
1.359438504
1.359456887
1.35961727
1.360180304
1.36103568
1.362787081
1.120297322
1.116270824
1.116185458
1.113609029
1.107400316
1.098783648
1.092431877
1.08787334
1.083464926
1.078533922
1.072381365
1.065702387
1.062943475
1.06348383
1.06543928
1.06776008
1.06701148
1.066436611
1.066992792
1.068948928
1.072858532
1.078408011
1.085312917
1.09619839
1.111652533
1.12784073
1.142600507
1.160509158
1.180725797
1.197696747
1.214227999
1.230241177
1.243095573
1.256691099
1.27062446
1.277221222
1.282607336
1.292384688
1.298806573
1.300966632
1.304643706
1.310402455
1.313777772
1.317094748
1.322174682
1.327165635
1.330377738
1.333654647
1.33654927
1.337526098
1.338051451
1.339323539
1.339962807
1.340076165
1.340714947
1.342068163
1.343281725
1.343609362
1.343335289
1.342422587
1.342451525
1.34300234
1.34379026
1.344897704
1.346696389
1.348383654
1.350403461
1.179988781
1.165063253
1.155751826
1.153118843
1.15065118
1.146412805
1.139711486
1.129265439
1.11852164
1.112169918
1.10831625
1.104924885
1.098696157
1.094328861
1.092386614
1.089304294
1.085118546
1.082006882
1.079503672
1.076891747
1.075240433
1.075374413
1.077742427
1.079643022
1.080804762
1.081639926
1.082593129
1.085150527
1.089612285
1.096180948
1.10562542
1.119549439
1.136196918
1.154143598
1.174283657
1.195213234
1.212017895
1.226606725
1.243420834
1.257578135
1.26749217
1.279438208
1.290810302
1.298088675
1.305382262
1.314231324
1.316963901
1.318976557
1.322277613
1.322684407
1.322403827
1.323688526
1.324697052
1.324570829
1.325477023
1.327169072
1.328720954
1.330538617
1.331273422
1.332005717
1.333998731
1.336554976
1.338528378
1.340000675
1.34171291
1.343261936
1.344549053
1.224622766
1.218376521
1.211539563
1.200832653
1.190674395
1.185941354
1.181964073
1.176659654
1.168657015
1.156565412
1.149204348
1.14726362
1.1448236
1.140188201
1.135500358
1.130705735
1.123803971
1.116682897
1.112060034
1.108578064
1.1053888
1.101708789
1.097182377
1.092541713
1.090672635
1.089894693
1.088881992
1.086272579
1.084416301
1.084139366
1.084834585
1.086241535
1.088095737
1.090822212
1.095310782
1.101169491
1.109448602
1.118892617
1.131459985
1.149309966
1.167451999
1.185182672
1.207710355
1.22748091
1.241892609
1.258691805
1.270164196
1.276821164
1.286254474
1.291674919
1.294597311
1.299432092
1.303842032
1.308090079
1.313014485
1.317109438
1.321078366
1.325791028
1.330287855
1.332315342
1.333843375
1.335524639
1.337215233
1.337919801
1.33860673
1.33932014
1.339797785
1.266181726
1.259679408
1.255475756
1.250161829
1.243024096
1.231536391
1.218754478
1.211329512
1.206065456
1.201201467
1.194922826
1.185678506
1.180082614
1.17546031
1.170643717
1.166539025
1.162247761
1.156036208
1.147015085
1.139691191
1.136629467
1.134647684
1.132260118
1.128681902
1.122162867
1.116253477
1.113787648
1.111409138
1.108117188
1.102880508
1.099784457
1.099534191
1.099247368
1.098261813
1.096409653
1.096686691
1.096423775
1.095888961
1.09597365
1.097157564
1.100346688
1.104952908
1.112416094
1.123715553
1.136006772
1.150670012
1.168853763
1.185260218
1.20158907
1.220631404
1.237703192
1.25298474
1.269597089
1.283892613
1.296358159
1.307399008
1.313518987
1.316830513
1.321434727
1.324026976
1.324318329
1.325645523
1.329345446
1.331257009
1.33049946
1.33044843
1.330365703
1.322721829
1.312222109
1.297404436
1.287511665
1.281114508
1.274401482
1.266619504
1.254517699
1.241146805
1.236019132
1.232646309
1.228262598
1.222982633
1.216211121
1.20715862
1.199159256
1.195046012
1.191825251
1.187616787
1.181667015
1.17396748
1.168595288
1.166234812
1.164185667
1.160590596
1.154157016
1.145712033
1.140624672
1.138057209
1.135464307
1.13062597
1.125190398
1.12287918
1.121125327
1.117801352
1.112470405
1.108221692
1.105967255
1.104555819
1.102376801
1.101129013
1.101883552
1.103856251
1.104823844
1.105082937
1.105717987
1.107541706
1.110799823
1.115240646
1.122809824
1.134991554
1.149801763
1.167841742
1.187487572
1.204906681
1.223705761
1.239801982
1.250506006
1.263002676
1.274593472
1.282036336
1.288538519
1.299510793
1.306385639
1.310172588
1.313900455
1.317454102
1.36283073
1.355823422
1.347590832
1.337342583
1.32068139
1.307836903
1.301567307
1.295131742
1.288475486
1.279860888
1.268544314
1.261529308
1.257003563
1.252433452
1.246805071
1.238890129
1.227827179
1.219635226
1.216467787
1.213729866
1.209983866
1.205059156
1.197760685
1.190599449
1.186672118
1.183505126
1.179689236
1.172902722
1.165823229
1.163972749
1.16228114
1.158733679
1.152375648
1.148812257
1.146650122
1.143203165
1.136267432
1.131015806
1.129787872
1.128340008
1.124785579
1.120870286
1.119657194
1.118465599
1.115779643
1.112741452
1.11083216
1.110010354
1.10943277
1.109518908
1.110373393
1.112122971
1.114553757
1.117739534
1.121657945
1.127728045
1.136909944
1.147803807
1.161440247
1.179682311
1.199767729
1.218125095
1.236823033
1.255980401
1.272431978
1.284721548
1.297562909
1.411357766
1.393848248
1.382650037
1.374502507
1.365022936
1.355040083
1.340450581
1.327486824
1.322364023
1.317382445
1.311258899
1.30368956
1.291964319
1.281391553
1.275770226
1.271102463
1.265578521
1.258919005
1.249841455
1.241886032
1.238384508
1.235743684
1.232088577
1.226368119
1.217499607
1.210827924
1.20774832
1.205029702
1.20049344
1.1939314
1.190639201
1.188550911
1.184913477
1.178328135
1.173575083
1.170803248
1.167247464
1.160590509
1.155237779
1.154015641
1.152534706
1.148738708
1.143478559
1.140512495
1.137698777
1.132412679
1.126306789
1.123467536
1.121981838
1.119423159
1.118464714
1.118561765
1.118071205
1.117110073
1.116429128
1.115470439
1.115358022
1.115873181
1.117498275
1.120868046
1.125890883
1.13340362
1.143308994
1.155438795
1.16941744
1.183910981
1.203341844
1.451143468
1.439481562
1.427545446
1.409964899
1.396827619
1.389406484
1.381104066
1.372984888
1.362603654
1.349390543
1.341691166
1.33600833
1.329263267
1.321356948
1.310021051
1.298805565
1.293518576
1.289648667
1.285026121
1.279424697
1.271270796
1.262238134
1.257112809
1.253460325
1.249388584
1.243537248
1.23458092
1.229432905
1.226837233
1.223671374
1.21788449
1.213168117
1.210355223
1.206628108
1.19986747
1.194221257
1.191809521
1.189224938
1.184068804
1.17901458
1.178233064
1.176792335
1.172487699
1.166997619
1.163849233
1.160253439
1.153592541
1.149562573
1.148440674
1.146493054
1.143385961
1.141369717
1.139136587
1.135307762
1.131081958
1.127630144
1.124272691
1.123474599
1.123561821
1.123854064
1.124518008
1.124762733
1.12493299
1.124686087
1.124728855
1.125531019
1.129305731
1.488266143
1.47367176
1.462571301
1.450196223
1.439398356
1.426031479
1.412832078
1.40535649
1.397978815
1.390000593
1.380476718
1.366474291
1.35614731
1.349994497
1.34358244
1.336982042
1.328862728
1.318279983
1.311388103
1.307067352
1.302448362
1.296947293
1.288629782
1.278479823
1.273566322
1.27026294
1.266453479
1.260037181
1.253302295
1.249712544
1.246048817
1.240059219
1.235316094
1.232410373
1.228301296
1.220883719
1.215369221
1.213894489
1.211797793
1.206611236
1.202514399
1.200675812
1.19774057
1.191739137
1.186511406
1.183158248
1.179021969
1.174053778
1.171974383
1.170288022
1.16760185
1.164583986
1.161443291
1.15721745
1.152031299
1.14751742
1.143565114
1.140619598
1.139703641
1.138495218
1.136616329
1.134191545
1.132292454
1.130166356
1.127049608
1.125668106
1.126060844
1.523749766
1.510952072
1.499003626
1.484268106
1.472810338
1.462061541
1.452123654
1.442053985
1.428506363
1.418885974
1.410878562
1.40218619
1.393582384
1.381411413
1.369923095
1.364333305
1.35932017
1.353513944
1.346672095
1.336167685
1.326848676
1.321822625
1.317024999
1.311706607
1.30428598
1.295515721
1.290838082
1.286998094
1.282342251
1.276814869
1.272029844
1.266602679
1.25957533
1.254339335
1.251473736
1.248055615
1.241530323
1.236383411
1.234187796
1.231138475
1.225587973
1.222094053
1.219487724
1.214909747
1.208623825
1.205129989
1.202478763
1.198981562
1.196540674
1.194438169
1.191551757
1.188544814
1.185383694
1.180954808
1.175717664
1.172083808
1.169292955
1.165943456
1.164418408
1.163117781
1.160924636
1.157565484
1.153655569
1.149498751
1.145538441
1.142051298
1.139928641
1.56128263
1.544487903
1.530337527
1.519132319
1.509085568
1.497445819
1.484202225
1.473248103
1.462705149
1.453423354
1.441060979
1.429473673
1.421923394
1.414002378
1.406530167
1.397568504
1.385625014
1.378468936
1.373540089
1.367625406
1.360884152
1.351100348
1.340547655
1.335445717
1.331196198
1.326514208
1.320533164
1.313220482
1.307262971
1.301612586
1.296449751
1.292211936
1.287287472
1.279631604
1.273504505
1.270628791
1.267465295
1.261903627
1.258092009
1.255208135
1.249992719
1.243904496
1.240700285
1.237424551
1.231897355
1.227741145
1.224933917
1.22147999
1.218892045
1.216614894
1.213174724
1.209454681
1.206154142
1.201858844
1.196303387
1.193249198
1.191354747
1.188240053
1.185505818
1.183983931
1.181716176
1.177849603
1.1736619
1.169726137
1.165000105
1.161119015
1.158161355
1.592788804
1.580182546
1.566622155
1.551452424
1.53838127
1.528617983
1.518272511
1.507395802
1.493342957
1.481632638
1.471698175
1.462895082
1.45367263
1.442191854
1.434033167
1.426642259
1.419001776
1.411125522
1.399774264
1.390663116
1.385332516
1.379624119
1.373532998
1.36580285
1.355563137
1.349548415
1.345269484
1.340616804
1.33549114
1.329073896
1.320998409
1.314137275
1.30962557
1.305780309
1.300269757
1.294416818
1.290378948
1.285307275
1.27993381
1.276869151
1.273421098
1.266793808
1.261305099
1.257600847
1.252883595
1.249010767
1.24653486
1.243005467
1.239376274
1.236746114
1.233279631
1.228686368
1.225083693
1.221653716
1.216419226
1.213305296
1.212064746
1.210126886
1.206289639
1.204059465
1.202107501
1.198179482
1.193229072
1.190338684
1.187676371
1.183903361
1.180810003
1.622580109
1.612003292
1.598499805
1.58444089
1.57117806
1.558111719
1.544736014
1.535227078
1.524985775
1.514568474
1.502239514
1.490115863
1.48147188
1.473188454
1.465507498
1.455313225
1.445153199
1.437089015
1.429017889
1.421907877
1.41283312
1.402790435
1.397068081
1.391832166
1.386021559
1.379718296
1.370460232
1.362107517
1.35726274
1.352970891
1.348280499
1.34219199
1.333173451
1.326819617
1.322447151
1.318151608
1.314565395
1.310642507
1.303768373
1.297645108
1.293670072
1.288643681
1.283200079
1.279492823
1.274889162
1.270011038
1.267711978
1.265092366
1.260752902
1.257133025
1.253432946
1.24784704
1.243564836
1.241064464
1.237581346
1.233414277
1.231799796
1.230211509
1.226583116
1.222226169
1.219597046
1.216629537
1.211255216
1.207212216
1.205371781
1.203176884
1.199562408
1.652014471
1.635586037
1.625724038
1.615825249
1.604026284
1.587503084
1.573202963
1.562638671
1.552234592
1.541818815
1.531693313
1.521644079
1.511803789
1.499445738
1.490146149
1.482399229
1.474837291
1.466151233
1.454719391
1.446113607
1.438907906
1.432255246
1.425532656
1.416058509
1.408434852
1.402979642
1.397069996
1.390947854
1.383076074
1.373472205
1.367969334
1.364075669
1.359384584
1.354192031
1.347365286
1.339195608
1.334032534
1.330966345
1.327370809
1.321833364
1.315976931
1.309405813
1.302633916
1.29939079
1.296727273
1.29185729
1.287965833
1.285178555
1.280832911
1.276080018
1.272351393
1.267241435
1.260932722
1.258233569
1.256368212
1.25290287
1.249673765
1.247769566
1.245067957
1.239788967
1.235059238
1.232318483
1.229009568
1.224345488
1.222393742
1.221261423
1.218506942
1.683180278
1.668582974
1.650992555
1.636702763
1.628449893
1.618525323
1.605924272
1.589831741
1.577057322
1.568473285
1.560012656
1.549162544
1.538278056
1.527928638
1.518700019
1.50749133
1.49763646
1.490438878
1.483013838
1.475427815
1.464851009
1.454916372
1.448515711
1.442383699
1.436163207
1.427927014
1.41857427
1.412029203
1.406254917
1.400405502
1.394097591
1.385131127
1.378471015
1.374574861
1.370352951
1.365511683
1.359213237
1.350815209
1.344917972
1.34059346
1.336588437
1.332429144
1.325715685
1.319657277
1.316414935
1.312590671
1.308043207
1.304796137
1.300708944
1.294419607
1.289780606
1.286362657
1.281256138
1.276572142
1.274730505
1.272416015
1.268025953
1.264661765
1.262352478
1.258425914
1.252039069
1.248122807
1.246136793
1.242790366
1.239058616
1.237686954
1.235515714
1.70296898
1.692520891
1.680286525
1.666160469
1.650158225
1.638079094
1.629858346
1.62006892
1.607954074
1.592831618
1.581884892
1.573992576
1.565534007
1.554481212
1.542793827
1.532816523
1.524397824
1.515345913
1.505325702
1.497976322
1.490515766
1.483079767
1.473803073
1.463294612
1.456696995
1.45091796
1.444821692
1.437554547
1.427473075
1.419993451
1.414914175
1.409564748
1.404143711
1.397090825
1.388894466
1.383817967
1.379510682
1.374418502
1.368413268
1.360382773
1.353859405
1.350155848
1.346472598
1.341885611
1.337614448
1.332964045
1.326745252
1.321917555
1.318566971
1.313742795
1.30734458
1.30362929
1.300333181
1.29543482
1.291922748
1.289960281
1.286707805
1.281068721
1.276906062
1.273920966
1.269369132
1.263566751
1.26129029
1.259603735
1.2561117
1.252851987
1.250274295
1.727159591
1.711111214
1.69893047
1.688888406
1.677765933
1.665166444
1.650180089
1.638642893
1.630351223
1.620968911
1.609763657
1.595672374
1.585164413
1.577323392
1.568984184
1.558713757
1.547196922
1.537902752
1.529733817
1.522079738
1.51249245
1.50421697
1.496402768
1.488742975
1.4811358
1.471048672
1.463716335
1.458020204
1.451801115
1.445399208
1.436516721
1.428044799
1.422989816
1.418195881
1.412942601
1.406460818
1.398138546
1.391568311
1.386456603
1.381427119
1.376497924
1.370719811
1.364891536
1.35975367
1.355326004
1.351742649
1.347367203
1.340726766
1.335026949
1.33048333
1.325402147
1.321253791
1.318575874
1.314972451
1.309274357
1.305522433
1.302976847
1.298874673
1.292573329
1.288778927
1.285884148
1.281080287
1.277018327
1.275497931
1.273204829
1.269089368
1.265266144
1.746307405
1.734614943
1.722556934
1.707757017
1.69532779
1.685462266
1.674916813
1.663872179
1.650156432
1.638752765
1.629963182
1.620715551
1.610953532
1.598269015
1.587356022
1.579462479
1.571567832
1.562848238
1.551572549
1.541967022
1.533933694
1.526583178
1.518302307
1.509129813
1.501520098
1.493534009
1.486520937
1.478084752
1.470064674
1.464425046
1.45802082
1.451806208
1.444830236
1.436236604
1.430042981
1.42470429
1.41913189
1.413643595
1.406419095
1.398696396
1.393650972
1.389327901
1.385192963
1.380737329
1.374402577
1.367762949
1.362857379
1.358192893
1.353390399
1.348657733
1.343429418
1.33784222
1.334145729
1.331674863
1.328199106
1.322378791
1.317726447
1.314043499
1.30877132
1.303678337
1.301066135
1.298205016
1.293507561
1.290201591
1.287800079
1.284361225
1.27969362
1.765219822
1.750886992
1.738768926
1.727700097
1.717117838
1.705343397
1.692115613
1.681341349
1.671136218
1.66142062
1.650280271
1.6382813
1.629262065
1.619949156
1.610872236
1.600259541
1.589359807
1.581249751
1.57319803
1.565274026
1.555584024
1.544902522
1.536896241
1.529656951
1.52268867
1.51436293
1.505698684
1.497937355
1.490621896
1.48422096
1.476596227
1.469918229
1.463663029
1.456961282
1.450986979
1.443259852
1.435096701
1.429903125
1.425129982
1.420235452
1.414942211
1.407277885
1.400479938
1.396397671
1.39236816
1.38762355
1.381126029
1.373766283
1.368377906
1.364441583
1.361108952
1.357468285
1.35175115
1.346400283
1.342911368
1.338695081
1.333289489
1.328924629
1.324822259
1.319323925
1.315303577
1.313102749
1.310122608
1.30588732
1.302287808
1.298644026
1.293931063
1.779885933
1.769083397
1.758028846
1.745186816
1.732156169
1.721301141
1.711239699
1.701224579
1.689567128
1.677581356
1.66744601
1.658135863
1.649264199
1.638508411
1.627690837
1.618594571
1.609827922
1.601407338
1.590932216
1.582397874
1.574463013
1.566064375
1.557810008
1.547991755
1.539611305
1.532493104
1.525651529
1.518950624
1.510486526
1.501814668
1.494633076
1.48861409
1.482562478
1.474614398
1.467604106
1.461455192
1.455676117
1.449407491
1.440555562
1.434854007
1.431445127
1.427066371
1.421672116
1.414077969
1.405821111
1.40120617
1.397248229
1.392687242
1.387791149
1.381028057
1.375257961
1.372145881
1.368731189
1.363832112
1.358227159
1.353199754
1.347704086
1.342603909
1.339369938
1.336289268
1.33163268
1.327387837
1.324407919
1.320589477
1.316402946
1.31266548
1.30805423
1.797039104
1.7834482
1.770882913
1.760292505
1.75014818
1.739551074
1.72698655
1.715305894
1.705526701
1.696061553
1.686383432
1.674859379
1.664151901
1.655083819
1.646343969
1.637592888
1.627069894
1.617178804
1.608685047
1.600928726
1.592992018
1.58289401
1.574433332
1.566821154
1.559631024
1.551338309
1.541482471
1.534963612
1.529091334
1.522700878
1.514476608
1.504227525
1.497841341
1.492642755
1.486768272
1.478534291
1.471283564
1.466110522
1.460737506
1.454743783
1.446780264
1.440144511
1.436083563
1.431535885
1.425889125
1.418955005
1.410904042
1.405964204
1.402699602
1.398938028
1.394226368
1.38810049
1.382395894
1.377418928
1.372489339
1.368047506
1.36388988
1.358488589
1.353114489
1.349990117
1.347056941
1.343084007
1.339056206
1.33501006
1.329972039
1.325652062
1.321903328
1.808764999
1.798215547
1.787705019
1.776133181
1.763161888
1.752114459
1.7424147
1.732853038
1.722466825
1.710266834
1.699845272
1.690772918
1.681901493
1.672430354
1.661314959
1.652109206
1.643645205
1.63534101
1.626559332
1.616350722
1.608097458
1.600228083
1.592612055
1.584021858
1.575152048
1.567664628
1.560446755
1.553248138
1.543533551
1.536702742
1.531551777
1.524933534
1.516375914
1.506570845
1.500886439
1.496067837
1.490322307
1.482828749
1.476105399
1.470617109
1.465018193
1.458992616
1.450866985
1.443752577
1.439412827
1.435067368
1.430132819
1.424790212
1.417659457
1.411414054
1.407465579
1.403460068
1.39881777
1.393397812
1.387080089
1.381253577
1.377010824
1.373443125
1.369881791
1.365497857
1.361129037
1.356788029
1.352471352
1.348882456
1.345041938
1.339971446
1.335436808
1.823780067
1.811313982
1.798804684
1.788345385
1.778339191
1.768219782
1.756754407
1.744863089
1.73504031
1.725746408
1.716522621
1.706322122
1.695023462
1.68574495
1.677247667
1.6688584
1.65963501
1.649269523
1.641259087
1.633094225
1.624837333
1.615709009
1.606879172
1.600011931
1.592207876
1.583874527
1.575498041
1.568993705
1.561583815
1.552867121
1.544261152
1.53878656
1.533533282
1.52683496
1.518612826
1.510061797
1.504104227
1.498864539
1.493538788
1.486830632
1.47988148
1.473745848
1.467196556
1.461279162
1.454794001
1.447751953
1.443288877
1.43948868
1.435039972
1.429846426
1.42275977
1.415393986
1.410397312
1.406511919
1.402623818
1.398490115
1.393549238
1.387266358
1.382655453
1.37917288
1.37570503
1.371847063
1.367071988
1.361989115
1.357975268
1.354547307
1.350402814
1.833664948
1.82283305
1.812636882
1.802285159
1.790606633
1.779121369
1.769057739
1.759421749
1.749890511
1.739109263
1.728308659
1.719017319
1.710079866
1.701427886
1.692090893
1.681929596
1.672602072
1.664252976
1.65644108
1.648396266
1.638921198
1.630130228
1.622467801
1.614728467
1.607058129
1.598534475
1.591222799
1.583979511
1.576492016
1.569352726
1.56178021
1.553373248
1.545939812
1.540524236
1.535248829
1.529306323
1.522167345
1.51283486
1.505474655
1.500436662
1.495579236
1.490188919
1.483187145
1.475933276
1.46941759
1.463771709
1.4590112
1.453102415
1.447626404
1.442924812
1.437716435
1.432363436
1.42661244
1.419349264
1.413826076
1.41092578
1.408161548
1.40459649
1.399853341
1.393409726
1.387443419
1.383614318
1.3806037
1.377413575
1.372981788
1.368264006
1.36407686
1.845901138
1.835340531
1.823520986
1.811872454
1.801919283
1.792353116
1.78243224
1.771329115
1.76054277
1.75139155
1.742390074
1.733322074
1.723123074
1.713037655
1.704652457
1.69624878
1.687783916
1.678633316
1.668973039
1.660554588
1.652663029
1.64522068
1.637946959
1.629570274
1.620106535
1.612061774
1.605193412
1.598837735
1.591303765
1.583377082
1.576305238
1.568993675
1.562406128
1.555044788
1.54699096
1.54133884
1.536212596
1.530259596
1.523776198
1.515056887
1.506050753
1.501619154
1.49787017
1.493061304
1.486963343
1.478787956
1.471773196
1.466694051
1.462344498
1.457439194
1.450951792
1.445132458
1.440197957
1.435326156
1.430820045
1.42558057
1.41951046
1.415800164
1.412930799
1.409170796
1.404488495
1.39798751
1.39154926
1.388776966
1.386380726
1.383451651
1.378938848
1.823463563
1.813725952
1.803115598
1.792088356
1.782161141
1.773121355
1.764098487
1.754315733
1.743997202
1.734925882
1.726377757
1.717843219
1.708510386
1.698900955
1.690919564
1.682824166
1.674782689
1.666129772
1.656950334
1.649666809
1.642577144
1.635166597
1.627791831
1.618826968
1.609827148
1.60329473
1.597668047
1.591763175
1.583916678
1.574935631
1.567791752
1.56187148
1.556224274
1.548591836
1.541080864
1.535778165
1.530168508
1.523946052
1.516762238
1.508293652
1.50352979
1.500162908
1.495510813
1.489505726
1.481105829
1.473399374
1.469250077
1.465377413
1.460895631
1.454954866
1.448300503
1.443697547
1.43981364
1.435711339
1.430707263
1.424111466
1.419636299
1.416497997
1.412723269
1.40852713
1.403600827
1.397429177
1.39414288
1.391356821
1.607850078
1.601939166
1.596904822
1.590642672
1.582674517
1.573294649
1.566800326
1.561565217
1.556028295
1.548983246
1.541137814
1.535549605
1.530526895
1.52485477
1.518525625
1.510824419
1.505314828
1.501539979
1.496723377
1.490734553
1.482945703
1.475758459
1.472339399
1.469062313
1.464786002
1.459101868
1.452008872
1.447053945
1.443222148
1.438997607
1.434462646
1.428605362
1.423120404
1.419893875
1.416787136
1.413147703
1.407928102
1.402167995
1.454630966
1.449206737
1.445857021
1.442197151
1.437933866
1.432816179
1.42686741
1.422977872
1.41982205
1.415433906
)
;

boundaryField
{
    inlet
    {
        type            fixedValue;
        value           nonuniform 0();
    }
    outlet
    {
        type            inletOutlet;
        inletValue      nonuniform 0();
        value           nonuniform 0();
    }
    bottom
    {
        type            slip;
    }
    top
    {
        type            slip;
    }
    obstacle
    {
        type            zeroGradient;
    }
    defaultFaces
    {
        type            empty;
    }
    procBoundary20to13
    {
        type            processor;
        value           nonuniform List<scalar> 6(2.769680015 2.769745258 2.770235527 2.76985687 2.773302057 1.554784209);
    }
    procBoundary20to14
    {
        type            processor;
        value           nonuniform List<scalar> 
16
(
2.767131783
2.765208491
2.763341839
2.763341839
2.76120285
2.758744542
2.758744542
2.756502262
2.754326944
2.753115209
2.753115209
2.751151035
2.749893794
2.749893794
2.747966011
2.749815262
)
;
    }
    procBoundary20to19
    {
        type            processor;
        value           nonuniform List<scalar> 
30
(
1.366882408
1.160823627
1.041717232
1.05137819
1.079998527
1.135857177
1.191142934
1.231138524
1.282674588
1.331291978
1.371038946
1.423816244
1.461977386
1.503840947
1.538304961
1.575369101
1.605445363
1.634254047
1.670758454
1.69545029
1.715977151
1.741734408
1.757843154
1.778207688
1.79177172
1.808846604
1.820618982
1.834774987
1.845880087
1.855833583
)
;
    }
    procBoundary20to26
    {
        type            processor;
        value           nonuniform List<scalar> 
70
(
1.855122939
1.843665603
1.833121443
1.833121443
1.832762198
1.82168834
1.812105934
1.803294611
1.794173737
1.784208216
1.773589139
1.764172726
1.755778937
1.747269392
1.738286279
1.728251435
1.719106371
1.711264791
1.703319179
1.695105539
1.685755788
1.677670732
1.670298497
1.662807444
1.654735029
1.645761705
1.639111568
1.632384056
1.625046473
1.617030033
1.617030033
1.622346417
1.614683921
1.606134974
1.599895924
1.59473501
1.588485237
1.580816205
1.572134574
1.566147146
1.561179068
1.555846304
1.549280536
1.541572953
1.535846291
1.531062501
1.525855435
1.519776366
1.512135426
1.506262008
1.502365447
1.497870137
1.49258903
1.48611526
1.479283872
1.475334387
1.471845972
1.46733368
1.461819539
1.461819539
1.468614172
1.463742603
1.457593848
1.452040298
1.448098065
1.444413773
1.440563977
1.435587688
1.429357102
1.425052269
)
;
    }
    procBoundary20to27
    {
        type            processor;
        value           nonuniform List<scalar> 
34
(
1.532143354
1.559329149
1.508886629
1.441801166
1.390504689
1.363667801
1.350166573
1.342530207
1.335579832
1.329866229
1.3255008
1.312165006
1.230578991
1.141544027
1.128384885
1.138235862
1.155287021
1.177823451
1.194943821
1.212752741
1.228596527
1.243458976
1.25857703
1.272538144
1.286984698
1.301065807