/*--------------------------------*- C++ -*----------------------------------*\
  =========                 |
  \\      /  F ield         | OpenFOAM: The Open Source CFD Toolbox
   \\    /   O peration     | Website:  https://openfoam.org
    \\  /    A nd           | Version:  7
     \\/     M anipulation  |
\*---------------------------------------------------------------------------*/
FoamFile
{
    version     2.0;
    format      ascii;
    class       volScalarField;
    location    "2.1";
    object      T;
}
// * * * * * * * * * * * * * * * * * * * * * * * * * * * * * * * * * * * * * //

dimensions      [0 0 0 1 0 0 0];

internalField   nonuniform List<scalar> 8(0.995273221 0.9936497735 1.010387998 1.001682891 1.014372088 1.012928873 1.015208204 1.020095142);

boundaryField
{
    inlet
    {
        type            fixedValue;
        value           nonuniform 0();
    }
    outlet
    {
        type            inletOutlet;
        inletValue      nonuniform 0();
        value           nonuniform 0();
    }
    bottom
    {
        type            slip;
    }
    top
    {
        type            slip;
    }
    obstacle
    {
        type            zeroGradient;
    }
    defaultFaces
    {
        type            empty;
    }
    procBoundary34to28
    {
        type            processor;
        value           nonuniform List<scalar> 2(0.9991443507 1.006308048);
    }
    procBoundary34to33
    {
        type            processor;
        value           nonuniform List<scalar> 4(1.01727995 1.016926393 1.011884764 1.005910821);
    }
    procBoundary34to35
    {
        type            processor;
        value           nonuniform List<scalar> 4(1.000039613 1.002694618 1.007135719 1.01610506);
    }
}


// ************************************************************************* //
