/*--------------------------------*- C++ -*----------------------------------*\
  =========                 |
  \\      /  F ield         | OpenFOAM: The Open Source CFD Toolbox
   \\    /   O peration     | Website:  https://openfoam.org
    \\  /    A nd           | Version:  7
     \\/     M anipulation  |
\*---------------------------------------------------------------------------*/
FoamFile
{
    version     2.0;
    format      ascii;
    class       volVectorField;
    location    "2.1";
    object      U;
}
// * * * * * * * * * * * * * * * * * * * * * * * * * * * * * * * * * * * * * //

dimensions      [0 1 -1 0 0 0 0];

internalField   nonuniform List<vector> 8((2.994369322 0.004097741055 0) (3.002687601 -0.01542643993 0) (2.996919948 0.01691324597 0) (3.003293099 -0.01056193397 0) (2.989234895 0.02773921297 0) (2.992223761 0.007237722771 0) (2.987026147 0.01662786032 0) (2.984155753 0.008984532389 0));

boundaryField
{
    inlet
    {
        type            fixedValue;
        value           nonuniform 0();
    }
    outlet
    {
        type            inletOutlet;
        inletValue      nonuniform 0();
        value           nonuniform 0();
    }
    bottom
    {
        type            slip;
    }
    top
    {
        type            slip;
    }
    obstacle
    {
        type            slip;
    }
    defaultFaces
    {
        type            empty;
    }
    procBoundary34to28
    {
        type            processor;
        value           nonuniform List<vector> 2((3.008650952 -0.07826950542 0) (2.997506425 -0.02750082636 0));
    }
    procBoundary34to33
    {
        type            processor;
        value           nonuniform List<vector> 4((2.980043829 0.04207340918 0) (2.993031119 0.03664610662 0) (2.995991063 0.03548763103 0) (2.99461542 0.007676679958 0));
    }
    procBoundary34to35
    {
        type            processor;
        value           nonuniform List<vector> 4((3.001627794 -0.01639427685 0) (3.000491021 -0.03546196159 0) (2.992516074 -0.01471978384 0) (2.988082207 0.0003630616243 0));
    }
}


// ************************************************************************* //
