/*--------------------------------*- C++ -*----------------------------------*\
  =========                 |
  \\      /  F ield         | OpenFOAM: The Open Source CFD Toolbox
   \\    /   O peration     | Website:  https://openfoam.org
    \\  /    A nd           | Version:  7
     \\/     M anipulation  |
\*---------------------------------------------------------------------------*/
FoamFile
{
    version     2.0;
    format      ascii;
    class       volScalarField;
    location    "1.8";
    object      p;
}
// * * * * * * * * * * * * * * * * * * * * * * * * * * * * * * * * * * * * * //

dimensions      [1 -1 -2 0 0 0 0];

internalField   nonuniform List<scalar> 
23
(
0.8821112029
0.8915775284
1.008359667
0.91152188
0.8848314678
1.11959339
1.032125779
0.9468817962
1.143881596
1.118457732
1.049448543
1.141010276
1.137311664
1.11556313
1.092567818
1.117686175
1.12665373
1.03470124
1.084546873
1.122915902
1.008589258
1.043034055
1.106550593
)
;

boundaryField
{
    inlet
    {
        type            fixedValue;
        value           nonuniform 0();
    }
    outlet
    {
        type            zeroGradient;
    }
    bottom
    {
        type            slip;
    }
    top
    {
        type            slip;
    }
    obstacle
    {
        type            zeroGradient;
    }
    defaultFaces
    {
        type            empty;
    }
    procBoundary34to27
    {
        type            processor;
        value           uniform 1.129796114;
    }
    procBoundary34to28
    {
        type            processor;
        value           nonuniform List<scalar> 4(0.8793808794 0.9519921303 0.8962426741 0.8962426741);
    }
    procBoundary34to33
    {
        type            processor;
        value           nonuniform List<scalar> 6(1.168626315 1.144177824 1.089832138 1.034237937 1.007563701 1.000954709);
    }
    procBoundary34to35
    {
        type            processor;
        value           nonuniform List<scalar> 8(0.9270053724 0.8951179929 0.9215727102 0.9743034992 1.061051044 1.115679058 1.157905287 1.177646394);
    }
}


// ************************************************************************* //
