/*--------------------------------*- C++ -*----------------------------------*\
  =========                 |
  \\      /  F ield         | OpenFOAM: The Open Source CFD Toolbox
   \\    /   O peration     | Website:  https://openfoam.org
    \\  /    A nd           | Version:  7
     \\/     M anipulation  |
\*---------------------------------------------------------------------------*/
FoamFile
{
    version     2.0;
    format      ascii;
    class       volScalarField;
    location    "4.8";
    object      p;
}
// * * * * * * * * * * * * * * * * * * * * * * * * * * * * * * * * * * * * * //

dimensions      [1 -1 -2 0 0 0 0];

internalField   nonuniform List<scalar> 8(1.092916018 1.047073743 1.059470668 1.058395329 1.014968382 1.041860951 1.001515674 1.02079009);

boundaryField
{
    inlet
    {
        type            fixedValue;
        value           nonuniform 0();
    }
    outlet
    {
        type            zeroGradient;
    }
    bottom
    {
        type            slip;
    }
    top
    {
        type            slip;
    }
    obstacle
    {
        type            zeroGradient;
    }
    defaultFaces
    {
        type            empty;
    }
    procBoundary33to26
    {
        type            processor;
        value           uniform 1.095657353;
    }
    procBoundary33to27
    {
        type            processor;
        value           nonuniform List<scalar> 2(1.158554275 0.9325692402);
    }
    procBoundary33to32
    {
        type            processor;
        value           nonuniform List<scalar> 3(1.005744827 1.000031997 1.00000012);
    }
    procBoundary33to34
    {
        type            processor;
        value           nonuniform List<scalar> 4(0.9618623874 1.033366973 1.050679006 1.05399038);
    }
}


// ************************************************************************* //
