/*--------------------------------*- C++ -*----------------------------------*\
  =========                 |
  \\      /  F ield         | OpenFOAM: The Open Source CFD Toolbox
   \\    /   O peration     | Website:  https://openfoam.org
    \\  /    A nd           | Version:  7
     \\/     M anipulation  |
\*---------------------------------------------------------------------------*/
FoamFile
{
    version     2.0;
    format      ascii;
    class       volScalarField;
    location    "3";
    object      p;
}
// * * * * * * * * * * * * * * * * * * * * * * * * * * * * * * * * * * * * * //

dimensions      [1 -1 -2 0 0 0 0];

internalField   nonuniform List<scalar> 
22
(
1.011487099
1.022058325
1.022193599
1.001243746
1.016533508
1.018838581
0.9884835537
0.9861139309
1.011972745
1.016425067
0.9862117842
0.950755625
1.009018584
1.015532295
0.9846001246
0.9082318409
0.9724459604
0.9881124356
0.8363193776
0.879386345
0.9519722544
0.8962436928
)
;

boundaryField
{
    inlet
    {
        type            fixedValue;
        value           nonuniform 0();
    }
    outlet
    {
        type            zeroGradient;
    }
    bottom
    {
        type            slip;
    }
    top
    {
        type            slip;
    }
    obstacle
    {
        type            zeroGradient;
    }
    defaultFaces
    {
        type            empty;
    }
    procBoundary28to21
    {
        type            processor;
        value           nonuniform List<scalar> 2(0.9323480063 0.8890582175);
    }
    procBoundary28to22
    {
        type            processor;
        value           nonuniform List<scalar> 3(1.019098595 1.017428509 1.016889517);
    }
    procBoundary28to27
    {
        type            processor;
        value           nonuniform List<scalar> 6(0.8485235271 0.7906481858 0.8220251822 0.8220251822 0.8208706714 0.9713226815);
    }
    procBoundary28to29
    {
        type            processor;
        value           nonuniform List<scalar> 7(0.9889502463 0.9889502463 0.9933441922 0.9909551159 0.9888289401 0.9974482225 0.9865486102);
    }
    procBoundary28to34
    {
        type            processor;
        value           nonuniform List<scalar> 4(0.8821132267 0.8915800631 0.8821132267 1.008358475);
    }
}


// ************************************************************************* //
