/*--------------------------------*- C++ -*----------------------------------*\
  =========                 |
  \\      /  F ield         | OpenFOAM: The Open Source CFD Toolbox
   \\    /   O peration     | Website:  https://openfoam.org
    \\  /    A nd           | Version:  7
     \\/     M anipulation  |
\*---------------------------------------------------------------------------*/
FoamFile
{
    version     2.0;
    format      ascii;
    class       volScalarField;
    location    "5";
    object      p;
}
// * * * * * * * * * * * * * * * * * * * * * * * * * * * * * * * * * * * * * //

dimensions      [1 -1 -2 0 0 0 0];

internalField   nonuniform List<scalar> 
22
(
0.7307994899
1.015127599
0.7299222562
0.96607194
0.7166164162
0.9272198853
0.7049706763
0.8774307678
1.026238085
0.6945497044
0.8229647849
1.001812966
0.6857260897
0.7802534308
0.9693578797
0.6778472037
0.7493079524
0.9333574401
0.6699375969
0.7228503599
0.8925384115
0.6562638537
)
;

boundaryField
{
    inlet
    {
        type            fixedValue;
        value           nonuniform 0();
    }
    outlet
    {
        type            zeroGradient;
    }
    bottom
    {
        type            slip;
    }
    top
    {
        type            slip;
    }
    obstacle
    {
        type            zeroGradient;
    }
    defaultFaces
    {
        type            empty;
    }
    procBoundary21to15
    {
        type            processor;
        value           nonuniform List<scalar> 2(0.7277265801 1.037241679);
    }
    procBoundary21to22
    {
        type            processor;
        value           nonuniform List<scalar> 7(1.048379561 1.046211675 1.038307356 1.038307356 1.019491641 1.01947469 1.019453357);
    }
    procBoundary21to27
    {
        type            processor;
        value           nonuniform List<scalar> 4(0.6969782243 0.8481827449 0.6969782243 0.682519082);
    }
    procBoundary21to28
    {
        type            processor;
        value           nonuniform List<scalar> 2(1.011331928 1.001033152);
    }
}


// ************************************************************************* //
