/*--------------------------------*- C++ -*----------------------------------*\
  =========                 |
  \\      /  F ield         | OpenFOAM: The Open Source CFD Toolbox
   \\    /   O peration     | Website:  https://openfoam.org
    \\  /    A nd           | Version:  7
     \\/     M anipulation  |
\*---------------------------------------------------------------------------*/
FoamFile
{
    version     2.0;
    format      ascii;
    class       volScalarField;
    location    "0.8";
    object      T;
}
// * * * * * * * * * * * * * * * * * * * * * * * * * * * * * * * * * * * * * //

dimensions      [0 0 0 1 0 0 0];

internalField   nonuniform List<scalar> 
22
(
1.016215932
1.023101781
1.000003326
1.000016116
1.000061997
1.000188084
1.000495614
1.001256756
1.00191323
1.000000005
1.00000011
1.000000744
1.000003523
1.000029357
1.000024373
0.9999999994
0.9999999993
1
0.9999999983
1.000000179
1.000000049
0.9999999998
)
;

boundaryField
{
    inlet
    {
        type            fixedValue;
        value           nonuniform 0();
    }
    outlet
    {
        type            inletOutlet;
        inletValue      nonuniform 0();
        value           nonuniform 0();
    }
    bottom
    {
        type            slip;
    }
    top
    {
        type            slip;
    }
    obstacle
    {
        type            zeroGradient;
    }
    defaultFaces
    {
        type            empty;
    }
    procBoundary26to20
    {
        type            processor;
        value           nonuniform List<scalar> 8(1.058453376 1.072202295 1.00061244 1.001513255 1.003229483 1.006018257 1.010319838 1.010319838);
    }
    procBoundary26to25
    {
        type            processor;
        value           nonuniform List<scalar> 4(1.000000409 0.9999999986 0.9999999986 0.9999999994);
    }
    procBoundary26to27
    {
        type            processor;
        value           nonuniform List<scalar> 3(1.0664941 1.027292358 1.004136846);
    }
    procBoundary26to31
    {
        type            processor;
        value           uniform 0.9999999999;
    }
    procBoundary26to32
    {
        type            processor;
        value           nonuniform List<scalar> 7(0.9999999997 0.9999999997 0.9999999993 0.9999999995 0.9999999996 0.9999999997 1);
    }
    procBoundary26to33
    {
        type            processor;
        value           uniform 1.000257494;
    }
}


// ************************************************************************* //
