/*--------------------------------*- C++ -*----------------------------------*\
  =========                 |
  \\      /  F ield         | OpenFOAM: The Open Source CFD Toolbox
   \\    /   O peration     | Website:  https://openfoam.org
    \\  /    A nd           | Version:  7
     \\/     M anipulation  |
\*---------------------------------------------------------------------------*/
FoamFile
{
    version     2.0;
    format      ascii;
    class       volVectorField;
    location    "4.6";
    object      U;
}
// * * * * * * * * * * * * * * * * * * * * * * * * * * * * * * * * * * * * * //

dimensions      [0 1 -1 0 0 0 0];

internalField   nonuniform List<vector> 
138
(
(2.974200392 -0.002930840498 0)
(2.979259015 0.004224913649 0)
(2.984082464 0.002693598364 0)
(2.981978714 -0.001284956282 0)
(2.978296283 -0.003786062591 0)
(2.974477767 -0.002463797477 0)
(2.920153048 -0.000462757502 0)
(2.928152001 0.002406254679 0)
(2.929988541 0.002713731796 0)
(2.9262585 -0.003332880243 0)
(2.930161794 0.003347972372 0)
(2.935091707 0.002360560828 0)
(2.933651619 -0.0007714597613 0)
(2.931820172 -0.001582064116 0)
(2.929631877 -0.0009548551263 0)
(2.866711149 0.006344166996 0)
(2.882639738 0.00655859804 0)
(2.89017491 0.007158252348 0)
(2.885403673 -0.0008740106289 0)
(2.887767957 0.004948136156 0)
(2.893260185 0.003670982114 0)
(2.892226857 0.0008340015926 0)
(2.89215342 0.0001382041091 0)
(2.891924754 0.00110766053 0)
(2.82671651 0.009724103676 0)
(2.850402859 0.01462219213 0)
(2.859053458 0.01283738638 0)
(2.853104506 0.002288702261 0)
(2.853052994 0.006039468036 0)
(2.858222999 0.00126940348 0)
(2.858725038 -0.003049884696 0)
(2.859442802 -0.003783123989 0)
(2.860465736 -0.001760599309 0)
(2.825699825 0.01457019801 0)
(2.829202619 0.01185856558 0)
(2.824307259 0.0006400384195 0)
(2.82439716 0.004997749709 0)
(2.829537783 0.0009321008693 0)
(2.832713154 -0.002959576144 0)
(2.834493552 -0.005746914904 0)
(2.835491994 -0.0045122789 0)
(2.79754775 0.01321653257 0)
(2.799243688 0.009717596562 0)
(2.799657859 -0.003720109507 0)
(2.804796572 0.0004509763108 0)
(2.812493511 0.001023391997 0)
(2.815721116 -0.00182999828 0)
(2.818558223 -0.004975901685 0)
(2.820663431 -0.004591133 0)
(2.770902613 0.006763863121 0)
(2.782100998 0.006197566567 0)
(2.787237304 -0.005289451512 0)
(2.794015625 -0.0003720172797 0)
(2.803249054 0.002540042448 0)
(2.807011123 0.001142744495 0)
(2.81003521 -0.001919871079 0)
(2.81329298 -0.002168640925 0)
(2.748459056 0.003769007616 0)
(2.773519299 0.008427947552 0)
(2.781189581 -0.002848723695 0)
(2.787681668 0.002549136631 0)
(2.798392819 0.004330105803 0)
(2.803119508 0.001710045325 0)
(2.806275337 -0.001221295864 0)
(2.80914851 -0.001172733317 0)
(2.729398946 0.004461601155 0)
(2.770918197 0.01296301541 0)
(2.78140307 0.001159875102 0)
(2.787272635 0.005983738813 0)
(2.799236159 0.004652353293 0)
(2.804800647 0.0008117383319 0)
(2.807671184 -0.002060666117 0)
(2.809838076 -0.00138537798 0)
(2.715162962 0.008495249142 0)
(2.775439829 0.01537552152 0)
(2.785119359 0.00205658376 0)
(2.790836215 0.007148174455 0)
(2.803188988 0.002849260215 0)
(2.808829281 -0.002765431797 0)
(2.811424468 -0.004954650157 0)
(2.813212188 -0.00404134771 0)
(2.841037973 0.01131994439 0)
(2.825896017 0.01694306241 0)
(2.829758489 0.006068188881 0)
(2.838145811 0.003429600748 0)
(2.845166098 -0.002208672495 0)
(2.848424981 -0.006889610182 0)
(2.84944335 -0.007878891469 0)
(2.851165826 -0.0069767508 0)
(3.014118344 -0.1498513385 0)
(2.96592569 -0.04808450589 0)
(2.955612616 -0.02023145555 0)
(2.937569306 0.00523195249 0)
(2.922350659 0.001745866407 0)
(2.922817004 -0.0001409575079 0)
(2.923345822 0.00109376542 0)
(2.92390191 -0.003559258757 0)
(3.07085555 -0.2858317905 0)
(3.055623784 -0.1556650568 0)
(3.054928078 -0.1028626558 0)
(3.018844294 -0.01897701672 0)
(2.999824331 -0.01261698136 0)
(2.978563969 -0.001909049791 0)
(2.978341295 0.001903005866 0)
(2.976296591 -0.0006068519874 0)
(3.100912419 -0.3048746591 0)
(3.091886198 -0.2875194133 0)
(3.082635005 -0.2436958012 0)
(3.052182968 -0.1173455999 0)
(3.047085157 -0.0741176336 0)
(3.033736579 -0.03164123182 0)
(3.018966472 0.001720774371 0)
(3.004709289 0.002645435737 0)
(3.085894394 -0.276208286 0)
(3.086572839 -0.2982290232 0)
(3.083801376 -0.2913820416 0)
(3.075796233 -0.2533363989 0)
(3.065061904 -0.1791364379 0)
(3.047848075 -0.07801002922 0)
(3.033716215 -0.02419901997 0)
(3.022188297 -0.01749418084 0)
(3.057468799 -0.1941597725 0)
(3.072161384 -0.2819429741 0)
(3.087265774 -0.2718561533 0)
(3.085615644 -0.2700697695 0)
(3.079733588 -0.2592496813 0)
(3.067866882 -0.2239424287 0)
(3.038375276 -0.119082181 0)
(3.042323206 -0.08405369943 0)
(3.025308654 -0.0815973304 0)
(3.04648559 -0.1702130695 0)
(3.057038582 -0.1854014157 0)
(3.071857206 -0.247129265 0)
(3.077211897 -0.2643664797 0)
(3.075331212 -0.2596923033 0)
(3.067092554 -0.23060034 0)
(3.054319066 -0.1636428765 0)
(3.002501644 -0.009731603845 0)
)
;

boundaryField
{
    inlet
    {
        type            fixedValue;
        value           nonuniform 0();
    }
    outlet
    {
        type            inletOutlet;
        inletValue      nonuniform 0();
        value           nonuniform 0();
    }
    bottom
    {
        type            slip;
    }
    top
    {
        type            slip;
    }
    obstacle
    {
        type            slip;
    }
    defaultFaces
    {
        type            empty;
    }
    procBoundary28to21
    {
        type            processor;
        value           nonuniform List<vector> 2((2.916585146 0.003518758421 0) (2.856818574 0.01184896338 0));
    }
    procBoundary28to22
    {
        type            processor;
        value           nonuniform List<vector> 9((3.027165961 -0.001619726532 0) (3.031007552 0.00348135176 0) (3.034626698 0.001839959445 0) (3.031986344 -0.002309529229 0) (3.027315877 -0.005322729758 0) (2.982974632 -0.001644977782 0) (2.98094974 0.006940205624 0) (2.977929617 0.004800087258 0) (2.977929617 0.004800087258 0));
    }
    procBoundary28to23
    {
        type            processor;
        value           nonuniform List<vector> 2((3.022594395 -0.00259732225 0) (2.972162335 -0.002250616385 0));
    }
    procBoundary28to27
    {
        type            processor;
        value           nonuniform List<vector> 
16
(
(2.807872993 0.01811516892 0)
(2.806093358 0.004807199191 0)
(2.806093358 0.004807199191 0)
(2.791774568 -0.004482676133 0)
(2.772410203 -0.007222952559 0)
(2.748442101 -0.001854795041 0)
(2.72093276 0.001775485287 0)
(2.702427809 0.0005814451109 0)
(2.896024342 -0.07816579299 0)
(3.014894569 -0.2468754592 0)
(3.066023482 -0.3376093146 0)
(3.103493076 -0.3052495791 0)
(3.071403984 -0.218908172 0)
(3.043428357 -0.1770316742 0)
(3.003365637 -0.01068235566 0)
(2.97577418 0.06905157981 0)
)
;
    }
    procBoundary28to29
    {
        type            processor;
        value           nonuniform List<vector> 
16
(
(2.928567017 -0.002603351937 0)
(2.893147018 0.00128569502 0)
(2.863162028 -0.0005507667403 0)
(2.838216053 -0.001840632741 0)
(2.825081525 -0.003118675279 0)
(2.818632691 -0.002049616658 0)
(2.813998746 -0.0004429479175 0)
(2.814106608 -0.0001360706454 0)
(2.817197621 -0.002326200569 0)
(2.853992876 -0.00578536699 0)
(2.923250726 -0.005999045014 0)
(2.975267605 -0.004429238762 0)
(2.999621918 -0.004279059811 0)
(3.016990389 -0.009616410521 0)
(3.024924867 -0.002998909948 0)
(3.032055027 -0.07629737166 0)
)
;
    }
    procBoundary28to34
    {
        type            processor;
        value           nonuniform List<vector> 9((3.029916956 -0.09175188944 0) (3.042866584 -0.1455634559 0) (3.059753108 -0.2225261675 0) (3.075585266 -0.2544283305 0) (3.078739813 -0.2496426161 0) (3.077459211 -0.2476099174 0) (3.07232298 -0.2384287158 0) (3.029916956 -0.09175188944 0) (2.968250773 0.08096021548 0));
    }
}


// ************************************************************************* //
