/*--------------------------------*- C++ -*----------------------------------*\
  =========                 |
  \\      /  F ield         | OpenFOAM: The Open Source CFD Toolbox
   \\    /   O peration     | Website:  https://openfoam.org
    \\  /    A nd           | Version:  7
     \\/     M anipulation  |
\*---------------------------------------------------------------------------*/
FoamFile
{
    version     2.0;
    format      ascii;
    class       volVectorField;
    location    "3.4";
    object      U;
}
// * * * * * * * * * * * * * * * * * * * * * * * * * * * * * * * * * * * * * //

dimensions      [0 1 -1 0 0 0 0];

internalField   nonuniform List<vector> 
2222
(
(3 -8.257852512e-15 0)
(3 -6.054500931e-15 0)
(3 -5.541867263e-15 0)
(3 -5.738297046e-15 0)
(3 -1.757867068e-14 0)
(3 -1.609039438e-14 0)
(3 -1.50998748e-14 0)
(3 -1.469264113e-14 0)
(3 -1.449666459e-14 0)
(3 -1.412524445e-14 0)
(3 -1.296076171e-14 0)
(3 -9.314573258e-15 0)
(3 -6.517499665e-15 0)
(3 -3.7754332e-15 0)
(3 -1.435443378e-15 0)
(3 6.294745331e-16 0)
(3 3.080246854e-16 0)
(3 2.229251272e-15 0)
(3 3.701884467e-15 0)
(3 4.162438781e-15 0)
(3 2.065069266e-15 0)
(3 2.034721455e-15 0)
(3 2.898908832e-15 0)
(3 2.32223522e-15 0)
(3 1.805719398e-15 0)
(3 -6.250458157e-16 0)
(3 -2.097850021e-14 0)
(3 -2.007933534e-14 0)
(3 -1.898416201e-14 0)
(3 -1.595941277e-14 0)
(3 -1.544496934e-14 0)
(3 -1.530868061e-14 0)
(3 -1.513412877e-14 0)
(3 -1.404653719e-14 0)
(3 -1.278206319e-14 0)
(3 -1.071895452e-14 0)
(3 -8.301324868e-15 0)
(3 -5.420468935e-15 0)
(3 -5.314508949e-16 0)
(3 6.422667971e-15 0)
(3 1.091966187e-14 0)
(3 1.364802239e-14 0)
(3 1.167502901e-14 0)
(3 1.135877577e-14 0)
(3 1.005652814e-14 0)
(3 1.180812255e-14 0)
(3 1.106675103e-14 0)
(3 9.136583807e-15 0)
(3 8.487571267e-15 0)
(3 8.642547493e-15 0)
(3 9.749350558e-15 0)
(3 1.157446967e-14 0)
(3 1.322148102e-14 0)
(3 1.326088197e-14 0)
(3 1.144280699e-14 0)
(3 8.245504076e-15 0)
(3 5.182782594e-15 0)
(3 -1.156990444e-15 0)
(3 -6.616640688e-15 0)
(3 -1.100590752e-14 0)
(3 -1.232725085e-14 0)
(3 -1.227830951e-14 0)
(3 -1.070906681e-14 0)
(3 -8.035804104e-15 0)
(3 -7.464274917e-15 0)
(3 -8.04889621e-15 0)
(3 -2.044792821e-14 0)
(3 -1.685148538e-14 0)
(3 -1.263738743e-14 0)
(3 -8.548748184e-15 0)
(3 -5.860530706e-15 0)
(3 -5.646492211e-15 0)
(3 -6.020925447e-15 0)
(3 -7.664872581e-15 0)
(3 -1.087310052e-14 0)
(3 -1.011425627e-14 0)
(3 -8.205636031e-15 0)
(3 -5.799045257e-15 0)
(3 -8.8121219e-16 0)
(3 7.012265e-15 0)
(3 1.478190792e-14 0)
(3 1.801729632e-14 0)
(3 2.25908876e-14 0)
(3 2.314573364e-14 0)
(3 2.245796122e-14 0)
(3 2.033638742e-14 0)
(3 1.896667254e-14 0)
(3 1.76622901e-14 0)
(3 1.731580287e-14 0)
(3 1.917688994e-14 0)
(3 1.967179559e-14 0)
(3 1.987273152e-14 0)
(3 2.049159275e-14 0)
(3 2.177850286e-14 0)
(3 2.325552596e-14 0)
(3 2.217521713e-14 0)
(3 1.875090172e-14 0)
(3 1.217487486e-14 0)
(3 3.697600937e-15 0)
(3 -2.3725147e-15 0)
(3 -3.488883075e-15 0)
(3 -3.388449567e-15 0)
(3 -3.422844363e-15 0)
(3 -3.161577546e-15 0)
(3 -4.439226903e-15 0)
(3 -7.771329914e-15 0)
(3 -8.587851664e-15 0)
(3 -8.188686356e-15 0)
(3 -8.306341779e-15 0)
(3 -9.447094547e-15 0)
(3 -1.044973572e-14 0)
(3 -1.139578647e-14 0)
(3 -1.252003945e-14 0)
(3 -1.184341765e-14 0)
(3 -1.047479493e-14 0)
(3 -1.0089613e-14 0)
(3 -9.862278206e-15 0)
(3 -1.148566925e-14 0)
(3 -1.266194806e-14 0)
(3 -1.445293493e-14 0)
(3 -1.544298688e-14 0)
(3 -1.554033028e-14 0)
(3 -1.263457322e-14 0)
(3 -1.330464693e-14 0)
(3 -1.250549548e-14 0)
(3 -1.12399337e-14 0)
(3 -8.351208179e-15 0)
(3 -9.346460689e-15 0)
(3 -1.255390412e-14 0)
(3 -1.339341957e-14 0)
(3 -1.37457427e-14 0)
(3 -9.290100391e-15 0)
(3 -5.339506841e-15 0)
(3 -2.662852105e-15 0)
(3 2.058895826e-15 0)
(3 9.265803631e-15 0)
(3 1.760486858e-14 0)
(3 2.006797233e-14 0)
(3 2.196262637e-14 0)
(3 2.3615853e-14 0)
(3 2.527334818e-14 0)
(3 2.575946072e-14 0)
(3 2.618939643e-14 0)
(3 2.558256062e-14 0)
(3 2.407373907e-14 0)
(3 2.443329605e-14 0)
(3 2.665607381e-14 0)
(3 2.79241389e-14 0)
(3 2.93578171e-14 0)
(3 2.948657224e-14 0)
(3 2.911713738e-14 0)
(3 2.857042858e-14 0)
(3 2.453875956e-14 0)
(3 1.73378888e-14 0)
(3 1.303649555e-14 0)
(3 1.100372766e-14 0)
(3 5.951733202e-15 0)
(3 1.331137117e-15 0)
(3 3.424689033e-16 0)
(3 -1.414760342e-15 0)
(3 -2.451520082e-15 0)
(3 -3.505297085e-15 0)
(3 -6.089180521e-15 0)
(3 -9.349898958e-15 0)
(3 -1.105697209e-14 0)
(3 -1.217771248e-14 0)
(3 -1.346505908e-14 0)
(3 -1.37326782e-14 0)
(3 -1.528027079e-14 0)
(3 -1.597526246e-14 0)
(3 -1.553704541e-14 0)
(3 -1.541368814e-14 0)
(3 -1.641707549e-14 0)
(3 -1.708078524e-14 0)
(3 -1.749615333e-14 0)
(3 -1.620801191e-14 0)
(3 -1.606094542e-14 0)
(3 -1.55621606e-14 0)
(3 -1.50652994e-14 0)
(3 -1.11861978e-14 0)
(3 -9.090629318e-15 0)
(3 -9.380567236e-15 0)
(3 -7.107830985e-15 0)
(3 -5.43078892e-15 0)
(3 -2.48000837e-15 0)
(3 3.929414943e-16 0)
(3 3.867016236e-15 0)
(3 1.161773097e-14 0)
(3 1.446933729e-14 0)
(3 -8.438962665e-15 0)
(3 -1.05481024e-14 0)
(3 -1.266677708e-14 0)
(3 -1.405882703e-14 0)
(3 -1.540908532e-14 0)
(3 -1.676681987e-14 0)
(3 -1.72424965e-14 0)
(3 -1.691205555e-14 0)
(3 -1.259697742e-14 0)
(3 -8.996695746e-15 0)
(3 -3.56973387e-15 0)
(3 3.866961777e-15 0)
(3 1.106518663e-14 0)
(3 1.309708683e-14 0)
(3 1.359800554e-14 0)
(3 1.61544865e-14 0)
(3 1.704809474e-14 0)
(3 1.957008452e-14 0)
(3 2.215363145e-14 0)
(3 2.27246991e-14 0)
(3 2.396286854e-14 0)
(3 2.457677347e-14 0)
(3 2.636965134e-14 0)
(3 2.87544414e-14 0)
(3 2.985901677e-14 0)
(3 3.034082669e-14 0)
(3 2.848747974e-14 0)
(3 2.664770072e-14 0)
(3 2.459721403e-14 0)
(3 2.311113443e-14 0)
(3 2.203527563e-14 0)
(3 2.192931867e-14 0)
(3 1.688116982e-14 0)
(3 1.176743509e-14 0)
(3 8.125177153e-15 0)
(3 -1.195785124e-15 0)
(3 -4.757325918e-15 0)
(3 -4.256848945e-15 0)
(3 -3.292276432e-15 0)
(3 -3.309230087e-15 0)
(3 -2.824697348e-15 0)
(3 -6.718370507e-15 0)
(3 -1.278461977e-14 0)
(3 -1.484722991e-14 0)
(3 -1.56127439e-14 0)
(3 -1.659293702e-14 0)
(3 -1.826916021e-14 0)
(3 -2.160351793e-14 0)
(3 -2.279769914e-14 0)
(3 -2.254077604e-14 0)
(3 -2.143819142e-14 0)
(3 -2.076789234e-14 0)
(3 -1.925991529e-14 0)
(3 -1.661730539e-14 0)
(3 -1.344531658e-14 0)
(3 -1.143019631e-14 0)
(3 -1.179639328e-14 0)
(3 -1.172442924e-14 0)
(3 -9.878162157e-15 0)
(3 -9.700003289e-15 0)
(3 -8.675173346e-15 0)
(3 -5.828112616e-15 0)
(3 -1.8152885e-15 0)
(3 -3.062989749e-16 0)
(3 1.884540293e-15 0)
(3 6.842063561e-15 0)
(3 7.746346124e-15 0)
(3 -1.020094732e-14 0)
(3 -1.282184369e-14 0)
(3 -1.547224977e-14 0)
(3 -1.845010379e-14 0)
(3 -1.986674993e-14 0)
(3 -2.064288376e-14 0)
(3 -2.10568122e-14 0)
(3 -1.857949666e-14 0)
(3 -1.248585618e-14 0)
(3 -6.532907136e-15 0)
(3 -5.657238613e-15 0)
(3 -9.380458104e-16 0)
(3 3.390192057e-15 0)
(3 6.419730769e-15 0)
(3 1.148234544e-14 0)
(3 1.649602376e-14 0)
(3 1.928598831e-14 0)
(3 1.961249845e-14 0)
(3 1.948657676e-14 0)
(3 2.027494974e-14 0)
(3 2.009749308e-14 0)
(3 2.126613913e-14 0)
(3 2.396296948e-14 0)
(3 2.465136874e-14 0)
(3 2.461576165e-14 0)
(3 2.649133953e-14 0)
(3 2.677288182e-14 0)
(3 2.503296758e-14 0)
(3 2.341420158e-14 0)
(3 2.16687641e-14 0)
(3 2.021527239e-14 0)
(3 1.803812167e-14 0)
(3 1.532976646e-14 0)
(3 1.40139152e-14 0)
(3 1.318819951e-14 0)
(3 9.811696733e-15 0)
(3 1.94898472e-15 0)
(3 -4.53260852e-16 0)
(3 -4.811283066e-16 0)
(3 -1.429448018e-16 0)
(3 -3.762664897e-16 0)
(3 -3.70787583e-15 0)
(3 -6.041899668e-15 0)
(3 -1.339219163e-14 0)
(3 -1.65219804e-14 0)
(3 -1.974100932e-14 0)
(3 -2.287694791e-14 0)
(3 -2.41298912e-14 0)
(3 -2.207264769e-14 0)
(3 -1.940163847e-14 0)
(3 -1.823630086e-14 0)
(3 -1.741593823e-14 0)
(3 -1.784523399e-14 0)
(3 -1.732792028e-14 0)
(3 -1.576313323e-14 0)
(3 -1.47441865e-14 0)
(3 -1.43263533e-14 0)
(3 -1.283120544e-14 0)
(3 -1.045898529e-14 0)
(3 -9.037375358e-15 0)
(3 -8.937213106e-15 0)
(3 -7.218997024e-15 0)
(3 -6.05319922e-15 0)
(3 -6.145065348e-15 0)
(3 -1.595498793e-15 0)
(3 3.293959173e-15 0)
(3 4.41551158e-15 0)
(3 -9.455050059e-15 0)
(3 -1.145143762e-14 0)
(3 -1.416838816e-14 0)
(3 -1.589540385e-14 0)
(3 -1.669365969e-14 0)
(3 -1.648531353e-14 0)
(3 -1.348824415e-14 0)
(3 -7.858866594e-15 0)
(3 -3.412603474e-15 0)
(3 -2.578863677e-15 0)
(3 -3.45286038e-16 0)
(3 1.033059178e-15 0)
(3 1.04885096e-15 0)
(3 2.151542295e-15 0)
(3 4.8282327e-15 0)
(3 7.817140936e-15 0)
(3 1.263675911e-14 0)
(3 1.63387103e-14 0)
(3 1.774760296e-14 0)
(3 1.904468613e-14 0)
(3 1.913414481e-14 0)
(3 1.954114792e-14 0)
(3 2.019722366e-14 0)
(3 2.053035102e-14 0)
(3 2.16026198e-14 0)
(3 2.269628891e-14 0)
(3 2.295172582e-14 0)
(3 2.155551382e-14 0)
(3 1.976882859e-14 0)
(3 1.918295368e-14 0)
(3 1.922349634e-14 0)
(3 1.866363974e-14 0)
(3 1.836022539e-14 0)
(3 1.84092817e-14 0)
(3 1.756208e-14 0)
(3 1.773334076e-14 0)
(3 1.725732733e-14 0)
(3 1.087262972e-14 0)
(3 3.217781972e-15 0)
(3 -3.126378504e-15 0)
(3 -4.091718638e-15 0)
(3 -7.107231457e-15 0)
(3 -1.116491594e-14 0)
(3 -1.328243768e-14 0)
(3 -1.671690809e-14 0)
(3 -2.054464829e-14 0)
(3 -2.182117285e-14 0)
(3 -2.162491901e-14 0)
(3 -2.075097783e-14 0)
(3 -2.017011407e-14 0)
(3 -2.010038831e-14 0)
(3 -1.989748669e-14 0)
(3 -2.093697557e-14 0)
(3 -2.062666147e-14 0)
(3 -1.911574275e-14 0)
(3 -1.813400002e-14 0)
(3 -1.7077957e-14 0)
(3 -1.52646413e-14 0)
(3 -1.346104222e-14 0)
(3 -1.008748909e-14 0)
(3 -8.416174658e-15 0)
(3 -8.740034496e-15 0)
(3 -9.916499944e-15 0)
(3 -9.026400415e-15 0)
(3 -6.911014392e-15 0)
(3 -3.536616156e-15 0)
(3 -4.799445958e-16 0)
(3 -7.742913627e-15 0)
(3 -9.378997619e-15 0)
(3 -1.10472948e-14 0)
(3 -1.308538059e-14 0)
(3 -1.200069521e-14 0)
(3 -1.071657186e-14 0)
(3 -6.356488087e-15 0)
(3 -3.195107363e-15 0)
(3 -6.2795124e-16 0)
(3 2.850002086e-16 0)
(3 3.087358507e-15 0)
(3 3.511311366e-15 0)
(3 3.141912023e-15 0)
(3 4.692518398e-15 0)
(3 7.004732066e-15 0)
(3 8.632391991e-15 0)
(3 1.121329823e-14 0)
(3 1.274879411e-14 0)
(3 1.466905709e-14 0)
(3 1.452906917e-14 0)
(3 1.325529769e-14 0)
(3 1.534342356e-14 0)
(3 1.716891589e-14 0)
(3 1.880036569e-14 0)
(3 2.009493005e-14 0)
(3 1.958148858e-14 0)
(3 1.743034691e-14 0)
(3 1.456931199e-14 0)
(3 1.460874041e-14 0)
(3 1.513198435e-14 0)
(3 1.6039074e-14 0)
(3 1.725526096e-14 0)
(3 1.893302922e-14 0)
(3 1.95023374e-14 0)
(3 1.87070762e-14 0)
(3 1.620552843e-14 0)
(3 1.565531077e-14 0)
(3 1.067407685e-14 0)
(3 1.565166204e-15 0)
(3 -2.873113395e-15 0)
(3 -4.591834715e-15 0)
(3 -9.745345611e-15 0)
(3 -1.570391085e-14 0)
(3 -1.677916152e-14 0)
(3 -2.126323019e-14 0)
(3 -2.451527938e-14 0)
(3 -2.465748439e-14 0)
(3 -2.266885761e-14 0)
(3 -2.321306791e-14 0)
(3 -2.334179712e-14 0)
(3 -2.208830513e-14 0)
(3 -2.134132326e-14 0)
(3 -2.19580477e-14 0)
(3 -2.360460344e-14 0)
(3 -2.220691365e-14 0)
(3 -2.070575589e-14 0)
(3 -2.044163615e-14 0)
(3 -1.908099677e-14 0)
(3 -1.647223569e-14 0)
(3 -1.201920979e-14 0)
(3 -1.049797805e-14 0)
(3 -1.043858497e-14 0)
(3 -1.036208232e-14 0)
(3 -1.076481467e-14 0)
(3 -9.958977376e-15 0)
(3 -9.028940611e-15 0)
(3 -8.185216607e-15 0)
(3 -8.177738292e-15 0)
(3 -8.401792388e-15 0)
(3 -8.556404092e-15 0)
(3 -8.391088529e-15 0)
(3 -7.355369507e-15 0)
(3 -4.401142609e-15 0)
(3 -2.357203381e-15 0)
(3 1.573099445e-15 0)
(3 2.040783696e-15 0)
(3 4.416890855e-15 0)
(3 4.535066628e-15 0)
(3 4.779908815e-15 0)
(3 5.537632479e-15 0)
(3 7.553592683e-15 0)
(3 1.097245354e-14 0)
(3 1.125052338e-14 0)
(3 1.061267491e-14 0)
(3 1.030958228e-14 0)
(3 9.240380525e-15 0)
(3 8.06050217e-15 0)
(3 8.746094777e-15 0)
(3 1.086413946e-14 0)
(3 1.374207233e-14 0)
(3 1.495240139e-14 0)
(3 1.347567268e-14 0)
(3 1.09540742e-14 0)
(3 5.721676039e-15 0)
(3 3.962789127e-15 0)
(3 5.097912111e-15 0)
(3 7.062851078e-15 0)
(3 8.485881138e-15 0)
(3 1.074721442e-14 0)
(3 1.424433972e-14 0)
(3 1.517802702e-14 0)
(3 1.409770178e-14 0)
(3 1.066813166e-14 0)
(3 9.429351319e-15 0)
(3 5.536350347e-15 0)
(3 -7.099084072e-16 0)
(3 -4.571196774e-15 0)
(3 -7.683200289e-15 0)
(3 -1.040310334e-14 0)
(3 -1.148693657e-14 0)
(3 -1.344625323e-14 0)
(3 -1.595565109e-14 0)
(3 -2.121621884e-14 0)
(3 -2.564437475e-14 0)
(3 -2.438043901e-14 0)
(3 -2.367754771e-14 0)
(3 -2.34258907e-14 0)
(3 -2.433567635e-14 0)
(3 -2.428755998e-14 0)
(3 -2.504475285e-14 0)
(3 -2.512298372e-14 0)
(3 -2.471155392e-14 0)
(3 -2.259622417e-14 0)
(3 -2.168900508e-14 0)
(3 -2.043038224e-14 0)
(3 -1.740797851e-14 0)
(3 -1.616473627e-14 0)
(3 -1.562487965e-14 0)
(3 -1.548734686e-14 0)
(3 -1.510691009e-14 0)
(3 -1.501888392e-14 0)
(3 -1.574814815e-14 0)
(3 -1.617505773e-14 0)
(3 -1.447273367e-14 0)
(3 -7.812519089e-15 0)
(3 -6.421107332e-15 0)
(3 -6.165056355e-15 0)
(3 -4.204786058e-15 0)
(3 -3.519034642e-15 0)
(3 -1.365119843e-15 0)
(3 1.479631307e-15 0)
(3 1.850817186e-15 0)
(3 2.088516057e-15 0)
(3 2.720041226e-15 0)
(3 3.071727286e-15 0)
(3 4.639168901e-15 0)
(3 5.911939255e-15 0)
(3 8.920154408e-15 0)
(3 1.120153813e-14 0)
(3 1.015621382e-14 0)
(3 8.621955101e-15 0)
(3 6.053939553e-15 0)
(3 4.654049257e-15 0)
(3 4.582766697e-15 0)
(3 6.003839623e-15 0)
(3 7.268093524e-15 0)
(3 8.617736375e-15 0)
(3 7.527421528e-15 0)
(3 5.322891091e-15 0)
(3 1.394631289e-15 0)
(3 -2.15237828e-16 0)
(3 -3.430016766e-16 0)
(3 -7.748394823e-16 0)
(3 -3.525861398e-16 0)
(3 1.26452973e-15 0)
(3 4.363333658e-15 0)
(3 8.520800298e-15 0)
(3 8.735962016e-15 0)
(3 6.9263012e-15 0)
(3 5.659725551e-15 0)
(3 5.172465568e-15 0)
(3 1.6118659e-15 0)
(3 -1.17095997e-15 0)
(3 -4.870702208e-15 0)
(3 -9.032315562e-15 0)
(3 -1.239043539e-14 0)
(3 -1.391370906e-14 0)
(3 -1.510193584e-14 0)
(3 -1.574186786e-14 0)
(3 -1.458436901e-14 0)
(3 -1.435032982e-14 0)
(3 -2.097824562e-14 0)
(3 -2.468631788e-14 0)
(3 -2.539545477e-14 0)
(3 -2.788091557e-14 0)
(3 -2.96466287e-14 0)
(3 -2.798932768e-14 0)
(3 -2.728459868e-14 0)
(3 -2.479897794e-14 0)
(3 -2.022905043e-14 0)
(3 -1.820383739e-14 0)
(3 -1.813704943e-14 0)
(3 -1.816412157e-14 0)
(3 -1.821403221e-14 0)
(3 -1.806330359e-14 0)
(3 -1.821589811e-14 0)
(3 -1.914099488e-14 0)
(3 -1.961612331e-14 0)
(3 -2.034635201e-14 0)
(3 -2.084481469e-14 0)
(3 -1.79246075e-14 0)
(3 -3.549385695e-15 0)
(3 -1.502057685e-15 0)
(3 3.411450806e-16 0)
(3 2.290832109e-15 0)
(3 2.656662137e-15 0)
(3 2.483863996e-15 0)
(3 2.205652753e-15 0)
(3 2.159963993e-15 0)
(3 2.291588883e-15 0)
(3 1.766787417e-15 0)
(3 1.692750866e-15 0)
(3 7.138458326e-16 0)
(3 1.598440758e-15 0)
(3 5.818452477e-15 0)
(3 6.795852005e-15 0)
(3 6.929222726e-15 0)
(3 6.645367289e-15 0)
(3 3.919982825e-15 0)
(3 3.024143404e-15 0)
(3 3.085213375e-15 0)
(3 3.654049619e-15 0)
(3 3.651412244e-15 0)
(3 2.251106156e-15 0)
(3 -1.175109809e-15 0)
(3 -3.974558112e-15 0)
(3 -6.358524755e-15 0)
(3 -4.588304312e-15 0)
(3 -2.96408159e-15 0)
(3 -2.775704982e-15 0)
(3 3.10946785e-16 0)
(3 3.022596888e-15 0)
(3 5.509747937e-15 0)
(3 8.056855789e-15 0)
(3 7.380662087e-15 0)
(3 3.59385582e-15 0)
(3 3.258684969e-15 0)
(3 2.084505185e-15 0)
(3 -4.903510659e-16 0)
(3 -6.215098818e-15 0)
(3 -9.727923494e-15 0)
(3 -1.178806404e-14 0)
(3 -1.502628331e-14 0)
(3 -1.713714124e-14 0)
(3 -1.724839263e-14 0)
(3 -1.720330576e-14 0)
(3 -1.660896066e-14 0)
(3 -1.737689168e-14 0)
(3 -2.069765209e-14 0)
(3 -2.294798066e-14 0)
(3 -2.576036737e-14 0)
(3 -3.016723726e-14 0)
(3 -3.242190314e-14 0)
(3 -3.072054885e-14 0)
(3 -2.858894278e-14 0)
(3 -2.520116711e-14 0)
(3 -2.096509375e-14 0)
(3 -1.922240116e-14 0)
(3 -1.948622605e-14 0)
(3 -1.854424163e-14 0)
(3 -1.788570561e-14 0)
(3 -1.831983874e-14 0)
(3 -1.959144705e-14 0)
(3 -2.019824941e-14 0)
(3 -2.270706144e-14 0)
(3 -2.224210656e-14 0)
(3 -1.945639289e-14 0)
(3 -1.617965512e-14 0)
(3 8.317079818e-15 0)
(3 1.016227895e-14 0)
(3 1.238101755e-14 0)
(3 1.252272087e-14 0)
(3 1.196666394e-14 0)
(3 9.515854802e-15 0)
(3 5.22503345e-15 0)
(3 1.846024214e-15 0)
(3 8.028069402e-16 0)
(3 3.211579812e-16 0)
(3 -5.750987872e-16 0)
(3 -9.048136682e-16 0)
(3 -9.425259517e-16 0)
(3 -1.514377737e-15 0)
(3 4.91767323e-17 0)
(3 -7.689833485e-16 0)
(3 -4.325237995e-15 0)
(3 -5.347640709e-15 0)
(3 -4.968318149e-15 0)
(3 -4.694735014e-15 0)
(3 -4.232837599e-15 0)
(3 -3.698938968e-15 0)
(3 -4.61237558e-15 0)
(3 -5.803708977e-15 0)
(3 -8.045872923e-15 0)
(3 -8.795507455e-15 0)
(3 -6.621648542e-15 0)
(3 -5.561133092e-15 0)
(3 -5.629006902e-15 0)
(3 -4.118458883e-15 0)
(3 -3.269160155e-15 0)
(3 -1.864892952e-15 0)
(3 -1.019390299e-15 0)
(3 -3.309299373e-15 0)
(3 -3.627483035e-15 0)
(3 -3.551484554e-15 0)
(3 -5.049797389e-15 0)
(3 -7.771815494e-15 0)
(3 -9.733470587e-15 0)
(3 -1.170255637e-14 0)
(3 -1.529260349e-14 0)
(3 -1.8179875e-14 0)
(3 -2.102604851e-14 0)
(3 -2.10841516e-14 0)
(3 -1.974410102e-14 0)
(3 -1.849483522e-14 0)
(3 -1.737434265e-14 0)
(3 -1.537077716e-14 0)
(3 -1.764727214e-14 0)
(3 -2.390567889e-14 0)
(3 -2.635583881e-14 0)
(3 -2.656635493e-14 0)
(3 -2.347475067e-14 0)
(3 -1.908512017e-14 0)
(3 -1.742376046e-14 0)
(3 -1.874325419e-14 0)
(3 -1.947767321e-14 0)
(3 -1.888625051e-14 0)
(3 -1.781988191e-14 0)
(3 -1.769889818e-14 0)
(3 -1.796144867e-14 0)
(3 -1.824900156e-14 0)
(3 -1.808473763e-14 0)
(3 -1.847064343e-14 0)
(3 -1.857721749e-14 0)
(3 -1.434782273e-14 0)
(3 -1.196712537e-14 0)
(3 1.27416349e-14 0)
(3 1.406325494e-14 0)
(3 1.260857966e-14 0)
(3 1.093216909e-14 0)
(3 1.083335483e-14 0)
(3 8.743399763e-15 0)
(3 5.725881001e-15 0)
(3 2.798582616e-15 0)
(3 -2.312541128e-16 0)
(3 -1.987821657e-15 0)
(3 -3.134400899e-15 0)
(3 -3.350709204e-15 0)
(3 -3.840738433e-15 0)
(3 -7.559569766e-15 0)
(3 -8.97294669e-15 0)
(3 -1.127347708e-14 0)
(3 -1.522083423e-14 0)
(3 -1.362548263e-14 0)
(3 -1.343538354e-14 0)
(3 -1.436530662e-14 0)
(3 -1.309508119e-14 0)
(3 -8.920735847e-15 0)
(3 -7.190312427e-15 0)
(3 -6.919122191e-15 0)
(3 -6.741537466e-15 0)
(3 -7.099440292e-15 0)
(3 -6.762631694e-15 0)
(3 -4.547015475e-15 0)
(3 -4.367210868e-15 0)
(3 -6.100668513e-15 0)
(3 -6.430421063e-15 0)
(3 -8.16397679e-15 0)
(3 -1.012734873e-14 0)
(3 -1.030837947e-14 0)
(3 -9.943153087e-15 0)
(3 -1.038273967e-14 0)
(3 -1.242080284e-14 0)
(3 -1.373937747e-14 0)
(3 -1.332069473e-14 0)
(3 -1.340151915e-14 0)
(3 -1.506407515e-14 0)
(3 -1.726114521e-14 0)
(3 -1.866216029e-14 0)
(3 -2.114723038e-14 0)
(3 -2.117262275e-14 0)
(3 -1.820537478e-14 0)
(3 -1.553282174e-14 0)
(3 -1.423539176e-14 0)
(3 -1.454166477e-14 0)
(3 -1.656811778e-14 0)
(3 -1.761709334e-14 0)
(3 -1.730598001e-14 0)
(3 -1.383855375e-14 0)
(3 -7.694301682e-15 0)
(3 -7.713651088e-15 0)
(3 -1.20418543e-14 0)
(3 -1.602588522e-14 0)
(3 -1.678357654e-14 0)
(3 -1.618945939e-14 0)
(3 -1.525259237e-14 0)
(3 -1.424478328e-14 0)
(3 -1.321743497e-14 0)
(3 -1.257857217e-14 0)
(3 -1.095799756e-14 0)
(3 -1.001475765e-14 0)
(3 -9.526486572e-15 0)
(3 -9.721447757e-15 0)
(3 9.078763587e-15 0)
(3 9.843272248e-15 0)
(3 9.312543884e-15 0)
(3 9.199010583e-15 0)
(3 1.106385525e-14 0)
(3 8.406640975e-15 0)
(3 3.989761402e-15 0)
(3 1.242246966e-15 0)
(3 -3.728873876e-15 0)
(3 -5.348074696e-15 0)
(3 -8.302433384e-15 0)
(3 -9.382897528e-15 0)
(3 -1.127615007e-14 0)
(3 -1.364484487e-14 0)
(3 -1.555960327e-14 0)
(3 -1.637287659e-14 0)
(3 -1.610772427e-14 0)
(3 -1.572742817e-14 0)
(3 -1.471542641e-14 0)
(3 -1.406482031e-14 0)
(3 -1.107150648e-14 0)
(3 -7.290471039e-15 0)
(3 -6.206240794e-15 0)
(3 -1.005312548e-14 0)
(3 -1.147641644e-14 0)
(3 -1.101610166e-14 0)
(3 -1.118390553e-14 0)
(3 -1.100481345e-14 0)
(3 -1.082930462e-14 0)
(3 -1.101590154e-14 0)
(3 -1.291390089e-14 0)
(3 -1.600879462e-14 0)
(3 -1.831432722e-14 0)
(3 -1.7047399e-14 0)
(3 -1.505264678e-14 0)
(3 -1.518842125e-14 0)
(3 -1.489503214e-14 0)
(3 -1.471792959e-14 0)
(3 -1.286657209e-14 0)
(3 -1.276637434e-14 0)
(3 -1.327574695e-14 0)
(3 -1.411316131e-14 0)
(3 -1.542089963e-14 0)
(3 -1.700098135e-14 0)
(3 -1.782925138e-14 0)
(3 -1.704968346e-14 0)
(3 -1.580678365e-14 0)
(3 -1.467254405e-14 0)
(3 -1.431156946e-14 0)
(3 -1.41217121e-14 0)
(3 -1.449286257e-14 0)
(3 -1.177946022e-14 0)
(3 -1.889723661e-15 0)
(3 -1.63322712e-15 0)
(3 -2.454533381e-15 0)
(3 -7.469710412e-15 0)
(3 -1.196365587e-14 0)
(3 -1.275371476e-14 0)
(3 -1.162687556e-14 0)
(3 -9.683453912e-15 0)
(3 -8.898567498e-15 0)
(3 -9.124543738e-15 0)
(3 -8.994069087e-15 0)
(3 -7.694428956e-15 0)
(3 -6.388993606e-15 0)
(3 -5.416905536e-15 0)
(3 -5.401210944e-15 0)
(3 3.084400803e-16 0)
(3 1.62833914e-15 0)
(3 3.185859839e-15 0)
(3 5.796409984e-15 0)
(3 5.8526392e-15 0)
(3 4.584111687e-15 0)
(3 3.767883345e-15 0)
(3 4.303989548e-15 0)
(3 1.872371265e-15 0)
(3 -3.74360594e-15 0)
(3 -8.659420148e-15 0)
(3 -1.170349106e-14 0)
(3 -1.328945252e-14 0)
(3 -1.340770221e-14 0)
(3 -1.417648615e-14 0)
(3 -1.408178073e-14 0)
(3 -1.427487418e-14 0)
(3 -1.42980921e-14 0)
(3 -1.370174875e-14 0)
(3 -1.256369677e-14 0)
(3 -1.209109061e-14 0)
(3 -1.257587734e-14 0)
(3 -1.30773499e-14 0)
(3 -1.714802418e-14 0)
(3 -1.846060839e-14 0)
(3 -1.482100676e-14 0)
(3 -1.097512446e-14 0)
(3 -1.306933682e-14 0)
(3 -1.484435362e-14 0)
(3 -1.686015673e-14 0)
(3 -1.895438336e-14 0)
(3 -2.104451832e-14 0)
(3 -2.310988395e-14 0)
(3 -2.371825197e-14 0)
(3 -2.364388717e-14 0)
(3 -1.98902981e-14 0)
(3 -1.736346726e-14 0)
(3 -1.536314626e-14 0)
(3 -1.452069752e-14 0)
(3 -1.39179747e-14 0)
(3 -1.402677008e-14 0)
(3 -1.473646913e-14 0)
(3 -1.532976161e-14 0)
(3 -1.531220039e-14 0)
(3 -1.262258987e-14 0)
(3 -1.15124843e-14 0)
(3 -1.000771462e-14 0)
(3 -1.112609405e-14 0)
(3 -1.068448065e-14 0)
(3 -1.059578209e-14 0)
(3 -7.148227497e-15 0)
(3 -7.059060723e-16 0)
(3 -1.334681789e-15 0)
(3 -1.024159461e-15 0)
(3 -2.529277036e-15 0)
(3 -5.465248823e-15 0)
(3 -8.141244887e-15 0)
(3 -9.015811201e-15 0)
(3 -9.009997208e-15 0)
(3 -8.619648784e-15 0)
(3 -7.593819818e-15 0)
(3 -7.086063096e-15 0)
(3 -5.835845561e-15 0)
(3 -4.792164006e-15 0)
(3 -3.763275522e-15 0)
(3 -2.04673571e-15 0)
(3 2.934564012e-17 0)
(3 -5.209926354e-15 0)
(3 -2.684162494e-15 0)
(3 1.424923028e-15 0)
(3 4.333336299e-15 0)
(3 5.102063038e-15 0)
(3 5.470618552e-15 0)
(3 6.454279488e-15 0)
(3 6.629405022e-15 0)
(3 5.24056022e-15 0)
(3 2.689031568e-15 0)
(3 -8.832482801e-16 0)
(3 -8.009328358e-15 0)
(3 -1.317893746e-14 0)
(3 -1.506189303e-14 0)
(3 -1.528938112e-14 0)
(3 -1.547798204e-14 0)
(3 -1.455659376e-14 0)
(3 -1.371369107e-14 0)
(3 -1.352567878e-14 0)
(3 -1.320539518e-14 0)
(3 -1.248485359e-14 0)
(3 -1.358174843e-14 0)
(3 -1.576766019e-14 0)
(3 -1.726333593e-14 0)
(3 -1.918305056e-14 0)
(3 -2.21629017e-14 0)
(3 -2.218534016e-14 0)
(3 -2.029372929e-14 0)
(3 -1.69667494e-14 0)
(3 -1.787873779e-14 0)
(3 -2.11023829e-14 0)
(3 -2.301763676e-14 0)
(3 -2.409744817e-14 0)
(3 -2.53434343e-14 0)
(3 -2.531636455e-14 0)
(3 -2.263983425e-14 0)
(3 -2.090649251e-14 0)
(3 -1.779619318e-14 0)
(3 -1.722355919e-14 0)
(3 -1.515274965e-14 0)
(3 -1.387759034e-14 0)
(3 -1.26340578e-14 0)
(3 -1.138834811e-14 0)
(3 -8.180785047e-15 0)
(3 -5.728410253e-15 0)
(3 -4.867737592e-15 0)
(3 -4.098165467e-15 0)
(3 -1.591219702e-15 0)
(3 2.587793473e-15 0)
(3 5.289775611e-15 0)
(3 1.104623808e-14 0)
(3 1.040717335e-14 0)
(3 4.609109422e-15 0)
(3 6.190158811e-16 0)
(3 -1.403254307e-15 0)
(3 -1.392968999e-15 0)
(3 -6.153110593e-16 0)
(3 -7.536664534e-17 0)
(3 -3.047457548e-15 0)
(3 -5.666357113e-15 0)
(3 -4.569320778e-15 0)
(3 -3.586977345e-15 0)
(3 -2.191212303e-15 0)
(3 -1.889817969e-16 0)
(3 2.003832379e-15 0)
(3 2.977339705e-15 0)
(3 4.515513884e-15 0)
(3 -3.191323252e-16 0)
(3 1.381942173e-15 0)
(3 1.458044641e-15 0)
(3 2.069222326e-15 0)
(3 2.377651973e-15 0)
(3 2.188826348e-15 0)
(3 9.884383569e-16 0)
(3 1.815754412e-15 0)
(3 2.069440739e-15 0)
(3 9.08284596e-16 0)
(3 -2.408380196e-15 0)
(3 -5.593000735e-15 0)
(3 -9.30516454e-15 0)
(3 -1.134378887e-14 0)
(3 -1.220990905e-14 0)
(3 -1.148841656e-14 0)
(3 -1.142458734e-14 0)
(3 -1.148138463e-14 0)
(3 -1.203135757e-14 0)
(3 -1.318271898e-14 0)
(3 -1.314566849e-14 0)
(3 -1.370112641e-14 0)
(3 -1.618773044e-14 0)
(3 -1.789230704e-14 0)
(3 -2.126133013e-14 0)
(3 -2.682480401e-14 0)
(3 -2.959389832e-14 0)
(3 -2.970984616e-14 0)
(3 -2.802308154e-14 0)
(3 -2.660464742e-14 0)
(3 -2.622276587e-14 0)
(3 -2.622126713e-14 0)
(3 -2.601363932e-14 0)
(3 -2.418033316e-14 0)
(3 -2.25152164e-14 0)
(3 -2.42855017e-14 0)
(3 -2.459435177e-14 0)
(3 -2.041676594e-14 0)
(3 -1.696162204e-14 0)
(3 -1.347710129e-14 0)
(3 -1.189894049e-14 0)
(3 -8.547291934e-15 0)
(3 -4.462077307e-15 0)
(3 -4.509471226e-16 0)
(3 1.627206005e-15 0)
(3 2.524858773e-15 0)
(3 2.936328949e-15 0)
(3 4.74963655e-15 0)
(3 8.428814118e-15 0)
(3 1.29359284e-14 0)
(3 1.577436992e-14 0)
(3 1.459619304e-14 0)
(3 9.439360024e-15 0)
(3 3.235397801e-15 0)
(3 1.572618715e-15 0)
(3 2.730468994e-15 0)
(3 5.254707075e-15 0)
(3 5.15072891e-15 0)
(3 2.246086901e-15 0)
(3 1.528810366e-15 0)
(3 3.867682083e-15 0)
(3 4.62744978e-15 0)
(3 5.834155395e-15 0)
(3 5.844001417e-15 0)
(3 6.253372338e-15 0)
(3 5.105790351e-15 0)
(3 3.721005294e-15 0)
(3 8.552552641e-15 0)
(3 5.805488995e-15 0)
(3 3.964021455e-15 0)
(3 1.426308682e-15 0)
(3 1.287355071e-15 0)
(3 1.531658174e-15 0)
(3 1.95318879e-15 0)
(3 4.505110733e-15 0)
(3 7.603358679e-15 0)
(3 6.766691433e-15 0)
(3 4.707399142e-15 0)
(3 1.437499518e-15 0)
(3 -3.321076994e-15 0)
(3 -8.869347192e-15 0)
(3 -1.068427188e-14 0)
(3 -1.43968929e-14 0)
(3 -1.491626324e-14 0)
(3 -1.417275322e-14 0)
(3 -1.467922901e-14 0)
(3 -1.525998826e-14 0)
(3 -1.51561903e-14 0)
(3 -1.560409429e-14 0)
(3 -1.81519034e-14 0)
(3 -2.2769035e-14 0)
(3 -2.821455864e-14 0)
(3 -3.148993457e-14 0)
(3 -3.329681572e-14 0)
(3 -3.505062769e-14 0)
(3 -3.739859216e-14 0)
(3 -3.607349852e-14 0)
(3 -3.242894996e-14 0)
(3 -3.07330701e-14 0)
(3 -2.88235169e-14 0)
(3 -3.133534007e-14 0)
(3 -3.078171075e-14 0)
(3 -2.886261126e-14 0)
(3 -2.526731755e-14 0)
(3 -2.070435154e-14 0)
(3 -1.664530136e-14 0)
(3 -1.112325611e-14 0)
(3 -5.238666789e-15 0)
(3 -1.516074093e-15 0)
(3 6.86506561e-16 0)
(3 3.049034759e-15 0)
(3 5.552333181e-15 0)
(3 8.517116078e-15 0)
(3 1.197235049e-14 0)
(3 1.252074204e-14 0)
(3 1.288275991e-14 0)
(3 1.369891759e-14 0)
(3 1.567017985e-14 0)
(3 1.48925126e-14 0)
(3 1.260421703e-14 0)
(3 9.64689189e-15 0)
(3 6.795620042e-15 0)
(3 7.443066073e-15 0)
(3 8.799057037e-15 0)
(3 8.768391957e-15 0)
(3 9.972244817e-15 0)
(3 1.320421429e-14 0)
(3 1.328921222e-14 0)
(3 1.276038406e-14 0)
(3 1.168033037e-14 0)
(3 1.08799421e-14 0)
(3 9.31518629e-15 0)
(3 7.846166772e-15 0)
(3 7.157915649e-15 0)
(3 1.644800789e-14 0)
(3 8.624655526e-15 0)
(3 4.553503957e-15 0)
(3 2.848107019e-15 0)
(3 2.735785379e-15 0)
(3 4.361233531e-15 0)
(3 7.674416828e-15 0)
(3 8.943593583e-15 0)
(3 9.190048669e-15 0)
(3 7.796427135e-15 0)
(3 7.342382259e-15 0)
(3 4.491327469e-15 0)
(3 1.203212621e-15 0)
(3 -7.357385929e-16 0)
(3 -3.333807125e-15 0)
(3 -7.958914695e-15 0)
(3 -1.08914544e-14 0)
(3 -1.395152499e-14 0)
(3 -1.813739761e-14 0)
(3 -2.014723947e-14 0)
(3 -2.18317166e-14 0)
(3 -2.520697116e-14 0)
(3 -2.632161112e-14 0)
(3 -3.036705872e-14 0)
(3 -3.35386501e-14 0)
(3 -3.435353604e-14 0)
(3 -3.466300713e-14 0)
(3 -3.582633931e-14 0)
(3 -3.691619492e-14 0)
(3 -3.943993993e-14 0)
(3 -3.983043947e-14 0)
(3 -3.935350378e-14 0)
(3 -3.793452996e-14 0)
(3 -3.46890328e-14 0)
(3 -3.244899626e-14 0)
(3 -2.84397692e-14 0)
(3 -2.246902778e-14 0)
(3 -1.950735501e-14 0)
(3 -1.363350616e-14 0)
(3 -5.460093202e-15 0)
(3 -3.341989599e-15 0)
(3 7.479738101e-16 0)
(3 2.265758836e-15 0)
(3 5.932871503e-15 0)
(3 9.137788147e-15 0)
(3 1.443350153e-14 0)
(3 1.797645972e-14 0)
(3 1.850846913e-14 0)
(3 1.770446796e-14 0)
(3 1.782774919e-14 0)
(3 1.805354799e-14 0)
(3 1.640142412e-14 0)
(3 1.569914907e-14 0)
(3 1.601510067e-14 0)
(3 1.54219105e-14 0)
(3 1.545905633e-14 0)
(3 1.685432249e-14 0)
(3 2.053906945e-14 0)
(3 2.312661477e-14 0)
(3 2.26288213e-14 0)
(3 2.044063575e-14 0)
(3 1.893746524e-14 0)
(3 1.66611234e-14 0)
(3 1.390923467e-14 0)
(3 1.215405017e-14 0)
(3 8.365742454e-15 0)
(3 4.617337137e-15 0)
(3 2.094876489e-14 0)
(3 1.828624296e-14 0)
(3 1.399272976e-14 0)
(3 9.539111839e-15 0)
(3 7.044376082e-15 0)
(3 7.640686957e-15 0)
(3 7.078351438e-15 0)
(3 6.283442951e-15 0)
(3 6.27655928e-15 0)
(3 6.847310676e-15 0)
(3 6.550833017e-15 0)
(3 4.877007971e-15 0)
(3 3.352826164e-15 0)
(3 2.394312596e-15 0)
(3 -2.475346617e-18 0)
(3 -5.214723525e-15 0)
(3 -8.933019253e-15 0)
(3 -1.385707116e-14 0)
(3 -1.936289997e-14 0)
(3 -2.320528712e-14 0)
(3 -2.885532775e-14 0)
(3 -3.10432002e-14 0)
(3 -3.171664313e-14 0)
(3 -3.263898689e-14 0)
(3 -3.082751309e-14 0)
(3 -3.017148703e-14 0)
(3 -3.020291594e-14 0)
(3 -3.107592157e-14 0)
(3 -3.248418344e-14 0)
(3 -3.450281882e-14 0)
(3 -3.619819609e-14 0)
(3 -3.783951226e-14 0)
(3 -3.824729512e-14 0)
(3 -3.676781686e-14 0)
(3 -3.186503903e-14 0)
(3 -2.612646007e-14 0)
(3 -2.029305334e-14 0)
(3 -1.693488772e-14 0)
(3 -1.08770756e-14 0)
(3 -5.314719452e-15 0)
(3 -4.114776428e-16 0)
(3 1.874466958e-15 0)
(3 6.357886426e-15 0)
(3 1.143059301e-14 0)
(3 1.73157765e-14 0)
(3 2.158142789e-14 0)
(3 2.25651901e-14 0)
(3 2.280282581e-14 0)
(3 2.208149622e-14 0)
(3 2.204357982e-14 0)
(3 2.121350733e-14 0)
(3 2.250868378e-14 0)
(3 2.024027589e-14 0)
(3 2.049941011e-14 0)
(3 2.227621581e-14 0)
(3 2.218796731e-14 0)
(3 2.532328536e-14 0)
(3 2.63963516e-14 0)
(3 2.606055997e-14 0)
(3 2.515952577e-14 0)
(3 2.413479646e-14 0)
(3 2.295563645e-14 0)
(3 2.023895522e-14 0)
(3 1.808750847e-14 0)
(3 1.709378023e-14 0)
(3 1.222120592e-14 0)
(3 4.410079606e-15 0)
(3 2.283920647e-14 0)
(3 2.267564293e-14 0)
(3 1.933543518e-14 0)
(3 1.200209346e-14 0)
(3 1.037430418e-14 0)
(3 1.097559062e-14 0)
(3 6.065049371e-15 0)
(3 3.231232119e-15 0)
(3 2.682425193e-15 0)
(3 4.143247932e-15 0)
(3 4.631247303e-15 0)
(3 4.194170362e-15 0)
(3 2.972032211e-15 0)
(3 9.318248744e-16 0)
(3 -2.906396746e-15 0)
(3 -7.374535092e-15 0)
(3 -1.270684342e-14 0)
(3 -1.807935746e-14 0)
(3 -2.316875999e-14 0)
(3 -2.737589571e-14 0)
(3 -2.961952245e-14 0)
(3 -3.319629689e-14 0)
(3 -3.806181256e-14 0)
(3 -3.792485657e-14 0)
(3 -3.583990776e-14 0)
(3 -3.287561373e-14 0)
(3 -3.177869227e-14 0)
(3 -3.230489946e-14 0)
(3 -3.237704529e-14 0)
(3 -3.224092959e-14 0)
(3 -3.116166886e-14 0)
(3 -2.825235126e-14 0)
(3 -2.741722279e-14 0)
(3 -2.643392484e-14 0)
(3 -2.314539279e-14 0)
(3 -2.261625386e-14 0)
(3 -2.081517744e-14 0)
(3 -1.666636224e-14 0)
(3 -1.092007256e-14 0)
(3 -6.151095667e-15 0)
(3 -2.74285205e-15 0)