/*--------------------------------*- C++ -*----------------------------------*\
  =========                 |
  \\      /  F ield         | OpenFOAM: The Open Source CFD Toolbox
   \\    /   O peration     | Website:  https://openfoam.org
    \\  /    A nd           | Version:  7
     \\/     M anipulation  |
\*---------------------------------------------------------------------------*/
FoamFile
{
    version     2.0;
    format      ascii;
    class       volScalarField;
    location    "2";
    object      rho;
}
// * * * * * * * * * * * * * * * * * * * * * * * * * * * * * * * * * * * * * //

dimensions      [1 -3 0 0 0 0 0];

internalField   nonuniform List<scalar> 5(1.589830572 1.651401374 1.743551089 1.589830577 1.651401368);

boundaryField
{
    inlet
    {
        type            calculated;
        value           nonuniform 0();
    }
    outlet
    {
        type            calculated;
        value           nonuniform 0();
    }
    bottom
    {
        type            calculated;
        value           nonuniform 0();
    }
    top
    {
        type            calculated;
        value           nonuniform 0();
    }
    obstacle
    {
        type            calculated;
        value           nonuniform List<scalar> 5(1.589830577 1.651401368 1.589830572 1.651401374 1.743551089);
    }
    defaultFaces
    {
        type            empty;
    }
    procBoundary20to9
    {
        type            processor;
        value           uniform 1.540837331;
    }
    procBoundary20to13
    {
        type            processor;
        value           uniform 1.519951593;
    }
    procBoundary20to14
    {
        type            processor;
        value           nonuniform List<scalar> 3(1.427515049 1.446759992 1.493308051);
    }
    procBoundary20to19
    {
        type            processor;
        value           uniform 1.519951589;
    }
    procBoundary20to26
    {
        type            processor;
        value           nonuniform List<scalar> 3(1.427515048 1.743551107 1.446759993);
    }
}


// ************************************************************************* //
