/*--------------------------------*- C++ -*----------------------------------*\
  =========                 |
  \\      /  F ield         | OpenFOAM: The Open Source CFD Toolbox
   \\    /   O peration     | Website:  https://openfoam.org
    \\  /    A nd           | Version:  7
     \\/     M anipulation  |
\*---------------------------------------------------------------------------*/
FoamFile
{
    version     2.0;
    format      ascii;
    class       volVectorField;
    location    "3";
    object      U;
}
// * * * * * * * * * * * * * * * * * * * * * * * * * * * * * * * * * * * * * //

dimensions      [0 1 -1 0 0 0 0];

internalField   nonuniform List<vector> 
2222
(
(2.917808929 0.001802364959 0)
(2.922621326 -0.000126940448 0)
(2.932596873 0.01097739771 0)
(2.943203877 -0.007881397686 0)
(2.955374363 -0.01157440837 0)
(2.961867597 -0.005804018687 0)
(2.966075719 0.003207972164 0)
(2.969827245 0.01395936427 0)
(2.965476058 -0.0001341585678 0)
(2.958773918 0.0006502528708 0)
(2.953793148 0.005106749919 0)
(2.946745268 -0.001485628224 0)
(2.948615963 -0.006465755057 0)
(2.953176713 -0.008344885649 0)
(2.955177478 -0.004973242679 0)
(2.957144919 -0.006397476583 0)
(2.959445858 -0.004556647962 0)
(2.960004353 -0.003053626909 0)
(2.771064166 -0.2477511547 0)
(3.057762139 -0.252420723 0)
(2.974726189 -0.0348766148 0)
(2.956009702 -0.03667460524 0)
(2.952071566 0.007449082331 0)
(2.954986492 -0.01673053974 0)
(2.954328212 0.01065100605 0)
(2.9623739 0.02365249064 0)
(2.970955227 0.01340862894 0)
(2.981512234 -0.003524734403 0)
(2.98598106 -0.015598274 0)
(2.987755281 -0.01271217344 0)
(2.982943289 -0.008010905321 0)
(2.979057519 -0.005789226721 0)
(2.966123097 -0.0008792562398 0)
(2.961174101 0.007890464123 0)
(2.952758622 -2.380610023e-05 0)
(2.952464143 -0.001496508682 0)
(2.9573008 -0.002084768145 0)
(2.95954584 0.000887523484 0)
(2.95922503 0.001330327714 0)
(2.961293993 0.0002630487467 0)
(2.961477942 0.00177259176 0)
(3.223120708 -0.5342624904 0)
(3.392139355 -0.4658550462 0)
(3.16758919 -0.1092183602 0)
(3.038377842 -0.03728843328 0)
(3.009083215 0.01883694991 0)
(2.982125637 -0.02505395695 0)
(2.98726366 0.01016864445 0)
(2.985355548 0.03738630658 0)
(2.985070503 0.03702686762 0)
(2.995852408 0.005044812382 0)
(3.001475833 -0.01912692641 0)
(3.003365852 -0.02116385801 0)
(2.999084145 -0.02859668749 0)
(2.986388074 -0.0191801429 0)
(2.974679654 -0.01675379599 0)
(2.967839684 0.001443096398 0)
(2.957532683 0.002557974282 0)
(2.954651868 0.00376874405 0)
(2.957031811 0.00429677027 0)
(2.957919673 0.008016395005 0)
(2.957087616 0.007998515414 0)
(2.957074342 0.005683325173 0)
(2.957103941 0.007679778276 0)
(3.256022318 -1.075235049 0)
(3.307974531 -0.7648599051 0)
(3.256278772 -0.2088426418 0)
(3.120962671 -0.008016801168 0)
(3.029654617 -0.001494083892 0)
(2.98590132 -0.01922320719 0)
(3.005071713 0.01305819953 0)
(3.002573717 0.01993140925 0)
(2.992162462 0.04671300445 0)
(2.996834259 0.0201190283 0)
(3.004130646 -0.009300621712 0)
(3.005200385 -0.02110421211 0)
(2.998097335 -0.04235991093 0)
(2.988784413 -0.0348999923 0)
(2.97654926 -0.03390391651 0)
(2.96816603 -0.008035495665 0)
(2.956752262 0.002443522952 0)
(2.949725215 0.009315117248 0)
(2.949142098 0.01053064671 0)
(2.951784875 0.01229824199 0)
(2.949958593 0.01276873036 0)
(2.947601756 0.00970616471 0)
(2.948265892 0.01167233701 0)
(3.184750002 -1.278868508 0)
(3.208645717 -1.282126168 0)
(3.260750876 -0.8644189485 0)
(3.133019361 -0.1270544908 0)
(3.03187724 -0.03425743663 0)
(2.986041929 0.02089353124 0)
(2.992374948 0.013416085 0)
(2.992882617 0.01283010296 0)
(2.992006477 0.03546393181 0)
(2.984657892 0.03262405072 0)
(2.990828409 0.01498310347 0)
(2.991592884 -0.007573906689 0)
(2.985509323 -0.03938100739 0)
(2.976545052 -0.04380128517 0)
(2.962829827 -0.04088097171 0)
(2.955341032 -0.01315574438 0)
(2.948284526 -0.003574746835 0)
(2.940247158 0.0011733515 0)
(2.938685564 0.004931582911 0)
(2.940856083 0.006476340601 0)
(2.939508145 0.006857012368 0)
(2.935333826 0.008585624241 0)
(2.933596051 0.0122832836 0)
(3.181185721 -1.278255419 0)
(3.20874935 -1.285852512 0)
(3.252389459 -1.282492873 0)
(3.241452203 -0.6769599653 0)
(3.036130839 -0.1505155868 0)
(2.972581755 0.04577486655 0)
(2.947841176 0.008522865113 0)
(2.957456959 0.004251543319 0)
(2.974692562 0.0189003264 0)
(2.96581825 0.03376301921 0)
(2.967281192 0.01454242035 0)
(2.967107977 0.001225324353 0)
(2.960337384 -0.02404779138 0)
(2.948029003 -0.0396526852 0)
(2.938895744 -0.03014113739 0)
(2.93468274 -0.01513844624 0)
(2.929408895 -0.01114106939 0)
(2.925432025 -0.007966530005 0)
(2.922706629 -0.001710410948 0)
(2.921942115 -0.001020921993 0)
(2.921259355 -0.001072182673 0)
(2.917269201 0.001886251926 0)
(2.914411296 0.007437225639 0)
(2.912519719 0.007597643008 0)
(3.179808349 -1.277797817 0)
(3.209438261 -1.289264597 0)
(3.252435347 -1.296962971 0)
(3.230137588 -1.196276707 0)
(3.072653652 -0.2805688946 0)
(2.93980672 0.01851434745 0)
(2.90701233 0.006554317628 0)
(2.922152583 0.01269519543 0)
(2.931676701 0.003653487949 0)
(2.941886796 0.02571637713 0)
(2.941966495 0.01591069759 0)
(2.941776664 0.01008133432 0)
(2.933054671 -0.001951948734 0)
(2.919716482 -0.02189516102 0)
(2.917521327 -0.01308309792 0)
(2.914935989 -0.009311793858 0)
(2.905684997 -0.01727561033 0)
(2.897806992 -0.01896123493 0)
(2.896122241 -0.009779747019 0)
(2.893823108 -0.007130686036 0)
(2.891210901 -0.009404669468 0)
(2.891035322 -0.006755211546 0)
(2.888986539 -0.001288504809 0)
(2.885605837 0.003605183053 0)
(3.175743954 -1.274365674 0)
(3.206027176 -1.29532217 0)
(3.251759296 -1.292638259 0)
(3.237108577 -1.285413739 0)
(3.132752468 -0.7674699287 0)
(2.936972149 -0.1620956544 0)
(2.890956796 0.001520220428 0)
(2.888841427 0.03814855395 0)
(2.880276939 -0.002470939471 0)
(2.897064236 0.005523833215 0)
(2.90302736 0.004439737275 0)
(2.906035424 0.008012826674 0)
(2.90289308 0.01023840973 0)
(2.891430664 -0.003859238586 0)
(2.887112958 -0.0002307799463 0)
(2.880490905 0.001596244665 0)
(2.872747304 -0.01540420306 0)
(2.864741893 -0.02346883267 0)
(2.861101184 -0.01163280868 0)
(2.859048735 -0.004838449736 0)
(2.854430737 -0.01200621877 0)
(2.854811103 -0.01298715393 0)
(2.855698499 -0.00881733068 0)
(2.854639079 -0.002016172206 0)
(3.172129305 -1.273424531 0)
(3.201386856 -1.296610478 0)
(3.248056168 -1.296275863 0)
(3.23086132 -1.283808483 0)
(3.152722179 -1.236684339 0)
(2.992818317 -0.4120117435 0)
(2.863164449 -0.001361590721 0)
(2.835630479 0.06066566018 0)
(2.825378629 0.01009477933 0)
(2.840107891 -0.01884379704 0)
(2.851659703 -0.01630499212 0)
(2.859660005 -0.007007936889 0)
(2.859311758 0.01297384506 0)
(2.848228444 0.005634743335 0)
(2.842612655 0.003359882706 0)
(2.834317336 0.001929148763 0)
(2.828966634 -0.01031687819 0)
(2.826965353 -0.01775919651 0)
(2.824578009 -0.01067817997 0)
(2.825062465 -0.0007444492649 0)
(2.820973619 -0.006132943537 0)
(2.817025054 -0.01378984207 0)
(2.818178443 -0.009159230313 0)
(2.820566114 -0.002240058594 0)
(3.168888052 -1.274543141 0)
(3.197711474 -1.298626926 0)
(3.244173537 -1.293084022 0)
(3.224992077 -1.284887785 0)
(3.158958327 -1.25374287 0)
(3.074173089 -1.02647137 0)
(2.832772277 -0.1462603946 0)
(2.773954702 0.06011899184 0)
(2.7794917 0.0478992338 0)
(2.785375022 -0.02110756928 0)
(2.794364838 -0.02442421141 0)
(2.805343837 -0.01754060255 0)
(2.812632918 0.004080758648 0)
(2.803814052 0.004586123519 0)
(2.797391082 -0.0061218686 0)
(2.796583464 -0.008021730352 0)
(2.791005224 -0.01365656974 0)
(2.789127722 -0.01083122145 0)
(2.794790978 -0.00506913173 0)
(2.797810887 0.006382033369 0)
(2.795113113 0.004763344815 0)
(2.791519206 -0.003907380085 0)
(2.791597666 -0.0008865961627 0)
(2.791944424 0.001318143646 0)
(3.164461911 -1.275694594 0)
(3.195429859 -1.29972324 0)
(3.241873239 -1.292213943 0)
(3.218695936 -1.288903626 0)
(3.152048832 -1.246953265 0)
(3.091067086 -1.217990153 0)
(3.068298526 -0.8007169285 0)
(2.752335528 -0.09191204557 0)
(2.747689288 0.06486551317 0)
(2.745129769 -0.003627797999 0)
(2.756518661 -0.008243185072 0)
(2.763759732 -0.006094464557 0)
(2.775202414 0.0005824950981 0)
(2.771773989 -0.002208844769 0)
(2.769313893 -0.02751392602 0)
(2.77344307 -0.0270681772 0)
(2.769633164 -0.02034932285 0)
(2.766648313 -0.009097574707 0)
(2.768063934 -0.007098029462 0)
(2.768095795 0.004501850604 0)
(2.766649776 0.006214290927 0)
(2.769020923 0.003578067577 0)
(2.771435666 0.00759936074 0)
(2.772426417 0.006741595073 0)
(3.160594601 -1.275666176 0)
(3.190884926 -1.297724979 0)
(3.239127262 -1.293912896 0)
(3.217753436 -1.290025323 0)
(3.147058498 -1.247866976 0)
(3.08585813 -1.222433006 0)
(3.017923003 -1.165328995 0)
(2.876891445 -0.3631194122 0)
(2.726296774 0.02174863212 0)
(2.714427004 0.02639383909 0)
(2.735117532 0.01368686951 0)
(2.742273242 0.009810498274 0)
(2.75037323 -0.004929012158 0)
(2.747523043 -0.02133841583 0)
(2.744794607 -0.04335173959 0)
(2.74837268 -0.04048867718 0)
(2.75091035 -0.02908634805 0)
(2.748819136 -0.0118664685 0)
(2.743065266 -0.00986856111 0)
(2.739247363 -0.0004093471553 0)
(2.738310954 0.007126836393 0)
(2.740671158 0.009809359172 0)
(2.745630278 0.01540079131 0)
(2.749266789 0.01320087874 0)
(2.750401576 0.001573812268 0)
(3.158364426 -1.275427167 0)
(3.18755354 -1.289643771 0)
(3.234500864 -1.299200824 0)
(3.215669071 -1.291393293 0)
(3.144625533 -1.248495902 0)
(3.081830619 -1.219321635 0)
(3.028227169 -1.202935224 0)
(2.955841585 -0.7192837472 0)
(2.763831919 -0.1421370477 0)
(2.693154552 0.07538023954 0)
(2.709002955 0.05839012772 0)
(2.723367082 0.04502161291 0)
(2.729876393 -0.01016616793 0)
(2.728786773 -0.03232131834 0)
(2.722761748 -0.04612176583 0)
(2.724567903 -0.04396014955 0)
(2.726940884 -0.0378937132 0)
(2.72537836 -0.02303033269 0)
(2.724051058 -0.01358713687 0)
(2.723535461 -0.004675356339 0)
(2.718765195 0.001130685135 0)
(2.71796111 0.01178461461 0)
(2.722851559 0.01504663572 0)
(2.725956677 0.01343033058 0)
(2.727264074 0.002314629684 0)
(3.155355398 -1.274337722 0)
(3.185159118 -1.285623357 0)
(3.230016149 -1.304080254 0)
(3.213766146 -1.291946834 0)
(3.144035256 -1.24982578 0)
(3.081091591 -1.221838116 0)
(3.021446168 -1.210447877 0)
(2.963589721 -1.156009521 0)
(2.861299701 -0.3273606584 0)
(2.683357813 0.06066288437 0)
(2.69762855 0.08187827817 0)
(2.705274142 0.0608849498 0)
(2.708570873 0.008095753367 0)
(2.712374863 -0.03668827777 0)
(2.711657449 -0.03202809515 0)
(2.712430691 -0.03349158848 0)
(2.712705915 -0.03716414706 0)
(2.711438073 -0.02810972215 0)
(2.709926408 -0.01663605623 0)
(2.71088681 -0.01065684208 0)
(2.707193677 -0.00683333264 0)
(2.706741631 0.001572486354 0)
(2.712254011 0.005381227486 0)
(2.714787047 0.005469189566 0)
(2.715150783 -0.001844460132 0)
(3.152486383 -1.273047191 0)
(3.184023471 -1.285097976 0)
(3.227022329 -1.307523707 0)
(3.207490143 -1.291591076 0)
(3.144208022 -1.251222219 0)
(3.080341782 -1.222416541 0)
(3.02020149 -1.207368592 0)
(2.967906096 -1.180871343 0)
(2.940232652 -0.8780431682 0)
(2.783705331 -0.1669511046 0)
(2.687756513 0.03904298392 0)
(2.694195372 0.04204156404 0)
(2.697744991 0.02459082252 0)
(2.704588689 -0.01771844294 0)
(2.705003912 -0.01179744743 0)
(2.704898267 -0.01067414275 0)
(2.70716378 -0.02866372112 0)
(2.707287259 -0.03303921201 0)
(2.703533185 -0.01576304644 0)
(2.703548237 -0.009336279863 0)
(2.706173448 -0.01771078416 0)
(2.706456701 -0.01184016397 0)
(2.709236765 -0.007915106427 0)
(2.712812032 -0.0007359702751 0)
(2.712698619 -0.001359099282 0)
(3.148312101 -1.272106211 0)
(3.182635886 -1.285154775 0)
(3.222612957 -1.310202472 0)
(3.204900417 -1.289425321 0)
(3.142226816 -1.25345296 0)
(3.079219175 -1.222638377 0)
(3.019051332 -1.210134278 0)
(2.967839055 -1.183176713 0)
(2.952023659 -1.167649927 0)
(2.956659297 -0.5549891792 0)
(2.726947952 -0.08867688057 0)
(2.701437666 0.004338589436 0)
(2.702028718 0.03219345217 0)
(2.701402566 0.009762381624 0)
(2.705079423 0.007622360866 0)
(2.707017807 0.006770234256 0)
(2.706696469 -0.01335084986 0)
(2.709177106 -0.03060066471 0)
(2.70998401 -0.01505486032 0)
(2.708651323 -0.006607240681 0)
(2.707688614 -0.0185731582 0)
(2.710046485 -0.0197927741 0)
(2.713427467 -0.01307354774 0)
(2.716004458 -0.007789346866 0)
(2.71543216 8.343356327e-05 0)
(3.144112092 -1.272128866 0)
(3.181726751 -1.285070868 0)
(3.218879993 -1.3116202 0)
(3.203479199 -1.289429583 0)
(3.139789196 -1.255319675 0)
(3.074961523 -1.223150968 0)
(3.019005196 -1.210677667 0)
(2.972212594 -1.181988692 0)
(2.950962035 -1.176667982 0)
(2.958786963 -1.085229437 0)
(2.841758407 -0.2914084731 0)
(2.725090196 -0.04311437767 0)
(2.711121156 0.02103082325 0)
(2.705938496 0.02951293764 0)
(2.711109739 0.01774159986 0)
(2.717556414 0.01606328738 0)
(2.71540501 0.002015307169 0)
(2.718095672 -0.01588158102 0)
(2.724206237 -0.01879108045 0)
(2.72235563 -0.009247820467 0)
(2.714618111 -0.0159411965 0)
(2.717799467 -0.02030389989 0)
(2.722469647 -0.008814866626 0)
(2.725927362 -0.008188975203 0)
(2.723374749 -0.001376534489 0)
(3.141240233 -1.272358975 0)
(3.180018429 -1.283383396 0)
(3.216311264 -1.312460175 0)
(3.203161691 -1.28991984 0)
(3.13797531 -1.256217018 0)
(3.071527259 -1.222715767 0)
(3.018057453 -1.211426924 0)
(2.97400772 -1.185018056 0)
(2.957285847 -1.174752377 0)
(2.964448404 -1.182433368 0)
(2.956559723 -0.6418325849 0)
(2.791731315 -0.1487372351 0)
(2.727433928 -0.002981270472 0)
(2.717599593 0.03237343233 0)
(2.720534795 0.003505434882 0)
(2.728787589 0.006880608754 0)
(2.729589235 0.00110044522 0)
(2.732938699 -0.008662016282 0)
(2.735338439 -0.02304456181 0)
(2.733744258 -0.01140354086 0)
(2.72707105 -0.01029669798 0)
(2.726054492 -0.0107960871 0)
(2.729907451 0.002154603771 0)
(2.732553286 -0.0008008771012 0)
(2.734858075 -0.002186081557 0)
(3.138338892 -1.274497936 0)
(3.178003729 -1.279848273 0)
(3.213246179 -1.312723739 0)
(3.203640442 -1.291299922 0)
(3.138364131 -1.257213641 0)
(3.069173142 -1.223397329 0)
(3.016994071 -1.211883271 0)
(2.977077425 -1.186307011 0)
(2.959838911 -1.175841999 0)
(2.967223458 -1.190360436 0)
(2.97649815 -1.17268638 0)
(2.859379218 -0.1768609897 0)
(2.753367964 -0.04877486899 0)
(2.742748065 0.006377083701 0)
(2.735167263 -0.01450022247 0)
(2.741075044 -0.01936623505 0)
(2.741552933 -0.009525957992 0)
(2.744351603 -0.01283394564 0)
(2.743744136 -0.03061984607 0)
(2.744921591 -0.01996779251 0)
(2.741551255 -0.004831644296 0)
(2.738130241 0.002500267623 0)
(2.742326702 0.01332315357 0)
(2.741519273 0.006370725269 0)
(2.746160542 -0.002770978405 0)
(2.744839582 0.0002211139133 0)
(3.138484385 -1.275631888 0)
(3.176556306 -1.278571338 0)
(3.209491058 -1.312465246 0)
(3.204833576 -1.292915182 0)
(3.139473167 -1.258891087 0)
(3.068382372 -1.224474961 0)
(3.01674143 -1.211838655 0)
(2.979034424 -1.188191609 0)
(2.96143229 -1.175711896 0)
(2.969228075 -1.187715961 0)
(2.988082982 -1.200442475 0)
(2.998063247 -0.8279182788 0)
(2.831236067 -0.1542093371 0)
(2.772192638 -0.01228094293 0)
(2.752367953 -0.02281960048 0)
(2.759385101 -0.03458847522 0)
(2.757116474 -0.03387533869 0)
(2.75491196 -0.01747481481 0)
(2.754037659 -0.04504341569 0)
(2.763169705 -0.03676368128 0)
(2.760467589 -0.006919062026 0)
(2.758515519 0.00948719389 0)
(2.761794228 0.01734001223 0)
(2.760116045 0.0111132441 0)
(2.75824317 -0.003718161067 0)
(2.758441613 -0.009217562071 0)
(3.138837018 -1.275737103 0)
(3.175706051 -1.278787021 0)
(3.206797723 -1.31286448 0)
(3.20655085 -1.29450432 0)
(3.1408853 -1.260426919 0)
(3.068729571 -1.225202844 0)
(3.017655969 -1.211451269 0)
(2.980526294 -1.189889787 0)
(2.962345487 -1.175858756 0)
(2.968316549 -1.187638588 0)
(2.990716462 -1.200726995 0)
(3.004557975 -1.18701552 0)
(2.929811513 -0.2712352862 0)
(2.81627634 -0.07659621605 0)
(2.775070685 -0.02115542658 0)
(2.781722455 -0.03773527524 0)
(2.780984909 -0.04654812855 0)
(2.773641527 -0.04205312283 0)
(2.772859315 -0.04188322792 0)
(2.782590688 -0.03464548966 0)
(2.781946601 -0.01883218229 0)
(2.77890469 0.009057167299 0)
(2.778184861 0.01089149922 0)
(2.779036792 0.01054365546 0)
(2.77308738 -0.002987931683 0)
(2.773701827 -0.01574365855 0)
(3.138821033 -1.274853723 0)
(3.174940959 -1.283133753 0)
(3.206176456 -1.313884877 0)
(3.208883078 -1.296824068 0)
(3.142931741 -1.262085951 0)
(3.070244814 -1.224901657 0)
(3.020115972 -1.210093551 0)
(2.982263505 -1.191902819 0)
(2.962952402 -1.176365804 0)
(2.968005618 -1.185338503 0)
(2.991366672 -1.198077986 0)
(3.011995878 -1.208464947 0)
(3.027076179 -1.006989913 0)
(2.864533348 -0.1200361389 0)
(2.811560138 -0.00461733671 0)
(2.803409986 -0.01885841762 0)
(2.799330143 -0.05444216326 0)
(2.79353053 -0.06111759745 0)
(2.793689423 -0.03077222975 0)
(2.794272065 -0.02653137682 0)
(2.798815828 -0.02111738884 0)
(2.794549971 -0.007299032906 0)
(2.79117748 -0.007227231577 0)
(2.789567816 0.0005643129487 0)
(2.788540718 -0.00420146533 0)
(2.787744573 -0.01802495132 0)
(3.137637384 -1.266471212 0)
(3.172201974 -1.287183904 0)
(3.207116112 -1.314760931 0)
(3.209282135 -1.29868497 0)
(3.145016505 -1.263107032 0)
(3.072991497 -1.224536075 0)
(3.022637334 -1.209344616 0)
(2.983454947 -1.192443682 0)
(2.963785641 -1.177732682 0)
(2.967979877 -1.184200485 0)
(2.990851842 -1.197190705 0)
(3.012130429 -1.206413316 0)
(3.02884854 -1.202507302 0)
(2.996861194 -0.5317155378 0)
(2.842396799 -0.008478642862 0)
(2.810500163 0.01629285412 0)
(2.810256766 -0.03624841989 0)
(2.811495523 -0.04541496206 0)
(2.806901651 -0.01009518261 0)
(2.803405266 -0.001810399539 0)
(2.807739889 -0.02360867372 0)
(2.806957478 -0.02331101779 0)
(2.803147339 -0.02128612165 0)
(2.799749573 -0.01087305516 0)
(2.798338633 -0.006983711313 0)
(2.801742161 -0.01486227546 0)
(3.134878851 -1.257976151 0)
(3.168473411 -1.288100869 0)
(3.208523864 -1.312921245 0)
(3.209274785 -1.300420258 0)
(3.146525741 -1.26384873 0)
(3.075896751 -1.22505745 0)
(3.023774989 -1.209691419 0)
(2.983639535 -1.193342639 0)
(2.964102351 -1.179692731 0)
(2.96751818 -1.182543043 0)
(2.99086847 -1.195876661 0)
(3.013493824 -1.205192756 0)
(3.032085994 -1.216841365 0)
(3.048423338 -1.137429196 0)
(2.890963038 -0.2024098991 0)
(2.819033171 0.04029931348 0)
(2.814521049 -0.009413513169 0)
(2.819435381 -0.0283132548 0)
(2.818016134 0.004545376056 0)
(2.815402699 0.01191364884 0)
(2.813676131 -0.01790533082 0)
(2.816737197 -0.03296146705 0)
(2.813942948 -0.02682704497 0)
(2.81284214 -0.02004889519 0)
(2.80868644 -0.006537007104 0)
(2.808882795 -0.01007569517 0)
(3.131467078 -1.256833192 0)
(3.16630443 -1.288521004 0)
(3.210682856 -1.310344274 0)
(3.209527417 -1.303703155 0)
(3.147384801 -1.264134714 0)
(3.077328899 -1.226127001 0)
(3.022898849 -1.210436171 0)
(2.981901852 -1.195259443 0)
(2.96384471 -1.181830455 0)
(2.966655882 -1.181821666 0)
(2.991091375 -1.195124578 0)
(3.015182318 -1.206502272 0)
(3.034941459 -1.218305952 0)
(3.061084447 -1.215095011 0)
(3.13608897 -0.8525173628 0)
(2.839961876 -0.09183913575 0)
(2.81595699 0.03480705018 0)
(2.82186069 0.008004994095 0)
(2.828155539 0.0009482366231 0)
(2.824086651 0.01105124629 0)
(2.819860887 -0.008653020101 0)
(2.824531711 -0.03128746121 0)
(2.825064358 -0.01822269942 0)
(2.824421257 -0.02178620159 0)
(2.821262656 -0.01197841264 0)
(2.815300674 -0.0004000974515 0)
(2.814253262 0.005749058684 0)
(3.130005907 -1.257640884 0)
(3.162290308 -1.28530561 0)
(3.212589987 -1.309470733 0)
(3.211591733 -1.307216482 0)
(3.147947355 -1.264446045 0)
(3.077329016 -1.227191619 0)
(3.021488826 -1.211318201 0)
(2.980239565 -1.197779245 0)
(2.963437136 -1.183565429 0)
(2.968573183 -1.184123544 0)
(2.991407471 -1.195661023 0)
(3.01463689 -1.207563126 0)
(3.035924094 -1.219896997 0)
(3.053340297 -1.221032297 0)
(3.064870243 -1.19996186 0)
(3.018089867 -0.4132187526 0)
(2.834006631 0.02345251164 0)
(2.827773817 0.02979962418 0)
(2.83030736 -0.02276190713 0)
(2.83023788 -0.0064816932 0)
(2.825163754 -0.00818361422 0)
(2.83059507 -0.0173367097 0)
(2.832347415 -0.004817534569 0)
(2.83001006 -0.01633915477 0)
(2.828875105 -0.01387267285 0)
(2.824375643 0.001255729439 0)
(2.8224453 0.005033798203 0)
(3.125519113 -1.266021084 0)
(3.161239799 -1.277555647 0)
(3.213722881 -1.309375308 0)
(3.211615147 -1.30933066 0)
(3.148052059 -1.265034365 0)
(3.076461122 -1.227855689 0)
(3.020148963 -1.211955715 0)
(2.978896454 -1.199471331 0)
(2.964431904 -1.184994131 0)
(2.970643613 -1.184636405 0)
(2.9916462 -1.197018278 0)
(3.012711013 -1.207411718 0)
(3.035594746 -1.220268777 0)
(3.057678695 -1.222696705 0)
(3.069248432 -1.222827833 0)
(3.078576977 -0.8717108526 0)
(2.903471206 -0.1610684099 0)
(2.842725778 0.0302418524 0)
(2.824730476 -0.03645067742 0)
(2.83333037 -0.0402211688 0)
(2.830549329 -0.007173568995 0)
(2.833044845 -0.006965503836 0)
(2.835703946 0.004856684735 0)
(2.831964898 -0.009994718199 0)
(2.833253191 -0.01265363276 0)
(2.830378919 -0.007942443929 0)
(2.828193542 -0.007704657497 0)
(3.124314492 -1.280216353 0)
(3.163171187 -1.274699038 0)
(3.214124231 -1.309806141 0)
(3.213178145 -1.310632797 0)
(3.148042438 -1.265576541 0)
(3.07490453 -1.227831613 0)
(3.017603567 -1.211024346 0)
(2.977540755 -1.198927247 0)
(2.966531161 -1.185453701 0)
(2.971893575 -1.183864238 0)
(2.993051574 -1.19637601 0)
(3.012173434 -1.206065859 0)
(3.035599177 -1.219091385 0)
(3.057226899 -1.225876095 0)
(3.070897805 -1.226811975 0)
(3.076585772 -1.214440264 0)
(3.063580253 -0.5276745367 0)
(2.846259239 -0.05370914415 0)
(2.830012323 -0.04523156256 0)
(2.836814311 -0.04494207358 0)
(2.83518267 -0.0121642977 0)
(2.834301899 0.001914342254 0)
(2.837847775 0.006698054559 0)
(2.833697938 -0.003863040015 0)
(2.834835759 -0.01755936208 0)
(2.834039534 -0.01762005136 0)
(2.831279372 -0.01639487112 0)
(3.128690068 -1.283518173 0)
(3.164418132 -1.274404458 0)
(3.214530311 -1.310719751 0)
(3.21543415 -1.312484573 0)
(3.148303882 -1.266244127 0)
(3.072862894 -1.227447622 0)
(3.015090447 -1.208393058 0)
(2.975824148 -1.197131356 0)
(2.967076513 -1.184458361 0)
(2.974553928 -1.182798379 0)
(2.995474455 -1.194704214 0)
(3.014670596 -1.204069634 0)
(3.03675574 -1.217686153 0)
(3.058469285 -1.225552448 0)
(3.071402614 -1.228586211 0)
(3.07657835 -1.226882585 0)
(3.073384407 -1.082605648 0)
(2.904393831 -0.2640284421 0)
(2.845698043 -0.04786087361 0)
(2.837144504 -0.05018505764 0)
(2.837248242 -0.03607401679 0)
(2.836472017 -0.001723728546 0)
(2.837940826 -0.01284189511 0)
(2.836278076 -1.262055913e-06 0)
(2.83356639 -0.01916351746 0)
(2.83456004 -0.02624135338 0)
(2.832171754 -0.02334169823 0)
(3.132058204 -1.282690098 0)
(3.166558414 -1.275341057 0)
(3.214867836 -1.313046795 0)
(3.217717642 -1.312472979 0)
(3.148490248 -1.267192238 0)
(3.069804941 -1.226999214 0)
(3.011316837 -1.206370708 0)
(2.973427067 -1.19646007 0)
(2.966087887 -1.184814485 0)
(2.977216644 -1.182732868 0)
(2.997228474 -1.192421184 0)
(3.017806542 -1.201693912 0)
(3.03858281 -1.21612554 0)
(3.058913442 -1.225933406 0)
(3.07051752 -1.22839143 0)
(3.07586084 -1.226545783 0)
(3.075736749 -1.213102885 0)
(3.060804076 -0.622284096 0)
(2.862248712 -0.02869920218 0)
(2.835485559 -0.04079685201 0)
(2.837465338 -0.04519165065 0)
(2.835199957 -0.02822177153 0)
(2.83644381 -0.02820012741 0)
(2.837695838 -0.002741254863 0)
(2.832715807 -0.0135006723 0)
(2.833252859 -0.02872485448 0)
(2.831904528 -0.02254637332 0)
(3.133229487 -1.281360119 0)
(3.169477209 -1.284709061 0)
(3.216959451 -1.315548996 0)
(3.220205012 -1.313305294 0)
(3.148668022 -1.268875623 0)
(3.065793488 -1.226862965 0)
(3.006459941 -1.205444039 0)
(2.972018641 -1.196266914 0)
(2.96554447 -1.185717973 0)
(2.978485763 -1.182977879 0)
(2.998662265 -1.190958737 0)
(3.020314991 -1.199240164 0)
(3.040683048 -1.214400237 0)
(3.059533484 -1.225194096 0)
(3.070602512 -1.226280799 0)
(3.075226943 -1.225350049 0)
(3.075969675 -1.221408386 0)
(3.069295398 -1.167025013 0)
(2.886027133 -0.1870673651 0)
(2.827774263 0.008531793214 0)
(2.835269193 -0.04830929966 0)
(2.83255161 -0.04158859544 0)
(2.834214117 -0.03607567626 0)
(2.8385607 -0.01137366479 0)
(2.832200762 -0.01023424667 0)
(2.831256718 -0.01855322702 0)
(2.831911478 -0.009460842595 0)
(3.134114228 -1.266575747 0)
(3.17005967 -1.292828924 0)
(3.219021002 -1.316033945 0)
(3.224555756 -1.314715225 0)
(3.149997647 -1.270536572 0)
(3.061790198 -1.227070525 0)
(3.002556594 -1.205093639 0)
(2.970996169 -1.196043258 0)
(2.965311434 -1.187239617 0)
(2.979394279 -1.184045663 0)
(3.002314265 -1.191551955 0)
(3.024809071 -1.198618628 0)
(3.042970349 -1.21494552 0)
(3.059862351 -1.224245859 0)
(3.070782381 -1.225118152 0)
(3.074820598 -1.224933674 0)
(3.076571219 -1.222672663 0)
(3.077529841 -1.218132534 0)
(3.143715644 -0.9116044104 0)
(2.820794158 -0.03392763159 0)
(2.834033767 -0.06273035784 0)
(2.831811402 -0.045724952 0)
(2.832828809 -0.03237685269 0)
(2.838952848 -0.0258569099 0)
(2.831553529 -0.01163771392 0)
(2.828490237 -0.006184815435 0)
(2.829405548 -0.002053188919 0)
(2.825942651 -0.01628913042 0)
(3.132117352 -1.247735016 0)
(3.169099718 -1.295481847 0)
(3.224521163 -1.314553895 0)
(3.229138419 -1.315920472 0)
(3.151475452 -1.271785995 0)
(3.05924285 -1.227207223 0)
(2.99972568 -1.204610678 0)
(2.969562298 -1.196343475 0)
(2.965834712 -1.190144739 0)
(2.980944613 -1.186332427 0)
(3.004953427 -1.193199313 0)
(3.028696303 -1.200395696 0)
(3.045257395 -1.215390828 0)
(3.060425256 -1.223077291 0)
(3.070886652 -1.222997828 0)
(3.074731532 -1.224463616 0)
(3.075936774 -1.225689625 0)
(3.074447359 -1.219325773 0)
(3.065264468 -1.194494559 0)
(2.977478564 -0.3977044812 0)
(2.844862066 -0.03041098115 0)
(2.834048139 -0.04760333439 0)
(2.834697044 -0.0008630357315 0)
(2.833779649 -0.03354370821 0)
(2.831077833 -0.01637633782 0)
(2.825922901 -0.002252459156 0)
(2.826689991 0.0008947108953 0)
(2.822172925 -0.01399131991 0)
(3.128574564 -1.243760622 0)
(3.167506568 -1.29736023 0)
(3.232460322 -1.311744573 0)
(3.230953806 -1.317677958 0)
(3.151680663 -1.27370301 0)
(3.058268372 -1.227476859 0)
(2.997478688 -1.203988186 0)
(2.968727224 -1.196633529 0)
(2.967082229 -1.19156005 0)
(2.98200474 -1.187350067 0)
(3.006013421 -1.193114958 0)
(3.031325906 -1.199594083 0)
(3.047334431 -1.213677069 0)
(3.061123097 -1.221745098 0)
(3.070655898 -1.2212084 0)
(3.074480864 -1.224627475 0)
(3.075706595 -1.226634798 0)
(3.075966694 -1.222733987 0)
(3.072264203 -1.216325254 0)
(3.072108836 -0.9246743422 0)
(2.854014046 -0.08079191003 0)
(2.841976653 -0.03035580208 0)
(2.837407748 0.02288684905 0)
(2.825148713 -0.03601437219 0)
(2.827329318 -0.03030627765 0)
(2.823916702 -0.004046744659 0)
(2.822409531 -0.01102843445 0)
(2.819695845 -0.01304236733 0)
(3.126082208 -1.245012806 0)
(3.164286921 -1.296370254 0)
(3.240920774 -1.310060238 0)
(3.233354628 -1.323378076 0)
(3.151851552 -1.274980663 0)
(3.057203313 -1.227907363 0)
(2.995787703 -1.203186457 0)
(2.968106909 -1.195979151 0)
(2.967585474 -1.191866282 0)
(2.982313927 -1.187561035 0)
(3.007076434 -1.192439653 0)
(3.032852427 -1.197657609 0)
(3.048559532 -1.211086609 0)
(3.061551897 -1.220398719 0)
(3.070937732 -1.219540358 0)
(3.074497066 -1.224068484 0)
(3.075576388 -1.226641142 0)
(3.075594116 -1.225005485 0)
(3.072542558 -1.217342449 0)
(3.066069194 -1.202418832 0)
(3.047642785 -0.5781448504 0)
(2.856421897 -0.02441380373 0)
(2.828257181 0.006039425671 0)
(2.813724481 -0.03672035033 0)
(2.825231134 -0.04099685427 0)
(2.820766665 -0.0253209992 0)
(2.817890811 -0.03135521238 0)
(2.818141453 -0.01304370413 0)
(3.125492344 -1.24729032 0)
(3.163999566 -1.289030351 0)
(3.246152297 -1.308970462 0)
(3.236603497 -1.327493372 0)
(3.151283587 -1.275321581 0)
(3.056152373 -1.228199706 0)
(2.994567411 -1.202228322 0)
(2.967738877 -1.194916782 0)
(2.967647431 -1.191746079 0)
(2.982699885 -1.18758947 0)
(3.008001868 -1.192101145 0)
(3.033620062 -1.195767141 0)
(3.050830013 -1.205578591 0)
(3.062445823 -1.217093849 0)
(3.071965153 -1.218916058 0)
(3.07496974 -1.220672867 0)
(3.075637413 -1.226185545 0)
(3.075986216 -1.225048493 0)
(3.074430423 -1.219506787 0)
(3.067526025 -1.213877572 0)
(3.064173696 -1.102348883 0)
(2.884735522 -0.1975245169 0)
(2.834309767 -0.03511871315 0)
(2.815667571 -0.01866107382 0)
(2.825741367 -0.04304234776 0)
(2.821874481 -0.04135053571 0)
(2.817688622 -0.03625264877 0)
(2.819131623 -0.009846751374 0)
(3.123051007 -1.265457283 0)
(3.174652105 -1.286023645 0)
(3.254499625 -1.311269526 0)
(3.239246174 -1.328520933 0)
(3.150429711 -1.273788359 0)
(3.055758822 -1.228174305 0)
(2.993865078 -1.200871416 0)
(2.967939513 -1.192219955 0)
(2.967789739 -1.190430306 0)
(2.983070065 -1.186835925 0)
(3.008239113 -1.192110649 0)
(3.034113291 -1.194940218 0)
(3.051333575 -1.202633153 0)
(3.063298596 -1.213967978 0)
(3.072413645 -1.218584861 0)
(3.07640976 -1.216779053 0)
(3.076037156 -1.223883744 0)
(3.076814464 -1.223923912 0)
(3.074462454 -1.219779412 0)
(3.068618741 -1.215198059 0)
(3.068998157 -1.208214342 0)
(3.128884635 -0.7922488219 0)
(2.862951384 -0.1718723541 0)
(2.823617033 0.01135934429 0)
(2.824631469 -0.04074957895 0)
(2.827427958 -0.0468165726 0)
(2.821264375 -0.03487545033 0)
(2.821465232 -0.01330248286 0)
(3.130267821 -1.285758593 0)
(3.185690383 -1.285356104 0)
(3.263153447 -1.317605661 0)
(3.243984946 -1.327164702 0)
(3.149878245 -1.271050994 0)
(3.055751191 -1.22683653 0)
(2.994111192 -1.198280211 0)
(2.966396046 -1.188044794 0)
(2.967203652 -1.188332904 0)
(2.982694399 -1.18604265 0)
(3.0088061 -1.192678535 0)
(3.035148907 -1.195230839 0)
(3.051769552 -1.200931017 0)
(3.06390265 -1.212143422 0)
(3.073881961 -1.216814812 0)
(3.077533148 -1.215322491 0)
(3.076098646 -1.221824742 0)
(3.077467644 -1.221616822 0)
(3.075824435 -1.218572984 0)
(3.071934195 -1.214909566 0)
(3.063171048 -1.214696026 0)
(3.057495768 -1.187927915 0)
(2.953880687 -0.3006259462 0)
(2.842293296 0.01639554427 0)
(2.825730345 -0.03749135571 0)
(2.834340385 -0.04264087152 0)
(2.829784882 -0.01134797053 0)
(2.825124531 -0.02135669937 0)
(2.822496741 -0.01889749102 0)
(3.140321843 -1.288383234 0)
(3.191211324 -1.285190987 0)
(3.268131977 -1.321286053 0)
(3.248311319 -1.323238877 0)
(3.149585534 -1.268802947 0)
(3.055221776 -1.224854181 0)
(2.99243747 -1.19618668 0)