/*--------------------------------*- C++ -*----------------------------------*\
  =========                 |
  \\      /  F ield         | OpenFOAM: The Open Source CFD Toolbox
   \\    /   O peration     | Website:  https://openfoam.org
    \\  /    A nd           | Version:  7
     \\/     M anipulation  |
\*---------------------------------------------------------------------------*/
FoamFile
{
    version     2.0;
    format      ascii;
    class       volScalarField;
    location    "3.9";
    object      p;
}
// * * * * * * * * * * * * * * * * * * * * * * * * * * * * * * * * * * * * * //

dimensions      [1 -1 -2 0 0 0 0];

internalField   nonuniform List<scalar> 
22
(
0.8499283272
0.6699242367
0.7217953525
0.888991007
0.6778167723
0.7466423055
0.9297520017
0.6857441974
0.7815628332
0.9701618364
0.6945789548
0.8283624477
1.003945333
0.7050749177
0.8779767887
1.027975727
0.7170348147
0.923139737
0.7299050725
0.9538045477
0.7285414151
1.016140639
)
;

boundaryField
{
    inlet
    {
        type            fixedValue;
        value           nonuniform 0();
    }
    outlet
    {
        type            zeroGradient;
    }
    bottom
    {
        type            slip;
    }
    top
    {
        type            slip;
    }
    obstacle
    {
        type            zeroGradient;
    }
    defaultFaces
    {
        type            empty;
    }
    procBoundary15to9
    {
        type            processor;
        value           nonuniform List<scalar> 4(0.790271757 0.6562479508 0.6978064267 0.6978064267);
    }
    procBoundary15to10
    {
        type            processor;
        value           nonuniform List<scalar> 3(0.9855238198 1.0009556 1.010642814);
    }
    procBoundary15to16
    {
        type            processor;
        value           nonuniform List<scalar> 7(1.016750355 1.017419991 1.021658633 1.040758109 1.040758109 1.044063691 1.043728011);
    }
    procBoundary15to21
    {
        type            processor;
        value           nonuniform List<scalar> 2(0.7294085474 1.036265883);
    }
}


// ************************************************************************* //
