/*--------------------------------*- C++ -*----------------------------------*\
  =========                 |
  \\      /  F ield         | OpenFOAM: The Open Source CFD Toolbox
   \\    /   O peration     | Website:  https://openfoam.org
    \\  /    A nd           | Version:  7
     \\/     M anipulation  |
\*---------------------------------------------------------------------------*/
FoamFile
{
    version     2.0;
    format      ascii;
    class       volScalarField;
    location    "4";
    object      T;
}
// * * * * * * * * * * * * * * * * * * * * * * * * * * * * * * * * * * * * * //

dimensions      [0 0 0 1 0 0 0];

internalField   nonuniform List<scalar> 
2222
(
1.09060834
1.090612272
1.090722213
1.091000708
1.091411333
1.091556591
1.091359037
1.09097335
1.090658521
1.090406162
1.090109928
1.089981639
1.090116464
1.090116406
1.090189801
1.090358156
1.093702218
1.092463132
1.091879224
1.091664864
1.091444629
1.091241772
1.091223992
1.09164776
1.092079527
1.092154937
1.092272733
1.092450071
1.09268576
1.092718833
1.092532249
1.092272924
1.091993671
1.091731987
1.09150001
1.091335009
1.09121429
1.091015654
1.090836694
1.090698899
1.090669381
1.09076056
1.091062336
1.091161949
1.091088425
1.091011421
1.090731517
1.090585594
1.090291747
1.089994669
1.09000509
1.090119114
1.090226911
1.090376758
1.09045923
1.093983053
1.092665512
1.092085729
1.091925785
1.091744963
1.091485259
1.091226312
1.091460787
1.09195936
1.09205112
1.092191805
1.092553356
1.092662312
1.092629035
1.092518378
1.092299146
1.092015267
1.091748211
1.091522102
1.091377052
1.091241629
1.091041566
1.090931227
1.090822355
1.090675514
1.090639433
1.090680246
1.090747403
1.090652914
1.09056048
1.09044353
1.090376576
1.090162389
1.089981072
1.09001688
1.09008587
1.09029881
1.09038713
1.090401934
1.093214483
1.092160511
1.091601312
1.091450709
1.091386907
1.09122406
1.091250764
1.091545797
1.091986017
1.092105387
1.092154233
1.092280714
1.092357704
1.092340253
1.092238551
1.092054781
1.091918836
1.0917295
1.091439673
1.091144171
1.090915869
1.090704368
1.09062722
1.090591394
1.090391216
1.090234596
1.090223145
1.09022248
1.090104601
1.09004645
1.090034769
1.089991185
1.089838899
1.089756429
1.0897784
1.089923334
1.090109985
1.090180298
1.090151127
1.091739892
1.090816269
1.090277256
1.090142209
1.090168085
1.090237595
1.090392827
1.090726319
1.091077532
1.091271615
1.091336912
1.0914107
1.091514264
1.091554419
1.091458514
1.091398303
1.091410663
1.091242369
1.090951923
1.090544358
1.090139395
1.089854285
1.089772479
1.08971407
1.089533986
1.089420065
1.089355052
1.089331326
1.089243589
1.089263653
1.089316669
1.089221104
1.089109742
1.089042032
1.089063236
1.08920694
1.089423062
1.089478408
1.089445962
1.089566715
1.088527546
1.088019153
1.08789565
1.087993285
1.088197136
1.088460262
1.088812379
1.089185997
1.089506332
1.089646872
1.089762154
1.089914756
1.089995739
1.089961794
1.08994365
1.089968525
1.089860908
1.089667218
1.089348267
1.08890959
1.08863599
1.088543949
1.088368713
1.088217824
1.088155829
1.088093727
1.088106646
1.088154476
1.088253064
1.088190517
1.087979049
1.08785537
1.087792726
1.087701178
1.087796064
1.087951638
1.088042268
1.08805881
1.086805756
1.085767112
1.085083063
1.084902378
1.085042556
1.085276676
1.085502083
1.085877734
1.086411018
1.08686106
1.087083569
1.087268651
1.087440913
1.087475275
1.087411301
1.087233738
1.087218962
1.087194204
1.087093139
1.086958125
1.086749988
1.086625507
1.086539748
1.086366128
1.08627739
1.086294821
1.086339951
1.086380424
1.08641296
1.086406373
1.086271608
1.086044872
1.085915382
1.085767452
1.085593838
1.085643277
1.085765666
1.08589114
1.085889025
1.082156684
1.081329269
1.081082629
1.081292699
1.081413819
1.081582111
1.082031746
1.08271878
1.083334763
1.083638005
1.08378365
1.08381916
1.08387454
1.083763694
1.083491864
1.083310402
1.083435027
1.083437535
1.083429166
1.083477451
1.083543392
1.083563168
1.083486082
1.083488146
1.083504138
1.083532291
1.083576199
1.083579569
1.0835144
1.083393173
1.083261535
1.083108628
1.082780581
1.082677866
1.082565072
1.082447239
1.08267223
1.082794643
1.077773159
1.077039776
1.076705793
1.076809937
1.076836292
1.076936377
1.077397543
1.078147864
1.078778347
1.079155552
1.079289514
1.07936613
1.079304078
1.07919033
1.078926395
1.07871352
1.078682544
1.078796502
1.078983293
1.079188475
1.079410688
1.07961384
1.079684993
1.0797895
1.079795069
1.079707646
1.079662481
1.079632018
1.07955029
1.079484396
1.079453574
1.079296522
1.078915347
1.078842959
1.078777382
1.078574113
1.078702939
1.078945847
1.072518115
1.071878473
1.0717083
1.071789521
1.071810571
1.071878325
1.072215358
1.072903183
1.07341839
1.07384642
1.074115638
1.074220792
1.074084162
1.073929001
1.073689056
1.073491123
1.073422372
1.073467475
1.07369605
1.073998421
1.074357229
1.074625231
1.074812392
1.074979237
1.075008644
1.074962248
1.074836238
1.074760873
1.074694066
1.074722561
1.074720048
1.074533275
1.074277573
1.074118901
1.073987385
1.073919825
1.074065369
1.074302664
1.066624406
1.065953618
1.065850803
1.065955235
1.066116322
1.066270371
1.066539102
1.067069233
1.067548406
1.06798002
1.068249847
1.068433918
1.068436144
1.068317133
1.068123116
1.067949082
1.067801134
1.067776309
1.067902012
1.068024228
1.068289887
1.068590629
1.069069095
1.069315733
1.069391734
1.069387071
1.069266789
1.069160087
1.069112729
1.069251028
1.069180561
1.068990244
1.068815246
1.068708494
1.06860582
1.068599553
1.068742282
1.06900115
1.060539796
1.059850818
1.059680247
1.059817419
1.060031271
1.060235724
1.060501343
1.060963061
1.061349923
1.061710482
1.062035983
1.062298621
1.062509068
1.062485166
1.062354758
1.062195943
1.062026893
1.061937027
1.061870908
1.061873766
1.061875802
1.06202468
1.062585247
1.063044841
1.063231595
1.063242147
1.06314167
1.063175551
1.063203095
1.063154729
1.063065705
1.062902772
1.062785903
1.062681356
1.062643103
1.0626726
1.062826497
1.063160002
1.054543773
1.053714818
1.05333901
1.053448067
1.053767057
1.05403488
1.054315871
1.05462064
1.054881489
1.055169561
1.055524514
1.055987064
1.056316069
1.056411712
1.056395812
1.056346706
1.056300862
1.056179656
1.055948085
1.055762353
1.055561704
1.05560792
1.05588825
1.056246509
1.056508702
1.056660849
1.056699892
1.056740248
1.056782362
1.056693246
1.056574561
1.056425621
1.056338451
1.056190075
1.056193908
1.056357727
1.056533967
1.056908458
1.047894303
1.047421841
1.047340681
1.047536579
1.047670659
1.047919603
1.048108289
1.048317543
1.048619124
1.048942745
1.049529289
1.050033237
1.05020569
1.050369354
1.050566929
1.050675776
1.050439149
1.049975689
1.049568026
1.049304014
1.049197746
1.049303584
1.049465704
1.049628263
1.049806852
1.04999122
1.05012964
1.050266128
1.050071148
1.049934901
1.049810288
1.049633947
1.049465893
1.04947675
1.049670192
1.049791076
1.050324166
1.050779487
1.042640785
1.041852755
1.041597486
1.041659081
1.041609672
1.041700189
1.041905473
1.042170156
1.042406106
1.04267605
1.043096805
1.043575817
1.04419111
1.044518412
1.044658969
1.044558154
1.044168067
1.043758432
1.043423421
1.043211024
1.043035079
1.042960997
1.043059699
1.043148528
1.043254137
1.043486152
1.043590043
1.043712662
1.043507201
1.043378024
1.043231141
1.043043137
1.042855011
1.042868477
1.043033207
1.043113109
1.043455708
1.043998509
1.037769986
1.036985425
1.036424566
1.036014603
1.035811925
1.035846534
1.036025525
1.036243037
1.036482723
1.036699952
1.037044985
1.03744423
1.037801611
1.038070934
1.038142505
1.038060291
1.037835069
1.037521444
1.037273541
1.037199522
1.03711891
1.037111575
1.037043638
1.036989918
1.037033841
1.03718638
1.03744055
1.037407784
1.0372899
1.037055081
1.036839238
1.036649334
1.036378429
1.036370653
1.036505889
1.036553446
1.036780813
1.037223814
1.032461505
1.03197598
1.031341312
1.030604158
1.030242822
1.030151413
1.03034631
1.030556868
1.030744438
1.031008196
1.03127106
1.031571984
1.031740759
1.031798782
1.031718914
1.031450736
1.031303668
1.031334429
1.031162396
1.031171495
1.031304368
1.031486476
1.031565374
1.031508328
1.031441698
1.031486197
1.031557066
1.031420192
1.031302969
1.031030156
1.030769191
1.030542967
1.030215015
1.030188994
1.030221055
1.030261015
1.030397457
1.030751217
1.02674157
1.02624919
1.025639884
1.025141163
1.024782612
1.024606265
1.024784075
1.024950963
1.025126181
1.025323469
1.025570506
1.025799409
1.025802511
1.025758469
1.02555043
1.025093295
1.024894368
1.025054378
1.025231192
1.025399967
1.025720735
1.026021522
1.026062711
1.026007303
1.02593539
1.025806473
1.02573683
1.025487954
1.025291031
1.025000081
1.024803894
1.024652542
1.02436745
1.0243417
1.024313992
1.02434026
1.024412869
1.024654587
1.020641053
1.020141619
1.019632002
1.019333253
1.019175975
1.019102523
1.019299893
1.019450277
1.019611013
1.019807172
1.020091086
1.020207253
1.020093849
1.019947606
1.019652411
1.019231035
1.019091778
1.019241572
1.019682403
1.019994795
1.020278686
1.020589799
1.020591139
1.020552913
1.020540011
1.020469949
1.02024476
1.019891878
1.019595758
1.019340571
1.019175409
1.019115594
1.018937706
1.01890735
1.018871805
1.018902501
1.018918047
1.019015218
1.014520279
1.014009626
1.01361046
1.013643866
1.013689878
1.013711399
1.013956746
1.014093065
1.014227849
1.014396835
1.014695469
1.014766859
1.014642274
1.014463309
1.014218004
1.014016302
1.013965902
1.014059212
1.014346057
1.014654727
1.014822217
1.015044871
1.015172293
1.015259432
1.015450719
1.015347573
1.014972588
1.014597159
1.014346763
1.014130415
1.013972341
1.013975328
1.013909273
1.013885021
1.013829315
1.013874435
1.01391269
1.013904812
1.008597605
1.008235676
1.008418687
1.008547014
1.008676026
1.008990307
1.009117998
1.009184863
1.009323586
1.009565141
1.009669776
1.009628955
1.009568669
1.009497036
1.009464208
1.009471206
1.009462406
1.009533558
1.009696522
1.009727849
1.009787829
1.009955781
1.010149027
1.010414072
1.010358088
1.009991762
1.00967018
1.009518467
1.00943071
1.009369336
1.009407206
1.009404208
1.009363779
1.009271737
1.009309033
1.009351019
1.009295391
1.004093061
1.003725542
1.003813011
1.004002714
1.004219648
1.004522466
1.004688153
1.004769608
1.004852026
1.005004719
1.00517757
1.005329855
1.005484922
1.005575138
1.00562191
1.005632907
1.005527045
1.005455457
1.005414828
1.005315864
1.005189402
1.005278456
1.005466068
1.005612061
1.005595182
1.005342788
1.005312382
1.005282355
1.005384084
1.005458859
1.005499883
1.005430338
1.005392016
1.00532875
1.005321054
1.005313707
1.00521398
1.000581439
1.000319331
1.000297873
1.000411223
1.000572496
1.000792728
1.000997231
1.001082578
1.001109456
1.00119311
1.001475549
1.001873043
1.002197717
1.002407539
1.002491814
1.002459498
1.002286355
1.002098246
1.001919368
1.001716096
1.001473158
1.0014357
1.001575764
1.001523969
1.001431436
1.001482754
1.001759679
1.001876051
1.002068469
1.002249333
1.002277904
1.002110181
1.00197719
1.001965581
1.001952161
1.001907648
1.001886643
0.9981579483
0.9978885251
0.9978225013
0.9978346174
0.9977494259
0.9978015343
0.9979968973
0.9980988702
0.9981336332
0.9982656233
0.9986773392
0.9992355261
0.9996264094
0.9998898648
0.999958445
0.9998458985
0.9995997876
0.9993585702
0.9992304508
0.9991287218
0.9989768005
0.9989142003
0.9988817878
0.9987689123
0.9987532478
0.9989951001
0.9993589877
0.9995402696
0.9997562338
0.9998574704
0.9997592048
0.9995674766
0.9993571036
0.9993294028
0.999327635
0.9993183544
0.9994189603
0.9964443684
0.99619843
0.9960821718
0.9959031564
0.9955099711
0.9954610964
0.9956456138
0.9957648373
0.9958398615
0.9960475397
0.9965440823
0.9972268495
0.9977320881
0.9978871421
0.9978612033
0.9976132636
0.9974424242
0.9973539413
0.9973955362
0.9974307403
0.9973447577
0.9972721708
0.9972167953
0.9971943428
0.9972439873
0.9974513597
0.9978487693
0.9980814088
0.9982434236
0.9981849419
0.9979198362
0.9977826355
0.9976127244
0.9975639103
0.9975595293
0.9975997665
0.9978236618
0.9950331268
0.994854836
0.9946575415
0.9943104521
0.9938169898
0.9939347055
0.9941110398
0.9941856975
0.9942117488
0.9943644274
0.9948186838
0.9955327303
0.9961957517
0.9963720849
0.9963293081
0.9961471208
0.996087861
0.996068693
0.9961746044
0.9962217609
0.9961917898
0.9962384831
0.9962509997
0.9963221646
0.996478784
0.9966547561
0.9968718206
0.9971140914
0.9971995863
0.997101047
0.9969221328
0.9968400296
0.9968199928
0.9968313866
0.9967823011
0.9967841135
0.9970123326
0.9937840589
0.9936459632
0.9934121487
0.9931053653
0.9932571333
0.9934675136
0.9935060327
0.9934387922
0.993501856
0.9937843289
0.9942996711
0.9949133674
0.9952637043
0.9953606887
0.9953483743
0.995311215
0.9952754457
0.9953665689
0.9955167152
0.9956076329
0.9957542499
0.9958780042
0.9959227816
0.9960976965
0.9962223103
0.9962923835
0.9964863167
0.9965551743
0.9965493401
0.9964917273
0.996438469
0.9964382395
0.9964854618
0.9964590675
0.9965178543
0.9967145933
0.9971025321
0.9933944518
0.9934031982
0.993273384
0.9929964387
0.9931151076
0.9933083949
0.9933410663
0.9932561982
0.9932753066
0.9934135078
0.9938108984
0.9943223473
0.9946522963
0.9947919749
0.9947991371
0.9947604342
0.9947978241
0.9949341389
0.9952573612
0.9955188266
0.9956394794
0.9957962729
0.9957494106
0.9958283138
0.9959644631
0.9960302155
0.9961368374
0.9962617874
0.9963553476
0.9963327054
0.9963462204
0.9963393511
0.9964150015
0.9964546686
0.996453696
0.9965455713
0.9968566505
0.9934904675
0.9936174821
0.9935097381
0.9932420713
0.9932982534
0.9934680353
0.993505277
0.9933961091
0.9933366624
0.9934353331
0.9937472117
0.994207467
0.9944821926
0.9945739284
0.9944812867
0.99450307
0.9946220541
0.9948426365
0.9951661249
0.9955247695
0.9957061892
0.9957397879
0.9957070697
0.9957383796
0.9958937318
0.9959764383
0.9960125421
0.996143384
0.996337684
0.9963630285
0.9964366695
0.9965340075
0.9964887816
0.9964333528
0.9964171122
0.9963085423
0.9963711725
0.9936973002
0.9938974153
0.9937859526
0.9934887031
0.9934821751
0.993632224
0.9936794084
0.9936105778
0.993615788
0.993734425
0.9940280744
0.9943329668
0.9945263589
0.9945659838
0.9944985021
0.9945168912
0.9946224342
0.9948012079
0.9951077035
0.9954310826
0.995741557
0.99581297
0.9958758757
0.9959101354
0.9959925398
0.9960920962
0.9961212161
0.9962150603
0.9963914664
0.9964570003
0.9965547005
0.9965817496
0.9964667284
0.9962446764
0.9961234324
0.9958726624
0.9957438964
0.9936346941
0.9939081684
0.9937782923
0.9934638053
0.9934506725
0.993659324
0.9937982997
0.9937949869
0.993808423
0.9939547472
0.9942827498
0.9945449079
0.994741453
0.9947736199
0.9947824986
0.9947703158
0.994788204
0.9948963223
0.9951636015
0.9953775116
0.9956946897
0.9959220582
0.9959969932
0.9960692318
0.9961027472
0.9962083022
0.9962631991
0.9963235675
0.9964383051
0.9965290928
0.9965726992
0.9964408432
0.9961331966
0.9957109505
0.9955962454
0.9953718758
0.9953187501
0.9932803914
0.9936360646
0.9935240882
0.9932420558
0.9931868212
0.993429291
0.9936795951
0.9937720092
0.9938182796
0.9939898605
0.994318312
0.9946772736
0.9949015956
0.9951291152
0.9952127613
0.9951199174
0.995014073
0.9950205711
0.9953572292
0.9956032961
0.9957687913
0.9959133008
0.9958824384
0.9959096979
0.9960075703
0.9961216642
0.99610394
0.9961414806
0.9962614013
0.9963157577
0.996245207
0.9959298178
0.9954449866
0.9950767445
0.9952126782
0.9953180817
0.9953885645
0.993098965
0.9934209478
0.9933370652
0.9930991377
0.9928453971
0.993039797
0.9932533341
0.9934126007
0.9935803405
0.9938141087
0.9941299299
0.994472346
0.9948505267
0.9953557182
0.9955226195
0.9954536864
0.9953957147
0.9954830737
0.9957362723
0.99595922
0.9959786878
0.9959651002
0.9959419159
0.9957072423
0.9956177744
0.9956736817
0.9956627362
0.9956674083
0.9956922995
0.995706159
0.9955854046
0.9953091259
0.9951501081
0.9951226094
0.9953366023
0.9956731007
0.9958156765
0.9936100677
0.993622833
0.9934481782
0.9930762482
0.9930966528
0.9931278378
0.9930411723
0.9930138135
0.993219322
0.9934850964
0.9939116496
0.994564772
0.9952785037
0.9956320283
0.9957139328
0.9958220357
0.9960696576
0.9961717989
0.9962481111
0.9962562884
0.9960777692
0.9956790003
0.9951430773
0.9949509259
0.9950437894
0.9951488873
0.9952383477
0.9953479802
0.9954379523
0.9955161754
0.9954906191
0.9955072369
0.9956296437
0.9958309372
0.9961923373
0.9964366203
0.9942979905
0.9943811219
0.9941868491
0.9937807838
0.9936869592
0.9936309752
0.9934411987
0.9931433336
0.9930930434
0.9931666537
0.9934819298
0.9941765602
0.9950254028
0.9955695552
0.9958978114
0.996171432
0.9963857725
0.9965578994
0.9964423867
0.996138969
0.9956357642
0.9950616374
0.9948458698
0.9949462804
0.9951296761
0.9953115113
0.9955334269
0.995732024
0.9958647397
0.9959874963
0.9960841915
0.9961451911
0.9963297159
0.9965557125
0.9969883393
0.9970961274
0.9953416558
0.9953710568
0.9951746126
0.9947996894
0.9946166723
0.994549378
0.9943585468
0.9940066828
0.9938077768
0.9938044469
0.9939871281
0.9945222008
0.9951361936
0.9956946258
0.9962694799
0.99657839
0.9966296337
0.9964502118
0.9960747725
0.9956824952
0.9954662023
0.9953691353
0.9954284284
0.9955834885
0.9957761665
0.9959213385
0.9962272502
0.996442289
0.996587452
0.9967027658
0.9968217436
0.9969500057
0.9972187547
0.9975492773
0.9978477742
0.9977937791
0.9964532007
0.9966131463
0.9964966156
0.9962134779
0.9960121986
0.9959342576
0.9958188768
0.9954718266
0.9951163068
0.9949620557
0.9950321566
0.9954791982
0.9960201254
0.9964761686
0.9967931652
0.9967901425
0.9964162663
0.9961597015
0.9960954744
0.996173728
0.9962637077
0.9963206206
0.9964391
0.9965676545
0.9967351894
0.9968262087
0.9970701911
0.9973167776
0.9974956799
0.9976516989
0.9978328936
0.9980778936
0.9983258748
0.9984910913
0.9985676066
0.9984806676
0.9975443675
0.9981127823
0.9980795119
0.9978613526
0.9977878085
0.9977334506
0.9975922432
0.9972508182
0.9968132158
0.9966058618
0.9966438816
0.9969736046
0.9974301582
0.9977334498
0.9976652811
0.9970560352
0.9967442269
0.9968266877
0.9970409625
0.9973342646
0.9975305161
0.9977324026
0.9979137382
0.9979965307
0.9980896871
0.9981621494
0.9982903726
0.9985780741
0.9988070826
0.9989452723
0.9990690908
0.9991761443
0.9993205827
0.9993783104
0.9992930359
0.9989903461
0.9987638465
0.9996439634
0.9996487933
0.9994181457
0.9993932452
0.9993472205
0.9992461113
0.9990256187
0.998701626
0.9985159918
0.9985617817
0.998909789
0.9992378182
0.9993154688
0.9987187766
0.9981578647
0.9980987062
0.9981664509
0.9983643473
0.9986491624
0.9989976878
0.9993716358
0.9996274753
0.9997210904
0.9997012161
0.9998738012
0.9999217097
1.000082137
1.000172437
1.000129393
1.000211683
1.000235763
1.000274517
1.000244405
0.9997951604
0.9992765629
1.001181968
1.001196726
1.0009482
1.000867907
1.000826408
1.000764163
1.000563232
1.000370119
1.000318752
1.000424259
1.000725583
1.00088899
1.000895657
1.000370277
0.9999147351
0.9997361716
0.9997406068
0.9999754186
1.000341575
1.00079453
1.001255976
1.001518813
1.001588748
1.001550041
1.001650118
1.001454146
1.001414327
1.001418567
1.001452005
1.001423977
1.001375473
1.001169262
1.000777681
1.000364516
1.000285703
1.002495654
1.002384233
1.00201741
1.001763926
1.001817681
1.001856164
1.00171736
1.00170125
1.001828619
1.001977221
1.002295619
1.002426936
1.002197404
1.001956743
1.001829469
1.001706394
1.001759994
1.002065191
1.002390484
1.002831924
1.003203591
1.00340209
1.003375954
1.003202648
1.003126067
1.002953738
1.002706229
1.002548733
1.00250309
1.002393682
1.002193714
1.001885871
1.001757056
1.001777612
1.0018256
1.001800831
1.003760955
1.003523727
1.003022148
1.002680374
1.002726123
1.002727394
1.002655118
1.002714822
1.002917812
1.003033419
1.003205762
1.003267469
1.003220842
1.00349929
1.003768394
1.004022558
1.004208132
1.004340306
1.00452432
1.004811167
1.005023648
1.005014129
1.004836095
1.004614263
1.004373085
1.003921682
1.003565923
1.003454738
1.003459241
1.003391943
1.003300337
1.003235115
1.003267464
1.003325546
1.003356462
1.003387787
1.004999102
1.004800014
1.004287309
1.003941787
1.003954547
1.0038899
1.003733802
1.003583261
1.003539606
1.003472186
1.003506389
1.003807958
1.004333903
1.004924476
1.005665335
1.006208321
1.006389171
1.006398004
1.006395021
1.006391886
1.006288916
1.006132792
1.005877496
1.005377369
1.004897959
1.004702579
1.004660804
1.004701578
1.004775362
1.004766664
1.004732925
1.00467116
1.004717833
1.004832952
1.004907147
1.005004733
1.006163577
1.006011567
1.00551647
1.005181636
1.005184422
1.005108951
1.004959103
1.004752263
1.004519925
1.004390039
1.004393979
1.004771229
1.005451604
1.006317793
1.007393755
1.007686058
1.007711586
1.007708132
1.007671975
1.007492453
1.007302568
1.00699837
1.006306209
1.005638885
1.005708842
1.005863251
1.005957108
1.006023109
1.00603516
1.006045932
1.006029721
1.006016331
1.006138729
1.006328248
1.006398297
1.006460812
1.00717697
1.00716613
1.006844694
1.006621674
1.006566497
1.006489739
1.006337233
1.005941356
1.00561553
1.005468329
1.005424883
1.005773527
1.006562992
1.007808137
1.008209946
1.008352899
1.008414181
1.008497631
1.008495353
1.008347665
1.008005585
1.007177577
1.00636285
1.006358105
1.006670657
1.006882909
1.007091137
1.007200842
1.007226776
1.007293388
1.007359364
1.007423983
1.007518123
1.007556851
1.007523691
1.007479072
1.008108931
1.008509849
1.00841404
1.008287151
1.008222539
1.008081737
1.007883837
1.0073994
1.007098532
1.006978339
1.006944768
1.007129768
1.008071419
1.008716465
1.008831184
1.008810044
1.008720279
1.008784943
1.008744567
1.008401917
1.007743342
1.006983168
1.006929885
1.007119042
1.007502874
1.007873572
1.008175808
1.00839219
1.008497773
1.008569231
1.008631834
1.008627645
1.008526075
1.008323723
1.008230627
1.008174445
1.009798603
1.009827461
1.009683437
1.009730094
1.009612056
1.009296442
1.008734789
1.008307319
1.008207658
1.008242876
1.008375712
1.008888793
1.009336408
1.009147014
1.008809801
1.008572676
1.00852929
1.008331372
1.008019112
1.007720319
1.007673826
1.007775528
1.00799552
1.00850675
1.008911447
1.009226322
1.00944317
1.009542371
1.009546877
1.009455471
1.009229858
1.00901236
1.008873657
1.008760086
1.008648125
1.010529414
1.010459258
1.010291749
1.010349426
1.010286076
1.009826326
1.009286434
1.00889676
1.008863856
1.008992835
1.009240823
1.009316025
1.009041334
1.008797846
1.008651223
1.008600079
1.008579098
1.008567376
1.008566033
1.008479851
1.008608805
1.008838156
1.009185631
1.009495825
1.00981338
1.009984384
1.009999814
1.009995376
1.009950738
1.009835523
1.009628609
1.009244071
1.009001994
1.008917536
1.008901734
1.010745477
1.010667308
1.01053408
1.01060178
1.010558074
1.010164731
1.009578516
1.009193404
1.009188705
1.009387991
1.009611708
1.009597733
1.009503445
1.009411831
1.009344845
1.009308363
1.009225761
1.009200991
1.009228704
1.009328221
1.009559108
1.009845997
1.010268081
1.010224364
1.010210948
1.010308149
1.01034774
1.010322728
1.010198488
1.009927788
1.009491386
1.009203335
1.009163112
1.00925755
1.009251853
1.010722012
1.010582571
1.010431305
1.010506316
1.010491283
1.010366148
1.009863363
1.009424161
1.009359839
1.009559329
1.009751237
1.009853101
1.009913264
1.010028032
1.010152838
1.010123113
1.010011602
1.009878467
1.009838441
1.010115742
1.010650068
1.010993197
1.01107045
1.010697747
1.010399408
1.010371577
1.010228601
1.010052555
1.009832881
1.009621664
1.00949323
1.009495267
1.00953074
1.00964561
1.009668459
1.010788183
1.010596953
1.010453276
1.010543596
1.010524637
1.010344485
1.009991343
1.009668033
1.009539698
1.009586155
1.009737861
1.009973195
1.010224564
1.010666236
1.010887966
1.010854504
1.010713072
1.010566722
1.010698856
1.011191113
1.011627376
1.011774993
1.011518006
1.011022417
1.010592208
1.010268295
1.010094303
1.010026009
1.009959401
1.009871956
1.00980677
1.009865977
1.010132944
1.010229986
1.010427754
1.010894323
1.010724374
1.010535349
1.010559944
1.010452438
1.010237393
1.010077816
1.009932639
1.009854515
1.009708535
1.00976636
1.010015666
1.010468014
1.011028062
1.011172034
1.011184065
1.011195874
1.011243277
1.011709379
1.011999796
1.012050236
1.011971609
1.011589462
1.011185828
1.010786621
1.010531984
1.010425057
1.010310089
1.010290271
1.010357724
1.010360239
1.010501033
1.010850608
1.010962321
1.011143964
1.011300776
1.011217887
1.010837851
1.010677904
1.010553011
1.010408253
1.010295136
1.010247753
1.010107303
1.009976038
1.009951436
1.010149578
1.010604763
1.011041745
1.011218239
1.011253828
1.011426459
1.011938415
1.012257119
1.012268489
1.012199613
1.011988809
1.011585279
1.011241124
1.01105693
1.01095114
1.0109483
1.010839562
1.010885673
1.011049727
1.011289635
1.011494386
1.011646896
1.011849255
1.011720198
1.011548283
1.011177195
1.011039236
1.011010431
1.010889566
1.010713765
1.010611434
1.010300454
1.010147694
1.010136978
1.010305461
1.010677357
1.010954739
1.011159606
1.011399547
1.011769925
1.012300137
1.012298017
1.012271006
1.012182308
1.011915998
1.011521813
1.011278387
1.011359238
1.011461334
1.011528013
1.011705061
1.011893319
1.012020515
1.012243195
1.012213812
1.012108487
1.012155678
1.011979661
1.011543052
1.011431562
1.011476127
1.011542
1.011469586
1.011259243
1.010961954
1.010464645
1.010216472
1.010194523
1.010315037
1.010576521
1.010813139
1.011077295
1.011665327
1.012123891
1.012288659
1.012178084
1.012127784
1.011996741
1.011573466
1.01138634
1.011249679
1.011528065
1.011898263
1.012202515
1.012440648
1.012598625
1.012659093
1.012601221
1.012325037
1.012265891
1.012048138
1.011907728
1.0117768
1.01162712
1.011660462
1.011777603
1.011932267
1.011931157
1.011747759
1.011213213
1.010679375
1.010372939
1.010297657
1.010332064
1.010498556
1.010736527
1.011205661
1.011822208
1.012191094
1.012097288
1.012084411
1.011931825
1.011294168
1.011109626
1.011096248
1.011191874
1.011513186
1.012055081
1.012529617
1.012691553
1.012699593
1.012811673
1.012660979
1.012404381
1.012093986
1.01184732
1.011703483
1.011612872
1.012122719
1.012126628
1.012248824
1.012418917
1.012402007
1.012138199
1.011545034
1.01105474
1.010674514
1.010565765
1.01056666
1.01072881
1.010996876
1.01158043
1.011975569
1.012147976
1.012040829
1.01196047
1.01142498
1.011231186
1.011082733
1.010910699
1.011185823
1.011499078
1.012131981
1.012603703
1.012762413
1.01273301
1.012622281
1.012472275
1.01218885
1.011780543
1.011694422
1.011612954
1.011593503
1.012607874
1.012366267
1.012415847
1.012593998
1.012561786
1.012297367
1.011948692
1.01161613
1.011279996
1.0111799
1.011224491
1.011351469
1.011732345
1.012258648
1.012339391
1.012236835
1.012341752
1.011913738
1.011411675
1.011409362
1.011337729
1.011401202
1.011392543
1.011740842
1.012295927
1.012518778
1.012601078
1.012470338
1.01228337
1.011998936
1.011792702
1.01147686
1.011605815
1.011707232
1.012069211
1.012647415
1.012293781
1.01226716
1.012488699
1.012501755
1.012356883
1.012161524
1.011873052
1.011688016
1.011737029
1.011895267
1.012111867
1.012513142
1.012604301
1.012584587
1.012451444
1.012162783
1.011815764
1.011629725
1.01167146
1.011991117
1.012053732
1.012186349
1.012252362
1.012547578
1.012417994
1.012253594
1.012076916
1.011927858
1.011820106
1.011574693
1.011457937
1.011675292
1.012119334
1.012441187
1.012433122
1.012044236
1.011975875
1.01222738
1.01226662
1.012248193
1.012186159
1.011982362
1.011858438
1.011914722
1.012133457
1.012366611
1.012639099
1.012623311
1.012517739
1.012274477
1.011943408
1.011799086
1.01204206
1.012731417
1.013273692
1.013408048
1.013276845
1.012922722
1.012767977
1.012422287
1.012107301
1.011918991
1.011800621
1.011755908
1.011717495
1.011782717
1.012366186
1.012800581
1.012648893
1.012226019
1.011794809
1.01176221
1.01205328
1.012088183
1.012063187
1.011933323
1.011779412
1.011730121
1.01182472
1.011984758
1.012151835
1.012352884
1.012467807
1.01232946
1.012080935
1.012199776
1.012590565
1.013292244
1.013806207
1.014019638
1.014046048
1.013659768
1.013308057
1.01302423
1.012618189
1.012183879
1.012051205
1.012062554
1.012166444
1.012283975
1.012553376
1.013067907
1.012983404
1.011782589
1.011769723
1.012065294
1.012076913
1.011962753
1.01169498
1.011594979
)
;

boundaryField
{
    inlet
    {
        type            fixedValue;
        value           nonuniform 0();
    }
    outlet
    {
        type            inletOutlet;
        inletValue      nonuniform 0();
        value           nonuniform 0();
    }
    bottom
    {
        type            slip;
    }
    top
    {
        type            slip;
    }
    obstacle
    {
        type            zeroGradient;
    }
    defaultFaces
    {
        type            empty;
    }
    procBoundary22to15
    {
        type            processor;
        value           uniform 1.095229961;
    }
    procBoundary22to16
    {
        type            processor;
        value           nonuniform List<scalar> 
40
(
1.090382625
1.090370981
1.090521296
1.09089219
1.091274857
1.091531634
1.091465396
1.091128945
1.090614438
1.090290778
1.089983008
1.08975469
1.089851891
1.089889006
1.08991989
1.090070182
1.093529204
1.09218741
1.091564366
1.091254972
1.0910593
1.091033695
1.09143369
1.09216181
1.0925581
1.092518124
1.092378894
1.092418237
1.092529444
1.092502387
1.092310751
1.092047466
1.091860711
1.091696479
1.091504111
1.091283677
1.091009428
1.090843097
1.09071023
1.09071023
)
;
    }
    procBoundary22to17
    {
        type            processor;
        value           uniform 1.090400976;
    }
    procBoundary22to21
    {
        type            processor;
        value           nonuniform List<scalar> 
69
(
1.095447886
1.094555289
1.092948526
1.090676719
1.08767169
1.083128165
1.083128165
1.078611855
1.073273428
1.067341579
1.061239674
1.055298727
1.048726641
1.048726641
1.043557305
1.038486124
1.03291207
1.027193757
1.021068545
1.014958107
1.009086456
1.009086456
1.004550607
1.000965575
0.9984419092
0.9966657218
0.9951930454
0.993830582
0.993830582
0.9933426161
0.9933961569
0.993602075
0.9936407728
0.9933452907
0.9930471883
0.9932947163
0.9932947163
0.9938415131
0.994805214
0.9959012693
0.9970679814
0.9982573826
1.00042565
1.00042565
1.002136124
1.003542387
1.004631672
1.005551959
1.006426079
1.007188659
1.008995216
1.008995216
1.009664005
1.010039764
1.010288029
1.010431469
1.010469171
1.010547627
1.011726558
1.011726558
1.01181335
1.011780067
1.011854583
1.012308442
1.012646477
1.012495828
1.012164902
1.012223518
1.012223518
)
;
    }
    procBoundary22to23
    {