/*--------------------------------*- C++ -*----------------------------------*\
  =========                 |
  \\      /  F ield         | OpenFOAM: The Open Source CFD Toolbox
   \\    /   O peration     | Website:  https://openfoam.org
    \\  /    A nd           | Version:  7
     \\/     M anipulation  |
\*---------------------------------------------------------------------------*/
FoamFile
{
    version     2.0;
    format      ascii;
    class       volScalarField;
    location    "1.5";
    object      T;
}
// * * * * * * * * * * * * * * * * * * * * * * * * * * * * * * * * * * * * * //

dimensions      [0 0 0 1 0 0 0];

internalField   nonuniform List<scalar> 
138
(
1.000000014
1.000000072
1.000000367
1.000001498
1.000006279
1.000019433
1.000114509
1.000107617
1
1
1
1
1
1
1
1
1
1
1
1
1.000000001
1.000000007
1.000000032
1.000001072
0.9999997547
1
1
1
1
1
1
1
1
1
1
1
1
1
1
1.000000002
0.999999956
1
1
1
1
1
1
1
1
1
1
1
1
1
1
1
0.9999999981
1
1
1
1
1
1
1
1
1
1
1
1
1
1
1
1
1
1
1
1
1
1
1
1
1
1
1
1
1
1
1
1
1
1
1
1
1
1
1
1
1
1
1
1
1
1
1
1
1
1
1
1
1
1
1
1
1
1
1
1
1
1
1
1
1
1
1
1
1
1
1
1
1
1
1
1
1
1
1
1
1
)
;

boundaryField
{
    inlet
    {
        type            fixedValue;
        value           nonuniform 0();
    }
    outlet
    {
        type            inletOutlet;
        inletValue      nonuniform 0();
        value           nonuniform 0();
    }
    bottom
    {
        type            slip;
    }
    top
    {
        type            slip;
    }
    obstacle
    {
        type            zeroGradient;
    }
    defaultFaces
    {
        type            empty;
    }
    procBoundary26to20
    {
        type            processor;
        value           nonuniform List<scalar> 
18
(
1.000009483
1.000030418
1.00009004
1.00024757
1.000613009
1.001402677
1.00308112
1.004987275
1
1
1
1
1
1
1
1
1.000000002
1.000000002
)
;
    }
    procBoundary26to25
    {
        type            processor;
        value           nonuniform List<scalar> 9(1 1 1 1 1 1 1 1 1);
    }
    procBoundary26to27
    {
        type            processor;
        value           nonuniform List<scalar> 3(1.003987599 1.000279004 1.000008608);
    }
    procBoundary26to31
    {
        type            processor;
        value           uniform 1;
    }
    procBoundary26to32
    {
        type            processor;
        value           nonuniform List<scalar> 
17
(
1
1
1
1
1
1
1
1
1
1
1
1
1
1
1
1
1
)
;
    }
    procBoundary26to33
    {
        type            processor;
        value           nonuniform List<scalar> 6(1.000000122 1.000000001 1 1 1 1);
    }
}


// ************************************************************************* //
