/*--------------------------------*- C++ -*----------------------------------*\
  =========                 |
  \\      /  F ield         | OpenFOAM: The Open Source CFD Toolbox
   \\    /   O peration     | Website:  https://openfoam.org
    \\  /    A nd           | Version:  7
     \\/     M anipulation  |
\*---------------------------------------------------------------------------*/
FoamFile
{
    version     2.0;
    format      ascii;
    class       volScalarField;
    location    "1.7";
    object      T;
}
// * * * * * * * * * * * * * * * * * * * * * * * * * * * * * * * * * * * * * //

dimensions      [0 0 0 1 0 0 0];

internalField   nonuniform List<scalar> 
22
(
1.039919553
1.041766014
1.042965614
1.043246502
1.034888434
1.035776754
1.035898149
1.036713883
1.03054904
1.030480216
1.0321425
1.027946421
1.028677794
1.030960406
1.027159548
1.02796288
1.029664648
1.025265017
1.024830252
1.024624211
1.013398351
1.014977527
)
;

boundaryField
{
    inlet
    {
        type            fixedValue;
        value           nonuniform 0();
    }
    outlet
    {
        type            inletOutlet;
        inletValue      uniform 1;
        value           nonuniform List<scalar> 6(1.024601746 1.042970767 1.036607092 1.032511891 1.031247272 1.029681607);
    }
    bottom
    {
        type            slip;
    }
    top
    {
        type            slip;
    }
    obstacle
    {
        type            zeroGradient;
    }
    defaultFaces
    {
        type            empty;
    }
    procBoundary29to22
    {
        type            processor;
        value           uniform 1.048836671;
    }
    procBoundary29to23
    {
        type            processor;
        value           nonuniform List<scalar> 4(1.045089405 1.04720328 1.049094202 1.049207382);
    }
    procBoundary29to28
    {
        type            processor;
        value           nonuniform List<scalar> 7(1.043823992 1.031703752 1.031703752 1.030449742 1.030254429 1.022563315 1.00217013);
    }
    procBoundary29to35
    {
        type            processor;
        value           nonuniform List<scalar> 4(1.016846678 0.9875161966 1.016846678 0.9989750443);
    }
}


// ************************************************************************* //
