/*--------------------------------*- C++ -*----------------------------------*\
  =========                 |
  \\      /  F ield         | OpenFOAM: The Open Source CFD Toolbox
   \\    /   O peration     | Website:  https://openfoam.org
    \\  /    A nd           | Version:  7
     \\/     M anipulation  |
\*---------------------------------------------------------------------------*/
FoamFile
{
    version     2.0;
    format      ascii;
    class       volVectorField;
    location    "0.5";
    object      U;
}
// * * * * * * * * * * * * * * * * * * * * * * * * * * * * * * * * * * * * * //

dimensions      [0 1 -1 0 0 0 0];

internalField   nonuniform List<vector> 
555
(
(2.966345812 -0.3041916348 0)
(2.948994941 -0.170909533 0)
(2.919282648 -0.05427305199 0)
(2.901619374 -0.004276293085 0)
(2.89551918 0.001391594608 0)
(2.891379202 -0.008847364593 0)
(2.892519399 -0.003937200186 0)
(2.892970303 0.01064198417 0)
(3.353884971 -0.4480947589 0)
(3.378194233 -0.4160963432 0)
(3.361185131 -0.4379483027 0)
(3.22533138 -0.4608618896 0)
(3.071503875 -0.4275353725 0)
(2.99221729 -0.4039252974 0)
(2.969607068 -0.3867434288 0)
(2.966440023 -0.3870524962 0)
(2.972916006 -0.380724323 0)
(2.976975035 -0.3362997435 0)
(2.954011789 -0.2065209137 0)
(2.925542043 -0.06157802449 0)
(2.906803436 6.655112724e-05 0)
(2.897836071 0.001059452516 0)
(2.89316988 -0.009390665408 0)
(2.894843996 -0.004221424917 0)
(2.895856022 0.01173388077 0)
(3.344572517 -0.4495743844 0)
(3.378390864 -0.4146854991 0)
(3.375829075 -0.4301341144 0)
(3.2312308 -0.4619948793 0)
(3.068339499 -0.4296956877 0)
(2.991036973 -0.4059929596 0)
(2.96715346 -0.3881151211 0)
(2.966891948 -0.3893713438 0)
(2.97481395 -0.3847770301 0)
(2.980199327 -0.3468386285 0)
(2.969216141 -0.255743206 0)
(2.930913849 -0.09923397826 0)
(2.907529717 -0.00680449703 0)
(2.899090667 -0.0005176114941 0)
(2.894779924 -0.009366382196 0)
(2.896888933 -0.005268422758 0)
(2.899019429 0.01190247207 0)
(3.332681226 -0.4509517783 0)
(3.37818313 -0.4147492565 0)
(3.391368406 -0.4219129075 0)
(3.235680477 -0.4625210387 0)
(3.062767378 -0.4323732257 0)
(2.989816507 -0.4084056864 0)
(2.964686045 -0.3886659359 0)
(2.966684029 -0.3896861112 0)
(2.977277557 -0.3918822001 0)
(2.983583901 -0.3584723091 0)
(2.975904979 -0.2804617456 0)
(2.942769734 -0.1450470156 0)
(2.915909797 -0.03503631 0)
(2.900532491 -0.003866887143 0)
(2.896148583 -0.008025170494 0)
(2.899143089 -0.006196144168 0)
(2.90226856 0.0126185781 0)
(3.318121464 -0.4522392602 0)
(3.37914184 -0.4141789493 0)
(3.409110414 -0.4133447628 0)
(3.24134898 -0.4625964906 0)
(3.055478993 -0.4345116638 0)
(2.985970706 -0.4108914804 0)
(2.961643482 -0.3894990578 0)
(2.966370884 -0.3899770032 0)
(2.979085235 -0.3929431453 0)
(2.989713333 -0.3741043875 0)
(2.982200049 -0.3001737861 0)
(2.957317227 -0.1787856308 0)
(2.923940599 -0.06306576212 0)
(2.901787755 -0.006423854437 0)
(2.898390502 -0.007417612083 0)
(2.901606803 -0.006946466545 0)
(2.904582286 0.01349522215 0)
(2.90010214 -0.003484241929 0)
(3.300466689 -0.4530874403 0)
(3.385299016 -0.4148441745 0)
(3.430639051 -0.4044473369 0)
(3.248590438 -0.461124494 0)
(3.046561432 -0.4367177069 0)
(2.978615168 -0.4134975627 0)
(2.958279211 -0.3905901849 0)
(2.966705547 -0.3908477033 0)
(2.980670237 -0.395392372 0)
(2.993167394 -0.3800435073 0)
(2.991374218 -0.3274290034 0)
(2.964832845 -0.1961620459 0)
(2.932659063 -0.07842168662 0)
(2.905216652 -0.00885653714 0)
(2.901498101 -0.008274283384 0)
(2.903437116 -0.008401685195 0)
(2.905460114 0.01415386945 0)
(2.900182594 -0.003889095879 0)
(3.278383568 -0.4536882753 0)
(3.397649067 -0.4152105925 0)
(3.458546455 -0.3963274714 0)
(3.255681369 -0.4573553567 0)
(3.036793647 -0.436261885 0)
(2.969849933 -0.4161017271 0)
(2.955306612 -0.3916001292 0)
(2.967999188 -0.3919069082 0)
(2.981621992 -0.3981501062 0)
(2.994618528 -0.385461425 0)
(2.996899419 -0.3445633326 0)
(2.969951154 -0.2281032645 0)
(2.940132294 -0.08525581947 0)
(2.912746782 -0.01369476114 0)
(2.905326782 -0.009527585245 0)
(2.903551168 -0.01064924626 0)
(2.904127234 0.01513486979 0)
(2.897508418 -0.003722065349 0)
(3.250370311 -0.4542232974 0)
(3.417748913 -0.4161778298 0)
(3.489237525 -0.3909229387 0)
(3.264663993 -0.4518585456 0)
(3.024895633 -0.4382529686 0)
(2.958946894 -0.4183292696 0)
(2.952904959 -0.3925338801 0)
(2.96982998 -0.3924800579 0)
(2.981884757 -0.3993385369 0)
(2.996553238 -0.3943282846 0)
(2.999161494 -0.3564879004 0)
(2.986808585 -0.2721814852 0)
(2.946664625 -0.1085902484 0)
(2.926972005 -0.02161203545 0)
(2.910125794 -0.01202502404 0)
(2.901419693 -0.01317019415 0)
(2.899997593 0.01543167864 0)
(2.892949653 -0.003766933592 0)
(3.214878709 -0.4542724801 0)
(3.449425079 -0.4207286166 0)
(3.51116207 -0.3799349763 0)
(3.2657281 -0.4441830784 0)
(3.015731519 -0.4371868962 0)
(2.948170697 -0.4207622758 0)
(2.951070907 -0.3937272488 0)
(2.97162578 -0.3930121529 0)
(2.981759973 -0.3990120408 0)
(2.99743739 -0.3973241884 0)
(3.002673889 -0.3721737595 0)
(2.988810195 -0.2855172866 0)
(2.970328396 -0.1589076474 0)
(2.939646654 -0.02731246759 0)
(2.912988958 -0.01436782845 0)
(2.895844552 -0.01465884541 0)
(2.894562189 0.01691756765 0)
(2.890478904 -0.003961881478 0)
(3.170570708 -0.449865869 0)
(3.489080559 -0.4366942159 0)
(3.541751966 -0.3733228561 0)
(3.259874691 -0.4320944765 0)
(3.006214237 -0.4370122508 0)
(2.937038413 -0.4244565744 0)
(2.949974622 -0.394841819 0)
(2.972875656 -0.3939426149 0)
(2.981481611 -0.4000247828 0)
(2.997802542 -0.3984983059 0)
(3.004740511 -0.381643074 0)
(2.990239039 -0.3117908014 0)
(2.986169163 -0.1926176896 0)
(2.954136365 -0.05158838302 0)
(2.904829822 -0.0165854679 0)
(2.886060766 -0.01657809459 0)
(2.892525763 0.01649649398 0)
(2.892535497 -0.003739007343 0)
(3.118460169 -0.4492197614 0)
(3.540276496 -0.4364278508 0)
(3.563922021 -0.3641347527 0)
(3.254750131 -0.4218476685 0)
(3.002284163 -0.4313483768 0)
(2.931281726 -0.4253724224 0)
(2.949518663 -0.3976680992 0)
(2.974069628 -0.3938826745 0)
(2.981395337 -0.3995914212 0)
(2.99812374 -0.4008415575 0)
(3.004933497 -0.3861005728 0)
(2.993890237 -0.3360230644 0)
(2.999350907 -0.2210667353 0)
(2.969005204 -0.08026594314 0)
(2.88664822 -0.01937772178 0)
(2.873280089 -0.01665056527 0)
(2.895571009 0.01760952535 0)
(2.899312122 -0.002968143638 0)
(3.045751751 -0.4278211082 0)
(3.571885699 -0.4399879543 0)
(3.5824571 -0.3661973688 0)
(3.236526197 -0.4153886696 0)
(2.995485841 -0.430407279 0)
(2.927914528 -0.4239410485 0)
(2.951228427 -0.3971898269 0)
(2.975432104 -0.3942972561 0)
(2.981452861 -0.4003489626 0)
(2.998725583 -0.4037841331 0)
(3.005705228 -0.3947571263 0)
(2.995125188 -0.3517161253 0)
(3.007822392 -0.2675496439 0)
(2.978970912 -0.1192095501 0)
(2.874629407 -0.03166319238 0)
(2.86262287 -0.02215100765 0)
(2.901852259 0.01726655966 0)
(2.908805854 -0.003504575363 0)
(2.962239087 -0.039281273 0)
(2.986610099 -0.0167818626 0)
(2.959119916 -0.2793272652 0)
(2.942466534 -0.3787987882 0)
(2.927791984 -0.4231262027 0)
(2.94028921 -0.4235612989 0)
(2.954086607 -0.4010421867 0)
(2.984758817 -0.3969527421 0)
(2.986601108 -0.4007340213 0)
(2.999773888 -0.4083475129 0)
(3.015401297 -0.4076670574 0)
(3.027642986 -0.3884621121 0)
(3.039373316 -0.3605782682 0)
(3.010993974 -0.2308130631 0)
(3.038403008 -0.1762066826 0)
(2.94938998 0.01076596206 0)
(2.935407825 0.02170050547 0)
(2.92599262 0.0003667685103 0)
(2.893610402 0.2285535289 0)
(2.908444073 0.05454496583 0)
(2.897093253 -0.1542170949 0)
(2.912015897 -0.2740037991 0)
(2.947647583 -0.368133687 0)
(2.984963938 -0.3368789722 0)
(2.989477977 -0.350148661 0)
(3.014249853 -0.3709953405 0)
(3.028249369 -0.3882372379 0)
(3.054499627 -0.4131762636 0)
(3.062256679 -0.415127828 0)
(3.08132152 -0.4079493579 0)
(3.082271943 -0.401798788 0)
(3.085846017 -0.3930329784 0)
(3.094844978 -0.3132232502 0)
(3.088744849 -0.2120953184 0)
(3.049670582 -0.1119981318 0)
(3.030401125 -0.05005414686 0)
(2.894656819 0.2481582192 0)
(2.906696882 0.2072435207 0)
(2.92784689 0.1119428854 0)
(2.96248531 -0.02935425512 0)
(2.972627285 -0.07338190861 0)
(3.033056614 -0.2453941584 0)
(3.043763999 -0.3045810044 0)
(3.061733319 -0.3492306771 0)
(3.082062558 -0.4059915891 0)
(3.098295815 -0.4087470344 0)
(3.109130905 -0.3964734188 0)
(3.114159396 -0.3954894296 0)
(3.115156336 -0.3991220083 0)
(3.11718818 -0.4135439745 0)
(3.115001141 -0.4035045073 0)
(3.112671001 -0.3699036678 0)
(3.09514943 -0.2512647902 0)
(3.079381618 -0.1387134884 0)
(2.900111329 0.2482679668 0)
(2.904126318 0.240180631 0)
(2.923164827 0.1977695805 0)
(2.960490583 0.1054079052 0)
(2.996241608 -0.007151042068 0)
(3.037803182 -0.1309199799 0)
(3.063535395 -0.2570459546 0)
(3.084499871 -0.281747448 0)
(3.101185812 -0.3041914506 0)
(3.083101427 -0.3026241621 0)
(3.101229625 -0.3467280297 0)
(3.109454214 -0.3794273235 0)
(3.116980354 -0.407537243 0)
(3.118423526 -0.4123079509 0)
(3.121810148 -0.4051249601 0)
(3.118779758 -0.3996881348 0)
(3.109835321 -0.3910283634 0)
(3.091864496 -0.3248091646 0)
(2.898288608 0.2516854803 0)
(2.900068335 0.2488220868 0)
(2.907048697 0.2360933706 0)
(2.926738999 0.1965332146 0)
(2.963151112 0.1091355265 0)
(2.991198834 0.04192314505 0)
(3.018603618 -0.05276934739 0)
(3.051114332 -0.1572394903 0)
(3.059484726 -0.1763003253 0)
(3.088305705 -0.2841903833 0)
(3.09125324 -0.3443449584 0)
(3.101706145 -0.3594903018 0)
(3.113862997 -0.3814017755 0)
(3.111322228 -0.3686459859 0)
(3.10496196 -0.3776535668 0)
(3.09834109 -0.3917458779 0)
(3.099253582 -0.399881216 0)
(3.098401826 -0.3942439621 0)
(2.897110944 0.2551530389 0)
(2.898081683 0.2519041496 0)
(2.900985677 0.2451744777 0)
(2.908814602 0.2292902872 0)
(2.92880221 0.1883555077 0)
(2.958152615 0.1195251212 0)
(2.989586412 0.0433816102 0)
(3.023973785 -0.06170093793 0)
(3.042955295 -0.1385389021 0)
(3.065909266 -0.1923516699 0)
(3.077579346 -0.2597385916 0)
(3.083161236 -0.2637134682 0)
(3.071738212 -0.2807677759 0)
(3.086854421 -0.3229779728 0)
(3.086418807 -0.3518816982 0)
(3.091207019 -0.3798901934 0)
(3.094460763 -0.4000489287 0)
(3.105452742 -0.3956887708 0)
(2.89102876 0.2601028112 0)
(2.892186487 0.255345085 0)
(2.894595583 0.2496822815 0)
(2.898442691 0.2421924289 0)
(2.907384087 0.2263428064 0)
(2.928262293 0.1840898294 0)
(2.953121598 0.1298636992 0)
(2.980574689 0.06011220595 0)
(3.009571541 -0.02897588606 0)
(3.02713332 -0.06982232591 0)
(3.046298706 -0.1421672965 0)
(3.055493749 -0.193344179 0)
(3.064322839 -0.2454989861 0)
(3.0786217 -0.3102048123 0)
(3.084003373 -0.3369108468 0)
(3.093284135 -0.3401878388 0)
(3.09305018 -0.344704622 0)
(3.087700273 -0.3554053222 0)
(2.888102977 0.2604092681 0)
(2.88855029 0.258313274 0)
(2.890580927 0.2527859922 0)
(2.893078703 0.2482654404 0)
(2.898023413 0.2408729576 0)
(2.908241081 0.223001581 0)
(2.92797209 0.1814025157 0)
(2.95073985 0.1302845709 0)
(2.977383236 0.06255003502 0)
(3.002929385 -0.01081697574 0)
(3.022743978 -0.06856628399 0)
(3.042891899 -0.1548229111 0)
(3.055451579 -0.1836719983 0)
(3.061275033 -0.2031182911 0)
(3.06772136 -0.249934552 0)
(3.066887947 -0.2601351951 0)
(3.077078314 -0.2967923211 0)
(3.086253269 -0.3473342229 0)
(2.893652235 0.2535379824 0)
(2.888305717 0.2571633026 0)
(2.888584352 0.2555986271 0)
(2.88964586 0.2534407193 0)
(2.892456127 0.2499388339 0)
(2.898397197 0.2401488949 0)
(2.909767746 0.2177803073 0)
(2.926501629 0.1813859601 0)
(2.949403192 0.1295721398 0)
(2.973164915 0.06933285071 0)
(2.993563618 0.0176676904 0)
(3.011846202 -0.04256081243 0)
(3.028478389 -0.09721472569 0)
(3.041588489 -0.1348837464 0)
(3.057083739 -0.1967454165 0)
(3.061913904 -0.2449541186 0)
(3.073280909 -0.2715586759 0)
(3.084141254 -0.3050837973 0)
(2.894954093 0.2706734662 0)
(2.886441627 0.260530418 0)
(2.886344592 0.2555284682 0)
(2.887011001 0.2564765098 0)
(2.889067906 0.255288063 0)
(2.892885282 0.2490342084 0)
(2.898704122 0.2369873106 0)
(2.909806044 0.2132021678 0)
(2.92547717 0.1803619381 0)
(2.946905125 0.1324459997 0)
(2.971457531 0.07354141632 0)
(2.990788746 0.02277979118 0)
(3.0116748 -0.04403503539 0)
(3.025720663 -0.08411675406 0)
(3.040979749 -0.1296835585 0)
(3.052421185 -0.183130002 0)
(3.058742974 -0.1918492322 0)
(3.065818964 -0.2206424019 0)
(2.915839484 0.2067929574 0)
(2.906102031 0.2267646487 0)
(2.89441494 0.2486242102 0)
(2.887662042 0.2572919187 0)
(2.887371182 0.2563210233 0)
(2.888155575 0.2538615885 0)
(2.890912215 0.2473829721 0)
(2.897347258 0.2344905589 0)
(2.908957021 0.2120132697 0)
(2.926842584 0.1763187219 0)
(2.945914119 0.1352204101 0)
(2.967479377 0.08444723678 0)
(2.988238627 0.02929915653 0)
(3.005769303 -0.02356386655 0)
(3.018408244 -0.05579524513 0)
(3.031950462 -0.1042984258 0)
(3.042898582 -0.1467537027 0)
(3.053329572 -0.1784326959 0)
(2.944321478 0.1259469799 0)
(2.929494577 0.1838616028 0)
(2.901136783 0.2667517828 0)
(2.890078204 0.2602582025 0)
(2.885058718 0.2554833732 0)
(2.884701339 0.2557969268 0)
(2.885959455 0.2528862506 0)
(2.889613378 0.2460024848 0)
(2.897524888 0.232128385 0)
(2.909765391 0.2102128184 0)
(2.927272322 0.1750129158 0)
(2.946539703 0.1331500104 0)
(2.963654889 0.09242832756 0)
(2.984875029 0.03571924484 0)
(3.002027753 -0.01083020414 0)
(3.017713708 -0.05678145787 0)
(3.030861797 -0.1056862636 0)
(3.042622258 -0.1370749739 0)
(2.988824459 0.02444116339 0)
(2.951366607 0.123830468 0)
(2.920133 0.2077736412 0)
(2.917820735 0.226143325 0)
(2.895230194 0.2495879767 0)
(2.884647836 0.2553330195 0)
(2.884469231 0.2542038959 0)
(2.885392267 0.2517951362 0)
(2.8890979 0.2451474101 0)
(2.897271891 0.2309567442 0)
(2.90962462 0.2081640872 0)
(2.926234595 0.1751282348 0)
(2.944822069 0.133989697 0)
(2.963581159 0.09011935965 0)
(2.980654959 0.04658987979 0)
(2.995782613 0.008078185187 0)
(3.012044809 -0.04308633495 0)
(3.021075953 -0.07247333379 0)
(2.99855027 0.003727096571 0)
(2.987816263 0.03089964262 0)
(2.946566578 0.1251568784 0)
(2.937782825 0.1805242991 0)
(2.904389677 0.2650378573 0)
(2.889720831 0.2595892419 0)
(2.884707368 0.2539796265 0)
(2.884217502 0.2540986324 0)
(2.885266398 0.2514628819 0)
(2.889284845 0.2437906243 0)
(2.897675383 0.2285692547 0)
(2.909810439 0.2062309722 0)
(2.926181507 0.1738987006 0)
(2.943526278 0.1367267946 0)
(2.962356894 0.09128418792 0)
(2.979630111 0.04926246195 0)
(2.992193866 0.01359350362 0)
(3.007612229 -0.03734066534 0)
(2.999957559 0.0001074145301 0)
(2.997435879 0.00674292232 0)
(2.985093515 0.03532784063 0)
(2.952523565 0.1221653939 0)
(2.921166415 0.2042909492 0)
(2.918977642 0.2252899316 0)
(2.898762319 0.2500047414 0)
(2.887123279 0.2547914499 0)
(2.885565514 0.2531860238 0)
(2.886232738 0.2503516439 0)
(2.890304537 0.2427924632 0)
(2.899151954 0.2272419908 0)
(2.912270873 0.2031931129 0)
(2.92684213 0.1735279603 0)
(2.944326119 0.1346174288 0)
(2.958873861 0.09995080582 0)
(2.976524829 0.05497142266 0)
(2.989420667 0.01641537879 0)
(2.999998999 2.71365918e-06 0)
(2.999802957 0.0004853014361 0)
(2.996712822 0.008708905535 0)
(2.985051517 0.03721060752 0)
(2.944400667 0.1274143189 0)
(2.938086277 0.1825066881 0)
(2.908956755 0.259690747 0)
(2.896798267 0.2579767175 0)
(2.886743244 0.252316598 0)
(2.885872682 0.2528175081 0)
(2.887501063 0.2503455247 0)
(2.893252144 0.2407254524 0)
(2.901742956 0.2256233663 0)
(2.914717969 0.2006111795 0)
(2.928229075 0.1722311544 0)
(2.943850261 0.1350656005 0)
(2.957569184 0.1031916392 0)
(2.971612888 0.064312982 0)
(2.999999995 1.400614814e-08 0)
(2.999983641 4.081409427e-05 0)
(2.999710182 0.000762144381 0)
(2.995946229 0.01048077606 0)
(2.983588766 0.03950483841 0)
(2.950251438 0.1309158316 0)
(2.925180884 0.1986322919 0)
(2.923231614 0.2259118122 0)
(2.89946413 0.2481550829 0)
(2.888410478 0.2533114198 0)
(2.888014254 0.2517309492 0)
(2.890160317 0.2477581073 0)
(2.895694771 0.2385649683 0)
(2.904105313 0.2241341208 0)
(2.916054854 0.2006567968 0)
(2.929982695 0.1696590287 0)
(2.942628677 0.1397461669 0)
(2.958029852 0.1018025407 0)
(3 4.780267983e-11 0)
(2.999999305 1.618187676e-06 0)
(2.999973943 6.936502514e-05 0)
(2.999547228 0.00111800367 0)
(2.995776458 0.0115656956 0)
(2.983465957 0.04214157306 0)
(2.945515071 0.1286826294 0)
(2.940162505 0.1812315431 0)
(2.910209454 0.2590516254 0)
(2.897255275 0.2551046259 0)
(2.887711455 0.2505816704 0)
(2.888573916 0.2489243818 0)
(2.89150049 0.2459269566 0)
(2.897523413 0.238041896 0)
(2.906305439 0.2233823671 0)
(2.91792695 0.1999490755 0)
(2.930843188 0.1697236186 0)
(2.943142462 0.1415575792 0)
(3 -1.895368769e-14 0)
(2.999999972 6.897392851e-08 0)
(2.999998883 2.842383478e-06 0)
(2.999952332 0.0001208851187 0)
(2.999520515 0.001282030248 0)
(2.995059603 0.01275533703 0)
(2.983031939 0.04157674697 0)
(2.948461212 0.1367261525 0)
(2.927320595 0.1941568602 0)
(2.926257989 0.2272803531 0)
(2.897866141 0.2443752683 0)
(2.887382378 0.2475326949 0)
(2.88818876 0.2481628578 0)
(2.891788057 0.246384491 0)
(2.898684109 0.2379162245 0)
(2.907431458 0.2231785381 0)
(2.919463941 0.198350987 0)
(2.931137712 0.1719508524 0)
(3 -1.261308172e-15 0)
(2.999999999 1.680349661e-09 0)
(2.999999963 9.473268933e-08 0)
(2.999997309 6.582815342e-06 0)
(2.999951015 0.0001282136371 0)
(2.999320823 0.001653208999 0)
(2.995316999 0.01254163236 0)
(2.981142252 0.0467827232 0)
(2.946494898 0.1260559225 0)
(2.941528687 0.186091354 0)
)
;

boundaryField
{
    inlet
    {
        type            fixedValue;
        value           nonuniform 0();
    }
    outlet
    {
        type            inletOutlet;
        inletValue      nonuniform 0();
        value           nonuniform 0();
    }
    bottom
    {
        type            slip;
    }
    top
    {
        type            slip;
    }
    obstacle
    {
        type            slip;
    }
    defaultFaces
    {
        type            empty;
    }
    procBoundary27to20
    {
        type            processor;
        value           nonuniform List<vector> 
16
(
(2.876530645 0.2498498389 0)
(2.883120794 0.2518819735 0)
(2.893285361 0.2510397297 0)
(2.899755607 0.248661169 0)
(2.897963911 0.2517488326 0)
(2.894642092 0.2583213608 0)
(2.890459479 0.262521986 0)
(2.886732259 0.2630926996 0)
(2.896735996 0.2435375391 0)
(2.903427975 0.236699734 0)
(2.939813438 0.1402121936 0)
(2.982006675 0.03923377259 0)
(2.998366239 0.003380403865 0)
(2.999996197 -2.808815918e-07 0)
(3.000000009 2.352564301e-08 0)
(3.000000001 8.927564681e-10 0)
)
;
    }
    procBoundary27to21
    {
        type            processor;
        value           nonuniform List<vector> 
18
(
(2.961872176 -0.273821127 0)
(2.941114126 -0.1545534089 0)
(2.909944929 -0.04894969562 0)
(2.895897603 -0.003900698922 0)
(2.891535134 -6.42194539e-05 0)
(2.888315754 -0.008505859549 0)
(2.889283471 -0.003968935699 0)
(2.889999812 0.009188498802 0)
(3.360734749 -0.4465734234 0)
(3.377872488 -0.4179483088 0)
(3.346996089 -0.4453059939 0)
(3.218546447 -0.458519028 0)
(3.076593493 -0.4236773921 0)
(2.994919156 -0.4015936759 0)
(2.972452222 -0.3855792667 0)
(2.96548867 -0.3849977587 0)
(2.970153944 -0.3744873115 0)
(2.970153944 -0.3744873115 0)
)
;
    }
    procBoundary27to26
    {
        type            processor;
        value           nonuniform List<vector> 4((3 3.629488575e-11 0) (3 -5.0286411e-13 0) (3 -8.31447259e-14 0) (3 4.047753674e-15 0));
    }
    procBoundary27to28
    {
        type            processor;
        value           nonuniform List<vector> 
28
(
(2.890204776 -0.002444838218 0)
(2.893144682 -0.002283928116 0)
(2.896018915 -0.002613296301 0)
(2.898427203 -0.003238524111 0)
(2.898427203 -0.003238524111 0)
(2.898795338 -0.004173896984 0)
(2.899436439 -0.004227383174 0)
(2.899439937 -0.004227047819 0)
(2.899133062 -0.00397354135 0)
(2.899908053 -0.004548374792 0)
(2.903236876 -0.005348588626 0)
(2.909824083 -0.005031168443 0)
(2.916087461 -0.006879425598 0)
(2.935858143 -0.003559940479 0)
(2.998744454 -0.01602583776 0)
(3.062833442 -0.07545210078 0)
(3.078803332 -0.2359432923 0)
(3.09270271 -0.3632102433 0)
(3.10284706 -0.3883664491 0)
(3.093174062 -0.373969409 0)
(3.091356769 -0.358907336 0)
(3.088077211 -0.3162765477 0)
(3.069027863 -0.2521903709 0)
(3.064231403 -0.2277603671 0)
(3.049075102 -0.1587393116 0)
(3.035780609 -0.1160914 0)
(3.015310754 -0.05721975627 0)
(3.00189851 -0.02202695671 0)
)
;
    }
    procBoundary27to33
    {
        type            processor;
        value           nonuniform List<vector> 
19
(
(2.910457829 0.2585016297 0)
(2.888029228 0.2484150518 0)
(2.888027499 0.2505202622 0)
(2.889376116 0.2497116853 0)
(2.893057248 0.2466589241 0)
(2.899835634 0.2372398814 0)
(2.9088295 0.2216727076 0)
(2.920548345 0.1972560557 0)
(3 5.913446634e-17 0)
(3 2.308766114e-11 0)
(2.999999999 1.991517284e-09 0)
(2.999999887 2.801852882e-07 0)
(2.999997127 7.221148036e-06 0)
(2.999924739 0.0001861979388 0)
(2.999365569 0.001660748873 0)
(2.994251174 0.01433916407 0)
(2.982716996 0.04329160863 0)
(2.910457829 0.2585016297 0)
(2.946581 0.1425473892 0)
)
;
    }
    procBoundary27to34
    {
        type            processor;
        value           nonuniform List<vector> 4((2.987038709 0.02009441584 0) (2.970109873 0.06783446101 0) (2.957176542 0.1045902247 0) (2.944598309 0.1399570616 0));
    }
}


// ************************************************************************* //
