/*--------------------------------*- C++ -*----------------------------------*\
  =========                 |
  \\      /  F ield         | OpenFOAM: The Open Source CFD Toolbox
   \\    /   O peration     | Website:  https://openfoam.org
    \\  /    A nd           | Version:  7
     \\/     M anipulation  |
\*---------------------------------------------------------------------------*/
FoamFile
{
    version     2.0;
    format      ascii;
    class       volScalarField;
    location    "4.6";
    object      T;
}
// * * * * * * * * * * * * * * * * * * * * * * * * * * * * * * * * * * * * * //

dimensions      [0 0 0 1 0 0 0];

internalField   nonuniform List<scalar> 
2222
(
1.036321532
1.036123417
1.036116111
1.036131489
1.036184732
1.036333579
1.03641047
1.036407506
1.036418197
1.036642696
1.04027908
1.083874267
1.187863011
1.254582648
1.277329571
1.285890456
1.284443845
1.277874917
1.02792252
1.034362685
1.032261615
1.033959661
1.035717687
1.036994133
1.0373658
1.037330632
1.037197406
1.036885676
1.036737553
1.03675584
1.036816197
1.03674661
1.036553274
1.036326953
1.036241952
1.036247606
1.03628934
1.036415707
1.036567983
1.036603497
1.036540662
1.036586793
1.036991206
1.048396598
1.104858363
1.210116483
1.271610855
1.284634742
1.283192449
1.278708956
1.03177137
1.036546863
1.036181573
1.035912789
1.036312381
1.036917007
1.037421228
1.037410319
1.037227311
1.036823657
1.036431894
1.036479014
1.036582105
1.036653844
1.036633326
1.036575218
1.036522649
1.036481908
1.036464899
1.036497585
1.036628347
1.036700162
1.036687422
1.036629925
1.036650307
1.038471372
1.055861149
1.140835824
1.238956174
1.270559239
1.27965957
1.279362306
1.034353399
1.035693753
1.036760072
1.036986966
1.037186108
1.037206408
1.037355639
1.037411703
1.037287833
1.036934875
1.036425394
1.036225137
1.03626726
1.036402915
1.036594488
1.036744922
1.036756935
1.03673749
1.036680522
1.03664458
1.036698036
1.036774821
1.036791082
1.036762947
1.036740122
1.036936568
1.040350047
1.075024729
1.169235703
1.249268198
1.278093283
1.280745212
1.036346998
1.036299537
1.036746987
1.037213543
1.037437671
1.037746698
1.037705615
1.037601187
1.037431628
1.037121976
1.036741531
1.036453732
1.036463294
1.03655152
1.036722787
1.036879059
1.036932695
1.0369313
1.036903504
1.036829307
1.036777413
1.036811252
1.036846399
1.036882421
1.036896656
1.036953038
1.037441755
1.045206739
1.097386965
1.198663402
1.266545584
1.278195882
1.036935236
1.036681586
1.036694517
1.036962055
1.037415448
1.037825558
1.037855122
1.037814591
1.037661896
1.037407244
1.037149114
1.03698893
1.036919475
1.036948739
1.036970733
1.036997981
1.03702726
1.037039931
1.037023882
1.03696451
1.036856534
1.036851379
1.036897065
1.036986217
1.037056909
1.037088605
1.037182406
1.038425175
1.053480914
1.126252796
1.225496202
1.272141342
1.036957138
1.036776341
1.036673531
1.036761716
1.03716224
1.03774152
1.038018488
1.037943681
1.037760168
1.037541314
1.037324901
1.037211631
1.037190191
1.037149531
1.037177921
1.037127804
1.037101101
1.037089755
1.037074244
1.037028233
1.036933429
1.036883965
1.03691464
1.037010576
1.03713166
1.037211945
1.037254493
1.037435554
1.040310306
1.067712903
1.157227116
1.255417439
1.03698593
1.036756747
1.03668515
1.036733821
1.036922377
1.037358395
1.03785535
1.037984714
1.037905105
1.037730676
1.03752466
1.037352152
1.037297799
1.037268184
1.037238305
1.037237727
1.037203726
1.0371798
1.037163988
1.037125607
1.037019019
1.036910403
1.036916369
1.036992002
1.037150923
1.037291746
1.037326977
1.03737233
1.037751782
1.044141785
1.085326854
1.218138366
1.037191839
1.03696185
1.03678135
1.03678692
1.036935854
1.037200342
1.037630472
1.037977505
1.03799478
1.037905842
1.037714725
1.037483991
1.037357946
1.037337754
1.037337476
1.037371097
1.037364648
1.037355702
1.037342528
1.037294382
1.03715706
1.037014227
1.036990724
1.037028036
1.037156703
1.037334202
1.037381075
1.037366753
1.037411062
1.038409573
1.048674026
1.164077874
1.037303917
1.03713685
1.03709379
1.037100762
1.037139399
1.037320069
1.037611533
1.037932725
1.038046945
1.038023467
1.037907599
1.037698831
1.03754915
1.037524107
1.037543675
1.037601166
1.037600164
1.037598678
1.037587719
1.037519546
1.037370028
1.037227668
1.037178934
1.037188533
1.037264131
1.037409788
1.037465224
1.037439874
1.03740286
1.037525638
1.03905971
1.105926941
1.037525907
1.037458392
1.037402315
1.037424932
1.037524295
1.037715091
1.037930271
1.038087217
1.038164161
1.038170232
1.038108035
1.037958448
1.037826703
1.037796017
1.037826368
1.037855919
1.037852522
1.037863419
1.037853274
1.037781714
1.037654694
1.037535923
1.037465041
1.037457571
1.037489583
1.037579648
1.037629553
1.037621485
1.037553076
1.037520407
1.037660084
1.066292614
1.03774633
1.037736468
1.037785997
1.037880586
1.03800763
1.038185528
1.038377795
1.038444128
1.038452867
1.038421776
1.03833973
1.038231409
1.038126657
1.038076914
1.038081861
1.038050612
1.038053887
1.038093409
1.038106254
1.0380662
1.037980769
1.037893222
1.037817509
1.037784186
1.037793704
1.037842485
1.03788672
1.037889174
1.03785051
1.037725716
1.037730727
1.048106804
1.037953108
1.037995081
1.038147964
1.038337681
1.038503142
1.038674567
1.038855336
1.038865224
1.038834123
1.038741643
1.038624942
1.038526872
1.038439525
1.038386505
1.038368981
1.038312667
1.038302128
1.038340241
1.038390857
1.038381963
1.038334191
1.038273164
1.038206043
1.038152399
1.038151296
1.038180317
1.038217532
1.038230263
1.038214351
1.038116801
1.038002892
1.041541067
1.038251669
1.038314862
1.038493147
1.038730406
1.038936904
1.039101866
1.039278842
1.039287755
1.039247372
1.039141033
1.039015179
1.038928808
1.038852035
1.0387962
1.038773762
1.038722728
1.038667131
1.038684353
1.038733138
1.038737341
1.038712362
1.038679138
1.038631296
1.038569982
1.038558606
1.038580069
1.038611362
1.038632568
1.038625533
1.038573019
1.038441652
1.03963902
1.038830808
1.038936307
1.039121517
1.039321339
1.039433621
1.039543333
1.039678097
1.039753446
1.039729694
1.039635928
1.039547158
1.039490289
1.039418066
1.039359422
1.039332438
1.039274682
1.039186612
1.039146087
1.039162667
1.039156792
1.039131306
1.039129469
1.039108095
1.039052626
1.039033058
1.039051202
1.039078306
1.039092457
1.039094703
1.039076335
1.038973202
1.039370447
1.03952812
1.039631437
1.039852986
1.040055905
1.040064396
1.040070906
1.040115474
1.040185716
1.04018493
1.04015458
1.040162226
1.040155597
1.040106602
1.040058062
1.040024261
1.039945239
1.039821874
1.039718384
1.039692432
1.039663995
1.039638246
1.03966317
1.039663388
1.03962639
1.039605351
1.039620271
1.039633273
1.039628674
1.039632635
1.039629028
1.039563155
1.039663753
1.040251337
1.040331199
1.040507593
1.040640809
1.040694529
1.040704256
1.040710188
1.040717798
1.040740534
1.040785451
1.040830594
1.040877127
1.040861512
1.040828567
1.040791115
1.040689239
1.040533527
1.040379496
1.04031302
1.040276206
1.040252382
1.040279795
1.040321701
1.040303475
1.040285714
1.040295196
1.040295496
1.040267126
1.04026285
1.040270518
1.040230596
1.040235544
1.04092746
1.041000515
1.041161458
1.041314114
1.041456544
1.041533134
1.041526808
1.041485399
1.041490483
1.041537115
1.04158888
1.041652335
1.041655106
1.041633724
1.041592631
1.041475085
1.04130046
1.041119589
1.041023727
1.041000971
1.040988976
1.041003401
1.041070169
1.041082454
1.041072678
1.041072996
1.041065864
1.041023537
1.04099738
1.041005532
1.040983017
1.040968934
1.041575777
1.041643878
1.04184788
1.042096196
1.042296925
1.042427017
1.042426507
1.042363684
1.042328675
1.04235402
1.042387489
1.042437516
1.04246662
1.042461164
1.042434985
1.04232722
1.042154998
1.041966609
1.041837056
1.041831633
1.041835856
1.041842078
1.041886958
1.041946471
1.041940555
1.041927727
1.041907071
1.041868613
1.0418292
1.041828377
1.04182398
1.0418038
1.042356443
1.042424372
1.042613167
1.042898609
1.043140125
1.043273116
1.043271106
1.043205819
1.043147537
1.043152385
1.043180676
1.043230672
1.043298318
1.043326765
1.043323192
1.043255028
1.04310266
1.042923466
1.04275732
1.042717296
1.042727469
1.042735163
1.042746427
1.04281588
1.042831886
1.0428157
1.04278242
1.042745964
1.042713111
1.042697471
1.042700585
1.042699807
1.043344702
1.043353264
1.043435938
1.04365538
1.043909651
1.044041223
1.04403457
1.043965541
1.043908405
1.043914391
1.043948822
1.044016461
1.044121828
1.044198438
1.044206636
1.044176953
1.044060603
1.043893297
1.043714252
1.043595714
1.043584481
1.043596314
1.043602958
1.043645968
1.043688806
1.043677591
1.043646049
1.043615615
1.043585107
1.043571497
1.043570374
1.043590925
1.044380323
1.044300182
1.044306875
1.044406391
1.044583032
1.04464605
1.044625314
1.04455652
1.044558885
1.044580046
1.04463225
1.044719439
1.044845914
1.04497161
1.044988502
1.044970266
1.044890467
1.044745575
1.04457584
1.044433262
1.044374421
1.044367383
1.044378027
1.044400637
1.044450208
1.044455119
1.044442791
1.04442445
1.044396961
1.044386213
1.044387047
1.044411988
1.045200744
1.04510866
1.045109251
1.045199061
1.045321064
1.045326398
1.04527962
1.045162962
1.045092016
1.045108255
1.045158139
1.045261399
1.045414052
1.045578549
1.045616586
1.045592288
1.04552707
1.045412737
1.04526822
1.045136972
1.04506693
1.045028155
1.045034356
1.045056492
1.045108593
1.045141074
1.045141473
1.04513564
1.045111922
1.045100727
1.04510199
1.045119951
1.045749926
1.04569626
1.045722493
1.045852419
1.04591719
1.045912201
1.045862379
1.045741596
1.045613457
1.045588336
1.045609909
1.045684345
1.045822755
1.045992522
1.046074347
1.046057689
1.045994397
1.045898849
1.045789513
1.045686378
1.045624605
1.045600204
1.045608662
1.045637819
1.045684401
1.04571074
1.045709289
1.045691673
1.045686911
1.045672322
1.045653622
1.045662479
1.046117036
1.046091804
1.046143674
1.046299704
1.046365692
1.046378709
1.046371168
1.046285688
1.046134925
1.046059226
1.046063899
1.046103385
1.046192451
1.046306047
1.046371118
1.04636395
1.046303123
1.04623657
1.046175427
1.046112196
1.046073792
1.04608132
1.046105007
1.046131346
1.046173637
1.046209929
1.046209136
1.046185628
1.046153638
1.046103538
1.046057579
1.046056151
1.046371562
1.046352779
1.046391177
1.046514794
1.046598301
1.046631905
1.046659883
1.046632257
1.046546294
1.04647773
1.046456167
1.046483638
1.046547373
1.046611013
1.046627226
1.046609019
1.046543696
1.046505765
1.046489052
1.046463977
1.046451745
1.046481945
1.046527701
1.046526205
1.046548969
1.046587255
1.046581881
1.04655075
1.046503832
1.046448561
1.046393012
1.04637494
1.046575275
1.046555918
1.046562704
1.046602599
1.046674384
1.046736101
1.046799614
1.046821029
1.046778178
1.0467309
1.046732323
1.046787237
1.046858035
1.046878735
1.046875467
1.046855185
1.046796154
1.046781173
1.046793733
1.046791735
1.046786167
1.046812364
1.04685692
1.046826075
1.046829336
1.046839968
1.046822208
1.046766617
1.04671402
1.046676119
1.046625511
1.046626829
1.046793566
1.04677778
1.046771494
1.046757543
1.046751196
1.046763141
1.046800577
1.046798802
1.046779335
1.046798175
1.046872472
1.046961017
1.047034627
1.047060382
1.047063137
1.047063236
1.047034803
1.04703757
1.047068358
1.04708233
1.047073106
1.047080593
1.047105224
1.04705195
1.04701815
1.047003364
1.046972387
1.046899
1.04685304
1.046844675
1.046819748
1.046841497
1.04705709
1.047079729
1.047064463
1.047028325
1.046973491
1.046924723
1.046883842
1.046840014
1.046835673
1.046879464
1.046969317
1.047083773
1.047170033
1.047187185
1.047196758
1.047219384
1.047223724
1.04724246
1.047293302
1.047321201
1.047310866
1.047306943
1.04732068
1.047265927
1.047196098
1.047150043
1.047105888
1.047034004
1.046987147
1.046998318
1.046996653
1.047049317
1.047296123
1.04740829
1.047412135
1.047387659
1.047333286
1.047244578
1.047121268
1.047036397
1.047036821
1.047079036
1.047157842
1.047256657
1.047326654
1.04732943
1.047331672
1.047350101
1.04736726
1.047407643
1.04748449
1.047538622
1.04753872
1.047536686
1.047539452
1.047479907
1.04738167
1.047300402
1.047231752
1.047169271
1.047126505
1.047148405
1.047187343
1.04728151
1.047413514
1.047606753
1.047741837
1.047803911
1.047801738
1.047711869
1.047542988
1.04739949
1.047337333
1.047311443
1.047320651
1.047379488
1.047451831
1.047467133
1.047498455
1.04752114
1.047523044
1.047547259
1.047599301
1.047652686
1.047674124
1.047692626
1.047703406
1.047651632
1.047566704
1.047493639
1.047426684
1.047371223
1.04734704
1.047359998
1.047399102
1.047484553
1.047421899
1.047585563
1.047701115
1.047789236
1.047871408
1.047919307
1.047820504
1.047654136
1.047583446
1.047524932
1.047442898
1.047345277
1.047294036
1.047226089
1.047236816
1.047301384
1.047431215
1.047629202
1.047711791
1.04775561
1.047792848
1.047828286
1.047798924
1.047664949
1.047507605
1.047388258
1.047335968
1.047341387
1.047424359
1.047566072
1.047786503
1.047835131
1.047506763
1.047694296
1.047767175
1.047794811
1.047783151
1.047774499
1.047825054
1.047777617
1.047728879
1.047685284
1.047633332
1.04756282
1.047456045
1.047349342
1.047242152
1.047182187
1.04724202
1.047511147
1.047756783
1.047806059
1.047830217
1.047883066
1.047869656
1.047754187
1.047555542
1.047358256
1.04722232
1.047155768
1.047189609
1.047343152
1.047683866
1.047938063
1.047592517
1.0477853
1.047854754
1.047873959
1.04787166
1.047803491
1.04775652
1.047852174
1.047875114
1.047836043
1.047800956
1.047741024
1.047595609
1.047501086
1.04733433
1.047191934
1.047277442
1.047453842
1.047732448
1.047897
1.04790688
1.047934288
1.047924915
1.047833151
1.047642194
1.047429164
1.047279346
1.047189078
1.04714908
1.047231702
1.04747178
1.047945006
1.047728965
1.047985663
1.048141143
1.048153199
1.048083241
1.047939861
1.04782629
1.047838437
1.047982925
1.04798488
1.047944897
1.04786424
1.047711689
1.047551489
1.04731546
1.047302312
1.04738551
1.047522061
1.047712389
1.047960624
1.048034503
1.048032332
1.047993241
1.047889304
1.047716
1.047534885
1.047443358
1.047335451
1.047309545
1.047344076
1.047466646
1.047793477
1.048018011
1.048204046
1.048384033
1.048459253
1.048419531
1.04822387
1.047978936
1.047934942
1.047997631
1.048100838
1.048080634
1.047946401
1.047873338
1.047780428
1.047543766
1.047518077
1.047584806
1.047653039
1.047776136
1.047926095
1.048098291
1.048159798
1.048107282
1.047994663
1.047855921
1.047762207
1.04768246
1.047599956
1.047545987
1.047551841
1.047605018
1.047753438
1.048380184
1.048477257
1.0486141
1.048713894
1.048697454
1.048556264
1.048284509
1.048101921
1.04808184
1.0481378
1.048201111
1.048160636
1.048042461
1.047949404
1.047803029
1.047744275
1.047793256
1.047850502
1.047902402
1.04797794
1.048060024
1.048236431
1.048259039
1.0481753
1.048086525
1.048023707
1.047975762
1.04790261
1.047847757
1.047817808
1.047828306
1.047891391
1.048676997
1.048791898
1.048852683
1.048945333
1.04892573
1.048810272
1.048608954
1.048385986
1.048256784
1.048235857
1.048295834
1.04835325
1.048308683
1.048232892
1.048120728
1.048007424
1.047998471
1.048036384
1.048089757
1.048113857
1.048148449
1.048240688
1.048389253
1.048403495
1.04834575
1.048297567
1.048269853
1.048201328
1.048166077
1.048147133
1.048107568
1.048093187
1.048798292
1.04905322
1.049096707
1.049108244
1.049078255
1.049020937
1.048842853
1.048716135
1.048528108
1.048419501
1.048425183
1.048563697
1.048633872
1.048583904
1.04846653
1.048306042
1.048204623
1.048225525
1.048261831
1.048296496
1.048299587
1.048364179
1.048433653
1.048561681
1.048599678
1.048562382
1.048507856
1.048440853
1.04841243
1.048390668
1.048348385
1.04832914
1.048789561
1.049154577
1.049306112
1.049279587
1.049187074
1.049158192
1.04905913
1.048958084
1.048876935
1.048708757
1.048669112
1.048789959
1.048931649
1.048870727
1.048751196
1.048599425
1.048423219
1.048391879
1.048415463
1.048481699
1.048538905
1.048572928
1.048576127
1.048590207
1.048730684
1.048764842
1.048698928
1.04861689
1.048581233
1.048562328
1.0485297
1.04841736
1.048932951
1.049137617
1.049395098
1.04942916
1.049314533
1.049208692
1.049191816
1.049190392
1.0491573
1.049071925
1.048957339
1.048966195
1.049054657
1.049123884
1.049035259
1.048879853
1.048686325
1.048581603
1.04857535
1.048667583
1.048781681
1.048830565
1.048809325
1.048763584
1.048767496
1.04885165
1.048815863
1.048696506
1.04864423
1.048650258
1.048651491
1.048647634
1.049081443
1.049252492
1.049420517
1.049546511
1.049466268
1.04931407
1.04925356
1.04935074
1.049415889
1.049379386
1.04929857
1.049219338
1.049160378
1.049229305
1.049299919
1.049158357
1.049002619
1.04886843
1.048815406
1.048841555
1.048967544
1.049098632
1.049108368
1.049019308
1.048941356
1.048947603
1.048961065
1.048861242
1.04873076
1.048678334
1.048791619
1.048922088
1.04936308
1.049410185
1.049525547
1.04962268
1.049606848
1.049467498
1.049367691
1.049415337
1.049597613
1.049640273
1.049594846
1.04950964
1.049383058
1.049303435
1.049371055
1.049403332
1.049295798
1.049197283
1.049131467
1.049095156
1.049146193
1.049349723
1.049400827
1.049354597
1.049233409
1.049140682
1.04910903
1.049021511
1.04885035
1.048832719
1.048914211
1.049164229
1.049686784
1.049719811
1.049711743
1.049743503
1.049706747
1.049637113
1.04953502
1.049525667
1.049614881
1.049804819
1.049860731
1.049802246
1.049672996
1.049512685
1.04941748
1.049452828
1.049525603
1.049502992
1.049429648
1.049371333
1.049407728
1.049540386
1.049673454
1.049654415
1.04954741
1.049347204
1.049213287
1.049123629
1.049087502
1.049091034
1.049116354
1.049257764
1.049924932
1.050045457
1.050044307
1.049936381
1.049845758
1.049781167
1.049716528
1.049688704
1.049667054
1.049763411
1.049999467
1.05007003
1.049960443
1.049754702
1.049607199
1.049531644
1.049590359
1.049702519
1.049716916
1.049709793
1.04973161
1.049791675
1.049842667
1.049889169
1.049733446
1.049429275
1.049318391
1.049285974
1.049358923
1.04936229
1.049369471
1.049468632
1.050104137
1.050284102
1.050348532
1.050293521
1.050076583
1.049930934
1.049874191
1.049833852
1.04975485
1.049770445
1.049904398
1.050168386
1.050193044
1.050034408
1.04983872
1.049730159
1.049715763
1.049777213
1.049919266
1.050021906
1.050058728
1.050061031
1.050012066
1.0499783
1.04986993
1.049697252
1.04954404
1.049522999
1.049585704
1.049664981
1.049687117
1.049730369
1.050163731
1.050478424
1.050583186
1.050581799
1.050444287
1.050160081
1.050041273
1.04997086
1.049921264
1.049877944
1.04988407
1.050007913
1.050211631
1.050237492
1.050094376
1.049980917
1.049942512
1.049941421
1.050016918
1.050182295
1.050323227
1.050288458
1.050180665
1.050051858
1.050049317
1.049989105
1.049888303
1.049781215
1.049776206
1.049926175
1.050018255
1.050051911
1.050026289
1.050205339
1.050544369
1.05080078
1.050815802
1.050726834
1.050511398
1.050248793
1.050150822
1.050088162
1.050044633
1.050000089
1.04997161
1.050044732
1.050216381
1.050288891
1.050237536
1.050196729
1.050185773
1.050224222
1.05026198
1.050386337
1.050466915
1.050387547
1.050246304
1.05017437
1.050268648
1.050228038
1.050110598
1.050024447
1.05006889
1.05027585
1.05033885
1.050253265
1.050355222
1.050535189
1.050838288
1.051023759
1.050962469
1.050776073
1.050589801
1.050371399
1.050265937
1.050222793
1.050156352
1.05012048
1.050063372
1.050097965
1.050272824
1.050414212
1.050441557
1.050464869
1.05044519
1.050405945
1.050423219
1.050540935
1.050600684
1.050468585
1.050329974
1.050362419
1.050500057
1.050425615
1.050318922
1.050292041
1.050414143
1.050566286
1.05038287
1.050558312
1.050635823
1.050785507
1.050989203
1.051102178
1.051018602
1.050852909
1.050708487
1.050536694
1.050407933
1.050339921
1.050256543
1.050121143
1.050092418
1.050185374
1.050354108
1.050553347
1.050661497
1.050639264
1.050581883
1.050586474
1.050615722
1.050683425
1.050675263
1.050521765
1.050436223
1.050531417
1.050626015
1.050615218
1.050550074
1.050558147
1.050707071
1.050246255
1.050696171
1.050852074
1.05091441
1.05093139
1.050956657
1.051079528
1.051082076
1.05097162
1.050807793
1.050638315
1.050550829
1.05039889
1.050321751
1.050293063
1.050312497
1.050354112
1.050452222
1.050646282
1.050782917
1.050819752
1.050807588
1.050759263
1.050738158
1.05078535
1.050748147
1.050612102
1.050575453
1.050618002
1.050784918
1.050803153
1.050748742
1.050801887
1.050257222
1.050633141
1.051024317
1.051088133
1.051014815
1.050910636
1.050899037
1.051081916
1.051164533
1.051049536
1.050928061
1.050762838
1.050644226
1.050583043
1.050512029
1.050438876
1.050436896
1.050474366
1.050556457
1.050729687
1.050942757
1.051029054
1.05100425
1.050924819
1.050881967
1.050917596
1.050844354
1.050746213
1.050655337
1.050699726
1.050902891
1.050903353
1.050899826
1.05045142
1.050658384
1.050959165
1.051241007
1.051238531
1.05108542
1.050894247
1.050897385
1.051063086
1.051241649
1.051186323
1.051121105
1.050964836
1.050766178
1.050669971
1.050645158
1.050640981
1.05061814
1.050640067
1.050698632
1.050854286
1.051129274
1.051254014
1.051215831
1.05107901
1.051016912
1.051009929
1.050875938
1.050741545
1.050712459
1.050782653
1.050927739
1.051040209
1.050829288
1.050864226
1.051024308
1.05126179
1.051401494
1.051304324
1.051072206
1.050921544
1.050915764
1.05114036
1.051408718
1.051410191
1.051294128
1.051077981
1.050912977
1.050869505
1.050858762
1.050849247
1.050823484
1.050834099
1.050904154
1.051078389
1.051349678
1.051429802
1.0513334
1.051150079
1.051063761
1.050915121
1.050823044
1.050770923
1.05073854
1.050846697
1.051119802
1.051204946
1.051284034
1.051281353
1.051328345
1.051315965
1.051333026
1.051252582
1.051084185
1.051017923
1.051058371
1.05133763
1.05162302
1.051592385
1.051413164
1.051206332
1.051010597
1.050919111
1.051003824
1.051076147
1.051095227
1.051117338
1.051174874
1.051232202
1.051439804
1.051492897
1.051296182
1.051112899
1.050997039
1.050955463
1.050870355
1.050842243
1.050857279
1.051045107
1.051589986
1.051696175
1.051757021
1.051595882
1.051436964
1.05127574
1.051250721
1.051281884
1.05118973
1.051129192
1.051248931
1.051564804
1.051794538
1.051734731
1.051529034
1.051193917
1.051043383
1.051023297
1.051191816
1.051346264
1.051377006
1.051303545
1.051250347
1.051305398
1.051474697
1.051473075
1.051297795
1.05112946
1.051105457
1.051092273
1.051070319
1.051026775
1.051085183
1.051746612
1.052064708
1.052115034
1.052006293
1.051706086
1.051390222
1.051225854
1.051325538
1.051413654
1.051380582
1.051328076
1.051431684
1.051712104
1.051951535
1.051819099
1.051590976
1.051274819
1.051154399
1.051169398
1.051345471
1.051484866
1.051441927
1.051416612
1.051363641
1.051362131
1.051570115
1.05156685
1.05132216
1.051246401
1.051328196
1.05133812
1.051305638
1.05126996
1.051751935
1.052093984
1.052333502
1.052324237
1.05213465
1.051679379
1.051395444
1.051322805
1.051508634
1.051678935
1.051597703
1.051540688
1.051577074
1.051816414
1.052044416
1.051920895
1.051687578
1.051397149
1.051316543
1.051303693
1.051439134
1.051654878
1.051689897
1.051537753
1.051441336
1.051514377
1.051692848
1.051592925
1.051452667
1.051473065
1.05158532
1.051616613
1.0515487
1.051898062
1.052000603
1.052198114
1.052434572
1.052391153
1.05209401
1.051744433
1.051513318
1.051494087
1.051714126
1.051890043
1.051744246
1.051653572
1.051665138
1.051917568
1.052125241
1.052023736
1.051809454
1.051561192
1.051437307
1.051400269
1.051670893
1.051901271
1.051851178
1.051689704
1.051552155
1.05161595
1.051771626
1.051702115
1.051627355
1.051711319
1.051860203
1.051840506
1.052190999
1.052161088
1.052142439
1.05219318
1.052358359
1.052410195
1.052223746
1.051901011
1.05166682
1.051676974
1.051911988
1.052006145
1.051887341
1.051797298
1.05179647
1.051928518
1.052160697
1.052139864
1.051944833
1.051723683
1.051630476
1.051671487
1.05190827
1.052136369
1.052073448
1.051813332
1.051672738
1.05169271
1.051869868
1.051861858
1.05183466
1.051917431
1.052050898
1.05240604
1.052402499
1.052266169
1.052172676
1.052194183
1.052407518
1.052550779
1.05239256
1.052044065
1.051858984
1.051852609
1.052106974
1.052152723
1.052006642
1.051845028
1.051834533
1.051988308
1.052228829
1.052257858
1.052128766
1.052010499
1.05187909
1.051912526
1.052167031
1.052311587
1.052140853
1.05177446
1.05165444
1.051820097
1.052015845
1.052008963
1.051980127
1.052127868
1.052276958
1.052561511
1.052587461
1.052470859
1.052326148
1.052249056
1.052460421
1.05268396
1.052566437
1.052235866
1.052042511
1.052046378
1.052200752
1.052250744
1.052143601
1.052035621
1.051979821
1.052064624
1.052267169
1.052405738
1.052335748
1.052268569
1.052199506
1.052186572
1.052259244
1.052266709
1.052009674
1.051834239
1.051794826
1.051918159
1.052099764
1.052119401
1.05222056
1.05217295
1.052507184
1.052840192
1.052839074
1.052556884
1.052325981
1.052323723
1.05256068
1.052824834
1.052693759
1.052398649
1.052142057
1.052128945
1.052322003
1.052432751
1.052320163
1.052192731
1.052132853
1.052142845
1.052289211
1.052532489
1.052671425
1.052586079
1.052314689
1.052208149
1.052277044
1.052318313
1.052111226
1.051883959
1.051866372
1.052015961
1.052199266
1.052369076
1.05234949
1.05238373
1.052523301
1.052729516
1.052922669
1.052858262
1.05263275
1.052470186
1.052452314
1.052646156
1.052900043
1.052744585
1.052478708
1.052306547
1.052247007
1.052336159
1.052470429
1.052462529
1.052320708
1.052230085
1.05227319
1.052498324
1.052775704
1.052776824
1.052572797
1.052381839
1.052348515
1.052438357
1.052372211
1.052151051
1.052013053
1.052002844
1.052152705
1.052418457
1.052742265
1.052735008
1.052668483
1.05269029
1.052809589
1.052988381
1.052945938
1.052761404
1.052568586
1.052516268
1.052757902
1.053036124
1.05300668
1.052658389
1.052308586
1.052245102
1.052412423
1.05258162
1.052634976
1.052595088
1.052521603
1.05248751
1.052533999
1.052731765
1.052853386
1.052712014
1.052532983
1.052509385
1.052579633
1.052530844
1.052307651
1.052155664
1.05216581
1.052333575
1.052922572
1.053122392
1.053068703
1.053006212
1.052925535
1.052881669
1.052926531
1.052958034
1.05277008
1.052641604
1.052684071
1.05301979
1.053255238
1.053043029
1.05271176
1.05254019
1.052434639
1.052503088
1.052785621
1.052954613
1.052879985
1.05268959
1.052572405
1.052605708
1.052802747
1.052944163
1.052834915
1.052724067
1.052693223
1.052742811
1.052666855
1.052487033
1.052375474
1.052370221
1.052920388
1.053354085
1.053568883
1.053478801
1.053210283
1.052953294
1.052837735
1.052894464
1.052946541
1.052894354
1.05281166
1.052863983
1.053117869
1.053361746
1.053339706
1.053021586
1.05268103
1.052627664
1.052715053
1.052908348
1.053036186
1.052956827
1.052770435
1.052660279
1.052710677
1.052944706
1.053117166
1.053006132
1.052828213
1.052813626
1.052907945
1.052873237
1.05267987
1.052514009
1.053073718
1.053352723
1.05372754
1.0538237
1.053621895
1.053234385
1.052959468
1.052850421
1.052948861
1.05311239
1.053045125
1.052976757
1.053033166
1.053319108
1.053592197
1.053429344
1.053155592
1.052933833
1.052820917
1.052831414
1.05294253
1.053096368
1.053076453
1.052937337
1.052871892
1.052946688
1.053164922
1.053224901
1.053073821
1.052939739
1.052954489
1.0530306
1.052960585
1.052807077
1.053373118
1.053433882
1.053632884
1.053891119
1.053942503
1.053662641
1.053251778
1.05298878
1.052946927
1.05311536
1.053259732
1.053194984
1.053134148
1.053193905
1.053416876
1.053670445
1.053670086
1.053357802
1.053048887
1.052879873
1.052864736
1.053035457
1.053280337
1.053314413
1.053171822
1.053078321
1.05312631
1.053269307
1.05328119
1.053117417
1.053739639
1.053697395
1.05369228
1.053740138
)
;

boundaryField
{
    inlet
    {
        type            fixedValue;
        value           nonuniform 0();
    }
    outlet
    {
        type            inletOutlet;
        inletValue      uniform 1;
        value           nonuniform List<scalar> 
68
(
1.047786541
1.047942534
1.048018966
1.047866952
1.047776964
1.047886477
1.048070127
1.048285078
1.048363168
1.048627586
1.04890812
1.049210268
1.04932523
1.049479232
1.049742945
1.050041545
1.050328008
1.050557696
1.050702195
1.050793136
1.050879546
1.051032779
1.051162622
1.051107982
1.051105261
1.051261868
1.051510875
1.051810797
1.052023629
1.052125747
1.052223168
1.052381281
1.052462388
1.05238203
1.052383052
1.052496296
1.052773362
1.277878433
1.278710716
1.279361648
1.280743099
1.278195519
1.272149744
1.255420772
1.218147195
1.164079264
1.105921914
1.066288544
1.048105427
1.041540948
1.039639258
1.039370694
1.039663754
1.040235224
1.040968591
1.041803648
1.042700363
1.043592101
1.044413177
1.04512042
1.045662079
1.046055914
1.04637524
1.046627583
1.046842758
1.04705072
1.047282907
1.047481127
)
;
    }
    bottom
    {
        type            slip;
    }
    top
    {
        type            slip;
    }
    obstacle
    {
        type            zeroGradient;
    }
    defaultFaces
    {
        type            empty;
    }
    procBoundary11to5
    {
        type            processor;
        value           nonuniform List<scalar> 
33
(
1.036081185
1.036065937
1.036097159
1.036145247
1.036207576
1.036273958
1.036302321
1.036314865
1.036380301
1.038936782
1.058850209
1.151269754
1.252565715
1.285107656
1.285482455
1.284942133
1.282568037
1.275900973
0.9899020641
1.014783175
1.025441795
1.035111424
1.036088377
1.03690094
1.036969671
1.037261983
1.037350534
1.037023457
1.03674932
1.036744397
1.036738782
1.036625153
1.036625153
)
;
    }
    procBoundary11to10
    {
        type            processor;
        value           nonuniform List<scalar> 
70
(
1.002967527
1.02169884
1.034394785
1.03700964
1.036618426
1.037009054
1.037451415
1.037627169
1.037470962
1.037546846
1.037766647
1.038023742
1.038307855
1.038770154
1.039480723
1.040243938
1.04096268
1.041627207
1.042398032
1.043520933
1.044598841
1.045388674
1.045866336
1.046180614
1.046424317
1.046605803
1.046802934
1.047004989
1.04719492
1.047311575
1.047271992
1.047324096
1.047418959
1.047582939
1.047962176
1.048271239
1.048420524
1.048428562
1.048581478
1.048739494
1.048993673
1.049291377
1.049519024
1.0496913
1.049748628
1.049846265
1.049846265
1.049989625
1.050143088
1.050028072
1.049988799
1.050126868
1.050361022
1.050741988
1.051069968
1.051271372
1.051359602
1.051563079
1.051895237
1.052148688
1.052039945
1.051935016
1.052050154
1.052050154
1.052333534
1.052518936
1.052578605
1.052740739
1.053057045
1.053421708
)
;
    }
    procBoundary11to16
    {
        type            processor;
        value           uniform 1.053585058;
    }
    procBoundary11to17
    {