/*--------------------------------*- C++ -*----------------------------------*\
  =========                 |
  \\      /  F ield         | OpenFOAM: The Open Source CFD Toolbox
   \\    /   O peration     | Website:  https://openfoam.org
    \\  /    A nd           | Version:  7
     \\/     M anipulation  |
\*---------------------------------------------------------------------------*/
FoamFile
{
    version     2.0;
    format      ascii;
    class       volScalarField;
    location    "4.9";
    object      p;
}
// * * * * * * * * * * * * * * * * * * * * * * * * * * * * * * * * * * * * * //

dimensions      [1 -1 -2 0 0 0 0];

internalField   nonuniform List<scalar> 5(1.059467898 1.058390234 1.092920963 1.047063085 1.158561998);

boundaryField
{
    inlet
    {
        type            fixedValue;
        value           nonuniform 0();
    }
    outlet
    {
        type            zeroGradient;
    }
    bottom
    {
        type            slip;
    }
    top
    {
        type            slip;
    }
    obstacle
    {
        type            zeroGradient;
    }
    defaultFaces
    {
        type            empty;
    }
    procBoundary9to3
    {
        type            processor;
        value           nonuniform List<scalar> 2(1.014965645 1.041855319);
    }
    procBoundary9to4
    {
        type            processor;
        value           nonuniform List<scalar> 2(1.033385487 0.9619013059);
    }
    procBoundary9to8
    {
        type            processor;
        value           uniform 1.005744849;
    }
    procBoundary9to14
    {
        type            processor;
        value           uniform 1.095656324;
    }
    procBoundary9to15
    {
        type            processor;
        value           nonuniform List<scalar> 3(0.9326665415 0.9326665415 0.8097195354);
    }
    procBoundary9to20
    {
        type            processor;
        value           uniform 1.362463809;
    }
}


// ************************************************************************* //
