/*--------------------------------*- C++ -*----------------------------------*\
  =========                 |
  \\      /  F ield         | OpenFOAM: The Open Source CFD Toolbox
   \\    /   O peration     | Website:  https://openfoam.org
    \\  /    A nd           | Version:  7
     \\/     M anipulation  |
\*---------------------------------------------------------------------------*/
FoamFile
{
    version     2.0;
    format      ascii;
    class       volScalarField;
    location    "4.9";
    object      rho;
}
// * * * * * * * * * * * * * * * * * * * * * * * * * * * * * * * * * * * * * //

dimensions      [1 -3 0 0 0 0 0];

internalField   nonuniform List<scalar> 
22
(
1.326649045
1.349327934
1.325111196
1.325352978
1.326692526
1.354003519
1.331234426
1.327766144
1.330294025
1.358502708
1.340857753
1.338278893
1.33980428
1.349234972
1.345360586
1.344534889
1.354667041
1.351616617
1.351795063
1.360962862
1.357040102
1.357703793
)
;

boundaryField
{
    inlet
    {
        type            calculated;
        value           nonuniform 0();
    }
    outlet
    {
        type            calculated;
        value           nonuniform 0();
    }
    bottom
    {
        type            calculated;
        value           nonuniform 0();
    }
    top
    {
        type            calculated;
        value           nonuniform 0();
    }
    obstacle
    {
        type            calculated;
        value           nonuniform 0();
    }
    defaultFaces
    {
        type            empty;
    }
    procBoundary22to16
    {
        type            processor;
        value           nonuniform List<scalar> 5(1.332454971 1.349474511 1.325780491 1.324849707 1.324849707);
    }
    procBoundary22to17
    {
        type            processor;
        value           uniform 1.29110171;
    }
    procBoundary22to21
    {
        type            processor;
        value           nonuniform List<scalar> 7(1.312998399 1.278403094 1.259866474 1.357588974 1.357588974 1.344803973 1.319688012);
    }
    procBoundary22to23
    {
        type            processor;
        value           nonuniform List<scalar> 5(1.291240448 1.296952038 1.304701765 1.309354349 1.316776907);
    }
    procBoundary22to28
    {
        type            processor;
        value           nonuniform List<scalar> 3(1.359695381 1.360574542 1.361076162);
    }
    procBoundary22to29
    {
        type            processor;
        value           uniform 1.32385082;
    }
}


// ************************************************************************* //
