/*--------------------------------*- C++ -*----------------------------------*\
  =========                 |
  \\      /  F ield         | OpenFOAM: The Open Source CFD Toolbox
   \\    /   O peration     | Website:  https://openfoam.org
    \\  /    A nd           | Version:  7
     \\/     M anipulation  |
\*---------------------------------------------------------------------------*/
FoamFile
{
    version     2.0;
    format      ascii;
    class       volScalarField;
    location    "3";
    object      T;
}
// * * * * * * * * * * * * * * * * * * * * * * * * * * * * * * * * * * * * * //

dimensions      [0 0 0 1 0 0 0];

internalField   nonuniform List<scalar> 
2222
(
0.8762856443
0.8727784447
0.8707251432
0.8687359429
0.8664529208
0.8628595694
0.983844138
0.9763367393
0.9702701254
0.9639104256
0.9566487145
0.9503312855
0.9447598883
0.9389682546
0.9333806679
0.9282244434
0.9231565305
0.9182413258
0.9143117498
0.9104716124
0.9059420227
0.9014540908
0.8985007935
0.8954406694
0.8915419572
0.8879624632
0.8848968853
0.8814439498
0.8782400916
0.8757620655
0.8733660437
0.8702023756
0.8667776336
0.8647495152
0.8627773929
0.8605329945
0.8570668143
0.9738107774
0.9664447501
0.9605558654
0.9544873697
0.9474910349
0.9414199773
0.9361174909
0.9305787525
0.9252752862
0.9203485706
0.9154272367
0.9105067756
0.9066574333
0.9029474392
0.8986401451
0.8943613107
0.8915061847
0.888536903
0.8848045452
0.8813441183
0.8783075514
0.8749315201
0.8719203783
0.8695855218
0.8672864681
0.8642605066
0.8609934456
0.8590741515
0.8571604608
0.8549578288
0.8514524468
0.9649777255
0.9576755552
0.9516924408
0.945609062
0.9386530318
0.932648393
0.9274443285
0.9220602132
0.9169621369
0.912212322
0.9074471052
0.902640146
0.8989301205
0.8953706019
0.8913164545
0.8872229257
0.8844560792
0.8815475254
0.8779635525
0.874660694
0.8717372104
0.8685133717
0.86567304
0.8633662549
0.8610551553
0.8579813088
0.854670465
0.8527998082
0.8509781793
0.8489157727
0.8456692536
0.9550194712
0.9479374521
0.9421609744
0.9362943433
0.9295570663
0.9238624641
0.9189590719
0.9138702586
0.9090264563
0.9044682584
0.8998513345
0.8951263577
0.8915291694
0.8881074202
0.8842300743
0.8803233344
0.8775978162
0.8747483993
0.8713056867
0.8681700873
0.8653666105
0.8621980492
0.8594637151
0.8572637917
0.8550391567
0.8520546962
0.8489694346
0.847218028
0.8454175604
0.8433242502
0.8400867623
0.9456809117
0.9387481887
0.9330250576
0.9272402509
0.9206644882
0.9151825455
0.9105189633
0.9056533419
0.901014686
0.8966080698
0.8921733168
0.8875941904
0.8841123727
0.8808035313
0.8771029607
0.8733384282
0.870614586
0.8678078237
0.864595488
0.861625513
0.858751928
0.855697693
0.8531500277
0.8509550533
0.8486710272
0.8457033507
0.842707597
0.8410994613
0.839388736
0.8374264008
0.8343826503
0.9359641987
0.929322724
0.9238681651
0.9183207848
0.9119817053
0.9067895809
0.9023495593
0.8977013983
0.8932480036
0.8890120832
0.884735564
0.8802548205
0.8768793145
0.8736672728
0.8701530558
0.8664216415
0.8637945498
0.8611058456
0.8580623488
0.8551071076
0.8523807544
0.8494658848
0.8470143812
0.8449154359
0.8427363059
0.8399166261
0.8371487258
0.8355999399
0.8339276121
0.8319753676
0.8288351969
0.9260974169
0.9196617525
0.9144403551
0.9091313897
0.9031363001
0.8982250584
0.8939997931
0.8895331466
0.8852496095
0.8811969639
0.8771117048
0.8728057678
0.8695231966
0.8664657183
0.8630279648
0.8595408039
0.8569435081
0.8543385721
0.8513909827
0.8485878229
0.8458682384
0.8428267723
0.8404067549
0.8384633843
0.8364781945
0.8338466075
0.831302919
0.8298007118
0.8281639477
0.8262013398
0.8233119814
0.9163672305
0.910338112
0.9054553403
0.900439622
0.894734165
0.8900232277
0.8859128441
0.8815571517
0.8774583557
0.8735761728
0.8696894342
0.8655028235
0.8623610773
0.8593701816
0.8561612463
0.852740662
0.8502529649
0.8477445219
0.8450214385
0.8424062689
0.8396052867
0.8367725215
0.8346795674
0.8327764119
0.8306310638
0.8280717307
0.8257090092
0.8243566857
0.8226442926
0.8207235346
0.8177350315
0.9064784768
0.9007671426
0.896178266
0.8914609763
0.8860861076
0.8815543838
0.8775345179
0.8732856352
0.8693130574
0.8656505329
0.8619422299
0.8579233222
0.8549231228
0.8521047309
0.8490918662
0.8458839858
0.8434348321
0.8410078876
0.8385119826
0.8357312699
0.8329840719
0.8301472166
0.8281630882
0.8263789756
0.8245148214
0.8222576396
0.8199907063
0.8185578089
0.8170887787
0.8152248716
0.8122984117
0.8968791189
0.8915314903
0.8872403689
0.8827804909
0.8776612164
0.8732475022
0.8692920118
0.8651236398
0.8613457753
0.8578679151
0.8543476888
0.8505011549
0.847663866
0.8450219925
0.8421334251
0.8390833746
0.8366793087
0.8344928047
0.8320829121
0.8296817925
0.827062652
0.8245380497
0.8225194559
0.8207337392
0.8187955061
0.816381166
0.8142419516
0.812994733
0.8115052032
0.8095702555
0.8065456475
0.8870031634
0.8820007621
0.8779759894
0.87378371
0.86893252
0.8646696979
0.8608322398
0.8568134216
0.8532201163
0.849932338
0.8466275857
0.8429655899
0.8403424494
0.8377754504
0.8351441762
0.8321042482
0.8297913037
0.827595949
0.8253704981
0.8229910251
0.8203640114
0.8178702807
0.8163291409
0.814624507
0.8125904811
0.8105562728
0.8084253078
0.8074360462
0.8057961988
0.803373022
0.7994650464
0.8775386886
0.8728235226
0.8690344962
0.865084834
0.8604304628
0.8563037066
0.852594879
0.84872976
0.8453188875
0.8422627681
0.8391412491
0.8356835583
0.8332044305
0.8308548585
0.8283036445
0.8253939491
0.8230494959
0.8210989186
0.8192388058
0.8168151275
0.8144218266
0.8123010404
0.8107125235
0.8088984967
0.8070026139
0.8045645227
0.8026361223
0.8010987183
0.7997214502
0.7969561287
0.7960983954
0.8677450842
0.8632990839
0.8597270946
0.8559629733
0.8515424846
0.8476209782
0.8441109253
0.8404898317
0.8373191127
0.8344158852
0.83151115
0.8283344357
0.8259872502
0.823726414
0.8212023171
0.8182593314
0.8159774263
0.8142173426
0.8122506842
0.8102332085
0.8079333929
0.8062371514
0.8044443061
0.802835763
0.8009745751
0.7987033367
0.7962022038
0.7949250176
0.7938402936
0.7942435242
0.8005823208
0.8582579268
0.8540608411
0.8506923612
0.8471445691
0.8429345806
0.8391997864
0.8358982355
0.8324609918
0.829460783
0.8267650667
0.8241063872
0.821089127
0.8189793167
0.8168635884
0.8146250552
0.8116511022
0.8096305392
0.8078816305
0.8060761014
0.8038708722
0.8020722574
0.800217554
0.7988230669
0.7969872232
0.7945517284
0.7914927899
0.7896210211
0.7903939902
0.7933335281
0.8183719433
0.874924776
0.8485317065
0.8445739984
0.84139046
0.8380366099
0.8340230699
0.8305547
0.8274808785
0.8242627969
0.8214302421
0.8189559656
0.8164769559
0.8136376685
0.8115224335
0.8095808592
0.8072474027
0.8043997039
0.8022703272
0.8008347619
0.7994178823
0.7975833925
0.7957930679
0.7940807782
0.7920296804
0.7902620627
0.7881174965
0.7868645034
0.7883343821
0.8021940125
0.8444829492
0.9235895375
0.9918653787
0.8390966871
0.8353528735
0.8323980386
0.8292333299
0.8254591797
0.8222435586
0.819352875
0.8162340783
0.813579414
0.8112585861
0.8089693727
0.8063599913
0.804515683
0.8027522046
0.8006833427
0.7980295137
0.7962408928
0.7948441839
0.7930824665
0.7914935728
0.789661712
0.7875804338
0.7852333266
0.783865314
0.7844947558
0.7911829361
0.8313623676
0.8983768208
0.9685115994
0.9922136076
1.013977083
0.829364666
0.8258970532
0.8231032105
0.820141655
0.8166961116
0.8137130284
0.8110133681
0.8081028103
0.8055910748
0.8033944563
0.8012110948
0.7986111557
0.7968460714
0.7951498728
0.7932496053
0.7905401489
0.7890674493
0.7878803499
0.7864975508
0.7844284467
0.7826735488
0.7800648009
0.7803304181
0.7830352227
0.8109944969
0.8729314969
0.9450145076
0.9955089016
1.02904251
1.029170839
1.02778162
0.8199403787
0.8166688509
0.8140917828
0.8114122862
0.808238143
0.8055459011
0.8029785729
0.8001997017
0.7978074733
0.7958360714
0.7938376482
0.7914028399
0.7898003355
0.7884678063
0.7866584847
0.7844447677
0.7828292444
0.7813797951
0.7796324611
0.7778840988
0.7769846866
0.7782428666
0.791879594
0.8394127645
0.9277948841
0.9973234405
1.017251087
1.023129463
1.033167509
1.03535484
1.034092176
0.8102435305
0.8071824808
0.8048448563
0.8023859026
0.7995201631
0.7970761179
0.7947760613
0.7920655314
0.789802233
0.7878496943
0.7858659506
0.783569162
0.7822445897
0.7809343058
0.7793611017
0.7769818132
0.7753681758
0.7739173944
0.772270525
0.7732784442
0.7809805299
0.8256944519
0.8961478627
0.9719145581
0.9971128299
1.019880996
1.026603862
1.025293313
1.029334958
1.034200732
1.034531614
0.8008431661
0.7979803578
0.7958469825
0.7936473166
0.7911131593
0.7889054798
0.7867365195
0.7843574113
0.7823790622
0.7806442997
0.7788770984
0.7766771498
0.7755715482
0.7743456987
0.7722893696
0.7693737816
0.768339301
0.7686956218
0.7722588192
0.8061437264
0.8758136386
0.9501307365
1.002926461
1.035052491
1.033322355
1.030922204
1.029555694
1.027920816
1.029340629
1.032616222
1.034622626
0.791146833
0.7885220368
0.7865768644
0.784628951
0.7823758426
0.7804621959
0.7783909798
0.7760700456
0.7740582283
0.7724155441
0.7707437401
0.76886656
0.7675866055
0.7664949068
0.7637412453
0.7634056941
0.7654410925
0.7830450136
0.842520221
0.9383134832
1.006962698
1.022386563
1.029473904
1.039719795
1.039685841
1.037184643
1.034435164
1.033006208
1.033043183
1.034064113
1.034816526
0.7818222182
0.7793341824
0.7776196111
0.7758894722
0.7738637148
0.7721246203
0.7705014389
0.7685235668
0.7669000259
0.7655296097
0.7637494648
0.7616039699
0.7604723716
0.7603423468
0.760791301
0.770047532
0.8227479632
0.9018904953
0.9819196852
1.005012568
1.026631548
1.029996491
1.030958019
1.036613899
1.039103914
1.038076188
1.036878352
1.03680857
1.036928632
1.036847376
1.036467921
0.7720557697
0.7698462534
0.7683842019
0.7668644611
0.7650362317
0.7635341619
0.7618255041
0.7599327021
0.7581943455
0.7568009828
0.7547301543
0.7530600601
0.7539905357
0.7610794636
0.8062955771
0.8836892277
0.9580784807
1.014973661
1.039600029
1.035242106
1.034568112
1.033186984
1.032850236
1.035201171
1.037509541
1.037971623
1.038039205
1.03836342
1.038830312
1.038801548
1.038383979
0.7627470049
0.7607041014
0.7593845291
0.7581137511
0.7566680211
0.7555154055
0.7542280257
0.7522594663
0.7507245102
0.7488337425
0.7488244902
0.7529571268
0.780393206
0.8635425528
0.9560516306
1.013884823
1.023884708
1.03353506
1.043775329
1.042699632
1.040303143
1.038650528
1.037847043
1.038377195
1.038803733
1.038650853
1.03835553
1.03860949
1.039244239
1.039743851
1.039704388
0.7527513144
0.7509617903
0.7500428901
0.7489369835
0.7475352157
0.74636312
0.7450844998
0.7424577058
0.7425281998
0.7441281757
0.7606065776
0.8394443988
0.9312597392
0.995474507
1.010754348
1.028517611
1.032094223
1.035665376
1.04227547
1.043085427
1.042341535
1.042397379
1.04292256
1.042950239
1.042387566
1.041304171
1.040342845
1.03999568
1.040198935
1.040754707
1.041286479
0.7434212758
0.7418079849
0.7411834077
0.7404851235
0.7392712736
0.7386339857
0.7369453432
0.7372103391
0.7504998435
0.8104627789
0.9011805556
0.9759552917
1.030589421
1.042173525
1.038690357
1.041124565
1.043008601
1.043552525
1.044462983
1.044753545
1.045024798
1.045859273
1.047220748
1.047576966
1.047081332
1.045929701
1.045041018
1.044645375
1.04443021
1.044528317
1.044729519
0.7335306394
0.7324738882
0.7316687623
0.730420842
0.7290093391
0.7294542064
0.7377624807
0.7830746436
0.889517502
0.9672173044
1.027745959
1.036469864
1.046361565
1.053468794
1.052141165
1.05256818
1.052817883
1.051906553
1.050876032
1.049991982
1.049725907
1.050271584
1.051555003
1.052597379
1.052503726
1.052071819
1.051809576
1.051809934
1.051644997
1.051494108
1.051209375
0.7246994127
0.7237846763
0.7228215855
0.7227871893
0.7247392583
0.7658406096
0.8657943402
0.9632317849
1.010686963
1.03623557
1.054227096
1.055583099
1.057365764
1.06018371
1.059713461
1.059871845
1.061011729
1.060958447
1.060441341
1.058962837
1.057460333
1.057205278
1.057487349
1.058086755
1.058678423
1.058976229
1.059289765
1.059912203
1.06006986
1.05998952
1.059615959
0.7142550128
0.7134396305
0.7134863572
0.729309689
0.8214542402
0.9497614531
1.024875934
1.054672382
1.057441374
1.061612469
1.069057574
1.068621582
1.066707966
1.067028192
1.067771249
1.068710451
1.070111923
1.070257598
1.069759836
1.068478281
1.067259873
1.066861137
1.066702225
1.066718442
1.06680851
1.067072091
1.067462685
1.068164408
1.068436247
1.068307652
1.067902911
0.7061962744
0.7064883889
0.775852495
0.9267781554
1.025348633
1.051626447
1.06534538
1.07945712
1.07831921
1.076375419
1.07739329
1.076995444
1.076115135
1.075981111
1.076299734
1.076772097
1.077317069
1.077673192
1.077604711
1.077057335
1.076386833
1.076020419
1.075858352
1.075560121
1.075255963
1.074931217
1.074946728
1.07513699
1.075303333
1.075264912
1.075061025
0.7035639028
0.702963214
0.7258254801
0.9620536203
1.063603363
1.090941046
1.081640558
1.076161134
1.085630147
1.083642848
1.081412431
1.081126922
1.080793812
1.080266794
1.079772262
1.079821216
1.079859201
1.080100772
1.080568675
1.080723083
1.080524306
1.080279168
1.080361742
1.080129218
1.079697891
1.079210776
1.078316705
1.078124126
1.078174706
1.078269476
1.078185171
1.078298684
0.7029914387
0.7029276377
0.7906664189
1.020628665
1.060103455
1.085542501
1.076868758
1.074192114
1.08453944
1.0826041
1.080351309
1.080386042
1.080253559
1.079833549
1.079285074
1.07934092
1.079324858
1.079335255
1.079681782
1.079927023
1.079897375
1.079911904
1.080277966
1.080053685
1.079665078
1.079200079
1.078283842
1.077838768
1.077869491
1.077970203
1.078030323
1.07829169
0.7026141597
0.7038475071
0.868768018
1.026599476
1.058203986
1.077235324
1.070084378
1.06905464
1.08036138
1.078971523
1.077220564
1.077627584
1.078021846
1.078046224
1.077832755
1.07793966
1.07778185
1.077849281
1.078096332
1.078463187
1.078533883
1.078839054
1.079557091
1.079438266
1.07914679
1.078736287
1.077879809
1.077176999
1.077228773
1.077432469
1.077648534
1.077934016
0.7024433969
0.7229005857
0.9760432329
1.038128533
1.057698997
1.071579733
1.062828209
1.06361648
1.075605544
1.074773721
1.073243786
1.073943031
1.074575364
1.075005742
1.075007785
1.075370563
1.075291178
1.075309163
1.075530141
1.076058544
1.076357716
1.076970358
1.077820418
1.077994014
1.077927679
1.077780593
1.077200391
1.07634489
1.076262097
1.076414069
1.076703549
1.076982071
0.7024791759
0.7836198635
1.030084402
1.056704321
1.058870312
1.070669223
1.060031602
1.06015395
1.071411879
1.070574059
1.069225056
1.070078496
1.071012293
1.071784937
1.071893713
1.072300584
1.072194003
1.072312056
1.072650051
1.073300194
1.073845111
1.074668341
1.075592332
1.075948165
1.076019012
1.075970762
1.075598349
1.075159175
1.075034108
1.075185715
1.075456288
1.07569141
0.7043186942
0.8758312664
1.031091432
1.063099565
1.059245443
1.069525067
1.059892538
1.059689869
1.069873598
1.068778104
1.066950906
1.067602482
1.068502737
1.069290309
1.069454204
1.069890032
1.069705001
1.069570868
1.069848391
1.07052927
1.071180181
1.072193244
1.073232697
1.073733529
1.073898527
1.073821635
1.073544274
1.07337729
1.073354736
1.073502266
1.0737905
1.074032304
0.7258678975
0.971957648
1.039316319
1.063234457
1.05908933
1.069000961
1.060007328
1.059169651
1.068309106
1.067751293
1.065372711
1.065889035
1.066817465
1.067446093
1.067572822
1.067955489
1.067915628
1.067783439
1.067866803
1.068434235
1.069111159
1.070230155
1.071286491
1.071828558
1.072062592
1.071947174
1.071536768
1.071415821
1.071637387
1.071882985
1.072118171
1.072251225
0.7851995713
1.010616391
1.055108216
1.062500789
1.057473283
1.068323448
1.060545733
1.058728687
1.067410092
1.066919858
1.064715786
1.06532749
1.066220615
1.066659228
1.066698049
1.066891521
1.066740115
1.06654568
1.066701818
1.067268373
1.067983068
1.069112241
1.070154461
1.070460361
1.070540329
1.070328706
1.069751601
1.069672875
1.069994861
1.070372731
1.070667731
1.070848912
0.8888221349
1.024912725
1.065173903
1.059417466
1.057597511
1.068552767
1.061013788
1.058489885
1.067041646
1.066611196
1.064714948
1.065407551
1.066355202
1.066672959
1.066697495
1.066745837
1.066327307
1.065934214
1.065975794
1.066487368
1.067184579
1.068357099
1.069283247
1.06944655
1.069487296
1.069249902
1.068607343
1.068335868
1.068667372
1.069100417
1.069412186
1.069646667
0.7281654616
0.9780006316
1.047056679
1.066050634
1.059278912
1.05846026
1.0689952
1.061493489
1.058536783
1.067033842
1.06663486
1.064684829
1.065344444
1.066328352
1.066517061
1.066557807
1.066638213
1.066351269
1.065869405
1.065594509
1.065900013
1.066583727
1.067833115
1.068733672
1.068911085
1.069044191
1.068791944
1.067958369
1.067606713
1.067833859
1.068159341
1.068456877
1.068690511
0.798162639
1.006208862
1.062357317
1.065745889
1.060720996
1.061113662
1.070411107
1.062690488
1.059195469
1.067182788
1.066794555
1.064659399
1.065254622
1.066192091
1.066322626
1.066319893
1.066396974
1.066186992
1.065910591
1.065487408
1.065655808
1.066341876
1.067652056
1.068628873
1.068828425
1.06886914
1.068413681
1.067496696
1.067163658
1.06729059
1.067580881
1.067895963
1.068190517
0.8957270248
1.032678115
1.063861707
1.061683587
1.063535284
1.063498518
1.071422357
1.064017261
1.060070085
1.06725002
1.066880491
1.064609773
1.065104435
1.065972773
1.066032219
1.066033174
1.066143681
1.06600185
1.065818057
1.065491051
1.065628469
1.066326204
1.067699475
1.068723533
1.068747552
1.068642234
1.068157747
1.067280543
1.066878385
1.066892746
1.067194347
1.067596016
1.068171499
0.9649432249
1.058232233
1.063482375
1.05909229
1.064815989
1.063683465
1.071468965
1.064546189
1.060349641
1.067261143
1.066928874
1.064482438
1.064860002
1.065759268
1.065760734
1.065810863
1.065916478
1.06580296
1.065658172
1.065474585
1.065651793
1.066407551
1.067831078
1.068652602
1.068651185
1.068542695
1.068145005
1.067348518
1.066785696
1.066685633
1.067009633
1.067474099
1.06779957
1.008548769
1.061927564
1.059358503
1.059997313
1.064741103
1.063406986
1.071182783
1.064443987
1.060269735
1.066952362
1.066789243
1.064450955
1.064825444
1.065749903
1.06572874
1.06577439
1.065861519
1.065745048
1.065501953
1.065357375
1.065575044
1.066318757
1.067718584
1.06847129
1.068558661
1.068498774
1.068161903
1.067703588
1.066924064
1.066668902
1.066812518
1.067179246
1.067487521
1.049755074
1.061991798
1.058218762
1.06450753
1.064510469
1.062280342
1.070769439
1.064371133
1.060184674
1.066257654
1.066527928
1.064466033
1.064826345
1.065787143
1.065743959
1.065811973
1.06590416
1.065737184
1.065445205
1.065176517
1.065380691
1.066128522
1.067448036
1.068232037
1.068486256
1.068478885
1.068234391
1.067931757
1.067369299
1.066914726
1.066743845
1.066916882
1.067156935
1.060576934
1.05817099
1.059885026
1.066567065
1.063475608
1.059347329
1.069063014
1.064091554
1.06015121
1.065944648
1.066360972
1.064416584
1.064803545
1.065844818
1.065827466
1.065885887
1.0660596
1.065883625
1.065490921
1.065064333
1.065198433
1.065928444
1.06717787
1.067903752
1.068372951
1.06840195
1.068149801
1.067853296
1.067618583
1.067366926
1.067070664
1.066903009
1.066841523
1.061883044
1.056397567
1.063576123
1.066303554
1.061575947
1.0582713
1.067625127
1.063824712
1.060091882
1.06571795
1.066199721
1.064372239
1.064715755
1.065777267
1.065765702
1.065796787
1.066076399
1.066009004
1.065630642
1.065028166
1.065072186
1.065796212
1.066988344
1.06757513
1.06805886
1.068165964
1.067915744
1.067676777
1.067473272
1.067473529
1.06735017
1.067185706
1.050246356
1.055279356
1.058145822
1.064929911
1.064806707
1.06113894
1.058412434
1.067380186
1.063946392
1.060475661
1.06563012
1.066064202
1.064256685
1.064483162
1.065428733
1.065475199
1.06552255
1.065901368
1.065896306
1.065653307
1.06506869
1.06511428
1.065831026
1.066996721
1.067346414
1.067621025
1.067624025
1.067320592
1.06705255
1.067157243
1.067296062
1.067265716
1.067187301
1.05525966
1.053756131
1.062628053
1.064658465
1.062049818
1.061810744
1.059850748
1.067472467
1.064355668
1.060965985
1.065368189
1.065929443
1.064023854
1.064138651
1.064956156
1.065049685
1.065172938
1.065603866
1.065628763
1.065442961
1.065096225
1.065162377
1.06590372
1.067000832
1.067275351
1.067297222
1.067191501
1.066726788
1.066388622
1.066488863
1.066908963
1.067030963
1.066962849
1.04957486
1.056361498
1.064595553
1.063278788
1.061633474
1.063197341
1.061883859
1.068142953
1.064772436
1.060968745
1.064984699
1.065635036
1.063763844
1.063812742
1.064617938
1.064698582
1.064858773
1.065306448
1.06534213
1.065096415
1.064929801
1.065049039
1.065832691
1.066876564
1.067219368
1.067149555
1.066778986
1.066196492
1.065930715
1.066054211
1.066551032
1.066706147
1.06665617
1.051624864
1.063031887
1.064505011
1.061162907
1.062284748
1.063268188
1.062032642
1.068443267
1.064985201
1.060777827
1.064589596
1.065260711
1.0635509
1.063575409
1.06434411
1.064457428
1.064635897
1.065089421
1.065161391
1.064828938
1.064624027
1.064774935
1.065495041
1.066536601
1.066984723
1.06687447
1.06638914
1.065798533
1.065603517
1.065784507
1.066363594
1.066640575
1.066624762
1.059617032
1.064414414
1.062910977
1.06094904
1.064082074
1.062904109
1.061607953
1.068184046
1.064920981
1.060491649
1.063956327
1.064849857
1.063376024
1.063408648
1.064150274
1.064317459
1.064539494
1.064997278
1.065107206
1.064711094
1.064338546
1.064443966
1.065062037
1.066060405
1.06655752
1.066485111
1.065919611
1.065474971
1.06535612
1.065513611
1.065980177
1.066187868
1.066173969
1.063835698
1.063544169
1.059974004
1.061550944
1.064263546
1.062097287
1.060786021
1.06774399
1.064595722
1.060261622
1.06360401
1.064531304
1.06326732
1.063363477
1.064107047
1.064264909
1.064433495
1.064976713
1.065117329
1.064709868
1.064182456
1.064178448
1.064672035
1.065458463
1.065975197
1.065952755
1.065761352
1.065365927
1.065119622
1.065201387
1.065593305
1.06579186
1.065780196
1.06311022
1.060259955
1.05940626
1.062669435
1.063808937
1.060515491
1.059327492
1.067071954
1.064198103
1.06020538
1.063410593
1.064338678
1.063199657
1.063311117
1.063859018
1.063964357
1.064096657
1.064749869
1.065009331
1.064723548
1.064184278
1.064057599
1.06438109
1.064823841
1.065264774
1.065409114
1.065477087
1.065398809
1.065173697
1.065140088
1.065440482
1.065581432
1.065571802
1.062086056
1.057614493
1.060423773
1.062803326
1.062780199
1.060043962
1.058646764
1.066011768
1.063741989
1.060309592
1.063230385
1.064267208
1.063093654
1.063025542
1.063483611
1.063598305
1.063743098
1.06440472
1.064697825
1.064568891
1.064209338
1.064052706
1.064194651
1.064236155
1.064516164
1.064788611
1.065070891
1.065339816
1.06534142
1.065444477
1.0656084
1.065620596
1.065630317
1.063851094
1.057929048
1.058025043
1.062536331
1.062523285
1.061806978
1.060551503
1.058535015
1.064644237
1.063103966
1.060503674
1.062953403
1.064060895
1.062903625
1.062734928
1.063191081
1.063330355
1.06348872
1.064118993
1.06437467
1.064248608
1.064057466
1.06400997
1.064059727
1.063926424
1.063953842
1.064170558
1.064623043
1.065043181
1.065332817
1.06563479
1.065779181
1.06575438
1.06577745
1.058661202
1.056720471
1.059923623
1.062694229
1.061592223
1.061671558
1.061760839
1.059023527
1.064133574
1.062749206
1.060392668
1.062652565
1.06377261
1.062708484
1.062588649
1.063054331
1.063184412
1.063342463
1.063931133
1.06414835
1.063917648
1.063787377
1.063807102
1.063861592
1.063672303
1.063497288
1.063623482
1.064079918
1.064695467
1.065208586
1.065705369
1.065923881
1.065885147
1.065831476
1.055236526
1.057198932
1.062085113
1.062340346
1.060842934
1.062067411
1.062084657
1.0593551
1.063995026
1.062562917
1.060193343
1.062322212
1.063505125
1.062594283
1.062499616
1.062977749
1.06310856
1.063253434
1.063875981
1.064059521
1.063701196
1.063536484
1.063513262
1.063606073
1.063456904
1.063093866
1.063069723
1.063451447
1.064262836
1.0650878
1.065735887
1.065974665
1.065919476
1.065769068
1.055527431
1.060336931
1.062028525
1.06104701
1.060795605
1.062574663
1.061831833
1.059147065
1.063958369
1.062548995
1.060021836
1.061963535
1.063219495
1.062525786
1.062546155
1.062928602
1.062956558
1.063073348
1.063782945
1.064048643
1.063665454
1.063371092
1.063235152
1.063315342
1.063185971
1.062810156
1.062576405
1.06285756
1.063557286
1.064872397
1.06562752
1.065857939
1.065829236
1.065661599
1.059233635
1.061605205
1.061383263
1.060197304
1.061180616
1.062445467
1.06131903
1.058908202
1.064180336
1.062709665
1.059895275
1.061745682
1.063015218
1.062487493
1.062475411
1.062687108
1.062704065
1.062833258
1.063614217
1.063955299
1.06367034
1.063305138
1.063032352
1.063041666
1.062915321
1.062578505
1.06224896
1.062447328
1.063036312
1.06405
1.065251816
1.065661573
1.065684287
1.065571707
1.061718248
1.061493157
1.059641196
1.060315077
1.061434364
1.06217447
1.060366753
1.058835009
1.06439737
1.062680218
1.059953013
1.061617145
1.062875789
1.062415855
1.062249119
1.062406699
1.06243214
1.062582303
1.06338999
1.063749219
1.063598265
1.063305547
1.062961426
1.062889084
1.062747111
1.062426018
1.062008696
1.062147306
1.062606279
1.06347848
1.064565003
1.065456954
1.065537426
1.065466259
1.061744571
1.059601119
1.059089303
1.06107569
1.061248085
1.06171978
1.06011144
1.058895216
1.064274908
1.062504732
1.060054758
1.061469497
1.062744119
1.062316227
1.062066
1.062175436
1.062143788
1.062303822
1.063098024
1.063502034
1.063396922
1.063294632
1.063030566
1.062924956
1.062790257
1.062440661
1.061898653
1.061903644
1.062313048
1.063213503
1.064179852
1.064872209
1.065372732
1.065287574
1.06011487
1.058132943
1.059487414
1.061519823
1.060955365
1.061415325
1.06024454
1.059104875
1.06397365
1.062223657
1.059913437
1.061255275
1.062603868
1.062256977
1.06197734
1.062082291
1.061880046
1.062028508
1.062774799
1.063206954
1.063131338
1.063207275
1.063089123
1.063066208
1.063008272
1.062594248
1.061908524
1.0618024
1.062175891
1.063076574
1.063961012
1.064486763
1.064968992
1.05922227
1.057616343
1.058565452
1.061061324
1.061471613
1.060497183
1.061313142
1.060894488
1.059044862
1.063595958
1.061834507
1.059709906
1.061016526
1.062448621
1.062223283
1.061972219
1.061989547
1.061746869
1.061797534
1.062538869
1.062998551
1.062932006
1.063064681
1.063040328
1.063121885
1.063111679
1.0626692
1.062048832
1.062004976
1.062400298
1.063242677
1.063873514
1.064287929
1.064570799
1.055927632
1.057146149
1.059953804
1.061686291
1.061394125
1.060439589
1.061360981
1.061102746
1.058821999
1.062875767
1.061268874
1.059545137
1.060785108
1.06226522
1.062150589
1.062006089
1.061894426
1.06160792
1.061696814
1.062459702
1.062807481
1.062903195
1.062959108
1.062919901
1.063007208
1.062985195
1.06256935
1.062104718
1.062211076
1.06274469
1.063617777
1.064148306
1.064253053
1.064366639
1.055913214
1.058328289
1.061235313
1.061617145
1.060842747
1.060559662
1.061308238
1.060971571
1.058475115
1.061986485
1.060777505
1.059239147
1.060496109
1.062023307
1.062033307
1.06194574
1.061765388
1.061451711
1.061538359
1.062284079
1.062787348
1.062924986
1.06293048
1.062831632
1.062790966
1.062656118
1.062339423
1.062072054
1.062249281
1.062900803
1.063829796
1.064471528
1.064533691
1.064351875
1.057060579
1.059928027
1.061086246
1.060970854
1.060733649
1.060852778
1.061256241
1.060757034
1.058261482
1.061762549
1.06056719
1.05900262
1.060226955
1.061786977
1.061868686
1.061785491
1.061509456
1.061233679
1.06134964
1.062065906
1.062792875
1.062850053
1.062939572
1.062867809
1.062699255
1.062311182
1.061801146
1.061828848
1.062106478
1.062741611
1.063802558
1.064613481
1.064748789
1.064613021
1.059023922
1.059843514
1.060309212
1.060053371
1.060896691
1.060930966
1.061226532
1.060570971
1.058210391
1.06174488
1.060630925
1.059003562
1.060040616
1.061579771
1.061789725
1.06165527
1.061287197
1.060941635
1.061054836
1.061727305
1.062660219
1.062824872
1.06295484
1.062921603
1.06275885
1.062209287
1.061425184
1.061318024
1.061674561
1.062640831
1.063798639
1.064575613
1.06484203
1.06478674
1.059133096
1.059166679
1.058881005
1.059847518
1.061211475
1.060899937
1.061272148
1.06061454
1.05848361
1.062120667
1.06109779
1.059155009
1.059883674
1.061406232
1.061767705
1.061589395
1.061174761
1.060678367
1.060729958
1.061391698
1.062485837
1.062802955
1.0629781
1.062947529
1.062795445
1.062164781
1.061315859
1.061124761
1.061330225
1.062214959
)
;

boundaryField
{
    inlet
    {
        type            fixedValue;
        value           nonuniform 0();
    }
    outlet
    {
        type            inletOutlet;
        inletValue      nonuniform 0();
        value           nonuniform 0();
    }
    bottom
    {
        type            slip;
    }
    top
    {
        type            slip;
    }
    obstacle
    {
        type            zeroGradient;
    }
    defaultFaces
    {
        type            empty;
    }
    procBoundary10to4
    {
        type            processor;
        value           nonuniform List<scalar> 
32
(
0.882222566
0.8785399853
0.87639307
0.8743295298
0.8719718444
0.8682931185
0.9931934257
0.9855881481
0.9794636675
0.9729824585
0.9655226319
0.9590788394
0.9534165567
0.9474887541
0.9417047408
0.9363511609
0.9310970756
0.9261430013
0.9221942268
0.9182555987
0.9134957876
0.9087312363
0.9056548685
0.9025136615
0.898443895
0.894700444
0.8916041757
0.8881306427
0.8847170376
0.8820558035
0.8795518868
0.8795518868
)
;
    }
    procBoundary10to5
    {
        type            processor;
        value           uniform 0.8605562827;
    }
    procBoundary10to9
    {
        type            processor;
        value           nonuniform List<scalar> 
55
(
0.9928759793
0.9825566581
0.9733612968
0.9629928128
0.9533257109
0.9431817039
0.933160486
0.923051039
0.9129245821
0.9030292527
0.8927816393
0.8830613229
0.8729438784
0.8632149201
0.8532064686
0.8435478744
0.833511658
0.8238909062
0.8139019586
0.8043506605
0.7943835613
0.784891771
0.7749198398
0.7653957149
0.7553595775
0.7459517355
0.7356416312
0.7260630325
0.7150550797
0.7065540702
0.7065540702
0.7036070781
0.7031548078
0.7027231521
0.7026066251
0.7025080502
0.7026388459
0.702819207
0.7028360903
0.70553363
0.70553363
0.7030194313
0.7034318052
0.7064639608
0.7308961408
0.8148035526
0.8960510575
0.9613772014
1.025136279
1.025136279
0.8892652324
0.9908207176
1.032041309
1.034758787
1.041617724
)
;
    }
    procBoundary10to11
    {
        type            processor;
        value           nonuniform List<scalar> 
70
(
0.8547864266
0.8493543599
0.8436580015
0.8381306109
0.8326097005